ITEM: TIMESTEP
0
ITEM: NUMBER OF ATOMS
131
ITEM: BOX BOUNDS pp pp pp
0.0000000000000000e+00 1.8762000000000000e+01
0.0000000000000000e+00 1.8762000000000000e+01
0.0000000000000000e+00 1.8760999999999999e+01
ITEM: ATOMS id type x y z 
1 1 3.12 3.119 3.121 
10 1 5.595 5.596 5.595 
17 1 4.011 4.011 4.012 
26 1 4.704 4.704 4.704 
33 1 0.414 3.456 3.456 
41 1 3.456 0.413 3.456 
49 1 3.456 3.456 0.414 
58 1 8.301 5.259 5.259 
66 1 5.259 8.301 5.259 
74 1 5.259 5.259 8.301 
81 1 1.612 3.354 3.354 
89 1 3.353 1.612 3.354 
97 1 3.354 3.354 1.613 
106 1 7.103 5.361 5.361 
114 1 5.362 7.103 5.361 
122 1 5.361 5.361 7.103 
4 1 3.12 3.12 14.976 
11 1 5.595 5.595 12.5 
20 1 4.011 4.011 14.084 
27 1 4.704 4.704 13.392 
36 1 0.414 3.456 14.639 
46 1 3.456 0.414 14.639 
56 1 3.456 3.456 17.682 
59 1 8.301 5.259 12.837 
69 1 5.259 8.301 12.837 
79 1 5.259 5.259 9.794 
84 1 1.612 3.354 14.742 
94 1 3.354 1.612 14.742 
104 1 3.354 3.354 16.483 
107 1 7.103 5.361 12.735 
117 1 5.361 7.103 12.735 
127 1 5.361 5.361 10.993 
6 1 3.12 14.976 3.12 
13 1 5.595 12.501 5.596 
22 1 4.011 14.085 4.011 
29 1 4.704 13.392 4.705 
38 1 0.414 14.64 3.457 
48 1 3.456 17.682 3.456 
52 1 3.456 14.64 0.414 
61 1 8.301 12.837 5.259 
71 1 5.259 9.794 5.259 
75 1 5.259 12.837 8.301 
86 1 1.612 14.742 3.354 
96 1 3.354 16.483 3.354 
100 1 3.354 14.742 1.612 
109 1 7.103 12.735 5.361 
119 1 5.361 10.993 5.361 
123 1 5.361 12.735 7.103 
7 1 3.12 14.976 14.976 
16 1 5.595 12.501 12.5 
23 1 4.011 14.085 14.084 
32 1 4.704 13.392 13.391 
39 1 0.414 14.64 14.639 
43 1 3.456 17.682 14.639 
53 1 3.456 14.64 17.682 
64 1 8.302 12.837 12.837 
68 1 5.259 9.795 12.837 
78 1 5.259 12.837 9.794 
87 1 1.612 14.742 14.741 
91 1 3.354 16.483 14.741 
101 1 3.353 14.742 16.483 
112 1 7.103 12.735 12.735 
116 1 5.361 10.993 12.735 
126 1 5.361 12.735 10.993 
8 1 14.976 3.12 3.12 
15 1 12.501 5.595 5.595 
24 1 14.084 4.011 4.011 
31 1 13.392 4.704 4.704 
40 1 17.682 3.456 3.456 
44 1 14.64 0.414 3.457 
54 1 14.64 3.456 0.414 
63 1 9.795 5.259 5.259 
67 1 12.837 8.301 5.259 
77 1 12.837 5.259 8.301 
88 1 16.483 3.354 3.354 
92 1 14.742 1.612 3.354 
102 1 14.742 3.354 1.612 
111 1 10.993 5.361 5.361 
115 1 12.735 7.103 5.361 
125 1 12.735 5.361 7.103 
5 1 14.976 3.119 14.975 
14 1 12.501 5.596 12.501 
21 1 14.085 4.011 14.084 
30 1 13.392 4.703 13.392 
37 1 17.682 3.456 14.639 
47 1 14.64 0.413 14.639 
51 1 14.64 3.456 17.682 
62 1 9.794 5.259 12.837 
72 1 12.837 8.301 12.837 
76 1 12.837 5.259 9.795 
85 1 16.483 3.354 14.741 
95 1 14.742 1.612 14.741 
99 1 14.742 3.354 16.483 
110 1 10.993 5.361 12.735 
120 1 12.734 7.103 12.735 
124 1 12.735 5.361 10.993 
129 2 12.024 5.761 13.761 
130 2 12.217 5.272 15.179 
131 3 11.27 5.276 15.375 
3 1 14.976 14.976 3.12 
12 1 12.501 12.501 5.595 
19 1 14.085 14.085 4.011 
28 1 13.392 13.392 4.704 
35 1 17.682 14.64 3.457 
45 1 14.64 17.682 3.457 
55 1 14.64 14.64 0.414 
60 1 9.794 12.837 5.259 
70 1 12.837 9.794 5.259 
80 1 12.837 12.837 8.301 
83 1 16.484 14.742 3.354 
93 1 14.742 16.483 3.354 
103 1 14.742 14.742 1.613 
108 1 10.993 12.735 5.361 
118 1 12.734 10.993 5.361 
128 1 12.734 12.734 7.103 
2 1 14.976 14.976 14.975 
9 1 12.501 12.501 12.501 
18 1 14.084 14.085 14.084 
25 1 13.391 13.393 13.392 
34 1 17.682 14.64 14.639 
42 1 14.64 17.682 14.639 
50 1 14.64 14.64 17.682 
57 1 9.795 12.837 12.837 
65 1 12.837 9.794 12.837 
73 1 12.837 12.837 9.794 
82 1 16.483 14.742 14.741 
90 1 14.742 16.483 14.741 
98 1 14.742 14.742 16.483 
105 1 10.993 12.734 12.734 
113 1 12.735 10.993 12.735 
121 1 12.735 12.734 10.993 
ITEM: TIMESTEP
10
ITEM: NUMBER OF ATOMS
131
ITEM: BOX BOUNDS pp pp pp
0.0000000000000000e+00 1.8762000000000000e+01
0.0000000000000000e+00 1.8762000000000000e+01
0.0000000000000000e+00 1.8760999999999999e+01
ITEM: ATOMS id type x y z 
1 1 3.12031 3.11924 3.1202 
10 1 5.59461 5.59549 5.59525 
17 1 4.00911 4.01125 4.01295 
26 1 4.70546 4.70327 4.70253 
33 1 0.413248 3.45547 3.45535 
41 1 3.45515 0.413035 3.45542 
49 1 3.45538 3.45543 0.414166 
58 1 8.3003 5.25945 5.25951 
66 1 5.25977 8.30161 5.25942 
74 1 5.25937 5.25934 8.29921 
81 1 1.6123 3.3534 3.35372 
89 1 3.35293 1.61203 3.35362 
97 1 3.35354 3.35339 1.61305 
106 1 7.1025 5.36152 5.3614 
114 1 5.36196 7.10275 5.36146 
122 1 5.36155 5.36167 7.10084 
4 1 3.11913 3.11952 14.9765 
11 1 5.58902 5.59507 12.5004 
20 1 4.00854 4.00887 14.0863 
27 1 4.70127 4.69896 13.3965 
36 1 0.415189 3.45562 14.6397 
46 1 3.45544 0.413277 14.6398 
56 1 3.45542 3.45542 17.6821 
59 1 8.25454 5.25532 12.8452 
69 1 5.25862 8.30466 12.8371 
79 1 5.25859 5.25898 9.79106 
84 1 1.61391 3.35335 14.7423 
94 1 3.35349 1.61211 14.7422 
104 1 3.35357 3.35358 16.4833 
107 1 7.06367 5.36377 12.7327 
117 1 5.36063 7.10731 12.7358 
127 1 5.36065 5.36009 10.9885 
6 1 3.11992 14.9758 3.11994 
13 1 5.59482 12.5008 5.59558 
22 1 4.01079 14.0852 4.01153 
29 1 4.70417 13.3919 4.70426 
38 1 0.413767 14.6406 3.45623 
48 1 3.45547 17.6822 3.45544 
52 1 3.45549 14.6405 0.413566 
61 1 8.30137 12.8365 5.25949 
71 1 5.25955 9.79463 5.25953 
75 1 5.25949 12.8365 8.30147 
86 1 1.61205 14.7425 3.35384 
96 1 3.35361 16.4832 3.35357 
100 1 3.35359 14.7424 1.61257 
109 1 7.10255 12.7346 5.36155 
119 1 5.3614 10.993 5.36156 
123 1 5.36144 12.7346 7.10261 
7 1 3.11947 14.976 14.975 
16 1 5.5948 12.501 12.5 
23 1 4.01138 14.0848 14.0847 
32 1 4.70408 13.3921 13.3918 
39 1 0.413291 14.6406 14.6395 
43 1 3.45539 17.6822 14.6395 
53 1 3.45513 14.6405 17.6816 
64 1 8.30051 12.8364 12.8365 
68 1 5.25945 9.79705 12.8366 
78 1 5.25954 12.8364 9.79447 
87 1 1.61229 14.7424 14.7415 
91 1 3.35361 16.4837 14.7415 
101 1 3.35301 14.7425 16.4832 
112 1 7.10295 12.7346 12.7344 
116 1 5.36157 10.9948 12.7343 
126 1 5.36145 12.7346 10.9927 
8 1 14.9763 3.1193 3.12025 
15 1 12.5002 5.59583 5.58949 
24 1 14.0852 4.01072 4.00965 
31 1 13.393 4.70221 4.70173 
40 1 17.6824 3.45544 3.4554 
44 1 14.6405 0.412996 3.45626 
54 1 14.6403 3.45568 0.415397 
63 1 9.79373 5.25924 5.25939 
67 1 12.8368 8.30261 5.25934 
77 1 12.8385 5.25737 8.2879 
88 1 16.4839 3.35364 3.35369 
92 1 14.7424 1.61203 3.35387 
102 1 14.7425 3.35342 1.61408 
111 1 10.9913 5.36112 5.36063 
115 1 12.7349 7.10421 5.36065 
125 1 12.7345 5.36154 7.08701 
5 1 14.9898 3.1057 14.9895 
14 1 12.4837 5.59165 12.5658 
21 1 14.1085 3.9883 14.098 
30 1 13.4267 4.67177 13.3938 
37 1 17.6855 3.45636 14.6387 
47 1 14.6396 0.4098 14.6387 
51 1 14.6396 3.45644 17.6846 
62 1 9.7492 5.24446 12.8273 
72 1 12.8447 8.3309 12.841 
76 1 12.8412 5.25556 9.78235 
85 1 16.4879 3.35374 14.7411 
95 1 14.7421 1.60787 14.7412 
99 1 14.742 3.35376 16.4872 
110 1 10.9499 5.32672 12.6663 
120 1 12.7443 7.12079 12.7344 
124 1 12.7405 5.35657 10.9837 
129 2 12.1224 5.78518 13.7888 
130 2 12.2115 5.27687 15.188 
131 3 11.2732 5.27931 15.3657 
3 1 14.9761 14.9762 3.12029 
12 1 12.5003 12.5006 5.59447 
19 1 14.0845 14.0841 4.00998 
28 1 13.3926 13.3928 4.70513 
35 1 17.6823 14.6405 3.45624 
45 1 14.6406 17.6822 3.45621 
55 1 14.6405 14.6406 0.413954 
60 1 9.79449 12.8364 5.25956 
70 1 12.8362 9.79542 5.25948 
80 1 12.8363 12.8363 8.30042 
83 1 16.484 14.7424 3.35388 
93 1 14.7424 16.4837 3.35391 
103 1 14.7424 14.7424 1.61284 
108 1 10.9928 12.7346 5.36139 
118 1 12.734 10.9934 5.3615 
128 1 12.7339 12.7339 7.10235 
2 1 14.9755 14.976 14.9759 
9 1 12.4998 12.5059 12.5002 
18 1 14.0854 14.0848 14.0841 
25 1 13.3928 13.3957 13.3932 
34 1 17.6824 14.6406 14.6396 
42 1 14.6404 17.6803 14.6393 
50 1 14.6406 14.6405 17.682 
57 1 9.79386 12.8363 12.8365 
65 1 12.8398 9.81135 12.8399 
73 1 12.8367 12.8363 9.79386 
82 1 16.4839 14.7423 14.7414 
90 1 14.7425 16.4816 14.7416 
98 1 14.7424 14.7424 16.4831 
105 1 10.9911 12.7347 12.7342 
113 1 12.7331 11.0241 12.733 
121 1 12.7349 12.7348 10.9905 
ITEM: TIMESTEP
17
ITEM: NUMBER OF ATOMS
131
ITEM: BOX BOUNDS pp pp pp
0.0000000000000000e+00 1.8762000000000000e+01
0.0000000000000000e+00 1.8762000000000000e+01
0.0000000000000000e+00 1.8760999999999999e+01
ITEM: ATOMS id type x y z 
1 1 3.1205 3.11906 3.11973 
10 1 5.59411 5.59544 5.59483 
17 1 4.00653 4.0125 4.01348 
26 1 4.70725 4.70122 4.70109 
33 1 0.413344 3.45482 3.45469 
41 1 3.45427 0.413184 3.45479 
49 1 3.45471 3.45478 0.414575 
58 1 8.29948 5.25982 5.2599 
66 1 5.26056 8.30221 5.25994 
74 1 5.25943 5.25949 8.29541 
81 1 1.61248 3.35279 3.35329 
89 1 3.35286 1.61183 3.35319 
97 1 3.35311 3.35282 1.61298 
106 1 7.10071 5.3621 5.36192 
114 1 5.36185 7.10327 5.3618 
122 1 5.36223 5.36244 7.096 
4 1 3.11718 3.11751 14.9781 
11 1 5.56367 5.59762 12.4977 
20 1 4.00343 4.00319 14.0922 
27 1 4.69717 4.69431 13.4013 
36 1 0.418265 3.45555 14.6399 
46 1 3.4549 0.412499 14.6406 
56 1 3.4549 3.45489 17.6828 
59 1 8.22966 5.25015 12.8552 
69 1 5.2578 8.31104 12.8381 
79 1 5.25777 5.25797 9.78486 
84 1 1.61708 3.35269 14.7427 
94 1 3.35313 1.61105 14.7423 
104 1 3.35326 3.3533 16.4847 
107 1 7.03073 5.36377 12.7353 
117 1 5.3585 7.11237 12.7369 
127 1 5.35852 5.35887 10.983 
6 1 3.11951 14.9757 3.12028 
13 1 5.59462 12.5006 5.59519 
22 1 4.01138 14.0849 4.01123 
29 1 4.70395 13.3925 4.70404 
38 1 0.413484 14.6412 3.45543 
48 1 3.45483 17.6821 3.45479 
52 1 3.45484 14.6412 0.413305 
61 1 8.3016 12.8359 5.26012 
71 1 5.26018 9.79488 5.26012 
75 1 5.26009 12.8359 8.30162 
86 1 1.61235 14.7429 3.35358 
96 1 3.35319 16.4835 3.35312 
100 1 3.35318 14.7428 1.61256 
109 1 7.1024 12.7341 5.36204 
119 1 5.36182 10.9931 5.3621 
123 1 5.36186 12.7341 7.10247 
7 1 3.11892 14.9759 14.9744 
16 1 5.59438 12.5014 12.4999 
23 1 4.01159 14.0847 14.0853 
32 1 4.70415 13.3929 13.3929 
39 1 0.413301 14.6412 14.6402 
43 1 3.45478 17.682 14.6402 
53 1 3.45429 14.6412 17.6815 
64 1 8.29924 12.8361 12.8362 
68 1 5.25954 9.80106 12.8365 
78 1 5.26011 12.8359 9.79426 
87 1 1.61242 14.7429 14.742 
91 1 3.35307 16.4839 14.742 
101 1 3.35284 14.743 16.4832 
112 1 7.10049 12.7341 12.7337 
116 1 5.36232 10.9998 12.7333 
126 1 5.3618 12.7343 10.9922 
8 1 14.9773 3.11831 3.12042 
15 1 12.4991 5.5966 5.58224 
24 1 14.0866 4.00891 4.00725 
31 1 13.3941 4.70159 4.69966 
40 1 17.6831 3.45495 3.45481 
44 1 14.641 0.412244 3.45551 
54 1 14.6404 3.45563 0.418433 
63 1 9.79132 5.25915 5.25972 
67 1 12.8368 8.30522 5.2597 
77 1 12.839 5.25671 8.27836 
88 1 16.485 3.35326 3.35347 
92 1 14.7428 1.61119 3.35386 
102 1 14.7432 3.35271 1.61761 
111 1 10.9903 5.36134 5.35961 
115 1 12.7348 7.10567 5.35957 
125 1 12.7356 5.36038 7.08565 
5 1 15.008 3.08791 15.0093 
14 1 12.4806 5.58136 12.6209 
21 1 14.1333 3.96605 14.1048 
30 1 13.4626 4.63929 13.3863 
37 1 17.6915 3.45774 14.6373 
47 1 14.6382 0.404075 14.6373 
51 1 14.6381 3.4579 17.6905 
62 1 9.73965 5.22504 12.8082 
72 1 12.8547 8.35457 12.8402 
76 1 12.8447 5.25455 9.77644 
85 1 16.4944 3.35291 14.7418 
95 1 14.7428 1.60168 14.742 
99 1 14.7425 3.35314 16.4932 
110 1 10.9147 5.31859 12.662 
120 1 12.7591 7.15984 12.73 
124 1 12.7432 5.35311 10.9765 
129 2 12.1513 5.79002 13.7339 
130 2 12.2098 5.27736 15.2121 
131 3 11.2693 5.27992 15.366 
3 1 14.9761 14.9765 3.12043 
12 1 12.4998 12.5004 5.59374 
19 1 14.0842 14.083 4.00871 
28 1 13.3936 13.3941 4.70647 
35 1 17.6826 14.6412 3.45543 
45 1 14.6412 17.6821 3.45541 
55 1 14.6412 14.6412 0.4142 
60 1 9.79428 12.8359 5.26016 
70 1 12.8356 9.79653 5.25994 
80 1 12.8358 12.8357 8.29933 
83 1 16.4838 14.7429 3.35367 
93 1 14.743 16.4838 3.3537 
103 1 14.7429 14.7429 1.61273 
108 1 10.9925 12.7342 5.3617 
118 1 12.7337 10.9949 5.36196 
128 1 12.7335 12.7337 7.09955 
2 1 14.976 14.976 14.9778 
9 1 12.4986 12.5143 12.4997 
18 1 14.0896 14.0875 14.0864 
25 1 13.3945 13.3991 13.3937 
34 1 17.6829 14.6411 14.6401 
42 1 14.6405 17.6767 14.6394 
50 1 14.6411 14.6411 17.6823 
57 1 9.79005 12.836 12.8365 
65 1 12.8419 9.8418 12.8424 
73 1 12.837 12.8359 9.7906 
82 1 16.4849 14.7426 14.7418 
90 1 14.7431 16.4784 14.7423 
98 1 14.7427 14.7427 16.484 
105 1 10.9886 12.7363 12.7347 
113 1 12.7334 11.0369 12.7336 
121 1 12.7349 12.7365 10.9881 
ITEM: TIMESTEP
18
ITEM: NUMBER OF ATOMS
131
ITEM: BOX BOUNDS pp pp pp
0.0000000000000000e+00 1.8762000000000000e+01
0.0000000000000000e+00 1.8762000000000000e+01
0.0000000000000000e+00 1.8760999999999999e+01
ITEM: ATOMS id type x y z 
1 1 3.1205 3.11906 3.11973 
10 1 5.59411 5.59544 5.59483 
17 1 4.00653 4.0125 4.01348 
26 1 4.70725 4.70122 4.70109 
33 1 0.413344 3.45482 3.45469 
41 1 3.45427 0.413184 3.45479 
49 1 3.45471 3.45478 0.414575 
58 1 8.29948 5.25982 5.2599 
66 1 5.26056 8.30221 5.25994 
74 1 5.25943 5.25949 8.29541 
81 1 1.61248 3.35279 3.35329 
89 1 3.35286 1.61183 3.35319 
97 1 3.35311 3.35282 1.61298 
106 1 7.10071 5.3621 5.36192 
114 1 5.36185 7.10327 5.3618 
122 1 5.36223 5.36244 7.096 
4 1 3.11718 3.11751 14.9781 
11 1 5.56367 5.59762 12.4977 
20 1 4.00343 4.00319 14.0922 
27 1 4.69717 4.69431 13.4013 
36 1 0.418265 3.45555 14.6399 
46 1 3.4549 0.412499 14.6406 
56 1 3.4549 3.45489 17.6828 
59 1 8.22966 5.25015 12.8552 
69 1 5.2578 8.31104 12.8381 
79 1 5.25777 5.25797 9.78486 
84 1 1.61708 3.35269 14.7427 
94 1 3.35313 1.61105 14.7423 
104 1 3.35326 3.3533 16.4847 
107 1 7.03073 5.36377 12.7353 
117 1 5.3585 7.11237 12.7369 
127 1 5.35852 5.35887 10.983 
6 1 3.11951 14.9757 3.12028 
13 1 5.59462 12.5006 5.59519 
22 1 4.01138 14.0849 4.01123 
29 1 4.70395 13.3925 4.70404 
38 1 0.413484 14.6412 3.45543 
48 1 3.45483 17.6821 3.45479 
52 1 3.45484 14.6412 0.413305 
61 1 8.3016 12.8359 5.26012 
71 1 5.26018 9.79488 5.26012 
75 1 5.26009 12.8359 8.30162 
86 1 1.61235 14.7429 3.35358 
96 1 3.35319 16.4835 3.35312 
100 1 3.35318 14.7428 1.61256 
109 1 7.1024 12.7341 5.36204 
119 1 5.36182 10.9931 5.3621 
123 1 5.36186 12.7341 7.10247 
7 1 3.11892 14.9759 14.9744 
16 1 5.59438 12.5014 12.4999 
23 1 4.01159 14.0847 14.0853 
32 1 4.70415 13.3929 13.3929 
39 1 0.413301 14.6412 14.6402 
43 1 3.45478 17.682 14.6402 
53 1 3.45429 14.6412 17.6815 
64 1 8.29924 12.8361 12.8362 
68 1 5.25954 9.80106 12.8365 
78 1 5.26011 12.8359 9.79426 
87 1 1.61242 14.7429 14.742 
91 1 3.35307 16.4839 14.742 
101 1 3.35284 14.743 16.4832 
112 1 7.10049 12.7341 12.7337 
116 1 5.36232 10.9998 12.7333 
126 1 5.3618 12.7343 10.9922 
8 1 14.9773 3.11831 3.12042 
15 1 12.4991 5.5966 5.58224 
24 1 14.0866 4.00891 4.00725 
31 1 13.3941 4.70159 4.69966 
40 1 17.6831 3.45495 3.45481 
44 1 14.641 0.412244 3.45551 
54 1 14.6404 3.45563 0.418433 
63 1 9.79132 5.25915 5.25972 
67 1 12.8368 8.30522 5.2597 
77 1 12.839 5.25671 8.27836 
88 1 16.485 3.35326 3.35347 
92 1 14.7428 1.61119 3.35386 
102 1 14.7432 3.35271 1.61761 
111 1 10.9903 5.36134 5.35961 
115 1 12.7348 7.10567 5.35957 
125 1 12.7356 5.36038 7.08565 
5 1 15.008 3.08791 15.0093 
14 1 12.4806 5.58136 12.6209 
21 1 14.1333 3.96605 14.1048 
30 1 13.4626 4.63929 13.3863 
37 1 17.6915 3.45774 14.6373 
47 1 14.6382 0.404075 14.6373 
51 1 14.6381 3.4579 17.6905 
62 1 9.73965 5.22504 12.8082 
72 1 12.8547 8.35457 12.8402 
76 1 12.8447 5.25455 9.77644 
85 1 16.4944 3.35291 14.7418 
95 1 14.7428 1.60168 14.742 
99 1 14.7425 3.35314 16.4932 
110 1 10.9147 5.31859 12.662 
120 1 12.7591 7.15984 12.73 
124 1 12.7432 5.35311 10.9765 
129 2 12.1513 5.79002 13.7339 
130 2 12.2098 5.27736 15.2121 
131 3 11.2693 5.27992 15.366 
3 1 14.9761 14.9765 3.12043 
12 1 12.4998 12.5004 5.59374 
19 1 14.0842 14.083 4.00871 
28 1 13.3936 13.3941 4.70647 
35 1 17.6826 14.6412 3.45543 
45 1 14.6412 17.6821 3.45541 
55 1 14.6412 14.6412 0.4142 
60 1 9.79428 12.8359 5.26016 
70 1 12.8356 9.79653 5.25994 
80 1 12.8358 12.8357 8.29933 
83 1 16.4838 14.7429 3.35367 
93 1 14.743 16.4838 3.3537 
103 1 14.7429 14.7429 1.61273 
108 1 10.9925 12.7342 5.3617 
118 1 12.7337 10.9949 5.36196 
128 1 12.7335 12.7337 7.09955 
2 1 14.976 14.976 14.9778 
9 1 12.4986 12.5143 12.4997 
18 1 14.0896 14.0875 14.0864 
25 1 13.3945 13.3991 13.3937 
34 1 17.6829 14.6411 14.6401 
42 1 14.6405 17.6767 14.6394 
50 1 14.6411 14.6411 17.6823 
57 1 9.79005 12.836 12.8365 
65 1 12.8419 9.8418 12.8424 
73 1 12.837 12.8359 9.7906 
82 1 16.4849 14.7426 14.7418 
90 1 14.7431 16.4784 14.7423 
98 1 14.7427 14.7427 16.484 
105 1 10.9886 12.7363 12.7347 
113 1 12.7334 11.0369 12.7336 
121 1 12.7349 12.7365 10.9881 
ITEM: TIMESTEP
20
ITEM: NUMBER OF ATOMS
131
ITEM: BOX BOUNDS pp pp pp
-1.8762000000000004e-03 1.8763876199999999e+01
-1.7276770208177843e-03 1.8763727677020817e+01
-1.0622948220599983e-03 1.8762062294822059e+01
ITEM: ATOMS id type x y z 
1 1 3.11925 3.11791 3.11902 
10 1 5.59335 5.59474 5.5944 
17 1 4.00545 4.01151 4.01287 
26 1 4.70632 4.70036 4.70056 
33 1 0.411552 3.45373 3.45401 
41 1 3.45308 0.411532 3.45412 
49 1 3.45352 3.45369 0.41356 
58 1 8.29927 5.25906 5.25943 
66 1 5.25973 8.30201 5.25947 
74 1 5.25861 5.25873 8.29528 
81 1 1.61093 3.35168 3.3526 
89 1 3.35165 1.6104 3.35251 
97 1 3.3519 3.35171 1.6121 
106 1 7.10025 5.36136 5.36147 
114 1 5.36105 7.10286 5.36134 
122 1 5.36143 5.3617 7.09575 
4 1 3.11593 3.11636 14.9787 
11 1 5.56291 5.59692 12.498 
20 1 4.00235 4.0022 14.0927 
27 1 4.69623 4.69345 13.4017 
36 1 0.416474 3.45446 14.6405 
46 1 3.45372 0.410848 14.6411 
56 1 3.45371 3.4538 17.6837 
59 1 8.22942 5.24939 12.8556 
69 1 5.25698 8.31084 12.8385 
79 1 5.25695 5.25721 9.78491 
84 1 1.61553 3.35158 14.7433 
94 1 3.35192 1.60961 14.7429 
104 1 3.35206 3.35219 16.4855 
107 1 7.03028 5.36303 12.7356 
117 1 5.35769 7.11195 12.7373 
127 1 5.35771 5.35813 10.9832 
6 1 3.11826 14.9767 3.11957 
13 1 5.59386 12.5012 5.59477 
22 1 4.0103 14.0857 4.01063 
29 1 4.70301 13.3932 4.70351 
38 1 0.411691 14.6421 3.45476 
48 1 3.45365 17.6837 3.45412 
52 1 3.45365 14.6421 0.412291 
61 1 8.30138 12.8365 5.25965 
71 1 5.25935 9.79496 5.25966 
75 1 5.25927 12.8366 8.30149 
86 1 1.61079 14.7439 3.3529 
96 1 3.35199 16.4848 3.35243 
100 1 3.35197 14.7438 1.61168 
109 1 7.10195 12.7347 5.36159 
119 1 5.36102 10.9934 5.36164 
123 1 5.36106 12.7347 7.10221 
7 1 3.11767 14.977 14.9751 
16 1 5.59362 12.5019 12.5003 
23 1 4.01051 14.0856 14.0859 
32 1 4.70321 13.3936 13.3933 
39 1 0.411509 14.6422 14.6408 
43 1 3.4536 17.6835 14.6408 
53 1 3.45311 14.6421 17.6825 
64 1 8.29902 12.8367 12.8366 
68 1 5.25872 9.80114 12.8369 
78 1 5.25929 12.8365 9.79431 
87 1 1.61086 14.7439 14.7426 
91 1 3.35186 16.4852 14.7426 
101 1 3.35164 14.744 16.484 
112 1 7.10004 12.7347 12.734 
116 1 5.36152 11.0001 12.7337 
126 1 5.361 12.7349 10.9924 
8 1 14.9784 3.11716 3.11971 
15 1 12.4997 5.59591 5.58181 
24 1 14.0876 4.00793 4.00664 
31 1 13.3949 4.70073 4.69913 
40 1 17.6848 3.45386 3.45414 
44 1 14.6421 0.410594 3.45484 
54 1 14.6415 3.45454 0.417421 
63 1 9.7914 5.25839 5.25925 
67 1 12.8375 8.30502 5.25923 
77 1 12.8397 5.25595 8.27824 
88 1 16.4865 3.35215 3.35278 
92 1 14.7439 1.60976 3.35317 
102 1 14.7442 3.3516 1.61673 
111 1 10.9906 5.3606 5.35916 
115 1 12.7354 7.10525 5.35912 
125 1 12.7362 5.35964 7.08538 
5 1 15.0091 3.08675 15.0099 
14 1 12.4812 5.58067 12.6213 
21 1 14.1342 3.96505 14.1053 
30 1 13.4634 4.63841 13.3868 
37 1 17.6931 3.45665 14.6379 
47 1 14.6393 0.402421 14.6379 
51 1 14.6391 3.45681 17.6914 
62 1 9.73968 5.22427 12.8086 
72 1 12.8554 8.35439 12.8406 
76 1 12.8454 5.25379 9.7765 
85 1 16.4958 3.3518 14.7425 
95 1 14.7439 1.60025 14.7426 
99 1 14.7435 3.35203 16.494 
110 1 10.915 5.31784 12.6623 
120 1 12.7598 7.15942 12.7303 
124 1 12.7439 5.35237 10.9767 
129 2 12.1519 5.78936 13.7344 
130 2 12.2104 5.2766 15.2128 
131 3 11.2697 5.27916 15.3667 
3 1 14.9772 14.9776 3.11972 
12 1 12.5004 12.501 5.59331 
19 1 14.0852 14.0839 4.0081 
28 1 13.3944 13.3949 4.70594 
35 1 17.6843 14.6421 3.45476 
45 1 14.6422 17.6836 3.45474 
55 1 14.6422 14.6421 0.413184 
60 1 9.79436 12.8365 5.25969 
70 1 12.8363 9.7966 5.25948 
80 1 12.8364 12.8363 8.29921 
83 1 16.4852 14.7439 3.35299 
93 1 14.744 16.4851 3.35302 
103 1 14.744 14.7439 1.61185 
108 1 10.9928 12.7348 5.36125 
118 1 12.7344 10.9952 5.3615 
128 1 12.7342 12.7343 7.0993 
2 1 14.9771 14.9771 14.9784 
9 1 12.4993 12.5149 12.5 
18 1 14.0905 14.0883 14.0869 
25 1 13.3953 13.3999 13.3941 
34 1 17.6845 14.6421 14.6406 
42 1 14.6415 17.6782 14.64 
50 1 14.6422 14.6421 17.6833 
57 1 9.79013 12.8366 12.8369 
65 1 12.8426 9.84188 12.8428 
73 1 12.8377 12.8366 9.79064 
82 1 16.4863 14.7436 14.7424 
90 1 14.7441 16.4797 14.7429 
98 1 14.7437 14.7437 16.4848 
105 1 10.9889 12.737 12.7351 
113 1 12.734 11.0372 12.7339 
121 1 12.7356 12.7371 10.9883 
ITEM: TIMESTEP
30
ITEM: NUMBER OF ATOMS
131
ITEM: BOX BOUNDS pp pp pp
-1.1257200000000005e-02 1.8773257199999989e+01
-9.8528832060029315e-03 1.8771852883206009e+01
-5.4171692121540611e-03 1.8766417169212151e+01
ITEM: ATOMS id type x y z 
1 1 3.11298 3.11249 3.11612 
10 1 5.58957 5.59146 5.59264 
17 1 4.00008 4.00686 4.01037 
26 1 4.70163 4.6963 4.69838 
33 1 0.402607 3.4486 3.45126 
41 1 3.44715 0.403771 3.45136 
49 1 3.4476 3.44855 0.409402 
58 1 8.29817 5.2555 5.25752 
66 1 5.25562 8.30106 5.25756 
74 1 5.25449 5.25516 8.29475 
81 1 1.60314 3.34646 3.3498 
89 1 3.34562 1.60366 3.34971 
97 1 3.34587 3.34648 1.6085 
106 1 7.098 5.35788 5.3596 
114 1 5.35703 7.10091 5.35947 
122 1 5.3574 5.35822 7.0947 
4 1 3.10966 3.11092 14.9813 
11 1 5.55906 5.59365 12.4995 
20 1 3.99699 3.99754 14.0949 
27 1 4.69152 4.68939 13.4036 
36 1 0.407538 3.44933 14.643 
46 1 3.44779 0.403091 14.6436 
56 1 3.44779 3.44866 17.6876 
59 1 8.22812 5.24582 12.8572 
69 1 5.25286 8.3099 12.8401 
79 1 5.25283 5.25363 9.78509 
84 1 1.60774 3.34636 14.7458 
94 1 3.3459 1.60285 14.7454 
104 1 3.34603 3.34697 16.4888 
107 1 7.02812 5.35952 12.7372 
117 1 5.35365 7.11002 12.7388 
127 1 5.35367 5.35465 10.984 
6 1 3.112 14.9816 3.11666 
13 1 5.59008 12.5039 5.59301 
22 1 4.00493 14.0898 4.00814 
29 1 4.69833 13.3967 4.70133 
38 1 0.402734 14.6467 3.45201 
48 1 3.44772 17.6908 3.45137 
52 1 3.44772 14.6467 0.408143 
61 1 8.30028 12.8395 5.25774 
71 1 5.25523 9.79531 5.25774 
75 1 5.25515 12.8395 8.30098 
86 1 1.603 14.7486 3.3501 
96 1 3.34596 16.4909 3.34964 
100 1 3.34595 14.7485 1.60806 
109 1 7.0997 12.7376 5.35972 
119 1 5.357 10.9948 5.35978 
123 1 5.35704 12.7376 7.10117 
7 1 3.1114 14.9818 14.9777 
16 1 5.58984 12.5046 12.5017 
23 1 4.00514 14.0897 14.0881 
32 1 4.69853 13.3971 13.3952 
39 1 0.402563 14.6468 14.6432 
43 1 3.44767 17.6907 14.6433 
53 1 3.44718 14.6467 17.6863 
64 1 8.29792 12.8397 12.8382 
68 1 5.2546 9.80152 12.8385 
78 1 5.25517 12.8395 9.79449 
87 1 1.60307 14.7486 14.7451 
91 1 3.34583 16.4914 14.7451 
101 1 3.3456 14.7486 16.4873 
112 1 7.09778 12.7376 12.7356 
116 1 5.3575 11.0015 12.7353 
126 1 5.35698 12.7378 10.9932 
8 1 14.984 3.11173 3.11681 
15 1 12.5028 5.59263 5.58004 
24 1 14.0923 4.00328 4.00416 
31 1 13.3989 4.69668 4.69695 
40 1 17.6931 3.44872 3.45138 
44 1 14.6474 0.402841 3.45208 
54 1 14.6467 3.44941 0.413287 
63 1 9.79182 5.25482 5.25734 
67 1 12.841 8.30406 5.25732 
77 1 12.8432 5.25237 8.27781 
88 1 16.4936 3.34693 3.34999 
92 1 14.7492 1.603 3.35038 
102 1 14.7496 3.34638 1.61312 
111 1 10.9922 5.35712 5.35729 
115 1 12.7388 7.10331 5.35725 
125 1 12.7396 5.35617 7.08425 
5 1 15.0148 3.0813 15.0125 
14 1 12.4844 5.57745 12.6227 
21 1 14.139 3.96035 14.1075 
30 1 13.4675 4.63428 13.3886 
37 1 17.7014 3.45153 14.6403 
47 1 14.6445 0.394648 14.6403 
51 1 14.6444 3.45168 17.6953 
62 1 9.73964 5.22063 12.8102 
72 1 12.8589 8.35352 12.8422 
76 1 12.8488 5.25023 9.7768 
85 1 16.5029 3.34658 14.7449 
95 1 14.7492 1.59347 14.7451 
99 1 14.7489 3.3468 16.4973 
110 1 10.9168 5.3143 12.6638 
120 1 12.7631 7.1574 12.7319 
124 1 12.7472 5.34887 10.9774 
129 2 12.1547 5.78627 13.7364 
130 2 12.2132 5.27305 15.2155 
131 3 11.2716 5.27561 15.3694 
3 1 14.9828 14.9824 3.11681 
12 1 12.5035 12.5037 5.59156 
19 1 14.0899 14.0879 4.00561 
28 1 13.3984 13.3983 4.70376 
35 1 17.6926 14.6467 3.45201 
45 1 14.6475 17.6908 3.45199 
55 1 14.6475 14.6467 0.409026 
60 1 9.79477 12.8395 5.25778 
70 1 12.8397 9.79696 5.25757 
80 1 12.8399 12.8393 8.29867 
83 1 16.4923 14.7486 3.35019 
93 1 14.7494 16.4913 3.35022 
103 1 14.7494 14.7485 1.60824 
108 1 10.9944 12.7377 5.35938 
118 1 12.7377 10.9966 5.35963 
128 1 12.7376 12.7372 7.09827 
2 1 14.9827 14.9819 14.981 
9 1 12.5024 12.5176 12.5015 
18 1 14.0952 14.0924 14.0891 
25 1 13.3993 13.4034 13.396 
34 1 17.6928 14.6467 14.6431 
42 1 14.6468 17.6854 14.6424 
50 1 14.6475 14.6466 17.6871 
57 1 9.79055 12.8396 12.8385 
65 1 12.846 9.84231 12.8444 
73 1 12.8412 12.8395 9.79081 
82 1 16.4935 14.7482 14.7449 
90 1 14.7495 16.4858 14.7454 
98 1 14.7491 14.7483 16.4882 
105 1 10.9905 12.7399 12.7367 
113 1 12.7374 11.0386 12.7355 
121 1 12.739 12.74 10.989 
ITEM: TIMESTEP
40
ITEM: NUMBER OF ATOMS
131
ITEM: BOX BOUNDS pp pp pp
-1.3714992887645251e-02 1.8775714992887636e+01
-1.2222016119730842e-02 1.8774222016119733e+01
-4.8863564708807100e-03 1.8765886356470876e+01
ITEM: ATOMS id type x y z 
1 1 3.11127 3.11092 3.11652 
10 1 5.58861 5.59048 5.59273 
17 1 3.9988 4.00546 4.01059 
26 1 4.70019 4.69508 4.69863 
33 1 0.400634 3.44702 3.45152 
41 1 3.44554 0.401655 3.45164 
49 1 3.44602 3.44703 0.409983 
58 1 8.29764 5.25452 5.25782 
66 1 5.2546 8.30055 5.25786 
74 1 5.25343 5.25415 8.29446 
81 1 1.6006 3.34495 3.35016 
89 1 3.34405 1.60136 3.35006 
97 1 3.34427 3.34494 1.60897 
106 1 7.09798 5.35683 5.35978 
114 1 5.35594 7.10087 5.35966 
122 1 5.35633 5.35719 7.09501 
4 1 3.10799 3.10924 14.981 
11 1 5.55761 5.59279 12.4992 
20 1 3.99581 3.9963 14.0946 
27 1 4.68997 4.68815 13.4034 
36 1 0.405606 3.44781 14.6427 
46 1 3.44619 0.401012 14.6433 
56 1 3.44622 3.44716 17.6872 
59 1 8.22642 5.24486 12.8566 
69 1 5.25191 8.30941 12.8399 
79 1 5.25182 5.25254 9.78502 
84 1 1.60513 3.34488 14.7455 
94 1 3.34436 1.60026 14.745 
104 1 3.34446 3.34546 16.4886 
107 1 7.02993 5.35824 12.7376 
117 1 5.35232 7.11 12.7386 
127 1 5.35239 5.35369 10.9838 
6 1 3.11039 14.983 3.11702 
13 1 5.58911 12.5047 5.59323 
22 1 4.00347 14.091 4.00849 
29 1 4.69712 13.3977 4.70152 
38 1 0.400616 14.6481 3.45227 
48 1 3.4461 17.6928 3.45164 
52 1 3.44612 14.6481 0.408827 
61 1 8.29965 12.8403 5.25806 
71 1 5.25421 9.79551 5.25803 
75 1 5.25411 12.8404 8.30084 
86 1 1.60051 14.7499 3.35046 
96 1 3.34438 16.4931 3.34999 
100 1 3.34435 14.7498 1.60835 
109 1 7.09963 12.7385 5.35992 
119 1 5.35595 10.995 5.36001 
123 1 5.35599 12.7384 7.10141 
7 1 3.10978 14.9833 14.9774 
16 1 5.58886 12.5055 12.5016 
23 1 4.00367 14.0909 14.0878 
32 1 4.69722 13.3982 13.395 
39 1 0.400578 14.6482 14.643 
43 1 3.44607 17.6927 14.643 
53 1 3.44561 14.6481 17.6859 
64 1 8.29726 12.8405 12.8379 
68 1 5.25356 9.80194 12.8382 
78 1 5.2541 12.8404 9.79436 
87 1 1.60055 14.7499 14.7448 
91 1 3.34423 16.4933 14.7448 
101 1 3.34399 14.75 16.4869 
112 1 7.09769 12.7385 12.7354 
116 1 5.35641 11.0015 12.7351 
126 1 5.35593 12.7386 10.9931 
8 1 14.9855 3.11014 3.11719 
15 1 12.5036 5.5917 5.58023 
24 1 14.0934 4.00203 4.00465 
31 1 13.4 4.69551 4.6971 
40 1 17.6952 3.44718 3.45167 
44 1 14.6488 0.400825 3.45236 
54 1 14.6481 3.44791 0.414139 
63 1 9.79223 5.25384 5.25766 
67 1 12.8418 8.30341 5.25764 
77 1 12.8442 5.25127 8.27869 
88 1 16.4958 3.34542 3.35036 
92 1 14.7506 1.6005 3.35076 
102 1 14.751 3.34485 1.61348 
111 1 10.9921 5.3561 5.35743 
115 1 12.7397 7.10324 5.35739 
125 1 12.7404 5.35523 7.08356 
5 1 15.0163 3.07967 15.0122 
14 1 12.4861 5.57749 12.6212 
21 1 14.1405 3.95877 14.1068 
30 1 13.4688 4.63276 13.3887 
37 1 17.7036 3.45007 14.64 
47 1 14.6459 0.392459 14.64 
51 1 14.6457 3.45026 17.695 
62 1 9.7349 5.21918 12.8101 
72 1 12.86 8.35336 12.8417 
76 1 12.8496 5.2494 9.77821 
85 1 16.5054 3.34499 14.7447 
95 1 14.7507 1.59078 14.7448 
99 1 14.7504 3.3452 16.4972 
110 1 10.9193 5.31304 12.6631 
120 1 12.7639 7.15607 12.7318 
124 1 12.7481 5.34779 10.9767 
129 2 12.1563 5.78552 13.7362 
130 2 12.214 5.27204 15.2156 
131 3 11.2719 5.27457 15.3692 
3 1 14.9843 14.9838 3.11715 
12 1 12.5043 12.5046 5.59178 
19 1 14.0911 14.0892 4.00599 
28 1 13.3995 13.3993 4.70388 
35 1 17.6945 14.6481 3.45227 
45 1 14.6489 17.6928 3.45228 
55 1 14.6489 14.6481 0.409601 
60 1 9.79496 12.8403 5.25808 
70 1 12.8406 9.79716 5.25785 
80 1 12.8408 12.8401 8.29827 
83 1 16.4946 14.7499 3.35055 
93 1 14.7508 16.4932 3.35055 
103 1 14.7508 14.7499 1.6087 
108 1 10.9944 12.7386 5.35958 
118 1 12.7386 10.9968 5.35984 
128 1 12.7384 12.7381 7.09867 
2 1 14.9843 14.9833 14.9807 
9 1 12.5031 12.5189 12.5013 
18 1 14.0963 14.0936 14.0888 
25 1 13.4006 13.4046 13.3959 
34 1 17.6949 14.6481 14.6428 
42 1 14.6482 17.6872 14.6421 
50 1 14.6489 14.648 17.6867 
57 1 9.79087 12.8404 12.8383 
65 1 12.847 9.84269 12.8443 
73 1 12.8421 12.8404 9.79058 
82 1 16.4958 14.7495 14.7446 
90 1 14.7509 16.4879 14.7451 
98 1 14.7505 14.7497 16.4879 
105 1 10.9902 12.7409 12.7365 
113 1 12.7383 11.0392 12.7354 
121 1 12.7398 12.7409 10.9889 
ITEM: TIMESTEP
50
ITEM: NUMBER OF ATOMS
131
ITEM: BOX BOUNDS pp pp pp
-1.3759433334161542e-02 1.8775759433334159e+01
-1.3439790397426815e-02 1.8775439790397428e+01
-4.2580490259235739e-03 1.8765258049025920e+01
ITEM: ATOMS id type x y z 
1 1 3.11112 3.11011 3.11701 
10 1 5.58866 5.58998 5.59281 
17 1 3.99891 4.00465 4.0108 
26 1 4.69992 4.69447 4.69897 
33 1 0.400903 3.44616 3.45183 
41 1 3.44543 0.400637 3.45195 
49 1 3.44595 3.44622 0.410699 
58 1 8.29746 5.25406 5.25818 
66 1 5.25465 8.30023 5.25822 
74 1 5.25343 5.25364 8.29419 
81 1 1.60019 3.34416 3.35055 
89 1 3.34402 1.59999 3.35046 
97 1 3.3442 3.34411 1.60962 
106 1 7.09845 5.35629 5.36002 
114 1 5.3559 7.10109 5.35989 
122 1 5.35631 5.35668 7.09516 
4 1 3.10791 3.10826 14.9808 
11 1 5.55693 5.59247 12.4989 
20 1 3.99603 3.99565 14.0942 
27 1 4.68957 4.68757 13.4031 
36 1 0.405924 3.44703 14.6423 
46 1 3.44611 0.399921 14.643 
56 1 3.44619 3.44638 17.6867 
59 1 8.2262 5.24426 12.8559 
69 1 5.25205 8.3091 12.8397 
79 1 5.25192 5.25193 9.78495 
84 1 1.6047 3.34412 14.7451 
94 1 3.34437 1.5986 14.7446 
104 1 3.34443 3.34467 16.4884 
107 1 7.03187 5.35747 12.7379 
117 1 5.35193 7.11023 12.7383 
127 1 5.35204 5.35326 10.9837 
6 1 3.1104 14.9838 3.11745 
13 1 5.58913 12.5051 5.59351 
22 1 4.00333 14.0915 4.0089 
29 1 4.69715 13.3982 4.70174 
38 1 0.400757 14.6489 3.45257 
48 1 3.44598 17.6937 3.45195 
52 1 3.44603 14.6488 0.409574 
61 1 8.29936 12.8406 5.25844 
71 1 5.25427 9.79571 5.25838 