ITEM: TIMESTEP
0
ITEM: NUMBER OF ATOMS
51
ITEM: BOX BOUNDS pp pp pp
0.0000000000000000e+00 1.1000000000000000e+01
0.0000000000000000e+00 1.1002000000000001e+01
0.0000000000000000e+00 1.1000000000000000e+01
ITEM: ATOMS id type x y z 
10 1 4.603 4.603 4.603 
11 1 3.085 3.085 3.085 
12 1 3.796 3.796 3.796 
46 1 0.726 0.725 0.725 
47 1 2.26 2.259 2.26 
48 1 1.551 1.55 1.55 
19 1 4.546 4.545 6.226 
20 1 3.013 3.013 7.764 
21 1 3.721 3.721 7.053 
31 1 0.668 0.667 10.103 
32 1 2.187 2.187 8.589 
33 1 1.476 1.475 9.298 
16 1 4.546 6.225 4.546 
17 1 3.013 7.765 3.013 
18 1 3.721 7.053 3.722 
25 1 0.668 10.103 0.668 
26 1 2.188 8.589 2.188 
27 1 1.476 9.298 1.476 
4 1 4.608 6.169 6.169 
5 1 3.086 7.684 7.684 
6 1 3.799 6.974 6.974 
37 1 0.729 10.046 10.046 
38 1 2.259 8.509 8.508 
39 1 1.552 9.219 9.219 
13 1 6.225 4.546 4.546 
14 1 7.764 3.013 3.013 
15 1 7.053 3.721 3.722 
28 1 10.102 0.667 0.668 
29 1 8.589 2.187 2.188 
30 1 9.298 1.475 1.476 
49 2 7.312 2.9 4.772 
50 2 8.666 2.355 4.38 
51 3 9.255 2.641 5.13 
1 1 6.168 4.608 6.169 
2 1 7.684 3.086 7.684 
3 1 6.974 3.799 6.974 
40 1 10.045 0.728 10.046 
41 1 8.508 2.259 8.508 
42 1 9.218 1.551 9.218 
7 1 6.169 6.169 4.608 
8 1 7.684 7.684 3.086 
9 1 6.974 6.974 3.799 
43 1 10.046 10.047 0.729 
44 1 8.508 8.509 2.259 
45 1 9.219 9.219 1.552 
22 1 6.229 6.229 6.229 
23 1 7.764 7.765 7.765 
24 1 7.055 7.056 7.055 
34 1 10.108 10.108 10.107 
35 1 8.59 8.59 8.59 
36 1 9.301 9.301 9.3 
ITEM: TIMESTEP
10
ITEM: NUMBER OF ATOMS
51
ITEM: BOX BOUNDS pp pp pp
0.0000000000000000e+00 1.1000000000000000e+01
0.0000000000000000e+00 1.1002000000000001e+01
0.0000000000000000e+00 1.1000000000000000e+01
ITEM: ATOMS id type x y z 
10 1 4.59184 4.59605 4.59709 
11 1 3.07902 3.07937 3.0793 
12 1 3.78687 3.78633 3.78681 
46 1 0.733616 0.732257 0.732456 
47 1 2.27132 2.27037 2.27101 
48 1 1.56469 1.56371 1.56427 
19 1 4.53258 4.53823 6.2422 
20 1 3.00018 3.00003 7.77624 
21 1 3.70657 3.70698 7.06849 
31 1 0.672841 0.672891 10.0972 
32 1 2.19261 2.19218 8.5839 
33 1 1.48342 1.48327 9.28941 
16 1 4.52623 6.24391 4.53879 
17 1 3.00033 7.77772 2.99933 
18 1 3.70493 7.06893 3.70795 
25 1 0.673383 10.0975 0.674062 
26 1 2.19291 8.58411 2.19275 
27 1 1.48375 9.29022 1.48403 
4 1 4.6012 6.17495 6.17647 
5 1 3.08024 7.68975 7.68937 
6 1 3.79041 6.98252 6.98317 
37 1 0.736424 10.0389 10.0385 
38 1 2.27025 8.49773 8.49702 
39 1 1.56581 9.20533 9.20492 
13 1 6.19029 4.59389 4.54867 
14 1 7.78472 2.99558 2.91962 
15 1 7.10419 3.62855 3.7576 
28 1 10.0943 0.675524 0.676831 
29 1 8.57062 2.20096 2.19936 
30 1 9.28545 1.48549 1.48538 
49 2 7.31239 2.90913 4.72572 
50 2 8.71788 2.34314 4.4324 
51 3 9.24629 2.62861 5.11752 
1 1 6.17279 4.6024 6.17597 
2 1 7.68885 3.08094 7.69004 
3 1 6.98242 3.79025 6.98253 
40 1 10.0379 0.734968 10.0381 
41 1 8.49766 2.26916 8.4975 
42 1 9.20513 1.56457 9.20514 
7 1 6.17563 6.18121 4.6005 
8 1 7.69041 7.69077 3.07954 
9 1 6.98443 6.9843 3.78855 
43 1 10.0386 10.0391 0.736411 
44 1 8.49805 8.49861 2.26923 
45 1 9.20569 9.20626 1.56507 
22 1 6.23651 6.24351 6.24652 
23 1 7.77656 7.77766 7.77586 
24 1 7.06831 7.069 7.07149 
34 1 10.1015 10.1028 10.1012 
35 1 8.58486 8.58455 8.58436 
36 1 9.29219 9.29293 9.29212 
ITEM: TIMESTEP
20
ITEM: NUMBER OF ATOMS
51
ITEM: BOX BOUNDS pp pp pp
0.0000000000000000e+00 1.1000000000000000e+01
0.0000000000000000e+00 1.1002000000000001e+01
0.0000000000000000e+00 1.1000000000000000e+01
ITEM: ATOMS id type x y z 
10 1 4.60082 4.60266 4.59871 
11 1 3.07947 3.08061 3.08216 
12 1 3.79011 3.78807 3.78631 
46 1 0.740864 0.732049 0.731067 
47 1 2.27216 2.27075 2.27027 
48 1 1.56495 1.56346 1.56619 
19 1 4.53495 4.53912 6.24558 
20 1 2.99809 2.99675 7.77698 
21 1 3.70546 3.70877 7.07307 
31 1 0.672657 0.6735 10.0955 
32 1 2.1896 2.18894 8.58655 
33 1 1.47989 1.48 9.29254 
16 1 4.51852 6.24868 4.54796 
17 1 2.99639 7.77936 2.99351 
18 1 3.70115 7.07599 3.71105 
25 1 0.676489 10.0976 0.673891 
26 1 2.18934 8.58775 2.18904 
27 1 1.48069 9.29365 1.47936 
4 1 4.59861 6.17708 6.17867 
5 1 3.08053 7.6892 7.68966 
6 1 3.79041 6.98275 6.98229 
37 1 0.737754 10.0379 10.0363 
38 1 2.27068 8.49771 8.49703 
39 1 1.56418 9.20665 9.20626 
13 1 6.18761 4.59969 4.53912 
14 1 7.74556 3.05606 2.86794 
15 1 7.11687 3.56244 3.82714 
28 1 10.1038 0.669099 0.674269 
29 1 8.56968 2.20309 2.17483 
30 1 9.28727 1.48015 1.46797 
49 2 7.29722 2.91121 4.73398 
50 2 8.7447 2.3223 4.4517 
51 3 9.27795 2.62089 5.1449 
1 1 6.16927 4.60743 6.15687 
2 1 7.68347 3.08593 7.68823 
3 1 6.97945 3.79264 6.97524 
40 1 10.0379 0.734349 10.0314 
41 1 8.49469 2.27157 8.49595 
42 1 9.20531 1.56615 9.20144 
7 1 6.17006 6.17523 4.59939 
8 1 7.69095 7.69068 3.07904 
9 1 6.98345 6.98598 3.78952 
43 1 10.0385 10.0331 0.733811 
44 1 8.49705 8.49836 2.2688 
45 1 9.20892 9.20615 1.56528 
22 1 6.23241 6.24121 6.2509 
23 1 7.77881 7.78003 7.77692 
24 1 7.0674 7.0685 7.07556 
34 1 10.0985 10.1038 10.0981 
35 1 8.58529 8.58811 8.58758 
36 1 9.29916 9.2939 9.29223 
ITEM: TIMESTEP
30
ITEM: NUMBER OF ATOMS
51
ITEM: BOX BOUNDS pp pp pp
0.0000000000000000e+00 1.1000000000000000e+01
0.0000000000000000e+00 1.1002000000000001e+01
0.0000000000000000e+00 1.1000000000000000e+01
ITEM: ATOMS id type x y z 
10 1 4.6087 4.60565 4.59861 
11 1 3.08367 3.08379 3.0857 
12 1 3.79244 3.79204 3.78958 
46 1 0.74085 0.73294 0.731921 
47 1 2.2718 2.2705 2.2707 
48 1 1.56529 1.56262 1.56481 
19 1 4.53543 4.5394 6.24805 
20 1 3.00007 2.9995 7.77565 
21 1 3.70771 3.70966 7.07133 
31 1 0.669258 0.673273 10.0948 
32 1 2.18871 2.18715 8.58771 
33 1 1.47792 1.47981 9.29235 
16 1 4.51382 6.25462 4.5523 
17 1 2.99838 7.77826 2.99513 
18 1 3.6991 7.07563 3.71386 
25 1 0.676348 10.0987 0.671534 
26 1 2.18735 8.58903 2.18646 
27 1 1.47988 9.296 1.47729 
4 1 4.59927 6.17533 6.17838 
5 1 3.08075 7.68938 7.68919 
6 1 3.7902 6.982 6.98352 
37 1 0.738776 10.0364 10.0338 
38 1 2.26897 8.49896 8.49896 
39 1 1.56438 9.20762 9.20594 
13 1 6.19209 4.59412 4.53239 
14 1 7.72756 3.08896 2.83582 
15 1 7.12466 3.52599 3.84759 
28 1 10.1028 0.668331 0.673985 
29 1 8.56024 2.21392 2.15297 
30 1 9.28284 1.48905 1.4634 
49 2 7.28143 2.89957 4.76902 
50 2 8.7708 2.30687 4.46519 
51 3 9.30127 2.61315 5.16153 
1 1 6.16816 4.60887 6.14238 
2 1 7.67712 3.09155 7.6844 
3 1 6.97687 3.79554 6.96857 
40 1 10.0378 0.735492 10.0305 
41 1 8.49563 2.27176 8.49635 
42 1 9.20426 1.56584 9.20107 
7 1 6.16744 6.17157 4.59924 
8 1 7.68868 7.68944 3.08262 
9 1 6.98062 6.98271 3.78945 
43 1 10.0387 10.0335 0.733931 
44 1 8.49991 8.50064 2.26718 
45 1 9.20925 9.20581 1.56362 
22 1 6.23223 6.24024 6.25384 
23 1 7.77635 7.77619 7.77542 
24 1 7.0642 7.06851 7.074 
34 1 10.0997 10.1075 10.0965 
35 1 8.58666 8.58835 8.58773 
36 1 9.29869 9.29529 9.29167 
ITEM: TIMESTEP
40
ITEM: NUMBER OF ATOMS
51
ITEM: BOX BOUNDS pp pp pp
0.0000000000000000e+00 1.1000000000000000e+01
0.0000000000000000e+00 1.1002000000000001e+01
0.0000000000000000e+00 1.1000000000000000e+01
ITEM: ATOMS id type x y z 
10 1 4.61494 4.60602 4.59502 
11 1 3.08471 3.0861 3.08728 
12 1 3.79617 3.79186 3.79062 
46 1 0.734686 0.73559 0.73325 
47 1 2.27097 2.2696 2.27181 
48 1 1.56668 1.5641 1.56292 
19 1 4.53588 4.53867 6.243 
20 1 3.00212 3.00148 7.77474 
21 1 3.70971 3.7104 7.06953 
31 1 0.664226 0.677751 10.0978 
32 1 2.18915 2.18788 8.58667 
33 1 1.47804 1.48064 9.29114 
16 1 4.51832 6.25253 4.55253 
17 1 2.99987 7.77785 2.99807 
18 1 3.69837 7.07301 3.71643 
25 1 0.673653 10.1032 0.671518 
26 1 2.18875 8.58808 2.18439 
27 1 1.47921 9.29687 1.47976 
4 1 4.60077 6.17377 6.1794 
5 1 3.08224 7.68873 7.68821 
6 1 3.79067 6.97923 6.98353 
37 1 0.736815 10.039 10.0335 
38 1 2.26934 8.49861 8.499 
39 1 1.56347 9.20914 9.20603 
13 1 6.20122 4.58163 4.52855 
14 1 7.72256 3.09629 2.83024 
15 1 7.12447 3.509 3.85241 
28 1 10.0942 0.676387 0.683202 
29 1 8.54843 2.23564 2.12813 
30 1 9.27456 1.50215 1.45131 
49 2 7.25702 2.89216 4.80669 
50 2 8.80197 2.29202 4.47602 
51 3 9.31996 2.60534 5.17135 
1 1 6.17296 4.60489 6.13356 
2 1 7.67489 3.09304 7.68409 
3 1 6.97825 3.79484 6.9628 
40 1 10.0357 0.737895 10.0348 
41 1 8.4954 2.27244 8.49622 
42 1 9.20279 1.56721 9.20196 
7 1 6.16904 6.16324 4.59532 
8 1 7.68766 7.68855 3.08356 
9 1 6.97989 6.98134 3.78988 
43 1 10.0376 10.0391 0.734238 
44 1 8.50172 8.50067 2.26778 
45 1 9.20759 9.20734 1.56143 
22 1 6.23268 6.23985 6.24782 
23 1 7.77386 7.77282 7.77515 
24 1 7.06263 7.06707 7.0707 
34 1 10.0978 10.1117 10.0976 
35 1 8.58812 8.58622 8.5856 
36 1 9.2932 9.29808 9.29143 
ITEM: TIMESTEP
50
ITEM: NUMBER OF ATOMS
51
ITEM: BOX BOUNDS pp pp pp
0.0000000000000000e+00 1.1000000000000000e+01
0.0000000000000000e+00 1.1002000000000001e+01
0.0000000000000000e+00 1.1000000000000000e+01
ITEM: ATOMS id type x y z 
10 1 4.61516 4.60523 4.59478 
11 1 3.08476 3.08577 3.08767 
12 1 3.79671 3.79217 3.78965 
46 1 0.734595 0.736337 0.733503 
47 1 2.27192 2.26952 2.27118 
48 1 1.56451 1.56434 1.56402 
19 1 4.53655 4.53835 6.2424 
20 1 3.00287 3.00207 7.77452 
21 1 3.71014 3.71051 7.06858 
31 1 0.664715 0.67652 10.0972 
32 1 2.1896 2.18684 8.58616 
33 1 1.47681 1.4828 9.29194 
16 1 4.5182 6.25242 4.55218 
17 1 2.99915 7.77729 2.99918 
18 1 3.7 7.07343 3.71583 
25 1 0.673443 10.1038 0.670912 
26 1 2.1884 8.58882 2.18448 
27 1 1.47918 9.29644 1.47843 
4 1 4.60079 6.17236 6.17944 
5 1 3.08142 7.68833 7.68845 
6 1 3.79159 6.98033 6.98433 
37 1 0.735719 10.0403 10.0343 
38 1 2.26807 8.50013 8.50033 
39 1 1.56266 9.20977 9.20658 
13 1 6.20256 4.58075 4.52743 
14 1 7.721 3.09833 2.82881 
15 1 7.12474 3.50176 3.85901 
28 1 10.0934 0.676953 0.684115 
29 1 8.54587 2.24095 2.12105 
30 1 9.2727 1.5061 1.44661 
49 2 7.25098 2.89068 4.81351 
50 2 8.80984 2.28754 4.47778 
51 3 9.32555 2.60366 5.17495 
1 1 6.17371 4.60463 6.13242 
2 1 7.67522 3.09326 7.68351 
3 1 6.97762 3.79436 6.96253 
40 1 10.0348 0.73859 10.0351 
41 1 8.49525 2.27244 8.49593 
42 1 9.2024 1.56805 9.20298 
7 1 6.16984 6.16343 4.59504 
8 1 7.68724 7.68969 3.08477 
9 1 6.9805 6.97858 3.78752 
43 1 10.0368 10.0398 0.734463 
44 1 8.5019 8.50049 2.26733 
45 1 9.208 9.20858 1.56172 
22 1 6.23286 6.23967 6.24646 
23 1 7.77304 7.77243 7.77495 
24 1 7.06294 7.06606 7.06998 
34 1 10.0975 10.1117 10.097 
35 1 8.58795 8.58668 8.58588 
36 1 9.29379 9.29801 9.29119 
ITEM: TIMESTEP
60
ITEM: NUMBER OF ATOMS
51
ITEM: BOX BOUNDS pp pp pp
0.0000000000000000e+00 1.1000000000000000e+01
0.0000000000000000e+00 1.1002000000000001e+01
0.0000000000000000e+00 1.1000000000000000e+01
ITEM: ATOMS id type x y z 
10 1 4.61844 4.60431 4.59259 
11 1 3.08493 3.08479 3.08801 
12 1 3.79851 3.79246 3.78717 
46 1 0.730868 0.738671 0.735625 
47 1 2.27196 2.26945 2.2713 
48 1 1.56317 1.56519 1.56445 
19 1 4.53846 4.53792 6.23941 
20 1 3.00449 3.003 7.77376 
21 1 3.71151 3.7103 7.06706 
31 1 0.663488 0.678954 10.0976 
32 1 2.18972 2.18746 8.58545 
33 1 1.47654 1.48425 9.2916 
16 1 4.52086 6.25127 4.5514 
17 1 2.9985 7.77714 3.00083 
18 1 3.70102 7.07328 3.71627 
25 1 0.671777 10.1054 0.67124 
26 1 2.18765 8.58893 2.18439 
27 1 1.48012 9.29697 1.47712 
4 1 4.60212 6.17081 6.17923 
5 1 3.0813 7.68827 7.68969 
6 1 3.79099 6.98043 6.98507 
37 1 0.732745 10.0433 10.0355 
38 1 2.26654 8.50206 8.50204 
39 1 1.56125 9.21135 9.20728 
13 1 6.20611 4.57625 4.52485 
14 1 7.71512 3.10291 2.83051 
15 1 7.12553 3.48033 3.87433 
28 1 10.0901 0.680283 0.685072 
29 1 8.53508 2.26291 2.09561 
30 1 9.26507 1.51993 1.43434 
49 2 7.23098 2.88279 4.83887 
50 2 8.83839 2.27214 4.4846 
51 3 9.34441 2.59733 5.18672 
1 1 6.1755 4.6032 6.12764 
2 1 7.67496 3.09306 7.68248 
3 1 6.97883 3.79409 6.96011 
40 1 10.0324 0.741281 10.0379 
41 1 8.49408 2.27446 8.49656 
42 1 9.20097 1.56813 9.20263 
7 1 6.172 6.15846 4.59039 
8 1 7.68761 7.6902 3.08417 
9 1 6.98181 6.97711 3.78563 
43 1 10.0351 10.0435 0.735264 
44 1 8.50261 8.5008 2.26686 
45 1 9.20798 9.21063 1.56216 
22 1 6.23358 6.23869 6.24181 
23 1 7.77178 7.77118 7.77422 
24 1 7.06289 7.06392 7.06901 
34 1 10.0957 10.1125 10.0965 
35 1 8.58772 8.58601 8.58499 
36 1 9.29171 9.29888 9.29072 
ITEM: TIMESTEP
70
ITEM: NUMBER OF ATOMS
51
ITEM: BOX BOUNDS pp pp pp
0.0000000000000000e+00 1.1000000000000000e+01
0.0000000000000000e+00 1.1002000000000001e+01
0.0000000000000000e+00 1.1000000000000000e+01
ITEM: ATOMS id type x y z 
10 1 4.61875 4.60463 4.59196 
11 1 3.08513 3.08506 3.08763 
12 1 3.79854 3.7919 3.78774 
46 1 0.730535 0.738789 0.735512 
47 1 2.27192 2.26941 2.27122 
48 1 1.56292 1.56526 1.56461 
19 1 4.53852 4.53796 6.23929 
20 1 3.00474 3.00305 7.77378 
21 1 3.71148 3.71031 7.06669 
31 1 0.663152 0.679476 10.0979 
32 1 2.18954 2.18782 8.58544 
33 1 1.47693 1.48394 9.29143 
16 1 4.52115 6.25118 4.55138 
17 1 2.99861 7.77713 3.00102 
18 1 3.70093 7.07312 3.71637 
25 1 0.671788 10.1056 0.671211 
26 1 2.18784 8.58882 2.18412 
27 1 1.47984 9.29714 1.47767 
4 1 4.60228 6.17099 6.17912 
5 1 3.08153 7.68819 7.68972 
6 1 3.79072 6.98033 6.98512 
37 1 0.732687 10.0436 10.0354 
38 1 2.26668 8.50222 8.50196 
39 1 1.56093 9.21122 9.20743 
13 1 6.20637 4.57557 4.52462 
14 1 7.71479 3.1025 2.8313 
15 1 7.12506 3.47905 3.87577 
28 1 10.0895 0.680884 0.685395 
29 1 8.53419 2.26522 2.09324 
30 1 9.26418 1.52163 1.43268 
49 2 7.22944 2.88134 4.84115 
50 2 8.84148 2.27063 4.48534 
51 3 9.34616 2.59661 5.18779 
1 1 6.17573 4.60313 6.12732 
2 1 7.67496 3.093 7.68221 
3 1 6.97879 3.79433 6.96003 
40 1 10.0324 0.740839 10.0374 
41 1 8.49403 2.2739 8.49605 
42 1 9.20079 1.56939 9.20384 
7 1 6.17209 6.15813 4.59009 
8 1 7.68773 7.69031 3.08403 
9 1 6.98194 6.97682 3.78538 
43 1 10.035 10.0439 0.735281 
44 1 8.50278 8.5009 2.26686 
45 1 9.20787 9.21094 1.56206 
22 1 6.2336 6.23839 6.24185 
23 1 7.7716 7.77052 7.77442 
24 1 7.06283 7.06449 7.06809 
34 1 10.0955 10.1127 10.0966 
35 1 8.5876 8.58593 8.58488 
36 1 9.29143 9.29882 9.29061 
ITEM: TIMESTEP
80
ITEM: NUMBER OF ATOMS
51
ITEM: BOX BOUNDS pp pp pp
0.0000000000000000e+00 1.1000000000000000e+01
0.0000000000000000e+00 1.1002000000000001e+01
0.0000000000000000e+00 1.1000000000000000e+01
ITEM: ATOMS id type x y z 
10 1 4.61877 4.60458 4.59197 
11 1 3.08513 3.085 3.08769 
12 1 3.79862 3.79198 3.78758 
46 1 0.73048 0.738815 0.73547 
47 1 2.27195 2.26941 2.27118 
48 1 1.5628 1.56526 1.56468 
19 1 4.53852 4.53796 6.23924 
20 1 3.00478 3.00305 7.77375 
21 1 3.71152 3.71034 7.06666 
31 1 0.663083 0.679591 10.0979 
32 1 2.18948 2.18791 8.58543 
33 1 1.47704 1.48386 9.29141 
16 1 4.52117 6.25115 4.55138 
17 1 2.99858 7.77712 3.00107 
18 1 3.70099 7.07314 3.71634 
25 1 0.671753 10.1056 0.671253 
26 1 2.18783 8.58882 2.18413 
27 1 1.47986 9.29714 1.47765 
4 1 4.60223 6.17094 6.17912 
5 1 3.08147 7.68812 7.68975 
6 1 3.79084 6.98045 6.98512 
37 1 0.732638 10.0437 10.0354 
38 1 2.26663 8.50221 8.502 
39 1 1.56098 9.2113 9.2074 
13 1 6.20644 4.57544 4.52456 
14 1 7.71469 3.10243 2.83152 
15 1 7.12499 3.47874 3.87607 
28 1 10.0894 0.681007 0.685445 
29 1 8.53402 2.26575 2.09273 
30 1 9.26398 1.52196 1.43231 
49 2 7.22911 2.88103 4.84162 
50 2 8.84214 2.27031 4.4855 
51 3 9.34654 2.59646 5.18802 
1 1 6.17578 4.60312 6.12726 
2 1 7.67498 3.09302 7.68214 
3 1 6.97875 3.79432 6.96002 
40 1 10.0324 0.740798 10.0373 
41 1 8.49403 2.27383 8.49596 
42 1 9.20073 1.56959 9.20407 
7 1 6.17214 6.15806 4.59001 
8 1 7.68775 7.69031 3.08402 
9 1 6.98197 6.97676 3.78532 
43 1 10.035 10.0439 0.73528 
44 1 8.50278 8.50092 2.26685 
45 1 9.2079 9.211 1.56205 
22 1 6.23362 6.23842 6.24175 
23 1 7.7716 7.77051 7.77438 
24 1 7.0628 7.0644 7.06809 
34 1 10.0954 10.1128 10.0967 
35 1 8.58753 8.58595 8.58486 
36 1 9.29146 9.29874 9.2906 
ITEM: TIMESTEP
90
ITEM: NUMBER OF ATOMS
51
ITEM: BOX BOUNDS pp pp pp
0.0000000000000000e+00 1.1000000000000000e+01
0.0000000000000000e+00 1.1002000000000001e+01
0.0000000000000000e+00 1.1000000000000000e+01
ITEM: ATOMS id type x y z 
10 1 4.6205 4.60458 4.5907 
11 1 3.08595 3.08437 3.08675 
12 1 3.79905 3.79161 3.78668 
46 1 0.726733 0.740122 0.736134 
47 1 2.27163 2.26914 2.27108 
48 1 1.56113 1.56588 1.56516 
19 1 4.53899 4.53853 6.23749 
20 1 3.00608 3.00385 7.77318 
21 1 3.71229 3.7098 7.06468 
31 1 0.663045 0.680877 10.099 
32 1 2.18987 2.18922 8.5845 
33 1 1.47789 1.48519 9.29109 
16 1 4.52354 6.25014 4.55004 
17 1 2.99831 7.77684 3.00209 
18 1 3.70121 7.07331 3.71674 
25 1 0.670793 10.1071 0.671222 
26 1 2.18835 8.58889 2.18338 
27 1 1.47865 9.29758 1.47901 
4 1 4.60197 6.17147 6.17866 
5 1 3.08132 7.68836 7.6909 
6 1 3.79037 6.98013 6.98608 
37 1 0.731242 10.0454 10.0358 
38 1 2.26588 8.50313 8.50281 
39 1 1.56048 9.21233 9.20734 
13 1 6.20881 4.57153 4.52288 
14 1 7.71191 3.09957 2.84008 
15 1 7.12213 3.46538 3.88952 
28 1 10.0847 0.686491 0.683523 
29 1 8.52476 2.28684 2.06939 
30 1 9.25872 1.53253 1.42486 
49 2 7.21689 2.86898 4.85818 
50 2 8.8677 2.25757 4.49107 
51 3 9.36157 2.59058 5.19762 
1 1 6.17659 4.60282 6.12546 
2 1 7.67505 3.09299 7.68051 
3 1 6.97863 3.79438 6.95855 
40 1 10.0309 0.742891 10.0384 
41 1 8.49265 2.27593 8.49669 
42 1 9.19958 1.57001 9.20335 
7 1 6.17383 6.15484 4.58731 
8 1 7.68863 7.6903 3.08346 
9 1 6.98268 6.97493 3.78253 
43 1 10.0341 10.0482 0.735506 
44 1 8.5033 8.50234 2.2665 
45 1 9.20857 9.21277 1.56217 
22 1 6.23448 6.23827 6.23791 
23 1 7.77142 7.76918 7.77337 
24 1 7.06203 7.06359 7.06695 
34 1 10.0938 10.1128 10.0973 
35 1 8.58621 8.58558 8.58406 
36 1 9.29016 9.29798 9.29033 
ITEM: TIMESTEP
100
ITEM: NUMBER OF ATOMS
51
ITEM: BOX BOUNDS pp pp pp
0.0000000000000000e+00 1.1000000000000000e+01
0.0000000000000000e+00 1.1002000000000001e+01
0.0000000000000000e+00 1.1000000000000000e+01
ITEM: ATOMS id type x y z 
10 1 4.62043 4.6045 4.59045 
11 1 3.08581 3.08447 3.08695 
12 1 3.7997 3.79153 3.78632 
46 1 0.726694 0.740334 0.736145 
47 1 2.27156 2.26908 2.27109 
48 1 1.56097 1.56593 1.56508 
19 1 4.53893 4.5383 6.23712 
20 1 3.00606 3.00336 7.77285 
21 1 3.71237 3.71054 7.06524 
31 1 0.663127 0.680815 10.0989 
32 1 2.18985 2.18906 8.58466 
33 1 1.47758 1.48533 9.29113 
16 1 4.52347 6.25027 4.5503 
17 1 2.99809 7.77707 3.00238 
18 1 3.70158 7.07293 3.71627 
25 1 0.670432 10.1071 0.671611 
26 1 2.18775 8.58898 2.18393 
27 1 1.47963 9.29754 1.47794 
4 1 4.60209 6.1714 6.17868 
5 1 3.08132 7.68796 7.69105 
6 1 3.79051 6.98071 6.9858 
37 1 0.731031 10.0457 10.0358 
38 1 2.26586 8.50326 8.50283 
39 1 1.56011 9.21255 9.20771 
13 1 6.20885 4.5712 4.52292 
14 1 7.71169 3.09942 2.84091 
15 1 7.12193 3.46445 3.89061 
28 1 10.0847 0.686832 0.683933 
29 1 8.52444 2.28777 2.06847 
30 1 9.2576 1.53402 1.42309 
49 2 7.21618 2.86799 4.85909 
50 2 8.86949 2.25668 4.49143 
51 3 9.36264 2.59016 5.19835 
1 1 6.17665 4.60296 6.12535 
2 1 7.67488 3.09302 7.68054 
3 1 6.97891 3.79442 6.9582 
40 1 10.031 0.742442 10.0378 
41 1 8.49271 2.27549 8.49637 
42 1 9.19946 1.57086 9.2042 
7 1 6.1738 6.15442 4.58674 
8 1 7.68849 7.69017 3.0829 
9 1 6.98326 6.97511 3.78315 
43 1 10.0341 10.0481 0.735584 
44 1 8.50366 8.50209 2.2666 
45 1 9.20783 9.21341 1.56214 
22 1 6.23403 6.23826 6.23812 
23 1 7.77088 7.76894 7.77363 
24 1 7.06273 7.06358 7.06599 
34 1 10.094 10.1128 10.0972 
35 1 8.58629 8.58546 8.58414 
36 1 9.28991 9.29824 9.29026 
ITEM: TIMESTEP
110
ITEM: NUMBER OF ATOMS
51
ITEM: BOX BOUNDS pp pp pp
0.0000000000000000e+00 1.1000000000000000e+01
0.0000000000000000e+00 1.1002000000000001e+01
0.0000000000000000e+00 1.1000000000000000e+01
ITEM: ATOMS id type x y z 
10 1 4.62408 4.60268 4.58632 
11 1 3.08744 3.08289 3.08451 
12 1 3.8023 3.7898 3.78336 
46 1 0.719749 0.744684 0.736861 
47 1 2.26988 2.26885 2.27124 
48 1 1.55676 1.56723 1.56609 
19 1 4.53848 4.54169 6.23341 
20 1 3.0098 3.00366 7.76976 
21 1 3.71365 3.71196 7.06266 
31 1 0.663936 0.684645 10.1001 
32 1 2.18959 2.19137 8.58445 
33 1 1.47788 1.48674 9.29104 
16 1 4.52691 6.24946 4.54769 
17 1 2.99692 7.778 3.00372 
18 1 3.702 7.07341 3.71562 
25 1 0.666875 10.111 0.672806 
26 1 2.18709 8.5901 2.18305 
27 1 1.47712 9.29851 1.47927 
4 1 4.60347 6.17284 6.17281 
5 1 3.08146 7.69002 7.69129 
6 1 3.78917 6.9779 6.99123 
37 1 0.727656 10.0491 10.0377 
38 1 2.26394 8.50554 8.50533 
39 1 1.55813 9.21516 9.20908 
13 1 6.21128 4.56253 4.52243 
14 1 7.70749 3.08939 2.86605 
15 1 7.11809 3.43268 3.92504 
28 1 10.0754 0.701763 0.678824 
29 1 8.50205 2.33182 2.0189 
30 1 9.24162 1.55962 1.40459 
49 2 7.19379 2.83222 4.88933 
50 2 8.92957 2.22781 4.50311 
51 3 9.39708 2.57595 5.22179 
1 1 6.17579 4.60378 6.12175 
2 1 7.67514 3.09349 7.67705 
3 1 6.97822 3.79467 6.95525 
40 1 10.0289 0.744578 10.0366 
41 1 8.48957 2.27909 8.49709 
42 1 9.19691 1.5739 9.20376 
7 1 6.17903 6.14645 4.57784 
8 1 7.69143 7.69006 3.07936 
9 1 6.98716 6.97074 3.77712 
43 1 10.0296 10.0595 0.736393 
44 1 8.50634 8.5053 2.26533 
45 1 9.207 9.22123 1.56173 
22 1 6.23299 6.23924 6.23154 
23 1 7.77028 7.76648 7.77217 
24 1 7.06265 7.06286 7.0623 
34 1 10.0917 10.1123 10.0988 
35 1 8.58463 8.5855 8.58294 
36 1 9.28696 9.29672 9.29157 
ITEM: TIMESTEP
120
ITEM: NUMBER OF ATOMS
51
ITEM: BOX BOUNDS pp pp pp
0.0000000000000000e+00 1.1000000000000000e+01
0.0000000000000000e+00 1.1002000000000001e+01
0.0000000000000000e+00 1.1000000000000000e+01
ITEM: ATOMS id type x y z 
10 1 4.62489 4.60359 4.58567 
11 1 3.08794 3.08263 3.08462 
12 1 3.8026 3.79019 3.78272 
46 1 0.718166 0.745455 0.737141 
47 1 2.26962 2.26844 2.2714 
48 1 1.55596 1.56793 1.56567 
19 1 4.53769 4.54142 6.23311 
20 1 3.00917 3.00293 7.77055 
21 1 3.71326 3.71168 7.06234 
31 1 0.663124 0.683783 10.0999 
32 1 2.19033 2.19122 8.58381 
33 1 1.47785 1.48849 9.29125 
16 1 4.52855 6.24883 4.54654 
17 1 2.99712 7.77766 3.00455 
18 1 3.70305 7.07292 3.71518 
25 1 0.66667 10.1111 0.673235 
26 1 2.1863 8.59003 2.18311 
27 1 1.47737 9.2996 1.47921 
4 1 4.60244 6.17276 6.17502 
5 1 3.08135 7.68708 7.69417 
6 1 3.78978 6.98286 6.98588 
37 1 0.727462 10.0494 10.0381 
38 1 2.26398 8.5059 8.50523 
39 1 1.558 9.21506 9.20939 
13 1 6.21237 4.56163 4.5226 
14 1 7.70675 3.08708 2.86884 
15 1 7.11908 3.43079 3.92845 
28 1 10.0744 0.702056 0.681663 
29 1 8.5018 2.33179 2.02184 
30 1 9.23874 1.56805 1.39363 
49 2 7.19214 2.8275 4.89107 
50 2 8.93517 2.22596 4.50362 
51 3 9.39932 2.57455 5.22362 
1 1 6.17617 4.60432 6.1217 
2 1 7.6744 3.09383 7.67684 
3 1 6.97855 3.79533 6.95459 
40 1 10.0292 0.744671 10.0363 
41 1 8.48982 2.27874 8.49722 
42 1 9.19715 1.57389 9.2044 
7 1 6.17842 6.1448 4.57782 
8 1 7.6915 7.68925 3.07928 
9 1 6.98738 6.97005 3.77654 
43 1 10.0287 10.0613 0.736797 
44 1 8.50578 8.50556 2.26579 
45 1 9.20661 9.2212 1.56225 
22 1 6.23387 6.23988 6.22963 
23 1 7.76993 7.76597 7.77164 
24 1 7.0625 7.06274 7.0614 
34 1 10.0914 10.1129 10.0989 
35 1 8.58396 8.58476 8.58377 
36 1 9.28723 9.2975 9.29007 
ITEM: TIMESTEP
130
ITEM: NUMBER OF ATOMS
51
ITEM: BOX BOUNDS pp pp pp
0.0000000000000000e+00 1.1000000000000000e+01
0.0000000000000000e+00 1.1002000000000001e+01
0.0000000000000000e+00 1.1000000000000000e+01
ITEM: ATOMS id type x y z 
10 1 4.62482 4.60362 4.58567 
11 1 3.08796 3.0827 3.0846 
12 1 3.80272 3.79005 3.78272 
46 1 0.717963 0.745546 0.737163 
47 1 2.26954 2.26841 2.27136 
48 1 1.5559 1.56794 1.56568 
19 1 4.53765 4.54155 6.23305 
20 1 3.00922 3.00299 7.77047 
21 1 3.71335 3.71173 7.06225 
31 1 0.663089 0.683938 10.1 
32 1 2.19022 2.19132 8.58399 
33 1 1.47797 1.48824 9.29104 
16 1 4.52863 6.24878 4.54643 
17 1 2.99712 7.77767 3.00449 
18 1 3.703 7.073 3.71519 
25 1 0.666528 10.1112 0.673315 
26 1 2.18624 8.59006 2.18329 
27 1 1.47744 9.29955 1.47902 
4 1 4.60248 6.17314 6.17469 
5 1 3.08134 7.6875 7.6939 
6 1 3.78977 6.98213 6.98643 
37 1 0.727403 10.0494 10.0381 
38 1 2.26399 8.50589 8.50518 
39 1 1.55798 9.21509 9.20952 
13 1 6.21251 4.56138 4.52261 
14 1 7.70675 3.08683 2.8692 
15 1 7.11914 3.43047 3.92895 
28 1 10.0741 0.702504 0.681496 
29 1 8.50164 2.33212 2.02146 
30 1 9.23871 1.56827 1.39338 
49 2 7.19196 2.82689 4.8913 
50 2 8.93588 2.22571 4.50366 
51 3 9.39962 2.57438 5.22387 
1 1 6.17607 4.6044 6.12174 
2 1 7.67439 3.09384 7.67682 
3 1 6.97856 3.79536 6.95463 
40 1 10.0292 0.744671 10.0363 
41 1 8.48982 2.27876 8.49723 
42 1 9.19706 1.57395 9.20432 
7 1 6.17856 6.14467 4.57766 
8 1 7.69155 7.68901 3.07918 
9 1 6.98735 6.97021 3.77663 
43 1 10.0287 10.0614 0.736831 
44 1 8.50582 8.50556 2.26578 
45 1 9.20651 9.22142 1.56229 
22 1 6.23387 6.23983 6.22953 
23 1 7.76999 7.76587 7.77163 
24 1 7.06237 7.06285 7.06124 
34 1 10.0915 10.1129 10.0987 
35 1 8.584 8.58474 8.58367 
36 1 9.28705 9.29747 9.2903 
ITEM: TIMESTEP
140
ITEM: NUMBER OF ATOMS
51
ITEM: BOX BOUNDS pp pp pp
0.0000000000000000e+00 1.1000000000000000e+01
0.0000000000000000e+00 1.1002000000000001e+01
0.0000000000000000e+00 1.1000000000000000e+01
ITEM: ATOMS id type x y z 
10 1 4.62483 4.60361 4.58567 
11 1 3.08796 3.0827 3.0846 
12 1 3.80273 3.79005 3.78271 
46 1 0.717949 0.745549 0.737162 
47 1 2.26955 2.2684 2.27135 
48 1 1.55587 1.56795 1.56568 
19 1 4.53766 4.54155 6.23304 
20 1 3.00924 3.00299 7.77047 
21 1 3.71332 3.71175 7.06224 
31 1 0.663095 0.683936 10.1 
32 1 2.19022 2.19132 8.58399 
33 1 1.47796 1.48826 9.29106 
16 1 4.52864 6.24878 4.54642 
17 1 2.99711 7.77768 3.00449 
18 1 3.70301 7.07299 3.71518 
25 1 0.666516 10.1113 0.673315 
26 1 2.18624 8.59006 2.18329 
27 1 1.47743 9.29955 1.47903 
4 1 4.60247 6.17312 6.1747 
5 1 3.08134 7.68747 7.69392 
6 1 3.78978 6.98219 6.98639 
37 1 0.727402 10.0494 10.0381 
38 1 2.26399 8.50589 8.50519 
39 1 1.55799 9.21509 9.20952 
13 1 6.21252 4.56135 4.52262 
14 1 7.70675 3.08681 2.86925 
15 1 7.11914 3.43045 3.92901 
28 1 10.0741 0.702546 0.681483 
29 1 8.50163 2.33216 2.02142 
30 1 9.23869 1.56831 1.39334 
49 2 7.19194 2.82682 4.89132 
50 2 8.93596 2.22568 4.50366 
51 3 9.39965 2.57436 5.2239 
1 1 6.17606 4.60441 6.12173 
2 1 7.67439 3.09385 7.67682 
3 1 6.97856 3.79535 6.95463 
40 1 10.0292 0.744668 10.0363 
41 1 8.48981 2.27877 8.49722 
42 1 9.19707 1.57395 9.20432 
7 1 6.17857 6.14465 4.57765 
8 1 7.69155 7.68901 3.07918 
9 1 6.98735 6.9702 3.77663 
43 1 10.0287 10.0614 0.736834 
44 1 8.50582 8.50557 2.26578 
45 1 9.20651 9.22143 1.56229 
22 1 6.23387 6.23982 6.22952 
23 1 7.76999 7.76586 7.77163 
24 1 7.06236 7.06287 7.06124 
34 1 10.0914 10.1129 10.0987 
35 1 8.58399 8.58474 8.58368 
36 1 9.28706 9.29747 9.29029 
ITEM: TIMESTEP
144
ITEM: NUMBER OF ATOMS
51
ITEM: BOX BOUNDS pp pp pp
0.0000000000000000e+00 1.1000000000000000e+01
0.0000000000000000e+00 1.1002000000000001e+01
0.0000000000000000e+00 1.1000000000000000e+01
ITEM: ATOMS id type x y z 
10 1 4.62483 4.60361 4.58567 
11 1 3.08796 3.0827 3.0846 
12 1 3.80273 3.79005 3.78271 
46 1 0.717948 0.745549 0.737163 
47 1 2.26955 2.2684 2.27135 
48 1 1.55587 1.56795 1.56568 
19 1 4.53766 4.54155 6.23304 
20 1 3.00925 3.003 7.77047 
21 1 3.71332 3.71175 7.06224 
31 1 0.663096 0.683935 10.1 
32 1 2.19023 2.19132 8.58399 
33 1 1.47796 1.48826 9.29106 
16 1 4.52864 6.24878 4.54642 
17 1 2.99711 7.77768 3.00448 
18 1 3.70301 7.07299 3.71518 
25 1 0.666513 10.1113 0.673318 
26 1 2.18624 8.59006 2.18329 
27 1 1.47743 9.29955 1.47903 
4 1 4.60247 6.17312 6.17471 
5 1 3.08135 7.68746 7.69392 
6 1 3.78977 6.9822 6.98638 
37 1 0.7274 10.0494 10.0381 
38 1 2.26399 8.50589 8.50519 
39 1 1.55799 9.21508 9.20952 
13 1 6.21252 4.56135 4.52262 
14 1 7.70675 3.0868 2.86925 
15 1 7.11914 3.43045 3.92902 
28 1 10.0741 0.702552 0.68148 
29 1 8.50163 2.33216 2.02141 
30 1 9.23868 1.56831 1.39334 
49 2 7.19193 2.82682 4.89133 
50 2 8.93596 2.22568 4.50366 
51 3 9.39966 2.57436 5.2239 
1 1 6.17606 4.60441 6.12173 
2 1 7.67439 3.09384 7.67681 
3 1 6.97856 3.79536 6.95463 
40 1 10.0292 0.744668 10.0363 
41 1 8.48981 2.27877 8.49722 
42 1 9.19707 1.57396 9.20432 
7 1 6.17858 6.14465 4.57765 
8 1 7.69155 7.68901 3.07918 
9 1 6.98735 6.9702 3.77663 
43 1 10.0287 10.0614 0.736835 
44 1 8.50582 8.50557 2.26578 
45 1 9.20652 9.22143 1.56229 
22 1 6.23388 6.23982 6.22952 
23 1 7.76999 7.76586 7.77163 
24 1 7.06236 7.06288 7.06124 
34 1 10.0914 10.1129 10.0987 
35 1 8.58399 8.58474 8.58368 
36 1 9.28706 9.29747 9.29029 
ITEM: TIMESTEP
146
ITEM: NUMBER OF ATOMS
51
ITEM: BOX BOUNDS pp pp pp
0.0000000000000000e+00 1.1000000000000000e+01
0.0000000000000000e+00 1.1002000000000001e+01
0.0000000000000000e+00 1.1000000000000000e+01
ITEM: ATOMS id type x y z 
10 1 4.62483 4.60361 4.58567 
11 1 3.08796 3.0827 3.0846 
12 1 3.80273 3.79005 3.78271 
46 1 0.717947 0.74555 0.737163 
47 1 2.26955 2.2684 2.27135 
48 1 1.55587 1.56795 1.56568 
19 1 4.53766 4.54155 6.23304 
20 1 3.00925 3.003 7.77047 
21 1 3.71332 3.71175 7.06224 
31 1 0.663096 0.683936 10.1 
32 1 2.19023 2.19132 8.58399 
33 1 1.47796 1.48826 9.29106 
16 1 4.52864 6.24878 4.54642 
17 1 2.99711 7.77768 3.00448 
18 1 3.70301 7.07299 3.71518 
25 1 0.666513 10.1113 0.673317 
26 1 2.18624 8.59006 2.18329 
27 1 1.47743 9.29955 1.47903 
4 1 4.60247 6.17312 6.1747 
5 1 3.08135 7.68746 7.69392 
6 1 3.78977 6.9822 6.98639 
37 1 0.727401 10.0494 10.0381 
38 1 2.26399 8.50589 8.50519 
39 1 1.55799 9.21508 9.20952 
13 1 6.21252 4.56135 4.52262 
14 1 7.70675 3.0868 2.86925 
15 1 7.11914 3.43045 3.92902 
28 1 10.0741 0.702552 0.68148 
29 1 8.50163 2.33216 2.02141 
30 1 9.23868 1.56831 1.39334 
49 2 7.19193 2.82682 4.89133 
50 2 8.93597 2.22568 4.50366 
51 3 9.39966 2.57436 5.22391 
1 1 6.17606 4.60441 6.12173 
2 1 7.67439 3.09384 7.67681 
3 1 6.97856 3.79536 6.95463 
40 1 10.0292 0.744668 10.0363 
41 1 8.48981 2.27877 8.49722 
42 1 9.19707 1.57396 9.20432 
7 1 6.17858 6.14465 4.57765 
8 1 7.69155 7.68901 3.07918 
9 1 6.98735 6.9702 3.77663 
43 1 10.0287 10.0614 0.736835 
44 1 8.50582 8.50557 2.26577 
45 1 9.20652 9.22143 1.56229 
22 1 6.23388 6.23982 6.22952 
23 1 7.76999 7.76586 7.77163 
24 1 7.06236 7.06287 7.06124 
34 1 10.0914 10.1129 10.0987 
35 1 8.58399 8.58474 8.58368 
36 1 9.28706 9.29747 9.29029 
ITEM: TIMESTEP
150
ITEM: NUMBER OF ATOMS
51
ITEM: BOX BOUNDS pp pp pp
-2.1361189344785646e-03 1.1002136118934478e+01
-1.9574274666980824e-03 1.1003957427466698e+01
-2.1999999999999997e-03 1.1002200000000002e+01
ITEM: ATOMS id type x y z 
10 1 4.62452 4.60331 4.58531 
11 1 3.08703 3.08185 3.08363 
12 1 3.80207 3.78943 3.78203 
46 1 0.716073 0.743847 0.735243 
47 1 2.26829 2.26725 2.27006 
48 1 1.55432 1.56653 1.5641 
19 1 4.5373 4.54122 6.23332 
20 1 3.00828 3.00211 7.77137 
21 1 3.71264 3.71112 7.06285 