LAMMPS (3 Mar 2020)
# Alpha
clear
units		real
dimension 3
boundary        p p p
atom_style	charge
newton on
read_data       H_2.lmp
  orthogonal box = (0 0 0) to (11 11.002 11)
  2 by 2 by 2 MPI processor grid
  reading atoms ...
  49 atoms
  read_data CPU = 0.00638928 secs

timestep 0.25

# ---------- Define Interatomic Potential ---------------------
pair_style      reax/c NULL checkqeq no
pair_coeff      * * ffield.reax C H
fix             2 all qeq/reax 1 0.0 10.0 1.0e-6 reax/c

#------------ Equilibration of the system -------------------------
reset_timestep 0

dump 1 all custom 10 min.lammpstrj id type x y z

minimize 1.0e-8 1.0e-8 100000 100000
WARNING: Using 'neigh_modify every 1 delay 0 check yes' setting during minimization (../min.cpp:190)
WARNING: Total cutoff < 2*bond cutoff. May need to use an increased neighbor list skin. (../pair_reaxc.cpp:413)
Neighbor list info ...
  update every 1 steps, delay 0 steps, check yes
  max neighbors/atom: 2000, page size: 100000
  master list distance cutoff = 9.5
  ghost atom cutoff = 9.5
  binsize = 4.75, bins = 3 3 3
  2 neighbor lists, perpetual/occasional/extra = 2 0 0
  (1) pair reax/c, perpetual
      attributes: half, newton off, ghost
      pair build: half/bin/newtoff/ghost
      stencil: half/ghost/bin/3d/newtoff
      bin: standard
  (2) fix qeq/reax, perpetual, copy from (1)
      attributes: half, newton off, ghost
      pair build: copy
      stencil: none
      bin: none
Per MPI rank memory allocation (min/avg/max) = 18.75 | 18.91 | 19.08 Mbytes
Step Temp E_pair E_mol TotEng Press 
       0            0   -8673.7572            0   -8673.7572     18690.09 
     101            0   -8720.6961            0   -8720.6961    10126.175 
Loop time of 1.74885 on 8 procs for 101 steps with 49 atoms

99.4% CPU use with 8 MPI tasks x no OpenMP threads

Minimization stats:
  Stopping criterion = energy tolerance
  Energy initial, next-to-last, final = 
        -8673.75717815     -8720.69603601     -8720.69608386
  Force two-norm initial, final = 575.712 45.3939
  Force max component initial, final = 373.409 11.5604
  Final line search alpha, max atom move = 6.75736e-05 0.000781175
  Iterations, force evaluations = 101 686

MPI task timing breakdown:
Section |  min time  |  avg time  |  max time  |%varavg| %total
---------------------------------------------------------------
Pair    | 1.3656     | 1.3731     | 1.3889     |   0.6 | 78.52
Neigh   | 0          | 0          | 0          |   0.0 |  0.00
Comm    | 0.013166   | 0.028811   | 0.03647    |   4.2 |  1.65
Output  | 0.00020407 | 0.00027352 | 0.00046986 |   0.0 |  0.02
Modify  | 0.34238    | 0.34259    | 0.34273    |   0.0 | 19.59
Other   |            | 0.004045   |            |       |  0.23

Nlocal:    6.125 ave 7 max 6 min
Histogram: 7 0 0 0 0 0 0 0 0 1
Nghost:    603.75 ave 613 max 595 min
Histogram: 1 0 2 0 0 3 0 0 1 1
Neighs:    773.75 ave 881 max 755 min
Histogram: 7 0 0 0 0 0 0 0 0 1

Total # of neighbors = 6190
Ave neighs/atom = 126.327
Neighbor list builds = 0
Dangerous builds = 0

###
min_style cg
minimize 1.0e-8 1.0e-8 100000 100000
WARNING: Using 'neigh_modify every 1 delay 0 check yes' setting during minimization (../min.cpp:190)
WARNING: Total cutoff < 2*bond cutoff. May need to use an increased neighbor list skin. (../pair_reaxc.cpp:413)
Per MPI rank memory allocation (min/avg/max) = 18.75 | 18.91 | 19.08 Mbytes
Step Temp E_pair E_mol TotEng Press 
     101            0   -8720.6961            0   -8720.6961    10126.175 
     102            0   -8720.6961            0   -8720.6961    10125.989 
Loop time of 0.0270023 on 8 procs for 1 steps with 49 atoms

99.4% CPU use with 8 MPI tasks x no OpenMP threads

Minimization stats:
  Stopping criterion = energy tolerance
  Energy initial, next-to-last, final = 
        -8720.69608386     -8720.69608386     -8720.69611398
  Force two-norm initial, final = 45.3939 45.3908
  Force max component initial, final = 11.5604 11.5597
  Final line search alpha, max atom move = 6.75801e-05 0.000781203
  Iterations, force evaluations = 1 10

MPI task timing breakdown:
Section |  min time  |  avg time  |  max time  |%varavg| %total
---------------------------------------------------------------
Pair    | 0.021631   | 0.02177    | 0.022      |   0.1 | 80.62
Neigh   | 0          | 0          | 0          |   0.0 |  0.00
Comm    | 0.00020841 | 0.0004384  | 0.000578   |   0.0 |  1.62
Output  | 0          | 0          | 0          |   0.0 |  0.00
Modify  | 0.0046706  | 0.0046717  | 0.0046732  |   0.0 | 17.30
Other   |            | 0.0001218  |            |       |  0.45

Nlocal:    6.125 ave 7 max 6 min
Histogram: 7 0 0 0 0 0 0 0 0 1
Nghost:    603.75 ave 613 max 595 min
Histogram: 1 0 2 0 0 3 0 0 1 1
Neighs:    781.25 ave 900 max 757 min
Histogram: 6 1 0 0 0 0 0 0 0 1

Total # of neighbors = 6250
Ave neighs/atom = 127.551
Neighbor list builds = 0
Dangerous builds = 0

###
fix 1 all box/relax aniso 0.0
min_style cg
minimize 1.0e-8 1.0e-8 100000 100000
WARNING: Using 'neigh_modify every 1 delay 0 check yes' setting during minimization (../min.cpp:190)
WARNING: Total cutoff < 2*bond cutoff. May need to use an increased neighbor list skin. (../pair_reaxc.cpp:413)
Per MPI rank memory allocation (min/avg/max) = 18.75 | 18.91 | 19.08 Mbytes
Step Temp E_pair E_mol TotEng Press Volume 
     102            0   -8720.6961            0   -8720.6961    10125.989     1331.242 
     986            0   -8742.7036            0   -8742.7036    -1421.918    1349.8664 
Loop time of 3.0864 on 8 procs for 884 steps with 49 atoms

99.4% CPU use with 8 MPI tasks x no OpenMP threads

Minimization stats:
  Stopping criterion = linesearch alpha is zero
  Energy initial, next-to-last, final = 
        -8720.69611399     -8742.70357519     -8742.70357519
  Force two-norm initial, final = 343.87 57.5349
  Force max component initial, final = 209.2 35.5155
  Final line search alpha, max atom move = 2.68524e-12 9.53674e-11
  Iterations, force evaluations = 884 1334

MPI task timing breakdown:
Section |  min time  |  avg time  |  max time  |%varavg| %total
---------------------------------------------------------------
Pair    | 2.6033     | 2.6171     | 2.6418     |   0.7 | 84.80
Neigh   | 0          | 0          | 0          |   0.0 |  0.00
Comm    | 0.022303   | 0.046737   | 0.060544   |   5.4 |  1.51
Output  | 0.0014586  | 0.0019256  | 0.0031556  |   1.1 |  0.06
Modify  | 0.3968     | 0.3969     | 0.39706    |   0.0 | 12.86
Other   |            | 0.02371    |            |       |  0.77

Nlocal:    6.125 ave 7 max 6 min
Histogram: 7 0 0 0 0 0 0 0 0 1
Nghost:    603.75 ave 613 max 595 min
Histogram: 1 0 2 0 0 3 0 0 1 1
Neighs:    781.25 ave 900 max 757 min
Histogram: 6 1 0 0 0 0 0 0 0 1

Total # of neighbors = 6250
Ave neighs/atom = 127.551
Neighbor list builds = 0
Dangerous builds = 0

unfix 1
###
min_style cg
minimize 1.0e-8 1.0e-8 100000 100000
WARNING: Using 'neigh_modify every 1 delay 0 check yes' setting during minimization (../min.cpp:190)
WARNING: Total cutoff < 2*bond cutoff. May need to use an increased neighbor list skin. (../pair_reaxc.cpp:413)
Per MPI rank memory allocation (min/avg/max) = 18.75 | 18.91 | 19.08 Mbytes
Step Temp E_pair E_mol TotEng Press 
     986            0   -8742.7036            0   -8742.7036    -1421.918 
    1270            0   -8793.3443            0   -8793.3443    10782.466 
Loop time of 4.94818 on 8 procs for 284 steps with 49 atoms

99.4% CPU use with 8 MPI tasks x no OpenMP threads

Minimization stats:
  Stopping criterion = energy tolerance
  Energy initial, next-to-last, final = 
        -8742.70357519     -8793.34427805     -8793.34434075
  Force two-norm initial, final = 29.8718 21.2593
  Force max component initial, final = 7.66261 6.89523
  Final line search alpha, max atom move = 0.000453089 0.00312415
  Iterations, force evaluations = 284 1974

MPI task timing breakdown:
Section |  min time  |  avg time  |  max time  |%varavg| %total
---------------------------------------------------------------
Pair    | 3.8298     | 3.8757     | 3.9318     |   1.6 | 78.33
Neigh   | 0          | 0          | 0          |   0.0 |  0.00
Comm    | 0.035471   | 0.091136   | 0.13621    |  10.0 |  1.84
Output  | 0.00053974 | 0.00069467 | 0.0011899  |   0.0 |  0.01
Modify  | 0.96913    | 0.96983    | 0.97035    |   0.0 | 19.60
Other   |            | 0.01082    |            |       |  0.22

Nlocal:    6.125 ave 7 max 6 min
Histogram: 7 0 0 0 0 0 0 0 0 1
Nghost:    590 ave 602 max 576 min
Histogram: 1 0 0 2 1 1 1 0 0 2
Neighs:    769.75 ave 875 max 751 min
Histogram: 7 0 0 0 0 0 0 0 0 1

Total # of neighbors = 6158
Ave neighs/atom = 125.673
Neighbor list builds = 0
Dangerous builds = 0

###
fix 1 all box/relax aniso 0.0
min_style cg
minimize 1.0e-8 1.0e-8 100000 100000
WARNING: Using 'neigh_modify every 1 delay 0 check yes' setting during minimization (../min.cpp:190)
WARNING: Total cutoff < 2*bond cutoff. May need to use an increased neighbor list skin. (../pair_reaxc.cpp:413)
Per MPI rank memory allocation (min/avg/max) = 18.75 | 18.91 | 19.08 Mbytes
Step Temp E_pair E_mol TotEng Press Volume 
    1270            0   -8793.3443            0   -8793.3443    10782.466    1349.8664 
    1563            0   -8794.6093            0   -8794.6093    190.44267     1355.193 
Loop time of 1.18117 on 8 procs for 293 steps with 49 atoms

99.4% CPU use with 8 MPI tasks x no OpenMP threads

Minimization stats:
  Stopping criterion = energy tolerance
  Energy initial, next-to-last, final = 
        -8793.34434075     -8794.60930789     -8794.60931049
  Force two-norm initial, final = 368.508 16.1701
  Force max component initial, final = 220.912 7.98291
  Final line search alpha, max atom move = 3.29407e-05 0.000262962
  Iterations, force evaluations = 293 514

MPI task timing breakdown:
Section |  min time  |  avg time  |  max time  |%varavg| %total
---------------------------------------------------------------
Pair    | 0.99405    | 1.0028     | 1.0117     |   0.6 | 84.90
Neigh   | 0          | 0          | 0          |   0.0 |  0.00
Comm    | 0.008592   | 0.017461   | 0.026174   |   4.7 |  1.48
Output  | 0.00049781 | 0.00061958 | 0.00098106 |   0.0 |  0.05
Modify  | 0.15163    | 0.15166    | 0.1517     |   0.0 | 12.84
Other   |            | 0.00862    |            |       |  0.73

Nlocal:    6.125 ave 7 max 6 min
Histogram: 7 0 0 0 0 0 0 0 0 1
Nghost:    583.625 ave 592 max 574 min
Histogram: 1 1 0 1 0 0 2 1 1 1
Neighs:    775.5 ave 882 max 753 min
Histogram: 6 1 0 0 0 0 0 0 0 1

Total # of neighbors = 6204
Ave neighs/atom = 126.612
Neighbor list builds = 0
Dangerous builds = 0

unfix 1
###
min_style cg
minimize 1.0e-8 1.0e-8 100000 100000
WARNING: Using 'neigh_modify every 1 delay 0 check yes' setting during minimization (../min.cpp:190)
WARNING: Total cutoff < 2*bond cutoff. May need to use an increased neighbor list skin. (../pair_reaxc.cpp:413)
Per MPI rank memory allocation (min/avg/max) = 18.75 | 18.91 | 19.08 Mbytes
Step Temp E_pair E_mol TotEng Press 
    1563            0   -8794.6093            0   -8794.6093    190.44267 
    1598            0   -8794.6893            0   -8794.6893   -206.91261 
Loop time of 0.792412 on 8 procs for 35 steps with 49 atoms

99.4% CPU use with 8 MPI tasks x no OpenMP threads

Minimization stats:
  Stopping criterion = energy tolerance
  Energy initial, next-to-last, final = 
        -8794.60931049     -8794.68918017     -8794.68926353
  Force two-norm initial, final = 13.8525 36.0268
  Force max component initial, final = 4.88437 12.7232
  Final line search alpha, max atom move = 0.000245243 0.00312028
  Iterations, force evaluations = 35 324

MPI task timing breakdown:
Section |  min time  |  avg time  |  max time  |%varavg| %total
---------------------------------------------------------------
Pair    | 0.62582    | 0.63323    | 0.63903    |   0.5 | 79.91
Neigh   | 0          | 0          | 0          |   0.0 |  0.00
Comm    | 0.0056432  | 0.011456   | 0.018922   |   4.0 |  1.45
Output  | 5.88e-05   | 7.4315e-05 | 0.00012322 |   0.0 |  0.01
Modify  | 0.14589    | 0.14596    | 0.14602    |   0.0 | 18.42
Other   |            | 0.001692   |            |       |  0.21

Nlocal:    6.125 ave 7 max 6 min
Histogram: 7 0 0 0 0 0 0 0 0 1
Nghost:    581.625 ave 592 max 572 min
Histogram: 1 1 1 0 0 0 4 0 0 1
Neighs:    771.5 ave 868 max 752 min
Histogram: 6 1 0 0 0 0 0 0 0 1

Total # of neighbors = 6172
Ave neighs/atom = 125.959
Neighbor list builds = 0
Dangerous builds = 0

undump 1
#############
#----------- Thermo ------------
reset_timestep 0
thermo  200

thermo_style    custom step temp etotal ke pe press
velocity all create 300 12345 mom yes rot yes
fix 1 all npt temp 300 300 25.0 iso 0.0 0.0 250.0

variable vpe equal pe
variable vtemp equal temp
variable vstep equal step

fix output all print 2500 "${vstep} ${vtemp} ${vpe}" file temp-tpdh-Pt.dat screen no

dump 1 all custom 2500 thermo-tpdh-Pt.lammpstrj id type x y z

run 1000000
WARNING: Total cutoff < 2*bond cutoff. May need to use an increased neighbor list skin. (../pair_reaxc.cpp:413)
Per MPI rank memory allocation (min/avg/max) = 17.63 | 17.78 | 17.96 Mbytes
Step Temp TotEng KinEng PotEng Press 
       0          300   -8751.7656    42.923665   -8794.6893    1240.9538 
     200    238.95349   -8733.9727    34.189199   -8768.1619   -17395.304 
     400    320.22458    -8707.822    45.817376   -8753.6393    -4016.407 
     600    307.76487    -8706.038    44.034654   -8750.0726   -1076.1667 
     800    317.81518   -8714.0378    45.472641   -8759.5104    21418.341 
    1000    345.53151   -8706.3946    49.438262   -8755.8329    21643.187 
    1200     337.7755   -8701.5862     48.32854   -8749.9147    -12423.21 
    1400    290.77529   -8719.3111    41.603803   -8760.9149    -18562.39 
    1600    287.21971   -8707.5136    41.095075   -8748.6087    -6563.956 
    1800    324.68355   -8704.1351     46.45536   -8750.5905    -19772.48 
    2000    295.90226   -8721.3405    42.337364   -8763.6778    12110.824 
    2200    334.86063   -8706.0519    47.911484   -8753.9634     8226.951 
    2400    337.11824   -8710.9743    48.234501   -8759.2088    19106.449 
    2600    262.73441   -8721.0885    37.591746   -8758.6802   -13506.384 
    2800    310.02443   -8707.0297    44.357949   -8751.3877   -4777.7163 
    3000     299.0051   -8710.1456    42.781315   -8752.9269   -20427.197 
    3200    259.70685   -8728.8211    37.158565   -8765.9797    17510.085 
    3400     280.6441   -8718.1204    40.154243   -8758.2747   -10677.681 
    3600    298.13392   -8713.6085    42.656669   -8756.2652     23055.31 
    3800      269.869   -8715.9135    38.612554   -8754.5261    16469.529 
    4000    287.62803    -8705.827    41.153498   -8746.9805   -24441.112 
    4200    281.85102   -8706.1621    40.326929   -8746.4891   -8660.1675 
    4400    270.41962   -8719.0319    38.691337   -8757.7232    7232.4773 
    4600    365.79861   -8706.2352    52.338056   -8758.5732    10528.064 
    4800    301.85304   -8708.3261    43.188795   -8751.5149   -29734.558 
    5000    300.93025   -8715.7816    43.056764   -8758.8384   -6762.1022 
    5200    299.11685   -8713.6586    42.797305   -8756.4559    12897.498 
    5400    355.00714   -8702.1988    50.794025   -8752.9928   -14213.832 
    5600    304.54954   -8716.7863    43.574608   -8760.3609    27807.321 
    5800    280.45281   -8715.1352    40.126875   -8755.2621    1968.3623 
    6000    334.50065   -8704.5274    47.859979   -8752.3873    9520.8775 
    6200    324.51144   -8704.9344    46.430734   -8751.3652   -1795.6908 
    6400    243.86428   -8715.4037    34.891829   -8750.2955    2074.9613 
    6600    273.99036   -8706.8562    39.202235   -8746.0585    5414.5646 
    6800    258.06574   -8715.4392    36.923758    -8752.363    18433.715 
    7000    288.67264   -8721.2414    41.302958   -8762.5444   -13826.774 
    7200    265.40861   -8708.6879    37.974367   -8746.6623   -34556.651 
    7400    284.22096   -8715.0981    40.666017   -8755.7641   -3445.5625 
    7600    320.98402    -8713.667    45.926034   -8759.5931   -16819.228 
    7800    240.25955   -8722.2952    34.376068   -8756.6713   -23642.123 
    8000    228.58411   -8727.9283    32.705559   -8760.6339    135.58686 
    8200    295.11031    -8709.966    42.224054   -8752.1901     21708.26 
    8400    308.94138   -8704.1816    44.202987   -8748.3846   -12609.714 
    8600    271.05099   -8720.4175    38.781673   -8759.1992   -45095.866 
    8800    323.26377   -8717.0305    46.252219   -8763.2827   -20544.651 
    9000    340.01307   -8708.5552    48.648691   -8757.2039    34820.841 
    9200    401.53417   -8697.1222    57.451061   -8754.5733    24194.036 
    9400    296.30806   -8717.7598    42.395426   -8760.1552    12682.997 
    9600    327.22864   -8710.9418    46.819508   -8757.7613    8747.1007 
    9800    406.77891    -8693.446    58.201472   -8751.6475   -23746.347 
   10000    267.47841   -8712.1575    38.270512    -8750.428   -17884.315 
   10200     260.1018   -8711.0282    37.215075   -8748.2433    1182.7544 
   10400     268.2521   -8713.8484     38.38121   -8752.2296   -32843.507 
   10600    275.73385   -8722.5497    39.451691   -8762.0014    52174.758 
   10800    307.40378   -8705.2077     43.98299   -8749.1907       3443.2 
   11000    266.71786   -8715.4719    38.161694   -8753.6336     12454.64 
   11200    299.05239   -8714.4938    42.788082   -8757.2819    23863.051 
   11400    308.22661   -8712.5556    44.100719   -8756.6563   -4773.0963 
   11600    262.11424   -8716.2418    37.503013   -8753.7448   -3240.4111 
   11800    265.18803   -8728.7229    37.942807   -8766.6657   -9779.2288 
   12000    274.42638   -8712.2172     39.26462   -8751.4818   -11389.401 
   12200    386.49544   -8706.0605    55.299335   -8761.3598   -24160.649 
   12400    296.52963   -8720.0614    42.427129   -8762.4886    22613.981 
   12600    285.10289   -8718.0628    40.792204    -8758.855     22820.35 
   12800    398.60016   -8699.8231    57.031266   -8756.8543    758.59012 
   13000      257.752   -8717.0347    36.878868   -8753.9136   -24804.774 
   13200    330.52722   -8705.9081    47.291465   -8753.1995    6817.8166 
   13400    290.00219   -8700.0113    41.493189   -8741.5045    20987.403 
   13600    241.29898   -8719.2283    34.524788   -8753.7531   -26032.964 
   13800    307.45354   -8708.3866    43.990109   -8752.3767    275.35791 
   14000    296.23081    -8703.101    42.384373   -8745.4853    -30612.81 
   14200    287.46041   -8709.9917    41.129514   -8751.1212   -8723.1063 
   14400    242.10294   -8726.2132    34.639818   -8760.8531   -3608.0521 
   14600    280.44558    -8724.439     40.12584   -8764.5649     6420.029 
   14800    334.10693   -8713.3877    47.803646   -8761.1914   -31515.296 
   15000    298.06877   -8713.8865    42.647346   -8756.5338   -63227.535 
   15200     264.1922   -8719.4087    37.800325   -8757.2091    41463.376 
   15400    332.73455   -8704.4836    47.607287   -8752.0909    18511.213 
   15600    260.74831   -8714.9513    37.307577   -8752.2589    17866.751 
   15800    245.45017   -8717.4325    35.118737   -8752.5512    30201.022 
   16000    317.40561   -8704.0797     45.41404   -8749.4938   -16775.361 
   16200    261.02184   -8715.2511    37.346713   -8752.5979   -47286.157 
   16400    231.87509   -8720.3418    33.176429   -8753.5183     4895.033 
   16600    314.41282   -8707.9403    44.985835   -8752.9261   -10945.257 
   16800    270.74616   -8723.4755    38.738057   -8762.2135    15740.856 
   17000     298.4888    -8720.141    42.707443   -8762.8484   -4600.9016 
   17200     336.7878   -8707.8919    48.187222   -8756.0791    3938.9319 
   17400    316.15782   -8705.4288    45.235508   -8750.6643    21724.159 
   17600    282.84421   -8709.7305    40.469033   -8750.1995   -7477.4778 
   17800    306.40669   -8713.5345    43.840327   -8757.3748   -13718.392 
   18000    372.63211   -8701.7351    53.315786   -8755.0509   -41916.274 
   18200    276.72227   -8719.3045    39.593113   -8758.8976     12789.33 
   18400    314.69795   -8708.2446    45.026631   -8753.2713   -15629.474 
   18600    342.78885   -8698.3318    49.045845   -8747.3776    37020.896 
   18800    280.60984    -8715.832    40.149342   -8755.9813   -36885.044 
   19000    282.84186   -8713.4412    40.468697   -8753.9099   -9394.5881 
   19200    326.52873   -8699.6023    46.719366   -8746.3217    4823.6858 
   19400    274.12287   -8719.6444    39.221195   -8758.8656    15097.586 
   19600    343.34067   -8708.4546    49.124799   -8757.5794    26430.438 
   19800    352.88279   -8696.9443    50.490075   -8747.4344    6161.6575 
   20000    376.66712   -8706.9655    53.893111   -8760.8586   -8028.6272 
   20200    304.66812   -8718.1297    43.591574   -8761.7212     3638.728 
   20400    336.01651   -8707.1367    48.076867   -8755.2135    23090.258 
   20600    293.04309   -8700.2342    41.928277   -8742.1625    30633.977 
   20800    224.11661   -8718.0862    32.066354   -8750.1526   -23363.484 
   21000    332.21075   -8706.6102    47.532343   -8754.1426    33858.454 
   21200    219.79204   -8723.0236    31.447599   -8754.4712    26941.095 
   21400    278.80654   -8718.8009    39.891328   -8758.6922   -37660.403 
   21600    282.26412    -8708.519    40.386034    -8748.905    11487.944 
   21800    362.96966   -8688.3438    51.933294   -8740.2771    16313.999 
   22000    282.55093   -8706.8445    40.427071   -8747.2716   -15200.426 
   22200    272.61122   -8717.0912    39.004908   -8756.0961    -23892.27 
   22400    255.38526    -8721.768    36.540238   -8758.3083    26192.822 
   22600    339.99251   -8703.9862    48.645748    -8752.632      11586.2 
   22800    286.30561   -8716.4609    40.964287   -8757.4252    16430.654 
   23000    298.56464    -8709.319    42.718295   -8752.0373    28850.807 
   23200    315.57958   -8701.1516    45.152774   -8746.3043   -13037.186 
   23400    288.56452   -8719.7124    41.287489   -8760.9998   -5868.1108 
   23600    232.24997   -8714.1015    33.230067   -8747.3316    20054.277 
   23800    298.72745   -8705.9804     42.74159    -8748.722   -13379.445 
   24000    325.26144   -8709.7218    46.538044   -8756.2598    15965.499 
   24200    296.45957   -8725.1855    42.417104   -8767.6026   -2371.7522 
   24400    323.89927   -8712.3073    46.343146   -8758.6504   -7649.1807 
   24600    290.28056   -8715.5515    41.533019   -8757.0845    35709.526 
   24800    307.98135    -8711.204    44.065627   -8755.2696    41200.119 
   25000    320.23706   -8708.7463    45.819161   -8754.5654    43239.978 
   25200    276.47807   -8711.0302    39.558173   -8750.5884   -18927.949 
   25400    331.78016   -8701.7567    47.470734   -8749.2274    48866.663 
   25600    324.56716   -8716.7176    46.438707   -8763.1563    6103.7547 
   25800    301.19619   -8712.4968    43.094815   -8755.5917   -17716.177 
   26000    309.19181    -8694.531    44.238819   -8738.7699   -11839.594 
   26200    289.47159   -8711.9421    41.417271   -8753.3593    26690.154 
   26400    300.48765   -8714.4402    42.993437   -8757.4336   -6037.0109 
   26600    355.28031   -8713.1348     50.83311   -8763.9679   -3145.8358 
   26800    292.68325   -8722.0075    41.876793   -8763.8843   -8197.6105 
   27000    291.24807   -8710.7947    41.671449   -8752.4661   -13947.725 
   27200    342.27253   -8703.7959    48.971971   -8752.7679   -25559.134 
   27400    266.09509     -8714.54    38.072588   -8752.6126    30822.536 
   27600    327.74355   -8705.8025    46.893181   -8752.6956      23165.1 
   27800    432.54958   -8693.8338     61.88871   -8755.7225     9349.026 
   28000    292.62137   -8710.5445    41.867938   -8752.4125    17370.759 
   28200    307.66155    -8717.851     44.01987   -8761.8709   -19157.273 
   28400    358.32643    -8704.096    51.268945   -8755.3649   -663.96405 
   28600    314.34616   -8713.4322    44.976297   -8758.4085   -13029.823 
   28800    302.66013   -8719.8789    43.304273   -8763.1832    10660.434 
   29000    337.07529   -8710.3096    48.228355    -8758.538    1495.6923 
   29200    392.15889   -8689.9037    56.109656   -8746.0134   -6036.3507 
   29400    308.33324   -8708.5817    44.115975   -8752.6977   -8524.5716 
   29600    290.89068   -8711.8574    41.620313   -8753.4778    18352.529 
   29800    361.12767   -8697.2426    51.669744   -8748.9123    5253.6121 
   30000     277.9624   -8713.9336     39.77055   -8753.7042   -18211.961 
   30200    314.94131   -8713.3328    45.061451   -8758.3943   -2214.5451 
   30400    342.40302    -8703.799    48.990642   -8752.7896    7449.6393 
   30600    298.99774   -8707.9572    42.780262   -8750.7375    16177.668 
   30800    312.96784   -8719.3782    44.779089   -8764.1573   -8736.4464 
   31000    382.21229    -8705.544    54.686507   -8760.2305    62324.711 
   31200    332.33624   -8705.3998    47.550297   -8752.9501    23202.591 
   31400    273.88484   -8718.2214    39.187137   -8757.4085   -7229.7444 
   31600    271.60436   -8708.7862    38.860848   -8747.6471    -10280.43 
   31800    362.87548   -8706.9891    51.919817    -8758.909    28470.101 
   32000    265.44446   -8715.2562    37.979497   -8753.2357    873.12428 
   32200    308.60577   -8700.9903    44.154968   -8745.1453   -18498.268 
   32400    318.44408   -8699.5499    45.562624   -8745.1126    9359.0083 
   32600    256.84513   -8715.7681    36.749115   -8752.5172   -5920.7994 
   32800    301.85376   -8718.0366    43.188899   -8761.2255    40394.892 
   33000    298.93223   -8700.6975    42.770889   -8743.4684    25352.509 
   33200    294.36307   -8707.4094    42.117139   -8749.5265   -15160.234 
   33400    334.72962   -8713.6276     47.89274   -8761.5203    21142.961 
   33600    308.27459   -8713.0705    44.107584   -8757.1781    4396.6019 
   33800    287.84175   -8715.5849    41.184076    -8756.769   -11712.283 
   34000    296.71704   -8714.5189    42.453943   -8756.9729   -3190.9931 
   34200      274.627   -8705.4899    39.293325   -8744.7833   -23061.641 
   34400     330.9182   -8702.2331    47.347406   -8749.5805    37732.362 
   34600    286.43143   -8717.7662    40.982289   -8758.7485    -5329.023 
   34800    361.84787   -8707.5016    51.772788   -8759.2744    29294.561 
   35000    220.55704   -8723.9392    31.557055   -8755.4962    10027.178 
   35200    309.54219   -8712.6341     44.28895   -8756.9231     17299.63 
   35400    293.81523   -8705.0002    42.038755    -8747.039    2659.0411 
   35600    300.51684   -8712.4821    42.997613   -8755.4798   -23054.666 
   35800     263.2847   -8714.1067    37.670481   -8751.7772   -21511.564 
   36000    261.69157   -8713.0961    37.442537   -8750.5386    10305.783 
   36200    255.11401   -8725.2705    36.501428   -8761.7719    19022.558 
   36400    257.72801   -8711.2248    36.875435   -8748.1003   -974.12148 
   36600    264.88561   -8708.8853    37.899537   -8746.7848    16398.063 
   36800    296.53609    -8722.935    42.428052   -8765.3631    23477.436 
   37000    328.02853    -8714.387    46.933955    -8761.321   -16692.084 
   37200    323.54652   -8707.8449    46.292674   -8754.1375    48127.367 
   37400    288.15827   -8714.5573    41.229363   -8755.7867    -1944.546 
   37600    402.00629   -8691.6496    57.518611   -8749.1682    9796.4774 
   37800    324.23305   -8705.4788    46.390902   -8751.8697    10219.767 
   38000     242.8618   -8716.7723    34.748395   -8751.5207   -5422.1087 
   38200    300.20651   -8718.4963    42.953212   -8761.4495    12584.492 
   38400    301.41451   -8705.1528    43.126051   -8748.2789    8628.2891 
   38600    306.36463   -8709.2295    43.834308   -8753.0638    4379.2563 
   38800     278.0702   -8719.3407    39.785973   -8759.1267    4765.9996 
   39000    261.47109   -8707.3515    37.410991   -8744.7625   -7811.2818 
   39200    337.46963   -8703.4529    48.284777   -8751.7377   -3998.9172 
   39400    250.00839   -8718.2443    35.770921   -8754.0152   -21094.578 
   39600    345.67418   -8703.6093    49.458676    -8753.068    -32593.24 
   39800    292.38615   -8711.3558    41.834283   -8753.1901   -24838.372 
   40000    286.56326   -8715.3838    41.001151    -8756.385    470.84262 
   40200    313.02674   -8701.1383    44.787516   -8745.9258   -4812.3809 
   40400    273.76733   -8715.9281    39.170324   -8755.0984    6296.1362 
   40600    352.70312   -8712.6987    50.464369    -8763.163   -19004.843 
   40800    333.17493   -8706.4977    47.670296    -8754.168    13798.986 
   41000    292.27767   -8712.8033    41.818762   -8754.6221   -15994.519 
   41200    328.44543   -8707.4523    46.993605   -8754.4459    63573.347 
   41400     343.0088   -8704.6639    49.077315   -8753.7412    23720.242 
   41600    293.35299   -8719.7986    41.972617   -8761.7712   -20692.285 
   41800    331.72869   -8706.6928     47.46337   -8754.1561   -5410.7162 
   42000    323.14945    -8705.468    46.235862   -8751.7039    -3221.102 
   42200    294.61942   -8716.6198    42.153817   -8758.7737    36034.538 
   42400    304.56403   -8709.4468    43.576681   -8753.0235    -40208.83 
   42600     340.2588   -8694.9299    48.683849   -8743.6137    44014.831 
   42800    325.87356   -8710.0342    46.625624   -8756.6598   -24918.829 
   43000    284.63861   -8718.2311    40.725774   -8758.9569    3774.8631 
   43200    241.64515    -8724.616    34.574319   -8759.1903    3488.7627 
   43400    288.60968    -8708.905     41.29395   -8750.1989    6208.8155 
   43600    308.37392   -8714.0754    44.121796   -8758.1971    11777.281 
   43800    291.46582   -8719.0457    41.702604   -8760.7483    29707.842 
   44000     340.0994   -8712.3153    48.661042   -8760.9764    2611.1534 
   44200    358.40451   -8712.3856    51.280117   -8763.6657    7215.7313 
   44400    342.91625   -8701.0524    49.064074   -8750.1165    4276.7646 
   44600      244.431   -8717.8455    34.972915   -8752.8185    -15330.35 
   44800    324.38973    -8707.796     46.41332   -8754.2093   -51597.833 
   45000    234.75941   -8726.3059    33.589113   -8759.8951   -1479.1639 
   45200    314.24998   -8713.8976    44.962536   -8758.8602    15821.038 
   45400    339.69646    -8706.248     48.60339   -8754.8514   -5163.2857 
   45600    288.86064     -8720.44    41.329858   -8761.7699   -1649.7354 
   45800    337.09416   -8717.2669    48.231056    -8765.498   -20088.605 
   46000    308.60224    -8706.814    44.154463   -8750.9685   -7561.7111 
   46200    283.09373   -8712.4819    40.504735   -8752.9867    51517.873 
   46400    255.86398   -8716.1049    36.608732   -8752.7136   -25517.745 
   46600     264.6156   -8727.0435    37.860905   -8764.9044   -18836.868 
   46800    296.97351   -8712.1946    42.490637   -8754.6852    1324.2948 
   47000     288.7027   -8707.7493    41.307259   -8749.0566    2261.8583 
   47200    263.91299   -8719.7525    37.760376   -8757.5129    -3617.315 
   47400    305.12471   -8708.4772    43.656903   -8752.1341    22453.959 
   47600    325.42783   -8703.1593     46.56185   -8749.7211   -5543.1876 
   47800    275.11554   -8719.7271    39.363224   -8759.0903    12597.716 
   48000    263.66079    -8710.927    37.724291   -8748.6513   -8499.6378 
   48200    325.84772   -8694.4715    46.621928   -8741.0934   -5468.9988 
   48400     281.2027   -8716.7818    40.234168   -8757.0159    2465.2294 
   48600    337.72527   -8710.7492    48.321354   -8759.0705   -18636.727 
   48800    335.86705   -8699.4498    48.055483   -8747.5053   -5985.6875 
   49000    303.22631   -8715.1134    43.385282   -8758.4987   -12210.029 
   49200    279.39369   -8720.9788    39.975337   -8760.9542    -11985.55 
   49400    370.44705   -8699.9746     53.00315   -8752.9777    39289.525 
   49600    306.86839   -8715.6986    43.906386    -8759.605    14127.941 
   49800    308.54279   -8720.5961    44.145957   -8764.7421   -24144.692 
   50000    316.41282   -8709.3109    45.271993   -8754.5829   -5773.0291 
   50200    262.30846   -8710.6873    37.530802   -8748.2181    901.92699 
   50400    285.69073   -8721.8902     40.87631   -8762.7665   -6098.8514 
   50600    274.63254   -8725.0245    39.294117   -8764.3186    13811.212 
   50800    320.74483   -8708.2243    45.891811   -8754.1161   -34702.395 
   51000    269.67868    -8718.034    38.585325   -8756.6193    29762.612 
   51200    250.31519   -8720.3174    35.814818   -8756.1322   -29382.075 
   51400    278.18914   -8713.0237    39.802991   -8752.8267   -43052.056 
   51600    378.08159   -8697.7135    54.095491    -8751.809   -9243.3794 
   51800    268.68725   -8717.7964    38.443472   -8756.2399    -613.9702 
   52000    310.75161   -8715.6008    44.461993   -8760.0628    7765.7256 
   52200     329.5178   -8700.9156    47.147038   -8748.0627    13352.963 
   52400    307.10259   -8710.4726    43.939895   -8754.4125    14693.052 
   52600    279.15168   -8721.9072     39.94071   -8761.8479   -30788.267 
   52800    357.52896   -8706.9682    51.154843   -8758.1231    9352.2151 
   53000    299.69235   -8716.4813    42.879647    -8759.361   -12289.519 
   53200    210.65501   -8733.1749    30.140284   -8763.3152    4805.3299 
   53400    316.35214   -8719.5308     45.26331   -8764.7941    -2165.095 
   53600    312.77129   -8705.3434    44.750966   -8750.0944    5393.8339 
   53800    312.21446   -8709.1537    44.671296    -8753.825    2047.5179 
   54000    335.65125    -8715.234    48.024606   -8763.2586   -5384.3679 
   54200    284.07626   -8709.4913    40.645314   -8750.1366    -464.3152 
   54400    348.46227   -8700.0921    49.857592   -8749.9497   -8375.2673 
   54600    321.91781     -8717.63     46.05964   -8763.6896    16033.844 
   54800    347.66746   -8713.6519    49.743872   -8763.3957   -1534.0564 
   55000    362.35961   -8704.2258    51.846008   -8756.0718    17919.556 
   55200    304.17823   -8712.3324    43.521482   -8755.8539   -22988.956 
   55400    245.93838   -8724.0913    35.188588   -8759.2799    23061.754 
   55600    303.88786   -8715.4462    43.479936   -8758.9261    -30209.21 
   55800    320.25961   -8707.4203    45.822387   -8753.2427   -1319.5247 
   56000    301.07279   -8721.2249    43.077158   -8764.3021   -19372.015 
   56200    346.13079   -8714.5527    49.524007   -8764.0767    21645.222 
   56400    315.75008   -8708.7591    45.177168   -8753.9363    26734.045 
   56600    307.73384    -8714.767    44.030215   -8758.7972    31875.769 
   56800     306.5678   -8716.4061    43.863378   -8760.2695    47640.219 
   57000    257.87609   -8718.5638    36.896622   -8755.4604   -41147.724 
   57200     355.6593   -8703.6867    50.887336   -8754.5741    3423.3475 
   57400     284.1708   -8715.4688     40.65884   -8756.1276    32114.871 
   57600    300.43991   -8717.1681    42.986606   -8760.1547    36466.538 
   57800    373.86768   -8706.2303     53.49257   -8759.7229   -3969.5585 
   58000    270.26611   -8712.3674    38.669373   -8751.0368     11685.87 
   58200    278.93601    -8714.211    39.909853   -8754.1209    18261.219 
   58400    291.56106   -8704.4856     41.71623   -8746.2018   -16852.896 
   58600    271.17123   -8718.9457    38.798877   -8757.7446   -30446.435 
   58800    273.19127   -8728.9757    39.087901   -8768.0636   -15766.561 
   59000    291.41551   -8710.8015    41.695406   -8752.4969   -8261.8618 
   59200    321.99378   -8703.8942     46.07051   -8749.9647     2098.451 
   59400    273.91666   -8719.4049     39.19169   -8758.5966    26029.478 
   59600    322.28729   -8712.5433    46.112505   -8758.6558   -13180.871 
   59800    287.13831   -8709.0269    41.083429   -8750.1103   -30589.618 
   60000    300.63655   -8703.9146    43.014742   -8746.9293    77691.352 
   60200      303.791   -8711.8575    43.466077   -8755.3236   -18565.833 
   60400    308.16375   -8708.9596    44.091725   -8753.0514    -12202.66 
   60600    346.27448   -8696.5017    49.544566   -8746.0463    35214.064 
   60800    319.63702   -8712.7252    45.733307   -8758.4585   -15354.305 
   61000     262.9938   -8718.0962    37.628858    -8755.725   -20323.011 
   61200    356.56035   -8707.3001    51.016256   -8758.3164    276.15742 
   61400    299.86144   -8703.0711     42.90384   -8745.9749    31137.699 
   61600    277.78839   -8706.7672    39.745652   -8746.5129    13454.274 
   61800    246.09352   -8717.7265    35.210786   -8752.9373    9385.6375 
   62000    339.88912   -8703.8516    48.630955   -8752.4825     1756.794 
   62200    291.85239   -8706.3012    41.757914   -8748.0592   -49234.739 
   62400    325.44723   -8717.1528    46.564627   -8763.7175    18351.574 
   62600    344.19508   -8702.4913    49.247048   -8751.7383   -35518.639 
   62800    318.53729   -8705.5872    45.575959   -8751.1632    796.71542 
   63000    317.70712   -8709.4783    45.457179   -8754.9355     3112.768 
   63200    249.64438   -8722.8727    35.718839   -8758.5915    24269.175 
   63400    263.01455   -8720.0528    37.631828   -8757.6847   -22302.678 
   63600    257.09746   -8713.1768    36.785217    -8749.962    24275.213 
   63800    283.68701   -8703.8345     40.58962   -8744.4241    5928.8096 
   64000    272.94956   -8714.0554    39.053318   -8753.1087   -32766.077 
   64200    295.02416   -8713.5299    42.211726   -8755.7417    29571.714 
   64400    268.55279   -8709.2585    38.424233   -8747.6828   -2655.5424 
   64600    260.45729   -8723.5215    37.265938   -8760.7874    7749.8083 
   64800    264.20975   -8709.8335    37.802836   -8747.6363   -14084.159 
   65000    292.55118   -8706.3659    41.857895   -8748.2238   -6201.4767 
   65200    316.66167   -8713.8748    45.307598   -8759.1824   -19835.759 
   65400    297.62601    -8716.184    42.583997    -8758.768   -20209.357 
   65600    286.43877   -8699.4343    40.983339   -8740.4177   -26614.214 
   65800    297.31846   -8715.5747    42.539993   -8758.1147    6260.6537 
   66000      302.059   -8717.3939    43.218264   -8760.6122    7797.5989 
   66200    349.29644   -8704.6081    49.976944    -8754.585    3353.6286 
   66400    294.06378   -8710.4986    42.074317   -8752.5729    48.342053 
   66600    297.98821   -8714.1094    42.635821   -8756.7452    33750.332 
   66800    341.53941   -8703.5006    48.867077   -8752.3677   -10175.842 
   67000    341.90038   -8704.9685    48.918724   -8753.8872    -5101.451 
   67200     267.9302   -8719.9337    38.335154   -8758.2689    4741.8585 
   67400    329.14158   -8707.8419     47.09321   -8754.9351   -11820.138 
   67600    330.85583   -8709.8858    47.338482   -8757.2243   -8405.9726 
   67800    328.34349    -8711.873    46.979019    -8758.852    46528.426 
   68000    299.20516   -8710.6866    42.809939   -8753.4965     1213.237 
   68200    371.90062   -8697.0247    53.211125   -8750.2358   -16218.132 
   68400    242.53655   -8715.4667    34.701858   -8750.1685    9480.8887 
   68600    280.85598   -8711.6987     40.18456   -8751.8833    6210.4797 
   68800    269.66669   -8719.3961    38.583608   -8757.9797   -2963.3957 
   69000    317.62702   -8705.0621    45.445718   -8750.5078   -8844.7004 
   69200    286.86199   -8712.9602    41.043893   -8754.0041   -13042.131 
   69400    268.31294   -8725.0453    38.389916   -8763.4352   -5520.8236 
   69600    313.04357   -8711.3086    44.789924   -8756.0985   -16619.524 
   69800    298.99386   -8712.7207    42.779707   -8755.5004   -4522.1892 
   70000     232.6334   -8729.2886    33.284927   -8762.5735    25009.081 
   70200    292.81561   -8718.9065    41.895731   -8760.8022    22801.496 
   70400    285.67541   -8708.6127    40.874118   -8749.4868    1998.8218 
   70600    328.47096   -8707.9909    46.997258   -8754.9882    27307.182 
   70800    283.92607   -8719.7849    40.623825   -8760.4087   -2231.5585 
   71000    328.67425   -8701.8399    47.026344   -8748.8662    23695.715 
   71200    338.56615   -8702.5905    48.441666   -8751.0322   -2953.4193 
   71400    301.61911   -8715.6837    43.155325    -8758.839   -6305.0094 
   71600     304.6982   -8709.8586    43.595878   -8753.4545     19807.14 
   71800    314.79501   -8700.1074    45.040518   -8745.1479   -6900.7027 
   72000    319.43206   -8709.1886    45.703982   -8754.8926    3549.0165 
   72200    270.24352   -8718.4502     38.66614   -8757.1164   -1510.3844 
   72400    418.67051   -8701.0514    59.902909   -8760.9544    9868.3825 
   72600    309.15792   -8693.0202     44.23397   -8737.2542    7221.9361 
   72800    281.71158   -8712.2372    40.306978   -8752.5442   -1625.7681 
   73000    241.04573   -8724.6059    34.488554   -8759.0945   -6005.1876 
   73200    351.93721   -8709.1508    50.354783   -8759.5055    5118.0418 
   73400    307.84037   -8713.1867    44.045456   -8757.2321    78.963076 
   73600    248.39804   -8728.8416    35.540514   -8764.3821   -4554.6076 
   73800    267.91784   -8716.1901    38.333386   -8754.5234   -14382.899 
   74000    350.66404   -8702.6935     50.17262   -8752.8661     3228.715 
   74200    282.21489   -8717.1141    40.378991   -8757.4931    22389.204 
   74400    242.64571   -8714.0889    34.717477   -8748.8064   -4609.9341 
   74600    351.70413   -8692.2016    50.321433   -8742.5231   -16176.631 
   74800    305.97631   -8706.5578    43.778748   -8750.3366    13701.951 
   75000    321.65915   -8718.0835    46.022632   -8764.1061    11448.469 
   75200    320.77882   -8707.8335    45.896675   -8753.7302    37102.683 
   75400    348.89124   -8703.8565    49.918968   -8753.7754   -10025.852 
   75600    300.18391   -8719.0281    42.949978   -8761.9781   -19476.597 
   75800    258.08736   -8715.8681    36.926851    -8752.795     28719.56 
   76000    349.83665   -8700.4834    50.054237   -8750.5377     36698.53 
   76200    322.94045   -8708.2015    46.205959   -8754.4074   -30053.934 
   76400    305.65408   -8716.2373    43.732644     -8759.97    25710.009 
   76600    267.74433   -8725.2798    38.308559   -8763.5883     -28582.1 
   76800    290.56772   -8708.7753    41.574104   -8750.3494   -28951.743 
   77000     349.9072   -8711.3675    50.064331   -8761.4318   -29722.219 
   77200    259.21705   -8725.4624    37.088486   -8762.5509    5980.3827 
   77400    279.88568   -8710.6616    40.045731   -8750.7073   -20909.306 
   77600    312.48736   -8707.3252    44.710342   -8752.0355    1154.5607 
   77800    263.64436   -8717.7298     37.72194   -8755.4517   -18172.786 
   78000    226.95808   -8722.4726    32.472908   -8754.9455    8117.8567 
   78200    290.46486   -8709.8017    41.559388   -8751.3611   -11068.695 
   78400    319.67457   -8714.2066    45.738681   -8759.9453     49979.51 
   78600    220.58811   -8723.0639      31.5615   -8754.6254   -27209.391 
   78800    345.07829   -8703.2316    49.373416    -8752.605   -22462.763 
   79000    279.99229   -8715.0885    40.060984   -8755.1495    36503.335 
   79200    249.51701   -8720.5815    35.700615   -8756.2821    15177.981 
   79400    342.64795   -8707.9577    49.025686   -8756.9834    1782.6514 
   79600    220.27282   -8719.1583    31.516388   -8750.6747   -6848.5249 
   79800    257.12005   -8720.6444    36.788449   -8757.4328    -22957.01 
   80000    265.54393   -8711.7846    37.993729   -8749.7783    1498.0991 
   80200    364.90059   -8705.9821    52.209569   -8758.1917    8648.3732 
   80400    297.61663   -8720.8134    42.582655   -8763.3961    5423.0551 
   80600    367.09322   -8708.7992    52.523287   -8761.3225    42360.874 
   80800    245.45279   -8725.0181    35.119111   -8760.1372   -18502.693 
   81000    309.00038   -8717.1606    44.211429    -8761.372   -11597.892 
   81200    303.74922   -8711.7299    43.460099     -8755.19    14844.421 
   81400    277.55497   -8704.7471    39.712255   -8744.4594    3188.8386 
   81600    350.06482   -8712.0874    50.086884   -8762.1742    16401.424 
   81800    246.61003   -8724.8968    35.284687   -8760.1815    11630.285 
   82000    318.85872   -8705.0861    45.621949   -8750.7081   -7393.1401 
   82200    281.89567    -8713.932    40.333318   -8754.2653    10221.663 
   82400    332.05022    -8718.906    47.509374   -8766.4154    -45771.75 
   82600    357.63174   -8702.5398     51.16955   -8753.7094   -7494.1626 
   82800    275.61461   -8717.4513     39.43463   -8756.8859   -20541.398 
   83000    235.00959   -8719.2939     33.62491   -8752.9188    44653.751 
   83200    317.89351   -8705.6119    45.483848   -8751.0958    25500.182 
   83400    289.09734   -8713.7283    41.363724    -8755.092    22087.608 
   83600    341.87749   -8712.0047    48.915449   -8760.9201    11830.777 
   83800    279.04686   -8715.4826    39.925713   -8755.4083    606.99056 
   84000     341.3475   -8715.2591    48.839619   -8764.0987    32765.442 
   84200    297.03457   -8707.5499    42.499374   -8750.0493    22891.778 
   84400    341.43995   -8701.7818    48.852846   -8750.6347   -10502.973 
   84600    265.40785   -8719.3577    37.974259    -8757.332    6419.1328 
   84800    316.53119    -8710.432    45.288928   -8755.7209   -3168.4314 
   85000    342.43683   -8692.1729     48.99548   -8741.1684   -19711.142 
   85200    303.91461   -8711.6256    43.483762   -8755.1093    24221.969 
   85400    286.47721   -8715.4882    40.988839   -8756.4771    32706.093 
   85600    352.58284   -8700.8564    50.447159   -8751.3036    25242.481 
   85800    263.00003   -8712.3029    37.629751   -8749.9326   -25059.235 
   86000    315.36273   -8719.9569    45.121747   -8765.0786    7532.4265 
   86200    324.14124    -8705.965    46.377767   -8752.3428   -5537.5049 
   86400    275.78942   -8714.7837    39.459641   -8754.2434   -28261.891 
   86600    337.00755    -8712.099    48.218664   -8760.3177    17753.858 
   86800    323.94724   -8702.3453    46.350009   -8748.6954    11004.007 
   87000    295.54433   -8714.2527    42.286152   -8756.5388   -6671.9427 
   87200    326.78217   -8704.5814    46.755628   -8751.3371    28220.951 
   87400    261.91214   -8710.6565    37.474097   -8748.1306     247.5633 
   87600    304.37218   -8717.7367    43.549231   -8761.2859   -39424.413 
   87800    327.96731   -8701.9742    46.925196   -8748.8994   -17256.239 
   88000    261.82643   -8711.3736    37.461834   -8748.8354   -18298.985 
   88200     343.9786   -8716.1905    49.216074   -8765.4066    12704.956 
   88400    313.26895    -8704.137    44.822171   -8748.9592    4683.9789 
   88600    339.16514   -8705.3365     48.52737   -8753.8639    26511.825 
   88800    289.22113   -8714.1908    41.381436   -8755.5723   -9461.4101 
   89000    276.58987   -8709.1697     39.57417   -8748.7438    28092.337 
   89200    370.59592   -8703.4313     53.02445   -8756.4558   -437.89801 
   89400     264.2497   -8718.5766    37.808552   -8756.3852   -36603.268 
   89600      310.365   -8709.4184    44.406678   -8753.8251   -45324.211 
   89800    315.43653   -8698.9934    45.132307   -8744.1257    880.73325 
   90000    298.92324   -8717.0053    42.769604   -8759.7749    27758.574 
   90200    281.56563   -8713.9613    40.286096   -8754.2474   -29166.414 
   90400     356.6909   -8699.0236    51.034935   -8750.0585   -21706.143 
   90600     371.2138   -8691.5451    53.112855    -8744.658   -10625.667 
   90800    328.12976   -8712.6991    46.948439   -8759.6475    25604.117 
   91000    292.02176   -8721.7974    41.782146   -8763.5795   -15438.801 
   91200    345.62113   -8709.8641    49.451085   -8759.3152    958.29831 
   91400    304.57305   -8706.5949    43.577971   -8750.1729   -5548.0127 
   91600    322.74245   -8724.4157    46.177629   -8770.5933    24228.048 
   91800    249.33244   -8726.5042    35.674207   -8762.1784    10324.382 
   92000    334.24743    -8709.133    47.823749   -8756.9567   -5285.6575 
   92200    308.57229   -8708.9595    44.150178   -8753.1097   -20597.032 
   92400    339.94791   -8707.4506    48.639367     -8756.09    5190.8824 
   92600     292.6433   -8717.2017    41.871076   -8759.0728   -41944.426 
   92800     291.2531    -8713.409    41.672168   -8755.0811   -18445.706 
   93000    283.05704   -8709.4247    40.499486   -8749.9242   -14217.855 
   93200    313.44858   -8712.1947    44.847873   -8757.0425   -7943.6467 
   93400    258.10386    -8708.598    36.929212   -8745.5272   -9150.2701 
   93600    301.72419   -8706.5028    43.170359   -8749.6732   -27374.444 
   93800    274.36082   -8718.2166    39.255239   -8757.4718   -14422.314 
   94000    288.58124   -8710.5242    41.289881   -8751.8141   -15315.654 
   94200    316.10994   -8694.0452    45.228658   -8739.2738   -21326.635 
   94400     283.7579    -8714.037    40.599764   -8754.6368   -33333.665 
   94600      265.637   -8714.5457    38.007045   -8752.5528    10651.879 
   94800    349.83794   -8709.1994    50.054422   -8759.2539    4983.1639 
   95000    306.59954   -8706.4209     43.86792   -8750.2888    23605.209 
   95200    256.44516   -8722.3356    36.691886   -8759.0275    20223.278 
   95400     312.1287   -8709.3262    44.659025   -8753.9852    378.15294 
   95600     320.2148   -8711.1756    45.815976   -8756.9915   -28559.211 
   95800    276.16655   -8720.5845    39.513602   -8760.0981   -3743.3361 
   96000    293.38022   -8716.0577    41.976514   -8758.0342   -9743.1233 
   96200    290.84035     -8705.77    41.613113   -8747.3832      14873.3 
   96400    312.77406   -8718.0662    44.751364   -8762.8176    9528.7501 
   96600    267.40869   -8703.1651    38.260537   -8741.4256    -9122.155 
   96800    353.68007   -8708.0297     50.60415   -8758.6338   -26585.011 
   97000    304.22082   -8717.0816    43.527574   -8760.6092   -12151.786 
   97200    369.57115   -8696.4943    52.877827   -8749.3722    42127.177 
   97400    280.08936    -8706.568    40.074873   -8746.6428    2261.3761 
   97600    311.19188   -8717.3734    44.524986   -8761.8983   -19278.322 
   97800    321.77882   -8704.0209    46.039754   -8750.0606   -22071.269 
   98000    252.08161   -8703.9145    36.067555    -8739.982   -14191.594 
   98200    314.11774   -8722.3339    44.943615   -8767.2775   -11791.328 
   98400     297.6639   -8719.8004    42.589418   -8762.3898   -3137.8564 
   98600    314.64608   -8705.6389    45.019209   -8750.6581    4776.4497 
   98800    313.30104   -8709.1023    44.826763   -8753.9291   -10370.294 
   99000    260.66386   -8720.7521    37.295494   -8758.0476    11304.773 
   99200    330.04475   -8705.6611    47.222434   -8752.8836    23832.055 
   99400    344.12158   -8708.8905    49.236531    -8758.127    9846.6428 
   99600    319.06468   -8713.4771    45.651417   -8759.1285   -10993.454 
   99800    364.13431   -8694.0007     52.09993   -8746.1006    2811.1498 
  100000    305.72994   -8701.6787    43.743499   -8745.4222    508.30646 
  100200    281.23954   -8715.2345    40.239438   -8755.4739   -23897.205 
  100400    324.99427   -8712.7954    46.499817   -8759.2952   -26523.871 
  100600    296.29567   -8704.8344    42.393654   -8747.2281   -14871.598 
  100800    308.72115   -8720.0024    44.171478   -8764.1739    40588.158 
  101000     290.8468   -8717.6361    41.614035   -8759.2502   -5612.3806 
  101200     303.1131   -8703.1302    43.369084   -8746.4993   -23042.535 
  101400    264.88462   -8715.7242    37.899395   -8753.6236   -45062.891 
  101600    293.33999   -8714.4349    41.970759   -8756.4057    38133.802 
  101800    323.81515   -8700.1344     46.33111   -8746.4655    25444.387 
  102000    298.29353   -8718.6583    42.679504   -8761.3378     15562.07 
  102200    287.45381   -8716.9704     41.12857    -8758.099    17197.978 
  102400    398.23405   -8697.3622    56.978883   -8754.3411   -23014.323 
  102600    302.24437   -8711.5006    43.244786   -8754.7454   -3781.2392 
  102800    297.23304   -8717.1981    42.527771   -8759.7259   -20573.444 
  103000    214.22117   -8726.5289    30.650526   -8757.1795    20199.073 
  103200    283.45911   -8713.2149    40.557012   -8753.7719   -17263.713 
  103400    317.93284   -8707.6329    45.489476   -8753.1224    38552.754 
  103600    260.91268   -8722.6955    37.331094   -8760.0266    17751.762 
  103800    266.57087   -8711.1876    38.140662   -8749.3283    20476.879 
  104000    279.68321   -8712.2877    40.016761   -8752.3045    7047.7122 
  104200    302.73489   -8714.5917     43.31497   -8757.9067   -4998.8826 
  104400    397.09656   -8699.3562    56.816132   -8756.1723     1502.652 
  104600    274.19244   -8712.4272    39.231148   -8751.6583     6688.591 
  104800    316.65375    -8710.712    45.306464   -8756.0185     40577.58 
  105000    235.01733   -8727.5277    33.626017   -8761.1538    3968.1711 
  105200    311.08104   -8716.6716    44.509128   -8761.1808    26874.606 
  105400    361.15359   -8707.1954    51.673451   -8758.8688    18842.168 
  105600    278.75821    -8717.842    39.884413   -8757.7264    1478.7305 
  105800    283.42733   -8722.1831    40.552466   -8762.7355    9016.7097 
  106000    379.96392    -8707.782    54.364814   -8762.1469   -23345.106 
  106200     289.2483   -8717.6544    41.385324   -8759.0398    -13249.76 
  106400    293.71866   -8715.8282    42.024938   -8757.8531     504.9356 
  106600      248.975   -8705.8228    35.623065   -8741.4459    16223.488 
  106800    290.09677   -8719.2797    41.506722   -8760.7864    16599.086 
  107000    321.69719   -8714.0623    46.028074   -8760.0903   -614.93595 
  107200    406.54178   -8692.2771    58.167544   -8750.4446   -41719.195 
  107400    346.51806   -8707.4148    49.579417   -8756.9943     6938.077 
  107600    297.36633   -8717.1514    42.546842   -8759.6982   -9290.3156 
  107800    263.32549   -8707.4857    37.676317    -8745.162   -6106.8532 
  108000    327.36896   -8703.4432    46.839585   -8750.2828   -33655.887 
  108200    275.23768   -8719.3525      39.3807   -8758.7332    37330.908 
  108400    273.25748   -8711.0507    39.097375    -8750.148    4818.4216 
  108600    331.91621   -8705.3251    47.490201   -8752.8153    13468.692 
  108800    277.08106   -8719.7572    39.644448   -8759.4016   -213.04876 
  109000    315.43792   -8707.2614    45.132506   -8752.3939    4934.0192 
  109200    310.95222   -8705.5379    44.490696   -8750.0286    5617.5004 
  109400     271.8301   -8717.9959    38.893147    -8756.889    6522.6774 
  109600    388.37747   -8701.9824    55.568614    -8757.551    4305.8604 
  109800    326.28525   -8710.7163    46.684529   -8757.4008   -4870.9161 
  110000    252.76128   -8716.0393    36.164801   -8752.2041    32013.299 
  110200    345.76431   -8697.2517    49.471571   -8746.7232    38775.405 
  110400    333.36112   -8706.5242    47.696936   -8754.2211     11105.06 
  110600    324.41672   -8711.2808    46.417182    -8757.698   -15421.467 
  110800    272.28294   -8722.4426    38.957939   -8761.4005    15200.643 
  111000    290.81745   -8718.1096    41.609835   -8759.7194   -16.422287 
  111200    286.80431   -8707.7978     41.03564   -8748.8335    28546.666 
  111400    307.42114   -8714.5415    43.985472    -8758.527   -5257.3155 
  111600    287.15338   -8719.6995    41.085585   -8760.7851    -18302.36 
  111800    268.27382   -8708.9356    38.384319   -8747.3199   -60745.764 
  112000    297.67634   -8710.9407    42.591198   -8753.5319   -12688.265 
  112200    349.71145   -8710.3147    50.036324    -8760.351   -1020.8586 
  112400     325.1941    -8712.829    46.528409   -8759.3574    -1392.708 
  112600    270.94624   -8721.4638    38.766685   -8760.2305   -31061.048 
  112800    332.73505    -8704.413    47.607359   -8752.0204    -4961.117 
  113000    338.94924   -8709.2907    48.496478   -8757.7871    20153.734 
  113200     260.1646   -8715.7752    37.224061   -8752.9992    7016.8517 
  113400    297.94763   -8707.6183    42.630014   -8750.2483   -8248.8958 
  113600    283.91771   -8719.2869    40.622628   -8759.9095    15804.678 
  113800    245.53932   -8718.5924    35.131491   -8753.7239   -19757.704 
  114000    305.72951   -8706.4014    43.743437   -8750.1449    24035.754 
  114200    286.31478   -8718.1686    40.965599   -8759.1342   -26689.733 
  114400    219.83475   -8722.9595    31.453711   -8754.4132   -9266.2453 
  114600    366.45844   -8706.6167    52.432465   -8759.0491   -6032.7107 
  114800    285.70026   -8710.4422    40.877674   -8751.3199   -20314.676 
  115000      284.921   -8722.4488    40.766179    -8763.215   -19218.484 
  115200    263.07633   -8709.5475    37.640668   -8747.1881   -21815.441 
  115400    327.96179   -8710.1552    46.924407   -8757.0796    3766.9109 
  115600    289.93065   -8724.0117    41.482953   -8765.4946    11259.534 
  115800    381.64853   -8702.6569    54.605846   -8757.2628   -18478.338 
  116000    300.84187    -8713.666    43.044118   -8756.7102   -23981.013 
  116200    283.18109   -8713.5231    40.517234   -8754.0403   -21854.956 
  116400    318.53744   -8702.7105    45.575981   -8748.2865   -21074.139 
  116600    244.94975   -8718.4293    35.047136   -8753.4764    27250.315 
  116800    267.40107   -8707.7008    38.259447   -8745.9603    24593.858 
  117000    306.39324   -8700.4544    43.838403   -8744.2928    2124.8045 
  117200    226.40214   -8719.3932    32.393365   -8751.7866    3112.0646 
  117400    325.19388   -8715.2205    46.528377   -8761.7489   -2364.4231 
  117600    303.61021   -8702.7711     43.44021   -8746.2113    10349.506 
  117800     288.4893   -8712.2216    41.276726   -8753.4984   -12002.948 
  118000    274.95219   -8723.0015    39.339853   -8762.3413    18827.431 
  118200    255.67225   -8724.3588    36.581299   -8760.9401   -7813.0414 
  118400     277.5651   -8710.4919    39.713704   -8750.2056   -44794.566 
  118600    308.31251   -8709.3592    44.113009   -8753.4723   -18360.891 
  118800     301.2339   -8723.6404     43.10021   -8766.7406    7747.9214 
  119000    364.11825   -8707.0301    52.097632   -8759.1278    10984.619 
  119200     275.8097   -8711.1343    39.462543   -8750.5968    6573.1017 
  119400    235.34605   -8719.7377     33.67305   -8753.4107    34413.506 
  119600    318.48513   -8704.5228    45.568496   -8750.0913    23196.014 
  119800    308.42787   -8711.2379    44.129515   -8755.3675    6594.5396 
  120000     315.8463   -8716.8702    45.190935   -8762.0611   -2270.2169 
  120200    282.89364   -8713.2436    40.476105   -8753.7197    14770.606 
  120400    332.34198    -8701.007    47.551118   -8748.5581    35603.117 
  120600    348.41824   -8705.0421    49.851292   -8754.8933    24618.111 
  120800    288.03634   -8716.9804    41.211918   -8758.1923    21008.237 
  121000     371.0753   -8706.9325     53.09304   -8760.0255    13911.139 
  121200    383.20937   -8701.2214    54.829169   -8756.0506   -20087.787 
  121400    261.97367   -8713.9457      37.4829   -8751.4286    4594.9665 
  121600    355.67735    -8702.805    50.889918   -8753.6949    26153.038 
  121800    292.47881   -8709.4475    41.847541   -8751.2951    -31444.89 
  122000    278.88981   -8717.5166    39.903242   -8757.4199   -49330.372 
  122200     366.5843   -8703.1556    52.450471   -8755.6061   -9296.4602 
  122400    337.97312   -8708.1832    48.356816     -8756.54    53757.642 
  122600    313.13198   -8714.5819    44.802574   -8759.3845    3372.7171 
  122800    382.86221   -8698.0949    54.779497   -8752.8744   -14642.512 
  123000    298.77902   -8710.5854    42.748968   -8753.3344    727.74587 
  123200    300.13416   -8714.2397     42.94286   -8757.1826   -14213.284 
  123400     361.4524   -8697.4336    51.716205   -8749.1498   -11846.794 
  123600    312.99544   -8709.9972    44.783037   -8754.7803    10142.606 
  123800    285.27756   -8716.4737    40.817195   -8757.2909    8211.9909 
  124000      241.901    -8722.508    34.610924   -8757.1189   -14301.233 
  124200    288.98565   -8705.1866    41.347743   -8746.5343    8864.5963 
  124400    306.83424   -8716.2854    43.901501   -8760.1869    -2913.762 
  124600    266.11115   -8720.2459    38.074886   -8758.3208    8581.5704 
  124800    271.52261   -8711.7276    38.849152   -8750.5768   -7417.1186 
  125000    306.90721   -8703.1999    43.911941   -8747.1118   -8381.4593 
  125200    245.80448   -8721.5781    35.169431   -8756.7476    2299.5201 
  125400    312.46712   -8710.6565    44.707446   -8755.3639    7577.8229 
  125600    268.71695    -8717.304     38.44772   -8755.7517   -49.420741 
  125800    269.32767   -8720.8275    38.535102   -8759.3626   -1448.7046 
  126000    298.61686   -8707.5514    42.725767   -8750.2772   -41948.876 
  126200     294.3173   -8711.4886     42.11059   -8753.5992   -30058.312 
  126400    234.97543   -8728.2386    33.620023   -8761.8586    26834.282 
  126600    304.62055   -8716.7121    43.584768   -8760.2969    15822.817 
  126800    299.57345   -8708.7086    42.862635   -8751.5713    5961.3077 
  127000     314.7762   -8702.2868    45.037827   -8747.3247   -6225.3973 
  127200    232.38765    -8720.912    33.249765   -8754.1618    10879.444 
  127400    303.74164   -8708.4239    43.459014   -8751.8829   -14852.575 
  127600    265.02026   -8708.4311    37.918803     -8746.35    -9580.182 
  127800    241.20328   -8729.6157    34.511095   -8764.1268   -45714.599 
  128000    310.72888   -8714.3496    44.458741   -8758.8083    23968.571 
  128200    295.42864   -8706.5875      42.2696   -8748.8571     7239.377 
  128400    316.35725   -8721.7069    45.264042   -8766.9709    6559.2868 
  128600    280.35696   -8716.3666    40.113161   -8756.4798    -8811.416 
  128800    286.12638    -8706.482    40.938643   -8747.4206    22936.109 
  129000    315.76582   -8715.7642     45.17942   -8760.9436    9242.3158 
  129200    285.69906   -8715.3551    40.877502   -8756.2326    6063.5519 
  129400    335.97514   -8703.6551    48.070947   -8751.7261   -8080.7843 
  129600    278.73945    -8717.596     39.88173   -8757.4777    14445.832 
  129800    291.49102   -8711.5233    41.706209   -8753.2295   -39282.761 
  130000    347.88331    -8701.832    49.774755   -8751.6067    6307.4783 
  130200    298.43261   -8716.2785    42.699404   -8758.9779   -33700.571 
  130400     313.5631   -8708.2908    44.864258    -8753.155    10706.258 
  130600    340.59759    -8688.967    48.732323   -8737.6993    13227.225 
  130800     283.4624   -8711.0187    40.557483   -8751.5761   -20982.146 
  131000    249.02902   -8715.0087    35.630794   -8750.6395   -16909.593 
  131200    370.76956   -8702.2541    53.049294   -8755.3034    7171.1981 
  131400    360.94125   -8701.9502     51.64307   -8753.5933   -14092.313 
  131600    251.72269   -8717.5407    36.016201   -8753.5569    25079.693 
  131800    365.06387   -8705.7227     52.23293   -8757.9556   -8955.4562 
  132000    243.07872   -8718.2488    34.779432   -8753.0283   -7694.1895 
  132200    293.40372   -8719.0703    41.979877   -8761.0502   -12486.118 
  132400     318.6871   -8704.3008    45.597395   -8749.8982   -20614.517 
  132600    310.81087   -8714.8866    44.470472   -8759.3571   -32430.111 
  132800    247.15984   -8726.5644    35.363353   -8761.9278   -17080.259 
  133000    272.93646   -8719.0628    39.051443   -8758.1142    2208.3318 
  133200    323.06069   -8708.5592    46.223162   -8754.7824    13376.665 
  133400    326.65526   -8712.9791    46.737469   -8759.7166    6527.0264 
  133600     253.5173   -8723.4784    36.272973   -8759.7514   -33373.442 
  133800    291.63076   -8707.9984    41.726204   -8749.7246    17397.187 
  134000    287.76225   -8712.2202    41.172701   -8753.3929   -23115.667 
  134200    260.41201   -8726.0426    37.259459   -8763.3021    4707.6578 
  134400    353.46516   -8709.9704      50.5734   -8760.5438    26955.506 
  134600    331.62339   -8710.8988    47.448305   -8758.3471    688.79866 
  134800    274.79856   -8722.2543    39.317871   -8761.5721    -34692.39 
  135000    297.39728    -8713.184    42.551271   -8755.7352    20394.994 
  135200    348.56921   -8711.5105    49.872893   -8761.3834    10600.557 
  135400    288.54626   -8722.4678    41.284877   -8763.7527    3922.7149 
  135600     264.6142   -8721.7714    37.860703   -8759.6321   -13372.681 
  135800    310.06849   -8706.2424    44.364253   -8750.6066    5235.1478 
  136000    324.32328   -8707.5117    46.403812   -8753.9155   -1336.5463 
  136200    278.91534   -8722.2283    39.906895   -8762.1352    -43781.67 
  136400    347.53765   -8706.2787    49.725298    -8756.004    3229.8628 
  136600    299.72718   -8708.1442     42.88463   -8751.0288    3495.7289 
  136800    234.97231   -8726.3379    33.619576   -8759.9575    38481.351 
  137000    258.41981   -8721.1233    36.974418   -8758.0977   -2998.6093 
  137200    316.14734   -8708.8166    45.234008   -8754.0506   -302.47094 
  137400     355.3262   -8703.2548    50.839676   -8754.0945    1578.8773 
  137600    253.80636   -8721.0714    36.314331   -8757.3857   -11970.807 
  137800    331.55177   -8706.3099    47.438057    -8753.748    20397.193 
  138000    301.52113    -8712.608    43.141307   -8755.7493    9743.4485 
  138200    285.09995    -8713.232    40.791782   -8754.0238    35166.665 
  138400    380.95462    -8703.201    54.506562   -8757.7075    -18986.52 
  138600    352.10142   -8704.6641    50.378278   -8755.0424    7856.7826 
  138800    256.27897   -8718.2499    36.668109    -8754.918   -31129.317 
  139000    383.25914   -8703.4457    54.836289    -8758.282    31501.143 
  139200    266.39131   -8706.6886     38.11497   -8744.8035   -44432.118 
  139400    297.07682   -8710.5953    42.505419   -8753.1007   -12124.785 
  139600    264.97921   -8722.5952     37.91293   -8760.5081   -29452.859 
  139800    296.69954   -8708.5525    42.451439   -8751.0039   -41024.426 
  140000     354.0472   -8707.6697    50.656677   -8758.3264    12830.777 
  140200    294.03133   -8722.1441    42.069675   -8764.2138   -25038.089 
  140400    257.81703   -8715.2462    36.888173   -8752.1344    1728.5351 
  140600    307.82792   -8705.8352    44.043675   -8749.8789   -7553.9912 
  140800    272.66812   -8723.1962     39.01305   -8762.2093   -9286.7508 
  141000    306.38414   -8716.2489      43.8371    -8760.086    11282.459 
  141200    265.22094   -8709.7793    37.947516   -8747.7269    20277.945 
  141400    314.54909   -8713.7685    45.005333   -8758.7738    5571.2104 
  141600    243.97018   -8723.2508    34.906981   -8758.1578    -10616.78 
  141800    289.97725   -8709.1144    41.489621    -8750.604    4026.4807 
  142000    330.46016   -8700.8602     47.28187   -8748.1421   -8393.5168 
  142200    314.83396   -8705.3222    45.046091   -8750.3683    8194.0879 
  142400    295.14177   -8714.0982    42.228555   -8756.3267    35546.151 
  142600    266.44147    -8706.565    38.122147   -8744.6871   -29876.415 
  142800    358.52823   -8701.4171    51.297819   -8752.7149   -5940.8687 
  143000    240.47956   -8719.0346    34.407547   -8753.4422    14091.545 
  143200    300.51112    -8708.468    42.996795   -8751.4648     32897.83 
  143400    264.84303   -8711.8214    37.893445   -8749.7148   -4429.2268 
  143600    274.31264   -8719.5118    39.248345   -8758.7602    21383.951 
  143800    320.33097   -8705.5643    45.832597   -8751.3969   -10379.763 
  144000    291.27545   -8719.4033    41.675366   -8761.0787       1334.1 
  144200    308.22734    -8715.283    44.100823   -8759.3839    23956.248 
  144400    306.61035   -8706.7964    43.869466   -8750.6658   -3337.5911 
  144600    320.05102   -8711.1597    45.792542   -8756.9523    -15527.28 
  144800    294.64074   -8710.6816    42.156868   -8752.8385   -33285.555 
  145000    312.61141   -8713.5975     44.72809   -8758.3256    12609.732 
  145200    298.00762   -8711.1498    42.638597   -8753.7884    34499.388 
  145400    297.86494    -8708.051    42.618183   -8750.6691   -18990.987 
  145600    283.40934   -8720.1697    40.549892   -8760.7196    -11161.14 
  145800    282.39607    -8702.804    40.404914   -8743.2089   -17802.353 
  146000    338.40465   -8710.9989     48.41856   -8759.4174   -11158.188 
  146200    232.49653    -8718.149    33.265343   -8751.4143    12450.282 
  146400    300.49823    -8708.446    42.994951    -8751.441    47926.593 
  146600    336.50061   -8707.6281    48.146132   -8755.7742    12722.037 
  146800    282.94783   -8713.6551     40.48386    -8754.139    -35582.79 
  147000    314.71688   -8705.1116     45.02934   -8750.1409    3090.9931 
  147200    269.29676   -8716.2616    38.530679   -8754.7922     38305.33 
  147400    309.12454   -8716.7511    44.229193   -8760.9803    22420.958 
  147600    366.75089   -8703.4534    52.474308   -8755.9277    13838.971 
  147800    320.62661   -8715.9947    45.874898   -8761.8696   -9123.0405 
  148000    284.39119   -8711.8776    40.690373   -8752.5679   -12533.586 
  148200     323.2537   -8703.1475    46.250778   -8749.3983    -3227.716 
  148400    243.26957   -8714.9775    34.806738   -8749.7842   -12705.424 
  148600    330.71715   -8706.4618     47.31864   -8753.7805    1821.2926 
  148800     353.4865   -8704.2886    50.576453   -8754.8651   -15208.765 
  149000    304.67414   -8716.0555    43.592435   -8759.6479    35176.724 
  149200    358.86805   -8704.4332     51.34644   -8755.7797   -12932.246 
  149400    370.33016   -8700.2922    52.986425   -8753.2786    -4473.238 
  149600    276.34728   -8714.0439     39.53946   -8753.5833   -19266.083 
  149800    279.12653    -8720.355    39.937113   -8760.2921   -18432.593 
  150000     260.8743   -8726.4145    37.325604   -8763.7402   -22452.243 
  150200     304.3078   -8709.4789     43.54002   -8753.0189   -31974.647 
  150400    332.61113   -8711.8063    47.589629   -8759.3959   -10357.551 
  150600     286.4177   -8724.6621    40.980324   -8765.6425    1282.0157 
  150800     303.2533   -8705.3304    43.389143   -8748.7196    2905.2552 
  151000    279.20645   -8711.4573    39.948547   -8751.4059    61062.611 
  151200    227.15935   -8723.8963    32.501707   -8756.3981    7306.6097 
  151400    280.32386   -8712.6569    40.108424   -8752.7653    54069.625 
  151600    275.85959   -8706.3849    39.469682   -8745.8546    -2811.497 
  151800    280.29149   -8724.1898    40.103793   -8764.2936   -18979.358 
  152000    304.56218   -8716.4008    43.576416   -8759.9772   -36486.368 
  152200    343.38501   -8710.9402    49.131144   -8760.0713   -2348.0456 
  152400    259.61912   -8716.7815    37.146013   -8753.9275     40632.48 
  152600    239.63785   -8723.3141    34.287116   -8757.6012   -16414.111 
  152800    295.33599   -8706.8942    42.256343   -8749.1506    19349.376 
  153000    306.48078   -8714.0849    43.850928   -8757.9358    25191.197 
  153200     279.1742   -8722.3764    39.943932   -8762.3203    -5969.016 
  153400    333.25545   -8714.8807    47.681817   -8762.5625    1939.5602 
  153600    280.09766   -8705.7744     40.07606   -8745.8505    15261.745 
  153800    393.06117   -8691.0154    56.238754   -8747.2541   -29347.337 
  154000    343.29507   -8715.1109    49.118275   -8764.2292    16663.401 
  154200    266.75132   -8711.0101    38.166481   -8749.1765    -37306.85 
  154400    291.82787   -8710.6164    41.754405   -8752.3708    16168.654 
  154600    278.93408   -8720.8163    39.909577   -8760.7258   -3101.9417 
  154800    398.93713   -8705.4694    57.079479   -8762.5489    2452.7009 
  155000    279.82763    -8714.273    40.037425   -8754.3104    2212.9108 
  155200    275.87188   -8720.9649    39.471441   -8760.4363    11475.659 
  155400    395.12019   -8701.7702    56.533355   -8758.3036    30832.486 
  155600    253.64437   -8715.5293    36.291153   -8751.8204    12526.579 
  155800    340.07942   -8709.3031    48.658183   -8757.9613    23303.186 
  156000    330.81019   -8697.7534    47.331953   -8745.0853    -3747.812 
  156200    309.71016   -8712.2388    44.312984   -8756.5518   -22897.126 
  156400    301.09599    -8719.196    43.080478   -8762.2765    21271.865 
  156600    258.57122   -8711.6561     36.99608   -8748.6522     38641.22 
  156800     287.1036   -8711.7056    41.078462    -8752.784    38961.935 
  157000    264.14272   -8726.7529    37.793246   -8764.5462   -46280.515 
  157200    295.11209   -8715.7852    42.224308   -8758.0095    9396.7692 
  157400    309.60282   -8703.7132    44.297626   -8748.0108   -3729.9081 
  157600    249.20616   -8717.1295    35.656139   -8752.7857    10243.568 
  157800    261.88032   -8718.7916    37.469544   -8756.2611   -11262.345 
  158000    314.15473    -8697.166    44.948908    -8742.115    21184.018 
  158200    333.63041   -8703.9881    47.735467   -8751.7236   -1230.2882 
  158400    241.31234   -8718.7363      34.5267    -8753.263   -18326.584 
  158600    350.39906   -8707.4885    50.134706   -8757.6233   -1983.0662 
  158800    296.01754    -8703.205    42.353858   -8745.5589    28582.125 
  159000    295.83439   -8713.7356    42.327654   -8756.0632   -19348.048 
  159200    267.71158   -8711.5945    38.303874   -8749.8984    25753.112 
  159400    350.64158   -8700.9087    50.169405   -8751.0781    11350.558 
  159600    294.02879   -8703.4107    42.069311     -8745.48   -30987.404 
  159800    269.10921   -8713.5512    38.503846    -8752.055   -15245.887 
  160000    258.49379   -8715.5918    36.985002   -8752.5768   -24002.369 
  160200    368.20637    -8703.502    52.682556   -8756.1846   -15936.937 
  160400    244.38459   -8710.8889    34.966274   -8745.8552   -42449.943 
  160600    298.16254   -8718.5297    42.660762   -8761.1905   -24772.403 
  160800    348.53669   -8701.5659     49.86824   -8751.4342   -16785.304 
  161000      304.038   -8701.6894    43.501417   -8745.1908    32032.929 
  161200    326.71468   -8718.1208    46.745971   -8764.8668    9708.8431 
  161400    356.42816    -8709.966    50.997343   -8760.9633    6551.0094 
  161600    278.81813   -8696.4896    39.892986   -8736.3826   -158.23718 
  161800    297.09671    -8714.348    42.508265   -8756.8563   -11926.581 
  162000    219.35881   -8722.5206    31.385613   -8753.9062    11597.042 
  162200    314.82003   -8704.2462    45.044099   -8749.2903   -10482.219 
  162400    299.50296   -8712.4342    42.852548   -8755.2867   -12459.756 
  162600    267.34217   -8721.9247    38.251019   -8760.1758    43332.995 
  162800     272.0313   -8714.9847    38.921934   -8753.9066    39177.216 
  163000    265.43966   -8704.4203    37.978809   -8742.3991    2494.5655 
  163200    279.24266   -8717.1767    39.953727   -8757.1304   -514.79304 
  163400    329.70455   -8714.7724    47.173759   -8761.9461    -10263.95 
  163600    253.98993   -8704.6481    36.340595   -8740.9886    13760.323 
  163800    305.05983   -8719.3759     43.64762   -8763.0235   -29230.357 
  164000    258.54735   -8719.4303    36.992666   -8756.4229   -19584.175 
  164200    366.62171   -8703.8117    52.455825   -8756.2675    10237.225 
  164400    283.90607     -8717.36    40.620963    -8757.981   -1621.2758 
  164600    291.14959   -8713.2225    41.657358   -8754.8799    194.38705 
  164800    379.15002     -8707.53    54.248361   -8761.7784   -7679.0955 
  165000    345.08134   -8695.0337    49.373852   -8744.4075    -7323.824 
  165200    327.19497   -8713.9065    46.814691   -8760.7212    3694.2122 
  165400    299.64429   -8717.0905     42.87277   -8759.9633     8764.396 
  165600    310.66567   -8696.8503    44.449697      -8741.3    24980.528 
  165800    364.82796   -8708.0913    52.199177   -8760.2905   -29882.212 
  166000    231.28294   -8718.7912    33.091705    -8751.883    3145.9889 
  166200    271.80609   -8705.1971    38.889712   -8744.0868   -1232.4259 
  166400    296.89435   -8713.7796    42.479311   -8756.2589   -22186.057 
  166600    287.59228   -8713.5469    41.148382   -8754.6953   -20409.538 
  166800    311.07094   -8703.7355    44.507683   -8748.2432   -29219.139 
  167000    289.85376   -8721.3686    41.471952   -8762.8406   -9524.9525 
  167200    325.03354   -8713.5093    46.505435   -8760.0148    6019.3658 
  167400    348.43235   -8689.6476    49.853311   -8739.5009    9725.5627 
  167600    275.45994   -8708.2886      39.4125   -8747.7011   -10244.393 
  167800    281.23935   -8714.1881    40.239412   -8754.4275    7722.4008 
  168000    370.69883   -8698.5524    53.039174   -8751.5915   -24935.497 
  168200    363.49508   -8711.8302     52.00847   -8763.8386    14638.695 
  168400     291.2466   -8713.7902    41.671238   -8755.4614    23264.593 
  168600    301.77784   -8705.4698    43.178036   -8748.6479   -16115.173 
  168800    312.06845   -8710.2348    44.650405   -8754.8852   -45123.137 
  169000    255.85044   -8719.7714    36.606795   -8756.3782   -32700.879 
  169200    313.18643   -8705.3147    44.810364   -8750.1251   -10442.394 
  169400    307.08169    -8708.408    43.936905   -8752.3449    15170.011 
  169600    279.30954   -8720.3717    39.963297    -8760.335    -11904.59 
  169800    266.15362   -8725.8116    38.080963   -8763.8925   -8258.2271 
  170000    284.81008   -8708.1874    40.750308   -8748.9377   -7769.1321 
  170200    299.56528   -8706.5785    42.861466     -8749.44    29683.292 
  170400    244.23524   -8723.3047    34.944906   -8758.2496   -24512.215 
  170600    306.40138   -8710.8122    43.839566   -8754.6518   -20595.248 
  170800    272.03186   -8711.3595    38.922015   -8750.2816    17334.528 
  171000    272.81528   -8712.7914    39.034106   -8751.8255   -3765.8871 
  171200    310.16789   -8712.4192    44.378476   -8756.7976    26814.724 
  171400    299.82957   -8712.8793     42.89928   -8755.7786    9459.9895 
  171600    278.04092   -8708.8945    39.781784   -8748.6763    3957.3177 
  171800    297.41767   -8718.4423    42.554187   -8760.9965   -5917.7347 
  172000    306.74069   -8714.6536    43.888116   -8758.5418    9670.3866 
  172200    364.45485    -8696.537    52.145792   -8748.6828   -17569.252 
  172400    287.03791   -8709.2025    41.069063   -8750.2716    13096.517 
  172600    286.15801   -8714.8295    40.943169   -8755.7726    11199.213 
  172800    244.00427   -8725.2612    34.911859   -8760.1731    6437.0407 
  173000    307.87198   -8711.0423     44.04998   -8755.0923   -16811.349 
  173200    305.77369   -8708.4798    43.749758   -8752.2296    -6613.795 
  173400    249.03347   -8728.5141    35.631431   -8764.1455    9961.3651 
  173600    315.26808   -8718.8849    45.108205   -8763.9931   -17440.026 
  173800    366.68442   -8708.4966    52.464797   -8760.9614    -38295.84 
  174000    301.96368   -8719.2383    43.204626   -8762.4429    21229.414 
  174200    284.39426   -8716.9536    40.690813   -8757.6444    38813.337 
  174400    304.14301    -8714.592    43.516442   -8758.1085    -22047.07 
  174600    303.10233   -8709.8618    43.367543   -8753.2293   -5065.0932 
  174800    345.98883   -8702.6108    49.503695   -8752.1145    574.51264 
  175000    286.46401   -8714.7282     40.98695   -8755.7151    11121.226 
  175200    261.00964   -8711.6559    37.344967   -8749.0008    1957.4437 
  175400    295.24403   -8699.6813    42.243185   -8741.9245    -32.50475 
  175600     266.3585   -8718.8824    38.110276   -8756.9926     6417.335 
  175800    319.56748   -8707.9307    45.723357    -8753.654    11288.582 
  176000     325.7144   -8706.4748    46.602852   -8753.0777   -11310.164 
  176200    243.39487   -8721.4369    34.824667   -8756.2616    18331.821 
  176400    328.97241   -8706.1832    47.069004   -8753.2522     21478.31 
  176600    335.23702   -8707.0048    47.965338   -8754.9702    33599.549 
  176800    254.06055   -8714.5801      36.3507   -8750.9308    1416.8802 
  177000    336.48814    -8698.256    48.144347   -8746.4003   -33089.528 
  177200    330.40853   -8706.2176    47.274483   -8753.4921    2880.0873 
  177400    312.53852   -8717.6856    44.717661   -8762.4033   -7723.8339 
  177600    324.90442   -8704.4856    46.486961   -8750.9725     7167.266 
  177800    316.22313   -8707.4501    45.244853   -8752.6949    12392.025 
[...]
  950000    289.72601   -8723.0792    41.453673   -8764.5328    35642.689 
  950200    290.18568   -8718.4631    41.519443   -8759.9825   -31822.678 
  950400    362.77999   -8708.0471    51.906156   -8759.9532   -5021.9886 
  950600    233.61149   -8723.5628    33.424871   -8756.9876   -18524.386 
  950800    278.67699   -8720.6144    39.872792   -8760.4872    9238.2645 
  951000    349.76841   -8706.4894    50.044473   -8756.5339   -2410.7624 
  951200    302.07945   -8714.0502     43.22119   -8757.2714     10301.52 
  951400    322.44108   -8726.4024     46.13451   -8772.5369    11396.222 
  951600    362.59327   -8712.1018     51.87944   -8763.9813   -22222.614 
  951800     297.2294   -8714.6399    42.527251   -8757.1671    4508.8365 
  952000    254.50895   -8725.2216    36.414856   -8761.6365    8973.9708 
  952200    323.12628   -8706.8013    46.232547   -8753.0339    12605.072 
  952400    310.31229   -8719.7453    44.399136   -8764.1444   -37770.733 
  952600    252.86633     -8724.68    36.179832   -8760.8598   -28443.619 
  952800    393.58875   -8704.5552    56.314239   -8760.8694   -22027.035 
  953000    294.77625   -8716.0995    42.176257   -8758.2758   -2435.2828 
  953200    238.10165   -8733.2311    34.067318   -8767.2985    26148.358 
  953400    301.63165    -8722.428    43.157119   -8765.5851    3623.4391 
  953600    299.56282   -8725.7479    42.861114    -8768.609   -7400.3257 
  953800     306.5993   -8718.5953    43.867885   -8762.4632    14340.131 
  954000    322.21214   -8709.3837    46.101754   -8755.4855   -513.87858 
  954200    293.86495   -8714.5535    42.045869   -8756.5994   -23994.379 
  954400    275.97056   -8728.0776    39.485559   -8767.5631     2774.879 
  954600    352.39172   -8712.5447    50.419813   -8762.9645   -8005.5833 
  954800     289.0257   -8721.2703    41.353474   -8762.6237   -5048.5419 
  955000    310.49711   -8718.2138    44.425579   -8762.6394    3816.4153 
  955200    344.91832   -8700.4599    49.350528   -8749.8105    49446.264 
  955400    243.87083   -8717.4867    34.892765   -8752.3795   -18848.829 
  955600     356.1092   -8712.3215    50.951707   -8763.2732   -27496.199 
  955800    240.76304   -8727.0282    34.448106   -8761.4763    23729.365 
  956000    259.36151    -8726.622    37.109155   -8763.7311    15438.763 
  956200    363.68989   -8713.1474    52.036343   -8765.1837   -13270.697 
  956400    254.70477    -8716.104    36.442873   -8752.5469    12764.573 
  956600    354.42903   -8700.9342     50.71131   -8751.6455   -11618.839 
  956800    276.49544   -8716.2326    39.560658   -8755.7933   -4556.9322 
  957000    319.02416   -8722.9864     45.64562    -8768.632   -8702.6241 
  957200    226.49846   -8739.6532    32.407147   -8772.0604    10987.499 
  957400    218.74025   -8729.1706    31.297111   -8760.4677   -36092.774 
  957600    247.43942   -8713.3766    35.403355   -8748.7799    621.07735 
  957800    313.03213   -8709.0998    44.788287   -8753.8881   -30919.822 
  958000    285.84256   -8725.3979    40.898034    -8766.296   -2288.6965 
  958200    325.93049   -8723.6238    46.633771   -8770.2576   -9680.3797 
  958400    282.37116    -8714.801     40.40135   -8755.2023   -20144.691 
  958600    340.35181   -8697.5154    48.697157   -8746.2126   -24210.772 
  958800    291.43822   -8715.0372    41.698654   -8756.7359   -13034.319 
  959000    301.37431   -8709.0079    43.120299   -8752.1282      41437.3 
  959200    324.30206   -8706.4064    46.400776   -8752.8072   -646.90868 
  959400    261.82237   -8723.9601    37.461252   -8761.4214    4665.5204 
  959600    322.20821   -8714.8778     46.10119    -8760.979    2692.2511 
  959800    242.52036   -8725.5623    34.699542   -8760.2618    31151.276 
  960000    327.88531   -8710.8401    46.913464   -8757.7536    21888.677 
  960200    308.96747   -8711.1291     44.20672   -8755.3358    2404.7512 
  960400    285.47931   -8725.3763    40.846061   -8766.2223   -17110.907 
  960600    221.20196    -8735.074     31.64933   -8766.7233   -7842.8319 
  960800    294.79645   -8720.5403    42.179147   -8762.7194    4144.6377 
  961000    291.47903   -8709.6072    41.704494   -8751.3117    13223.929 
  961200    284.68383   -8708.8228    40.732244   -8749.5551   -8693.2428 
  961400    288.31409   -8719.6765    41.251657   -8760.9282   -12350.636 
  961600    387.24491   -8708.3417    55.406569   -8763.7483     1771.438 
  961800    285.43237   -8724.6602    40.839344   -8765.4995   -13198.754 
  962000    338.82002   -8714.4826     48.47799   -8762.9606   -11683.594 
  962200    339.69527   -8696.3604    48.603219   -8744.9636    4017.5569 
  962400    330.66486   -8705.8028    47.311159    -8753.114   -13810.775 
  962600    263.65941   -8718.7275    37.724094   -8756.4516    16958.085 
  962800    286.69587   -8728.9086    41.020124   -8769.9287   -42375.058 
  963000    275.30151   -8711.5084    39.389832   -8750.8983   -5614.2493 
  963200    321.42008   -8715.2964    45.988425   -8761.2848   -5653.7522 
  963400    278.71172   -8721.4439    39.877762   -8761.3217   -46940.994 
  963600    405.20047   -8699.7108    57.975631   -8757.6864    16085.286 
  963800    314.84397   -8710.8341    45.047523   -8755.8816    11689.037 
  964000    294.74995   -8724.4621    42.172494   -8766.6346   -4127.4632 
  964200    310.81553    -8707.755    44.471139   -8752.2262   -16.620926 
  964400    278.83211   -8713.5995    39.894986   -8753.4945    51008.012 
  964600    315.88676   -8716.6485    45.196724   -8761.8452    4273.7883 
  964800    249.67455   -8724.4612    35.723155   -8760.1843    11556.013 
  965000     308.5031   -8712.7738    44.140279   -8756.9141    10032.459 
  965200     269.5442   -8713.5747    38.566082   -8752.1408    12340.705 
  965400    250.53505    -8727.519    35.846276   -8763.3653    56344.842 
  965600    263.89794   -8717.1401    37.758222   -8754.8983    21157.425 
  965800    335.33497   -8712.6747    47.979352    -8760.654   -3971.7863 
  966000    291.72071   -8719.7597    41.739073   -8761.4988   -11716.051 
  966200    342.65657   -8700.4536    49.026919   -8749.4806   -20493.231 
  966400    281.31942   -8714.7737    40.250868   -8755.0246    6344.0883 
  966600     288.6155   -8721.1963    41.294784   -8762.4911    33074.708 
  966800     378.1081   -8702.2918    54.099284   -8756.3911    52874.905 
  967000     330.1607   -8713.9725    47.239025   -8761.2115    -31612.23 
  967200    268.15718   -8722.4622     38.36763   -8760.8298    2430.7669 
  967400    338.56961   -8707.9669    48.442162    -8756.409    9852.8883 
  967600    275.90453   -8717.9634    39.476112   -8757.4395   -8516.0639 
  967800     305.3576   -8716.8365    43.690225   -8760.5267    32783.363 
  968000    353.86305   -8708.8156    50.630329   -8759.4459   -10516.699 
  968200    314.41383   -8714.6551    44.985979   -8759.6411   -2039.1785 
  968400    277.50488   -8718.8227    39.705088   -8758.5278   -2277.3931 
  968600    315.83001   -8701.6511    45.188605   -8746.8397   -23992.915 
  968800    334.18705   -8712.9291    47.815109   -8760.7442   -30955.795 
  969000    328.14789   -8720.0891    46.951033   -8767.0401    1753.7905 
  969200    234.31062    -8733.248    33.524901   -8766.7729    -8812.282 
  969400    287.28752    -8718.867    41.104777   -8759.9718    -13812.31 
  969600    296.89924   -8715.3758    42.480011   -8757.8558     15032.46 
  969800    304.13118   -8720.0406    43.514749   -8763.5554   -21233.589 
  970000    295.93387   -8722.8825    42.341887   -8765.2244    38257.406 
  970200    311.45909   -8711.5555    44.563218   -8756.1187    11327.608 
  970400    301.89565   -8712.1901    43.194892   -8755.3849    20598.875 
  970600    300.83104   -8702.2456    43.042569   -8745.2882    6776.6352 
  970800    276.53535    -8718.824    39.566368   -8758.3903    37148.931 
  971000    340.87004   -8712.7438    48.771305   -8761.5151    6597.0156 
  971200    377.56668    -8699.165    54.021819   -8753.1868   -39715.926 
  971400    317.95978   -8714.9394     45.49333   -8760.4327    8780.7752 
  971600     306.0925   -8723.5129    43.795374   -8767.3083    7132.8813 
  971800    251.08133   -8735.1456    35.924435     -8771.07   -6530.8024 
  972000    309.87681   -8719.8814    44.336828   -8764.2183   -24696.851 
  972200    291.86949   -8716.2209    41.760361   -8757.9813    18989.909 
  972400     279.3238   -8730.4706    39.965338   -8770.4359   -2050.2472 
  972600    320.25512   -8714.8689    45.821744   -8760.6906    -19570.16 
  972800    309.86799   -8713.3074    44.335565   -8757.6429    -28872.34 
  973000    284.92155   -8719.8438    40.766257   -8760.6101   -4034.1815 
  973200    267.42594   -8714.4367    38.263004   -8752.6997   -16480.528 
  973400    328.30478   -8707.9438     46.97348   -8754.9172   -11819.853 
  973600    316.06905   -8720.6402    45.222807   -8765.8631    6664.5767 
  973800    258.33247   -8727.0091    36.961921    -8763.971    8089.3143 
  974000    313.49129   -8715.5709    44.853984   -8760.4249   -11678.694 
  974200    252.79701   -8722.0405    36.169913   -8758.2104    13916.662 
  974400    277.51963    -8720.035    39.707198   -8759.7422    46043.087 
  974600    334.90387   -8705.2491    47.917671   -8753.1668    25763.925 
  974800    308.65228   -8718.9983    44.161624   -8763.1599   -12192.432 
  975000    264.20245   -8715.3896    37.801791   -8753.1914   -10558.429 
  975200    287.37124   -8711.2856    41.116756   -8752.4023   -24316.438 
  975400    296.49497   -8716.7443    42.422169   -8759.1665     -20354.1 
  975600    262.78479   -8723.8112    37.598954   -8761.4102    -5722.571 
  975800    312.36337   -8718.6641    44.692601   -8763.3567    1968.4716 
  976000    271.78404   -8707.1295    38.886557   -8746.0161    20603.879 
  976200    254.17042   -8724.5177     36.36642   -8760.8841   -8165.0455 
  976400    257.70959   -8721.4109    36.872801   -8758.2837   -15349.209 
  976600    304.56562   -8708.3249    43.576908   -8751.9018    1121.5127 
  976800    269.06238    -8719.832    38.497145   -8758.3291    23145.719 
  977000    268.81244   -8718.9502    38.461384   -8757.4116    14636.868 
  977200    393.45181   -8700.5697    56.294645   -8756.8643   -2261.0946 
  977400    311.15287   -8711.0593    44.519405   -8755.5787   -29807.166 
  977600    303.99342   -8715.7803    43.495039   -8759.2753     30100.02 
  977800    288.42422   -8720.5098    41.267414   -8761.7772    11482.279 
  978000    249.16322   -8729.4826    35.649995   -8765.1326     1749.634 
  978200    331.88066   -8713.8146    47.485114   -8761.2997   -4963.7255 
  978400    301.81104   -8717.9694    43.182787   -8761.1522   -6616.3996 
  978600    247.04756    -8735.072    35.347288   -8770.4193    10759.569 
  978800    286.71559   -8728.8344    41.022947   -8769.8573   -22133.224 
  979000    304.24134   -8712.9296    43.530511   -8756.4601   -16321.641 
  979200    338.08677   -8707.1728    48.373078   -8755.5459   -44139.712 
  979400     317.6113    -8722.151     45.44347   -8767.5945   -13251.042 
  979600    268.95725   -8725.0204    38.482103   -8763.5025    5004.6319 
  979800    314.26656    -8714.503    44.964908   -8759.4679   -16195.397 
  980000    277.31565   -8717.3546    39.678013   -8757.0326    17142.259 
  980200    275.85924   -8725.3677    39.469632   -8764.8373     23348.36 
  980400    301.80906   -8711.2535    43.182503    -8754.436   -10866.098 
  980600    312.47272   -8720.1926    44.708248   -8764.9009    -9636.897 
  980800     297.8908   -8720.0503    42.621882   -8762.6722    12574.849 
  981000    276.97743   -8716.1267    39.629621   -8755.7563   -27377.288 
  981200    359.47758   -8702.2788    51.433651   -8753.7124   -40340.769 
  981400    273.35088    -8718.578    39.110738   -8757.6887    16881.379 
  981600     328.0248   -8714.1198    46.933422   -8761.0532    56391.026 
  981800    376.80406   -8700.7148    53.912704   -8754.6275   -19327.436 
  982000    271.95389   -8718.4865    38.910859   -8757.3973   -182.57033 
  982200    296.70781   -8720.3544    42.452622    -8762.807   -2212.7212 
  982400    315.13503   -8704.3806    45.089169   -8749.4697    9859.7186 
  982600    227.37006   -8721.9299    32.531854   -8754.4617   -8663.4756 
  982800    316.11835   -8716.7786     45.22986   -8762.0084    -22452.09 
  983000    307.43517   -8704.2801     43.98748   -8748.2676    14945.132 
  983200    297.37757   -8715.9092    42.548451   -8758.4576   -11682.306 
  983400     329.0491    -8715.354    47.079977    -8762.434   -25126.983 
  983600    332.34483   -8706.6913    47.551527   -8754.2428    2306.9803 
  983800     289.2168   -8716.9981    41.380817    -8758.379    21484.497 
  984000    239.55608    -8724.068    34.275416   -8758.3435   -18734.541 
  984200    353.64818   -8706.1732    50.599586   -8756.7728    -25722.31 
  984400    241.21552   -8711.7514    34.512847   -8746.2643   -3247.1862 
  984600    334.22421   -8703.4816    47.820426    -8751.302   -12152.666 
  984800    304.31276   -8717.1549    43.540729   -8760.6956   -24185.205 
  985000    303.23175   -8720.2113     43.38606   -8763.5973    22445.992 
  985200    315.77804   -8703.1504     45.18117   -8748.3316    49302.347 
  985400     329.2596   -8714.1574    47.110095   -8761.2675     15049.47 
  985600    284.40505   -8719.7588    40.692357   -8760.4511   -6715.8973 
  985800    323.64374     -8707.95    46.306585   -8754.2566    20756.654 
  986000    391.04454   -8707.9801    55.950215   -8763.9303    11689.868 
  986200    256.04984   -8722.4446    36.635325     -8759.08    26511.096 
  986400    322.32519   -8707.1181    46.117927    -8753.236   -25787.258 
  986600    273.12598   -8722.3139     39.07856   -8761.3925   -4133.2292 
  986800    289.08782    -8718.819    41.362362   -8760.1813   -14870.617 
  987000    327.42956   -8709.8047    46.848256   -8756.6529   -10302.746 
  987200    292.76508   -8725.4382      41.8885   -8767.3267   -9087.7796 
  987400    289.12265   -8716.6673    41.367346   -8758.0346   -13713.942 
  987600    270.10078   -8709.5501    38.645718   -8748.1958    13030.522 
  987800    306.34354   -8714.8552    43.831292   -8758.6864   -8892.9735 
  988000      329.853   -8717.3265    47.194998   -8764.5215   -3993.7124 
  988200    320.79789   -8715.4308    45.899404   -8761.3302    13873.691 
  988400    312.14614   -8724.0807    44.661521   -8768.7422    -6542.247 
  988600    296.41432   -8707.5039     42.41063   -8749.9145    9256.5488 
  988800    320.42121   -8713.3084    45.845509   -8759.1539    31909.676 
  989000    250.65739   -8727.1213    35.863779   -8762.9851    26418.093 
  989200     247.1584   -8735.8385    35.363148   -8771.2016   -33431.726 
  989400    317.18429   -8721.2444    45.382373   -8766.6268    9279.7965 
  989600    320.39972    -8711.929    45.842434   -8757.7714    6667.2766 
  989800    263.99793   -8727.2106    37.772529   -8764.9831    628.52873 
  990000    280.47362   -8720.0283    40.129853   -8760.1582    -1947.962 
  990200    315.52824   -8710.6281    45.145427   -8755.7735   -13792.509 
  990400    286.81944   -8723.5956    41.037806   -8764.6334   -20048.428 
  990600    265.38367   -8721.4373      37.9708   -8759.4081    15520.889 
  990800    297.03856   -8714.2231    42.499945    -8756.723    -22635.71 
  991000    242.53621   -8725.0272    34.701809   -8759.7291   -4245.5848 
  991200    306.38421   -8722.0653     43.83711   -8765.9024   -12067.374 
  991400    309.70378   -8707.5896    44.312071   -8751.9017   -8629.3686 
  991600    260.72856   -8718.7101     37.30475   -8756.0148   -7639.4111 
  991800    312.15621   -8716.3196    44.662962   -8760.9826    5779.4494 
  992000    328.50575    -8693.855    47.002236   -8740.8573   -18308.951 
  992200    308.06373     -8711.77    44.077414   -8755.8474   -17297.392 
  992400    282.02335   -8722.2732    40.351585   -8762.6248   -16257.783 
  992600     260.7684    -8719.289    37.310451   -8756.5995     38003.35 
  992800    294.75033   -8708.2688    42.172548   -8750.4413    -30873.68 
  993000    289.58685   -8724.1004    41.433763   -8765.5341      326.172 
  993200    272.91395   -8719.5917    39.048223     -8758.64     8999.143 
  993400    308.21509   -8713.7018     44.09907   -8757.8008   -7846.5604 
  993600    278.65387   -8717.5291    39.869484   -8757.3986   -10250.273 
  993800    253.43903   -8727.9247    36.261773   -8764.1864   -4974.1616 
  994000    306.09346   -8718.1727     43.79551   -8761.9682   -17693.494 
  994200    232.41827   -8712.4397    33.254147   -8745.6939    13214.716 
  994400    331.10661   -8698.2977    47.374364    -8745.672     17797.84 
  994600    328.07957   -8717.0303    46.941258   -8763.9715    6298.5708 
  994800    330.46807   -8713.9699    47.283002   -8761.2529    4949.7878 
  995000    332.25836   -8707.9025    47.539155   -8755.4417   -26734.773 
  995200    312.21868   -8723.9819      44.6719   -8768.6538   -23484.862 
  995400    336.25446   -8711.0015    48.110912   -8759.1124    15622.676 
  995600    279.22003     -8726.51     39.95049   -8766.4605   -17247.812 
  995800    259.51877   -8725.3366    37.131655   -8762.4683    7270.7342 
  996000    310.32946    -8715.187    44.401592   -8759.5886     8316.796 
  996200    338.66805   -8715.3719    48.456246   -8763.8281    18174.984 
  996400    279.83941   -8726.5987     40.03911   -8766.6378   -16983.026 
  996600     285.2272   -8713.7278    40.809989   -8754.5378    31343.401 
  996800    328.10856    -8710.476    46.945406   -8757.4214   -30361.211 
  997000    261.24408   -8716.8976    37.378511   -8754.2761    11666.026 
  997200     264.7865   -8717.4951    37.885356   -8755.3805   -32125.124 
  997400    279.41375   -8712.3929    39.978208   -8752.3711   -29900.082 
  997600    292.38187   -8723.0307    41.833671   -8764.8644    -17765.52 
  997800    243.30092   -8719.9034    34.811224   -8754.7146    13213.452 
  998000    331.51353   -8709.1592    47.432585   -8756.5918    21342.158 
  998200     247.5796   -8722.7984    35.423413   -8758.2219    10251.077 
  998400    298.02635   -8718.7017    42.641277    -8761.343   -6839.3626 
  998600    308.33099   -8716.8654    44.115653    -8760.981    12726.195 
  998800     372.1914    -8704.649    53.252729   -8757.9018   -30545.599 
  999000    260.68622   -8718.4724    37.298694   -8755.7711    17281.783 
  999200     278.4361   -8717.6889    39.838325   -8757.5272    31699.109 
  999400    313.31953   -8717.4388    44.829408   -8762.2682   -7335.9556 
  999600    292.46655   -8711.7278    41.845788   -8753.5736   -26359.922 
  999800     267.1216   -8722.9741     38.21946   -8761.1936    -19357.01 
 1000000    308.77847   -8717.4326    44.179678   -8761.6123   -4035.3207 
Loop time of 2306.4 on 8 procs for 1000000 steps with 49 atoms

Performance: 9.365 ns/day, 2.563 hours/ns, 433.576 timesteps/s
99.4% CPU use with 8 MPI tasks x no OpenMP threads

MPI task timing breakdown:
Section |  min time  |  avg time  |  max time  |%varavg| %total
---------------------------------------------------------------
Pair    | 1951.6     | 1969.3     | 1993.2     |  30.9 | 85.38
Neigh   | 0.69643    | 0.71033    | 0.72558    |   1.0 |  0.03
Comm    | 20.742     | 44.47      | 61.988     | 203.8 |  1.93
Output  | 0.10338    | 0.11581    | 0.20085    |   9.4 |  0.01
Modify  | 289.82     | 290.03     | 290.27     |   0.9 | 12.57
Other   |            | 1.81       |            |       |  0.08

Nlocal:    6.125 ave 7 max 6 min
Histogram: 7 0 0 0 0 0 0 0 0 1
Nghost:    581.25 ave 587 max 570 min
Histogram: 1 0 0 0 2 0 0 2 0 3
Neighs:    786.75 ave 881 max 764 min
Histogram: 4 3 0 0 0 0 0 0 0 1

Total # of neighbors = 6294
Ave neighs/atom = 128.449
Neighbor list builds = 1066
Dangerous builds = 0

unfix 1
unfix output
undump 1

Please see the log.cite file for references relevant to this simulation

Total wall time: 0:38:38
