LAMMPS (3 Mar 2020)
Reading data file ...
  orthogonal box = (0 0 0) to (32.808 17.78 2.473)
  4 by 2 by 1 MPI processor grid
  reading atoms ...
  57 atoms
  read_data CPU = 0.0259656 secs
WARNING: Changed valency_val to valency_boc for X (../reaxc_ffield.cpp:315)
WARNING: Using 'neigh_modify every 1 delay 0 check yes' setting during minimization (../min.cpp:190)
Neighbor list info ...
  update every 1 steps, delay 0 steps, check yes
  max neighbors/atom: 2000, page size: 100000
  master list distance cutoff = 12
  ghost atom cutoff = 12
  binsize = 6, bins = 6 3 1
  2 neighbor lists, perpetual/occasional/extra = 2 0 0
  (1) pair reax/c, perpetual
      attributes: half, newton off, ghost
      pair build: half/bin/newtoff/ghost
      stencil: half/ghost/bin/3d/newtoff
      bin: standard
  (2) fix qeq/reax, perpetual, copy from (1)
      attributes: half, newton off, ghost
      pair build: copy
      stencil: none
      bin: none
Setting up cg style minimization ...
  Unit style    : real
  Current step  : 0
Per MPI rank memory allocation (min/avg/max) = 28.39 | 28.58 | 28.77 Mbytes
Step Temp E_pair E_mol TotEng Press 
       0            0   -10676.783            0   -10676.783    593209.99 
     257            0   -11080.592            0   -11080.592    98095.236 
Loop time of 15.3081 on 8 procs for 257 steps with 57 atoms

99.2% CPU use with 8 MPI tasks x no OpenMP threads

Minimization stats:
  Stopping criterion = energy tolerance
  Energy initial, next-to-last, final = 
        -10676.7832012     -11080.5924062     -11080.5924705
  Force two-norm initial, final = 1037.55 54.5503
  Force max component initial, final = 729.735 29.9703
  Final line search alpha, max atom move = 0.000854309 0.0256039
  Iterations, force evaluations = 257 1618

MPI task timing breakdown:
Section |  min time  |  avg time  |  max time  |%varavg| %total
---------------------------------------------------------------
Pair    | 13.434     | 13.77      | 14.099     |   5.7 | 89.95
Neigh   | 0          | 0          | 0          |   0.0 |  0.00
Comm    | 0.068803   | 0.39769    | 0.73337    |  33.8 |  2.60
Output  | 0.00081534 | 0.0011377  | 0.0020208  |   1.1 |  0.01
Modify  | 1.1199     | 1.1206     | 1.1214     |   0.0 |  7.32
Other   |            | 0.01879    |            |       |  0.12

Nlocal:    7.125 ave 12 max 3 min
Histogram: 2 0 2 0 0 0 2 0 1 1
Nghost:    1117.88 ave 1131 max 1105 min
Histogram: 2 0 2 0 0 0 0 2 0 2
Neighs:    1975.12 ave 3345 max 839 min
Histogram: 2 0 2 0 0 0 2 0 1 1

Total # of neighbors = 15801
Ave neighs/atom = 277.211
Neighbor list builds = 0
Dangerous builds = 0
WARNING: Using 'neigh_modify every 1 delay 0 check yes' setting during minimization (../min.cpp:190)
Setting up cg style minimization ...
  Unit style    : real
  Current step  : 257
Per MPI rank memory allocation (min/avg/max) = 28.39 | 28.58 | 28.77 Mbytes
Step Temp E_pair E_mol TotEng Press 
     257            0   -11080.592            0   -11080.592    98095.238 
     349            0   -11105.516            0   -11105.516    78787.389 
Loop time of 5.02333 on 8 procs for 92 steps with 57 atoms

99.2% CPU use with 8 MPI tasks x no OpenMP threads

Minimization stats:
  Stopping criterion = energy tolerance
  Energy initial, next-to-last, final = 
        -11080.5924702     -11105.5162693     -11105.5163087
  Force two-norm initial, final = 54.5503 107.74
  Force max component initial, final = 29.9702 51.5938
  Final line search alpha, max atom move = 0.000370088 0.0190942
  Iterations, force evaluations = 92 540

MPI task timing breakdown:
Section |  min time  |  avg time  |  max time  |%varavg| %total
---------------------------------------------------------------
Pair    | 4.385      | 4.4992     | 4.6114     |   3.7 | 89.57
Neigh   | 0          | 0          | 0          |   0.0 |  0.00
Comm    | 0.021792   | 0.13391    | 0.248      |  21.2 |  2.67
Output  | 0.0002911  | 0.00036951 | 0.0006408  |   0.0 |  0.01
Modify  | 0.3834     | 0.3836     | 0.38384    |   0.0 |  7.64
Other   |            | 0.006243   |            |       |  0.12

Nlocal:    7.125 ave 13 max 2 min
Histogram: 2 0 0 2 0 2 0 0 0 2
Nghost:    1117.88 ave 1130 max 1106 min
Histogram: 2 0 2 0 0 0 0 2 0 2
Neighs:    1966 ave 3637 max 551 min
Histogram: 2 0 0 2 0 2 0 0 1 1

Total # of neighbors = 15728
Ave neighs/atom = 275.93
Neighbor list builds = 0
Dangerous builds = 0
WARNING: Using 'neigh_modify every 1 delay 0 check yes' setting during minimization (../min.cpp:190)
Setting up cg style minimization ...
  Unit style    : real
  Current step  : 349
WARNING: Energy due to 3 extra global DOFs will be included in minimizer energies
Per MPI rank memory allocation (min/avg/max) = 28.39 | 28.58 | 28.77 Mbytes
Step Temp E_pair E_mol TotEng Press Volume 
     349            0   -11105.516            0   -11105.516    78787.379    1442.5658 
     488            0   -11110.454            0   -11110.454   -1987.1642      1438.84 
Loop time of 1.90141 on 8 procs for 139 steps with 57 atoms

99.1% CPU use with 8 MPI tasks x no OpenMP threads

Minimization stats:
  Stopping criterion = linesearch alpha is zero
  Energy initial, next-to-last, final = 
        -11105.5163108     -11110.4540102     -11110.4540096
  Force two-norm initial, final = 3116.2 92.772
  Force max component initial, final = 2634.05 60.0006
  Final line search alpha, max atom move = 7.94721e-13 4.76837e-11
  Iterations, force evaluations = 139 210

MPI task timing breakdown:
Section |  min time  |  avg time  |  max time  |%varavg| %total
---------------------------------------------------------------
Pair    | 1.7097     | 1.751      | 1.8028     |   2.2 | 92.09
Neigh   | 0          | 0          | 0          |   0.0 |  0.00
Comm    | 0.0045662  | 0.056364   | 0.097587   |  12.5 |  2.96
Output  | 0.00038178 | 0.00048869 | 0.00085473 |   0.0 |  0.03
Modify  | 0.086367   | 0.086396   | 0.086444   |   0.0 |  4.54
Other   |            | 0.007193   |            |       |  0.38

Nlocal:    7.125 ave 14 max 2 min
Histogram: 2 0 1 1 0 2 0 1 0 1
Nghost:    1117.88 ave 1131 max 1106 min
Histogram: 2 0 2 0 0 0 1 1 0 2
Neighs:    1973.38 ave 3940 max 574 min
Histogram: 2 0 1 1 2 0 0 1 0 1

Total # of neighbors = 15787
Ave neighs/atom = 276.965
Neighbor list builds = 0
Dangerous builds = 0
WARNING: Using 'neigh_modify every 1 delay 0 check yes' setting during minimization (../min.cpp:190)
Setting up cg style minimization ...
  Unit style    : real
  Current step  : 488
Per MPI rank memory allocation (min/avg/max) = 28.39 | 28.58 | 28.77 Mbytes
Step Temp E_pair E_mol TotEng Press 
     488            0   -11110.454            0   -11110.454   -1987.1611 
     536            0   -11115.367            0   -11115.367    65988.732 
Loop time of 2.74619 on 8 procs for 48 steps with 57 atoms

99.2% CPU use with 8 MPI tasks x no OpenMP threads

Minimization stats:
  Stopping criterion = energy tolerance
  Energy initial, next-to-last, final = 
        -11110.4540093     -11115.3667655     -11115.3668372
  Force two-norm initial, final = 50.7406 80.6257
  Force max component initial, final = 11.6916 35.7582
  Final line search alpha, max atom move = 2.2673e-05 0.000810746
  Iterations, force evaluations = 48 292

MPI task timing breakdown:
Section |  min time  |  avg time  |  max time  |%varavg| %total
---------------------------------------------------------------
Pair    | 2.3938     | 2.4603     | 2.5264     |   2.5 | 89.59
Neigh   | 0          | 0          | 0          |   0.0 |  0.00
Comm    | 0.0075013  | 0.073567   | 0.13997    |  14.2 |  2.68
Output  | 0.0001463  | 0.00019009 | 0.00033698 |   0.0 |  0.01
Modify  | 0.20868    | 0.2088     | 0.20895    |   0.0 |  7.60
Other   |            | 0.003377   |            |       |  0.12

Nlocal:    7.125 ave 14 max 2 min
Histogram: 2 0 2 0 0 2 0 1 0 1
Nghost:    1123.38 ave 1134 max 1105 min
Histogram: 1 0 1 0 0 1 1 1 2 1
Neighs:    1978 ave 3963 max 575 min
Histogram: 2 0 2 0 1 1 0 1 0 1

Total # of neighbors = 15824
Ave neighs/atom = 277.614
Neighbor list builds = 0
Dangerous builds = 0
WARNING: Using 'neigh_modify every 1 delay 0 check yes' setting during minimization (../min.cpp:190)
Setting up cg style minimization ...
  Unit style    : real
  Current step  : 536
WARNING: Energy due to 3 extra global DOFs will be included in minimizer energies
Per MPI rank memory allocation (min/avg/max) = 28.39 | 28.58 | 28.77 Mbytes
Step Temp E_pair E_mol TotEng Press Volume 
     536            0   -11115.367            0   -11115.367    65988.726      1438.84 
    2172            0   -11129.661            0   -11129.661    515.89461    1463.0653 
Loop time of 23.6948 on 8 procs for 1636 steps with 57 atoms

99.2% CPU use with 8 MPI tasks x no OpenMP threads

Minimization stats:
  Stopping criterion = energy tolerance
  Energy initial, next-to-last, final = 
        -11115.3668386     -11129.6606922     -11129.6607899
  Force two-norm initial, final = 2525.97 21.2676
  Force max component initial, final = 2021.91 14.409
  Final line search alpha, max atom move = 8.41374e-06 0.000121234
  Iterations, force evaluations = 1636 2617

MPI task timing breakdown:
Section |  min time  |  avg time  |  max time  |%varavg| %total
---------------------------------------------------------------
Pair    | 21.262     | 21.863     | 22.44      |   7.6 | 92.27
Neigh   | 0          | 0          | 0          |   0.0 |  0.00
Comm    | 0.072673   | 0.64964    | 1.251      |  44.4 |  2.74
Output  | 0.0045573  | 0.0057535  | 0.0099576  |   2.2 |  0.02
Modify  | 1.0886     | 1.0891     | 1.0897     |   0.0 |  4.60
Other   |            | 0.08716    |            |       |  0.37

Nlocal:    7.125 ave 14 max 2 min
Histogram: 2 1 1 0 0 2 0 1 0 1
Nghost:    1123.38 ave 1134 max 1105 min
Histogram: 1 0 1 0 0 1 1 1 1 2
Neighs:    1982.75 ave 3972 max 579 min
Histogram: 2 1 1 0 0 2 0 1 0 1

Total # of neighbors = 15862
Ave neighs/atom = 278.281
Neighbor list builds = 0
Dangerous builds = 0
WARNING: Using 'neigh_modify every 1 delay 0 check yes' setting during minimization (../min.cpp:190)
Setting up cg style minimization ...
  Unit style    : real
  Current step  : 2172
Per MPI rank memory allocation (min/avg/max) = 28.39 | 28.58 | 28.77 Mbytes
Step Temp E_pair E_mol TotEng Press 
    2172            0   -11129.661            0   -11129.661    515.88923 
    2218            0   -11130.555            0   -11130.555    23726.776 
Loop time of 2.55938 on 8 procs for 46 steps with 57 atoms

99.2% CPU use with 8 MPI tasks x no OpenMP threads

Minimization stats:
  Stopping criterion = energy tolerance
  Energy initial, next-to-last, final = 
        -11129.6607909      -11130.554883     -11130.5549538
  Force two-norm initial, final = 8.5677 18.3061
  Force max component initial, final = 2.6063 6.16371
  Final line search alpha, max atom move = 0.00735548 0.045337
  Iterations, force evaluations = 46 272

MPI task timing breakdown:
Section |  min time  |  avg time  |  max time  |%varavg| %total
---------------------------------------------------------------
Pair    | 2.2293     | 2.2906     | 2.3508     |   2.5 | 89.50
Neigh   | 0          | 0          | 0          |   0.0 |  0.00
Comm    | 0.013947   | 0.073866   | 0.13501    |  14.1 |  2.89
Output  | 0.00013966 | 0.00017818 | 0.00032133 |   0.0 |  0.01
Modify  | 0.19113    | 0.19121    | 0.19133    |   0.0 |  7.47
Other   |            | 0.003531   |            |       |  0.14

Nlocal:    7.125 ave 14 max 1 min
Histogram: 1 1 1 1 0 0 2 1 0 1
Nghost:    1123.38 ave 1135 max 1105 min
Histogram: 1 0 1 0 0 1 1 1 1 2
Neighs:    1946.25 ave 3905 max 285 min
Histogram: 1 1 2 0 0 1 1 1 0 1

Total # of neighbors = 15570
Ave neighs/atom = 273.158
Neighbor list builds = 0
Dangerous builds = 0
Setting up Verlet run ...
  Unit style    : real
  Current step  : 0
  Time step     : 0.25
Per MPI rank memory allocation (min/avg/max) = 27.26 | 27.45 | 27.64 Mbytes
Step Temp TotEng KinEng PotEng Press 
       0          300   -11080.477    50.077609   -11130.555    25291.411 
     200    206.60704   -11060.066    34.487955   -11094.554    9284.9843 
     400    383.33757   -11041.127    63.988763   -11105.115    -17993.61 
     600    240.13076   -11069.911    40.083914   -11109.995    24507.095 
     800    287.36904   -11054.783    47.969181   -11102.752   -29890.274 
    1000    272.42492   -11043.484    45.474629   -11088.958    30406.947 
    1200     363.9927   -11034.686    60.759613   -11095.446   -44439.989 
    1400    318.36507   -11054.159    53.143205   -11107.303   -61099.247 
    1600    267.57031   -11062.704    44.664271   -11107.368   -44713.925 
    1800    244.33281   -11065.543    40.785343   -11106.328    54041.084 
    2000     315.0676   -11043.468    52.592774   -11096.061   -53385.007 
    2200    288.88091   -11058.864     48.22155   -11107.085   -26640.782 
    2400    266.38828   -11063.419     44.46696   -11107.886   -26799.045 
    2600    286.44738    -11045.65    47.815332   -11093.465   -22802.122 
    2800    346.04202   -11039.276    57.763189   -11097.039    52220.805 
    3000    303.06862   -11060.006    50.589839   -11110.596    7526.5973 
    3200    252.87403   -11063.471     42.21109   -11105.682   -36527.129 
    3400    335.53723   -11052.932    56.009674   -11108.942     -49658.3 
    3600    246.72847   -11069.111    41.185239   -11110.296    14555.332 
    3800    389.97384   -11051.889    65.096525   -11116.986    -34321.32 
    4000    284.84149   -11065.403    47.547269    -11112.95   -40898.757 
    4200    371.85935   -11056.289    62.072757   -11118.362    10586.045 
    4400    299.82813   -11045.624    50.048919   -11095.673   -14510.656 
    4600     302.1752    -11067.18    50.440705    -11117.62   -7756.7224 
    4800    310.04454   -11064.827    51.754297   -11116.581   -49054.965 
    5000    339.10078   -11050.545    56.604521   -11107.149   -21308.067 
    5200    293.18281   -11062.563    48.939647   -11111.503   -26071.941 
    5400    263.52518   -11063.989    43.989036   -11107.978   -6793.7539 
    5600    302.63377   -11065.972    50.517251   -11116.489    -18211.22 
    5800     274.8987   -11057.951    45.887565   -11103.838    29308.912 
    6000    334.58249   -11046.695    55.850303   -11102.546   -31402.747 
    6200    301.66772   -11058.257    50.355993   -11108.613    -16371.36 
    6400    277.24421   -11063.153     46.27909   -11109.432   -10508.946 
    6600    284.47062   -11053.868    47.485362   -11101.354    26401.632 
    6800    326.53602   -11044.601    54.507143   -11099.109    14645.542 
    7000    293.35355   -11060.568    48.968149   -11109.536   -30967.522 
    7200    253.48725   -11060.229    42.313452   -11102.542    34.158534 
    7400    336.02019   -11037.408    56.090293   -11093.498    37956.094 
    7600    307.69966   -11051.775    51.362877   -11103.138    16913.797 
    7800    283.91235   -11058.623    47.392171   -11106.015    12532.861 
    8000    315.38615   -11054.458    52.645948   -11107.104   -24231.347 
    8200    253.55807   -11067.665    42.325273    -11109.99   -28697.486 
    8400    303.50716   -11054.122    50.663043   -11104.785    53814.982 
    8600    323.25598   -11054.897    53.959621   -11108.857    29145.189 
    8800    266.39037   -11070.613    44.467309    -11115.08   -24185.588 
    9000    294.70982   -11057.677    49.194544   -11106.872   -3475.0888 
    9200    315.30342   -11057.388    52.632139    -11110.02   -6670.0893 
    9400    294.11361   -11072.915    49.095022    -11122.01    7815.7572 
    9600    295.77259   -11051.542    49.371946   -11100.914      3137.62 
    9800    304.90892   -11064.787    50.897032   -11115.685    12063.819 
   10000     298.8023   -11068.759    49.877682   -11118.637   -3907.7486 
   10200    327.76423    -11054.52    54.712164   -11109.233    53805.124 
   10400    323.06862   -11052.474    53.928347   -11106.403    61551.466 
   10600    293.72277     -11066.3     49.02978    -11115.33    14543.176 
   10800    266.88535   -11066.782    44.549934   -11111.332    -37445.33 
   11000    348.54527   -11053.208    58.181045   -11111.389    5941.2279 
   11200    317.65692   -11062.065    53.024997    -11115.09    2157.0154 
   11400    257.19522   -11071.346    42.932406   -11114.279   -15464.085 
   11600    338.92383   -11053.458    56.574983   -11110.033    45328.731 
   11800    274.15336   -11053.839    45.763149   -11099.602   -16611.828 
   12000    238.48986   -11060.805    39.810007   -11100.615   -35380.466 
   12200    312.93502   -11045.229    52.236792   -11097.466    3304.7947 
   12400     287.6999   -11059.187     48.02441   -11107.212     22863.73 
   12600    299.00561   -11062.557    49.911621   -11112.469    37917.552 
   12800    317.93138   -11048.788    53.070811   -11101.859   -7948.7597 
   13000    357.56886   -11057.042    59.687311    -11116.73    14670.959 
   13200    284.42478   -11066.959    47.477709   -11114.437   -24890.902 
   13400    331.70337   -11049.018    55.369706   -11104.388    29389.228 
   13600    360.38191   -11046.267    60.156881   -11106.424   -10991.164 
   13800    254.14602   -11063.102    42.423416   -11105.525   -29664.296 
   14000    228.92735   -11078.196    38.213781    -11116.41    2507.3329 
   14200    347.26398   -11053.651    57.967166   -11111.619   -51435.192 
   14400    343.50724   -11043.064    57.340071   -11100.404    7048.1999 
   14600    288.48274   -11060.485    48.155086    -11108.64   -9176.6562 
   14800    288.26351   -11062.167    48.118491   -11110.286   -4606.4798 
   15000     292.3052   -11057.848    48.793151   -11106.641    62783.783 
   15200    281.60905   -11048.774    47.007692   -11095.781     41915.85 
   15400    253.30026   -11045.411    42.282238   -11087.693    1856.6277 
   15600    287.26152   -11053.046    47.951233   -11100.997    29501.929 
   15800    228.15838   -11064.284    38.085421    -11102.37   -31536.493 
   16000     305.1453   -11046.015     50.93649   -11096.951    -57811.84 
   16200    309.37075   -11046.446    51.641825   -11098.087   -6364.7381 
   16400    295.53992   -11068.097    49.333108    -11117.43    -1885.127 
   16600    299.07535   -11057.329    49.923261   -11107.253    31382.243 
   16800    348.44414   -11050.305    58.164164   -11108.469    27647.168 
   17000    257.60521   -11069.124    43.000844   -11112.125    11994.149 
   17200    285.90804   -11059.316    47.725304   -11107.041   -26095.662 
   17400    302.53754   -11046.528    50.501189   -11097.029    8878.0394 
   17600    292.65624   -11060.797     48.85175   -11109.649   -6384.1334 
   17800    295.81167   -11058.971    49.378471   -11108.349    59056.291 
   18000    313.32479   -11048.624    52.301854   -11100.925   -32940.183 
   18200    256.26172     -11058.7    42.776581   -11101.476    76002.681 
   18400     228.2611   -11077.079    38.102567   -11115.182   -55767.335 
   18600    244.28791   -11059.872    40.777848   -11100.649    10691.396 
   18800    297.44434   -11050.835    49.651005   -11100.486   -39456.108 
   19000    275.01749    -11062.26    45.907395   -11108.168   -6504.7012 
   19200    322.65215   -11059.719    53.858826   -11113.578   -16849.796 
   19400    325.24224   -11052.471    54.291179   -11106.762      8012.87 
   19600    307.87352    -11054.17    51.391899   -11105.562    63346.571 
   19800    278.48927   -11070.778    46.486922   -11117.265    41042.465 
   20000    345.04394   -11060.666    57.596585   -11118.262   -4298.4322 
   20200    288.77375   -11054.176    48.203664   -11102.379    -12039.78 
   20400    323.25835   -11053.897    53.960017   -11107.857   -44075.377 
   20600    315.69227   -11057.447    52.697047   -11110.144    -6508.647 
   20800    258.32976   -11070.968    43.121789   -11114.089    27583.518 
   21000     281.8469    -11051.57    47.047397   -11098.618   -9702.4573 
   21200    285.57635   -11052.567    47.669935   -11100.237    32996.971 
   21400    275.45206   -11069.282    45.979934   -11115.262    24351.469 
   21600    337.12987   -11062.277    56.275525   -11118.553   -73038.145 
   21800    314.85511    -11047.34    52.557303   -11099.897   -24911.991 
   22000    309.85105   -11023.026    51.721999   -11074.748   -36880.495 
   22200    337.30343   -11047.078    56.304498   -11103.382    1018.1438 
   22400    243.98085   -11064.465    40.726592   -11105.192     30340.26 
   22600    304.63738   -11049.898    50.851705    -11100.75   -11954.768 
   22800    356.49817   -11048.381    59.508587    -11107.89     8664.741 
   23000      279.865   -11061.844    46.716567   -11108.561   -9254.3196 
   23200    264.27688   -11055.043    44.114514   -11099.158    22027.652 
   23400    329.36223   -11044.647     54.97891   -11099.625   -40816.345 
   23600    248.41891   -11066.099    41.467417   -11107.567     14631.34 
   23800    307.86222   -11056.302    51.390013   -11107.692   -55941.637 
   24000     297.2454   -11049.419    49.617797   -11099.037     48310.03 
   24200     251.3952   -11067.589    41.964234   -11109.553   -27781.173 
   24400    332.96531   -11055.605    55.580355   -11111.185   -7581.3323 
   24600     270.5059   -11067.097    45.154295   -11112.252   -40364.884 
   24800    309.45323   -11059.899    51.655592   -11111.554    8802.1739 
   25000    334.50021   -11050.286    55.836569   -11106.122    -60338.73 
   25200    274.53777    -11063.59    45.827316   -11109.418   -20076.216 
   25400    233.82814   -11069.755    39.031848   -11108.787    32196.638 
   25600    301.71813   -11059.158    50.364409   -11109.523    86210.695 
   25800    309.00136   -11055.316    51.580164   -11106.896   -36698.039 
   26000    283.16074   -11060.307    47.266709   -11107.573   -31617.517 
   26200    266.57139   -11067.427    44.497526   -11111.924   -15985.583 
   26400    339.53897   -11049.298    56.677666   -11105.976   -2598.7652 
   26600    321.58477   -11054.442    53.680654   -11108.123    1205.3644 
   26800     263.2912   -11073.097    43.949979   -11117.047    20815.829 
   27000    266.88135   -11065.186    44.549267   -11109.735   -6192.5045 
   27200    344.42215   -11050.901    57.492792   -11108.394   -66764.106 
   27400    250.43613   -11060.656    41.804141    -11102.46   -203.10811 
   27600    251.88359   -11066.933     42.04576   -11108.979    43032.445 
   27800    316.21871   -11049.913    52.784922   -11102.698    342.38681 
   28000    334.90626   -11057.207    55.904349   -11113.111    14495.627 
   28200    312.66307   -11054.003    52.191397   -11106.194    -40746.63 
   28400    337.19661   -11043.204    56.286666   -11099.491    23736.236 
   28600    255.61128   -11058.659    42.668006   -11101.327   -12458.458 
   28800    333.75536       -11050    55.712235   -11105.712   -57405.442 
   29000    324.02926   -11031.554    54.088702   -11085.642   -15020.643 
   29200    316.50649   -11046.047    52.832961    -11098.88   -12307.777 
   29400    249.08327   -11057.911    41.578315    -11099.49    878.39226 
   29600    337.21104   -11044.582    56.289075   -11100.871   -27329.093 
   29800    281.56421   -11057.272    47.000208   -11104.273    54415.665 
   30000    325.75396   -11055.257    54.376598   -11109.633     22024.38 
   30200    280.49269   -11043.968    46.821344   -11090.789    6574.6997 
   30400    309.12532   -11064.484    51.600856   -11116.085    3884.5501 
   30600    314.94409    -11054.68    52.572156   -11107.252    21583.493 
   30800    295.92091   -11051.293    49.396706    -11100.69   -51396.276 
   31000     249.1599   -11066.027    41.591107   -11107.618   -8313.9935 
   31200    277.61948   -11052.669    46.341732   -11099.011    8437.9909 
   31400    278.73081   -11050.572    46.527241   -11097.099    12478.735 
   31600    288.02524   -11050.891    48.078717    -11098.97    6348.0163 
   31800    327.17087   -11049.685    54.613117   -11104.298   -62111.053 
   32000    319.98833   -11054.793    53.414168   -11108.207    -4040.578 
   32200    231.33273   -11065.651    38.615299   -11104.266   -12576.867 
   32400    335.48299   -11044.365     56.00062   -11100.365    19966.503 
   32600     304.1828   -11057.824    50.775824     -11108.6   -14248.895 
   32800    297.68457   -11062.046    49.691104   -11111.737   -44659.736 
   33000    385.97106   -11040.991    64.428359    -11105.42   -39533.589 
   33200    312.18898   -11057.419    52.112259   -11109.531    46792.975 
   33400    250.36296   -11063.593    41.791928   -11105.385    -465.2327 
   33600    302.16449   -11040.533    50.438917   -11090.972     30667.24 
   33800    294.68065   -11053.815    49.189674   -11103.004   -11473.628 
   34000    216.54707   -11064.703    36.147198    -11100.85   -37995.457 
   34200    343.77797   -11047.544    57.385262   -11104.929   -40148.319 
   34400    300.34781   -11054.889    50.135668   -11105.025   -26359.156 
   34600    273.36445   -11064.731     45.63146   -11110.362   -26378.065 
   34800    368.24008   -11048.443     61.46861   -11109.912    94921.892 
   35000    310.96894   -11059.888    51.908603   -11111.797   -22801.987 
   35200    273.97164   -11061.676    45.732815   -11107.409     29026.41 
   35400    370.79881   -11041.829    61.895726   -11103.725   -45719.394 
   35600    323.20013   -11053.737    53.950298   -11107.688   -54035.465 
   35800    291.30851   -11061.576    48.626778   -11110.203    102058.57 
   36000    293.36291   -11060.051    48.969711   -11109.021   -28872.637 
   36200    340.00817   -11049.577    56.755988   -11106.333    76693.402 
   36400    269.72255   -11068.478    45.023534   -11113.502     39204.27 
   36600    306.96349   -11058.755    51.239992   -11109.995   -13023.423 
   36800    315.32548   -11056.275     52.63582   -11108.911   -10289.943 
   37000    314.52482    -11058.78    52.502169   -11111.283    -28455.44 
   37200    291.20115    -11059.57    48.608857   -11108.179    41732.463 
   37400    361.27485   -11045.811    60.305936   -11106.117   -44367.641 
   37600    328.05684   -11050.851    54.761008   -11105.612    44684.331 
   37800    287.76148   -11056.826    48.034689    -11104.86   -22649.494 
   38000    359.38697    -11042.38      59.9908   -11102.371   -52272.121 
   38200    295.82188   -11040.264    49.380174   -11089.644    -67405.75 
   38400    257.36697   -11057.409    42.961074    -11100.37     -12695.5 
   38600    309.29504   -11048.436    51.629187   -11100.065    32675.579 
   38800    359.33331   -11043.564    59.981842   -11103.545   -39240.736 
   39000    305.87057   -11055.097    51.057556   -11106.155    73976.095 
   39200    227.36775   -11059.218    37.953444   -11097.172   -23471.129 
   39400    321.63494    -11048.45    53.689028   -11102.139    22739.839 
   39600    288.13175   -11062.971    48.096497   -11111.068    31386.879 
   39800    290.64804    -11062.83    48.516529   -11111.346    3721.2179 
   40000    306.79227   -11053.266     51.21141   -11104.478    4574.2713 
   40200    225.50623   -11073.275    37.642709   -11110.917    4668.9847 
   40400    291.84099   -11060.865    48.715663   -11109.581   -12983.829 
   40600    351.27354   -11056.154    58.636462    -11114.79   -8693.4432 
   40800    260.00346   -11069.478    43.401172    -11112.88    51487.248 
   41000    337.27644   -11048.636    56.299993   -11104.936    21898.944 
   41200    284.47175   -11064.562    47.485551   -11112.047   -318.70722 
   41400    318.13544   -11051.351    53.104874   -11104.455   -27401.636 
   41600    320.22001    -11043.31    53.452841   -11096.763    -22885.63 
   41800    262.43309   -11063.192    43.806739   -11106.999    13867.938 
   42000    338.65673   -11050.966    56.530398   -11107.497    28724.272 
   42200    340.95939   -11046.087    56.914769   -11103.001    -10420.48 
   42400    253.01586   -11061.313    42.234764   -11103.547    1400.7198 
   42600    303.15861   -11057.409    50.604861   -11108.014    15119.561 
   42800    310.76161   -11054.123    51.873995   -11105.997    19617.576 
   43000    312.64045   -11051.162     52.18762    -11103.35   -23217.987 
   43200    285.75482   -11063.325    47.699727   -11111.024    13914.609 
   43400    319.94381   -11055.635    53.406736   -11109.042   -37092.415 
   43600    350.35727   -11055.947    58.483515    -11114.43    3223.8956 
   43800    294.57553   -11044.366    49.172126   -11093.538    -40426.88 
   44000    346.37933   -11037.694    57.819495   -11095.513    5628.9442 
   44200     302.9733   -11055.296    50.573927    -11105.87   -47519.322 
   44400    322.09995   -11055.178     53.76665   -11108.944    35632.758 
   44600    383.32816   -11037.493    63.987192    -11101.48    4220.1448 
   44800    301.17576   -11055.092    50.273873   -11105.366   -20702.221 
   45000    291.95064   -11054.948    48.733966   -11103.682    15769.348 
   45200    323.94833   -11040.663    54.075193   -11094.738    -28442.12 
   45400    278.60767   -11053.618    46.506687   -11100.125    1764.2065 
   45600    277.88848   -11053.499    46.386635   -11099.886    13140.634 
   45800    317.53086    -11048.71    53.003954   -11101.714   -34702.648 
   46000     245.4137   -11063.393     40.96577   -11104.358    45247.967 
   46200     345.2359   -11049.212    57.628628   -11106.841   -40760.768 
   46400    239.79244   -11065.274     40.02744   -11105.301    51340.441 
   46600    331.79693   -11045.535    55.385323   -11100.921   -35758.267 
   46800    284.91009   -11054.291    47.558721    -11101.85    975.18883 
   47000    301.42445   -11057.846    50.315386   -11108.161    48136.525 
   47200    297.34734   -11042.714    49.634812   -11092.349    23986.229 
   47400    310.82683    -11053.03    51.884881   -11104.915   -44157.513 
   47600    312.90301   -11050.487    52.231449   -11102.718   -7324.4649 
   47800    297.16478   -11056.359    49.604338   -11105.963   -34771.354 
   48000    278.69893   -11063.585    46.521919   -11110.107   -7102.2513 
   48200    278.75708   -11051.768    46.531627     -11098.3    49549.101 
   48400    290.68507   -11055.558    48.522711    -11104.08    -56512.95 
   48600    315.56679    -11043.54    52.676101   -11096.216    24679.987 
   48800     340.1556   -11041.955    56.780597   -11098.736   -10506.587 
   49000    309.92313   -11056.058     51.73403   -11107.792    42145.798 
   49200    342.20926   -11048.897    57.123405    -11106.02   -6618.9361 
   49400    267.80329   -11063.747    44.703161    -11108.45   -15184.039 
   49600    312.47619   -11060.388    52.160201   -11112.548   -17673.616 
   49800    340.11441   -11049.848    56.773721   -11106.621   -52122.984 
   50000    284.13732   -11061.745    47.429725   -11109.175    9201.4728 
   50200    303.14686   -11065.004      50.6029   -11115.607    5775.1215 
   50400    344.79802   -11047.641    57.555534   -11105.197   -6348.2796 
   50600    273.83949   -11060.715    45.710757   -11106.426   -46124.985 
   50800    328.77077   -11041.831    54.880179   -11096.712   -49412.713 
   51000    339.00926   -11051.435    56.589243   -11108.025   -41707.441 
   51200      323.025   -11057.473    53.921065   -11111.394   -33574.211 
   51400    250.35863   -11074.777    41.791205   -11116.568    14145.162 
   51600    335.71888   -11056.706    56.039995   -11112.746    15158.196 
   51800    284.02313   -11057.895    47.410664   -11105.306    39011.948 
   52000    309.55253   -11063.875    51.672168   -11115.547   -21551.947 
   52200    285.04643   -11046.503    47.581479   -11094.084    17341.573 
   52400    305.70033   -11059.052    51.029138   -11110.081    9453.5273 
   52600    299.57823   -11055.717    50.007206   -11105.724    21321.914 
   52800    338.08205   -11046.014    56.434468   -11102.448     41567.46 
   53000    272.03508   -11062.805    45.409555   -11108.215    23402.225 
   53200    298.89217   -11054.794    49.892684   -11104.686   -25101.608 
   53400    297.59068   -11047.671    49.675431   -11097.347    9349.6735 
   53600     327.3973   -11057.486    54.650913   -11112.137    34507.059 
   53800    233.69247   -11076.097      39.0092   -11115.106   -35189.685 
   54000    296.05424   -11059.665    49.418962   -11109.084     12688.74 
   54200    308.56026   -11056.126    51.506533   -11107.632    4086.6198 
   54400    274.68241   -11072.474    45.851462   -11118.326   -21859.992 
   54600    331.47241   -11060.242    55.331153   -11115.573   -16894.708 
   54800    285.25191   -11057.683    47.615779   -11105.299   -34810.974 
   55000    299.23548     -11043.8    49.949991    -11093.75   -19270.443 
   55200    323.00893   -11064.518    53.918383   -11118.437   -35241.559 
   55400     274.9163   -11057.789    45.890504    -11103.68   -11974.705 
   55600    300.07791   -11054.356    50.090614   -11104.447   -65208.013 
   55800    318.31575   -11060.477    53.134972   -11113.612   -50788.028 
   56000    299.84935   -11063.168    50.052462   -11113.221    4148.9888 
   56200    274.64141   -11061.866    45.844617   -11107.711    39726.312 
   56400    303.74921   -11047.695    50.703447   -11098.398    58672.322 
   56600    265.23896   -11066.321    44.275109   -11110.597    5879.7997 
   56800    305.60748   -11058.695    51.013639   -11109.708   -24709.671 
   57000    313.84036   -11054.718    52.387916   -11107.106    25185.854 
   57200    279.48925   -11069.384    46.653845   -11116.038   -7695.5306 
   57400    330.09453   -11057.391    55.101149   -11112.493    795.36147 
   57600    310.89901   -11054.753     51.89693    -11106.65   -47112.465 
   57800    244.77096   -11074.142    40.858482   -11115.001    16251.249 
   58000    268.48673   -11061.452    44.817244   -11106.269   -35477.194 
   58200    275.30727   -11055.752    45.955765   -11101.708    17538.881 
   58400    323.62763   -11039.382     54.02166   -11093.403   -40319.919 
   58600    285.26122   -11049.264    47.617332   -11096.882   -24989.111 
   58800    324.95321   -11058.318    54.242933    -11112.56    5356.3673 
   59000    269.64002    -11060.71    45.009758    -11105.72   -43591.026 
   59200    278.81767   -11050.512    46.541741   -11097.054    32779.712 
   59400    299.31246   -11054.152    49.962842   -11104.114   -41531.629 
   59600    295.82942   -11059.659    49.381433   -11109.041   -43474.266 
   59800    340.71937   -11048.791    56.874704   -11105.666     11249.55 
   60000    296.07496   -11045.896     49.42242   -11095.319    13683.866 
   60200    265.59602   -11055.369    44.334712   -11099.703    9214.2925 
   60400    299.66412    -11052.28    50.021542   -11102.301   -39515.404 
   60600    310.77704   -11039.162    51.876571   -11091.038   -22092.731 
   60800    296.75896   -11057.293    49.536597   -11106.829   -19494.423 
   61000    275.78864   -11058.799    46.036119   -11104.835   -30604.635 
   61200    340.16489   -11037.475    56.782147   -11094.257   -15925.617 
   61400    271.65427   -11053.455    45.345988   -11098.801   -8177.4854 
   61600    348.23268    -11052.04    58.128866   -11110.169    37882.971 
   61800    375.02999   -11039.809    62.602018   -11102.411     41680.56 
   62000    264.80913   -11059.506    44.203359    -11103.71   -49328.849 
   62200    273.62379   -11051.611     45.67475   -11097.285   -48662.452 
   62400     257.0893   -11064.184    42.914725   -11107.099     12668.31 
   62600    296.66998   -11064.096    49.521745   -11113.618   -16290.546 
   62800    323.42923    -11054.13    53.988542   -11108.119   -282.68266 
   63000    290.46295   -11057.155    48.485633   -11105.641    -36053.63 
   63200    282.10704   -11063.916    47.090819   -11111.007     48814.79 
   63400    320.63498   -11046.029    53.522111   -11099.551   -1666.7814 
   63600    299.13697   -11054.512    49.933548   -11104.445    12225.945 
   63800    313.85247   -11056.025    52.389937   -11108.415   -61418.663 
   64000    301.23213   -11056.544    50.283282   -11106.827   -28493.153 
   64200    247.70582   -11070.937    41.348384   -11112.285    -34441.11 
   64400    328.23304   -11054.444    54.790419   -11109.234   -64119.316 
   64600    295.95912   -11057.605    49.403084   -11107.008    76142.012 
   64800    265.19569   -11072.442    44.267887    -11116.71   -3291.1373 
   65000     337.4236   -11048.085    56.324557    -11104.41   -44995.975 
   65200    327.29807   -11057.609     54.63435   -11112.243    15937.108 
   65400    270.10358   -11062.173    45.087138    -11107.26   -17668.764 
   65600    335.73602   -11049.631    56.042857   -11105.674   -20088.695 
   65800    291.12668   -11059.233    48.596427    -11107.83   -517.78088 
   66000    298.46006    -11064.98    49.820553   -11114.801   -49561.368 
   66200    325.93166   -11047.627    54.406261   -11102.033    14305.174 
   66400    328.44783   -11059.639    54.826272   -11114.465     3670.025 
   66600    293.17172   -11062.083    48.937796   -11111.021   -15686.684 
   66800    356.59199   -11049.047    59.524248   -11108.572    70403.113 
   67000    229.33826   -11067.087    38.282372   -11105.369   -65454.515 
   67200    291.09011   -11057.181    48.590322   -11105.771    22190.848 
   67400    355.62041   -11054.077    59.362067   -11113.439   -27317.161 
   67600    263.01648   -11056.367    43.904122   -11100.271   -28356.824 
   67800    305.62621   -11042.571    51.016767   -11093.588   -30864.605 
   68000    226.16826   -11059.429    37.753219   -11097.182   -941.69895 
   68200    287.84114   -11051.196    48.047986   -11099.244   -4426.7852 
   68400    320.45769   -11051.362    53.492516   -11104.855    27732.041 
   68600    302.45906   -11060.203    50.488088   -11110.691   -3162.1449 
   68800    270.76662   -11070.437    45.197815   -11115.635     -19729.4 
   69000    356.63297   -11050.462    59.531088   -11109.993    30472.119 
   69200    267.89858   -11064.238    44.719067   -11108.958   -32999.444 
   69400    328.71572   -11046.608    54.870991   -11101.479   -32318.603 
   69600    279.48122   -11054.066    46.652505   -11100.718    29308.399 
   69800    273.64065   -11060.464    45.677565   -11106.142    203.10258 
   70000    320.23345   -11055.583    53.455084   -11109.038    23974.358 
   70200    338.73277   -11061.159    56.543091   -11117.702    -26589.32 
   70400    257.83708   -11066.772    43.039548   -11109.811   -9796.1528 
   70600    372.09663   -11047.964    62.112365   -11110.076   -26297.816 
   70800    301.26426   -11064.014    50.288646   -11114.302   -47549.552 
   71000    294.02606    -11057.62    49.080407   -11106.701   -51194.527 
   71200    359.51898   -11040.455    60.012836   -11100.468     63828.84 
   71400     289.1889   -11046.467    48.272962    -11094.74      22191.5 
   71600    268.22386   -11058.692    44.773365   -11103.465     13122.34 
   71800    238.89252   -11064.724    39.877221   -11104.601   -38081.629 
   72000     317.0609   -11051.835    52.925506   -11104.761    2469.7248 
   72200    323.61046   -11051.401    54.018793    -11105.42    17562.121 
   72400    242.93586   -11068.065    40.552156   -11108.617    27745.841 
   72600    269.14512   -11055.534    44.927147   -11100.461    6979.8218 
   72800     264.2668   -11051.541    44.112831   -11095.653   -3267.7285 
   73000    250.35662   -11059.054     41.79087   -11100.845    48327.224 
   73200    251.15198   -11067.265    41.923635   -11109.188   -11535.108 
   73400     294.9213   -11053.032    49.229845   -11102.261   -2506.4173 
   73600    366.24334    -11047.12    61.135303   -11108.255    95812.003 
   73800    263.89026   -11066.078    44.049977   -11110.128    10816.072 
   74000    355.15132    -11053.99    59.283763   -11113.274   -29593.304 
   74200     300.9061   -11052.066     50.22886   -11102.295   -33502.919 
   74400    288.97752   -11049.998    48.237677   -11098.236    16382.413 
   74600    328.47224   -11056.175    54.830348   -11111.005    37107.468 
   74800    296.98413   -11068.176    49.574184    -11117.75    27734.234 
   75000     326.7323   -11047.855    54.539909   -11102.395    -13520.47 
   75200    326.77706    -11050.71     54.54738   -11105.257    43433.474 
   75400    296.09631   -11067.579    49.425984   -11117.005   -14768.341 
   75600     247.1685   -11060.091    41.258692    -11101.35    44780.561 
   75800    333.01368   -11047.741     55.58843   -11103.329   -38120.117 
   76000    283.03693   -11052.218    47.246042   -11099.464    -18933.39 
   76200    253.56052   -11050.177    42.325682   -11092.503    41429.502 
   76400    297.47905   -11039.027    49.656799   -11088.684   -51011.109 
   76600    281.55237   -11059.382    46.998232    -11106.38   -10770.596 
   76800    304.51448   -11055.891    50.831189   -11106.722    28168.574 
   77000    300.57261   -11039.024    50.173192   -11089.197   -9531.7512 
   77200    287.65797    -11054.84    48.017411   -11102.857    25770.957 
   77400    271.18275   -11055.931    45.267279   -11101.198   -32819.909 
   77600    226.54325    -11059.54    37.815813   -11097.356    13411.527 
   77800    253.55075   -11063.165    42.324051   -11105.489   -15880.112 
   78000    317.57772   -11046.317    53.011776   -11099.329    20881.414 
   78200    301.61264   -11057.986      50.3468   -11108.333    42829.016 
   78400    310.71664   -11060.238    51.866488   -11112.105    41343.404 
   78600    318.87941   -11057.927    53.229062   -11111.156   -2664.8955 
   78800    293.72752   -11067.507    49.030574   -11116.537    -24892.73 
   79000    353.82328   -11055.252    59.062079   -11114.314   -12259.488 
   79200    316.00066   -11055.822    52.748525    -11108.57    3899.5556 
   79400    248.38835   -11070.472    41.462316   -11111.934    13132.844 
   79600     324.8099   -11056.876     54.21901   -11111.095    16142.665 
   79800    324.13769   -11055.587    54.106802   -11109.693    7059.3816 
   80000    298.00689   -11069.102    49.744908   -11118.847   -19115.701 
   80200    283.05763   -11056.931    47.249497    -11104.18   -8305.5963 
   80400    257.40404   -11060.159    42.967262   -11103.126   -22804.712 
   80600    288.40115   -11066.502    48.141466   -11114.643    79384.957 
   80800    289.48291   -11059.659    48.322039   -11107.981   -21201.964 
   81000    298.32355   -11048.998    49.797767   -11098.796    17846.818 
   81200    231.29183   -11066.649    38.608472   -11105.258     31525.77 
   81400    334.77984   -11054.335    55.883246   -11110.219   -28283.018 
   81600     279.6727   -11061.471    46.684468   -11108.156   -13680.619 
   81800    299.83492   -11058.675    50.050052   -11108.725    19857.204 
   82000    272.49487   -11061.316    45.486305   -11106.802   -35897.316 
   82200    313.26321   -11047.798    52.291575    -11100.09   -5860.9608 
   82400     301.8773   -11049.464    50.390978   -11099.855   -25973.174 
   82600    252.75802    -11060.32    42.191724   -11102.512   -46007.112 
   82800    322.37506    -11041.19    53.812574   -11095.002    13835.472 
   83000    364.81568   -11045.697    60.896989   -11106.594   -25346.926 
   83200    313.05802   -11056.081    52.257323   -11108.338   -4996.2852 
   83400    300.45412   -11054.749    50.153413   -11104.903   -26610.128 
   83600    348.34313   -11052.964    58.147303   -11111.111    -24481.31 
   83800    284.56592   -11063.736    47.501269   -11111.237    25096.627 
   84000    338.29461    -11044.92     56.46995    -11101.39   -19878.795 
   84200    327.24173   -11059.337    54.624944   -11113.962    -53723.69 
   84400    301.61205   -11062.329    50.346701   -11112.676   -1433.8637 
   84600    317.06385   -11047.947    52.925999   -11100.873   -49949.756 
   84800    306.11626   -11055.806    51.098567   -11106.905    35391.778 
   85000    271.81323   -11060.907    45.372522    -11106.28    64506.733 
   85200     284.6576   -11050.029    47.516573   -11097.546   -47031.676 
   85400    280.74925   -11056.151     46.86417   -11103.015    11912.833 
   85600    296.50639   -11045.992    49.494437   -11095.487   -29764.981 
   85800    351.43968   -11050.162    58.664196   -11108.827   -18892.009 
   86000    292.61898   -11061.205     48.84553    -11110.05    5246.0284 
   86200    257.12395   -11061.608    42.920509   -11104.528   -21292.363 
   86400    361.81699   -11047.856    60.396432   -11108.253    23872.848 
   86600    287.63716    -11068.21    48.013937   -11116.224      38933.2 
   86800     347.6939   -11055.331     58.03893    -11113.37    22061.576 
   87000    327.12869   -11050.245    54.606075   -11104.852   -27218.936 
   87200    300.93336   -11053.664     50.23341   -11103.897   -41166.549 
   87400    294.32273   -11057.268    49.129928   -11106.398   -17096.715 
   87600    292.81435   -11058.426    48.878141   -11107.304    25185.198 
   87800    385.86833   -11041.133    64.411211   -11105.544     38144.23 
   88000    305.79669   -11060.033    51.045224   -11111.078    11577.872 
   88200    296.59452   -11056.445    49.509148   -11105.954    62959.896 
   88400    308.24123    -11037.71    51.453279   -11089.163    39287.339 
   88600    276.23055   -11058.302    46.109885   -11104.412   -26517.931 
   88800    269.57537   -11056.715    44.998967   -11101.714   -2837.9937 
   89000     313.4544    -11044.88    52.323489   -11097.203   -19746.195 
   89200    313.83479   -11049.393    52.386986    -11101.78   -4113.5288 
   89400     314.3676   -11062.922    52.475925   -11115.398    26344.617 
   89600    325.07245   -11052.363    54.262837   -11106.626    36945.049 
   89800    359.91917   -11035.896    60.079638   -11095.976    22201.973 
   90000    305.04424   -11058.202    50.919621   -11109.122   -42176.555 
   90200    304.89911   -11057.105    50.895395       -11108   -43135.313 
   90400    280.94957   -11044.471     46.89761   -11091.368    13799.438 
   90600    314.61909   -11038.802    52.517905    -11091.32   -19309.587 
   90800    253.97788   -11059.793    42.395349   -11102.188    38212.539 
   91000    268.09531   -11056.773    44.751907   -11101.525   -25837.699 
   91200    358.18688   -11041.219    59.790475   -11101.009   -36681.115 
   91400    327.80023    -11054.14    54.718172   -11108.858   -14020.671 
   91600    303.55109   -11058.086    50.670376   -11108.756    44513.329 
   91800    361.49238   -11044.766    60.342247   -11105.108    -34368.05 
   92000    333.29083   -11047.513    55.634693   -11103.147    19464.551 
   92200    238.33435   -11056.555    39.784048    -11096.34   -44300.536 
   92400    329.11866   -11038.989    54.938252   -11093.927   -50557.707 
   92600     271.8377    -11055.52    45.376607   -11100.896    2883.2642 
   92800    315.07526   -11055.058    52.594052   -11107.652    65865.478 
   93000    344.72458   -11038.776    57.543276   -11096.319   -32565.372 
   93200    330.98696   -11057.999    55.250119    -11113.25    11856.696 
   93400      251.605   -11059.634    41.999255   -11101.633    60286.612 
   93600    351.07127   -11039.004      58.6027   -11097.607   -13238.646 
   93800    333.98817   -11055.581    55.751096   -11111.332    7656.1803 
   94000    315.61421   -11059.111    52.684016   -11111.795    77772.128 
   94200    349.15853   -11041.153    58.283415   -11099.437     42147.99 
   94400    330.77397   -11054.124    55.214565   -11109.338    102.89681 
   94600    261.01368   -11062.017    43.569803   -11105.587    26814.457 
   94800    323.87472   -11048.705    54.062904   -11102.767    31620.864 
   95000    269.02173   -11052.578     44.90655   -11097.485   -17860.337 
   95200    336.35771   -11062.521    56.146634   -11118.667   -30247.159 
   95400    296.98004   -11056.277    49.573501    -11105.85     9212.111 
   95600    330.15644   -11046.857    55.111484   -11101.969    35410.214 
   95800     289.7276   -11059.533    48.362885   -11107.896    21509.218 
   96000    286.45972   -11065.456    47.817393   -11113.274   -4976.6305 
   96200    273.06256   -11073.299    45.581067    -11118.88    22504.885 
   96400    344.41888   -11058.054    57.492247   -11115.546    3754.7657 
   96600    300.98111   -11065.168    50.241381   -11115.409    21017.901 
   96800    260.64188   -11073.578    43.507741   -11117.086    29172.535 
   97000    301.97855   -11052.737    50.407878   -11103.145   -18054.281 
   97200    310.08468   -11043.777    51.760998   -11095.538   -14840.973 
   97400    318.38638   -11056.913    53.146762    -11110.06    2032.4045 
   97600    269.52151   -11066.249    44.989976   -11111.239   -15303.671 
   97800     349.6143   -11046.714    58.359494   -11105.074    76658.392 
   98000    284.94864   -11056.563    47.565155   -11104.128    -27406.42 
   98200    267.02707   -11063.245     44.57359   -11107.819    2163.1461 
   98400    313.73811   -11049.183    52.370849   -11101.554     58763.01 
   98600    309.94339   -11045.823    51.737413   -11097.561   -22372.318 
   98800    291.91086    -11062.73    48.727327   -11111.457    51042.345 
   99000    328.79799    -11048.63    54.884724   -11103.515   -50230.847 
   99200    280.61822    -11059.83    46.842297   -11106.673   -19076.681 
   99400    287.58303   -11059.852    48.004901   -11107.857    12735.801 
   99600    300.55356   -11051.194    50.170012   -11101.364    44326.469 
   99800    251.04238   -11067.471    41.905341   -11109.377    26357.521 
  100000    281.81942   -11057.489    47.042809   -11104.532   -5893.1106 
  100200    312.20923   -11054.729    52.115639   -11106.844   -5939.0369 
  100400    309.67546   -11060.096    51.692689   -11111.788    55771.886 
  100600    311.36536   -11063.976    51.974776   -11115.951    43114.073 
  100800    303.04852   -11064.356    50.586484   -11114.943   -29225.268 
  101000    319.16927   -11049.371    53.277447   -11102.649     29859.92 
  101200    306.46954   -11064.365     51.15754   -11115.523   -36594.448 
  101400    345.36428   -11054.458    57.650057   -11112.108     56259.85 
  101600    332.20098   -11039.869    55.452769   -11095.322   -11063.947 
  101800    287.73571   -11059.225    48.030387   -11107.256   -8736.9119 
  102000    268.10112   -11053.809    44.752876   -11098.561    10106.061 
  102200    306.16438    -11053.91      51.1066   -11105.016   -35428.158 
  102400    297.74899    -11064.59    49.701858   -11114.292    15992.471 
  102600    330.99918   -11054.416    55.252158   -11109.668    27146.082 
  102800    279.76698   -11052.845    46.700204   -11099.545   -37659.603 
  103000    269.98943   -11060.677    45.068083   -11105.745   -19740.739 
  103200    321.25445   -11044.371    53.625516   -11097.996    31477.867 
  103400    287.12413   -11057.193      47.9283   -11105.121   -1492.8906 
  103600    225.48575   -11057.275    37.639291   -11094.914   -18754.183 
  103800    318.65247   -11046.441    53.191179   -11099.632   -698.64277 
  104000    244.87256   -11066.406    40.875441   -11107.281   -64537.621 
  104200    299.12158   -11059.858    49.930979   -11109.789   -8986.4853 
  104400    285.27048   -11049.475    47.618878   -11097.094    12287.895 
  104600    291.59446   -11054.471    48.674511   -11103.146   -33960.192 
  104800    277.07678   -11068.847    46.251143   -11115.098   -13235.006 
  105000    316.63751   -11053.822    52.854831   -11106.677    37675.248 
  105200     302.0918    -11046.49    50.426784   -11096.917    -67413.61 
  105400    346.69319   -11034.953    57.871887   -11092.825   -54276.901 
  105600    272.44902    -11050.68    45.478652   -11096.158    32638.761 
  105800    296.41899   -11060.981    49.479848   -11110.461    42297.137 
  106000    316.93837   -11043.003    52.905052   -11095.908   -37607.386 
  106200    308.03157   -11049.218    51.418282   -11100.636    11638.181 
  106400    254.67082   -11057.603    42.511019   -11100.114   -12445.032 
  106600     295.6003   -11056.463    49.343188   -11105.806    21281.761 
  106800    390.28438   -11035.294    65.148362   -11100.442   -30314.754 
  107000    324.56866   -11051.632    54.178741   -11105.811    615.29392 
  107200    268.38097   -11062.028    44.799591   -11106.828   -43853.266 
  107400    282.08979   -11054.597    47.087941   -11101.685    19140.816 
  107600    298.59281   -11044.147    49.842713    -11093.99    68653.128 
  107800    273.97033   -11054.611    45.732596   -11100.344   -9938.2316 
  108000    367.64154    -11035.13    61.368697   -11096.499    15542.564 
  108200    295.19054   -11055.875    49.274788    -11105.15   -10943.085 
  108400    255.11851   -11053.087    42.585749   -11095.673   -23683.896 
  108600    345.12429   -11041.069    57.609998   -11098.679    29020.528 
  108800     280.8169   -11064.869    46.875463   -11111.744    6359.7079 
  109000    331.42071   -11052.756    55.322522   -11108.078    3095.0229 
  109200    300.90296   -11062.517    50.228336   -11112.745    6106.5668 
  109400    272.97635   -11068.476    45.566676   -11114.043   -36143.151 
  109600    310.33682   -11052.785    51.803086   -11104.588    25208.203 
  109800    307.53643   -11055.258    51.335631   -11106.594     512.4879 
  110000    269.79223   -11069.315    45.035165    -11114.35   -26314.502 
  110200    305.87645   -11057.688    51.058538   -11108.747    -43445.17 
  110400    322.05284   -11054.678    53.758787   -11108.437   -8009.5586 
  110600    249.94081   -11069.376    41.721461   -11111.097    1075.9203 
  110800    293.77665    -11059.77    49.038774   -11108.809   -49487.974 
  111000    300.97696    -11059.73    50.240688   -11109.971    41035.742 
  111200    283.93757   -11060.191    47.396383   -11107.588    3250.0562 
  111400    375.90909   -11043.908    62.748761   -11106.657   -7869.7467 
  111600    272.55352   -11061.077    45.496095   -11106.573    45819.127 
  111800    294.73444   -11052.639    49.198653   -11101.838    39353.472 
  112000    375.76626   -11042.291     62.72492   -11105.016   -29269.352 
  112200    316.14444   -11062.185    52.772525   -11114.958   -10416.915 
  112400    289.03935   -11061.947    48.247999   -11110.195    39199.052 
  112600    328.81246   -11047.377    54.887139   -11102.264   -8244.3053 
  112800    315.84554   -11055.834    52.722631   -11108.557    12456.814 
  113000    284.58898    -11057.86    47.505119   -11105.365   -24114.238 
  113200    285.65623   -11042.397     47.68327    -11090.08    27062.129 
  113400    275.80172   -11060.057    46.038302   -11106.095    76956.376 
  113600    282.61499   -11051.648    47.175609   -11098.824    59061.662 
  113800    299.74484   -11054.414    50.035016   -11104.449     26488.28 
  114000    270.99716   -11065.278      45.2363   -11110.514    13277.467 
  114200    346.75179   -11048.956    57.881668   -11106.838    26948.715 
  114400    317.41713   -11054.845     52.98497    -11107.83    17579.441 
  114600    332.85327   -11058.134    55.561653   -11113.696   -6991.4975 
  114800    300.54887   -11056.836     50.16923   -11107.005   -35513.598 
  115000    297.78388   -11058.326    49.707682   -11108.034    36902.937 
  115200     311.2631   -11044.593    51.957705   -11096.551     -41260.3 
  115400    263.80539   -11062.994    44.035811   -11107.029   -73015.004 
  115600     294.6118   -11056.446    49.178181   -11105.624   -69755.045 
  115800      345.795   -11039.353    57.721955   -11097.075   -12797.145 
  116000    334.92036   -11062.182    55.906702   -11118.089   -19477.004 
  116200    282.28743   -11064.554    47.120931   -11111.675   -11534.639 
  116400    325.44443   -11047.338     54.32493   -11101.663    53569.531 
  116600      310.948   -11056.843    51.905108   -11108.748   -39664.605 
  116800    323.54225   -11050.533    54.007408    -11104.54    72814.969 
  117000    364.68177   -11031.163    60.874636   -11092.038   -14840.941 
  117200    267.89461   -11055.475    44.718405   -11100.193    43803.246 
  117400    277.81045   -11058.755    46.373611   -11105.129    9379.1264 
  117600    346.58903   -11051.833    57.854499   -11109.688   -25163.557 
  117800    311.27266    -11053.77    51.959303   -11105.729   -11648.779 
  118000    270.64778   -11060.782    45.177979    -11105.96    -37292.48 
  118200    322.59454   -11051.376    53.849211   -11105.225   -8374.3854 
  118400    323.65721   -11062.597    54.026598   -11116.624    6389.6111 
  118600    284.50152   -11062.257     47.49052   -11109.748   -5183.4754 
  118800    318.31688   -11046.415    53.135161    -11099.55   -23974.377 
  119000    320.52095   -11049.274    53.503077   -11102.777    -20107.91 
  119200    244.25197   -11064.749    40.771849   -11105.521   -19292.543 
  119400    315.64684   -11048.995    52.689463   -11101.684   -5541.7726 
  119600    337.01836    -11049.54    56.256912   -11105.797    21125.997 
  119800     273.3347   -11063.526    45.626494   -11109.152    10026.468 
  120000    320.35818   -11044.424    53.475906     -11097.9   -77088.881 
  120200    282.55391   -11055.823    47.165415   -11102.988    27977.982 
  120400    253.59239   -11061.982    42.331002   -11104.313   -16844.242 
  120600    343.45442   -11043.713    57.331253   -11101.044    19765.472 
  120800    304.05168   -11052.041    50.753937   -11102.795    21858.462 
  121000    265.19798   -11056.315     44.26827   -11100.584    29050.291 
  121200    334.53028   -11042.733    55.841588   -11098.575    63828.436 
  121400    330.06202   -11056.251    55.095722   -11111.347     32350.39 
  121600    335.35061   -11047.325    55.978522   -11103.304    30297.908 
  121800    336.55923   -11043.974    56.180271   -11100.154    388.73227 
  122000    317.64491   -11057.832    53.022992   -11110.855    31831.283 
  122200    259.35544   -11054.264    43.293001   -11097.557   -41035.762 
  122400    303.31452   -11040.895    50.630887   -11091.526    -3790.144 
  122600    311.42137   -11057.298    51.984125   -11109.282   -4394.4817 
  122800    322.14927   -11054.254    53.774884   -11108.029   -47969.413 
  123000    302.48543   -11037.441     50.49249   -11087.934    16546.722 
  123200    309.85671   -11055.182    51.722944   -11106.905    9717.9293 
  123400    323.04382   -11057.738    53.924207   -11111.662    36447.633 
  123600    283.65171   -11051.509    47.348664   -11098.857   -13549.856 
  123800    285.75548    -11049.01    47.699837    -11096.71    1081.9706 
  124000    312.69917   -11062.709    52.197423   -11114.906   -35105.339 
  124200    281.24178   -11058.665    46.946386   -11105.611    -37948.47 
  124400    293.95625    -11057.04    49.068754   -11106.108   -4684.9881 
  124600    292.47321   -11059.614    48.821196   -11108.435   -14198.874 
  124800    237.91161   -11067.667    39.713481    -11107.38   -25483.229 
  125000    356.34404   -11050.937    59.482857    -11110.42   -23190.257 
  125200    299.04028   -11063.948    49.917407   -11113.865   -26604.885 
  125400    280.13365   -11064.461    46.761411   -11111.222    35763.825 
  125600    324.98862   -11053.731    54.248844   -11107.979    15368.633 
  125800    302.50502   -11064.528     50.49576   -11115.024    49782.111 
  126000    315.22903   -11045.595     52.61972   -11098.214     20802.63 
  126200    283.51969   -11056.242    47.326627   -11103.568    24026.004 
  126400    280.15827   -11061.161    46.765521   -11107.927   -52047.983 
  126600    320.28276    -11058.56    53.463316   -11112.023   -24682.116 
  126800    337.46716   -11054.458    56.331828    -11110.79     -10813.2 
  127000    284.30223   -11067.641    47.457253   -11115.099   -40410.011 
  127200    325.63296   -11051.395    54.356399   -11105.752    -20221.82 
  127400    295.18154   -11049.311    49.273286   -11098.584    -3198.359 
  127600    244.03127    -11069.44    40.735008   -11110.175   -43233.622 
  127800    314.62114   -11055.769    52.518247   -11108.288    41245.431 
  128000    332.98541   -11054.885    55.583711   -11110.469    42484.778 
  128200    264.04527   -11069.071    44.075853   -11113.147   -28908.146 
  128400    287.56638   -11052.537    48.002122    -11100.54   -44835.634 
  128600    265.87446   -11054.065    44.381191   -11098.447    27277.873 
  128800     353.4469   -11035.401    58.999251   -11094.401   -42786.671 
  129000    272.11312   -11052.269    45.422582   -11097.691   -28617.042 
  129200    359.42214   -11055.644    59.996671    -11115.64   -2548.7087 
  129400    274.10528   -11074.583    45.755124   -11120.338    52814.929 
  129600     254.4722    -11065.31    42.477864   -11107.788    30233.876 
  129800    352.78981   -11053.906    58.889567   -11112.796   -45647.033 
  130000    305.08362   -11067.736    50.926194   -11118.662    35832.321 
  130200     285.7912   -11065.114      47.7058    -11112.82   -24121.141 
  130400    317.65634   -11049.986    53.024901   -11103.011   -51043.066 
  130600    276.52088   -11062.685    46.158348   -11108.844    53300.867 
  130800    319.97942   -11057.035     53.41268   -11110.448    39652.342 
  131000    333.67738   -11055.147    55.699217   -11110.847    18729.283 
  131200    245.98865   -11066.149    41.061744    -11107.21   -14385.271 
  131400    363.28547   -11049.352    60.641559   -11109.994    19550.927 
  131600    293.86741   -11060.619    49.053924   -11109.673    14287.664 
  131800    272.76545   -11063.297    45.531471   -11108.828   -32195.997 
  132000    281.00915    -11049.03    46.907554   -11095.937   -29795.426 
  132200    332.57876   -11057.112    55.515831   -11112.628   -23913.123 
  132400    272.05947   -11065.707    45.413625   -11111.121   -45586.754 
  132600    297.58815    -11051.48    49.675011   -11101.155    10481.969 
  132800    296.52129    -11059.99    49.496924   -11109.487     8656.272 
  133000    275.80889    -11068.95    46.039498   -11114.989    6093.6995 
  133200    311.26159   -11054.274    51.957454   -11106.232   -22136.497 
  133400    306.47673   -11052.182    51.158739   -11103.341    4155.8551 
  133600    252.79129   -11064.711    42.197277   -11106.909    8585.0443 
  133800    315.10972   -11045.993    52.599805   -11098.592   -5778.5076 
  134000    311.32559   -11056.059    51.968136   -11108.027    9696.6281 
  134200    308.67172   -11057.712    51.525139   -11109.237    16351.296 
  134400    332.21437   -11041.118    55.455005   -11096.573    38551.918 
  134600    274.73403   -11056.646    45.860077   -11102.506    -12106.06 
  134800    242.61682   -11057.868      40.4989   -11098.367    44783.125 
  135000    313.70118   -11037.229    52.364684   -11089.593   -63813.513 
  135200    294.23847   -11054.584    49.115864     -11103.7   -36884.776 
  135400    297.93708   -11054.579    49.733256   -11104.313    38475.346 
  135600     350.8771   -11036.779    58.570288   -11095.349    51759.849 
  135800    260.19169   -11049.427    43.432593   -11092.859    64320.217 
  136000    315.12217    -11048.63    52.601882   -11101.232    2527.1881 
  136200    269.57564   -11064.477    44.999011   -11109.476    -1063.928 
  136400    363.99602   -11052.874    60.760168   -11113.635   -663.63288 
  136600    288.50748   -11050.436    48.159216   -11098.595   -1087.3361 
  136800    294.94255   -11059.471    49.233392   -11108.704    32620.628 
  137000    255.31092   -11068.736    42.617868   -11111.354    50287.633 
  137200    301.02005   -11055.213    50.247881    -11105.46      47012.4 
  137400    316.33422   -11046.484    52.804205   -11099.289    8615.4169 
  137600    263.73546   -11060.587    44.024138   -11104.611   -18827.665 
  137800    278.18104    -11059.09    46.435471   -11105.526    30771.479 
  138000    294.39125   -11049.599    49.141366    -11098.74    37565.779 
  138200    338.71345   -11055.892    56.539866   -11112.431   -71054.522 
  138400    269.87095   -11064.276    45.048307   -11109.325   -13937.961 
  138600    337.31639    -11052.36    56.306661   -11108.666   -23072.031 
  138800     314.7506   -11051.631    52.539859   -11104.171    32014.139 
  139000    243.64192   -11068.805    40.670016   -11109.475    28992.717 
  139200    303.66037   -11057.355    50.688618   -11108.044    8484.3619 
  139400      322.712   -11049.374    53.868817   -11103.243     71300.18 
  139600    241.09668   -11068.952    40.245151   -11109.197   -40377.914 
  139800    346.34425   -11055.506     57.81364    -11113.32   -43334.617 
  140000    303.19488   -11056.627    50.610915   -11107.238   -19400.301 
  140200    246.72085   -11069.388    41.183968   -11110.572   -26180.762 
  140400    291.22122   -11056.456    48.612208   -11105.068   -51177.002 
  140600    280.04809   -11050.613    46.747129    -11097.36   -13297.437 
  140800    294.67879   -11062.853    49.189363   -11112.042   -2570.6778 
  141000    277.85905   -11065.902    46.381723   -11112.283    7262.8291 
  141200     358.9121   -11054.028    59.911533   -11113.939    -34234.54 
  141400    275.98298   -11072.192    46.068559    -11118.26    12499.984 
  141600    310.25851   -11055.933    51.790015   -11107.723    28389.606 
  141800    286.01223   -11053.752    47.742695   -11101.495   -56935.449 
  142000    247.22155   -11064.986    41.267547   -11106.254   -6094.9605 
  142200    269.95444   -11063.207    45.062243    -11108.27   -11703.169 
  142400     329.1196   -11052.403    54.938408   -11107.342   -36517.366 
  142600    305.62503   -11066.643     51.01657   -11117.659   -28197.771 
  142800    286.63589   -11058.295    47.846799   -11106.142    15957.879 
  143000    331.25148   -11049.074    55.294274   -11104.369   -43538.786 
  143200    283.93719   -11062.552    47.396319   -11109.949   -11675.104 
  143400    272.37073   -11062.001    45.465582   -11107.467    24256.107 
  143600    360.35948   -11042.219    60.153136   -11102.372    11195.893 
  143800    313.44714   -11058.435    52.322278   -11110.757   -23406.145 
  144000      307.623   -11058.613    51.350081   -11109.964    55567.796 
  144200    324.14956   -11036.515    54.108783   -11090.623    76298.806 
  144400    287.82934   -11051.932    48.046017   -11099.978   -16661.923 
  144600    338.17252   -11059.893    56.449571   -11116.342    85092.017 
  144800    318.02239   -11055.463    53.086002   -11108.549   -4821.0334 
  145000    319.88378   -11045.813    53.396716    -11099.21   -45447.273 
  145200    319.36623     -11054.3    53.310323    -11107.61   -6841.0921 
  145400    301.23502   -11061.438    50.283766   -11111.721    32819.685 
  145600    276.41693    -11070.34    46.140996   -11116.481    39404.932 
  145800    308.47421   -11057.102     51.49217   -11108.594   -28442.128 
  146000    309.13563   -11054.652    51.602578   -11106.255     9839.971 
  146200    251.89421   -11072.957    42.047532   -11115.005   -19147.737 
  146400     240.2151   -11058.814    40.097993   -11098.912   -8957.0757 
  146600     294.3098   -11058.028     49.12777   -11107.156    1005.4147 
  146800    280.61021   -11065.795    46.840961   -11112.636    24131.501 
  147000    343.62659   -11047.706    57.359993   -11105.066   -36536.582 
  147200    251.35519    -11061.36    41.957556   -11103.317   -47785.871 
  147400    295.75967   -11056.258     49.36979   -11105.628    6237.0617 
  147600    307.21447   -11057.454    51.281888   -11108.736    5995.8095 
  147800    256.25033   -11069.646    42.774679   -11112.421    8124.2405 
  148000    292.76966   -11055.636    48.870682   -11104.507    18343.426 
  148200    324.38291   -11051.885    54.147735   -11106.033   -34539.667 
  148400    270.93206   -11064.553    45.225432   -11109.778    11936.223 
  148600    225.79655   -11077.941    37.691171   -11115.632   -7801.9817 
  148800    285.11746   -11058.898    47.593335   -11106.491   -44308.056 
  149000    308.89547   -11047.864    51.562488   -11099.427    32505.208 
  149200     328.2836   -11046.139    54.798859   -11100.938   -40792.841 
  149400    256.39511   -11060.424    42.798847   -11103.223    51543.278 
  149600    280.96477    -11046.36    46.900146    -11093.26   -35545.113 
  149800    263.56269   -11062.976    43.995297   -11106.971     13396.93 
  150000     324.3525   -11057.358    54.142659   -11111.501     42527.11 
  150200    339.86534   -11042.307    56.732145   -11099.039    24293.997 
  150400    345.48052   -11044.483    57.669462   -11102.153    23570.667 
  150600    302.43364   -11058.073    50.483845   -11108.557   -5038.3663 
  150800    301.35105   -11057.214    50.303134   -11107.517   -33494.668 
  151000    322.83881    -11043.28    53.889985    -11097.17   -14295.411 
  151200    273.71814    -11055.61    45.690499   -11101.301    15036.036 
  151400     286.2416   -11061.135    47.780982   -11108.916   -1073.1238 
  151600    341.30587    -11046.18    56.972605   -11103.152   -32833.144 
  151800    274.52679    -11059.94    45.825484   -11105.766    3841.8902 
  152000    277.72631   -11061.246    46.359565   -11107.606    -13689.81 
  152200    333.24021   -11057.767    55.626243   -11113.393   -9047.6215 
  152400    303.26459   -11058.689    50.622552   -11109.312    24109.068 
  152600    370.85449   -11046.889     61.90502   -11108.794   -10441.435 
  152800    261.19463    -11061.86    43.600008    -11105.46   -9609.0618 
  153000    305.39392     -11047.1     50.97799   -11098.078    20664.696 
  153200    353.27946    -11048.73    58.971302   -11107.701   -40187.113 
  153400    284.77206   -11060.749    47.535679   -11108.285   -5161.4636 
  153600     277.6226   -11056.757    46.342253   -11103.099    11848.318 
  153800    359.66969   -11047.327    60.037993   -11107.365   -12440.989 
  154000     285.9958   -11061.196    47.739953   -11108.936    38004.887 
  154200    338.28983   -11042.539    56.469152   -11099.008    6885.9622 
  154400    311.01067   -11053.135     51.91557    -11105.05   -14239.446 
  154600    295.10751    -11061.14    49.260928   -11110.401   -81714.953 
  154800    342.73937   -11048.568    57.211894    -11105.78    45324.279 
  155000    306.68724   -11059.169    51.193879   -11110.363    48041.729 
  155200    265.26883   -11066.072    44.280096   -11110.353     26962.76 
  155400    296.92218   -11051.949    49.563843   -11101.513   -13515.711 
  155600    240.61775   -11068.241    40.165206   -11108.406   -29046.431 
  155800    299.63212   -11057.384      50.0162     -11107.4    20054.762 
  156000    273.25502   -11054.864    45.613193   -11100.477     701.8903 
  156200     303.1612   -11044.709    50.605294   -11095.314   -2655.5727 
  156400    336.84994   -11052.091    56.228798    -11108.32   -33662.666 
  156600     270.0803   -11063.826    45.083252   -11108.909   -21153.645 
  156800    297.39412   -11050.455    49.642622   -11100.098   -32974.224 
  157000     312.2731    -11051.54    52.126301   -11103.666    18754.801 
  157200    231.72176   -11058.144     38.68024   -11096.824   -32549.075 
  157400    344.68736   -11036.459    57.537063   -11093.996    36521.125 
  157600    309.94584   -11052.371    51.737822   -11104.109    29936.549 
  157800    271.67477   -11059.271    45.349409   -11104.621    46772.707 
  158000    338.88131   -11042.507    56.567886   -11099.075   -85104.525 
  158200    273.42402   -11060.858    45.641404   -11106.499    35603.022 
  158400     277.8062   -11054.784      46.3729   -11101.157   -6506.2531 
  158600    337.40789   -11049.408    56.321935    -11105.73    12511.054 
  158800    289.47664   -11069.308    48.320994   -11117.629   -20448.351 
  159000     319.0612   -11051.662    53.259406   -11104.921     14357.38 
  159200    306.24008   -11062.931    51.119236    -11114.05   -18378.042 
  159400    236.67681   -11073.746    39.507363   -11113.253   -33126.344 
  159600    292.36037   -11065.775    48.802361   -11114.577   -21408.449 
  159800    342.58519   -11052.754    57.186157    -11109.94    694.26022 
  160000    244.01176   -11068.744    40.731752   -11109.475    1470.3659 
  160200    308.02466   -11057.745    51.417129   -11109.162    16929.696 
  160400    302.71734   -11048.995    50.531201   -11099.526    17014.963 
  160600    272.58378   -11065.925    45.501146   -11111.426    2777.2568 
  160800    274.67719   -11065.037     45.85059   -11110.887   -22759.657 
  161000    291.33875    -11059.32    48.631827   -11107.951     -30202.5 
  161200    268.25786   -11056.456    44.779041   -11101.235   -1180.5786 
  161400    292.49823   -11055.228    48.825373   -11104.054   -21425.645 
  161600    257.06459   -11068.411      42.9106   -11111.322   -12768.083 
  161800     313.0164   -11051.688    52.250377   -11103.938   -48991.035 
  162000    329.15862   -11047.212    54.944922   -11102.157   -31752.278 
  162200    251.49365   -11060.733    41.980668   -11102.714    10398.831 
  162400    229.76326   -11058.086    38.353315   -11096.439   -58314.036 
  162600    334.47397   -11049.925    55.832188   -11105.757   -18552.624 
  162800    289.75763   -11063.275    48.367897   -11111.643   -22624.338 
  163000    244.62017   -11070.298     40.83331   -11111.131    53425.883 
  163200    338.17588   -11049.249    56.450132     -11105.7   -7415.0072 
  163400    319.83364   -11061.331    53.388347    -11114.72   -11647.912 
  163600    297.86182   -11059.042    49.720692   -11108.763   -36985.456 
  163800    288.19921   -11049.771    48.107757   -11097.878   -5663.7589 
  164000     282.5171   -11060.627    47.159269   -11107.786   -19471.646 
  164200    289.76391   -11055.874    48.368945   -11104.243    50361.657 
  164400    273.84969   -11050.699    45.712458   -11096.411    22805.947 
  164600    296.10581   -11064.217    49.427569   -11113.644     31409.59 
  164800    233.57327   -11075.986    38.989302   -11114.975     1659.744 
  165000    305.78744   -11056.309     51.04368   -11107.353   -1295.5074 
  165200    306.27763   -11049.194    51.125505    -11100.32   -5651.1534 
  165400    263.62409   -11066.521    44.005547   -11110.527    25131.497 
  165600    337.44059   -11058.038    56.327393   -11114.365     9598.909 
  165800    316.86901   -11054.775    52.893475   -11107.669   -53331.403 
  166000    260.16992   -11059.726    43.428958   -11103.155    -46967.11 
  166200    317.70282   -11050.847    53.032658    -11103.88   -34861.597 
  166400     318.8017   -11057.988     53.21609   -11111.204    27564.493 
  166600    258.02503   -11066.632    43.070921   -11109.703   -745.20648 
  166800    313.73568    -11054.66    52.370442   -11107.031   -32683.557 
  167000    297.62133    -11050.04    49.680549    -11099.72   -8413.8972 
  167200    295.46926   -11067.119    49.321314    -11116.44    10593.463 
  167400    307.79195   -11056.709    51.378282   -11108.088    18804.606 
  167600    319.38568   -11057.086     53.31357   -11110.399    40282.476 
  167800    262.36397   -11066.629    43.795201   -11110.424   -51500.046 
  168000     237.7811   -11074.715    39.691697   -11114.407   -35668.145 
  168200    307.81226   -11057.132    51.381673   -11108.514   -32877.688 
  168400    305.64072   -11057.517    51.019187   -11108.536    33921.091 
  168600    289.31791   -11070.984    48.294498   -11119.278    37050.795 
  168800    311.92029   -11051.016    52.067408   -11103.083    24967.446 
  169000    308.13968   -11055.483    51.436328   -11106.919   -1300.0726 
  169200    261.45105   -11066.961    43.642811   -11110.604    34547.326 
  169400    301.93672   -11052.189    50.400896    -11102.59   -27072.152 
  169600    290.80016   -11051.367    48.541922   -11099.909    9442.3693 
  169800    259.45358   -11065.874    43.309384   -11109.183    51612.147 
  170000    312.68903   -11054.909    52.195729   -11107.104    25957.172 
  170200    342.81367   -11047.257    57.224297   -11104.481   -43520.006 
  170400     271.4395   -11068.459    45.310138   -11113.769   -12033.247 
  170600    296.45009   -11062.336    49.485039   -11111.821   -34672.737 
  170800    315.21939   -11048.709     52.61811   -11101.328    -23066.37 
  171000    298.36239   -11062.037     49.80425   -11111.841   -51174.607 
  171200    250.52609   -11077.196    41.819158   -11119.016    27309.711 
  171400    242.94222   -11061.561    40.553217   -11102.114    15796.155 
  171600    317.71622   -11053.014    53.034895   -11106.048    9829.0496 
  171800    322.85578   -11060.353    53.892819   -11114.246     56120.22 
  172000    275.13039   -11059.739     45.92624   -11105.666     38069.06 
  172200    314.38792   -11059.319    52.479318   -11111.798   -46001.312 
  172400    294.20177   -11067.452    49.109738   -11116.562   -5338.1385 
  172600    289.92979   -11055.545    48.396635   -11103.942    34140.524 
  172800    284.15675   -11062.281    47.432968   -11109.714   -18643.943 
  173000    272.21914   -11065.613    45.440279   -11111.053   -35220.314 
  173200    316.58882   -11055.162    52.846704   -11108.009    21296.568 
  173400     247.8937   -11071.501    41.379746   -11112.881   -30579.841 
  173600    273.06171   -11064.016    45.580925   -11109.597   -14830.808 
  173800     312.3553   -11053.461    52.140022   -11105.601    52045.259 
  174000    303.08093   -11050.518    50.591894    -11101.11   -34250.087 
  174200    275.96836   -11068.959    46.066119   -11115.026    22869.547 
  174400    284.95475   -11053.512    47.566174   -11101.078   -27931.219 
  174600    270.64349   -11050.961    45.177263   -11096.138   -4286.7208 
  174800    244.88506   -11055.516    40.877527   -11096.394    24040.492 
  175000    420.14746   -11038.606    70.133268   -11108.739    -16731.16 
  175200     292.5308   -11060.362     48.83081   -11109.193   -4008.5281 
  175400    328.63749   -11057.741    54.857932   -11112.599    34010.614 
  175600    325.86895   -11052.709    54.395793   -11107.105    26613.209 
  175800    249.82208     -11073.2    41.701641   -11114.902   -24538.158 
  176000    271.65416   -11058.548     45.34597   -11103.894    31746.453 
  176200    326.33022   -11052.789     54.47279   -11107.262    4110.1823 
  176400    282.66856   -11066.058    47.184552   -11113.242   -23290.122 
  176600    316.99941   -11048.565    52.915241   -11101.481    446.94777 
  176800    326.91028   -11050.432    54.569618   -11105.001    15430.417 
  177000    322.89744   -11064.082    53.899773   -11117.982   -15841.186 
  177200    374.90871   -11051.338    62.581772   -11113.919    15247.085 
  177400    393.23738   -11022.652    65.641292   -11088.294    12451.707 
  177600    271.30271   -11048.894    45.287304   -11094.182    4173.8499 
  177800    269.70077   -11054.934    45.019899   -11099.954   -17413.525 
  178000    343.58491   -11046.144    57.353035   -11103.497    19602.315 
  178200    257.92454   -11062.984    43.054147   -11106.038     10861.34 
  178400    338.09954    -11057.92    56.437388   -11114.358   -869.00684 
  178600    364.09625    -11037.91    60.776899   -11098.687    41965.602 
  178800    305.34255   -11043.838    50.969417   -11094.808   -44065.777 
  179000    298.36002   -11062.491    49.803855   -11112.295   -15124.517 
  179200    289.80673   -11065.334    48.376093    -11113.71    29156.246 
  179400    324.10548   -11049.539    54.101424   -11103.641    18600.456 
  179600     280.0498   -11052.601    46.747415   -11099.348   -299.05586 
  179800    270.16345   -11057.816    45.097132   -11102.913     6610.364 
  180000    296.46355   -11061.898    49.487285   -11111.385   -3011.9804 
  180200    318.13228   -11053.647    53.104346   -11106.751   -2680.7619 
  180400    271.25628   -11067.301    45.279553    -11112.58    45352.927 
  180600    343.85362   -11057.293     57.39789   -11114.691    18750.849 
  180800    315.93387   -11047.265    52.737375   -11100.002   -34887.795 
  181000    235.20356   -11060.746    39.261439   -11100.008    15758.971 
  181200    283.99847   -11060.593    47.406548   -11107.999   -7823.0069 
[...]
  950000     312.0667   -11049.666    52.091846   -11101.758    368.79321 
  950200    338.13774   -11061.431    56.443765   -11117.875   -161.49583 
  950400    270.81264   -11068.319    45.205498   -11113.525    4546.6346 
  950600    292.13316    -11049.13    48.764434   -11097.894   -8970.9682 
  950800    274.47138   -11061.545    45.816235   -11107.361   -52419.724 
  951000    352.46437   -11046.102    58.835242   -11104.937    7638.7137 
  951200    278.70081   -11053.659    46.522234   -11100.181    17302.213 
  951400    235.94348   -11062.255    39.384951    -11101.64    3306.9519 
  951600    295.82031   -11058.676    49.379913   -11108.056    61199.374 
  951800    354.84269   -11053.227    59.232244   -11112.459   -5777.9601 
  952000    246.17077   -11063.151    41.092145   -11104.243    2778.4641 
  952200    291.98489   -11055.304    48.739683   -11104.043    24753.385 
  952400     345.5882   -11047.067    57.687435   -11104.754    -18548.73 
  952600     323.7124   -11067.516     54.03581   -11121.551   -3475.0926 
  952800    299.78285   -11058.005    50.041361   -11108.046     41221.62 
  953000    253.52306   -11051.236    42.319428   -11093.556   -16655.752 
  953200    305.41829   -11064.589    50.982059   -11115.571   -30822.271 
  953400    358.65252   -11049.404    59.868202   -11109.272   -12267.375 
  953600    293.10134   -11057.455    48.926047   -11106.381   -56382.786 
  953800    257.75457   -11060.923    43.025776   -11103.949   -42051.949 
  954000    303.32965   -11044.749    50.633411   -11095.382   -3377.8315 
  954200    324.11021   -11049.923    54.102214   -11104.026    20923.593 
  954400     260.1043   -11065.051    43.418005   -11108.469   -13852.164 
  954600    289.86676   -11049.816    48.386114   -11098.202   -5635.2822 
  954800    341.65831    -11057.61    57.031438   -11114.641   -32880.235 
  955000    287.67789    -11059.47    48.020736   -11107.491   -5861.6593 
  955200    319.22065    -11048.22    53.286023   -11101.506    1762.2388 
  955400    281.96809   -11053.168    47.067626   -11100.236   -38482.898 
  955600    275.31339   -11058.714    45.956788   -11104.671    46241.658 
  955800    277.04323    -11066.39    46.245541   -11112.636    -1497.607 
  956000    365.49335   -11047.452     61.01011   -11108.462    23339.231 
  956200    264.69792   -11057.701    44.184796   -11101.886   -55990.928 
  956400     296.7671   -11058.651    49.537956   -11108.189   -4708.3663 
  956600     325.7218    -11044.83     54.37123   -11099.201   -14747.245 
  956800    319.33397    -11051.97    53.304938   -11105.275    -26146.16 
  957000    246.93851   -11063.534    41.220301   -11104.754     -36168.2 
  957200    360.66715   -11049.847    60.204494   -11110.052   -21664.391 
  957400    264.04229   -11066.628    44.075355   -11110.704     16325.18 
  957600    299.20268   -11058.257    49.944517   -11108.202   -26215.386 
  957800    266.74477   -11054.987    44.526467   -11099.513    35201.499 
  958000    267.56603   -11058.691    44.663556   -11103.354    37008.077 
  958200    260.89967   -11068.078    43.550772   -11111.629    10174.398 
  958400    314.96019   -11055.035    52.574845    -11107.61    62407.875 
  958600    250.80983   -11053.434    41.866522   -11095.301    930.31905 
  958800    292.51446   -11047.724    48.828082   -11096.552   -1323.5654 
  959000    277.50856    -11063.12    46.323217   -11109.443   -18672.803 
  959200    326.00578   -11053.429    54.418632   -11107.848   -29916.248 
  959400    328.79986   -11049.048    54.885037   -11103.933   -26514.418 
  959600    279.05481   -11055.254    46.581325   -11101.835    7255.5892 
  959800    258.49617   -11062.019    43.149567   -11105.169    14613.875 
  960000    331.24767       -11056    55.293637   -11111.294    23768.197 
  960200    334.27627   -11055.114    55.799187   -11110.913   -10192.361 
  960400    220.13709   -11067.842    36.746463   -11104.589    2587.5158 
  960600    263.40952   -11058.142    43.969729   -11102.112    133432.94 
  960800    343.48589   -11044.434    57.336508   -11101.771    -26871.77 
  961000    288.83747   -11037.258    48.214299   -11085.472   -49678.201 
  961200    308.29041   -11052.705    51.461488   -11104.167   -3230.1747 
  961400    219.05278   -11067.947    36.565465   -11104.512    38475.694 
  961600    324.12307   -11051.368     54.10436   -11105.472    37680.809 
  961800    268.77079   -11053.536    44.864662   -11098.401   -7517.5678 
  962000    323.30629   -11061.004    53.968019   -11114.972   -29124.496 
  962200    349.99994   -11044.444    58.423868   -11102.868    26722.578 
  962400    298.19925   -11061.397    49.777018   -11111.174   -9959.3177 
  962600    228.74409   -11063.357     38.18319    -11101.54    58098.685 
  962800    311.51247   -11051.475    51.999332   -11103.474   -1374.3359 
  963000    316.33564   -11051.931    52.804442   -11104.736   -43663.062 
  963200    276.43224   -11060.149    46.143552   -11106.293    46587.661 
  963400    299.58487   -11047.887    50.008314   -11097.895    60553.293 
  963600     294.2377   -11065.388    49.115734   -11114.504    30699.668 
  963800    312.25138   -11058.779    52.122676   -11110.902   -22562.233 
  964000    268.57976   -11053.897    44.832774    -11098.73   -52724.255 
  964200    339.98782   -11045.517     56.75259   -11102.269    -27110.27 
  964400    313.54985   -11062.899    52.339422   -11115.238   -31910.341 
  964600    339.00663   -11052.123    56.588805   -11108.712     21650.54 
  964800    267.07603   -11053.045    44.581763   -11097.627   -23256.167 
  965000    264.67714    -11063.48    44.181327   -11107.662    46237.468 
  965200    261.28544   -11050.101    43.615168   -11093.717   -28368.018 
  965400    372.47481   -11031.952    62.175493   -11094.127   -21622.719 
  965600    280.59941   -11058.202    46.839158   -11105.042    8285.0038 
  965800    330.77334    -11057.54     55.21446   -11112.755   -39445.122 
  966000    254.18998   -11054.257    42.430754   -11096.688    19415.209 
  966200    289.10459   -11060.074    48.258889   -11108.333    52305.529 
  966400    272.97068   -11054.945     45.56573   -11100.511    54139.238 
  966600    338.90004    -11042.72    56.571012   -11099.291    38128.885 
  966800    281.09186   -11060.273     46.92136   -11107.194    32693.855 
  967000    279.93269   -11057.621    46.727866   -11104.348    34826.995 
  967200    312.71579   -11043.301    52.200197   -11095.502    4050.1631 
  967400    251.75602    -11067.67    42.024466   -11109.695    70756.425 
  967600    272.29318   -11056.268    45.452638    -11101.72   -67287.137 
  967800    321.60497   -11038.772    53.684027   -11092.456     32206.86 
  968000    321.56277   -11056.948    53.676982   -11110.625   -36601.484 
  968200    256.35144   -11058.383    42.791557   -11101.174   -39322.245 
  968400     312.9252   -11047.765    52.235152       -11100   -40320.889 
  968600    270.07352   -11062.983    45.082121   -11108.065   -28226.738 
  968800    258.58294   -11061.034    43.164051   -11104.198   -26397.565 
  969000    316.05696   -11046.238    52.757923   -11098.996    46200.202 
  969200    231.34233   -11063.361    38.616902   -11101.978    -11086.83 
  969400     299.1607   -11062.337    49.937508   -11112.275    20753.689 
  969600     313.4188   -11052.404    52.317547   -11104.721    16735.782 
  969800    256.98525   -11056.121    42.897356   -11099.019    18400.841 
  970000     297.3389   -11061.279    49.633403   -11110.913   -11494.225 
  970200    240.33003   -11069.737    40.117178   -11109.854     35248.35 
  970400    319.00528   -11051.986    53.250073   -11105.236    1151.6408 
  970600     285.8702   -11061.101    47.718986    -11108.82    99406.895 
  970800    295.31301   -11062.383    49.295232   -11111.678    45785.411 
  971000    299.32143   -11050.078    49.964338   -11100.043    14937.243 
  971200    276.55322   -11063.912    46.163746   -11110.075    56498.513 
  971400    328.04349   -11044.496    54.758778   -11099.255    1338.5076 
  971600    288.87058   -11048.307    48.219827   -11096.527   -37858.632 
  971800    254.81822   -11062.537    42.535624   -11105.073   -47404.647 
  972000    324.80863     -11053.3    54.218799   -11107.519    -66819.51 
  972200    309.72745   -11052.372    51.701367   -11104.074   -42433.327 
  972400    277.87489   -11055.445    46.384366    -11101.83   -9773.0868 
  972600    299.99595   -11063.353    50.076933    -11113.43   -18616.651 
  972800     237.3417   -11067.733     39.61835   -11107.352   -20484.271 
  973000    308.79432   -11055.596    51.545603   -11107.141   -17259.428 
  973200    284.67561   -11059.883     47.51958   -11107.403    -34558.25 
  973400    305.08109   -11058.621    50.925772   -11109.547    4963.6166 
  973600    295.65445   -11048.009    49.352227   -11097.361    11319.545 
  973800    322.87606   -11051.453    53.896203   -11105.349   -15835.529 
  974000    277.07716   -11061.809    46.251206    -11108.06   -38924.778 
  974200    239.33535   -11051.702     39.95114   -11091.653   -794.13625 
  974400    352.46516   -11040.129    58.835374   -11098.965   -1266.6087 
  974600    338.93741   -11056.582    56.577251   -11113.159    25912.888 
  974800    266.76248   -11060.377    44.529424   -11104.906   -18174.683 
  975000    377.62058   -11044.193    63.034452   -11107.227    13478.328 
  975200    340.52928   -11050.012    56.842974   -11106.855   -14663.003 
  975400    284.99663   -11064.193    47.573165   -11111.766    2991.6167 
  975600    329.51334   -11048.959    55.004134   -11103.963   -16920.932 
  975800    310.92634   -11053.946    51.901493   -11105.848   -7474.1427 
  976000    274.40922   -11056.031    45.805859   -11101.837   -38797.674 
  976200    328.09291   -11053.699    54.767028   -11108.466   -12098.597 
  976400    281.01134   -11063.837     46.90792   -11110.745    32039.993 
  976600    293.62526   -11053.942    49.013504   -11102.955    20013.748 
  976800    354.45055   -11047.412    59.166787   -11106.579    -47315.22 
  977000    283.35231   -11060.471    47.298686    -11107.77    43893.611 
  977200    269.09769   -11066.756    44.919229   -11111.675    17041.298 
  977400    305.15639   -11057.545    50.938341   -11108.483   -19802.855 
  977600    293.61632   -11057.184    49.012011   -11106.196   -16599.879 
  977800    325.07792   -11058.342     54.26375   -11112.605   -10983.212 
  978000    244.77094   -11075.147    40.858477   -11116.006    -19920.09 
  978200    317.00361   -11058.091    52.915943   -11111.007    1271.0833 
  978400    338.83202   -11051.969    56.559659   -11108.528    69634.947 
  978600    398.15422   -11037.057    66.462038   -11103.519   -8400.3293 
  978800    305.35122   -11058.218    50.970863   -11109.189   -6369.4802 
  979000    245.70347    -11060.54    41.014141   -11101.555   -18678.134 
  979200    318.11102   -11051.245    53.100797   -11104.346    164.27521 
  979400    357.75915   -11044.492    59.719077   -11104.211   -29728.333 
  979600     269.8138    -11061.94    45.038767   -11106.979   -7017.3898 
  979800    303.77825   -11050.026    50.708295   -11100.735    50671.761 
  980000    331.48404   -11046.766    55.333093   -11102.099    73892.827 
  980200     280.9985   -11062.892    46.905777   -11109.798    17324.437 
  980400    257.15499   -11061.039     42.92569   -11103.964   -5214.3927 
  980600    366.07473   -11042.285    61.107158   -11103.392    13516.022 
  980800     368.3086   -11051.903    61.480047   -11113.383    15509.582 
  981000    311.30945    -11058.59    51.965443   -11110.555    23364.968 
  981200    276.55557   -11068.392    46.164138   -11114.556   -30695.481 
  981400    280.72751   -11062.686    46.860542   -11109.546   -17046.307 
  981600    284.21894   -11050.561     47.44335   -11098.005    18474.192 
  981800    314.65364   -11061.759    52.523673   -11114.283   -29022.463 
  982000    250.38588   -11067.217    41.795754   -11109.013   -57408.537 
  982200     298.5724   -11055.303    49.839305   -11105.142     60610.11 
  982400    306.37427    -11055.14    51.141636   -11106.282   -31066.871 
  982600    262.54051   -11071.059    43.824669   -11114.884    50918.364 
  982800    328.84493   -11055.917    54.892559   -11110.809   -20066.566 
  983000     321.8951   -11053.066    53.732456   -11106.798    37126.739 
  983200    283.00248   -11067.076    47.240292   -11114.317    7419.4513 
  983400     302.9616   -11059.315    50.571975   -11109.887    24828.474 
  983600    331.93801   -11052.799    55.408873   -11108.208    30623.397 
  983800    230.70782   -11069.371    38.510986   -11107.882    21586.848 
  984000    303.81148   -11063.951    50.713841   -11114.664   -321.00059 
  984200    322.87215   -11053.681     53.89555   -11107.576   -37281.885 
  984400    253.39032   -11063.787    42.297271   -11106.084    4297.5324 
  984600    321.37251   -11056.697    53.645223   -11110.343    10035.904 
  984800    344.56304   -11046.956     57.51631   -11104.472    11018.226 
  985000    275.63452   -11060.874    46.010391   -11106.884    6799.2034 
  985200    286.57747   -11055.082    47.837048   -11102.919   -15406.592 
  985400    333.26074   -11051.275    55.629669   -11106.905    -39601.81 
  985600    289.76938   -11059.039    48.369859   -11107.408   -8018.8148 
  985800    265.43658   -11056.414    44.308097   -11100.722    17756.554 
  986000    297.78091   -11057.326    49.707186   -11107.033    38250.634 
  986200    276.33123   -11056.632    46.126691   -11102.759   -40061.528 
  986400    338.19789   -11045.402    56.453805   -11101.856    75657.005 
  986600    307.81583   -11064.717    51.382269   -11116.099   -20576.913 
  986800    278.57969   -11058.075    46.502016   -11104.577   -17159.149 
  987000    316.03176   -11041.631    52.753716   -11094.384   -7043.4355 
  987200     289.3592   -11058.345    48.301389   -11106.646   -10240.663 
  987400    307.59895   -11054.794    51.346066    -11106.14    55073.846 
  987600    393.05804   -11045.101    65.611356   -11110.713    2866.8798 
  987800    270.65985   -11055.907    45.179993   -11101.087     14871.12 
  988000    261.99811   -11064.863    43.734129   -11108.597    28395.321 
  988200    319.25431   -11064.932    53.291642   -11118.224    5201.2134 
  988400    326.66776   -11045.925    54.529135   -11100.454   -36011.009 
  988600    311.11354    -11057.69    51.932741   -11109.622    28996.981 
  988800     240.0202   -11074.184    40.065459   -11114.249    1152.2599 
  989000    260.45339   -11059.369    43.476276   -11102.845    4711.0281 
  989200    327.67142   -11055.108    54.696671   -11109.804   -2311.7362 
  989400    293.59101   -11061.931    49.007786   -11110.939   -6141.7907 
  989600    305.87258   -11046.656    51.057892   -11097.714   -30155.574 
  989800    287.56138   -11057.516    48.001288   -11105.518   -260.29002 
  990000     312.8304   -11059.933    52.219329   -11112.153    60120.116 
  990200    306.84905   -11057.763    51.220889   -11108.984   -10131.488 
  990400    286.64364   -11040.218    47.848093   -11088.066   -3933.1911 
  990600    283.92229    -11057.51    47.393831   -11104.903   -20152.108 
  990800    358.23083   -11055.018     59.79781   -11114.816   -29167.816 
  991000    296.91545   -11061.925    49.562719   -11111.488    39132.295 
  991200     305.5978   -11066.346    51.012023   -11117.358    4379.7365 
  991400    366.34316   -11045.985    61.151964   -11107.137   -31153.501 
  991600    306.09966   -11052.681    51.095796   -11103.777   -40435.362 
  991800    253.90859   -11065.639    42.383783   -11108.022   -16183.336 
  992000    290.89134   -11049.288    48.557143   -11097.846   -16893.924 
  992200    264.16944   -11051.368     44.09658   -11095.464    7384.8838 
  992400    311.89565   -11058.877    52.063295   -11110.941   -3769.9309 
  992600    316.90406   -11058.693    52.899325   -11111.592    41414.256 
  992800      283.032   -11070.928    47.245219   -11118.174   -18834.756 
  993000    310.58577   -11054.278    51.844643   -11106.123   -2610.2764 
  993200    298.73059   -11055.785    49.865712   -11105.651   -31965.995 
  993400    293.75678   -11060.283    49.035457   -11109.319   -16003.244 
  993600    289.41313   -11059.047    48.310391   -11107.358   -33550.742 
  993800     309.9965   -11050.816    51.746279   -11102.563   -13046.912 
  994000     298.5194   -11057.427    49.830459   -11107.257    25576.179 
  994200    281.86094   -11062.384     47.04974   -11109.434    14190.626 
  994400    192.71651   -11074.096    32.169273   -11106.266   -20452.609 
  994600    318.78999   -11057.274    53.214135   -11110.488    26285.363 
  994800    308.62247   -11060.271    51.516917   -11111.788     47036.22 
  995000    313.81646    -11054.28    52.383926   -11106.664    6523.9175 
  995200    295.82953   -11055.735    49.381452   -11105.116   -29328.321 
  995400    350.05517   -11051.168    58.433086   -11109.601    2047.3378 
  995600    284.58735    -11064.32    47.504846   -11111.825   -3736.8771 
  995800    291.36284   -11061.125    48.635848   -11109.761     50304.86 
  996000    294.12743   -11050.448    49.097329   -11099.545    29856.651 
  996200    300.01336   -11053.629     50.07984   -11103.709   -1960.2599 
  996400     263.6265   -11064.935     44.00595   -11108.941   -36528.367 
  996600     336.6761   -11052.576    56.199781   -11108.776   -60559.928 
  996800    259.58632   -11062.844     43.33154   -11106.175    6912.4947 
  997000    294.09755   -11046.412    49.092341   -11095.504    49566.889 
  997200    292.10402   -11051.954     48.75957   -11100.713   -15405.117 
  997400    291.03883   -11050.665    48.581762   -11099.246    -21008.43 
  997600     296.6987   -11047.566    49.526539   -11097.093   -25544.744 
  997800    276.68862   -11063.497    46.186349   -11109.684    -24790.74 
  998000     294.0676   -11060.855    49.087341   -11109.943   -71195.091 
  998200    320.83939   -11040.458    53.556231   -11094.014    12448.315 
  998400    324.67974   -11060.178    54.197283   -11114.375   -38899.133 
  998600    279.86091   -11055.584    46.715883     -11102.3    43666.389 
  998800    302.40467   -11058.542    50.479008   -11109.021   -17702.511 
  999000    258.29444   -11068.899    43.115893   -11112.014   -16016.473 
  999200    332.16462   -11053.482    55.446699   -11108.929    19165.267 
  999400    299.67313   -11044.409    50.023046   -11094.432   -16162.636 
  999600    338.19824   -11047.367    56.453864   -11103.821    35821.679 
  999800    238.85887   -11061.952    39.871603   -11101.823   -8983.8175 
 1000000    333.38251   -11046.831    55.649997   -11102.481   -20187.716 
Loop time of 9061.3 on 8 procs for 1000000 steps with 57 atoms

Performance: 2.384 ns/day, 10.068 hours/ns, 110.359 timesteps/s
99.1% CPU use with 8 MPI tasks x no OpenMP threads

MPI task timing breakdown:
Section |  min time  |  avg time  |  max time  |%varavg| %total
---------------------------------------------------------------
Pair    | 8217.6     | 8422.5     | 8629.9     | 144.7 | 92.95
Neigh   | 1.1111     | 1.16       | 1.2163     |   3.8 |  0.01
Comm    | 28.823     | 235.56     | 440.09     | 864.1 |  2.60
Output  | 0.13031    | 0.14953    | 0.27285    |  12.1 |  0.00
Modify  | 397.71     | 398.58     | 399.32     |   2.7 |  4.40
Other   |            | 3.4        |            |       |  0.04

Nlocal:    7.125 ave 13 max 1 min
Histogram: 1 1 2 0 0 0 0 1 2 1
Nghost:    1127.88 ave 1134 max 1122 min
Histogram: 1 2 1 0 0 0 0 2 1 1
Neighs:    1935 ave 3590 max 279 min
Histogram: 1 1 2 0 0 0 0 2 1 1

Total # of neighbors = 15480
Ave neighs/atom = 271.579
Neighbor list builds = 522
Dangerous builds = 0

Please see the log.cite file for references relevant to this simulation

Total wall time: 2:31:52
