ITEM: TIMESTEP
0
ITEM: NUMBER OF ATOMS
130
ITEM: BOX BOUNDS xy xz yz pp pp pp
0.0000000000000000e+00 2.3654499999999999e+01 7.8845000000000001e+00
0.0000000000000000e+00 1.3658086643083999e+01 0.0000000000000000e+00
0.0000000000000000e+00 2.5747000000000000e+01 0.0000000000000000e+00
ITEM: ATOMS id type x y z 
18 1 10.522 6.683 2.644 
28 1 5.247 4.273 12.803 
31 1 9.65 6.514 0.446 
62 1 9.171 5.15 12.405 
91 1 9.65 6.514 11.889 
92 1 10.81 6.18 11.007 
106 1 10.522 6.683 9.691 
127 1 10.81 6.18 1.328 
4 1 4.402 5.735 13.319 
5 1 3.307 5.568 14.201 
43 1 4.549 6.796 15.517 
52 1 9.172 5.15 25.677 
66 1 4.402 5.735 24.762 
67 1 5.003 6.76 23.881 
88 1 5.247 4.273 25.278 
107 1 3.307 5.568 23.881 
116 1 4.549 6.796 22.565 
117 1 5.003 6.76 14.201 
11 1 11.272 7.494 3.321 
12 1 10.477 8.871 4.018 
14 1 9.018 11.397 0.446 
15 1 10.114 11.565 1.328 
16 1 8.412 9.024 0.654 
19 1 10.477 8.871 5.569 
29 1 10.927 10.156 3.321 
32 1 8.77 7.648 1.328 
35 1 12.036 9.594 2.644 
45 1 9.231 8.963 3.321 
47 1 12.762 8.702 0.446 
49 1 11.224 11 0.654 
51 1 8.872 10.337 2.644 
53 1 11.272 7.494 9.014 
54 1 10.477 8.871 8.317 
56 1 9.018 11.397 11.889 
57 1 8.418 10.372 11.007 
58 1 11.224 11 11.681 
60 1 12.255 7.901 9.691 
61 1 10.477 8.871 6.766 
73 1 9.231 8.963 9.014 
75 1 12.762 8.702 11.889 
76 1 12.202 10.061 11.007 
79 1 9.224 7.617 9.691 
80 1 8.174 12.859 12.405 
89 1 10.927 10.156 9.014 
93 1 8.412 9.024 11.681 
95 1 9.951 11.095 9.691 
105 1 10.114 11.565 11.007 
109 1 8.77 7.648 11.007 
110 1 12.036 9.594 9.691 
114 1 8.872 10.337 9.691 
119 1 8.418 10.372 1.328 
120 1 12.255 7.901 2.644 
123 1 12.202 10.061 1.328 
124 1 9.224 7.617 2.644 
128 1 9.951 11.095 2.644 
6 1 5.009 8.108 13.527 
13 1 9.663 10.28 25.128 
17 1 9.204 8.965 25.162 
30 1 10.016 7.556 25.128 
34 1 11.289 7.464 25.162 
36 1 8.174 12.859 25.677 
46 1 11.752 8.777 25.128 
50 1 10.937 10.184 25.162 
55 1 9.663 10.28 12.954 
59 1 10.937 10.184 12.919 
74 1 11.752 8.777 12.954 
78 1 11.289 7.464 12.919 
90 1 10.016 7.556 12.954 
94 1 9.204 8.965 12.919 
101 1 5.009 8.108 24.555 
33 1 11.795 6.589 0.654 
77 1 11.795 6.589 11.681 
41 1 17.967 6.132 13.527 
68 1 17.967 6.132 24.554 
103 1 19.24 6.037 22.565 
126 1 19.24 6.037 15.517 
3 1 19.528 6.852 12.254 
7 1 19.987 8.167 12.289 
10 1 15.106 8.528 12.804 
22 1 19.175 9.576 12.254 
26 1 17.902 9.668 12.289 
38 1 17.439 8.356 12.254 
42 1 18.254 6.949 12.289 
44 1 20.019 11.982 12.804 
48 1 12.546 7.4 1.328 
65 1 19.528 6.852 0.081 
69 1 18.254 6.949 0.046 
82 1 17.439 8.356 0.081 
86 1 17.902 9.668 0.046 
96 1 14.084 8.604 12.405 
98 1 19.175 9.576 0.081 
102 1 19.987 8.167 0.046 
113 1 12.546 7.4 11.007 
129 2 19.987 8.167 10.938 
130 3 19.987 8.167 9.962 
1 1 17.919 9.638 16.194 
2 1 18.714 8.261 16.892 
8 1 18.669 10.449 15.517 
9 1 18.714 8.261 18.442 
20 1 14.084 8.604 25.677 
21 1 18.264 6.977 16.194 
23 1 19.541 10.618 13.32 
24 1 20.421 9.484 14.201 
25 1 17.396 10.544 13.527 
27 1 17.155 7.538 15.517 
37 1 19.96 8.169 16.194 
39 1 16.429 8.43 13.319 
40 1 16.644 9.732 14.201 
63 1 17.919 9.638 21.888 
64 1 18.714 8.261 21.19 
70 1 16.936 9.231 22.565 
71 1 18.714 8.261 19.64 
72 1 20.019 11.982 25.278 
81 1 19.96 8.169 21.888 
83 1 16.429 8.43 24.762 
84 1 16.989 7.071 23.881 
85 1 17.396 10.544 24.555 
87 1 19.967 9.515 22.565 
97 1 18.263 6.977 21.888 
99 1 19.541 10.618 24.762 
100 1 18.38 10.953 23.881 
104 1 15.106 8.528 25.278 
108 1 18.669 10.449 22.565 
111 1 20.421 9.484 23.881 
112 1 17.155 7.538 22.565 
115 1 16.644 9.732 23.881 
118 1 16.936 9.231 15.517 
121 1 16.989 7.071 14.201 
122 1 19.967 9.515 15.517 
125 1 18.38 10.953 14.201 
ITEM: TIMESTEP
10
ITEM: NUMBER OF ATOMS
130
ITEM: BOX BOUNDS xy xz yz pp pp pp
0.0000000000000000e+00 2.3654499999999999e+01 7.8845000000000001e+00
0.0000000000000000e+00 1.3658086643083999e+01 0.0000000000000000e+00
0.0000000000000000e+00 2.5747000000000000e+01 0.0000000000000000e+00
ITEM: ATOMS id type x y z 
18 1 10.387 6.71774 2.6276 
28 1 5.12373 4.52553 12.8778 
31 1 9.48059 6.50727 0.420395 
62 1 9.13654 5.24587 12.384 
91 1 9.45557 6.48825 11.9131 
92 1 10.7972 6.19141 10.9866 
106 1 10.3846 6.73875 9.68442 
127 1 10.7941 6.22701 1.33436 
4 1 4.45073 5.75887 13.2829 
5 1 3.17485 5.57991 14.2124 
43 1 4.595 6.92846 15.48 
52 1 9.13764 5.24093 25.6932 
66 1 4.45134 5.75581 24.8253 
67 1 5.0509 6.9099 23.8935 
88 1 5.13121 4.51266 25.2039 
107 1 3.17172 5.62259 23.8774 
116 1 4.59231 6.9457 22.5907 
117 1 5.04687 6.93959 14.1531 
11 1 11.223 7.54967 3.41568 
12 1 10.5175 8.77323 4.10885 
14 1 8.96518 11.3628 0.354344 
15 1 10.2455 11.5248 1.32938 
16 1 8.41237 8.93839 0.703017 
19 1 10.4776 8.86633 5.58865 
29 1 10.9117 10.1235 3.33798 
32 1 8.73709 7.67754 1.31827 
35 1 12.0678 9.5615 2.58691 
45 1 9.27426 8.97692 3.25818 
47 1 12.7178 8.81785 0.512758 
49 1 11.3296 10.8908 0.670526 
51 1 8.83211 10.2262 2.61726 
53 1 11.2323 7.55438 8.91509 
54 1 10.5028 8.81331 8.24916 
56 1 8.9705 11.3725 11.9526 
57 1 8.35613 10.1822 11.0198 
58 1 11.3439 10.8989 11.6374 
60 1 12.3178 8.1016 9.69544 
61 1 10.4772 8.86882 6.77297 
73 1 9.22962 8.96413 9.07574 
75 1 12.7175 8.80821 11.8019 
76 1 12.2151 10.0698 11.0187 
79 1 9.18748 7.66821 9.77903 
80 1 8.29847 12.6159 12.3324 
89 1 10.94 10.1452 9.00332 
93 1 8.40582 8.95844 11.5948 
95 1 10.006 11.0296 9.68116 
105 1 10.2374 11.5289 11.0101 
109 1 8.7296 7.69901 11.0096 
110 1 12.0673 9.56177 9.75077 
114 1 8.86434 10.2148 9.72739 
119 1 8.35536 10.2132 1.30904 
120 1 12.3297 8.10358 2.66216 
123 1 12.2266 10.0659 1.30428 
124 1 9.19658 7.67767 2.58631 
128 1 10.0001 11.0654 2.65293 
6 1 4.99497 8.15756 13.5756 
13 1 9.59947 10.3245 25.1335 
17 1 9.21661 8.96706 25.1456 
30 1 9.97137 7.6846 25.0946 
34 1 11.2806 7.46421 25.1477 
36 1 8.27741 12.6506 25.7394 
46 1 11.6848 8.82679 25.1057 
50 1 10.9471 10.1087 25.1573 
55 1 9.5837 10.3564 12.9635 
59 1 10.9221 10.0705 12.9393 
74 1 11.7103 8.82492 12.9813 
78 1 11.2787 7.4953 12.9524 
90 1 9.97253 7.66058 13.0165 
94 1 9.2238 8.98283 12.9295 
101 1 4.98967 8.17852 24.5145 
33 1 11.7288 6.58905 0.690255 
77 1 11.7648 6.58881 11.6566 
41 1 17.8541 6.19285 13.5754 
68 1 17.89 6.23518 24.5287 
103 1 19.1599 6.07742 22.5732 
126 1 19.181 6.07003 15.5351 
3 1 19.4594 6.80571 12.2476 
7 1 20.0864 8.21399 12.1477 
10 1 15.1345 8.47485 12.8431 
22 1 19.2097 9.51926 12.2675 
26 1 17.8936 9.6312 12.2591 
38 1 17.518 8.32423 12.2722 
42 1 18.2783 6.98454 12.2816 
44 1 20.0471 11.8972 12.8216 
48 1 12.6138 7.50632 1.3763 
65 1 19.5906 6.82702 0.0927982 
69 1 18.2561 7.0245 0.041633 
82 1 17.5142 8.32149 0.0993566 
86 1 17.9055 9.64414 0.0850983 
96 1 14.0522 8.6552 12.3574 
98 1 19.2158 9.45317 0.108573 
102 1 19.9882 8.15402 0.044815 
113 1 12.6049 7.53374 10.9409 
129 2 20.0382 8.17644 10.9815 
130 3 19.986 8.16557 9.94872 
1 1 17.9475 9.59682 16.2848 
2 1 18.6774 8.32845 16.97 
8 1 18.7898 10.4 15.5366 
9 1 18.7181 8.26353 18.441 
20 1 14.0519 8.65671 25.7245 
21 1 18.2363 6.99508 16.1995 
23 1 19.7284 10.6269 13.2841 
24 1 20.4721 9.39923 14.1542 
25 1 17.4374 10.5297 13.5515 
27 1 17.1428 7.55339 15.4607 
37 1 19.9571 8.18237 16.1369 
39 1 16.4992 8.3236 13.3575 
40 1 16.5698 9.61009 14.2646 
63 1 17.9599 9.56643 21.8029 
64 1 18.6966 8.30589 21.1456 
70 1 16.8659 9.05104 22.5403 
71 1 18.7151 8.26278 19.6635 
72 1 20.0518 11.8785 25.2578 
81 1 19.9271 8.17451 21.9318 
83 1 16.4769 8.31932 24.6897 
84 1 16.971 7.07374 23.8975 
85 1 17.4614 10.5748 24.5283 
87 1 20.0121 9.43602 22.6286 
97 1 18.2489 7.00938 21.8801 
99 1 19.7296 10.6168 24.8096 
100 1 18.379 10.9528 23.8863 
104 1 15.13 8.4745 25.2341 
108 1 18.7813 10.4055 22.5457 
111 1 20.4538 9.43645 23.9122 
112 1 17.1474 7.54719 22.6121 
115 1 16.5801 9.59513 23.804 
118 1 16.8601 9.04648 15.5426 
121 1 16.9667 7.07243 14.1829 
122 1 19.9818 9.46661 15.4376 
125 1 18.4182 10.9376 14.2214 
ITEM: TIMESTEP
20
ITEM: NUMBER OF ATOMS
130
ITEM: BOX BOUNDS xy xz yz pp pp pp
0.0000000000000000e+00 2.3654499999999999e+01 7.8845000000000001e+00
0.0000000000000000e+00 1.3658086643083999e+01 0.0000000000000000e+00
0.0000000000000000e+00 2.5747000000000000e+01 0.0000000000000000e+00
ITEM: ATOMS id type x y z 
18 1 10.3739 6.76688 2.65869 
28 1 5.10543 4.5756 12.8902 
31 1 9.42968 6.53016 0.417019 
62 1 9.11025 5.26627 12.3813 
91 1 9.43721 6.52003 11.9219 
92 1 10.7985 6.20813 10.9772 
106 1 10.3745 6.77416 9.68021 
127 1 10.7836 6.22145 1.34998 
4 1 4.42392 5.78165 13.2857 
5 1 3.16111 5.61738 14.2268 
43 1 4.58349 6.95415 15.4819 
52 1 9.11219 5.26026 25.6943 
66 1 4.43929 5.78395 24.8093 
67 1 5.05994 6.93973 23.9012 
88 1 5.11047 4.56528 25.1905 
107 1 3.16753 5.64057 23.8776 
116 1 4.59353 6.94367 22.5874 
117 1 5.04988 6.95172 14.1682 
11 1 11.2311 7.55417 3.40983 
12 1 10.5177 8.78438 4.08931 
14 1 8.97524 11.3466 0.386394 
15 1 10.253 11.4801 1.32691 
16 1 8.40418 8.91557 0.706079 
19 1 10.4785 8.86049 5.56781 
29 1 10.9425 10.1184 3.3231 
32 1 8.70965 7.6815 1.29109 
35 1 12.0565 9.59129 2.61068 
45 1 9.2387 8.95428 3.25651 
47 1 12.706 8.82272 0.525185 
49 1 11.3261 10.9025 0.672649 
51 1 8.83538 10.1972 2.6092 
53 1 11.2326 7.55592 8.92459 
54 1 10.5135 8.8103 8.26291 
56 1 8.98387 11.345 11.9336 
57 1 8.34759 10.1792 11.021 
58 1 11.3252 10.9058 11.6644 
60 1 12.3093 8.09145 9.66895 
61 1 10.4774 8.86772 6.77967 
73 1 9.21676 8.94926 9.0717 
75 1 12.7042 8.82063 11.8085 
76 1 12.2601 10.0787 11.0174 
79 1 9.18404 7.66137 9.7723 
80 1 8.31851 12.5678 12.3207 
89 1 10.945 10.1207 9.00767 
93 1 8.4013 8.92294 11.6264 
95 1 10.049 11.0443 9.68958 
105 1 10.2517 11.4892 11.0089 
109 1 8.7006 7.68192 11.0476 
110 1 12.0666 9.59833 9.72016 
114 1 8.84616 10.1893 9.72801 
119 1 8.35759 10.1834 1.30614 
120 1 12.3214 8.09005 2.65939 
123 1 12.2655 10.0728 1.31366 
124 1 9.18817 7.67431 2.57332 
128 1 10.0368 11.0469 2.64686 
6 1 5.01317 8.19591 13.555 
13 1 9.58825 10.3196 25.1009 
17 1 9.2035 8.95989 25.1477 
30 1 9.94586 7.69208 25.0843 
34 1 11.282 7.48669 25.136 
36 1 8.30409 12.5873 25.7531 
46 1 11.6931 8.81916 25.1089 
50 1 10.9511 10.109 25.1451 
55 1 9.57953 10.3256 12.9865 
59 1 10.9465 10.0942 12.9306 
74 1 11.6974 8.82202 12.9815 
78 1 11.2707 7.4964 12.938 
90 1 9.94948 7.69503 13.0125 
94 1 9.20493 8.95988 12.9243 
101 1 5.01555 8.20445 24.509 
33 1 11.7415 6.62168 0.701186 
77 1 11.7394 6.61768 11.6412 
41 1 17.8403 6.17136 13.585 
68 1 17.8687 6.23056 24.5336 
103 1 19.1453 6.10379 22.5681 
126 1 19.1606 6.09682 15.5325 
3 1 19.466 6.83164 12.2338 
7 1 20.0935 8.22131 12.1221 
10 1 15.1465 8.458 12.8404 
22 1 19.2372 9.50912 12.2545 
26 1 17.9065 9.6363 12.2556 
38 1 17.5158 8.30845 12.2509 
42 1 18.2745 6.97157 12.2748 
44 1 20.0737 11.8896 12.819 
48 1 12.5914 7.56412 1.39555 
65 1 19.6046 6.82102 0.120463 
69 1 18.2441 7.02925 0.0599587 
82 1 17.4972 8.31187 0.0973157 
86 1 17.9074 9.63853 0.0760703 
96 1 14.0482 8.67161 12.3618 
98 1 19.2471 9.44655 0.124171 
102 1 19.9945 8.1717 0.0646068 
113 1 12.5904 7.56173 10.9421 
129 2 20.06 8.18163 10.9698 
130 3 19.987 8.16515 9.94871 
1 1 17.9505 9.57425 16.2923 
2 1 18.6797 8.32741 16.952 
8 1 18.8103 10.365 15.5385 
9 1 18.717 8.2678 18.4379 
20 1 14.0451 8.67378 25.7187 
21 1 18.2365 7.00503 16.2072 
23 1 19.7735 10.5983 13.2865 
24 1 20.4874 9.41441 14.1501 
25 1 17.4486 10.5117 13.5892 
27 1 17.1235 7.54343 15.4808 
37 1 19.9664 8.19394 16.1367 
39 1 16.4956 8.30571 13.3811 
40 1 16.5912 9.569 14.2777 
63 1 17.9631 9.57313 21.8036 
64 1 18.6768 8.31747 21.1387 
70 1 16.872 9.04219 22.5372 
71 1 18.7165 8.2647 19.648 
72 1 20.0788 11.8637 25.2588 
81 1 19.9677 8.18941 21.9385 
83 1 16.4844 8.31139 24.6909 
84 1 16.9326 7.05961 23.8907 
85 1 17.4546 10.5285 24.5131 
87 1 20.0021 9.46152 22.6436 
97 1 18.2389 7.00015 21.8799 
99 1 19.7617 10.5936 24.8008 
100 1 18.3941 10.933 23.85 
104 1 15.1412 8.45997 25.237 
108 1 18.8037 10.3615 22.5584 
111 1 20.4779 9.44086 23.9217 
112 1 17.1282 7.53728 22.5955 
115 1 16.6087 9.57057 23.8085 
118 1 16.8693 9.04359 15.5389 
121 1 16.9311 7.05685 14.1821 
122 1 19.9952 9.46449 15.4278 
125 1 18.4058 10.917 14.2319 
ITEM: TIMESTEP
30
ITEM: NUMBER OF ATOMS
130
ITEM: BOX BOUNDS xy xz yz pp pp pp
0.0000000000000000e+00 2.3654499999999999e+01 7.8845000000000001e+00
0.0000000000000000e+00 1.3658086643083999e+01 0.0000000000000000e+00
0.0000000000000000e+00 2.5747000000000000e+01 0.0000000000000000e+00
ITEM: ATOMS id type x y z 
18 1 10.3534 6.78502 2.66252 
28 1 5.10211 4.60222 12.894 
31 1 9.39053 6.55648 0.412611 
62 1 9.0671 5.28197 12.3814 
91 1 9.40379 6.55502 11.9208 
92 1 10.7825 6.22912 10.9662 
106 1 10.353 6.78237 9.67428 
127 1 10.779 6.23842 1.36531 
4 1 4.39408 5.83305 13.2888 
5 1 3.1536 5.66459 14.2278 
43 1 4.56077 6.97074 15.4765 
52 1 9.0693 5.27823 25.6956 
66 1 4.4127 5.84347 24.7984 
67 1 5.07022 6.97063 23.8923 
88 1 5.10319 4.59703 25.1825 
107 1 3.16508 5.67903 23.8874 
116 1 4.5718 6.96131 22.5979 
117 1 5.04737 6.98409 14.1637 
11 1 11.2352 7.57615 3.4215 
12 1 10.5128 8.80267 4.05915 
14 1 8.99705 11.2971 0.414611 
15 1 10.2469 11.4481 1.31924 
16 1 8.3776 8.89861 0.686292 
19 1 10.4784 8.8564 5.56494 
29 1 10.9467 10.1141 3.34185 
32 1 8.66927 7.65646 1.2741 
35 1 12.0955 9.60506 2.61541 
45 1 9.19577 8.94093 3.27234 
47 1 12.6891 8.84466 0.533475 
49 1 11.3556 10.8949 0.648304 
51 1 8.85875 10.1704 2.60453 
53 1 11.2302 7.57757 8.92037 
54 1 10.509 8.80013 8.27207 
56 1 9.00001 11.2865 11.916 
57 1 8.34488 10.161 11.0218 
58 1 11.3547 10.9033 11.6807 
60 1 12.3147 8.10352 9.64981 
61 1 10.4759 8.86258 6.76965 
73 1 9.20409 8.93753 9.06882 
75 1 12.6907 8.84993 11.8071 
76 1 12.301 10.0869 11.0141 
79 1 9.17451 7.65839 9.77061 
80 1 8.32331 12.5393 12.3137 
89 1 10.9444 10.1115 9.00614 
93 1 8.36844 8.89972 11.6441 
95 1 10.054 11.0354 9.67791 
105 1 10.2606 11.4527 11.0095 
109 1 8.6643 7.64928 11.0657 
110 1 12.0953 9.61516 9.7097 
114 1 8.8566 10.1742 9.73 
119 1 8.35351 10.1639 1.30996 
120 1 12.3138 8.09862 2.69192 
123 1 12.3017 10.0944 1.32398 
124 1 9.17629 7.65596 2.56088 
128 1 10.051 11.0297 2.65693 
6 1 5.0315 8.21894 13.5356 
13 1 9.58273 10.3052 25.054 
17 1 9.19892 8.9664 25.1443 
30 1 9.92919 7.69124 25.0687 
34 1 11.2691 7.50084 25.1366 
36 1 8.31963 12.5382 25.7655 
46 1 11.6947 8.82472 25.1068 
50 1 10.9459 10.1052 25.1576 
55 1 9.58418 10.3006 13.0247 
59 1 10.9443 10.1126 12.9303 
74 1 11.6906 8.81648 12.9699 
78 1 11.2723 7.50068 12.9532 
90 1 9.93117 7.69882 13.0182 
94 1 9.18765 8.96721 12.9447 
101 1 5.04472 8.22828 24.5223 
33 1 11.7182 6.65413 0.706075 
77 1 11.7215 6.64567 11.6272 
41 1 17.8095 6.17531 13.5648 
68 1 17.8386 6.23253 24.5548 
103 1 19.1481 6.10487 22.5509 
126 1 19.1514 6.10118 15.5541 
3 1 19.4521 6.8651 12.2247 
7 1 20.114 8.22042 12.1065 
10 1 15.1516 8.44198 12.8307 
22 1 19.2345 9.48508 12.2498 
26 1 17.9143 9.64239 12.2514 
38 1 17.5419 8.29846 12.2604 
42 1 18.2603 6.96682 12.2889 
44 1 20.114 11.8651 12.8231 
48 1 12.5798 7.6071 1.39397 
65 1 19.6135 6.82634 0.149112 
69 1 18.243 7.0262 0.0566183 
82 1 17.4995 8.3132 0.100225 
86 1 17.9184 9.63356 0.0759164 
96 1 14.0566 8.68523 12.3746 
98 1 19.2597 9.43801 0.142796 
102 1 19.9997 8.1685 0.0766183 
113 1 12.576 7.60943 10.9353 
129 2 20.089 8.18938 10.9476 
130 3 19.9914 8.1653 9.94363 
1 1 17.9489 9.55583 16.292 
2 1 18.6696 8.3349 16.9397 
8 1 18.8403 10.3445 15.5358 
9 1 18.7177 8.27082 18.4381 
20 1 14.0499 8.68979 25.7075 
21 1 18.2471 7.02873 16.207 
23 1 19.8 10.5799 13.2826 
24 1 20.5184 9.44352 14.1347 
25 1 17.4635 10.4898 13.5966 
27 1 17.0944 7.53065 15.493 
37 1 19.9896 8.19431 16.1329 
39 1 16.5143 8.28733 13.39 
40 1 16.6087 9.51166 14.263 
63 1 17.9538 9.55638 21.7948 
64 1 18.6727 8.32933 21.1445 
70 1 16.8755 9.02995 22.5174 
71 1 18.7175 8.26838 19.6446 
72 1 20.1224 11.849 25.2591 
81 1 19.9901 8.18519 21.9494 
83 1 16.5025 8.28648 24.6767 
84 1 16.8937 7.0418 23.8842 
85 1 17.4715 10.4897 24.5017 
87 1 20.0081 9.46911 22.6473 
97 1 18.2443 7.02238 21.8784 
99 1 19.7946 10.5734 24.7948 
100 1 18.4055 10.9045 23.8437 
104 1 15.1389 8.44758 25.2454 
108 1 18.8416 10.3469 22.5517 
111 1 20.5185 9.46623 23.9345 
112 1 17.0961 7.52279 22.5842 
115 1 16.6172 9.52751 23.815 
118 1 16.8747 9.01969 15.5653 
121 1 16.8963 7.03431 14.2006 
122 1 20.0092 9.46678 15.4306 
125 1 18.4166 10.8946 14.2444 
ITEM: TIMESTEP
40
ITEM: NUMBER OF ATOMS
130
ITEM: BOX BOUNDS xy xz yz pp pp pp
0.0000000000000000e+00 2.3654499999999999e+01 7.8845000000000001e+00
0.0000000000000000e+00 1.3658086643083999e+01 0.0000000000000000e+00
0.0000000000000000e+00 2.5747000000000000e+01 0.0000000000000000e+00
ITEM: ATOMS id type x y z 
18 1 10.3519 6.79622 2.66911 
28 1 5.09583 4.62727 12.8978 
31 1 9.38083 6.56517 0.4062 
62 1 9.0372 5.29053 12.3815 
91 1 9.38671 6.56384 11.9276 
92 1 10.7711 6.24554 10.9679 
106 1 10.3507 6.79492 9.66948 
127 1 10.7641 6.25202 1.36417 
4 1 4.39524 5.84902 13.2878 
5 1 3.13667 5.67723 14.2288 
43 1 4.56584 6.9725 15.4681 
52 1 9.03965 5.28912 25.6971 
66 1 4.41851 5.86181 24.8021 
67 1 5.07415 6.98949 23.8996 
88 1 5.09762 4.6202 25.1762 
107 1 3.14838 5.69516 23.8838 
116 1 4.57432 6.96299 22.603 
117 1 5.04603 7.00198 14.1602 
11 1 11.2334 7.56815 3.41401 
12 1 10.5078 8.78912 4.07196 
14 1 8.99912 11.2721 0.403117 
15 1 10.2721 11.4346 1.32259 
16 1 8.36378 8.88863 0.679246 
19 1 10.4767 8.85594 5.56597 
29 1 10.9474 10.1013 3.3252 
32 1 8.64642 7.65249 1.27658 
35 1 12.0996 9.62378 2.6311 
45 1 9.20702 8.93492 3.26107 
47 1 12.6948 8.86243 0.528538 
49 1 11.361 10.893 0.655517 
51 1 8.8527 10.1675 2.60191 
53 1 11.2321 7.57142 8.92361 
54 1 10.5056 8.79215 8.266 
56 1 9.00109 11.2693 11.9255 
57 1 8.34404 10.1384 11.0246 
58 1 11.3625 10.893 11.6812 
60 1 12.3128 8.12083 9.64431 
61 1 10.4749 8.85872 6.76953 
73 1 9.20548 8.9347 9.07747 
75 1 12.6975 8.86088 11.8089 
76 1 12.3182 10.098 11.0105 
79 1 9.15558 7.66198 9.78229 
80 1 8.32953 12.5129 12.3057 
89 1 10.947 10.1021 9.01004 
93 1 8.35979 8.88753 11.6554 
95 1 10.053 11.0265 9.68296 
105 1 10.2736 11.4386 11.0104 
109 1 8.64471 7.65095 11.0586 
110 1 12.1046 9.62559 9.70457 
114 1 8.85422 10.168 9.73364 
119 1 8.34686 10.1396 1.3072 
120 1 12.3162 8.11646 2.69304 
123 1 12.3178 10.0978 1.32483 
124 1 9.15774 7.66527 2.5573 
128 1 10.0532 11.0247 2.65121 
6 1 5.04411 8.23277 13.5254 
13 1 9.57773 10.3095 25.0539 
17 1 9.18978 8.96005 25.1355 
30 1 9.929 7.69771 25.0642 
34 1 11.2651 7.49671 25.1311 
36 1 8.32423 12.5157 25.772 
46 1 11.6889 8.82183 25.1133 
50 1 10.9434 10.1033 25.1465 
55 1 9.57534 10.3091 13.0265 
59 1 10.9414 10.1018 12.933 
74 1 11.6906 8.82363 12.9692 
78 1 11.2629 7.49754 12.9481 
90 1 9.92916 7.69742 13.023 
94 1 9.18763 8.96092 12.9465 
101 1 5.05779 8.23941 24.5331 
33 1 11.7093 6.67041 0.715055 
77 1 11.7112 6.66884 11.6213 
41 1 17.7963 6.17375 13.5743 
68 1 17.8305 6.23993 24.5541 
103 1 19.14 6.10892 22.5562 
126 1 19.1474 6.10745 15.5504 
3 1 19.4489 6.87012 12.2145 
7 1 20.1231 8.22724 12.0946 
10 1 15.1494 8.43309 12.8279 
22 1 19.2495 9.49177 12.2425 
26 1 17.9212 9.63022 12.2556 
38 1 17.5291 8.30129 12.2586 
42 1 18.2565 6.96594 12.289 
44 1 20.1438 11.8607 12.8216 
48 1 12.5684 7.62317 1.40161 
65 1 19.6133 6.8254 0.158019 
69 1 18.2489 7.03042 0.0606748 
82 1 17.5006 8.31111 0.0964568 
86 1 17.9264 9.63564 0.0761511 
96 1 14.058 8.69212 12.3748 
98 1 19.2621 9.43546 0.149386 
102 1 20.0034 8.17167 0.0787537 
113 1 12.5655 7.62656 10.9361 
129 2 20.107 8.19493 10.9406 
130 3 19.9958 8.16552 9.93332 
1 1 17.9528 9.56253 16.288 
2 1 18.681 8.34566 16.9456 
8 1 18.8376 10.3348 15.5424 
9 1 18.7181 8.27351 18.4406 
20 1 14.0495 8.69832 25.7073 
21 1 18.2413 7.03397 16.2043 
23 1 19.8121 10.5706 13.2801 
24 1 20.5415 9.45107 14.1376 
25 1 17.4751 10.4709 13.6006 
27 1 17.0874 7.50822 15.5083 
37 1 19.9838 8.19884 16.1364 
39 1 16.5129 8.26348 13.3864 
40 1 16.622 9.50198 14.2726 
63 1 17.9579 9.563 21.7966 
64 1 18.6833 8.3386 21.1402 
70 1 16.8746 9.014 22.5184 
71 1 18.7185 8.27111 19.6447 
72 1 20.1528 11.8395 25.2583 
81 1 19.9843 8.19549 21.9463 
83 1 16.4966 8.27198 24.6812 
84 1 16.8748 7.03459 23.8821 
85 1 17.4792 10.4672 24.4963 
87 1 20.0317 9.4657 22.6546 
97 1 18.2417 7.02824 21.8844 
99 1 19.8072 10.5662 24.8014 
100 1 18.4223 10.8889 23.8428 
104 1 15.1405 8.43935 25.2451 
108 1 18.8358 10.3379 22.5433 
111 1 20.5425 9.47538 23.934 
112 1 17.0868 7.50824 22.5767 
115 1 16.6264 9.50977 23.8077 
118 1 16.8707 9.01151 15.5649 
121 1 16.8729 7.0258 14.2026 
122 1 20.0324 9.46405 15.4244 
125 1 18.4231 10.882 14.2432 
ITEM: TIMESTEP
50
ITEM: NUMBER OF ATOMS
130
ITEM: BOX BOUNDS xy xz yz pp pp pp
0.0000000000000000e+00 2.3654499999999999e+01 7.8845000000000001e+00
0.0000000000000000e+00 1.3658086643083999e+01 0.0000000000000000e+00
0.0000000000000000e+00 2.5747000000000000e+01 0.0000000000000000e+00
ITEM: ATOMS id type x y z 
18 1 10.3331 6.80688 2.66792 
28 1 5.09278 4.66203 12.9004 
31 1 9.35423 6.57696 0.402626 
62 1 8.97749 5.30478 12.3833 
91 1 9.35757 6.57668 11.9315 
92 1 10.7436 6.27229 10.9725 
106 1 10.3331 6.80847 9.66755 
127 1 10.7403 6.27608 1.36189 
4 1 4.38155 5.88004 13.2866 
5 1 3.12228 5.69937 14.2276 
43 1 4.56539 6.98426 15.461 
52 1 8.9792 5.30226 25.6956 
66 1 4.41153 5.89178 24.8004 
67 1 5.0805 7.02024 23.9051 
88 1 5.09687 4.64907 25.1687 
107 1 3.13812 5.72177 23.8905 
116 1 4.57141 6.97546 22.612 
117 1 5.04651 7.03321 14.1521 
11 1 11.2337 7.5819 3.41872 
12 1 10.503 8.78395 4.06235 
14 1 9.00771 11.2412 0.410901 
15 1 10.2809 11.4107 1.31786 
16 1 8.33644 8.87233 0.66267 
19 1 10.4734 8.8516 5.56725 
29 1 10.9463 10.0908 3.32735 
32 1 8.60605 7.63916 1.27031 
35 1 12.1279 9.64181 2.63942 
45 1 9.19793 8.93018 3.25824 
47 1 12.6956 8.8829 0.53112 
49 1 11.3781 10.8813 0.645952 
51 1 8.85155 10.1536 2.59627 
53 1 11.2314 7.58059 8.92054 
54 1 10.5028 8.78114 8.2687 
56 1 9.00716 11.2405 11.9218 
57 1 8.33996 10.1127 11.0338 
58 1 11.378 10.8808 11.6871 
60 1 12.3125 8.14207 9.63285 
61 1 10.4727 8.8526 6.76771 
73 1 9.20122 8.92936 9.08068 
75 1 12.7028 8.88645 11.8104 
76 1 12.3482 10.1151 11.0035 
79 1 9.1353 7.65765 9.78277 
80 1 8.32945 12.4834 12.2972 
89 1 10.9465 10.0914 9.01195 
93 1 8.33501 8.86905 11.6722 
95 1 10.0545 11.0105 9.68567 
105 1 10.2839 11.4113 11.0173 
109 1 8.60576 7.63797 11.0682 
110 1 12.1253 9.64482 9.69533 
114 1 8.8499 10.1563 9.7392 
119 1 8.34133 10.113 1.30273 
120 1 12.3125 8.14068 2.70589 
123 1 12.3457 10.1171 1.33604 
124 1 9.13372 7.65727 2.55294 
128 1 10.0554 11.009 2.64878 
6 1 5.06986 8.25572 13.5121 
13 1 9.5719 10.2951 25.0341 
17 1 9.17942 8.96059 25.1231 
30 1 9.9201 7.69589 25.0492 
34 1 11.2611 7.50104 25.1291 
36 1 8.32607 12.4837 25.7811 
46 1 11.6853 8.82107 25.1122 
50 1 10.9396 10.0991 25.1443 
55 1 9.57163 10.2958 13.0445 
59 1 10.937 10.0992 12.9366 
74 1 11.6848 8.81851 12.968 
78 1 11.2623 7.50119 12.9541 
90 1 9.91942 7.70004 13.0332 
94 1 9.17873 8.95727 12.9577 
101 1 5.08294 8.25908 24.5468 
33 1 11.6916 6.69904 0.722512 
77 1 11.6934 6.69694 11.6119 
41 1 17.7724 6.18019 13.5726 
68 1 17.8139 6.25187 24.5605 
103 1 19.1387 6.12132 22.5597 
126 1 19.1427 6.11979 15.5473 
3 1 19.4428 6.88321 12.1987 
7 1 20.1382 8.23204 12.079 
10 1 15.1481 8.41983 12.8283 
22 1 19.2424 9.49168 12.2288 
26 1 17.9412 9.61603 12.2738 
38 1 17.5311 8.29918 12.2547 
42 1 18.2464 6.96639 12.296 
44 1 20.2044 11.8531 12.8179 
48 1 12.5571 7.65434 1.40356 
65 1 19.6203 6.8349 0.172392 
69 1 18.2517 7.03479 0.064562 
82 1 17.5069 8.31278 0.0971358 
86 1 17.9308 9.63255 0.0799676 
96 1 14.0626 8.70429 12.3759 
98 1 19.2712 9.43414 0.161031 
102 1 20.0109 8.1741 0.0883703 
113 1 12.5565 7.65635 10.9316 
129 2 20.1405 8.20493 10.92 
130 3 20.0075 8.16625 9.91441 
1 1 17.9539 9.55518 16.2887 
2 1 18.6794 8.35502 16.9451 
8 1 18.8596 10.3172 15.5417 
9 1 18.7198 8.27972 18.4417 
20 1 14.0544 8.7111 25.7055 
21 1 18.2464 7.04722 16.209 
23 1 19.8337 10.5649 13.2767 
24 1 20.5812 9.46096 14.1354 
25 1 17.4917 10.438 13.5974 
27 1 17.0617 7.49229 15.5191 
37 1 19.9957 8.20204 16.1301 
39 1 16.5132 8.24385 13.3903 
40 1 16.6361 9.46771 14.2673 
63 1 17.9568 9.55105 21.793 
64 1 18.6843 8.35068 21.1429 
70 1 16.878 8.99213 22.5036 
71 1 18.7208 8.27681 19.6456 
72 1 20.2138 11.8268 25.2599 
81 1 19.9928 8.20012 21.956 
83 1 16.4957 8.24937 24.6777 
84 1 16.845 7.01584 23.8749 
85 1 17.4977 10.4367 24.4863 
87 1 20.052 9.47121 22.6569 
97 1 18.2452 7.04313 21.8841 
99 1 19.8332 10.5549 24.8068 
100 1 18.448 10.8603 23.8465 
104 1 15.136 8.42619 25.2475 
108 1 18.8596 10.3236 22.5428 
111 1 20.5824 9.48867 23.9405 
112 1 17.0646 7.48811 22.5681 
115 1 16.6358 9.47903 23.8069 
118 1 16.8745 8.98674 15.5791 
121 1 16.8403 7.0026 14.2211 
122 1 20.0548 9.46981 15.4227 
125 1 18.4411 10.8597 14.2411 
ITEM: TIMESTEP
60
ITEM: NUMBER OF ATOMS
130
ITEM: BOX BOUNDS xy xz yz pp pp pp
0.0000000000000000e+00 2.3654499999999999e+01 7.8845000000000001e+00
0.0000000000000000e+00 1.3658086643083999e+01 0.0000000000000000e+00
0.0000000000000000e+00 2.5747000000000000e+01 0.0000000000000000e+00
ITEM: ATOMS id type x y z 
18 1 10.3322 6.81316 2.67032 
28 1 5.09272 4.67108 12.9006 
31 1 9.34918 6.5789 0.398264 
62 1 8.95948 5.30828 12.3844 
91 1 9.35209 6.5781 11.9359 
92 1 10.7367 6.27988 10.9742 
106 1 10.3325 6.81212 9.6668 
127 1 10.7332 6.2826 1.35964 
4 1 4.382 5.88498 13.2868 
5 1 3.11736 5.70372 14.2257 
43 1 4.56771 6.9852 15.457 
52 1 8.96145 5.30749 25.6953 
66 1 4.41367 5.89728 24.8022 
67 1 5.0835 7.02453 23.9082 
88 1 5.098 4.65567 25.1669 
107 1 3.13425 5.72619 23.891 
116 1 4.57571 6.9762 22.6155 
117 1 5.0477 7.03965 14.1487 
11 1 11.2322 7.57688 3.41316 
12 1 10.5019 8.77977 4.06995 
14 1 9.0066 11.2351 0.405763 
15 1 10.2869 11.4065 1.3172 
16 1 8.33253 8.86776 0.658037 
19 1 10.4723 8.85019 5.56477 
29 1 10.9472 10.0877 3.32288 
32 1 8.5979 7.63807 1.2705 
35 1 12.1277 9.6475 2.64434 
45 1 9.19961 8.92774 3.25509 
47 1 12.6977 8.88973 0.529976 
49 1 11.3796 10.8789 0.647401 
51 1 8.8476 10.1542 2.59253 
53 1 11.2317 7.57813 8.92401 
54 1 10.5024 8.78067 8.26646 
56 1 9.00739 11.2349 11.9265 
57 1 8.33621 10.1053 11.0341 
58 1 11.3802 10.8786 11.6868 
60 1 12.3117 8.14648 9.63207 
61 1 10.4718 8.85074 6.76928 
73 1 9.19981 8.92798 9.08249 
75 1 12.7034 8.89051 11.8094 
76 1 12.3529 10.1187 11.003 
79 1 9.12589 7.65875 9.78652 
80 1 8.32755 12.4776 12.2955 
89 1 10.947 10.0877 9.01364 
93 1 8.33051 8.86685 11.6774 
95 1 10.0529 11.0079 9.68954 
105 1 10.2879 11.4062 11.0173 
109 1 8.59732 7.63657 11.0652 
110 1 12.1277 9.64908 9.69298 
114 1 8.84711 10.1544 9.74283 
119 1 8.3375 10.1063 1.30073 
120 1 12.3129 8.14537 2.70488 
123 1 12.3507 10.1192 1.3347 
124 1 9.12567 7.65957 2.55071 
128 1 10.0525 11.0066 2.645 
6 1 5.07278 8.25999 13.5046 
13 1 9.57064 10.2977 25.0349 
17 1 9.17866 8.95419 25.1212 
30 1 9.92036 7.69746 25.0488 
34 1 11.2571 7.49877 25.1278 
36 1 8.325 12.4767 25.7832 
46 1 11.6844 8.82119 25.114 
50 1 10.9357 10.095 25.1416 
55 1 9.56904 10.2968 13.0452 
59 1 10.9354 10.094 12.939 
74 1 11.6861 8.82158 12.9674 
78 1 11.2571 7.49901 12.9534 
90 1 9.92083 7.69739 13.0345 
94 1 9.17739 8.95436 12.9602 
101 1 5.08824 8.26295 24.5525 
33 1 11.6879 6.70542 0.724645 
77 1 11.6898 6.7046 11.611 
41 1 17.7683 6.17902 13.5749 
68 1 17.8117 6.25403 24.5607 
103 1 19.1381 6.1244 22.5626 
126 1 19.1449 6.12399 15.5454 
3 1 19.4398 6.8872 12.1943 
7 1 20.1429 8.23719 12.0775 
10 1 15.1481 8.41688 12.8289 
22 1 19.2389 9.48552 12.2259 
26 1 17.9528 9.6184 12.2648 
38 1 17.5304 8.28663 12.2559 
42 1 18.2446 6.96758 12.2956 
44 1 20.2219 11.8453 12.8184 
48 1 12.5529 7.65998 1.40655 
65 1 19.6205 6.83526 0.174592 
69 1 18.255 7.03794 0.0665843 
82 1 17.506 8.31197 0.0953292 
86 1 17.934 9.63374 0.080536 
96 1 14.0637 8.70605 12.376 
98 1 19.271 9.43491 0.163009 
102 1 20.013 8.17729 0.090081 
113 1 12.5528 7.66266 10.9314 
129 2 20.1494 8.20721 10.9166 
130 3 20.0127 8.16675 9.90832 
1 1 17.9548 9.55603 16.2854 
2 1 18.6858 8.35835 16.9468 
8 1 18.8582 10.315 15.5419 
9 1 18.7205 8.28166 18.4407 
20 1 14.0544 8.71297 25.7059 
21 1 18.243 7.04789 16.2063 
23 1 19.8414 10.5679 13.2782 
24 1 20.5873 9.46715 14.1334 
25 1 17.4929 10.436 13.6095 
27 1 17.0609 7.48643 15.5262 
37 1 19.9921 8.20431 16.1316 
39 1 16.5106 8.23187 13.3878 
40 1 16.6393 9.46478 14.2748 
63 1 17.9589 9.55589 21.797 
64 1 18.6888 8.35179 21.1412 
70 1 16.8777 8.98715 22.5049 
71 1 18.7217 8.27888 19.6461 
72 1 20.232 11.8231 25.2607 
81 1 19.9912 8.20286 21.9544 
83 1 16.4934 8.24291 24.6796 
84 1 16.8398 7.01323 23.8746 
85 1 17.5025 10.4299 24.4851 
87 1 20.0634 9.47071 22.6605 
97 1 18.2438 7.04339 21.8873 
99 1 19.8398 10.5534 24.81 
100 1 18.455 10.8531 23.8483 
104 1 15.1358 8.42408 25.2475 
108 1 18.8568 10.3198 22.5404 
111 1 20.5908 9.49235 23.9398 
112 1 17.0629 7.48398 22.5648 
115 1 16.639 9.47316 23.8027 
118 1 16.8749 8.98501 15.5771 
121 1 16.8332 7.00212 14.2202 
122 1 20.0659 9.46746 15.4193 
125 1 18.45 10.8553 14.2398 
ITEM: TIMESTEP
70
ITEM: NUMBER OF ATOMS
130
ITEM: BOX BOUNDS xy xz yz pp pp pp
0.0000000000000000e+00 2.3654499999999999e+01 7.8845000000000001e+00
0.0000000000000000e+00 1.3658086643083999e+01 0.0000000000000000e+00
0.0000000000000000e+00 2.5747000000000000e+01 0.0000000000000000e+00
ITEM: ATOMS id type x y z 
18 1 10.3289 6.81509 2.66895 
28 1 5.09335 4.67693 12.9004 
31 1 9.34442 6.58 0.397369 
62 1 8.94589 5.31123 12.3853 
91 1 9.34687 6.57921 11.937 
92 1 10.7314 6.28462 10.9758 
106 1 10.3294 6.81448 9.66724 
127 1 10.728 6.28723 1.35876 
4 1 4.38159 5.88869 13.2867 
5 1 3.11563 5.70658 14.225 
43 1 4.56899 6.98767 15.4546 
52 1 8.94766 5.31027 25.6945 
66 1 4.414 5.9008 24.8029 
67 1 5.08544 7.02832 23.9099 
88 1 5.09941 4.65982 25.1658 
107 1 3.13344 5.72944 23.8925 
116 1 4.57699 6.97822 22.6176 
117 1 5.04834 7.04471 14.1466 
11 1 11.2319 7.57833 3.41233 
12 1 10.5016 8.77854 4.06925 
14 1 9.00629 11.2315 0.405739 
15 1 10.2874 11.403 1.31579 
16 1 8.32828 8.86499 0.655044 
19 1 10.4714 8.84895 5.56551 
29 1 10.9461 10.0865 3.32202 
32 1 8.59208 7.63639 1.26959 
35 1 12.1301 9.65064 2.64551 
45 1 9.19804 8.92733 3.25369 