ITEM: TIMESTEP
0
ITEM: NUMBER OF ATOMS
130
ITEM: BOX BOUNDS xy xz yz pp pp pp
0.0000000000000000e+00 2.3654499999999999e+01 7.8845000000000001e+00
0.0000000000000000e+00 1.3658086643083999e+01 0.0000000000000000e+00
0.0000000000000000e+00 2.5747000000000000e+01 0.0000000000000000e+00
ITEM: ATOMS id type x y z 
18 1 10.522 6.683 2.644 
28 1 5.247 4.273 12.803 
31 1 9.65 6.514 0.446 
62 1 9.171 5.15 12.405 
91 1 9.65 6.514 11.889 
92 1 10.81 6.18 11.007 
106 1 10.522 6.683 9.691 
127 1 10.81 6.18 1.328 
4 1 4.402 5.735 13.319 
5 1 3.307 5.568 14.201 
43 1 4.549 6.796 15.517 
52 1 9.172 5.15 25.677 
66 1 4.402 5.735 24.762 
67 1 5.003 6.76 23.881 
88 1 5.247 4.273 25.278 
107 1 3.307 5.568 23.881 
116 1 4.549 6.796 22.565 
117 1 5.003 6.76 14.201 
11 1 11.272 7.494 3.321 
12 1 10.477 8.871 4.018 
14 1 9.018 11.397 0.446 
15 1 10.114 11.565 1.328 
16 1 8.412 9.024 0.654 
19 1 10.477 8.871 5.569 
29 1 10.927 10.156 3.321 
32 1 8.77 7.648 1.328 
35 1 12.036 9.594 2.644 
45 1 9.231 8.963 3.321 
47 1 12.762 8.702 0.446 
49 1 11.224 11 0.654 
51 1 8.872 10.337 2.644 
53 1 11.272 7.494 9.014 
54 1 10.477 8.871 8.317 
56 1 9.018 11.397 11.889 
57 1 8.418 10.372 11.007 
58 1 11.224 11 11.681 
60 1 12.255 7.901 9.691 
61 1 10.477 8.871 6.766 
73 1 9.231 8.963 9.014 
75 1 12.762 8.702 11.889 
76 1 12.202 10.061 11.007 
79 1 9.224 7.617 9.691 
80 1 8.174 12.859 12.405 
89 1 10.927 10.156 9.014 
93 1 8.412 9.024 11.681 
95 1 9.951 11.095 9.691 
105 1 10.114 11.565 11.007 
109 1 8.77 7.648 11.007 
110 1 12.036 9.594 9.691 
114 1 8.872 10.337 9.691 
119 1 8.418 10.372 1.328 
120 1 12.255 7.901 2.644 
123 1 12.202 10.061 1.328 
124 1 9.224 7.617 2.644 
128 1 9.951 11.095 2.644 
6 1 5.009 8.108 13.527 
13 1 9.663 10.28 25.128 
17 1 9.204 8.965 25.162 
30 1 10.016 7.556 25.128 
34 1 11.289 7.464 25.162 
36 1 8.174 12.859 25.677 
46 1 11.752 8.777 25.128 
50 1 10.937 10.184 25.162 
55 1 9.663 10.28 12.954 
59 1 10.937 10.184 12.919 
74 1 11.752 8.777 12.954 
78 1 11.289 7.464 12.919 
90 1 10.016 7.556 12.954 
94 1 9.204 8.965 12.919 
101 1 5.009 8.108 24.555 
33 1 11.795 6.589 0.654 
77 1 11.795 6.589 11.681 
41 1 17.967 6.132 13.527 
68 1 17.967 6.132 24.554 
103 1 19.24 6.037 22.565 
126 1 19.24 6.037 15.517 
3 1 19.528 6.852 12.254 
7 1 19.987 8.167 12.289 
10 1 15.106 8.528 12.804 
22 1 19.175 9.576 12.254 
26 1 17.902 9.668 12.289 
38 1 17.439 8.356 12.254 
42 1 18.254 6.949 12.289 
44 1 20.019 11.982 12.804 
48 1 12.546 7.4 1.328 
65 1 19.528 6.852 0.081 
69 1 18.254 6.949 0.046 
82 1 17.439 8.356 0.081 
86 1 17.902 9.668 0.046 
96 1 14.084 8.604 12.405 
98 1 19.175 9.576 0.081 
102 1 19.987 8.167 0.046 
113 1 12.546 7.4 11.007 
1 1 17.919 9.638 16.194 
2 1 18.714 8.261 16.892 
8 1 18.669 10.449 15.517 
9 1 18.714 8.261 18.442 
20 1 14.084 8.604 25.677 
21 1 18.264 6.977 16.194 
23 1 19.541 10.618 13.32 
24 1 20.421 9.484 14.201 
25 1 17.396 10.544 13.527 
27 1 17.155 7.538 15.517 
37 1 19.96 8.169 16.194 
39 1 16.429 8.43 13.319 
40 1 16.644 9.732 14.201 
63 1 17.919 9.638 21.888 
64 1 18.714 8.261 21.19 
70 1 16.936 9.231 22.565 
71 1 18.714 8.261 19.64 
72 1 20.019 11.982 25.278 
81 1 19.96 8.169 21.888 
83 1 16.429 8.43 24.762 
84 1 16.989 7.071 23.881 
85 1 17.396 10.544 24.555 
87 1 19.967 9.515 22.565 
97 1 18.263 6.977 21.888 
99 1 19.541 10.618 24.762 
100 1 18.38 10.953 23.881 
104 1 15.106 8.528 25.278 
108 1 18.669 10.449 22.565 
111 1 20.421 9.484 23.881 
112 1 17.155 7.538 22.565 
115 1 16.644 9.732 23.881 
118 1 16.936 9.231 15.517 
121 1 16.989 7.071 14.201 
122 1 19.967 9.515 15.517 
125 1 18.38 10.953 14.201 
129 2 15.805 7.538 15.517 
130 3 14.829 7.538 15.517 
ITEM: TIMESTEP
10
ITEM: NUMBER OF ATOMS
130
ITEM: BOX BOUNDS xy xz yz pp pp pp
0.0000000000000000e+00 2.3654499999999999e+01 7.8845000000000001e+00
0.0000000000000000e+00 1.3658086643083999e+01 0.0000000000000000e+00
0.0000000000000000e+00 2.5747000000000000e+01 0.0000000000000000e+00
ITEM: ATOMS id type x y z 
18 1 10.384 6.75741 2.63475 
28 1 5.15618 4.45587 12.8608 
31 1 9.43728 6.46566 0.409847 
62 1 9.15032 5.24292 12.3803 
91 1 9.4344 6.48863 11.9253 
92 1 10.8332 6.17985 10.9758 
106 1 10.3813 6.75816 9.70418 
127 1 10.838 6.1816 1.35779 
4 1 4.45709 5.77661 13.2971 
5 1 3.1982 5.58399 14.1796 
43 1 4.54111 6.94701 15.5242 
52 1 9.15029 5.23885 25.7008 
66 1 4.44863 5.73563 24.8134 
67 1 5.10069 6.89397 23.8894 
88 1 5.15411 4.46069 25.2197 
107 1 3.1833 5.60648 23.8831 
116 1 4.57936 6.93372 22.5781 
117 1 5.03787 6.90464 14.1788 
11 1 11.3263 7.55168 3.34305 
12 1 10.4865 8.83493 4.11626 
14 1 8.96167 11.3878 0.401439 
15 1 10.2398 11.5306 1.3277 
16 1 8.43269 8.96608 0.701374 
19 1 10.4737 8.86927 5.55526 
29 1 10.9544 10.1371 3.34403 
32 1 8.74858 7.69217 1.27003 
35 1 12.0432 9.57955 2.57448 
45 1 9.24173 8.95239 3.26101 
47 1 12.7414 8.7793 0.551492 
49 1 11.2998 10.9108 0.681427 
51 1 8.82346 10.1911 2.6116 
53 1 11.3247 7.55234 8.99173 
54 1 10.4904 8.83977 8.221 
56 1 8.97849 11.3657 11.9403 
57 1 8.35231 10.2277 11.0249 
58 1 11.2903 10.9165 11.658 
60 1 12.2698 8.02582 9.63124 
61 1 10.4737 8.86957 6.78099 
73 1 9.23898 8.95748 9.077 
75 1 12.689 8.78506 11.7737 
76 1 12.2155 10.0748 11.0025 
79 1 9.24621 7.65443 9.77672 
80 1 8.26674 12.6717 12.347 
89 1 10.9442 10.145 9.00898 
93 1 8.44539 8.94281 11.6256 
95 1 10.0225 11.0649 9.70342 
105 1 10.2294 11.5202 10.9966 
109 1 8.75925 7.70889 11.0543 
110 1 12.0313 9.57814 9.74845 
114 1 8.8442 10.2043 9.72345 
119 1 8.34738 10.2259 1.31908 
120 1 12.2706 8.02057 2.69918 
123 1 12.2184 10.0578 1.31611 
124 1 9.25499 7.65601 2.58314 
128 1 10.0212 11.0925 2.64006 
6 1 4.97802 8.15353 13.5773 
13 1 9.53643 10.4015 25.0776 
17 1 9.26782 9.00616 25.159 
30 1 9.95705 7.6648 25.1133 
34 1 11.3062 7.4626 25.136 
36 1 8.26483 12.6743 25.7339 
46 1 11.6878 8.79124 25.0831 
50 1 10.9229 10.0578 25.18 
55 1 9.55535 10.3752 12.9724 
59 1 10.926 10.0809 12.9089 
74 1 11.6572 8.78483 13.0008 
78 1 11.287 7.48118 12.9453 
90 1 9.97667 7.67264 12.962 
94 1 9.25414 8.99155 12.9171 
101 1 4.98563 8.14644 24.5318 
33 1 11.7521 6.5706 0.682638 
77 1 11.7481 6.57107 11.6589 
41 1 17.9117 6.2057 13.54 
68 1 17.9003 6.23032 24.5231 
103 1 19.1747 6.05048 22.5719 
126 1 19.1353 6.01995 15.5231 
3 1 19.6508 6.74657 12.2082 
7 1 19.9189 8.12764 12.2942 
10 1 15.1277 8.481 12.8326 
22 1 19.239 9.46217 12.2276 
26 1 17.8737 9.69283 12.235 
38 1 17.5291 8.31693 12.171 
42 1 18.2891 7.07634 12.2712 
44 1 20.0384 11.8836 12.8308 
48 1 12.5952 7.54135 1.37129 
65 1 19.6585 6.72158 0.126924 
69 1 18.2943 7.08173 0.0317091 
82 1 17.4991 8.35049 0.134023 
86 1 17.8781 9.67145 0.0683077 
96 1 14.069 8.64093 12.3705 
98 1 19.2494 9.47899 0.0709768 
102 1 19.9021 8.09084 0.0564005 
113 1 12.5953 7.52486 10.9538 
1 1 17.9686 9.57727 16.2737 
2 1 18.6798 8.29829 16.9364 
8 1 18.8201 10.4026 15.5352 
9 1 18.7137 8.26108 18.4212 
20 1 14.0418 8.64307 25.7234 
21 1 18.3766 6.96058 16.2151 
23 1 19.7474 10.6579 13.2881 
24 1 20.4567 9.43217 14.1524 
25 1 17.4307 10.574 13.5498 
27 1 16.9733 7.55146 15.5181 
37 1 19.9926 8.21989 16.1601 
39 1 16.4753 8.3317 13.4282 
40 1 16.5833 9.63824 14.279 
63 1 17.8605 9.577 21.863 
64 1 18.7047 8.30039 21.0924 
70 1 16.9225 9.1048 22.5058 
71 1 18.7183 8.26332 19.6362 
72 1 20.0398 11.8927 25.2542 
81 1 19.9464 8.18078 21.9441 
83 1 16.4428 8.35346 24.6489 
84 1 16.9784 7.06924 23.8904 
85 1 17.4423 10.5641 24.5291 
87 1 19.9222 9.47524 22.5943 
97 1 18.2333 6.98938 21.8671 
99 1 19.7483 10.6976 24.8063 
100 1 18.3484 10.9498 23.8561 
104 1 15.1447 8.4881 25.2318 
108 1 18.8078 10.3756 22.5713 
111 1 20.4473 9.45536 23.9767 
112 1 17.1485 7.55718 22.6387 
115 1 16.5959 9.59265 23.8384 
118 1 16.8655 9.14827 15.4949 
121 1 17.0033 7.02698 14.1462 
122 1 19.9638 9.4844 15.4553 
125 1 18.3669 10.9561 14.2412 
129 2 15.822 7.51785 15.5796 
130 3 14.8183 7.53521 15.5208 
ITEM: TIMESTEP
20
ITEM: NUMBER OF ATOMS
130
ITEM: BOX BOUNDS xy xz yz pp pp pp
0.0000000000000000e+00 2.3654499999999999e+01 7.8845000000000001e+00
0.0000000000000000e+00 1.3658086643083999e+01 0.0000000000000000e+00
0.0000000000000000e+00 2.5747000000000000e+01 0.0000000000000000e+00
ITEM: ATOMS id type x y z 
18 1 10.3886 6.75695 2.63812 
28 1 5.14573 4.48345 12.87 
31 1 9.43373 6.50037 0.414256 
62 1 9.1376 5.24802 12.3805 
91 1 9.43341 6.50785 11.9253 
92 1 10.82 6.18222 10.9764 
106 1 10.3885 6.75541 9.69756 
127 1 10.8195 6.18319 1.36001 
4 1 4.45533 5.78666 13.293 
5 1 3.19868 5.59385 14.1885 
43 1 4.5481 6.94299 15.5287 
52 1 9.13783 5.24452 25.7009 
66 1 4.4509 5.75146 24.8013 
67 1 5.07652 6.90293 23.8878 
88 1 5.13921 4.49296 25.209 
107 1 3.19449 5.6201 23.8834 
116 1 4.57557 6.93866 22.5949 
117 1 5.03381 6.9074 14.1774 
11 1 11.3306 7.56331 3.34781 
12 1 10.4859 8.84999 4.09996 
14 1 8.97224 11.3666 0.400811 
15 1 10.2279 11.5116 1.32645 
16 1 8.43146 8.93964 0.703752 
19 1 10.4724 8.8684 5.55739 
29 1 10.9464 10.1375 3.33031 
32 1 8.74764 7.69612 1.27326 
35 1 12.0358 9.60244 2.59561 
45 1 9.23798 8.94553 3.2619 
47 1 12.7179 8.79011 0.539031 
49 1 11.3058 10.9082 0.672918 
51 1 8.84476 10.1909 2.61186 
53 1 11.3294 7.56281 8.98661 
54 1 10.4861 8.85042 8.23507 
56 1 8.97704 11.3553 11.9357 
57 1 8.3547 10.2193 11.0263 
58 1 11.3046 10.9152 11.6639 
60 1 12.2683 8.01667 9.62224 
61 1 10.4727 8.86895 6.77907 
73 1 9.23506 8.94652 9.07265 
75 1 12.6901 8.78878 11.7865 
76 1 12.2288 10.0704 11.0116 
79 1 9.23208 7.66317 9.77712 
80 1 8.28025 12.6402 12.3382 
89 1 10.9456 10.1368 9.00312 
93 1 8.43301 8.94055 11.6305 
95 1 10.031 11.06 9.68622 
105 1 10.2308 11.5139 11.0082 
109 1 8.74307 7.69537 11.0586 
110 1 12.0358 9.60242 9.73465 
114 1 8.84553 10.1908 9.72374 
119 1 8.35707 10.2227 1.3124 
120 1 12.2683 8.01665 2.71072 
123 1 12.232 10.0619 1.31456 
124 1 9.23159 7.66296 2.55351 
128 1 10.0312 11.0588 2.64865 
6 1 4.98601 8.18685 13.5801 
13 1 9.55175 10.3821 25.0874 
17 1 9.2503 8.9923 25.1579 
30 1 9.94981 7.68336 25.1153 
34 1 11.2917 7.47647 25.1299 
36 1 8.2812 12.638 25.7453 
46 1 11.6819 8.8009 25.1031 
50 1 10.9272 10.0683 25.1743 
55 1 9.56136 10.3625 12.9821 
59 1 10.943 10.095 12.9147 
74 1 11.6679 8.80257 12.983 
78 1 11.2878 7.47689 12.9485 
90 1 9.9551 7.68373 12.9672 
94 1 9.22968 8.97668 12.9245 
101 1 4.98987 8.15566 24.5296 
33 1 11.7563 6.58207 0.685144 
77 1 11.7521 6.58418 11.6526 
41 1 17.8979 6.21582 13.5356 
68 1 17.8918 6.23359 24.5366 
103 1 19.1608 6.07678 22.5591 
126 1 19.1278 6.03148 15.5203 
3 1 19.6423 6.76212 12.201 
7 1 19.9331 8.14717 12.2873 
10 1 15.1432 8.47219 12.8395 
22 1 19.2332 9.45104 12.2284 
26 1 17.8943 9.6637 12.2492 
38 1 17.5238 8.33151 12.1996 
42 1 18.2772 7.06576 12.2647 
44 1 20.0515 11.8799 12.8301 
48 1 12.5841 7.54117 1.37964 
65 1 19.6477 6.7271 0.138619 
69 1 18.276 7.08033 0.0360051 
82 1 17.5041 8.34207 0.115019 
86 1 17.8855 9.64811 0.0613987 
96 1 14.047 8.65035 12.3616 
98 1 19.2745 9.46899 0.0516761 
102 1 19.9324 8.10046 0.0506423 
113 1 12.5808 7.53715 10.9541 
1 1 17.9699 9.57186 16.268 
2 1 18.685 8.2956 16.923 
8 1 18.8159 10.396 15.5329 
9 1 18.713 8.2625 18.4199 
20 1 14.0424 8.65222 25.7216 
21 1 18.3431 6.97992 16.2004 
23 1 19.7507 10.6238 13.2943 
24 1 20.4539 9.43536 14.1528 
25 1 17.4439 10.5608 13.549 
27 1 16.9916 7.52621 15.5234 
37 1 19.9805 8.22699 16.1648 
39 1 16.5018 8.32208 13.4165 
40 1 16.5903 9.61843 14.259 
63 1 17.8566 9.56532 21.8552 
64 1 18.7018 8.28266 21.1114 
70 1 16.9224 9.11501 22.4961 
71 1 18.7196 8.26358 19.6346 
72 1 20.0554 11.9074 25.2616 
81 1 19.9496 8.19137 21.942 
83 1 16.4662 8.34454 24.6644 
84 1 16.962 7.06511 23.8945 
85 1 17.4361 10.5502 24.5328 
87 1 19.9486 9.46733 22.639 
97 1 18.243 6.99527 21.8751 
99 1 19.7542 10.6807 24.7971 
100 1 18.3647 10.9479 23.8496 
104 1 15.142 8.4795 25.2339 
108 1 18.8028 10.3759 22.5682 
111 1 20.4312 9.44425 23.9825 
112 1 17.1532 7.52855 22.6137 
115 1 16.6055 9.59259 23.8272 
118 1 16.8771 9.13834 15.5166 
121 1 16.9895 7.05384 14.1523 
122 1 19.9837 9.48337 15.4351 
125 1 18.3739 10.9467 14.2409 
129 2 15.8189 7.50889 15.5906 
130 3 14.8177 7.53374 15.5234 
ITEM: TIMESTEP
30
ITEM: NUMBER OF ATOMS
130
ITEM: BOX BOUNDS xy xz yz pp pp pp
0.0000000000000000e+00 2.3654499999999999e+01 7.8845000000000001e+00
0.0000000000000000e+00 1.3658086643083999e+01 0.0000000000000000e+00
0.0000000000000000e+00 2.5747000000000000e+01 0.0000000000000000e+00
ITEM: ATOMS id type x y z 
18 1 10.3868 6.77303 2.643 
28 1 5.12539 4.54382 12.8887 
31 1 9.41595 6.53732 0.407079 
62 1 9.1029 5.25932 12.3823 
91 1 9.41326 6.53959 11.9291 
92 1 10.8021 6.19867 10.9726 
106 1 10.3859 6.77235 9.69107 
127 1 10.8029 6.19992 1.36305 
4 1 4.44716 5.82195 13.2791 
5 1 3.1807 5.61395 14.1901 
43 1 4.53309 6.93998 15.5392 
52 1 9.1031 5.2565 25.6994 
66 1 4.44229 5.7876 24.8081 
67 1 5.06718 6.92158 23.8894 
88 1 5.11962 4.54301 25.1916 
107 1 3.18285 5.65407 23.8804 
116 1 4.56406 6.95435 22.5917 
117 1 5.01738 6.93861 14.1817 
11 1 11.3291 7.57982 3.35876 
12 1 10.4854 8.85113 4.09383 
14 1 8.98225 11.3272 0.395675 
15 1 10.2391 11.4801 1.32674 
16 1 8.40303 8.92366 0.692045 
19 1 10.4697 8.86735 5.5579 
29 1 10.9502 10.1318 3.3405 
32 1 8.70918 7.67735 1.2688 
35 1 12.0557 9.61728 2.60797 
45 1 9.22946 8.93498 3.26455 
47 1 12.6892 8.80712 0.53811 
49 1 11.3263 10.9059 0.660169 
51 1 8.85791 10.1775 2.61089 
53 1 11.3303 7.58019 8.97692 
54 1 10.4847 8.8507 8.24063 
56 1 8.98222 11.3264 11.9339 
57 1 8.35467 10.1891 11.0246 
58 1 11.3292 10.9131 11.6718 
60 1 12.2673 8.03668 9.60449 
61 1 10.4696 8.86744 6.7771 
73 1 9.22825 8.9354 9.06966 
75 1 12.6867 8.80774 11.7977 
76 1 12.2588 10.0708 11.0052 
79 1 9.21744 7.6583 9.78222 
80 1 8.30353 12.5809 12.3218 
89 1 10.95 10.1327 8.99368 
93 1 8.40115 8.92242 11.6392 
95 1 10.0345 11.0488 9.68332 
105 1 10.2402 11.4818 11.0089 
109 1 8.7059 7.6759 11.0632 
110 1 12.0548 9.6171 9.72482 
114 1 8.85839 10.1769 9.72602 
119 1 8.35741 10.1905 1.31183 
120 1 12.2692 8.0355 2.72826 
123 1 12.2631 10.0698 1.3273 
124 1 9.21822 7.65776 2.55078 
128 1 10.0346 11.0495 2.65292 
6 1 5.01369 8.20443 13.5774 
13 1 9.57719 10.3328 25.0787 
17 1 9.19671 8.97106 25.1409 
30 1 9.93555 7.70038 25.1044 
34 1 11.2703 7.48981 25.1279 
36 1 8.30269 12.5828 25.7617 
46 1 11.6853 8.81461 25.1213 
50 1 10.9528 10.113 25.1627 
55 1 9.57943 10.3271 13.0026 
59 1 10.951 10.1112 12.9221 
74 1 11.6816 8.81881 12.9599 
78 1 11.2718 7.49118 12.9562 
90 1 9.93233 7.69645 12.9794 
94 1 9.20214 8.97076 12.9422 
101 1 5.02876 8.17199 24.5396 
33 1 11.7384 6.60865 0.690462 
77 1 11.7375 6.60916 11.6455 
41 1 17.8805 6.22765 13.524 
68 1 17.8712 6.23561 24.5486 
103 1 19.1581 6.08712 22.5539 
126 1 19.126 6.05105 15.5046 
3 1 19.622 6.80177 12.1965 
7 1 19.9916 8.16683 12.2669 
10 1 15.1404 8.46104 12.8346 
22 1 19.2507 9.44135 12.2218 
26 1 17.9117 9.6481 12.2495 
38 1 17.5224 8.31673 12.2191 
42 1 18.2497 7.02679 12.2519 
44 1 20.0868 11.8692 12.8291 
48 1 12.5647 7.56524 1.38884 
65 1 19.6224 6.75972 0.153663 
69 1 18.252 7.03644 0.0492184 
82 1 17.5142 8.33239 0.090019 
86 1 17.916 9.63836 0.0568718 
96 1 14.0504 8.66406 12.3675 
98 1 19.292 9.44225 0.0332718 
102 1 19.9946 8.10659 0.0663818 
113 1 12.5608 7.56766 10.9467 
1 1 17.9702 9.55292 16.2804 
2 1 18.6967 8.29177 16.91 
8 1 18.8263 10.3779 15.5335 
9 1 18.7128 8.26565 18.4056 
20 1 14.0427 8.6686 25.7167 
21 1 18.3156 7.01916 16.2005 
23 1 19.7734 10.5872 13.288 
24 1 20.4821 9.45529 14.1459 
25 1 17.4595 10.5329 13.5577 
27 1 16.9793 7.49738 15.5501 
37 1 19.973 8.24418 16.1885 
39 1 16.5114 8.30311 13.3982 
40 1 16.6124 9.58592 14.2642 
63 1 17.8595 9.54533 21.8419 
64 1 18.7025 8.27918 21.1121 
70 1 16.9204 9.09522 22.4781 
71 1 18.7211 8.26326 19.6195 
72 1 20.0931 11.9246 25.275 
81 1 19.9564 8.20846 21.9451 
83 1 16.4953 8.32687 24.6669 
84 1 16.9303 7.06369 23.8834 
85 1 17.4487 10.523 24.5211 
87 1 19.9599 9.46891 22.6734 
97 1 18.2393 7.00521 21.864 
99 1 19.7648 10.6772 24.7935 
100 1 18.3811 10.9339 23.8447 
104 1 15.1408 8.46412 25.2382 
108 1 18.8074 10.3534 22.5646 
111 1 20.4425 9.44957 23.9972 
112 1 17.1327 7.51296 22.6008 
115 1 16.622 9.56673 23.8165 
118 1 16.8872 9.11587 15.5264 
121 1 16.9669 7.06028 14.1544 
122 1 20.0065 9.49374 15.4309 
125 1 18.3865 10.9317 14.2442 
129 2 15.8153 7.49066 15.6241 
130 3 14.8177 7.53 15.5311 
ITEM: TIMESTEP
40
ITEM: NUMBER OF ATOMS
130
ITEM: BOX BOUNDS xy xz yz pp pp pp
0.0000000000000000e+00 2.3654499999999999e+01 7.8845000000000001e+00
0.0000000000000000e+00 1.3658086643083999e+01 0.0000000000000000e+00
0.0000000000000000e+00 2.5747000000000000e+01 0.0000000000000000e+00
ITEM: ATOMS id type x y z 
18 1 10.3827 6.78197 2.64403 
28 1 5.11799 4.57114 12.8962 
31 1 9.40223 6.54805 0.403103 
62 1 9.08294 5.26709 12.3829 
91 1 9.39979 6.54943 11.9316 
92 1 10.7938 6.21174 10.9707 
106 1 10.3819 6.78257 9.69167 
127 1 10.7944 6.21115 1.36405 
4 1 4.44191 5.83535 13.2818 
5 1 3.1701 5.6252 14.1876 
43 1 4.52678 6.94656 15.5428 
52 1 9.08338 5.26547 25.6992 
66 1 4.43378 5.80665 24.8123 
67 1 5.06971 6.94024 23.8904 
88 1 5.1132 4.56319 25.1851 
107 1 3.17278 5.6691 23.8787 
116 1 4.5617 6.96172 22.5927 
117 1 5.01286 6.95769 14.1869 
11 1 11.3286 7.58639 3.36455 
12 1 10.4869 8.84674 4.09576 
14 1 8.98559 11.3099 0.399562 
15 1 10.2492 11.4657 1.32612 
16 1 8.38725 8.91254 0.688309 
19 1 10.4682 8.86658 5.55825 
29 1 10.9513 10.1291 3.34215 
32 1 8.68936 7.66933 1.26786 
35 1 12.0644 9.62509 2.61538 
45 1 9.22906 8.93162 3.26382 
47 1 12.6875 8.81677 0.542374 
49 1 11.3382 10.9048 0.661453 
51 1 8.85904 10.1708 2.60757 
53 1 11.3279 7.58547 8.97087 
54 1 10.4864 8.84624 8.23802 
56 1 8.98548 11.3088 11.9329 
57 1 8.35367 10.1723 11.0255 
58 1 11.3395 10.9086 11.6734 
60 1 12.27 8.04874 9.59818 
61 1 10.468 8.86649 6.77678 
73 1 9.22858 8.932 9.07083 
75 1 12.6885 8.81831 11.7948 
76 1 12.2731 10.078 11.0024 
79 1 9.21007 7.65497 9.78495 
80 1 8.31289 12.5538 12.3146 
89 1 10.9499 10.1297 8.99146 
93 1 8.38658 8.91143 11.6457 
95 1 10.0369 11.0436 9.68347 
105 1 10.25 11.4671 11.0099 
109 1 8.68692 7.66904 11.0645 
110 1 12.0639 9.62475 9.71848 
114 1 8.85988 10.1708 9.7282 
119 1 8.35534 10.1731 1.31171 
120 1 12.2708 8.04718 2.7358 
123 1 12.2766 10.077 1.33146 
124 1 9.21006 7.65565 2.54863 
128 1 10.0376 11.0447 2.65237 
6 1 5.02463 8.21079 13.5717 
13 1 9.58007 10.321 25.0659 
17 1 9.19486 8.97085 25.1322 
30 1 9.9274 7.70183 25.098 
34 1 11.2628 7.49708 25.128 
36 1 8.31148 12.5571 25.7685 
46 1 11.6851 8.81916 25.1223 
50 1 10.9506 10.1113 25.1577 
55 1 9.57997 10.3199 13.0134 
59 1 10.9495 10.1122 12.9228 
74 1 11.6847 8.82047 12.96 
78 1 11.2626 7.49787 12.9556 
90 1 9.92641 7.69834 12.9868 
94 1 9.19739 8.9701 12.9469 
101 1 5.0457 8.17841 24.5437 
33 1 11.7263 6.62309 0.691995 
77 1 11.7251 6.62387 11.6434 
41 1 17.8697 6.22893 13.5205 
68 1 17.8604 6.23716 24.5511 
103 1 19.1546 6.09341 22.5534 
126 1 19.1179 6.06139 15.499 
3 1 19.6183 6.81901 12.1825 
7 1 20.002 8.17055 12.2621 
10 1 15.1441 8.45456 12.8345 
22 1 19.261 9.4382 12.2153 
26 1 17.9226 9.64007 12.2525 
38 1 17.5202 8.3111 12.2178 
42 1 18.2505 7.02515 12.2473 
44 1 20.107 11.8622 12.8289 
48 1 12.5564 7.5812 1.39151 
65 1 19.6101 6.77532 0.156271 
69 1 18.2413 7.02118 0.0534533 
82 1 17.5204 8.32407 0.0825715 
86 1 17.9302 9.63398 0.0540072 
96 1 14.0497 8.67126 12.3686 
98 1 19.3005 9.43327 0.0305026 
102 1 20.0235 8.11225 0.0754394 
113 1 12.5522 7.58308 10.944 
1 1 17.9685 9.55044 16.2848 
2 1 18.6988 8.29222 16.9038 
8 1 18.8313 10.3681 15.5356 
9 1 18.7135 8.26594 18.4026 
20 1 14.046 8.67467 25.7137 
21 1 18.3116 7.02441 16.2027 
23 1 19.7862 10.5789 13.2816 
24 1 20.5036 9.46315 14.1456 
25 1 17.4706 10.518 13.5592 
27 1 16.9647 7.48605 15.5575 
37 1 19.9827 8.25372 16.197 
39 1 16.5124 8.29367 13.3955 
40 1 16.621 9.5664 14.2651 
63 1 17.8629 9.53617 21.8361 
64 1 18.7041 8.2825 21.1071 
70 1 16.9189 9.08302 22.4697 
71 1 18.7219 8.26374 19.614 
72 1 20.1133 11.9242 25.2796 
81 1 19.9552 8.21195 21.946 
83 1 16.4998 8.3182 24.6666 
84 1 16.9156 7.05946 23.8789 
85 1 17.4574 10.5079 24.5159 
87 1 19.963 9.46947 22.6799 
97 1 18.2374 7.00961 21.8601 
99 1 19.7713 10.6855 24.7949 
100 1 18.3897 10.9259 23.8419 
104 1 15.1385 8.4586 25.2408 
108 1 18.8087 10.3418 22.5646 
111 1 20.4587 9.44919 24.0077 
112 1 17.1234 7.50639 22.5935 
115 1 16.63 9.55046 23.8127 
118 1 16.8911 9.10304 15.5325 
121 1 16.9545 7.05973 14.1568 
122 1 20.0183 9.4977 15.4325 
125 1 18.3943 10.9213 14.2447 
129 2 15.81 7.48087 15.6446 
130 3 14.817 7.5277 15.5363 
ITEM: TIMESTEP
50
ITEM: NUMBER OF ATOMS
130
ITEM: BOX BOUNDS xy xz yz pp pp pp
0.0000000000000000e+00 2.3654499999999999e+01 7.8845000000000001e+00
0.0000000000000000e+00 1.3658086643083999e+01 0.0000000000000000e+00
0.0000000000000000e+00 2.5747000000000000e+01 0.0000000000000000e+00
ITEM: ATOMS id type x y z 
18 1 10.3718 6.80233 2.64506 
28 1 5.11001 4.62207 12.9095 
31 1 9.36959 6.56443 0.399141 
62 1 9.03092 5.28449 12.3843 
91 1 9.36936 6.56557 11.9355 
92 1 10.768 6.24074 10.9721 
106 1 10.3713 6.80249 9.68973 
127 1 10.7689 6.23964 1.36314 
4 1 4.42642 5.87407 13.286 
5 1 3.14434 5.65275 14.1836 
43 1 4.5268 6.95992 15.5475 
52 1 9.03156 5.28356 25.6974 
66 1 4.42139 5.83963 24.8013 
67 1 5.08251 6.97501 23.8916 
88 1 5.10046 4.60824 25.1723 
107 1 3.14917 5.69548 23.8791 
116 1 4.55984 6.97667 22.6045 
117 1 5.008 6.99453 14.1905 
11 1 11.3301 7.59734 3.37359 
12 1 10.4912 8.83424 4.09898 
14 1 8.99714 11.2674 0.402243 
15 1 10.2707 11.4379 1.32521 
16 1 8.35849 8.88916 0.670507 
19 1 10.4642 8.86354 5.55834 
29 1 10.9535 10.1213 3.34505 
32 1 8.64581 7.65308 1.26708 
35 1 12.0854 9.64647 2.62909 
45 1 9.22949 8.92504 3.26062 
47 1 12.6934 8.84376 0.546076 
49 1 11.358 10.8943 0.656226 
51 1 8.85979 10.1594 2.60105 
53 1 11.3298 7.59724 8.96172 
54 1 10.4907 8.83452 8.23596 
56 1 8.99696 11.267 11.9316 
57 1 8.34788 10.1339 11.0262 
58 1 11.358 10.8949 11.678 
60 1 12.2707 8.07154 9.58478 
61 1 10.4641 8.86344 6.77642 
73 1 9.22926 8.92489 9.0737 
75 1 12.6963 8.84429 11.7923 
76 1 12.3053 10.0958 10.9906 
79 1 9.18511 7.6525 9.79126 
80 1 8.32294 12.5095 12.303 
89 1 10.9531 10.1212 8.98966 
93 1 8.35727 8.8882 11.6634 
95 1 10.0394 11.0312 9.68613 
105 1 10.2712 11.4387 11.0098 
109 1 8.64384 7.65222 11.0669 
110 1 12.0837 9.64701 9.706 
114 1 8.85942 10.1589 9.73474 
119 1 8.34885 10.1342 1.30836 
120 1 12.2715 8.07092 2.75027 
123 1 12.3068 10.0952 1.34509 
124 1 9.18595 7.65302 2.54244 
128 1 10.0391 11.0313 2.64892 
6 1 5.04645 8.23051 13.5622 
13 1 9.57644 10.3143 25.0473 
17 1 9.18377 8.96988 25.1245 
30 1 9.91652 7.7023 25.0771 
34 1 11.2561 7.5032 25.1233 
36 1 8.32238 12.5112 25.7802 
46 1 11.6823 8.82153 25.1217 
50 1 10.9449 10.1054 25.1524 
55 1 9.57597 10.3144 13.0336 
59 1 10.9446 10.105 12.9277 
74 1 11.6819 8.82104 12.9604 
78 1 11.2574 7.50326 12.9583 
90 1 9.91762 7.70176 13.0073 
94 1 9.18534 8.96962 12.9551 
101 1 5.06824 8.19577 24.5578 
33 1 11.7049 6.65785 0.700372 
77 1 11.7039 6.65877 11.6365 
41 1 17.8459 6.24038 13.5097 
68 1 17.8346 6.24398 24.5494 
103 1 19.1493 6.11198 22.5546 
126 1 19.1018 6.08947 15.4904 
3 1 19.6248 6.83284 12.1627 
7 1 20.0175 8.17278 12.2482 
10 1 15.1486 8.44054 12.8338 
22 1 19.2763 9.43676 12.1942 
26 1 17.9377 9.63334 12.2509 
38 1 17.5139 8.31012 12.2161 
42 1 18.2602 7.03018 12.241 
44 1 20.1586 11.8442 12.8284 
48 1 12.5372 7.61189 1.40007 
65 1 19.6114 6.78263 0.170939 
69 1 18.251 7.02791 0.0596956 
82 1 17.5346 8.32141 0.0789257 
86 1 17.9529 9.62581 0.049626 
96 1 14.0575 8.68316 12.3713 
98 1 19.3232 9.42308 0.0255628 
102 1 20.0392 8.11262 0.10183 
113 1 12.5348 7.61547 10.9364 
1 1 17.9664 9.54872 16.2861 
2 1 18.6997 8.30662 16.9016 
8 1 18.8463 10.3517 15.5369 
9 1 18.7159 8.26629 18.3981 
20 1 14.0504 8.68652 25.7129 
21 1 18.3056 7.03353 16.1969 
23 1 19.8177 10.5672 13.2758 
24 1 20.5516 9.47907 14.1508 
25 1 17.4941 10.4825 13.5678 
27 1 16.9454 7.46484 15.571 
37 1 19.9892 8.2596 16.2023 
39 1 16.5141 8.26919 13.3888 
40 1 16.6387 9.51971 14.2634 
63 1 17.8657 9.51689 21.8244 
64 1 18.7035 8.29214 21.1001 
70 1 16.9181 9.05829 22.4527 
71 1 18.7241 8.26605 19.6077 
72 1 20.1651 11.9168 25.2905 
81 1 19.9545 8.21733 21.947 
83 1 16.4963 8.29396 24.6634 
84 1 16.8866 7.04028 23.8647 
85 1 17.477 10.4738 24.5031 
87 1 19.9799 9.4648 22.7018 
97 1 18.2336 7.0189 21.8522 
99 1 19.786 10.6974 24.7925 
100 1 18.4112 10.9103 23.8401 
104 1 15.1384 8.44768 25.242 
108 1 18.8151 10.3193 22.5643 
111 1 20.4944 9.45917 24.0201 
112 1 17.1021 7.48743 22.5788 
115 1 16.6479 9.51897 23.8008 
118 1 16.8969 9.06941 15.5464 
121 1 16.9233 7.05347 14.1566 
122 1 20.0483 9.50532 15.435 
125 1 18.4233 10.8956 14.2427 
129 2 15.7893 7.45597 15.6965 
130 3 14.8075 7.52114 15.553 
ITEM: TIMESTEP
60
ITEM: NUMBER OF ATOMS
130
ITEM: BOX BOUNDS xy xz yz pp pp pp
0.0000000000000000e+00 2.3654499999999999e+01 7.8845000000000001e+00
0.0000000000000000e+00 1.3658086643083999e+01 0.0000000000000000e+00
0.0000000000000000e+00 2.5747000000000000e+01 0.0000000000000000e+00
ITEM: ATOMS id type x y z 
18 1 10.3522 6.82782 2.64647 
28 1 5.11522 4.6662 12.9217 
31 1 9.33931 6.57815 0.394856 
62 1 8.9537 5.30536 12.3869 
91 1 9.33899 6.57881 11.9407 
92 1 10.7314 6.28003 10.9816 
106 1 10.3519 6.82652 9.68802 
127 1 10.7306 6.27863 1.35413 
4 1 4.41426 5.91041 13.2889 
5 1 3.1153 5.67882 14.1712 
43 1 4.52049 6.97018 15.5525 
52 1 8.95412 5.3038 25.6943 
66 1 4.41474 5.87945 24.7915 
67 1 5.08658 7.00529 23.8997 
88 1 5.10205 4.63705 25.1617 
107 1 3.12935 5.72389 23.8745 
116 1 4.56636 6.98981 22.6127 
117 1 5.00872 7.02902 14.1943 
11 1 11.331 7.60534 3.37708 
12 1 10.4939 8.82186 4.09836 
14 1 9.00365 11.2312 0.406776 
15 1 10.2845 11.4085 1.31904 
16 1 8.32749 8.86157 0.654663 
19 1 10.4593 8.85711 5.55812 
29 1 10.9558 10.1131 3.3439 
32 1 8.59382 7.63463 1.26327 
35 1 12.1083 9.66554 2.64502 
45 1 9.2287 8.92012 3.25806 
47 1 12.6967 8.86997 0.548073 
49 1 11.3764 10.8755 0.651572 
51 1 8.85398 10.1455 2.59181 
53 1 11.3318 7.60593 8.95819 
54 1 10.4945 8.82294 8.23769 
56 1 9.00428 11.2302 11.9276 
57 1 8.33992 10.0991 11.0336 
58 1 11.377 10.8776 11.6831 
60 1 12.2708 8.10261 9.57102 
61 1 10.4592 8.85715 6.7759 
73 1 9.22722 8.92009 9.0774 
75 1 12.7018 8.87319 11.7917 
76 1 12.3407 10.1149 10.9802 
79 1 9.15135 7.65085 9.79763 
80 1 8.32167 12.4728 12.2936 
89 1 10.9553 10.1122 8.99132 
93 1 8.32561 8.86151 11.6795 
95 1 10.0393 11.0136 9.68992 
105 1 10.2844 11.4079 11.0143 
109 1 8.59363 7.63309 11.07 
110 1 12.1083 9.66625 9.69138 
114 1 8.85389 10.1446 9.74323 
119 1 8.34063 10.1004 1.29875 
120 1 12.2707 8.10214 2.76519 
123 1 12.3394 10.118 1.35579 
124 1 9.15373 7.65021 2.53751 
128 1 10.0401 11.0124 2.64448 
6 1 5.07109 8.25076 13.5471 
13 1 9.56666 10.3035 25.0307 
17 1 9.17656 8.96363 25.1175 
30 1 9.91133 7.70286 25.0411 
34 1 11.2527 7.50175 25.1238 
36 1 8.32346 12.4701 25.7906 
46 1 11.6808 8.82196 25.1225 
50 1 10.936 10.0936 25.1488 
55 1 9.56967 10.2994 13.0501 
59 1 10.9373 10.094 12.9341 
74 1 11.6812 8.8222 12.9597 
78 1 11.2521 7.50373 12.9612 
90 1 9.91379 7.70264 13.0415 
94 1 9.17378 8.96287 12.9645 
101 1 5.09033 8.21974 24.5909 
33 1 11.6832 6.69261 0.707938 
77 1 11.6846 6.69345 11.6262 
41 1 17.8265 6.26384 13.4898 
68 1 17.8173 6.2592 24.5599 
103 1 19.1462 6.12874 22.5582 
126 1 19.1003 6.10901 15.4718 
3 1 19.641 6.83886 12.1424 
7 1 20.0288 8.17949 12.2418 
10 1 15.1516 8.41752 12.8291 
22 1 19.2839 9.43249 12.1628 
26 1 17.9472 9.64569 12.246 
38 1 17.5159 8.31872 12.2173 
42 1 18.2765 7.04173 12.2342 
44 1 20.2379 11.8289 12.8255 
48 1 12.5207 7.65344 1.406 
65 1 19.6272 6.78122 0.183649 
69 1 18.2628 7.035 0.0556075 
82 1 17.5452 8.32493 0.0677499 
86 1 17.9734 9.62986 0.0475029 
96 1 14.0682 8.69074 12.3706 
98 1 19.3366 9.42179 0.0277474 
102 1 20.0557 8.1137 0.120154 
113 1 12.5191 7.65558 10.9315 
1 1 17.9705 9.54643 16.2867 
2 1 18.6947 8.32264 16.9028 
8 1 18.8727 10.3361 15.5368 
9 1 18.7192 8.272 18.3919 
20 1 14.0579 8.69624 25.7156 
21 1 18.309 7.06367 16.1978 
23 1 19.8591 10.5514 13.2744 
24 1 20.5999 9.50378 14.1497 
25 1 17.524 10.4409 13.5766 
27 1 16.9149 7.44033 15.5808 
37 1 19.9981 8.27199 16.204 
39 1 16.5228 8.24089 13.3851 
40 1 16.6571 9.46977 14.2647 
63 1 17.866 9.50361 21.8165 
64 1 18.7035 8.30277 21.0947 
70 1 16.9185 9.02723 22.4346 
71 1 18.7266 8.26927 19.6045 
72 1 20.2389 11.902 25.3053 
81 1 19.9586 8.2203 21.9542 
83 1 16.4975 8.26413 24.6577 
84 1 16.851 7.02485 23.8518 
85 1 17.4985 10.4425 24.4897 
87 1 20.0024 9.46191 22.7145 
97 1 18.2287 7.03144 21.849 
99 1 19.8135 10.6991 24.7852 
100 1 18.4355 10.8907 23.8381 
104 1 15.1382 8.43975 25.2408 
108 1 18.8302 10.2964 22.5637 
111 1 20.5321 9.48211 24.0374 
112 1 17.0767 7.46296 22.5578 
115 1 16.6657 9.47802 23.7916 
118 1 16.9044 9.0336 15.5578 
121 1 16.8707 7.04236 14.1492 
122 1 20.0807 9.51213 15.4462 
125 1 18.4651 10.8667 14.2286 
129 2 15.7724 7.42065 15.7625 
130 3 14.7825 7.50942 15.5853 
ITEM: TIMESTEP
70
ITEM: NUMBER OF ATOMS
130
ITEM: BOX BOUNDS xy xz yz pp pp pp
0.0000000000000000e+00 2.3654499999999999e+01 7.8845000000000001e+00
0.0000000000000000e+00 1.3658086643083999e+01 0.0000000000000000e+00
0.0000000000000000e+00 2.5747000000000000e+01 0.0000000000000000e+00
ITEM: ATOMS id type x y z 
18 1 10.3428 6.83736 2.64315 
28 1 5.12615 4.68129 12.927 
31 1 9.32479 6.58417 0.382198 
62 1 8.90367 5.31708 12.3903 
91 1 9.32543 6.58574 11.9524 
92 1 10.7142 6.29695 10.9856 
106 1 10.3422 6.83795 9.6917 
127 1 10.7133 6.29579 1.35001 
4 1 4.41266 5.92055 13.2867 
5 1 3.10814 5.69582 14.1662 
43 1 4.52303 6.97926 15.5503 
52 1 8.90395 5.31625 25.6911 
66 1 4.41552 5.87748 24.793 
67 1 5.09377 7.02322 23.9063 
88 1 5.10537 4.65322 25.1531 
107 1 3.13207 5.73404 23.8837 
116 1 4.57183 6.99181 22.6211 
117 1 5.01433 7.03809 14.1935 
11 1 11.328 7.61068 3.37528 
12 1 10.4922 8.8201 4.10018 
14 1 8.99934 11.2196 0.402549 
15 1 10.2862 11.398 1.31495 
16 1 8.31436 8.85327 0.64626 
19 1 10.4566 8.85169 5.55822 
29 1 10.9547 10.1053 3.34301 
32 1 8.5768 7.6295 1.26306 