ITEM: TIMESTEP
0
ITEM: NUMBER OF ATOMS
34
ITEM: BOX BOUNDS pp pp pp
0.0000000000000000e+00 7.0970000000000004e+00
0.0000000000000000e+00 7.0970000000000004e+00
0.0000000000000000e+00 2.4588000000000001e+01
ITEM: ATOMS id type x y z 
2 1 3.339 1.632 13.319 
5 1 4.651 1.581 18.133 
7 1 3.391 1.602 15.981 
8 1 2.166 1.581 18.134 
18 1 3.408 1.581 17.416 
21 1 3.338 2.875 12.602 
23 1 3.367 1.619 14.753 
24 1 3.338 0.39 12.601 
17 1 7.023 2.875 24.28 
19 1 6.997 1.619 22.129 
20 1 7.023 0.39 24.281 
22 1 6.957 1.581 19.466 
25 1 5.714 1.581 18.748 
27 1 6.974 1.602 20.9 
28 1 1.102 1.581 18.748 
30 1 7.024 1.631 23.563 
10 1 6.954 5.232 5.122 
13 1 7.023 3.938 0.307 
15 1 6.994 5.194 2.459 
16 1 7.023 6.423 0.307 
26 1 7.022 5.181 1.025 
29 1 5.711 5.232 5.839 
31 1 6.97 5.211 3.688 
32 1 1.098 5.232 5.84 
1 1 4.647 5.232 6.454 
3 1 3.388 5.211 8.606 
4 1 2.163 5.232 6.454 
6 1 3.338 5.182 11.269 
9 1 3.338 3.939 11.986 
11 1 3.365 5.194 9.834 
12 1 3.338 6.423 11.987 
14 1 3.404 5.232 7.171 
33 2 4.738 5.211 8.606 
34 3 5.714 5.211 8.606 
ITEM: TIMESTEP
10
ITEM: NUMBER OF ATOMS
34
ITEM: BOX BOUNDS pp pp pp
0.0000000000000000e+00 7.0970000000000004e+00
0.0000000000000000e+00 7.0970000000000004e+00
0.0000000000000000e+00 2.4588000000000001e+01
ITEM: ATOMS id type x y z 
2 1 3.33774 1.62751 13.346 
5 1 4.65454 1.58078 18.1339 
7 1 3.39091 1.60133 15.9874 
8 1 2.16408 1.58066 18.1362 
18 1 3.40794 1.58155 17.4157 
21 1 3.33979 2.87378 12.605 
23 1 3.3687 1.61972 14.763 
24 1 3.33926 0.396771 12.6028 
17 1 7.02621 2.87893 24.2772 
19 1 6.99713 1.61957 22.1244 
20 1 7.02696 0.390363 24.2853 
22 1 6.95696 1.58161 19.4661 
25 1 5.7115 1.58084 18.7477 
27 1 6.97329 1.60134 20.9044 
28 1 1.1031 1.58085 18.7462 
30 1 7.02156 1.63117 23.5627 
10 1 6.95317 5.2311 5.12134 
13 1 7.02031 3.93345 0.30984 
15 1 6.99301 5.1935 2.4598 
16 1 7.01963 6.42269 0.302201 
26 1 7.02414 5.18144 1.02237 
29 1 5.70912 5.23242 5.83891 
31 1 6.97009 5.21117 3.67908 
32 1 1.08794 5.2322 5.8364 
1 1 4.64618 5.23288 6.44283 
3 1 3.37418 5.20209 8.60004 
4 1 2.15354 5.23355 6.44599 
6 1 3.32452 5.17743 11.2515 
9 1 3.33535 3.92355 11.9959 
11 1 3.33466 5.19792 9.88511 
12 1 3.33581 6.44162 12.0015 
14 1 3.38561 5.23571 7.10455 
33 2 4.78764 5.21009 8.60574 
34 3 5.76545 5.2114 8.60683 
ITEM: TIMESTEP
20
ITEM: NUMBER OF ATOMS
34
ITEM: BOX BOUNDS pp pp pp
0.0000000000000000e+00 7.0970000000000004e+00
0.0000000000000000e+00 7.0970000000000004e+00
0.0000000000000000e+00 2.4588000000000001e+01
ITEM: ATOMS id type x y z 
2 1 3.34229 1.62732 13.3509 
5 1 4.65789 1.58019 18.1353 
7 1 3.39041 1.60175 15.9963 
8 1 2.16101 1.58091 18.1413 
18 1 3.40781 1.5806 17.4269 
21 1 3.33672 2.88045 12.6033 
23 1 3.37214 1.62118 14.774 
24 1 3.33798 0.386195 12.5998 
17 1 7.02587 2.88053 24.2726 
19 1 7.00011 1.62254 22.1253 
20 1 7.02639 0.3929 24.2906 
22 1 6.95745 1.58208 19.4686 
25 1 5.71376 1.58127 18.7506 
27 1 6.97007 1.59915 20.9052 
28 1 1.10095 1.58 18.7454 
30 1 7.02082 1.63098 23.5622 
10 1 6.94346 5.22842 5.11558 
13 1 7.02091 3.92958 0.31215 
15 1 6.98979 5.19089 2.45395 
16 1 7.02089 6.42248 0.29416 
26 1 7.02535 5.1818 1.01631 
29 1 5.71444 5.23258 5.833 
31 1 6.97083 5.21152 3.67298 
32 1 1.08655 5.23297 5.83756 
1 1 4.6315 5.23872 6.4383 
3 1 3.17554 5.18378 8.59149 
4 1 2.14971 5.23815 6.43635 
6 1 3.32866 5.1825 11.2486 
9 1 3.32987 3.93107 11.9958 
11 1 3.31714 5.19415 9.90029 
12 1 3.3307 6.43991 12.0012 
14 1 3.38975 5.24203 7.09902 
33 2 4.95477 5.20936 8.60816 
34 3 5.83846 5.21304 8.61075 
ITEM: TIMESTEP
30
ITEM: NUMBER OF ATOMS
34
ITEM: BOX BOUNDS pp pp pp
0.0000000000000000e+00 7.0970000000000004e+00
0.0000000000000000e+00 7.0970000000000004e+00
0.0000000000000000e+00 2.4588000000000001e+01
ITEM: ATOMS id type x y z 
2 1 3.3373 1.63301 13.3387 
5 1 4.65839 1.58027 18.1365 
7 1 3.3908 1.60259 15.9924 
8 1 2.16208 1.57788 18.1428 
18 1 3.40825 1.58125 17.4281 
21 1 3.33707 2.88259 12.6033 
23 1 3.37232 1.62209 14.7722 
24 1 3.33749 0.389002 12.6027 
17 1 7.02628 2.88058 24.2744 
19 1 6.99977 1.62426 22.1261 
20 1 7.02703 0.392754 24.2891 
22 1 6.95719 1.58167 19.4696 
25 1 5.71306 1.5801 18.7507 
27 1 6.96903 1.59935 20.9061 
28 1 1.10044 1.58169 18.7454 
30 1 7.02125 1.63167 23.5629 
10 1 6.9431 5.22954 5.10458 
13 1 7.0206 3.92956 0.3095 
15 1 6.99101 5.18802 2.45535 
16 1 7.02047 6.42295 0.294513 
26 1 7.02535 5.18122 1.016 
29 1 5.69 5.23306 5.84254 
31 1 6.96892 5.21219 3.67358 
32 1 1.0932 5.23375 5.83955 
1 1 4.63613 5.23783 6.44299 
3 1 3.14042 5.19579 8.56864 
4 1 2.14794 5.23707 6.42793 
6 1 3.33729 5.1831 11.2537 
9 1 3.33759 3.93033 11.9979 
11 1 3.25569 5.18747 9.85644 
12 1 3.33752 6.42942 11.9974 
14 1 3.36979 5.23547 7.17238 
33 2 4.99188 5.20937 8.60678 
34 3 5.91536 5.2141 8.61318 
ITEM: TIMESTEP
40
ITEM: NUMBER OF ATOMS
34
ITEM: BOX BOUNDS pp pp pp
0.0000000000000000e+00 7.0970000000000004e+00
0.0000000000000000e+00 7.0970000000000004e+00
0.0000000000000000e+00 2.4588000000000001e+01
ITEM: ATOMS id type x y z 
2 1 3.33892 1.63286 13.3304 
5 1 4.65782 1.57997 18.1362 
7 1 3.39536 1.60257 15.9871 
8 1 2.16522 1.5828 18.1474 
18 1 3.40826 1.57795 17.4235 
21 1 3.33797 2.88248 12.6045 
23 1 3.36428 1.62557 14.7668 
24 1 3.33879 0.388103 12.6042 
17 1 7.02244 2.88138 24.2735 
19 1 6.99454 1.62389 22.1262 
20 1 7.0225 0.392422 24.2902 
22 1 6.95739 1.57915 19.4691 
25 1 5.71166 1.57991 18.7517 
27 1 6.97026 1.60308 20.9061 
28 1 1.09978 1.57903 18.7428 
30 1 7.02667 1.63165 23.563 
10 1 6.93573 5.2348 5.11634 
13 1 7.02444 3.92993 0.310117 
15 1 6.9941 5.19285 2.45569 
16 1 7.02613 6.42177 0.293551 
26 1 7.02163 5.18034 1.01883 
29 1 5.68612 5.23299 5.84311 
31 1 6.96413 5.20388 3.67552 
32 1 1.08231 5.23516 5.82939 
1 1 4.62921 5.23469 6.45128 
3 1 3.14571 5.19994 8.60294 
4 1 2.14911 5.2352 6.42611 
6 1 3.34113 5.18046 11.2527 
9 1 3.34023 3.93811 11.9926 
11 1 3.21066 5.18926 9.82861 
12 1 3.33943 6.42087 11.9907 
14 1 3.36677 5.23427 7.18107 
33 2 5.02162 5.20929 8.60733 
34 3 5.94967 5.21438 8.61538 
ITEM: TIMESTEP
50
ITEM: NUMBER OF ATOMS
34
ITEM: BOX BOUNDS pp pp pp
0.0000000000000000e+00 7.0970000000000004e+00
0.0000000000000000e+00 7.0970000000000004e+00
0.0000000000000000e+00 2.4588000000000001e+01
ITEM: ATOMS id type x y z 
2 1 3.34297 1.63306 13.3213 
5 1 4.65567 1.57942 18.1355 
7 1 3.39176 1.60404 15.9799 
8 1 2.16606 1.57872 18.1443 
18 1 3.40881 1.58029 17.4197 
21 1 3.33548 2.87787 12.5969 
23 1 3.36967 1.62461 14.76 
24 1 3.33854 0.385846 12.6002 
17 1 7.02513 2.88101 24.2771 
19 1 6.99532 1.62246 22.1256 
20 1 7.02547 0.389323 24.287 
22 1 6.95633 1.58051 19.4673 
25 1 5.70976 1.57929 18.7509 
27 1 6.97036 1.60351 20.9055 
28 1 1.10333 1.57937 18.7444 
30 1 7.02371 1.63314 23.5637 
10 1 6.92452 5.23462 5.12319 
13 1 7.02369 3.9332 0.307995 
15 1 6.99028 5.18844 2.46276 
16 1 7.02482 6.42254 0.297589 
26 1 7.02423 5.17996 1.02322 
29 1 5.67632 5.23193 5.84473 
31 1 6.95949 5.21005 3.6825 
32 1 1.0765 5.23448 5.82393 
1 1 4.62116 5.23398 6.46148 
3 1 3.15146 5.20249 8.60518 
4 1 2.14621 5.23476 6.42063 
6 1 3.32884 5.18066 11.2656 
9 1 3.33617 3.9392 11.9959 
11 1 3.2115 5.19086 9.82755 
12 1 3.33722 6.42463 11.9931 
14 1 3.36066 5.2329 7.16472 
33 2 5.0438 5.20945 8.61561 
34 3 5.98475 5.21438 8.61865 
ITEM: TIMESTEP
60
ITEM: NUMBER OF ATOMS
34
ITEM: BOX BOUNDS pp pp pp
0.0000000000000000e+00 7.0970000000000004e+00
0.0000000000000000e+00 7.0970000000000004e+00
0.0000000000000000e+00 2.4588000000000001e+01
ITEM: ATOMS id type x y z 
2 1 3.34613 1.63185 13.3175 
5 1 4.65519 1.58023 18.1346 
7 1 3.39242 1.60359 15.9777 
8 1 2.16567 1.57971 18.1422 
18 1 3.40794 1.57868 17.4161 
21 1 3.34168 2.88016 12.5985 
23 1 3.36903 1.62497 14.7577 
24 1 3.33784 0.385725 12.5974 
17 1 7.02431 2.88112 24.279 
19 1 6.99512 1.62241 22.1254 
20 1 7.02482 0.387303 24.2855 
22 1 6.95715 1.57915 19.4668 
25 1 5.70872 1.58062 18.7505 
27 1 6.97057 1.60236 20.9054 
28 1 1.10485 1.5797 18.7456 
30 1 7.02437 1.6321 23.5639 
10 1 6.91696 5.23572 5.12217 
13 1 7.02511 3.93441 0.307382 
15 1 6.98637 5.19186 2.46374 
16 1 7.02556 6.42342 0.300858 
26 1 7.02742 5.18116 1.02574 
29 1 5.66648 5.23514 5.84572 
31 1 6.95152 5.20407 3.68373 
32 1 1.07104 5.23545 5.82356 
1 1 4.6148 5.23315 6.46436 
3 1 3.17344 5.2049 8.60648 
4 1 2.14158 5.23402 6.41262 
6 1 3.31621 5.18151 11.2604 
9 1 3.33152 3.93793 11.9907 
11 1 3.21362 5.19164 9.82984 
12 1 3.3301 6.42293 11.9927 
14 1 3.35261 5.23006 7.17244 
33 2 5.068 5.20977 8.62378 
34 3 6.00185 5.21418 8.62382 
ITEM: TIMESTEP
70
ITEM: NUMBER OF ATOMS
34
ITEM: BOX BOUNDS pp pp pp
0.0000000000000000e+00 7.0970000000000004e+00
0.0000000000000000e+00 7.0970000000000004e+00
0.0000000000000000e+00 2.4588000000000001e+01
ITEM: ATOMS id type x y z 
2 1 3.35707 1.63323 13.3178 
5 1 4.65505 1.57947 18.1338 
7 1 3.39103 1.60386 15.9771 
8 1 2.16496 1.57934 18.1405 
18 1 3.40833 1.57968 17.415 
21 1 3.33293 2.87572 12.5946 
23 1 3.37348 1.62456 14.757 
24 1 3.3386 0.386918 12.5979 
17 1 7.02535 2.8802 24.28 
19 1 6.99452 1.62148 22.125 
20 1 7.02552 0.387037 24.2846 
22 1 6.95633 1.58012 19.4663 
25 1 5.70864 1.57948 18.7497 
27 1 6.97095 1.60271 20.9049 
28 1 1.10547 1.57955 18.746 
30 1 7.02291 1.63302 23.5635 
10 1 6.90362 5.2355 5.12349 
13 1 7.02679 3.93454 0.307048 
15 1 6.98184 5.18871 2.46538 
16 1 7.02712 6.42485 0.302686 
26 1 7.02787 5.1798 1.02548 
29 1 5.66113 5.23346 5.84688 
31 1 6.94583 5.21117 3.6848 
32 1 1.06425 5.23465 5.8179 
1 1 4.60763 5.23122 6.46407 
3 1 3.18599 5.2064 8.60637 
4 1 2.13234 5.23271 6.40985 
6 1 3.30526 5.18031 11.2678 
9 1 3.32343 3.93759 11.9928 
11 1 3.22507 5.19311 9.82817 
12 1 3.32306 6.42511 11.9914 
14 1 3.34814 5.23139 7.1623 
33 2 5.08815 5.21022 8.63129 
34 3 6.03137 5.21387 8.6325 
ITEM: TIMESTEP
80
ITEM: NUMBER OF ATOMS
34
ITEM: BOX BOUNDS pp pp pp
0.0000000000000000e+00 7.0970000000000004e+00
0.0000000000000000e+00 7.0970000000000004e+00
0.0000000000000000e+00 2.4588000000000001e+01
ITEM: ATOMS id type x y z 
2 1 3.35679 1.63151 13.3183 
5 1 4.65522 1.57953 18.1333 
7 1 3.39321 1.60467 15.9766 
8 1 2.16447 1.5792 18.1401 
18 1 3.40694 1.579 17.4163 
21 1 3.33877 2.87749 12.5947 
23 1 3.37522 1.62458 14.7565 
24 1 3.33653 0.386948 12.5954 
17 1 7.02507 2.88011 24.28 
19 1 6.99497 1.62146 22.125 
20 1 7.02535 0.387259 24.2851 
22 1 6.95679 1.57987 19.4662 
25 1 5.70872 1.57989 18.7492 
27 1 6.97045 1.60241 20.905 
28 1 1.10487 1.57957 18.7459 
30 1 7.0235 1.63173 23.5636 
10 1 6.90215 5.23407 5.12288 
13 1 7.0269 3.93399 0.307291 
15 1 6.98176 5.18843 2.46322 
16 1 7.02713 6.42484 0.303076 
26 1 7.02973 5.18118 1.02551 
29 1 5.65382 5.23364 5.84812 
31 1 6.9359 5.21261 3.68235 
32 1 1.06243 5.23497 5.8117 
1 1 4.60233 5.23302 6.46696 
3 1 3.20185 5.2071 8.60682 
4 1 2.12696 5.23291 6.41142 
6 1 3.29079 5.18137 11.2617 
9 1 3.32106 3.93649 11.9895 
11 1 3.23402 5.19455 9.83063 
12 1 3.31901 6.42386 11.9916 
14 1 3.3397 5.22853 7.1676 
33 2 5.10522 5.2106 8.63221 
34 3 6.04235 5.2136 8.64014 
ITEM: TIMESTEP
90
ITEM: NUMBER OF ATOMS
34
ITEM: BOX BOUNDS pp pp pp
0.0000000000000000e+00 7.0970000000000004e+00
0.0000000000000000e+00 7.0970000000000004e+00
0.0000000000000000e+00 2.4588000000000001e+01
ITEM: ATOMS id type x y z 
2 1 3.36167 1.63252 13.3176 
5 1 4.65494 1.57954 18.1331 
7 1 3.39156 1.60406 15.9765 
8 1 2.16429 1.57934 18.1398 
18 1 3.40816 1.5793 17.4153 
21 1 3.33602 2.87639 12.5949 
23 1 3.37891 1.62477 14.7564 
24 1 3.33668 0.387279 12.5961 
17 1 7.02569 2.87979 24.2801 
19 1 6.99438 1.62124 22.1248 
20 1 7.02594 0.387323 24.2851 
22 1 6.95603 1.58004 19.4662 
25 1 5.70867 1.57957 18.7489 
27 1 6.97061 1.60234 20.9048 
28 1 1.10493 1.57949 18.7456 
30 1 7.02277 1.63246 23.5634 
10 1 6.89596 5.23591 5.12134 
13 1 7.02779 3.93393 0.307206 
15 1 6.97838 5.18947 2.46341 
16 1 7.02812 6.42509 0.303189 
26 1 7.02998 5.18039 1.02547 
29 1 5.65243 5.23364 5.84774 
31 1 6.93309 5.21139 3.68271 
32 1 1.05806 5.23384 5.81149 
1 1 4.59999 5.23171 6.46608 
3 1 3.20702 5.2078 8.60701 
4 1 2.12289 5.23288 6.40985 
6 1 3.28785 5.1804 11.2651 
9 1 3.31434 3.93587 11.9897 
11 1 3.24378 5.19498 9.82998 
12 1 3.31418 6.42489 11.9911 
14 1 3.33945 5.22915 7.16356 
33 2 5.11192 5.21075 8.63499 
34 3 6.05351 5.21346 8.64533 
ITEM: TIMESTEP
100
ITEM: NUMBER OF ATOMS
34
ITEM: BOX BOUNDS pp pp pp
0.0000000000000000e+00 7.0970000000000004e+00
0.0000000000000000e+00 7.0970000000000004e+00
0.0000000000000000e+00 2.4588000000000001e+01
ITEM: ATOMS id type x y z 
2 1 3.36437 1.63211 13.3176 
5 1 4.65495 1.57922 18.1328 
7 1 3.39184 1.60397 15.9765 
8 1 2.16406 1.57918 18.1395 
18 1 3.40784 1.57935 17.4152 
21 1 3.33549 2.87749 12.5957 
23 1 3.38104 1.62513 14.7563 
24 1 3.33507 0.387328 12.5959 
17 1 7.02613 2.87942 24.28 
19 1 6.99403 1.62106 22.1245 
20 1 7.0264 0.387605 24.2852 
22 1 6.95641 1.57998 19.4659 
25 1 5.70857 1.57979 18.7486 
27 1 6.97049 1.60225 20.9045 
28 1 1.10467 1.57946 18.7453 
30 1 7.02266 1.63225 23.5631 
10 1 6.89222 5.23582 5.12042 
13 1 7.02835 3.93357 0.307056 
15 1 6.97606 5.18992 2.46265 
16 1 7.02868 6.42529 0.303182 
26 1 7.03046 5.18045 1.02467 
29 1 5.64814 5.23359 5.84658 
31 1 6.92804 5.2119 3.68185 
32 1 1.0535 5.23389 5.81159 
1 1 4.59543 5.23162 6.46457 
3 1 3.21925 5.20864 8.60616 
4 1 2.11873 5.23265 6.40958 
6 1 3.28097 5.18039 11.2646 
9 1 3.31094 3.93436 11.9877 
11 1 3.24727 5.19571 9.83059 
12 1 3.31282 6.425 11.9906 
14 1 3.33592 5.22841 7.16286 
33 2 5.12431 5.21095 8.63914 
34 3 6.06489 5.21324 8.65373 
ITEM: TIMESTEP
110
ITEM: NUMBER OF ATOMS
34
ITEM: BOX BOUNDS pp pp pp
0.0000000000000000e+00 7.0970000000000004e+00
0.0000000000000000e+00 7.0970000000000004e+00
0.0000000000000000e+00 2.4588000000000001e+01
ITEM: ATOMS id type x y z 
2 1 3.36549 1.63219 13.3175 
5 1 4.65503 1.57934 18.1327 
7 1 3.39341 1.60357 15.9764 
8 1 2.16416 1.57918 18.1393 
18 1 3.40738 1.57941 17.4152 
21 1 3.33572 2.87721 12.5961 
23 1 3.37977 1.62547 14.7562 
24 1 3.33581 0.387154 12.5957 
17 1 7.02586 2.87943 24.28 
19 1 6.99448 1.621 22.1244 
20 1 7.02611 0.387645 24.2852 
22 1 6.95611 1.57999 19.4658 
25 1 5.70867 1.57963 18.7485 
27 1 6.97015 1.60225 20.9044 
28 1 1.10474 1.57944 18.7451 
30 1 7.0231 1.63214 23.563 
10 1 6.89084 5.2362 5.12016 
13 1 7.02835 3.93358 0.307045 
15 1 6.97482 5.19074 2.4622 
16 1 7.02865 6.42527 0.303114 
26 1 7.03135 5.18034 1.0246 
29 1 5.64685 5.23362 5.84602 
31 1 6.92669 5.21099 3.68142 
32 1 1.05219 5.23419 5.8118 
1 1 4.59404 5.23141 6.46365 
3 1 3.22284 5.2088 8.6067 
4 1 2.11721 5.23227 6.40975 
6 1 3.27915 5.18059 11.2641 
9 1 3.30985 3.93436 11.9871 
11 1 3.24868 5.19589 9.83015 
12 1 3.31068 6.42503 11.9906 
14 1 3.33474 5.22847 7.16277 
33 2 5.12805 5.21102 8.64069 
34 3 6.06903 5.21317 8.65665 
ITEM: TIMESTEP
120
ITEM: NUMBER OF ATOMS
34
ITEM: BOX BOUNDS pp pp pp
0.0000000000000000e+00 7.0970000000000004e+00
0.0000000000000000e+00 7.0970000000000004e+00
0.0000000000000000e+00 2.4588000000000001e+01
ITEM: ATOMS id type x y z 
2 1 3.36553 1.63221 13.3175 
5 1 4.65499 1.57936 18.1327 
7 1 3.39346 1.60398 15.9764 
8 1 2.16411 1.57916 18.1393 
18 1 3.40736 1.57921 17.4152 
21 1 3.33549 2.87725 12.5961 
23 1 3.38018 1.62524 14.7562 
24 1 3.3359 0.387142 12.5958 
17 1 7.02593 2.87939 24.28 
19 1 6.99441 1.62098 22.1244 
20 1 7.02619 0.38765 24.2852 
22 1 6.95615 1.57997 19.4658 
25 1 5.70863 1.57962 18.7485 
27 1 6.97017 1.60225 20.9044 
28 1 1.10469 1.57947 18.7451 
30 1 7.02305 1.63215 23.5629 
10 1 6.89062 5.23614 5.12008 
13 1 7.0284 3.93355 0.30702 
15 1 6.97468 5.19071 2.46217 
16 1 7.02869 6.42528 0.303113 
26 1 7.03132 5.18034 1.02455 
29 1 5.64658 5.2336 5.84592 
31 1 6.92639 5.21117 3.68138 
32 1 1.05192 5.23417 5.81183 
1 1 4.59375 5.23141 6.46348 
3 1 3.22353 5.20887 8.60669 
4 1 2.11691 5.23227 6.40979 
6 1 3.27888 5.18059 11.2641 
9 1 3.30968 3.93431 11.987 
11 1 3.24894 5.19587 9.83014 
12 1 3.31033 6.42505 11.9905 
14 1 3.33458 5.22844 7.16272 
33 2 5.12878 5.21103 8.64099 
34 3 6.06977 5.21315 8.65721 
ITEM: TIMESTEP
130
ITEM: NUMBER OF ATOMS
34
ITEM: BOX BOUNDS pp pp pp
0.0000000000000000e+00 7.0970000000000004e+00
0.0000000000000000e+00 7.0970000000000004e+00
0.0000000000000000e+00 2.4588000000000001e+01
ITEM: ATOMS id type x y z 
2 1 3.36784 1.63281 13.3171 
5 1 4.65427 1.57922 18.1322 
7 1 3.39833 1.60262 15.9757 
8 1 2.16326 1.57907 18.1387 
18 1 3.40623 1.57987 17.4146 
21 1 3.33328 2.87825 12.5953 
23 1 3.38466 1.62547 14.7556 
24 1 3.33329 0.387065 12.5978 
17 1 7.02674 2.87867 24.2798 
19 1 6.99398 1.6206 22.1238 
20 1 7.02707 0.387839 24.2848 
22 1 6.95601 1.57993 19.4652 
25 1 5.70821 1.57957 18.7476 
27 1 6.96989 1.60203 20.9037 
28 1 1.10417 1.57942 18.7447 
30 1 7.02297 1.63211 23.5623 
10 1 6.88385 5.23576 5.11818 
13 1 7.0294 3.93309 0.306399 
15 1 6.97026 5.19179 2.46082 
16 1 7.02973 6.42557 0.302959 
26 1 7.03194 5.18011 1.02342 
29 1 5.63918 5.23335 5.84274 
31 1 6.91805 5.21278 3.67999 
32 1 1.04438 5.23377 5.81276 
1 1 4.58567 5.23112 6.45827 
3 1 3.2408 5.21014 8.60624 
4 1 2.10834 5.23199 6.41135 
6 1 3.26504 5.18025 11.2648 
9 1 3.3075 3.93281 11.9855 
11 1 3.25794 5.19613 9.8298 
12 1 3.30626 6.42568 11.9881 
14 1 3.33001 5.22798 7.16067 
33 2 5.15028 5.21138 8.64969 
34 3 6.09118 5.21276 8.6733 
ITEM: TIMESTEP
140
ITEM: NUMBER OF ATOMS
34
ITEM: BOX BOUNDS pp pp pp
0.0000000000000000e+00 7.0970000000000004e+00
0.0000000000000000e+00 7.0970000000000004e+00
0.0000000000000000e+00 2.4588000000000001e+01
ITEM: ATOMS id type x y z 
2 1 3.37553 1.63287 13.3154 
5 1 4.65209 1.5793 18.1308 
7 1 3.4144 1.60339 15.9742 
8 1 2.16111 1.57911 18.1361 
18 1 3.4049 1.57922 17.4128 
21 1 3.33315 2.87938 12.5956 
23 1 3.39647 1.62325 14.7541 
24 1 3.32792 0.383786 12.6015 
17 1 7.02835 2.87703 24.2789 
19 1 6.99392 1.6195 22.1216 
20 1 7.02875 0.3884 24.284 
22 1 6.954 1.5796 19.4631 
25 1 5.70669 1.57928 18.7448 
27 1 6.96819 1.6012 20.9016 
28 1 1.10227 1.57926 18.7431 
30 1 7.02444 1.63139 23.56 
10 1 6.86274 5.23566 5.11314 
13 1 7.03163 3.93187 0.304838 
15 1 6.9573 5.19705 2.45628 
16 1 7.03195 6.42591 0.301743 
26 1 7.03534 5.17959 1.02018 
29 1 5.6165 5.23257 5.8305 
31 1 6.89121 5.21485 3.67476 
32 1 1.0205 5.23294 5.81626 
1 1 4.55951 5.23042 6.44153 
3 1 3.30276 5.21213 8.6054 
4 1 2.08234 5.23063 6.41865 
6 1 3.23573 5.18182 11.264 
9 1 3.29109 3.93086 11.9778 
11 1 3.27192 5.19777 9.82836 
12 1 3.286 6.42946 11.9836 
14 1 3.31425 5.22752 7.15635 
33 2 5.21825 5.21244 8.6781 
34 3 6.1588 5.21153 8.72494 
ITEM: TIMESTEP
150
ITEM: NUMBER OF ATOMS
34
ITEM: BOX BOUNDS pp pp pp
0.0000000000000000e+00 7.0970000000000004e+00
0.0000000000000000e+00 7.0970000000000004e+00
0.0000000000000000e+00 2.4588000000000001e+01
ITEM: ATOMS id type x y z 
2 1 3.37751 1.63294 13.3151 
5 1 4.65209 1.57928 18.131 
7 1 3.41318 1.60334 15.9739 
8 1 2.16117 1.57914 18.1357 
18 1 3.40571 1.5793 17.4127 
21 1 3.33088 2.87993 12.5962 
23 1 3.39728 1.62312 14.7537 
24 1 3.32753 0.383964 12.6007 
17 1 7.02845 2.87715 24.2787 
19 1 6.99394 1.61947 22.1214 
20 1 7.02882 0.388367 24.2839 
22 1 6.95371 1.57951 19.4629 
25 1 5.70681 1.57935 18.7451 
27 1 6.96809 1.60121 20.9014 
28 1 1.10249 1.57925 18.7427 
30 1 7.0246 1.63135 23.5598 
10 1 6.86303 5.23555 5.11325 
13 1 7.03164 3.93186 0.304835 
15 1 6.9572 5.19739 2.45636 
16 1 7.03197 6.42576 0.301431 
26 1 7.03524 5.17968 1.02019 
29 1 5.61595 5.23276 5.82969 
31 1 6.89106 5.21454 3.67484 
32 1 1.02058 5.23296 5.817 
1 1 4.55906 5.23042 6.44073 
3 1 3.30196 5.21156 8.6053 
4 1 2.08195 5.23071 6.42013 
6 1 3.23758 5.18191 11.2629 
9 1 3.28897 3.93066 11.9774 
11 1 3.27247 5.19807 9.82848 
12 1 3.28605 6.42891 11.984 
14 1 3.31437 5.22765 7.15731 
33 2 5.21913 5.21238 8.67916 
34 3 6.15953 5.21156 8.72599 
ITEM: TIMESTEP
153
ITEM: NUMBER OF ATOMS
34
ITEM: BOX BOUNDS pp pp pp
0.0000000000000000e+00 7.0970000000000004e+00
0.0000000000000000e+00 7.0970000000000004e+00
0.0000000000000000e+00 2.4588000000000001e+01
ITEM: ATOMS id type x y z 
2 1 3.37753 1.63294 13.3151 
5 1 4.65209 1.57928 18.131 
7 1 3.41316 1.60334 15.9739 
8 1 2.16117 1.57915 18.1357 
18 1 3.40572 1.5793 17.4127 
21 1 3.33082 2.87993 12.5962 
23 1 3.39728 1.62312 14.7537 
24 1 3.32758 0.383968 12.6007 
17 1 7.02845 2.87715 24.2787 
19 1 6.99394 1.61947 22.1214 
20 1 7.02882 0.388366 24.2839 
22 1 6.95371 1.57951 19.4629 
25 1 5.70682 1.57935 18.7451 
27 1 6.96808 1.60121 20.9014 
28 1 1.10249 1.57925 18.7427 
30 1 7.0246 1.63135 23.5598 
10 1 6.86304 5.23554 5.11325 
13 1 7.03164 3.93186 0.304835 
15 1 6.9572 5.19739 2.45636 
16 1 7.03197 6.42576 0.301422 
26 1 7.03524 5.17968 1.02019 
29 1 5.61594 5.23277 5.82966 
31 1 6.89106 5.21453 3.67485 
32 1 1.02058 5.23296 5.81702 
1 1 4.55905 5.23042 6.4407 
3 1 3.302 5.2116 8.6053 
4 1 2.08193 5.23072 6.42017 
6 1 3.23765 5.18194 11.2628 
9 1 3.28894 3.93067 11.9774 
11 1 3.27237 5.19798 9.82848 
12 1 3.28603 6.4289 11.984 
14 1 3.31438 5.22765 7.15732 
33 2 5.21915 5.21238 8.67919 
34 3 6.15955 5.21156 8.72603 
ITEM: TIMESTEP
160
ITEM: NUMBER OF ATOMS
34
ITEM: BOX BOUNDS pp pp pp
-1.2965072950912432e-03 7.0982965072950917e+00
-1.2785049896270233e-03 7.0982785049896266e+00
-8.6058000000000020e-03 2.4596605799999999e+01
ITEM: ATOMS id type x y z 
2 1 3.37747 1.63225 13.3158 
5 1 4.65249 1.57858 18.1351 
7 1 3.41311 1.60264 15.9764 
8 1 2.16066 1.57844 18.1397 
18 1 3.40567 1.57859 17.4163 
21 1 3.33074 2.87969 12.5964 
23 1 3.39723 1.62243 14.7554 
24 1 3.3275 0.382824 12.6009 
17 1 7.02972 2.87691 24.2871 
19 1 6.9952 1.61877 22.1283 
20 1 7.03009 0.387221 24.2923 
22 1 6.95496 1.5788 19.4679 
25 1 5.7076 1.57864 18.7496 
27 1 6.96933 1.60051 20.9075 
28 1 1.1016 1.57854 18.7472 
30 1 7.02587 1.63066 23.5677 
10 1 6.86425 5.23615 5.10822 
13 1 7.03292 3.93199 0.296439 
15 1 6.95845 5.19799 2.44948 
16 1 7.03324 6.4268 0.293023 
26 1 7.03651 5.18027 1.0123 
29 1 5.61669 5.23338 5.82514 
31 1 6.89228 5.21513 3.6688 
32 1 1.01966 5.23357 5.8125 
1 1 4.55942 5.23103 6.4366 
3 1 3.30191 5.21221 8.60273 
4 1 2.08139 5.23132 6.41606 
6 1 3.23754 5.18254 11.2621 
9 1 3.28885 3.9308 11.9772 
11 1 3.27228 5.19855 9.82674 
12 1 3.28593 6.42994 11.9838 
14 1 3.31429 5.22826 7.15373 
33 2 5.21976 5.21298 8.67666 
34 3 6.16051 5.21216 8.72353 
ITEM: TIMESTEP
170
ITEM: NUMBER OF ATOMS
34
ITEM: BOX BOUNDS pp pp pp
-3.6686550736271754e-03 7.1006686550736271e+00
-3.6293983479071387e-03 7.1006293983479063e+00
-2.0737130947270564e-02 2.4608737130947269e+01
ITEM: ATOMS id type x y z 
2 1 3.37736 1.63099 13.3168 
5 1 4.65329 1.57727 18.1409 
7 1 3.41301 1.60135 15.9799 
8 1 2.15967 1.57713 18.1455 
18 1 3.40558 1.57729 17.4214 
21 1 3.33058 2.8793 12.5967 
23 1 3.39713 1.62115 14.7579 
24 1 3.32736 0.380657 12.6012 
17 1 7.03205 2.87653 24.299 
19 1 6.9975 1.61749 22.1379 
20 1 7.03242 0.385064 24.3041 
22 1 6.95723 1.5775 19.475 
25 1 5.70898 1.57734 18.7559 
27 1 6.97162 1.59922 20.9161 
28 1 1.10003 1.57723 18.7535 
30 1 7.0282 1.62939 23.5788 
10 1 6.86647 5.23726 5.10113 
13 1 7.03524 3.93218 0.284571 
15 1 6.96072 5.19908 2.43989 
16 1 7.03557 6.42877 0.281152 
26 1 7.03884 5.18135 1.00118 
29 1 5.618 5.23449 5.81879 
31 1 6.89452 5.21623 3.66018 
32 1 1.01804 5.23468 5.80615 
1 1 4.56016 5.23214 6.43078 
3 1 3.30174 5.2133 8.59922 
4 1 2.08034 5.23244 6.41024 
6 1 3.23734 5.18362 11.2611 
9 1 3.28867 3.93101 11.9769 
11 1 3.2721 5.19965 9.82416 
12 1 3.28576 6.43192 11.9835 
14 1 3.31413 5.22937 7.14868 
33 2 5.22088 5.21408 8.6731 
34 3 6.16225 5.21326 8.72002 
ITEM: TIMESTEP
180
ITEM: NUMBER OF ATOMS
34
ITEM: BOX BOUNDS pp pp pp
-4.5973640580021756e-03 7.1015973640580015e+00
-4.2130001860035127e-03 7.1012130001860028e+00
-2.2495546446426169e-02 2.4610495546446423e+01
ITEM: ATOMS id type x y z 
2 1 3.37731 1.63067 13.317 
5 1 4.65364 1.57695 18.1418 
7 1 3.41297 1.60103 15.9804 
8 1 2.15925 1.57681 18.1464 
18 1 3.40554 1.57696 17.4221 
21 1 3.33052 2.87926 12.5967 
23 1 3.39709 1.62083 14.7584 
24 1 3.3273 0.380017 12.6012 
17 1 7.03296 2.87648 24.3007 
19 1 6.9984 1.61717 22.1392 
20 1 7.03333 0.38449 24.3059 
22 1 6.95813 1.57717 19.4761 
25 1 5.70949 1.57701 18.7568 
27 1 6.97252 1.5989 20.9174 
28 1 1.09945 1.57691 18.7544 
30 1 7.02911 1.62908 23.5804 
10 1 6.86734 5.23754 5.1001 
13 1 7.03616 3.93219 0.282824 
15 1 6.9616 5.19936 2.43858 
16 1 7.03648 6.42929 0.279404 
26 1 7.03975 5.18162 0.999577 
29 1 5.61847 5.23477 5.8179 
31 1 6.8954 5.21651 3.65886 
32 1 1.01744 5.23496 5.80526 
1 1 4.56049 5.23242 6.4299 
3 1 3.30167 5.21357 8.59889 
4 1 2.07989 5.23272 6.40937 
6 1 3.23726 5.1839 11.2609 
9 1 3.2886 3.93101 11.9769 
11 1 3.27204 5.19993 9.82363 
12 1 3.28569 6.43249 11.9836 
14 1 3.31407 5.22965 7.14796 
33 2 5.22132 5.21436 8.67259 
34 3 6.16294 5.21353 8.71951 
ITEM: TIMESTEP
182
ITEM: NUMBER OF ATOMS
34
ITEM: BOX BOUNDS pp pp pp
-4.5984036576115503e-03 7.1015984036576105e+00
-4.2136709941475638e-03 7.1012136709941469e+00
-2.2497273777965746e-02 2.4610497273777963e+01
ITEM: ATOMS id type x y z 
2 1 3.37731 1.63067 13.317 
5 1 4.65364 1.57695 18.1418 
7 1 3.41297 1.60103 15.9804 
8 1 2.15925 1.57681 18.1464 
18 1 3.40554 1.57696 17.4221 
21 1 3.33052 2.87926 12.5967 
23 1 3.39709 1.62083 14.7584 
24 1 3.3273 0.380016 12.6012 
17 1 7.03296 2.87648 24.3007 
19 1 6.99841 1.61717 22.1392 
20 1 7.03333 0.384489 24.3059 
22 1 6.95813 1.57717 19.4761 
25 1 5.70949 1.57701 18.7568 
27 1 6.97252 1.5989 20.9174 
28 1 1.09945 1.57691 18.7544 
30 1 7.02911 1.62908 23.5804 
10 1 6.86734 5.23754 5.1001 
13 1 7.03616 3.93219 0.282822 
15 1 6.9616 5.19936 2.43858 
16 1 7.03648 6.42929 0.279402 
26 1 7.03975 5.18162 0.999576 
29 1 5.61847 5.23477 5.8179 
31 1 6.8954 5.21651 3.65885 
32 1 1.01744 5.23496 5.80526 
1 1 4.56049 5.23242 6.4299 
3 1 3.30167 5.21357 8.59889 
4 1 2.07989 5.23272 6.40937 
6 1 3.23726 5.1839 11.2609 
9 1 3.2886 3.93101 11.9769 
11 1 3.27204 5.19993 9.82363 
12 1 3.28569 6.43249 11.9836 
14 1 3.31407 5.22965 7.14796 
33 2 5.22132 5.21436 8.67259 
34 3 6.16294 5.21354 8.71951 
ITEM: TIMESTEP
190
ITEM: NUMBER OF ATOMS
34
ITEM: BOX BOUNDS pp pp pp
-4.5984036576115503e-03 7.1015984036576105e+00
-4.2136709941475638e-03 7.1012136709941469e+00
-2.2497273777965746e-02 2.4610497273777963e+01
ITEM: ATOMS id type x y z 
2 1 3.3774 1.63072 13.3173 
5 1 4.65439 1.57701 18.1424 
7 1 3.41213 1.60099 15.9792 
8 1 2.15863 1.57686 18.1463 
18 1 3.40604 1.57712 17.4214 
21 1 3.32913 2.87991 12.5959 
23 1 3.39696 1.62065 14.7592 
24 1 3.32793 0.379699 12.6 
17 1 7.03304 2.87728 24.3009 
19 1 6.9984 1.61707 22.138 
20 1 7.03346 0.383732 24.306 
22 1 6.9583 1.5772 19.4763 
25 1 5.70887 1.57703 18.7567 
27 1 6.97253 1.59891 20.9182 
28 1 1.10036 1.57692 18.7537 
30 1 7.0292 1.62903 23.5798 
10 1 6.86776 5.2373 5.09959 
13 1 7.0361 3.93153 0.282428 
15 1 6.96141 5.19962 2.4397 
16 1 7.03641 6.42984 0.278746 
26 1 7.03921 5.18176 1.00022 
29 1 5.61733 5.23476 5.81738 
31 1 6.89564 5.21641 3.65806 
32 1 1.01802 5.23493 5.80649 
1 1 4.56078 5.23242 6.42857 
3 1 3.30187 5.21313 8.59922 
4 1 2.07855 5.23282 6.41076 
6 1 3.23816 5.18349 11.2601 
9 1 3.28757 3.93072 11.9777 
11 1 3.27257 5.20039 9.82219 
12 1 3.28627 6.43281 11.9845 
14 1 3.31421 5.22965 7.14919 
33 2 5.22218 5.21429 8.67381 
34 3 6.16285 5.21357 8.72067 
ITEM: TIMESTEP
196
ITEM: NUMBER OF ATOMS
34
ITEM: BOX BOUNDS pp pp pp
-4.5984036576115503e-03 7.1015984036576105e+00
-4.2136709941475638e-03 7.1012136709941469e+00
-2.2497273777965746e-02 2.4610497273777963e+01
ITEM: ATOMS id type x y z 
2 1 3.37735 1.63075 13.3173 
5 1 4.65441 1.57702 18.1425 
7 1 3.41208 1.60098 15.9792 
8 1 2.15863 1.57688 18.1462 
18 1 3.40606 1.57712 17.4214 
21 1 3.3291 2.87982 12.5959 
23 1 3.39687 1.62064 14.7592 
24 1 3.3279 0.379819 12.6 
17 1 7.03304 2.87731 24.3009 
19 1 6.99842 1.61706 22.138 
20 1 7.03345 0.383711 24.306 
22 1 6.95833 1.5772 19.4763 
25 1 5.70886 1.57704 18.7567 
27 1 6.97252 1.5989 20.9182 
28 1 1.1004 1.57693 18.7536 
30 1 7.02924 1.62903 23.5798 
10 1 6.86778 5.2373 5.0996 
13 1 7.03606 3.93152 0.282431 
15 1 6.96141 5.19964 2.43973 
16 1 7.03638 6.42984 0.27871 
26 1 7.03918 5.18176 1.00024 
29 1 5.61726 5.23472 5.81727 
31 1 6.89566 5.21641 3.65806 
32 1 1.01802 5.23493 5.8066 
1 1 4.56077 5.2324 6.42845 
3 1 3.30191 5.21346 8.59922 
4 1 2.07844 5.23282 6.41095 
6 1 3.23815 5.18376 11.26 
9 1 3.28748 3.93081 11.9777 
11 1 3.2726 5.19981 9.82225 
12 1 3.28648 6.43265 11.9844 
14 1 3.31423 5.22966 7.14913 
33 2 5.22225 5.21428 8.67395 
34 3 6.16289 5.21357 8.72082 
ITEM: TIMESTEP
200
ITEM: NUMBER OF ATOMS
34
ITEM: BOX BOUNDS pp pp pp
-5.3148186396977520e-03 7.1023148186396963e+00
-4.9368175511338456e-03 7.1019368175511337e+00
-2.7423872687476938e-02 2.4615423872687469e+01
ITEM: ATOMS id type x y z 
2 1 3.37731 1.63036 13.3177 
5 1 4.65464 1.57662 18.1448 
7 1 3.41205 1.60058 15.9806 
8 1 2.15835 1.57648 18.1485 
18 1 3.40604 1.57672 17.4234 
21 1 3.32905 2.87969 12.596 
23 1 3.39684 1.62025 14.7602 
24 1 3.32786 0.379172 12.6001 
17 1 7.03374 2.87717 24.3057 
19 1 6.99911 1.61667 22.1419 
20 1 7.03416 0.383064 24.3108 
22 1 6.95902 1.5768 19.4792 
25 1 5.7093 1.57664 18.7593 
27 1 6.97321 1.5985 20.9216 
28 1 1.09991 1.57653 18.7562 
30 1 7.02995 1.62864 23.5843 
10 1 6.86845 5.23764 5.09672 
13 1 7.03677 3.9316 0.277625 
15 1 6.9621 5.19998 2.43579 
16 1 7.03709 6.43043 0.273901 
26 1 7.03988 5.1821 0.99572 
29 1 5.61767 5.23507 5.81468 
31 1 6.89634 5.21675 3.6546 
32 1 1.01752 5.23527 5.80401 
1 1 4.56098 5.23274 6.4261 
3 1 3.30186 5.2138 8.59775 
4 1 2.07814 5.23316 6.4086 
6 1 3.23809 5.1841 11.2596 
9 1 3.28743 3.93088 11.9776 
11 1 3.27255 5.20014 9.82125 
12 1 3.28643 6.43324 11.9843 
14 1 3.31418 5.23001 7.14707 
33 2 5.22259 5.21462 8.67251 
34 3 6.16342 5.21391 8.7194 
ITEM: TIMESTEP
210
ITEM: NUMBER OF ATOMS
34
ITEM: BOX BOUNDS pp pp pp
-7.1880153282923532e-03 7.1041880153282913e+00
-6.8595816570598371e-03 7.1038595816570602e+00
-3.5947863493697108e-02 2.4623947863493679e+01
ITEM: ATOMS id type x y z 
2 1 3.37722 1.62933 13.3184 
5 1 4.65529 1.57556 18.1489 
7 1 3.41197 1.59953 15.9831 
8 1 2.15754 1.57541 18.1526 
18 1 3.40596 1.57565 17.427 
21 1 3.32893 2.87938 12.5962 
23 1 3.39675 1.6192 14.762 