ITEM: TIMESTEP
0
ITEM: NUMBER OF ATOMS
59
ITEM: BOX BOUNDS pp pp pp
0.0000000000000000e+00 3.2808000000000000e+01
0.0000000000000000e+00 1.7780000000000001e+01
0.0000000000000000e+00 2.4729999999999999e+00
ITEM: ATOMS id type x y z 
13 1 7.043 0.849 2.464 
29 1 7.397 1.432 1.228 
37 1 8.035 2.733 1.228 
1 1 6.173 17.398 2.464 
5 1 5.371 17.398 1.228 
9 1 3.973 17.398 1.228 
16 1 7.043 16.167 2.464 
32 1 7.397 15.584 1.228 
40 1 8.035 14.283 1.228 
45 1 3.236 17.398 2.464 
49 1 1.81 17.398 2.464 
53 1 1.083 17.398 1.228 
4 1 10.968 8.508 2.464 
8 1 11.771 8.508 1.228 
12 1 13.168 8.508 1.228 
18 1 10.098 7.277 2.464 
21 1 8.308 3.392 2.464 
26 1 8.833 4.734 2.464 
34 1 9.745 6.694 1.228 
42 1 9.106 5.393 1.228 
48 1 13.906 8.508 2.464 
52 1 15.331 8.508 2.464 
56 1 16.058 8.508 1.228 
57 2 8.915 2.169 0.003 
58 2 10.115 1.269 0.003 
59 3 10.791 1.969 0.003 
19 1 10.098 9.739 2.464 
24 1 8.308 13.624 2.464 
27 1 8.833 12.282 2.464 
35 1 9.745 10.322 1.228 
43 1 9.106 11.623 1.228 
3 1 22.577 8.508 2.464 
7 1 21.775 8.508 1.228 
11 1 20.377 8.508 1.228 
20 1 23.447 7.277 2.464 
36 1 23.801 6.694 1.228 
44 1 24.439 5.393 1.228 
47 1 19.64 8.508 2.464 
51 1 18.214 8.508 2.464 
55 1 17.487 8.508 1.228 
17 1 23.447 9.739 2.464 
33 1 23.801 10.322 1.228 
41 1 24.439 11.623 1.228 
15 1 26.502 0.849 2.464 
23 1 25.237 3.392 2.464 
28 1 24.712 4.734 2.464 
31 1 26.149 1.432 1.228 
39 1 25.511 2.733 1.228 
2 1 27.373 17.398 2.464 
6 1 28.175 17.398 1.228 
10 1 29.572 17.398 1.228 
14 1 26.502 16.167 2.464 
22 1 25.237 13.624 2.464 
25 1 24.712 12.282 2.464 
30 1 26.149 15.584 1.228 
38 1 25.511 14.283 1.228 
46 1 30.31 17.398 2.464 
50 1 31.735 17.398 2.464 
54 1 32.462 17.398 1.228 
ITEM: TIMESTEP
10
ITEM: NUMBER OF ATOMS
59
ITEM: BOX BOUNDS pp pp pp
0.0000000000000000e+00 3.2808000000000000e+01
0.0000000000000000e+00 1.7780000000000001e+01
0.0000000000000000e+00 2.4729999999999999e+00
ITEM: ATOMS id type x y z 
13 1 7.08037 0.842809 2.46352 
29 1 7.43194 1.51586 1.22714 
37 1 7.85118 2.82191 1.28885 
1 1 6.19599 17.443 2.46423 
5 1 5.36602 17.4081 1.22747 
9 1 3.96964 17.3984 1.22766 
16 1 7.07366 16.1963 2.46437 
32 1 7.42678 15.582 1.2277 
40 1 8.04379 14.321 1.22765 
45 1 3.24112 17.398 2.46437 
49 1 1.81639 17.398 2.46435 
53 1 1.08465 17.398 1.22764 
4 1 10.969 8.49917 2.46432 
8 1 11.7989 8.50548 1.22757 
12 1 13.1979 8.508 1.22766 
18 1 10.0599 7.28615 2.46436 
21 1 8.25984 3.2878 2.49378 
26 1 8.83565 4.72159 2.46444 
34 1 9.70864 6.67879 1.22767 
42 1 9.07132 5.35481 1.22712 
48 1 13.9063 8.50802 2.46437 
52 1 15.3176 8.508 2.46436 
56 1 16.0494 8.508 1.22764 
57 2 9.1226 2.09371 -0.0861351 
58 2 10.1352 1.28444 0.00410387 
59 3 10.7747 1.94681 0.00241347 
19 1 10.0613 9.72148 2.46436 
24 1 8.30861 13.6445 2.46434 
27 1 8.83097 12.2649 2.46434 
35 1 9.70617 10.3409 1.2277 
43 1 9.09677 11.5852 1.22765 
3 1 22.5703 8.508 2.46432 
7 1 21.7432 8.508 1.22757 
11 1 20.3483 8.508 1.22766 
20 1 23.4843 7.2908 2.46436 
36 1 23.8399 6.67497 1.2277 
44 1 24.4485 5.42981 1.22765 
47 1 19.6426 8.508 2.46437 
51 1 18.2283 8.508 2.46436 
55 1 17.4914 8.508 1.22764 
17 1 23.4843 9.7252 2.46436 
33 1 23.8399 10.341 1.2277 
41 1 24.4485 11.5862 1.22765 
15 1 26.4648 0.835302 2.46436 
23 1 25.2362 3.37202 2.46434 
28 1 24.713 4.75315 2.46434 
31 1 26.1101 1.45136 1.2277 
39 1 25.5013 2.69676 1.22765 
2 1 27.3783 17.398 2.46432 
6 1 28.2058 17.398 1.22757 
10 1 29.6005 17.398 1.22766 
14 1 26.4648 16.1807 2.46436 
22 1 25.2362 13.644 2.46434 
25 1 24.713 12.2628 2.46434 
30 1 26.1101 15.5646 1.2277 
38 1 25.5013 14.3192 1.22765 
46 1 30.3084 17.398 2.46437 
50 1 31.727 17.398 2.46436 
54 1 32.4592 17.398 1.22764 
ITEM: TIMESTEP
20
ITEM: NUMBER OF ATOMS
59
ITEM: BOX BOUNDS pp pp pp
0.0000000000000000e+00 3.2808000000000000e+01
0.0000000000000000e+00 1.7780000000000001e+01
0.0000000000000000e+00 2.4729999999999999e+00
ITEM: ATOMS id type x y z 
13 1 7.11475 0.815246 2.46709 
29 1 7.40886 1.48696 1.22925 
37 1 7.75911 2.92417 1.22419 
1 1 6.19906 17.426 2.46407 
5 1 5.37296 17.4191 1.2278 
9 1 3.96774 17.3959 1.22784 
16 1 7.10691 16.1849 2.46416 
32 1 7.45062 15.5738 1.22784 
40 1 8.05472 14.3275 1.22783 
45 1 3.25554 17.3967 2.46415 
49 1 1.83767 17.3978 2.46416 
53 1 1.08653 17.398 1.22784 
4 1 10.9619 8.49279 2.46412 
8 1 11.7679 8.49945 1.22784 
12 1 13.1939 8.50835 1.22784 
18 1 10.0462 7.2822 2.46418 
21 1 8.32915 3.32973 2.50871 
26 1 8.82057 4.65099 2.47056 
34 1 9.68427 6.67312 1.22787 
42 1 9.07643 5.38117 1.23058 
48 1 13.913 8.50837 2.46416 
52 1 15.2962 8.50807 2.46416 
56 1 16.0468 8.508 1.22784 
57 2 9.18471 2.14416 -0.0538474 
58 2 10.152 1.23587 0.00676567 
59 3 10.7899 1.9595 0.00182131 
19 1 10.0439 9.72064 2.46419 
24 1 8.31383 13.6511 2.46416 
27 1 8.8251 12.2594 2.46416 
35 1 9.69198 10.3284 1.22783 
43 1 9.08255 11.5838 1.22783 
3 1 22.5719 8.508 2.46412 
7 1 21.7694 8.508 1.22784 
11 1 20.3396 8.508 1.22784 
20 1 23.4994 7.29004 2.46419 
36 1 23.8576 6.68291 1.22784 
44 1 24.462 5.43634 1.22783 
47 1 19.6295 8.508 2.46416 
51 1 18.2497 8.508 2.46416 
55 1 17.4981 8.508 1.22784 
17 1 23.4994 9.72596 2.46419 
33 1 23.8576 10.3331 1.22784 
41 1 24.462 11.5797 1.22783 
15 1 26.4486 0.836479 2.46419 
23 1 25.2296 3.36741 2.46416 
28 1 24.719 4.75899 2.46416 
31 1 26.0911 1.44563 1.22783 
39 1 25.4878 2.69025 1.22783 
2 1 27.3739 17.398 2.46412 
6 1 28.1817 17.398 1.22785 
10 1 29.606 17.398 1.22784 
14 1 26.4486 16.1795 2.46419 
22 1 25.2296 13.6486 2.46416 
25 1 24.719 12.257 2.46416 
30 1 26.0911 15.5704 1.22783 
38 1 25.4878 14.3257 1.22783 
46 1 30.3029 17.398 2.46416 
50 1 31.6948 17.398 2.46417 
54 1 32.4497 17.398 1.22784 
ITEM: TIMESTEP
30
ITEM: NUMBER OF ATOMS
59
ITEM: BOX BOUNDS pp pp pp
0.0000000000000000e+00 3.2808000000000000e+01
0.0000000000000000e+00 1.7780000000000001e+01
0.0000000000000000e+00 2.4729999999999999e+00
ITEM: ATOMS id type x y z 
13 1 7.14591 0.827163 2.46693 
29 1 7.39841 1.49038 1.23074 
37 1 7.65111 2.92554 1.2425 
1 1 6.21631 17.4385 2.46443 
5 1 5.39285 17.428 1.22789 
9 1 3.99715 17.3958 1.22775 
16 1 7.11191 16.1954 2.46422 
32 1 7.4654 15.5841 1.22773 
40 1 8.06827 14.3309 1.22775 
45 1 3.24826 17.3942 2.46425 
49 1 1.78008 17.3974 2.46425 
53 1 1.09152 17.3981 1.22775 
4 1 10.9533 8.48874 2.46424 
8 1 11.7596 8.49593 1.22774 
12 1 13.1787 8.50853 1.22775 
18 1 10.0351 7.2831 2.46452 
21 1 8.32355 3.28417 2.48202 
26 1 8.86072 4.6854 2.46972 
34 1 9.67039 6.68299 1.22823 
42 1 9.05791 5.36258 1.23273 
48 1 13.9271 8.50907 2.46425 
52 1 15.3009 8.50824 2.46425 
56 1 16.0406 8.50796 1.22775 
57 2 9.20304 2.19656 -0.0520492 
58 2 10.2129 1.2033 0.00959838 
59 3 10.7899 1.9348 0.00181538 
19 1 10.0347 9.7139 2.46426 
24 1 8.32282 13.6481 2.46425 
27 1 8.81854 12.2559 2.46425 
35 1 9.67675 10.3192 1.22776 
43 1 9.07012 11.5771 1.22775 
3 1 22.5766 8.508 2.46423 
7 1 21.7722 8.508 1.22774 
11 1 20.3514 8.508 1.22775 
20 1 23.5066 7.29481 2.46426 
36 1 23.8729 6.69266 1.22776 
44 1 24.4765 5.44192 1.22775 
47 1 19.6161 8.508 2.46425 
51 1 18.244 8.508 2.46425 
55 1 17.5055 8.50798 1.22775 
17 1 23.5066 9.72119 2.46426 
33 1 23.8729 10.3233 1.22776 
41 1 24.4765 11.5741 1.22775 
15 1 26.4406 0.831711 2.46426 
23 1 25.2218 3.36617 2.46425 
28 1 24.7265 4.76112 2.46425 
31 1 26.0757 1.43598 1.22776 
39 1 25.4731 2.68524 1.22775 
2 1 27.3671 17.398 2.46423 
6 1 28.1781 17.398 1.22774 
10 1 29.5993 17.398 1.22775 
14 1 26.4406 16.1843 2.46426 
22 1 25.2218 13.6498 2.46425 
25 1 24.7265 12.2549 2.46425 
30 1 26.0757 15.58 1.22776 
38 1 25.4731 14.3308 1.22775 
46 1 30.3173 17.398 2.46425 
50 1 31.693 17.398 2.46425 
54 1 32.4802 17.3981 1.22775 
ITEM: TIMESTEP
40
ITEM: NUMBER OF ATOMS
59
ITEM: BOX BOUNDS pp pp pp
0.0000000000000000e+00 3.2808000000000000e+01
0.0000000000000000e+00 1.7780000000000001e+01
0.0000000000000000e+00 2.4729999999999999e+00
ITEM: ATOMS id type x y z 
13 1 7.1732 0.832919 2.46755 
29 1 7.39771 1.52088 1.23106 
37 1 7.61579 2.95076 1.23996 
1 1 6.22511 17.4376 2.46454 
5 1 5.38797 17.4353 1.22805 
9 1 4.00765 17.3962 1.22776 
16 1 7.11929 16.1966 2.46421 
32 1 7.47609 15.5884 1.22772 
40 1 8.07779 14.333 1.22774 
45 1 3.24382 17.392 2.46426 
49 1 1.79892 17.3969 2.46425 
53 1 1.10695 17.3982 1.22775 
4 1 10.9454 8.48358 2.46426 
8 1 11.7424 8.49178 1.22777 
12 1 13.1717 8.50919 1.22775 
18 1 10.0208 7.27173 2.46488 
21 1 8.33016 3.2639 2.47811 
26 1 8.86233 4.667 2.47007 
34 1 9.65205 6.67192 1.22846 
42 1 9.05609 5.35209 1.23295 
48 1 13.9391 8.50969 2.46425 
52 1 15.3011 8.50842 2.46425 
56 1 16.0384 8.5079 1.22775 
57 2 9.1958 2.25254 -0.0494356 
58 2 10.2411 1.18251 0.0110136 
59 3 10.8015 1.92019 0.00180632 
19 1 10.0276 9.70917 2.46425 
24 1 8.32745 13.6504 2.46424 
27 1 8.81404 12.253 2.46425 
35 1 9.66551 10.3154 1.22776 
43 1 9.0616 11.5716 1.22775 
3 1 22.5787 8.508 2.46424 
7 1 21.7778 8.508 1.22774 
11 1 20.3523 8.508 1.22775 
20 1 23.5125 7.29591 2.46426 
36 1 23.8855 6.69529 1.22776 
44 1 24.4869 5.4462 1.22775 
47 1 19.6103 8.508 2.46425 
51 1 18.2451 8.508 2.46425 
55 1 17.5079 8.50795 1.22775 
17 1 23.5125 9.72009 2.46426 
33 1 23.8855 10.3207 1.22776 
41 1 24.4869 11.5698 1.22775 
15 1 26.435 0.829931 2.46426 
23 1 25.2168 3.3636 2.46425 
28 1 24.7317 4.76333 2.46425 
31 1 26.0635 1.43266 1.22776 
39 1 25.4626 2.68144 1.22775 
2 1 27.3643 17.398 2.46424 
6 1 28.1834 17.398 1.22774 
10 1 29.5917 17.398 1.22775 
14 1 26.435 16.1861 2.46426 
22 1 25.2168 13.6524 2.46425 
25 1 24.7317 12.2527 2.46425 
30 1 26.0635 15.5833 1.22776 
38 1 25.4626 14.3346 1.22775 
46 1 30.3097 17.398 2.46425 
50 1 31.7088 17.398 2.46425 
54 1 32.4485 17.3982 1.22775 
ITEM: TIMESTEP
50
ITEM: NUMBER OF ATOMS
59
ITEM: BOX BOUNDS pp pp pp
0.0000000000000000e+00 3.2808000000000000e+01
0.0000000000000000e+00 1.7780000000000001e+01
0.0000000000000000e+00 2.4729999999999999e+00
ITEM: ATOMS id type x y z 
13 1 7.20931 0.85011 2.46811 
29 1 7.38017 1.55944 1.23139 
37 1 7.57023 2.98903 1.2343 
1 1 6.26355 17.4641 2.46481 
5 1 5.4099 17.4598 1.22835 
9 1 4.03193 17.3964 1.22779 
16 1 7.13289 16.207 2.46421 
32 1 7.49623 15.5985 1.22771 
40 1 8.0971 14.3398 1.22774 
45 1 3.28172 17.3856 2.46431 
49 1 1.80964 17.3954 2.46425 
53 1 1.10007 17.3988 1.22775 
4 1 10.926 8.46182 2.46436 
8 1 11.7268 8.47606 1.22785 
12 1 13.154 8.51093 1.22775 
18 1 10.0055 7.26739 2.46538 
21 1 8.32977 3.21494 2.47064 
26 1 8.85912 4.62703 2.47017 
34 1 9.62488 6.66485 1.229 
42 1 9.04677 5.31225 1.23329 
48 1 13.922 8.51166 2.46425 
52 1 15.2968 8.50897 2.46425 
56 1 16.0312 8.50773 1.22775 
57 2 9.17945 2.3707 -0.0412374 
58 2 10.2813 1.14865 0.0129747 
59 3 10.838 1.8878 0.00162103 
19 1 10.0142 9.69291 2.46424 
24 1 8.33878 13.6525 2.46424 
27 1 8.80319 12.2488 2.46425 
35 1 9.64822 10.2975 1.22775 
43 1 9.04169 11.564 1.22775 
3 1 22.5865 8.508 2.46424 
7 1 21.7933 8.508 1.22774 
11 1 20.3636 8.508 1.22775 
20 1 23.5259 7.29657 2.46425 
36 1 23.9106 6.70506 1.22775 
44 1 24.5118 5.45433 1.22775 
47 1 19.5938 8.50802 2.46425 
51 1 18.2386 8.508 2.46425 
55 1 17.501 8.50784 1.22775 
17 1 23.5259 9.71943 2.46425 
33 1 23.9106 10.3109 1.22775 
41 1 24.5118 11.5617 1.22775 
15 1 26.423 0.828986 2.46425 
23 1 25.2041 3.35923 2.46425 
28 1 24.7445 4.76717 2.46425 
31 1 26.0395 1.42146 1.22775 
39 1 25.4384 2.67273 1.22775 
2 1 27.3587 17.398 2.46424 
6 1 28.1714 17.398 1.22774 
10 1 29.5833 17.398 1.22775 
14 1 26.423 16.187 2.46425 
22 1 25.2041 13.6568 2.46425 
25 1 24.7445 12.2488 2.46425 
30 1 26.0395 15.5945 1.22775 
38 1 25.4384 14.3433 1.22775 
46 1 30.3214 17.398 2.46425 
50 1 31.6939 17.398 2.46425 
54 1 32.4405 17.3986 1.22775 
ITEM: TIMESTEP
60
ITEM: NUMBER OF ATOMS
59
ITEM: BOX BOUNDS pp pp pp
0.0000000000000000e+00 3.2808000000000000e+01
0.0000000000000000e+00 1.7780000000000001e+01
0.0000000000000000e+00 2.4729999999999999e+00
ITEM: ATOMS id type x y z 
13 1 7.24696 0.873107 2.46731 
29 1 7.35225 1.61735 1.23109 
37 1 7.50038 3.01545 1.22191 
1 1 6.30304 17.497 2.46522 
5 1 5.43073 17.5054 1.22877 
9 1 4.06892 17.3998 1.22789 
16 1 7.15235 16.2383 2.46428 
32 1 7.52409 15.6264 1.22776 
40 1 8.13395 14.3503 1.22773 
45 1 3.31166 17.3725 2.46444 
49 1 1.85756 17.3897 2.46426 
53 1 1.136 17.3999 1.22777 
4 1 10.8904 8.4329 2.46459 
8 1 11.7039 8.44041 1.22809 
12 1 13.1142 8.5151 1.22777 
18 1 9.95868 7.23857 2.46611 
21 1 8.28874 3.18147 2.45828 
26 1 8.85951 4.60322 2.46879 
34 1 9.57983 6.64382 1.22979 
42 1 9.03871 5.27207 1.23298 
48 1 13.8888 8.51887 2.46427 
52 1 15.2863 8.51092 2.46425 
56 1 16.0231 8.50712 1.22775 
57 2 9.21867 2.49503 -0.0173951 
58 2 10.3265 1.10341 0.0150044 
59 3 10.8874 1.83288 6.52127e-05 
19 1 9.98488 9.66827 2.46425 
24 1 8.36175 13.6549 2.46423 
27 1 8.77925 12.2478 2.46425 
35 1 9.6163 10.266 1.22774 
43 1 9.00355 11.5517 1.22774 
3 1 22.5956 8.508 2.46425 
7 1 21.8029 8.508 1.22775 
11 1 20.3725 8.50801 1.22775 
20 1 23.5423 7.30485 2.46425 
36 1 23.955 6.72977 1.22775 
44 1 24.5646 5.47246 1.22775 
47 1 19.6072 8.50808 2.46425 
51 1 18.2256 8.50797 2.46425 
55 1 17.487 8.50737 1.22775 
17 1 23.5423 9.71115 2.46425 
33 1 23.9549 10.2862 1.22775 
41 1 24.5646 11.5435 1.22775 
15 1 26.4024 0.825841 2.46425 
23 1 25.1749 3.35273 2.46425 
28 1 24.7731 4.7758 2.46425 
31 1 25.9908 1.40352 1.22775 
39 1 25.3852 2.65542 1.22775 
2 1 27.3435 17.398 2.46425 
6 1 28.1348 17.398 1.22775 
10 1 29.5671 17.398 1.22775 
14 1 26.4024 16.1902 2.46425 
22 1 25.1749 13.6633 2.46425 
25 1 24.7731 12.2402 2.46425 
30 1 25.9908 15.6125 1.22775 
38 1 25.3852 14.3606 1.22775 
46 1 30.3548 17.3978 2.46425 
50 1 31.7369 17.3982 2.46425 
54 1 32.4593 17.4 1.22775 
ITEM: TIMESTEP
70
ITEM: NUMBER OF ATOMS
59
ITEM: BOX BOUNDS pp pp pp
0.0000000000000000e+00 3.2808000000000000e+01
0.0000000000000000e+00 1.7780000000000001e+01
0.0000000000000000e+00 2.4729999999999999e+00
ITEM: ATOMS id type x y z 
13 1 7.28108 0.893477 2.46631 
29 1 7.3192 1.63113 1.22996 
37 1 7.44791 3.05834 1.21253 
1 1 6.30873 17.5274 2.4656 
5 1 5.48002 17.5464 1.22906 
9 1 4.08802 17.4049 1.22808 
16 1 7.17388 16.2674 2.46438 
32 1 7.54489 15.6746 1.22784 
40 1 8.17583 14.3652 1.22773 
45 1 3.33134 17.3603 2.46456 
49 1 1.88798 17.3826 2.46429 
53 1 1.14383 17.3993 1.22778 
4 1 10.862 8.40649 2.46487 
8 1 11.6875 8.40344 1.22835 
12 1 13.0766 8.51705 1.22781 
18 1 9.91425 7.2259 2.46686 
21 1 8.23211 3.17406 2.45143 
26 1 8.85114 4.56119 2.46634 
34 1 9.53199 6.63375 1.23043 
42 1 9.0305 5.25035 1.23118 
48 1 13.8354 8.52977 2.46431 
52 1 15.2764 8.51389 2.46425 
56 1 16.0076 8.50632 1.22775 
57 2 9.26469 2.58025 0.00135735 
58 2 10.3698 1.05327 0.0171089 
59 3 10.9283 1.78438 -0.00140516 
19 1 9.95558 9.63856 2.46426 
24 1 8.38952 13.6528 2.46423 
27 1 8.74886 12.2575 2.46424 
35 1 9.58108 10.2288 1.22774 
43 1 8.95599 11.5397 1.22774 
3 1 22.6131 8.508 2.46425 
7 1 21.7993 8.50799 1.22775 
11 1 20.3959 8.50803 1.22775 
20 1 23.5624 7.30989 2.46425 
36 1 24.0037 6.75777 1.22775 
44 1 24.6283 5.48978 1.22775 
47 1 19.6248 8.5082 2.46425 
51 1 18.2027 8.5079 2.46425 
55 1 17.4679 8.50657 1.22775 
17 1 23.5624 9.70611 2.46425 
33 1 24.0037 10.2582 1.22775 
41 1 24.6283 11.5262 1.22775 
15 1 26.3892 0.810257 2.46425 
23 1 25.1386 3.34781 2.46425 
28 1 24.8099 4.77846 2.46425 
31 1 25.9543 1.36152 1.22775 
39 1 25.322 2.63929 1.22775 
2 1 27.3523 17.398 2.46425 
6 1 28.1637 17.398 1.22775 
10 1 29.5706 17.3978 1.22775 
14 1 26.3892 16.2057 2.46425 
22 1 25.1386 13.6682 2.46425 
25 1 24.8099 12.2375 2.46425 
30 1 25.9543 15.6545 1.22775 
38 1 25.322 14.3767 1.22775 
46 1 30.3244 17.3976 2.46425 
50 1 31.7645 17.3987 2.46425 
54 1 32.5138 17.4017 1.22775 
ITEM: TIMESTEP
80
ITEM: NUMBER OF ATOMS
59
ITEM: BOX BOUNDS pp pp pp
0.0000000000000000e+00 3.2808000000000000e+01
0.0000000000000000e+00 1.7780000000000001e+01
0.0000000000000000e+00 2.4729999999999999e+00
ITEM: ATOMS id type x y z 
13 1 7.28221 0.885609 2.46561 
29 1 7.31941 1.62358 1.22922 
37 1 7.4497 3.04978 1.21808 
1 1 6.30855 17.5283 2.4655 
5 1 5.47673 17.5478 1.22894 
9 1 4.09082 17.4069 1.22813 
16 1 7.17778 16.2683 2.46444 
32 1 7.55215 15.6779 1.2279 
40 1 8.1855 14.371 1.22775 
45 1 3.3366 17.3578 2.46461 
49 1 1.89195 17.379 2.4643 
53 1 1.15143 17.3984 1.2278 
4 1 10.8564 8.41354 2.46494 
8 1 11.6845 8.40008 1.22841 
12 1 13.0731 8.51447 1.22784 
18 1 9.90491 7.23595 2.46675 
21 1 8.2334 3.18169 2.45564 
26 1 8.85107 4.56806 2.4652 
34 1 9.52217 6.64015 1.2303 
42 1 9.02552 5.25725 1.22939 
48 1 13.8266 8.5372 2.46434 
52 1 15.273 8.51609 2.46426 
56 1 16.0112 8.50582 1.22776 
57 2 9.25988 2.54725 -0.00455957 
58 2 10.3732 1.04416 0.0174071 
59 3 10.9147 1.78976 -0.00123503 
19 1 9.949 9.64103 2.46428 
24 1 8.39475 13.655 2.46424 
27 1 8.74295 12.2571 2.46424 
35 1 9.56936 10.2291 1.22776 
43 1 8.94249 11.5399 1.22774 
3 1 22.6173 8.508 2.46425 
7 1 21.7907 8.50798 1.22775 
11 1 20.3984 8.50807 1.22775 
20 1 23.5652 7.31195 2.46425 
36 1 24.0124 6.76436 1.22775 
44 1 24.6489 5.49445 1.22775 
47 1 19.6459 8.5083 2.46425 
51 1 18.1979 8.5078 2.46425 
55 1 17.4613 8.50586 1.22775 
17 1 23.5652 9.70405 2.46425 
33 1 24.0124 10.2516 1.22775 
41 1 24.6489 11.5216 1.22775 
15 1 26.3932 0.805851 2.46425 
23 1 25.1263 3.34674 2.46425 
28 1 24.8233 4.77686 2.46425 
31 1 25.9473 1.35271 1.22775 
39 1 25.3028 2.63211 1.22775 
2 1 27.354 17.398 2.46425 
6 1 28.1765 17.398 1.22775 
10 1 29.5722 17.3977 1.22775 
14 1 26.3932 16.2102 2.46425 
22 1 25.1263 13.6693 2.46425 
25 1 24.8233 12.2391 2.46425 
30 1 25.9473 15.6633 1.22775 
38 1 25.3028 14.3839 1.22775 
46 1 30.3259 17.3975 2.46425 
50 1 31.7716 17.3992 2.46425 
54 1 32.5106 17.4025 1.22775 
ITEM: TIMESTEP
90
ITEM: NUMBER OF ATOMS
59
ITEM: BOX BOUNDS pp pp pp
0.0000000000000000e+00 3.2808000000000000e+01
0.0000000000000000e+00 1.7780000000000001e+01
0.0000000000000000e+00 2.4729999999999999e+00
ITEM: ATOMS id type x y z 
13 1 7.29267 0.879164 2.46456 
29 1 7.32326 1.6154 1.22805 
37 1 7.46754 3.0415 1.2255 
1 1 6.3112 17.5243 2.46517 
5 1 5.4841 17.551 1.22866 
9 1 4.09345 17.4098 1.22821 
16 1 7.1851 16.2696 2.46456 
32 1 7.57092 15.6852 1.22802 
40 1 8.21258 14.3783 1.22778 
45 1 3.3416 17.3509 2.4647 
49 1 1.89684 17.3701 2.46435 
53 1 1.15025 17.3956 1.22784 
4 1 10.8529 8.42036 2.46506 
8 1 11.676 8.39666 1.22852 
12 1 13.0701 8.50883 1.22793 
18 1 9.88404 7.25444 2.46629 
21 1 8.24565 3.18691 2.4619 
26 1 8.84468 4.58035 2.46354 
34 1 9.50325 6.65699 1.22977 
42 1 9.01616 5.26678 1.22721 
48 1 13.8221 8.5509 2.46442 
52 1 15.2667 8.5231 2.46427 
56 1 16.0121 8.50525 1.22777 
57 2 9.23799 2.50493 -0.0122608 
58 2 10.3841 1.02208 0.0181798 
59 3 10.8798 1.7971 -0.00143666 
19 1 9.93838 9.64534 2.46433 
24 1 8.40867 13.6632 2.46427 
27 1 8.72742 12.2533 2.46425 
35 1 9.54545 10.2237 1.22781 
43 1 8.91197 11.5357 1.22775 
3 1 22.6145 8.50801 2.46425 
7 1 21.7961 8.50796 1.22775 
11 1 20.3952 8.50821 1.22775 
20 1 23.57 7.31759 2.46425 
36 1 24.029 6.78553 1.22775 
44 1 24.7051 5.49781 1.22775 
47 1 19.6386 8.50858 2.46425 
51 1 18.1955 8.50733 2.46425 
55 1 17.4484 8.50367 1.22775 
17 1 23.57 9.69842 2.46425 
33 1 24.029 10.2305 1.22775 
41 1 24.705 11.5182 1.22775 
15 1 26.3973 0.803512 2.46425 
23 1 25.0953 3.34412 2.46425 
28 1 24.8579 4.76999 2.46425 
31 1 25.9329 1.33096 1.22775 
39 1 25.2524 2.6186 1.22775 
2 1 27.3615 17.398 2.46425 
6 1 28.1796 17.398 1.22775 
10 1 29.5825 17.3974 1.22775 
14 1 26.3973 16.2125 2.46425 
22 1 25.0953 13.6719 2.46425 
25 1 24.8579 12.246 2.46425 
30 1 25.9329 15.685 1.22775 
38 1 25.2524 14.3974 1.22775 
46 1 30.3344 17.3973 2.46425 
50 1 31.7806 17.4007 2.46426 
54 1 32.5286 17.405 1.22776 
ITEM: TIMESTEP
100
ITEM: NUMBER OF ATOMS
59
ITEM: BOX BOUNDS pp pp pp
0.0000000000000000e+00 3.2808000000000000e+01
0.0000000000000000e+00 1.7780000000000001e+01
0.0000000000000000e+00 2.4729999999999999e+00
ITEM: ATOMS id type x y z 
13 1 7.29473 0.877953 2.4645 
29 1 7.3257 1.61607 1.22799 
37 1 7.46942 3.04115 1.22555 
1 1 6.31472 17.5234 2.4651 
5 1 5.4855 17.5513 1.22858 
9 1 4.09751 17.41 1.22822 
16 1 7.18817 16.2676 2.46457 
32 1 7.5766 15.6855 1.22804 
40 1 8.21947 14.3812 1.22779 
45 1 3.344 17.3491 2.4647 
49 1 1.89992 17.3676 2.46436 
53 1 1.15765 17.3946 1.22785 
4 1 10.8513 8.42152 2.46506 
8 1 11.6754 8.39677 1.22852 
12 1 13.0681 8.50872 1.22795 
18 1 9.88021 7.25843 2.46613 
21 1 8.24784 3.18771 2.46187 
26 1 8.84319 4.58261 2.46361 
34 1 9.49844 6.66011 1.2296 
42 1 9.01426 5.26932 1.22723 
48 1 13.8218 8.55232 2.46444 
52 1 15.2663 8.52535 2.46428 
56 1 16.0083 8.50561 1.22777 
57 2 9.2351 2.50281 -0.0118963 
58 2 10.3872 1.01547 0.0184333 
59 3 10.8737 1.79641 -0.00174731 
19 1 9.93704 9.6466 2.46435 
24 1 8.41351 13.6628 2.46428 
27 1 8.72259 12.253 2.46425 
35 1 9.53982 10.2232 1.22783 
43 1 8.90513 11.5321 1.22775 
3 1 22.6168 8.508 2.46425 
7 1 21.7942 8.50797 1.22775 
11 1 20.3965 8.50829 1.22775 
20 1 23.5734 7.31766 2.46425 
36 1 24.0323 6.78468 1.22775 
44 1 24.7148 5.49946 1.22775 
47 1 19.6413 8.50867 2.46425 
51 1 18.197 8.50697 2.46425 
55 1 17.4544 8.50294 1.22775 
17 1 23.5734 9.69835 2.46425 
33 1 24.0323 10.2313 1.22775 
41 1 24.7148 11.5165 1.22775 
15 1 26.395 0.803962 2.46425 
23 1 25.0882 3.34338 2.46425 
28 1 24.865 4.77067 2.46425 
31 1 25.9297 1.33262 1.22775 
39 1 25.2429 2.61531 1.22775 
2 1 27.3583 17.398 2.46425 
6 1 28.18 17.398 1.22775 
10 1 29.5776 17.3973 1.22775 
14 1 26.3951 16.212 2.46425 
22 1 25.0882 13.6726 2.46425 
25 1 24.865 12.2453 2.46425 
30 1 25.9298 15.6834 1.22775 
38 1 25.2429 14.4007 1.22775 
46 1 30.3328 17.3973 2.46425 
50 1 31.7777 17.4014 2.46426 
54 1 32.5201 17.4058 1.22776 
ITEM: TIMESTEP
110
ITEM: NUMBER OF ATOMS
59
ITEM: BOX BOUNDS pp pp pp
0.0000000000000000e+00 3.2808000000000000e+01
0.0000000000000000e+00 1.7780000000000001e+01
0.0000000000000000e+00 2.4729999999999999e+00
ITEM: ATOMS id type x y z 
13 1 7.29212 0.871827 2.46409 
29 1 7.34129 1.60496 1.22757 
37 1 7.48522 3.03382 1.22579 
1 1 6.31689 17.5077 2.46461 
5 1 5.49449 17.5421 1.22813 
9 1 4.09703 17.4094 1.22823 
16 1 7.20502 16.2621 2.46465 
32 1 7.60922 15.6908 1.22814 
40 1 8.26694 14.3891 1.22787 
45 1 3.34061 17.3461 2.46471 
49 1 1.89995 17.3534 2.46444 
53 1 1.15083 17.3841 1.22792 
4 1 10.8541 8.43292 2.46499 
8 1 11.6724 8.40337 1.22847 
12 1 13.0719 8.50845 1.2281 
18 1 9.85838 7.28346 2.46508 
21 1 8.25641 3.20212 2.46229 
26 1 8.83306 4.60469 2.46378 
34 1 9.475 6.68906 1.22855 
42 1 9.00242 5.28889 1.2274 
48 1 13.8284 8.55583 2.46458 
52 1 15.27 8.53931 2.46433 
56 1 16.018 8.51126 1.22782 
57 2 9.2212 2.49229 -0.00989703 
58 2 10.4094 0.970141 0.0202299 
59 3 10.8341 1.78756 -0.00385008 
19 1 9.92993 9.65316 2.46448 
24 1 8.44325 13.6702 2.46436 
27 1 8.69195 12.2418 2.46429 
35 1 9.50991 10.2152 1.22796 
43 1 8.85797 11.5203 1.2278 
3 1 22.6298 8.50797 2.46425 
7 1 21.8117 8.50807 1.22775 
11 1 20.4084 8.50894 1.22775 
20 1 23.5971 7.32151 2.46425 
36 1 24.0428 6.77839 1.22775 
44 1 24.7586 5.50382 1.22775 
47 1 19.6489 8.50897 2.46425 
51 1 18.2086 8.50371 2.46426 
55 1 17.4598 8.49871 1.22776 
17 1 23.597 9.6945 2.46425 
33 1 24.0427 10.2376 1.22775 
41 1 24.7586 11.5122 1.22775 
15 1 26.3758 0.803194 2.46425 
23 1 25.0464 3.33293 2.46425 
28 1 24.9075 4.77942 2.46425 
31 1 25.9235 1.34016 1.22775 
39 1 25.1966 2.60844 1.22775 
2 1 27.3457 17.398 2.46425 
6 1 28.1623 17.3976 1.22775 
10 1 29.5677 17.3966 1.22775 
14 1 26.3758 16.2128 2.46425 
22 1 25.0464 13.6831 2.46425 
25 1 24.9075 12.2366 2.46425 
30 1 25.9235 15.6758 1.22775 
38 1 25.1966 14.4075 1.22775 
46 1 30.3284 17.3979 2.46426 
50 1 31.7682 17.4063 2.46428 
54 1 32.5187 17.4088 1.22779 
ITEM: TIMESTEP
120
ITEM: NUMBER OF ATOMS
59
ITEM: BOX BOUNDS pp pp pp
0.0000000000000000e+00 3.2808000000000000e+01
0.0000000000000000e+00 1.7780000000000001e+01
0.0000000000000000e+00 2.4729999999999999e+00
ITEM: ATOMS id type x y z 
13 1 7.275 0.868838 2.46401 
29 1 7.34324 1.59884 1.22749 
37 1 7.48991 3.02751 1.22613 
1 1 6.3092 17.4957 2.46458 
5 1 5.48302 17.5273 1.22809 
9 1 4.0896 17.4088 1.22818 
16 1 7.20972 16.2609 2.46462 
32 1 7.61528 15.6889 1.22812 
40 1 8.27287 14.3891 1.22789 
45 1 3.33306 17.3518 2.46468 
49 1 1.89101 17.3529 2.46445 
53 1 1.14686 17.3792 1.22794 
4 1 10.8603 8.43901 2.4649 
8 1 11.6789 8.41154 1.22839 
12 1 13.0774 8.50838 1.22811 
18 1 9.86345 7.29085 2.46496 
21 1 8.25722 3.21126 2.4626 
26 1 8.82802 4.61647 2.46374 
34 1 9.47802 6.69638 1.22843 
42 1 9.00119 5.29839 1.22733 
48 1 13.8348 8.55102 2.46459 
52 1 15.2757 8.53972 2.46435 
56 1 16.0208 8.51622 1.22784 
57 2 9.22557 2.50117 -0.00999034 
58 2 10.4161 0.958494 0.0207945 
59 3 10.8277 1.77994 -0.00438248 
19 1 9.92926 9.65433 2.4645 
24 1 8.44901 13.6675 2.46438 
27 1 8.68571 12.241 2.46432 
35 1 9.50881 10.2161 1.22798 
43 1 8.85319 11.5186 1.22782 
3 1 22.6333 8.50795 2.46425 
7 1 21.8146 8.50823 1.22775 
11 1 20.4127 8.50913 1.22775 
20 1 23.5994 7.32085 2.46425 
36 1 24.0423 6.77682 1.22775 
44 1 24.7501 5.50242 1.22775 
47 1 19.6533 8.50837 2.46425 
51 1 18.2121 8.5021 2.46426 
55 1 17.4664 8.49927 1.22777 
17 1 23.5993 9.69514 2.46425 
33 1 24.0423 10.2392 1.22775 
41 1 24.75 11.5136 1.22775 
15 1 26.3742 0.802351 2.46425 
23 1 25.0471 3.33566 2.46425 
28 1 24.9062 4.77631 2.46425 
31 1 25.9251 1.34205 1.22775 
39 1 25.2059 2.60931 1.22775 
2 1 27.3444 17.398 2.46425 
6 1 28.1632 17.3974 1.22775 
10 1 29.5645 17.3967 1.22776 
14 1 26.3741 16.2137 2.46425 
22 1 25.0471 13.6803 2.46425 
25 1 24.9062 12.2397 2.46425 
30 1 25.9251 15.6739 1.22775 
38 1 25.2059 14.4067 1.22775 
46 1 30.3231 17.399 2.46426 
50 1 31.7647 17.4075 2.46429 
54 1 32.5095 17.4073 1.2278 
ITEM: TIMESTEP
130
ITEM: NUMBER OF ATOMS
59
ITEM: BOX BOUNDS pp pp pp
0.0000000000000000e+00 3.2808000000000000e+01
0.0000000000000000e+00 1.7780000000000001e+01
0.0000000000000000e+00 2.4729999999999999e+00
ITEM: ATOMS id type x y z 
13 1 7.23691 0.871129 2.46382 
29 1 7.3408 1.5932 1.2273 
37 1 7.50758 3.02008 1.22685 
1 1 6.30179 17.467 2.46443 
5 1 5.47539 17.4831 1.22794 
9 1 4.07899 17.4075 1.22807 
16 1 7.22746 16.2515 2.46455 
32 1 7.6453 15.6864 1.22805 
40 1 8.30874 14.392 1.22795 
45 1 3.31493 17.3596 2.46456 
49 1 1.87879 17.3471 2.46448 
53 1 1.14103 17.3668 1.22797 
4 1 10.8686 8.45569 2.46467 
8 1 11.6901 8.43189 1.22817 
12 1 13.0884 8.50643 1.22812 
18 1 9.87791 7.30638 2.46457 
21 1 8.26793 3.22717 2.46329 
26 1 8.80316 4.64739 2.46371 
34 1 9.4811 6.71718 1.22805 
42 1 8.98903 5.32386 1.22724 
48 1 13.8504 8.54246 2.46461 
52 1 15.2869 8.54436 2.46441 
56 1 16.0246 8.52781 1.2279 
57 2 9.24682 2.53439 -0.0098413 
58 2 10.4371 0.913099 0.0230628 
59 3 10.8048 1.7583 -0.00659269 
19 1 9.93107 9.66427 2.46456 
24 1 8.46899 13.6633 2.46444 
27 1 8.6643 12.2336 2.4644 
35 1 9.49649 10.2152 1.22805 
43 1 8.8218 11.5083 1.2279 
3 1 22.6425 8.50791 2.46425 
7 1 21.8213 8.50885 1.22775 
11 1 20.4214 8.50922 1.22775 
20 1 23.601 7.31741 2.46425 
36 1 24.0528 6.77908 1.22775 
44 1 24.763 5.50528 1.22775 
47 1 19.6568 8.506 2.46426 
51 1 18.2211 8.49789 2.46428 
55 1 17.4836 8.50093 1.22779 
17 1 23.6011 9.69846 2.46425 
33 1 24.0528 10.2368 1.22775 
41 1 24.7631 11.5106 1.22775 
15 1 26.3725 0.809853 2.46425 
23 1 25.0429 3.33679 2.46425 
28 1 24.9078 4.77691 2.46425 
31 1 25.914 1.3426 1.22775 
39 1 25.1917 2.60768 1.22775 
2 1 27.3317 17.3979 2.46425 
6 1 28.1509 17.3967 1.22775 
10 1 29.5526 17.3976 1.22777 
14 1 26.372 16.2063 2.46425 
22 1 25.0428 13.6791 2.46425 
25 1 24.9079 12.239 2.46425 
30 1 25.9137 15.6734 1.22775 
38 1 25.1915 14.4082 1.22775 
46 1 30.3182 17.4025 2.46427 
50 1 31.7529 17.4109 2.46433 
54 1 32.4914 17.4045 1.22784 
ITEM: TIMESTEP
140
ITEM: NUMBER OF ATOMS
59
ITEM: BOX BOUNDS pp pp pp
0.0000000000000000e+00 3.2808000000000000e+01
0.0000000000000000e+00 1.7780000000000001e+01
0.0000000000000000e+00 2.4729999999999999e+00
ITEM: ATOMS id type x y z 
13 1 7.22868 0.87105 2.46383 
29 1 7.33695 1.59009 1.22731 
37 1 7.51051 3.01666 1.22685 
1 1 6.30203 17.4617 2.46442 
5 1 5.47397 17.4771 1.22793 
9 1 4.07875 17.4061 1.22805 
16 1 7.23091 16.252 2.46455 
32 1 7.64827 15.6878 1.22805 
40 1 8.31309 14.3929 1.22795 
45 1 3.32057 17.3611 2.46455 
49 1 1.87787 17.3466 2.46447 
53 1 1.13368 17.3658 1.22797 
4 1 10.8708 8.4588 2.46465 
8 1 11.6904 8.434 1.22815 
12 1 13.0887 8.50621 1.22811 
18 1 9.87846 7.3065 2.46453 
21 1 8.2686 3.22892 2.46331 
26 1 8.80007 4.65086 2.46372 
34 1 9.4817 6.71907 1.22801 
42 1 8.98546 5.32853 1.22726 
48 1 13.8454 8.54201 2.4646 
52 1 15.2875 8.54525 2.46441 
56 1 16.0319 8.52855 1.2279 
57 2 9.25163 2.53688 -0.00976175 
58 2 10.4401 0.908349 0.0233879 
59 3 10.8018 1.75424 -0.00691531 
19 1 9.93044 9.66647 2.46456 
24 1 8.47119 13.6672 2.46445 
27 1 8.66067 12.2328 2.46441 
35 1 9.49343 10.2168 1.22805 
43 1 8.81682 11.5062 1.22791 
3 1 22.6447 8.50792 2.46425 
7 1 21.8238 8.50892 1.22775 
11 1 20.424 8.50899 1.22776 
20 1 23.6039 7.31734 2.46425 
36 1 24.0538 6.7784 1.22775 
44 1 24.7638 5.50608 1.22775 
47 1 19.6654 8.50557 2.46426 
51 1 18.2229 8.49767 2.46429 
55 1 17.478 8.50125 1.22779 
17 1 23.6042 9.69849 2.46425 
33 1 24.0539 10.2375 1.22775 
41 1 24.7639 11.5098 1.22775 
15 1 26.3697 0.808264 2.46425 
23 1 25.0413 3.33544 2.46425 
28 1 24.9094 4.777 2.46425 
31 1 25.9148 1.34223 1.22775 
39 1 25.1911 2.6071 1.22775 
2 1 27.3298 17.3979 2.46425 
6 1 28.1502 17.3966 1.22775 
10 1 29.5505 17.398 1.22777 
14 1 26.3691 16.2079 2.46425 
22 1 25.0411 13.6805 2.46425 
25 1 24.9095 12.2389 2.46425 
30 1 25.9143 15.6738 1.22775 
38 1 25.1908 14.4088 1.22775 
46 1 30.3097 17.4031 2.46427 
50 1 31.7517 17.411 2.46433 
54 1 32.4963 17.4039 1.22784 
ITEM: TIMESTEP
150
ITEM: NUMBER OF ATOMS
59
ITEM: BOX BOUNDS pp pp pp
0.0000000000000000e+00 3.2808000000000000e+01
0.0000000000000000e+00 1.7780000000000001e+01
0.0000000000000000e+00 2.4729999999999999e+00
ITEM: ATOMS id type x y z 
13 1 7.22141 0.871172 2.46383 
29 1 7.33213 1.58944 1.22731 
37 1 7.51407 3.01524 1.22686 
1 1 6.29982 17.456 2.46439 
5 1 5.47271 17.4696 1.22791 
9 1 4.07664 17.4044 1.22804 
16 1 7.23559 16.2518 2.46454 
32 1 7.65427 15.6884 1.22804 
40 1 8.3199 14.3938 1.22795 
45 1 3.3188 17.3623 2.46454 