ITEM: TIMESTEP
0
ITEM: NUMBER OF ATOMS
50
ITEM: BOX BOUNDS pp pp pp
0.0000000000000000e+00 1.1000000000000000e+01
0.0000000000000000e+00 1.1002000000000001e+01
0.0000000000000000e+00 1.1000000000000000e+01
ITEM: ATOMS id type x y z 
10 1 4.603 4.603 4.603 
11 1 3.085 3.085 3.085 
12 1 3.796 3.796 3.796 
46 1 0.726 0.725 0.725 
47 1 2.26 2.259 2.26 
48 1 1.551 1.55 1.55 
49 2 4.929 4.839 3.32 
50 3 4.929 4.839 2.344 
19 1 4.546 4.545 6.226 
20 1 3.013 3.013 7.764 
21 1 3.721 3.721 7.053 
31 1 0.668 0.667 10.103 
32 1 2.187 2.187 8.589 
33 1 1.476 1.475 9.298 
16 1 4.546 6.225 4.546 
17 1 3.013 7.765 3.013 
18 1 3.721 7.053 3.722 
25 1 0.668 10.103 0.668 
26 1 2.188 8.589 2.188 
27 1 1.476 9.298 1.476 
4 1 4.608 6.169 6.169 
5 1 3.086 7.684 7.684 
6 1 3.799 6.974 6.974 
37 1 0.729 10.046 10.046 
38 1 2.259 8.509 8.508 
39 1 1.552 9.219 9.219 
13 1 6.225 4.546 4.546 
14 1 7.764 3.013 3.013 
15 1 7.053 3.721 3.722 
28 1 10.102 0.667 0.668 
29 1 8.589 2.187 2.188 
30 1 9.298 1.475 1.476 
1 1 6.168 4.608 6.169 
2 1 7.684 3.086 7.684 
3 1 6.974 3.799 6.974 
40 1 10.045 0.728 10.046 
41 1 8.508 2.259 8.508 
42 1 9.218 1.551 9.218 
7 1 6.169 6.169 4.608 
8 1 7.684 7.684 3.086 
9 1 6.974 6.974 3.799 
43 1 10.046 10.047 0.729 
44 1 8.508 8.509 2.259 
45 1 9.219 9.219 1.552 
22 1 6.229 6.229 6.229 
23 1 7.764 7.765 7.765 
24 1 7.055 7.056 7.055 
34 1 10.108 10.108 10.107 
35 1 8.59 8.59 8.59 
36 1 9.301 9.301 9.3 
ITEM: TIMESTEP
10
ITEM: NUMBER OF ATOMS
50
ITEM: BOX BOUNDS pp pp pp
0.0000000000000000e+00 1.1000000000000000e+01
0.0000000000000000e+00 1.1002000000000001e+01
0.0000000000000000e+00 1.1000000000000000e+01
ITEM: ATOMS id type x y z 
10 1 4.59672 4.59485 4.57971 
11 1 3.06775 3.0685 3.07531 
12 1 3.76664 3.76766 3.81063 
46 1 0.723689 0.722906 0.722672 
47 1 2.25114 2.25021 2.25058 
48 1 1.54293 1.5421 1.5415 
49 2 4.90052 4.82561 3.26871 
50 3 4.9399 4.84806 2.31602 
19 1 4.55707 4.55814 6.27487 
20 1 3.01377 3.01381 7.75974 
21 1 3.72764 3.72683 7.05639 
31 1 0.667183 0.666289 10.0957 
32 1 2.1888 2.18865 8.58819 
33 1 1.47532 1.47525 9.29531 
16 1 4.55179 6.30559 4.58266 
17 1 3.0099 7.76422 3.00894 
18 1 3.72372 7.06292 3.73034 
25 1 0.666335 10.0954 0.66709 
26 1 2.18797 8.58949 2.18784 
27 1 1.47459 9.2975 1.47482 
4 1 4.60014 6.15388 6.16091 
5 1 3.08616 7.68495 7.68413 
6 1 3.79688 6.97357 6.97689 
37 1 0.729274 10.0448 10.0444 
38 1 2.25924 8.50896 8.50817 
39 1 1.55211 9.21905 9.21836 
13 1 6.31701 4.55001 4.59083 
14 1 7.76386 3.00977 3.00885 
15 1 7.06507 3.72097 3.7289 
28 1 10.0945 0.666003 0.667344 
29 1 8.58935 2.18775 2.18846 
30 1 9.29605 1.47341 1.47442 
1 1 6.15407 4.60018 6.16514 
2 1 7.68611 3.08641 7.6849 
3 1 6.97262 3.79427 6.9773 
40 1 10.0439 0.728003 10.0444 
41 1 8.50863 2.25882 8.50809 
42 1 9.21834 1.55109 9.21876 
7 1 6.16346 6.16594 4.61101 
8 1 7.6838 7.68371 3.08597 
9 1 6.97475 6.97481 3.79993 
43 1 10.0444 10.0452 0.72977 
44 1 8.50778 8.5083 2.25955 
45 1 9.21811 9.2191 1.55242 
22 1 6.23344 6.23603 6.2272 
23 1 7.76364 7.76454 7.76503 
24 1 7.05479 7.05549 7.05355 
34 1 10.108 10.1084 10.1073 
35 1 8.59017 8.59031 8.58989 
36 1 9.30107 9.30132 9.3011 
ITEM: TIMESTEP
20
ITEM: NUMBER OF ATOMS
50
ITEM: BOX BOUNDS pp pp pp
0.0000000000000000e+00 1.1000000000000000e+01
0.0000000000000000e+00 1.1002000000000001e+01
0.0000000000000000e+00 1.1000000000000000e+01
ITEM: ATOMS id type x y z 
10 1 4.63525 4.62815 4.53757 
11 1 3.0308 3.033 3.0869 
12 1 3.71292 3.71755 3.85109 
46 1 0.71203 0.709431 0.711369 
47 1 2.23743 2.23691 2.23826 
48 1 1.53316 1.53219 1.52135 
49 2 4.88391 4.83081 3.23945 
50 3 4.96703 4.87229 2.25447 
19 1 4.57139 4.57623 6.29461 
20 1 3.01375 3.0137 7.75843 
21 1 3.73861 3.73904 7.07656 
31 1 0.663663 0.666324 10.078 
32 1 2.1868 2.19214 8.58061 
33 1 1.48223 1.47144 9.28985 
16 1 4.56588 6.34488 4.59756 
17 1 3.00872 7.76161 3.01226 
18 1 3.73675 7.0941 3.74938 
25 1 0.659297 10.0756 0.662149 
26 1 2.18337 8.58157 2.18112 
27 1 1.47447 9.30219 1.47489 
4 1 4.59226 6.14574 6.16907 
5 1 3.08281 7.68974 7.68525 
6 1 3.79021 6.96776 6.98525 
37 1 0.729668 10.0433 10.0426 
38 1 2.2621 8.50956 8.5112 
39 1 1.54937 9.22088 9.21522 
13 1 6.36274 4.56653 4.60947 
14 1 7.76044 3.00656 3.00934 
15 1 7.10174 3.733 3.755 
28 1 10.0825 0.65927 0.664522 
29 1 8.58728 2.1878 2.18647 
30 1 9.28775 1.4694 1.46967 
1 1 6.14702 4.58802 6.17378 
2 1 7.68822 3.08054 7.68745 
3 1 6.97039 3.79232 6.98724 
40 1 10.0445 0.726467 10.0386 
41 1 8.51343 2.25777 8.50812 
42 1 9.21789 1.55123 9.2239 
7 1 6.17163 6.17199 4.62903 
8 1 7.68148 7.68385 3.08146 
9 1 6.97835 6.97896 3.80524 
43 1 10.0425 10.0396 0.731998 
44 1 8.50781 8.50341 2.26495 
45 1 9.21138 9.21725 1.55437 
22 1 6.24228 6.25252 6.22939 
23 1 7.76601 7.76927 7.76392 
24 1 7.05732 7.05498 7.05501 
34 1 10.0991 10.098 10.104 
35 1 8.58342 8.58374 8.59028 
36 1 9.30096 9.3004 9.29221 
ITEM: TIMESTEP
30
ITEM: NUMBER OF ATOMS
50
ITEM: BOX BOUNDS pp pp pp
0.0000000000000000e+00 1.1000000000000000e+01
0.0000000000000000e+00 1.1002000000000001e+01
0.0000000000000000e+00 1.1000000000000000e+01
ITEM: ATOMS id type x y z 
10 1 4.65011 4.64191 4.49561 
11 1 3.01866 3.02074 3.11003 
12 1 3.70206 3.70736 3.86055 
46 1 0.709725 0.7072 0.702959 
47 1 2.23509 2.23438 2.23338 
48 1 1.52607 1.52707 1.52087 
49 2 4.88072 4.83106 3.24019 
50 3 4.97662 4.88242 2.24598 
19 1 4.57663 4.58033 6.2991 
20 1 3.01885 3.02053 7.75924 
21 1 3.74439 3.74446 7.07723 
31 1 0.666477 0.664602 10.0727 
32 1 2.19209 2.19206 8.57846 
33 1 1.47726 1.474 9.2802 
16 1 4.57108 6.34614 4.6029 
17 1 3.01043 7.76619 3.01463 
18 1 3.73881 7.10447 3.75417 
25 1 0.659144 10.0734 0.663754 
26 1 2.18701 8.58359 2.18489 
27 1 1.46908 9.28619 1.47042 
4 1 4.5859 6.13933 6.17165 
5 1 3.08527 7.6884 7.68902 
6 1 3.78405 6.96605 6.98227 
37 1 0.726692 10.0417 10.0393 
38 1 2.26128 8.51144 8.50926 
39 1 1.55029 9.21959 9.2182 
13 1 6.36352 4.57056 4.61466 
14 1 7.7669 3.00817 3.01465 
15 1 7.11339 3.73848 3.76055 
28 1 10.0735 0.656419 0.664669 
29 1 8.58133 2.18545 2.18405 
30 1 9.28627 1.46872 1.47006 
1 1 6.14044 4.58481 6.17484 
2 1 7.68968 3.08386 7.69177 
3 1 6.96657 3.78284 6.98535 
40 1 10.0415 0.726171 10.039 
41 1 8.51234 2.26016 8.51079 
42 1 9.22023 1.54697 9.21909 
7 1 6.17637 6.1754 4.63649 
8 1 7.68333 7.68393 3.08337 
9 1 6.97825 6.98067 3.80547 
43 1 10.0387 10.0393 0.729226 
44 1 8.50479 8.50514 2.26393 
45 1 9.21413 9.21294 1.55461 
22 1 6.24978 6.25758 6.23665 
23 1 7.76687 7.76769 7.76661 
24 1 7.05682 7.05915 7.05076 
34 1 10.0987 10.0967 10.1021 
35 1 8.58537 8.58544 8.58653 
36 1 9.29743 9.29785 9.29777 
ITEM: TIMESTEP
40
ITEM: NUMBER OF ATOMS
50
ITEM: BOX BOUNDS pp pp pp
0.0000000000000000e+00 1.1000000000000000e+01
0.0000000000000000e+00 1.1002000000000001e+01
0.0000000000000000e+00 1.1000000000000000e+01
ITEM: ATOMS id type x y z 
10 1 4.65547 4.64765 4.46971 
11 1 3.01315 3.01634 3.12025 
12 1 3.70411 3.70883 3.8666 
46 1 0.710568 0.709367 0.702511 
47 1 2.22996 2.23061 2.23125 
48 1 1.52403 1.5223 1.51725 
49 2 4.87748 4.82923 3.24388 
50 3 4.9801 4.88645 2.24539 
19 1 4.57816 4.57864 6.30232 
20 1 3.02219 3.02263 7.75831 
21 1 3.74735 3.74962 7.07869 
31 1 0.66734 0.663864 10.0691 
32 1 2.19376 2.19131 8.57714 
33 1 1.47477 1.47629 9.27761 
16 1 4.57523 6.34709 4.60256 
17 1 3.01177 7.76991 3.01673 
18 1 3.73988 7.10727 3.75561 
25 1 0.657971 10.0717 0.662779 
26 1 2.18807 8.58178 2.18613 
27 1 1.46861 9.2816 1.47036 
4 1 4.58353 6.13498 6.17138 
5 1 3.08387 7.68918 7.69092 
6 1 3.78165 6.96621 6.98362 
37 1 0.726136 10.0408 10.0379 
38 1 2.26166 8.51196 8.51 
39 1 1.54928 9.21988 9.2176 
13 1 6.36479 4.57478 4.61541 
14 1 7.77109 3.00987 3.01723 
15 1 7.11642 3.73839 3.76164 
28 1 10.0718 0.656035 0.663387 
29 1 8.58073 2.18614 2.18458 
30 1 9.28132 1.4669 1.46948 
1 1 6.13533 4.58264 6.17552 
2 1 7.69001 3.08277 7.6936 
3 1 6.96679 3.78088 6.98682 
40 1 10.041 0.723608 10.0384 
41 1 8.51195 2.25951 8.51095 
42 1 9.22152 1.5485 9.21891 
7 1 6.17741 6.17829 4.64024 
8 1 7.68033 7.68178 3.0849 
9 1 6.97925 6.98016 3.81106 
43 1 10.037 10.037 0.729747 
44 1 8.50583 8.50538 2.26269 
45 1 9.21408 9.21443 1.55277 
22 1 6.25239 6.25841 6.23497 
23 1 7.76711 7.76753 7.76787 
24 1 7.05709 7.06074 7.04779 
34 1 10.0975 10.0974 10.1008 
35 1 8.58505 8.5865 8.58589 
36 1 9.29825 9.2958 9.29969 
ITEM: TIMESTEP
50
ITEM: NUMBER OF ATOMS
50
ITEM: BOX BOUNDS pp pp pp
0.0000000000000000e+00 1.1000000000000000e+01
0.0000000000000000e+00 1.1002000000000001e+01
0.0000000000000000e+00 1.1000000000000000e+01
ITEM: ATOMS id type x y z 
10 1 4.67153 4.66278 4.41597 
11 1 2.99927 3.00362 3.13871 
12 1 3.69715 3.70163 3.86981 
46 1 0.708283 0.705165 0.69563 
47 1 2.22437 2.2239 2.23435 
48 1 1.52129 1.52214 1.515 
49 2 4.8743 4.82821 3.24486 
50 3 4.98684 4.89467 2.24684 
19 1 4.58338 4.58492 6.31072 
20 1 3.02555 3.02796 7.75949 
21 1 3.75511 3.75313 7.08242 
31 1 0.666659 0.666505 10.066 
32 1 2.19308 2.1952 8.57228 
33 1 1.4804 1.47416 9.27287 
16 1 4.57496 6.34847 4.60347 
17 1 3.01537 7.77664 3.02178 
18 1 3.74261 7.11145 3.75931 
25 1 0.655782 10.0682 0.662627 
26 1 2.18458 8.57851 2.18603 
27 1 1.47077 9.28149 1.4676 
4 1 4.57618 6.12554 6.1725 
5 1 3.08382 7.68942 7.69122 
6 1 3.77781 6.96085 6.98656 
37 1 0.724478 10.0403 10.037 
38 1 2.26138 8.51246 8.51012 
39 1 1.5501 9.22115 9.21794 
13 1 6.36611 4.57479 4.61598 
14 1 7.7796 3.01338 3.02277 
15 1 7.12061 3.74111 3.76574 
28 1 10.0693 0.655345 0.66238 
29 1 8.57816 2.18432 2.18397 
30 1 9.27864 1.46536 1.46829 
1 1 6.12601 4.57555 6.17713 
2 1 7.69022 3.08312 7.69414 
3 1 6.96098 3.77727 6.99021 
40 1 10.042 0.72395 10.0375 
41 1 8.51446 2.26132 8.51226 
42 1 9.21973 1.54464 9.21778 
7 1 6.18318 6.18357 4.65101 
8 1 7.68189 7.68299 3.08445 
9 1 6.98247 6.98393 3.81514 
43 1 10.0355 10.0365 0.729299 
44 1 8.50165 8.50363 2.26191 
45 1 9.2155 9.21162 1.55491 
22 1 6.25533 6.26226 6.23379 
23 1 7.7682 7.76998 7.76632 
24 1 7.05788 7.05962 7.04995 
34 1 10.0972 10.0934 10.1001 
35 1 8.58559 8.583 8.58672 
36 1 9.29484 9.29997 9.29703 
ITEM: TIMESTEP
60
ITEM: NUMBER OF ATOMS
50
ITEM: BOX BOUNDS pp pp pp
0.0000000000000000e+00 1.1000000000000000e+01
0.0000000000000000e+00 1.1002000000000001e+01
0.0000000000000000e+00 1.1000000000000000e+01
ITEM: ATOMS id type x y z 
10 1 4.69155 4.6822 4.33866 
11 1 2.98305 2.98857 3.17459 
12 1 3.6975 3.70169 3.87064 
46 1 0.705471 0.703765 0.685897 
47 1 2.21257 2.21494 2.24845 
48 1 1.52209 1.51909 1.51309 
49 2 4.87484 4.83039 3.21849 
50 3 4.99696 4.90773 2.24485 
19 1 4.59009 4.59143 6.33152 
20 1 3.03091 3.03134 7.76263 
21 1 3.7617 3.76383 7.09255 
31 1 0.672494 0.668486 10.0611 
32 1 2.1975 2.19482 8.56522 
33 1 1.47885 1.48119 9.26828 
16 1 4.57283 6.33378 4.60312 
17 1 3.02184 7.78674 3.0289 
18 1 3.74325 7.11791 3.76694 
25 1 0.65614 10.0665 0.660856 
26 1 2.18724 8.57765 2.18543 
27 1 1.46576 9.27529 1.46996 
4 1 4.56159 6.10908 6.17148 
5 1 3.08338 7.68721 7.69424 
6 1 3.77085 6.95614 6.98697 
37 1 0.72355 10.0399 10.0348 
38 1 2.26336 8.5143 8.51126 
39 1 1.54716 9.22046 9.2167 
13 1 6.35186 4.57328 4.61319 
14 1 7.79153 3.0196 3.03145 
15 1 7.12601 3.74284 3.77254 
28 1 10.0663 0.653267 0.660418 
29 1 8.57707 2.18425 2.18498 
30 1 9.27462 1.46344 1.46856 
1 1 6.11058 4.56103 6.17665 
2 1 7.68876 3.08205 7.69838 
3 1 6.95657 3.77023 6.99231 
40 1 10.0405 0.719059 10.0345 
41 1 8.51451 2.25841 8.51195 
42 1 9.22373 1.54899 9.22067 
7 1 6.19385 6.19316 4.67038 
8 1 7.68239 7.68439 3.08531 
9 1 6.98803 6.98881 3.82383 
43 1 10.0372 10.0342 0.73037 
44 1 8.50356 8.50063 2.26051 
45 1 9.20994 9.21416 1.55105 
22 1 6.25848 6.26666 6.23241 
23 1 7.76904 7.76906 7.76735 
24 1 7.05935 7.06344 7.045 
34 1 10.0942 10.093 10.0978 
35 1 8.58357 8.58457 8.58534 
36 1 9.29589 9.29615 9.29841 
ITEM: TIMESTEP
70
ITEM: NUMBER OF ATOMS
50
ITEM: BOX BOUNDS pp pp pp
0.0000000000000000e+00 1.1000000000000000e+01
0.0000000000000000e+00 1.1002000000000001e+01
0.0000000000000000e+00 1.1000000000000000e+01
ITEM: ATOMS id type x y z 
10 1 4.69436 4.6858 4.33307 
11 1 2.97813 2.98416 3.18881 
12 1 3.69702 3.70118 3.86775 
46 1 0.708876 0.705281 0.683356 
47 1 2.20836 2.20915 2.26128 
48 1 1.51989 1.52011 1.51497 
49 2 4.87898 4.83491 3.19654 
50 3 5.00328 4.91508 2.22566 
19 1 4.59003 4.58974 6.32837 
20 1 3.03223 3.03391 7.76717 
21 1 3.76377 3.76302 7.09351 
31 1 0.673178 0.670439 10.0628 
32 1 2.19488 2.1963 8.56321 
33 1 1.48381 1.47899 9.27046 
16 1 4.56687 6.32325 4.59851 
17 1 3.02487 7.79152 3.03368 
18 1 3.74396 7.11555 3.76923 
25 1 0.655733 10.0665 0.660166 
26 1 2.18643 8.57778 2.18614 
27 1 1.4678 9.27774 1.46989 
4 1 4.55416 6.10871 6.1699 
5 1 3.08184 7.68676 7.69666 
6 1 3.76602 6.95424 6.98663 
37 1 0.721354 10.0395 10.0345 
38 1 2.26116 8.51439 8.51146 
39 1 1.55004 9.22345 9.2191 
13 1 6.3399 4.5676 4.60984 
14 1 7.79542 3.02299 3.03608 
15 1 7.12633 3.74231 3.7756 
28 1 10.0669 0.652904 0.660945 
29 1 8.57802 2.1839 2.18577 
30 1 9.27673 1.46449 1.469 
1 1 6.10959 4.55384 6.17461 
2 1 7.68762 3.08071 7.69972 
3 1 6.95369 3.76613 6.99226 
40 1 10.0415 0.722146 10.0365 
41 1 8.5158 2.2639 8.51448 
42 1 9.22195 1.54125 9.21692 
7 1 6.20035 6.20018 4.6803 
8 1 7.68326 7.68518 3.0866 
9 1 6.99137 6.99036 3.8285 
43 1 10.0352 10.0372 0.730958 
44 1 8.50002 8.50373 2.25762 
45 1 9.21508 9.2089 1.55163 
22 1 6.25962 6.26658 6.22926 
23 1 7.76933 7.77013 7.76807 
24 1 7.06128 7.06568 7.0428 
34 1 10.0948 10.093 10.096 
35 1 8.58255 8.58462 8.58486 
36 1 9.29665 9.29369 9.29883 
ITEM: TIMESTEP
80
ITEM: NUMBER OF ATOMS
50
ITEM: BOX BOUNDS pp pp pp
0.0000000000000000e+00 1.1000000000000000e+01
0.0000000000000000e+00 1.1002000000000001e+01
0.0000000000000000e+00 1.1000000000000000e+01
ITEM: ATOMS id type x y z 
10 1 4.69311 4.68441 4.31556 
11 1 2.96681 2.97261 3.21116 
12 1 3.69822 3.70242 3.86612 
46 1 0.711056 0.706803 0.678578 
47 1 2.196 2.19997 2.28175 
48 1 1.51903 1.51603 1.52061 
49 2 4.87795 4.83512 3.17502 
50 3 5.01422 4.92818 2.18897 
19 1 4.58869 4.58778 6.31544 
20 1 3.03818 3.03801 7.77217 
21 1 3.76305 3.76527 7.09031 
31 1 0.679207 0.673356 10.0675 
32 1 2.20282 2.19716 8.56849 
33 1 1.47488 1.48354 9.26164 
16 1 4.56428 6.32861 4.60428 
17 1 3.02601 7.7986 3.03821 
18 1 3.74163 7.1164 3.77114 
25 1 0.655363 10.0635 0.661568 
26 1 2.18955 8.58167 2.18986 
27 1 1.46891 9.27749 1.47149 
4 1 4.54156 6.10472 6.16073 
5 1 3.07884 7.68396 7.69935 
6 1 3.75764 6.9513 6.98462 
37 1 0.723416 10.0392 10.0358 
38 1 2.26673 8.51713 8.51456 
39 1 1.54276 9.21943 9.21615 
13 1 6.34388 4.56449 4.61373 
14 1 7.80331 3.0237 3.041 
15 1 7.12767 3.74044 3.77931 
28 1 10.062 0.652674 0.659961 
29 1 8.58223 2.18718 2.19026 
30 1 9.2766 1.46611 1.47058 
1 1 6.10582 4.54113 6.16632 
2 1 7.68548 3.07907 7.70447 
3 1 6.95205 3.75815 6.99074 
40 1 10.04 0.715762 10.034 
41 1 8.51612 2.25827 8.51375 
42 1 9.22404 1.54769 9.22296 
7 1 6.20709 6.20492 4.69183 
8 1 7.68519 7.687 3.08876 
9 1 6.99556 6.99741 3.83697 
43 1 10.041 10.0354 0.732345 
44 1 8.50284 8.49805 2.25517 
45 1 9.20891 9.21564 1.55094 
22 1 6.26332 6.27021 6.22504 
23 1 7.77099 7.77234 7.76332 
24 1 7.05873 7.06526 7.04538 
34 1 10.0959 10.0947 10.0958 
35 1 8.58432 8.58377 8.5875 
36 1 9.297 9.29695 9.29875 
ITEM: TIMESTEP
90
ITEM: NUMBER OF ATOMS
50
ITEM: BOX BOUNDS pp pp pp
0.0000000000000000e+00 1.1000000000000000e+01
0.0000000000000000e+00 1.1002000000000001e+01
0.0000000000000000e+00 1.1000000000000000e+01
ITEM: ATOMS id type x y z 
10 1 4.6965 4.68751 4.30675 
11 1 2.96249 2.96916 3.22056 
12 1 3.69757 3.70143 3.86527 
46 1 0.713238 0.708907 0.67666 
47 1 2.19103 2.1934 2.29267 
48 1 1.51577 1.51519 1.52536 
49 2 4.88029 4.83731 3.16091 
50 3 5.01772 4.93349 2.18034 
19 1 4.5865 4.58629 6.30753 
20 1 3.04024 3.04018 7.77398 
21 1 3.7648 3.76369 7.08838 
31 1 0.679013 0.675542 10.0668 
32 1 2.19891 2.20014 8.56492 
33 1 1.48492 1.48393 9.26979 
16 1 4.56291 6.32283 4.59946 
17 1 3.0262 7.8004 3.04058 
18 1 3.74256 7.11872 3.77348 
25 1 0.655463 10.0638 0.660921 
26 1 2.18998 8.5844 2.191 
27 1 1.46895 9.27916 1.47205 
4 1 4.53753 6.10337 6.15971 
5 1 3.0775 7.68281 7.69936 
6 1 3.75543 6.94912 6.98467 
37 1 0.720459 10.0387 10.0359 
38 1 2.26391 8.51548 8.51411 
39 1 1.54669 9.22123 9.21897 
13 1 6.33753 4.56318 4.60986 
14 1 7.80573 3.02393 3.04386 
15 1 7.13007 3.74092 3.78179 
28 1 10.064 0.651551 0.66068 
29 1 8.58575 2.18724 2.19191 
30 1 9.27774 1.4663 1.46987 
1 1 6.10465 4.53763 6.16494 
2 1 7.68341 3.07739 7.70398 
3 1 6.94969 3.7557 6.98964 
40 1 10.0394 0.717965 10.0367 
41 1 8.51622 2.26147 8.51642 
42 1 9.22207 1.54382 9.22077 
7 1 6.2106 6.20914 4.69779 
8 1 7.68646 7.68807 3.09072 
9 1 6.99859 6.99711 3.83972 
43 1 10.04 10.0389 0.734866 
44 1 8.50002 8.50071 2.25438 
45 1 9.21286 9.21273 1.55097 
22 1 6.25988 6.26726 6.22745 
23 1 7.7694 7.77216 7.76465 
24 1 7.06157 7.06659 7.0412 
34 1 10.0964 10.0944 10.0941 
35 1 8.58261 8.58396 8.58694 
36 1 9.29878 9.2947 9.29666 
ITEM: TIMESTEP
100
ITEM: NUMBER OF ATOMS
50
ITEM: BOX BOUNDS pp pp pp
0.0000000000000000e+00 1.1000000000000000e+01
0.0000000000000000e+00 1.1002000000000001e+01
0.0000000000000000e+00 1.1000000000000000e+01
ITEM: ATOMS id type x y z 
10 1 4.69903 4.68958 4.28315 
11 1 2.95065 2.95731 3.24622 
12 1 3.6973 3.70113 3.86231 
46 1 0.71566 0.711352 0.668002 
47 1 2.17479 2.1788 2.32173 
48 1 1.51213 1.51093 1.54179 
49 2 4.88092 4.83843 3.13535 
50 3 5.02743 4.94794 2.15021 
19 1 4.58235 4.57919 6.28593 
20 1 3.04527 3.04512 7.77375 
21 1 3.76343 3.76527 7.07707 
31 1 0.684228 0.680649 10.0721 
32 1 2.20606 2.20533 8.56963 
33 1 1.49082 1.49009 9.27493 
16 1 4.56389 6.32218 4.59894 
17 1 3.02777 7.80818 3.04648 
18 1 3.73964 7.12425 3.77591 
25 1 0.653388 10.0631 0.661327 
26 1 2.19155 8.59189 2.19634 
27 1 1.47055 9.28088 1.47305 
4 1 4.52782 6.09927 6.15124 
5 1 3.07479 7.67737 7.69863 
6 1 3.74666 6.94229 6.9804 
37 1 0.718999 10.0347 10.034 
38 1 2.26046 8.51304 8.51649 
39 1 1.55035 9.22477 9.22443 
13 1 6.33635 4.56301 4.60828 
14 1 7.81557 3.02426 3.05106 
15 1 7.13517 3.73934 3.78586 
28 1 10.0574 0.651668 0.655616 
29 1 8.58976 2.19002 2.18974 
30 1 9.28982 1.46302 1.4822 
1 1 6.09946 4.52779 6.1568 
2 1 7.67798 3.07239 7.70376 
3 1 6.94455 3.74788 6.98724 
40 1 10.0372 0.716172 10.0358 
41 1 8.51305 2.2606 8.5179 
42 1 9.22342 1.54809 9.22639 
7 1 6.21779 6.21585 4.70686 
8 1 7.69105 7.69195 3.0962 
9 1 7.00319 7.0018 3.84649 
43 1 10.0451 10.0389 0.740686 
44 1 8.50302 8.49765 2.25175 
45 1 9.20881 9.22074 1.55233 
22 1 6.25776 6.26504 6.23231 
23 1 7.77036 7.77324 7.75981 
24 1 7.05688 7.06247 7.04526 
34 1 10.1003 10.0946 10.089 
35 1 8.58329 8.58267 8.5845 
36 1 9.29673 9.29685 9.29474 
ITEM: TIMESTEP
110
ITEM: NUMBER OF ATOMS
50
ITEM: BOX BOUNDS pp pp pp
0.0000000000000000e+00 1.1000000000000000e+01
0.0000000000000000e+00 1.1002000000000001e+01
0.0000000000000000e+00 1.1000000000000000e+01
ITEM: ATOMS id type x y z 
10 1 4.70088 4.69102 4.27505 
11 1 2.94733 2.95456 3.25398 
12 1 3.69727 3.7009 3.86204 
46 1 0.718333 0.713594 0.667669 
47 1 2.17104 2.17436 2.33135 
48 1 1.50813 1.50769 1.54454 
49 2 4.88189 4.83938 3.12711 
50 3 5.02969 4.95184 2.14311 
19 1 4.57988 4.57838 6.27981 
20 1 3.04533 3.04605 7.77362 
21 1 3.7633 3.76381 7.07514 
31 1 0.686495 0.683021 10.0738 
32 1 2.20784 2.20712 8.57137 
33 1 1.49297 1.49164 9.27631 
16 1 4.56441 6.32197 4.59687 
17 1 3.02705 7.81088 3.04792 
18 1 3.74185 7.12504 3.77818 
25 1 0.65355 10.0621 0.660203 
26 1 2.19252 8.59367 2.19663 
27 1 1.46911 9.28327 1.47496 
4 1 4.52496 6.09696 6.14938 
5 1 3.07133 7.67523 7.69892 
6 1 3.74578 6.94271 6.98018 
37 1 0.718309 10.0367 10.0355 
38 1 2.26329 8.51266 8.51773 
39 1 1.54817 9.22121 9.22143 
13 1 6.33583 4.56388 4.60623 
14 1 7.81761 3.02434 3.05226 
15 1 7.13733 3.73984 3.78715 
28 1 10.0603 0.649312 0.657206 
29 1 8.59536 2.18958 2.1964 
30 1 9.28511 1.46531 1.476 
1 1 6.0985 4.52534 6.15529 
2 1 7.67556 3.07072 7.70393 
3 1 6.94365 3.74604 6.98543 
40 1 10.0378 0.71652 10.0377 
41 1 8.51338 2.26226 8.52059 
42 1 9.22117 1.54515 9.22434 
7 1 6.21894 6.21667 4.71034 
8 1 7.69179 7.69179 3.09743 
9 1 7.00524 7.00338 3.85008 
43 1 10.0444 10.0422 0.74108 
44 1 8.50098 8.5001 2.25249 
45 1 9.21188 9.21746 1.55285 
22 1 6.25497 6.26244 6.23237 
23 1 7.76884 7.77208 7.76082 
24 1 7.05801 7.06329 7.04326 
34 1 10.1014 10.0957 10.0869 
35 1 8.58301 8.58329 8.58425 
36 1 9.29821 9.29661 9.2927 
ITEM: TIMESTEP
114
ITEM: NUMBER OF ATOMS
50
ITEM: BOX BOUNDS pp pp pp
0.0000000000000000e+00 1.1000000000000000e+01
0.0000000000000000e+00 1.1002000000000001e+01
0.0000000000000000e+00 1.1000000000000000e+01
ITEM: ATOMS id type x y z 
10 1 4.70089 4.69102 4.27502 
11 1 2.94732 2.95455 3.25401 
12 1 3.69727 3.7009 3.86204 
46 1 0.718339 0.713599 0.667666 
47 1 2.17104 2.17435 2.33141 
48 1 1.5081 1.50767 1.54454 
49 2 4.8819 4.83938 3.12708 
50 3 5.02969 4.95185 2.14309 
19 1 4.57987 4.57838 6.27978 
20 1 3.04532 3.04605 7.77363 
21 1 3.7633 3.76381 7.07512 
31 1 0.686487 0.683045 10.0738 
32 1 2.20783 2.20712 8.57138 
33 1 1.49301 1.49165 9.27632 
16 1 4.56442 6.32197 4.59686 
17 1 3.02705 7.8109 3.04793 
18 1 3.74186 7.12505 3.77818 
25 1 0.653533 10.0621 0.660215 
26 1 2.1925 8.59367 2.19665 
27 1 1.46915 9.28329 1.47495 
4 1 4.52496 6.09695 6.14939 
5 1 3.07133 7.67521 7.69892 
6 1 3.74577 6.94271 6.98016 
37 1 0.718313 10.0367 10.0355 
38 1 2.26331 8.51265 8.51772 
39 1 1.54814 9.22119 9.22142 
13 1 6.33583 4.56388 4.60622 
14 1 7.81762 3.02435 3.05227 
15 1 7.13733 3.73985 3.78715 
28 1 10.0603 0.649305 0.657219 
29 1 8.59539 2.18957 2.19644 
30 1 9.28507 1.46533 1.47594 
1 1 6.0985 4.52535 6.15529 
2 1 7.67556 3.07072 7.70394 
3 1 6.94363 3.74601 6.9854 
40 1 10.0378 0.716512 10.0377 
41 1 8.51341 2.26224 8.5206 
42 1 9.22114 1.54516 9.22434 
7 1 6.21897 6.21665 4.71036 
8 1 7.69182 7.69177 3.09744 
9 1 7.00521 7.00342 3.85007 
43 1 10.0444 10.0422 0.741081 
44 1 8.50097 8.50013 2.2525 
45 1 9.21191 9.21743 1.55286 
22 1 6.25495 6.26243 6.23238 
23 1 7.76881 7.77206 7.76082 
24 1 7.05804 7.0633 7.04323 
34 1 10.1014 10.0958 10.0869 
35 1 8.58299 8.58331 8.58426 
36 1 9.29825 9.29658 9.29269 
ITEM: TIMESTEP
115
ITEM: NUMBER OF ATOMS
50
ITEM: BOX BOUNDS pp pp pp
0.0000000000000000e+00 1.1000000000000000e+01
0.0000000000000000e+00 1.1002000000000001e+01
0.0000000000000000e+00 1.1000000000000000e+01
ITEM: ATOMS id type x y z 
10 1 4.70089 4.69102 4.27502 
11 1 2.94732 2.95455 3.25401 
12 1 3.69727 3.7009 3.86204 
46 1 0.718339 0.713599 0.667666 
47 1 2.17104 2.17435 2.33141 
48 1 1.5081 1.50767 1.54454 
49 2 4.8819 4.83938 3.12708 
50 3 5.02969 4.95185 2.14309 
19 1 4.57987 4.57838 6.27978 
20 1 3.04532 3.04605 7.77363 
21 1 3.7633 3.76381 7.07512 
31 1 0.686487 0.683045 10.0738 
32 1 2.20783 2.20712 8.57138 
33 1 1.49301 1.49165 9.27632 
16 1 4.56442 6.32197 4.59686 
17 1 3.02705 7.8109 3.04793 
18 1 3.74186 7.12505 3.77818 
25 1 0.653533 10.0621 0.660215 
26 1 2.1925 8.59367 2.19665 
27 1 1.46915 9.28329 1.47495 
4 1 4.52496 6.09695 6.14939 
5 1 3.07133 7.67521 7.69892 
6 1 3.74577 6.94271 6.98016 
37 1 0.718313 10.0367 10.0355 
38 1 2.26331 8.51265 8.51772 
39 1 1.54814 9.22119 9.22142 
13 1 6.33583 4.56388 4.60622 
14 1 7.81762 3.02435 3.05227 
15 1 7.13733 3.73985 3.78715 
28 1 10.0603 0.649304 0.657219 
29 1 8.59539 2.18957 2.19644 
30 1 9.28507 1.46533 1.47594 
1 1 6.0985 4.52535 6.15529 
2 1 7.67556 3.07072 7.70394 
3 1 6.94363 3.74601 6.9854 
40 1 10.0378 0.716512 10.0377 
41 1 8.51341 2.26224 8.5206 
42 1 9.22114 1.54516 9.22434 
7 1 6.21897 6.21665 4.71036 
8 1 7.69182 7.69177 3.09744 
9 1 7.00521 7.00342 3.85007 
43 1 10.0444 10.0422 0.741081 
44 1 8.50097 8.50013 2.2525 
45 1 9.21191 9.21743 1.55286 
22 1 6.25495 6.26243 6.23238 
23 1 7.76881 7.77206 7.76082 
24 1 7.05804 7.0633 7.04323 
34 1 10.1014 10.0958 10.0869 
35 1 8.58299 8.58331 8.58426 
36 1 9.29825 9.29658 9.29269 
ITEM: TIMESTEP
120
ITEM: NUMBER OF ATOMS
50
ITEM: BOX BOUNDS pp pp pp
-2.4800065442069836e-03 1.1002480006544209e+01
-2.3649003952703057e-03 1.1004364900395274e+01
-1.7213653282959710e-04 1.1000172136532829e+01
ITEM: ATOMS id type x y z 
10 1 4.70059 4.69072 4.27499 
11 1 2.9462 2.95349 3.25401 
12 1 3.69643 3.7001 3.86195 
46 1 0.716109 0.711465 0.667413 
47 1 2.16951 2.17289 2.33135 
48 1 1.5062 1.50585 1.54435 
49 2 4.88163 4.8391 3.12698 
50 3 5.02949 4.95163 2.14296 
19 1 4.57951 4.57804 6.27976 
20 1 3.04424 3.04502 7.77368 
21 1 3.76253 3.76306 7.07514 
31 1 0.684216 0.680907 10.0741 
32 1 2.2063 2.20568 8.57151 
33 1 1.49127 1.48996 9.27643 
16 1 4.56404 6.32226 4.59688 
17 1 3.02596 7.81187 3.04788 
18 1 3.74111 7.12572 3.77817 
25 1 0.651221 10.0641 0.659976 
26 1 2.19095 8.59503 2.19653 
27 1 1.4674 9.28491 1.47483 
4 1 4.52457 6.09715 6.14933 
5 1 3.07026 7.6761 7.69898 
6 1 3.74494 6.94336 6.98021 
37 1 0.716076 10.0387 10.0357 
38 1 2.26186 8.51396 8.51783 
39 1 1.54625 9.22283 9.2216 
13 1 6.33615 4.56352 4.60625 
14 1 7.81865 3.02331 3.05224 
15 1 7.13804 3.73914 3.78714 
28 1 10.0625 0.647102 0.656982 
29 1 8.59686 2.18811 2.19636 
30 1 9.2867 1.46364 1.47576 
1 1 6.09872 4.52499 6.15521 
2 1 7.67652 3.0697 7.70401 
3 1 6.94428 3.7452 6.98544 
40 1 10.0399 0.714364 10.0379 
41 1 8.51482 2.26079 8.52074 
42 1 9.22284 1.5434 9.22453 
7 1 6.21927 6.21689 4.71046 
8 1 7.69281 7.69267 3.09742 
9 1 7.00587 7.00413 3.84999 
43 1 10.0465 10.0443 0.740857 
44 1 8.50234 8.50147 2.25237 
45 1 9.21368 9.21905 1.55267 
22 1 6.25525 6.2627 6.23231 
23 1 7.76978 7.77298 7.76085 
24 1 7.05872 7.06395 7.04325 
34 1 10.1035 10.0979 10.0871 
35 1 8.58439 8.5847 8.58439 
36 1 9.29999 9.29814 9.29276 
ITEM: TIMESTEP
130
ITEM: NUMBER OF ATOMS
50
ITEM: BOX BOUNDS pp pp pp
-6.0988703993551108e-03 1.1006098870399361e+01
-5.5444812067385243e-03 1.1007544481206741e+01
2.7786990329117375e-03 1.0997221300967086e+01
ITEM: ATOMS id type x y z 
10 1 4.70032 4.69052 4.27549 
11 1 2.94474 2.95226 3.25558 
12 1 3.69519 3.69899 3.86262 
46 1 0.712677 0.708395 0.669601 
47 1 2.1671 2.17072 2.33312 
48 1 1.50331 1.50329 1.54639 
49 2 4.88123 4.83872 3.12815 
50 3 5.02921 4.95139 2.14466 
19 1 4.57927 4.5779 6.27931 
20 1 3.04282 3.04382 7.77227 
21 1 3.76147 3.76207 7.07413 
31 1 0.680615 0.677813 10.0721 
32 1 2.20392 2.20364 8.57004 
33 1 1.48895 1.48782 9.27439 
16 1 4.56364 6.32235 4.59761 
17 1 3.02454 7.81306 3.04946 
18 1 3.74011 7.1266 3.77921 
25 1 0.647426 10.067 0.662143 
26 1 2.18851 8.59697 2.1982 
27 1 1.46507 9.28712 1.47709 
4 1 4.52411 6.09706 6.14857 
5 1 3.06877 7.67713 7.69769 
6 1 3.74359 6.94435 6.97944 
37 1 0.712549 10.0418 10.0337 
38 1 2.25961 8.51591 8.51643 
39 1 1.54329 9.22504 9.21977 
13 1 6.3363 4.5632 4.607 
14 1 7.82001 3.02211 3.05384 
15 1 7.13907 3.73826 3.78817 
28 1 10.0659 0.643741 0.659219 
29 1 8.59927 2.18597 2.19822 
30 1 9.28881 1.46155 1.47768 
1 1 6.09872 4.52467 6.15443 
2 1 7.67778 3.06845 7.70275 
3 1 6.9453 3.74389 6.98463 
40 1 10.0433 0.711179 10.0359 
41 1 8.51714 2.25861 8.51941 
42 1 9.22529 1.54092 9.22275 
7 1 6.21958 6.21694 4.71137 
8 1 7.69427 7.69373 3.09895 
9 1 7.00679 7.0053 3.85069 
43 1 10.0498 10.0474 0.743063 
44 1 8.50449 8.5036 2.2539 
45 1 9.21649 9.2212 1.55462 
22 1 6.25547 6.26286 6.23149 
23 1 7.77095 7.77399 7.75942 
24 1 7.05975 7.06483 7.04234 
34 1 10.1069 10.1012 10.085 
35 1 8.58648 8.58677 8.58294 
36 1 9.30263 9.30004 9.29047 
ITEM: TIMESTEP
140
ITEM: NUMBER OF ATOMS
50
ITEM: BOX BOUNDS pp pp pp
-1.0382842479421683e-02 1.1010382842479432e+01
-9.2831403669282157e-03 1.1011283140366929e+01
4.1983340702388041e-03 1.0995801665929758e+01
ITEM: ATOMS id type x y z 
10 1 4.70015 4.69048 4.27521 
11 1 2.94326 2.95107 3.25696 
12 1 3.69391 3.69787 3.8626 
46 1 0.708554 0.704696 0.670236 
47 1 2.16389 2.16777 2.33397 
48 1 1.49997 1.50039 1.54767 
49 2 4.88076 4.83827 3.12858 
50 3 5.0289 4.95119 2.14531 
19 1 4.57935 4.57822 6.27921 
20 1 3.04136 3.04278 7.77105 
21 1 3.76043 3.76084 7.07357 
31 1 0.676217 0.674061 10.0716 
32 1 2.20104 2.2012 8.56951 
33 1 1.48636 1.48543 9.27354 
16 1 4.56335 6.32183 4.59829 
17 1 3.02317 7.81421 3.05076 
18 1 3.73891 7.12774 3.77977 
25 1 0.642864 10.0706 0.662606 
26 1 2.18573 8.59956 2.19886 
27 1 1.46197 9.2894 1.47837 
4 1 4.52362 6.09645 6.14757 
5 1 3.06708 7.67819 7.69688 
6 1 3.7418 6.94551 6.97916 
37 1 0.708154 10.0455 10.0332 
38 1 2.25662 8.51861 8.51627 
39 1 1.53981 9.22733 9.21887 
13 1 6.33587 4.56299 4.60771 
14 1 7.82142 3.021 3.05518 
15 1 7.14037 3.73722 3.78869 
28 1 10.0701 0.639505 0.659961 
29 1 8.60243 2.18329 2.19933 
30 1 9.29101 1.45923 1.47812 
1 1 6.09817 4.52426 6.15336 
2 1 7.67911 3.06701 7.70192 
3 1 6.94657 3.74228 6.98441 
40 1 10.0475 0.707172 10.0354 
41 1 8.52008 2.25573 8.51932 
42 1 9.22814 1.53809 9.2219 
7 1 6.21955 6.21692 4.7123 
8 1 7.69579 7.6951 3.09995 
9 1 7.00831 7.00647 3.85089 
43 1 10.0539 10.0514 0.743725 
44 1 8.5073 8.50659 2.2542 
45 1 9.21989 9.22342 1.55556 
22 1 6.25556 6.26278 6.2305 
23 1 7.77219 7.77496 7.75835 
24 1 7.06086 7.06592 7.04196 
34 1 10.1114 10.1051 10.0843 
35 1 8.58925 8.58912 8.58242 
36 1 9.30541 9.30262 9.28917 
ITEM: TIMESTEP
150
ITEM: NUMBER OF ATOMS
50
ITEM: BOX BOUNDS pp pp pp
-1.3368623886856662e-02 1.1013368623886871e+01
-1.2084779531532934e-02 1.1014084779531533e+01
4.8591479580722113e-03 1.0995140852041924e+01
ITEM: ATOMS id type x y z 
10 1 4.69999 4.69039 4.27482 
11 1 2.94228 2.95018 3.25782 
12 1 3.69312 3.69712 3.86242 
46 1 0.705704 0.701959 0.670384 
47 1 2.16159 2.16557 2.33449 
48 1 1.49767 1.49823 1.54844 
49 2 4.88044 4.83794 3.12869 
50 3 5.02871 4.95106 2.14551 
19 1 4.5795 4.57842 6.27908 
20 1 3.04036 3.04193 7.7702 
21 1 3.75973 3.76003 7.07344 
31 1 0.673344 0.67138 10.0717 
32 1 2.19918 2.19943 8.56947 
33 1 1.48432 1.48359 9.27299 
16 1 4.56318 6.32125 4.59867 
17 1 3.02224 7.8151 3.05156 
18 1 3.73807 7.12861 3.78004 
25 1 0.63965 10.0732 0.662677 
26 1 2.1837 8.60143 2.19916 
27 1 1.45994 9.29131 1.47895 
4 1 4.5232 6.09605 6.14691 
5 1 3.06589 7.67903 7.69643 
6 1 3.74052 6.94629 6.97909 
37 1 0.705066 10.0484 10.033 
38 1 2.25453 8.5206 8.51632 
39 1 1.5374 9.22897 9.21849 