LAMMPS (3 Mar 2020)
Reading data file ...
  orthogonal box = (0 0 0) to (11 11.002 11)
  2 by 2 by 2 MPI processor grid
  reading atoms ...
  50 atoms
  read_data CPU = 0.00263507 secs
WARNING: Using 'neigh_modify every 1 delay 0 check yes' setting during minimization (../min.cpp:190)
WARNING: Total cutoff < 2*bond cutoff. May need to use an increased neighbor list skin. (../pair_reaxc.cpp:413)
Neighbor list info ...
  update every 1 steps, delay 0 steps, check yes
  max neighbors/atom: 2000, page size: 100000
  master list distance cutoff = 9.5
  ghost atom cutoff = 9.5
  binsize = 4.75, bins = 3 3 3
  2 neighbor lists, perpetual/occasional/extra = 2 0 0
  (1) pair reax/c, perpetual
      attributes: half, newton off, ghost
      pair build: half/bin/newtoff/ghost
      stencil: half/ghost/bin/3d/newtoff
      bin: standard
  (2) fix qeq/reax, perpetual, copy from (1)
      attributes: half, newton off, ghost
      pair build: copy
      stencil: none
      bin: none
Setting up cg style minimization ...
  Unit style    : real
  Current step  : 0
Per MPI rank memory allocation (min/avg/max) = 18.9 | 18.99 | 19.13 Mbytes
Step Temp E_pair E_mol TotEng Press 
       0            0   -8674.3663            0   -8674.3663    41167.567 
     114            0   -8770.6079            0   -8770.6079    24588.893 
Loop time of 1.97184 on 8 procs for 114 steps with 50 atoms

99.4% CPU use with 8 MPI tasks x no OpenMP threads

Minimization stats:
  Stopping criterion = energy tolerance
  Energy initial, next-to-last, final = 
        -8674.36626721     -8770.60787122     -8770.60792311
  Force two-norm initial, final = 558.248 42.4323
  Force max component initial, final = 287.019 11.7344
  Final line search alpha, max atom move = 0.000266305 0.00312492
  Iterations, force evaluations = 114 722

MPI task timing breakdown:
Section |  min time  |  avg time  |  max time  |%varavg| %total
---------------------------------------------------------------
Pair    | 1.4721     | 1.4866     | 1.506      |   1.0 | 75.39
Neigh   | 0          | 0          | 0          |   0.0 |  0.00
Comm    | 0.014937   | 0.034066   | 0.04826    |   6.4 |  1.73
Output  | 0.00022547 | 0.00028532 | 0.00042995 |   0.0 |  0.01
Modify  | 0.44631    | 0.44669    | 0.44694    |   0.0 | 22.65
Other   |            | 0.004196   |            |       |  0.21

Nlocal:    6.25 ave 8 max 6 min
Histogram: 7 0 0 0 0 0 0 0 0 1
Nghost:    608 ave 614 max 603 min
Histogram: 3 0 0 0 1 0 0 3 0 1
Neighs:    802.625 ave 1011 max 770 min
Histogram: 7 0 0 0 0 0 0 0 0 1

Total # of neighbors = 6421
Ave neighs/atom = 128.42
Neighbor list builds = 0
Dangerous builds = 0
WARNING: Using 'neigh_modify every 1 delay 0 check yes' setting during minimization (../min.cpp:190)
WARNING: Total cutoff < 2*bond cutoff. May need to use an increased neighbor list skin. (../pair_reaxc.cpp:413)
Setting up cg style minimization ...
  Unit style    : real
  Current step  : 114
Per MPI rank memory allocation (min/avg/max) = 18.9 | 18.99 | 19.13 Mbytes
Step Temp E_pair E_mol TotEng Press 
     114            0   -8770.6079            0   -8770.6079    24588.893 
     115            0   -8770.6079            0   -8770.6079    24589.013 
Loop time of 0.0239216 on 8 procs for 1 steps with 50 atoms

99.4% CPU use with 8 MPI tasks x no OpenMP threads

Minimization stats:
  Stopping criterion = energy tolerance
  Energy initial, next-to-last, final = 
        -8770.60792311     -8770.60792311     -8770.60793622
  Force two-norm initial, final = 42.4323 42.4303
  Force max component initial, final = 11.7344 11.7343
  Final line search alpha, max atom move = 0.000266311 0.00312498
  Iterations, force evaluations = 1 8

MPI task timing breakdown:
Section |  min time  |  avg time  |  max time  |%varavg| %total
---------------------------------------------------------------
Pair    | 0.018209   | 0.018492   | 0.018692   |   0.1 | 77.30
Neigh   | 0          | 0          | 0          |   0.0 |  0.00
Comm    | 0.0002409  | 0.00044429 | 0.00072865 |   0.0 |  1.86
Output  | 0          | 0          | 0          |   0.0 |  0.00
Modify  | 0.0048868  | 0.0048918  | 0.0048959  |   0.0 | 20.45
Other   |            | 9.322e-05  |            |       |  0.39

Nlocal:    6.25 ave 8 max 6 min
Histogram: 7 0 0 0 0 0 0 0 0 1
Nghost:    613.625 ave 626 max 603 min
Histogram: 1 2 0 0 1 0 3 0 0 1
Neighs:    819.625 ave 1040 max 784 min
Histogram: 7 0 0 0 0 0 0 0 0 1

Total # of neighbors = 6557
Ave neighs/atom = 131.14
Neighbor list builds = 0
Dangerous builds = 0
WARNING: Using 'neigh_modify every 1 delay 0 check yes' setting during minimization (../min.cpp:190)
WARNING: Total cutoff < 2*bond cutoff. May need to use an increased neighbor list skin. (../pair_reaxc.cpp:413)
Setting up cg style minimization ...
  Unit style    : real
  Current step  : 115
WARNING: Energy due to 3 extra global DOFs will be included in minimizer energies
Per MPI rank memory allocation (min/avg/max) = 18.9 | 18.99 | 19.13 Mbytes
Step Temp E_pair E_mol TotEng Press Volume 
     115            0   -8770.6079            0   -8770.6079    24589.013     1331.242 
     433            0   -8776.2005            0   -8776.2005   -875.76069    1342.7013 
Loop time of 1.26394 on 8 procs for 318 steps with 50 atoms

99.4% CPU use with 8 MPI tasks x no OpenMP threads

Minimization stats:
  Stopping criterion = linesearch alpha is zero
  Energy initial, next-to-last, final = 
        -8770.60793622     -8776.20049981     -8776.20049981
  Force two-norm initial, final = 828.633 46.0238
  Force max component initial, final = 492.938 19.7268
  Final line search alpha, max atom move = 2.62191e-12 5.17219e-11
  Iterations, force evaluations = 318 524

MPI task timing breakdown:
Section |  min time  |  avg time  |  max time  |%varavg| %total
---------------------------------------------------------------
Pair    | 1.0539     | 1.0692     | 1.0829     |   0.9 | 84.59
Neigh   | 0          | 0          | 0          |   0.0 |  0.00
Comm    | 0.01106    | 0.024863   | 0.040226   |   5.9 |  1.97
Output  | 0.00058458 | 0.00072595 | 0.0010523  |   0.0 |  0.06
Modify  | 0.16011    | 0.1602     | 0.16033    |   0.0 | 12.67
Other   |            | 0.008955   |            |       |  0.71

Nlocal:    6.25 ave 8 max 6 min
Histogram: 7 0 0 0 0 0 0 0 0 1
Nghost:    613.625 ave 626 max 603 min
Histogram: 1 2 0 0 1 0 3 0 0 1
Neighs:    819.625 ave 1040 max 784 min
Histogram: 7 0 0 0 0 0 0 0 0 1

Total # of neighbors = 6557
Ave neighs/atom = 131.14
Neighbor list builds = 0
Dangerous builds = 0
WARNING: Using 'neigh_modify every 1 delay 0 check yes' setting during minimization (../min.cpp:190)
WARNING: Total cutoff < 2*bond cutoff. May need to use an increased neighbor list skin. (../pair_reaxc.cpp:413)
Setting up cg style minimization ...
  Unit style    : real
  Current step  : 433
Per MPI rank memory allocation (min/avg/max) = 18.9 | 18.99 | 19.13 Mbytes
Step Temp E_pair E_mol TotEng Press 
     433            0   -8776.2005            0   -8776.2005   -875.76069 
     583            0   -8788.9101            0   -8788.9101    14774.829 
Loop time of 3.3377 on 8 procs for 150 steps with 50 atoms

99.4% CPU use with 8 MPI tasks x no OpenMP threads

Minimization stats:
  Stopping criterion = energy tolerance
  Energy initial, next-to-last, final = 
        -8776.20049981     -8788.91003756     -8788.91006241
  Force two-norm initial, final = 35.0928 27.4667
  Force max component initial, final = 7.65566 7.72175
  Final line search alpha, max atom move = 7.92584e-07 6.12014e-06
  Iterations, force evaluations = 150 1281

MPI task timing breakdown:
Section |  min time  |  avg time  |  max time  |%varavg| %total
---------------------------------------------------------------
Pair    | 2.5845     | 2.6141     | 2.6483     |   1.5 | 78.32
Neigh   | 0          | 0          | 0          |   0.0 |  0.00
Comm    | 0.026086   | 0.060462   | 0.089796   |   9.6 |  1.81
Output  | 0.00031694 | 0.00038602 | 0.00056541 |   0.0 |  0.01
Modify  | 0.65545    | 0.65592    | 0.65611    |   0.0 | 19.65
Other   |            | 0.006883   |            |       |  0.21

Nlocal:    6.25 ave 8 max 6 min
Histogram: 7 0 0 0 0 0 0 0 0 1
Nghost:    600.5 ave 613 max 593 min
Histogram: 3 0 0 1 1 0 2 0 0 1
Neighs:    806.125 ave 1025 max 769 min
Histogram: 7 0 0 0 0 0 0 0 0 1

Total # of neighbors = 6449
Ave neighs/atom = 128.98
Neighbor list builds = 0
Dangerous builds = 0
WARNING: Using 'neigh_modify every 1 delay 0 check yes' setting during minimization (../min.cpp:190)
WARNING: Total cutoff < 2*bond cutoff. May need to use an increased neighbor list skin. (../pair_reaxc.cpp:413)
Setting up cg style minimization ...
  Unit style    : real
  Current step  : 583
WARNING: Energy due to 3 extra global DOFs will be included in minimizer energies
Per MPI rank memory allocation (min/avg/max) = 18.9 | 18.99 | 19.13 Mbytes
Step Temp E_pair E_mol TotEng Press Volume 
     583            0   -8788.9101            0   -8788.9101    14774.829    1342.7013 
     595            0   -8789.1254            0   -8789.1254    1684.9134    1343.8716 
Loop time of 0.138419 on 8 procs for 12 steps with 50 atoms

99.3% CPU use with 8 MPI tasks x no OpenMP threads

Minimization stats:
  Stopping criterion = linesearch alpha is zero
  Energy initial, next-to-last, final = 
        -8788.91006241     -8789.12539324     -8789.12539324
  Force two-norm initial, final = 506.111 83.4115
  Force max component initial, final = 319.791 38.7082
  Final line search alpha, max atom move = 1.23188e-12 4.76837e-11
  Iterations, force evaluations = 12 57

MPI task timing breakdown:
Section |  min time  |  avg time  |  max time  |%varavg| %total
---------------------------------------------------------------
Pair    | 0.11717    | 0.1184     | 0.11992    |   0.3 | 85.54
Neigh   | 0          | 0          | 0          |   0.0 |  0.00
Comm    | 0.0010565  | 0.0025785  | 0.003808   |   2.0 |  1.86
Output  | 1.9636e-05 | 2.3579e-05 | 3.1338e-05 |   0.0 |  0.02
Modify  | 0.016561   | 0.016566   | 0.016573   |   0.0 | 11.97
Other   |            | 0.0008542  |            |       |  0.62

Nlocal:    6.25 ave 8 max 6 min
Histogram: 7 0 0 0 0 0 0 0 0 1
Nghost:    600.5 ave 613 max 593 min
Histogram: 3 0 0 1 1 0 2 0 0 1
Neighs:    813.875 ave 1029 max 779 min
Histogram: 7 0 0 0 0 0 0 0 0 1

Total # of neighbors = 6511
Ave neighs/atom = 130.22
Neighbor list builds = 0
Dangerous builds = 0
WARNING: Using 'neigh_modify every 1 delay 0 check yes' setting during minimization (../min.cpp:190)
WARNING: Total cutoff < 2*bond cutoff. May need to use an increased neighbor list skin. (../pair_reaxc.cpp:413)
Setting up cg style minimization ...
  Unit style    : real
  Current step  : 595
Per MPI rank memory allocation (min/avg/max) = 18.9 | 18.99 | 19.13 Mbytes
Step Temp E_pair E_mol TotEng Press 
     595            0   -8789.1254            0   -8789.1254    1684.9134 
     615            0   -8789.2981            0   -8789.2981    11596.077 
Loop time of 0.574388 on 8 procs for 20 steps with 50 atoms

99.5% CPU use with 8 MPI tasks x no OpenMP threads

Minimization stats:
  Stopping criterion = energy tolerance
  Energy initial, next-to-last, final = 
        -8789.12539324     -8789.29796524     -8789.29805158
  Force two-norm initial, final = 60.2828 26.1171
  Force max component initial, final = 13.9149 6.99465
  Final line search alpha, max atom move = 9.43673e-06 6.60066e-05
  Iterations, force evaluations = 20 221

MPI task timing breakdown:
Section |  min time  |  avg time  |  max time  |%varavg| %total
---------------------------------------------------------------
Pair    | 0.44723    | 0.45227    | 0.45788    |   0.6 | 78.74
Neigh   | 0          | 0          | 0          |   0.0 |  0.00
Comm    | 0.0042271  | 0.0098217  | 0.01483    |   4.0 |  1.71
Output  | 4.3021e-05 | 5.1077e-05 | 7.5551e-05 |   0.0 |  0.01
Modify  | 0.11103    | 0.11109    | 0.11112    |   0.0 | 19.34
Other   |            | 0.001154   |            |       |  0.20

Nlocal:    6.25 ave 8 max 6 min
Histogram: 7 0 0 0 0 0 0 0 0 1
Nghost:    600.5 ave 613 max 593 min
Histogram: 3 0 0 1 1 0 2 0 0 1
Neighs:    813.125 ave 1028 max 778 min
Histogram: 7 0 0 0 0 0 0 0 0 1

Total # of neighbors = 6505
Ave neighs/atom = 130.1
Neighbor list builds = 0
Dangerous builds = 0
WARNING: Total cutoff < 2*bond cutoff. May need to use an increased neighbor list skin. (../pair_reaxc.cpp:413)
Setting up Verlet run ...
  Unit style    : real
  Current step  : 0
  Time step     : 0.25
Per MPI rank memory allocation (min/avg/max) = 17.78 | 17.87 | 18 Mbytes
Step Temp TotEng KinEng PotEng Press 
       0          300   -8745.4801    43.817908   -8789.2981    13086.559 
     200    366.89991   -8727.0739    53.589288   -8780.6632    50264.386 
     400    317.12744   -8734.4421    46.319536   -8780.7617    11847.057 
     600    240.70952   -8741.1974    35.157959   -8776.3553   -42546.672 
     800     312.5429   -8726.5529     45.64992   -8772.2028    19183.818 
    1000    362.63764   -8725.2036    52.966742   -8778.1704   -24672.144 
    1200    272.29926   -8741.0457    39.771946   -8780.8176    25562.383 
    1400    303.15651   -8730.6015    44.278947   -8774.8804    9015.9174 
    1600    337.04402   -8730.7704    49.228546    -8779.999   -7009.7614 
    1800    288.74854   -8737.0667    42.174523   -8779.2413   -30760.018 
    2000    286.31077   -8734.6623    41.818463   -8776.4808   -1512.3285 
    2200    338.71392   -8723.8396    49.472451    -8773.312     6596.176 
    2400    285.08288   -8735.9393    41.639118   -8777.5784   -22551.859 
    2600    304.20644   -8739.7929      44.4323   -8784.2252    32959.858 
    2800    336.80143   -8722.0906    49.193114   -8771.2838   -26804.528 
    3000     305.1222   -8732.8754    44.566055   -8777.4415   -25687.948 
    3200    280.26571   -8739.6467    40.935523   -8780.5822    9005.0265 
    3400    331.19279   -8721.6673    48.373917   -8770.0412    42155.326 
    3600    257.45675   -8736.4687    37.604054   -8774.0728   -43551.989 
    3800    333.01804   -8737.0127    48.640513   -8785.6532    13714.069 
    4000     307.7842   -8729.1179    44.954866   -8774.0728   -1094.2721 
    4200    278.62412   -8722.6046    40.695753   -8763.3003   -19828.518 
    4400    269.09098   -8736.2245    39.303345   -8775.5278   -56533.998 
    4600    309.72502   -8738.9295    45.238341   -8784.1679     -7491.06 
    4800    429.43728   -8720.7024    62.723477   -8783.4258    12078.504 
    5000    319.07647   -8736.7856     46.60421   -8783.3898    45959.845 
    5200    327.21237   -8741.6152    47.792538   -8789.4077    35036.212 
    5400    272.68785   -8754.1549    39.828704   -8793.9836    25307.547 
    5600     258.4133   -8754.7498    37.743767   -8792.4936    3944.3142 
    5800    303.39018   -8742.0142    44.313077   -8786.3272     17373.58 
    6000     308.0278   -8747.8328    44.990446   -8792.8232    -25423.11 
    6200    328.13162   -8744.8214    47.926803   -8792.7482   -6383.2009 
    6400    331.64335   -8733.2072    48.439726   -8781.6469    14014.502 
    6600     243.0808   -8752.7999    35.504307   -8788.3042    -5833.016 
    6800     297.8385   -8748.0165      43.5022   -8791.5187   -7349.5576 
    7000    378.19053   -8728.1919    55.238393   -8783.4303    6590.6166 
    7200    417.33676   -8727.1819    60.956079    -8788.138   -7604.0542 
    7400    288.10774   -8750.4832    42.080927   -8792.5642    7920.2486 
    7600    311.07214   -8742.9514    45.435101   -8788.3865    1221.3728 
    7800    274.85645   -8740.0571    40.145449   -8780.2025   -35634.989 
    8000    260.87947   -8758.9407    38.103975   -8797.0447     11757.87 
    8200    280.08739   -8753.9565    40.909477    -8794.866   -719.09859 
    8400    284.40932   -8741.8107    41.540738   -8783.3515    19466.232 
    8600    302.10496     -8741.55    44.125358   -8785.6754   -7715.5948 
    8800    246.57804   -8756.0164    36.015113   -8792.0316   -10799.058 
    9000    280.50938   -8745.8875    40.971114   -8786.8586    10264.837 
    9200    292.58432   -8740.1151    42.734775   -8782.8499    47377.171 
    9400    242.79098   -8751.6966    35.461976   -8787.1585   -6158.0304 
    9600    258.53045   -8750.6862    37.760879   -8788.4471   -12642.532 
    9800     290.2985   -8736.9602     42.40091   -8779.3611    15613.176 
   10000    276.45646   -8747.9649    40.379146    -8788.344    33773.038 
   10200    233.22921   -8762.9567    34.065387   -8797.0221   -5856.0067 
   10400    335.11471    -8740.071    48.946751   -8789.0177    16778.104 
   10600    286.56866    -8745.657    41.856131   -8787.5131    3503.6325 
   10800    272.15589   -8751.5244    39.751006   -8791.2754    6089.0198 
   11000    311.63019   -8734.0804    45.516609    -8779.597   -23249.994 
   11200    272.09979   -8746.9484    39.742812   -8786.6912   -19713.428 
   11400    344.33875   -8748.5281    50.294012   -8798.8222   -33275.523 
   11600    339.21447    -8740.329    49.545561   -8789.8746    11100.628 
   11800    347.96935   -8731.1295    50.824297   -8781.9538    10193.795 
   12000    300.43155   -8744.9361     43.88094   -8788.8171    19941.522 
   12200    267.17139   -8753.3461    39.022971   -8792.3691    11236.752 
   12400     321.3088   -8746.1204    46.930264   -8793.0506    11951.976 
   12600    344.51929   -8737.7104    50.320381   -8788.0308   -2230.7975 
   12800    306.60302   -8751.5295    44.782343   -8796.3118   -5327.6604 
   13000    274.65036   -8746.3265    40.115347   -8786.4418    7240.2374 
   13200    323.86006   -8746.4959      47.3029   -8793.7988    27861.094 
   13400    334.53963   -8732.5405    48.862756   -8781.4033   -21395.401 
   13600    283.00943    -8744.518     41.33627   -8785.8543   -18056.845 
   13800    281.81399    -8747.798    41.161665   -8788.9596   -27772.254 
   14000    348.69414   -8736.9767    50.930159   -8787.9068   -1794.6725 
   14200    323.44704   -8755.5485    47.242576   -8802.7911    14936.517 
   14400    273.28626   -8747.7242    39.916108   -8787.6403   -20061.251 
   14600      312.474   -8739.7124    45.639857   -8785.3523    6881.2065 
   14800    288.61492    -8756.794    42.155006    -8798.949    19408.693 
   15000    312.39087   -8743.5537    45.627715   -8789.1814     226.7191 
   15200    303.19014   -8740.9648    44.283858   -8785.2487     32942.55 
   15400    288.56429   -8754.3118    42.147611   -8796.4595    -16092.41 
   15600    308.48408   -8754.1501    45.057089   -8799.2072   -14016.461 
   15800    351.65041   -8741.9181     51.36195     -8793.28    11726.926 
   16000    278.97045   -8748.4791    40.746338   -8789.2255    9198.4419 
   16200    291.33894   -8739.7139    42.552875   -8782.2667   -4113.9499 
   16400    288.67529   -8736.5819    42.163824   -8778.7457    35282.192 
   16600    314.57872   -8753.1821    45.947271   -8799.1294    3758.7031 
   16800    320.14973   -8743.9316    46.760971   -8790.6926   -19562.689 
   17000    386.13417   -8720.1695    56.398639   -8776.5681   -5963.6292 
   17200    342.80021    -8757.833    50.069293   -8807.9023   -22650.798 
   17400    286.85184   -8780.2314    41.897492   -8822.1289   -2885.5421 
   17600    302.19784    -8773.487    44.138924    -8817.626    33230.298 
   17800     376.1358   -8765.0829    54.938279   -8820.0212    15921.994 
   18000    297.65144   -8781.0329    43.474878   -8824.5078   -13792.303 
   18200    334.85709    -8768.164    48.909124   -8817.0731    351.09302 
   18400    264.53478   -8774.1541    38.637869    -8812.792    30839.618 
   18600     231.1187   -8792.6864    33.757127   -8826.4436   -7525.1478 
   18800    274.66598   -8778.4981    40.117629   -8818.6157   -15700.903 
   19000    294.15428   -8766.7876    42.964084   -8809.7517    24115.962 
   19200    344.09843   -8772.8716    50.258912   -8823.1305    12776.589 
   19400    319.89689     -8780.77    46.724041    -8827.494   -25554.207 
   19600    344.70605   -8764.9008     50.34766   -8815.2484   -13638.006 
   19800    364.73171   -8767.6591    53.272601   -8820.9317   -7723.6578 
   20000    276.09731   -8780.8673    40.326688    -8821.194    10358.512 
   20200    321.20369   -8768.1931    46.914912    -8815.108   -3829.8444 
   20400    323.18153   -8770.7909    47.203794   -8817.9947   -21395.621 
   20600     309.3304   -8772.7398    45.180703   -8817.9205    17306.862 
   20800    301.64374   -8773.2658    44.057992   -8817.3238    9095.5418 
   21000    261.91488   -8784.6962    38.255207   -8822.9514   -8148.6231 
   21200    310.92357   -8768.1046    45.413401    -8813.518   -43118.815 
   21400    310.63009    -8769.099    45.370535   -8814.4696   -26676.633 
   21600    293.68805   -8773.2969    42.895986   -8816.1929    21623.002 
   21800    267.86513   -8774.0107    39.124299    -8813.135   -28859.617 
   22000    339.33121   -8757.2961    49.562612   -8806.8587    5460.4845 
   22200    299.13118   -8771.9228    43.691009   -8815.6138   -7012.0497 
   22400     301.1547   -8774.6786    43.986563   -8818.6652    7502.1679 
   22600    276.26087   -8782.6056    40.350578   -8822.9562   -3736.0452 
   22800    347.18269   -8764.7269    50.709397   -8815.4363    1064.6777 
   23000    226.12927   -8779.8498    33.028371   -8812.8782   -2661.2502 
   23200    356.76623     -8770.08    52.109166   -8822.1892   -25871.687 
   23400    291.03832   -8774.9912    42.508967   -8817.5001    13119.625 
   23600    316.76737   -8761.6124    46.266944   -8807.8793    1916.7944 
   23800    328.33289   -8771.6982    47.956201   -8819.6544   -6925.1775 
   24000    263.73492   -8773.2017    38.521041   -8811.7227    11391.361 
   24200    349.61382   -8763.8646    51.064486    -8814.929    38108.315 
   24400    256.71215   -8782.4221    37.495297   -8819.9174   -37524.067 
   24600    261.24874   -8775.2623    38.157911   -8813.4202    9004.3992 
   24800    340.18144   -8769.7886    49.686796   -8819.4754     37229.55 
   25000    272.35303   -8777.1848      39.7798   -8816.9646   -11749.439 
   25200    260.52289   -8783.5223    38.051893   -8821.5742   -2247.3959 
   25400    320.10038   -8769.9999    46.753763   -8816.7537    22460.178 
   25600    340.42369   -8763.8287    49.722179   -8813.5508    10972.241 
   25800    306.08207   -8770.4454    44.706253   -8815.1516    -22219.36 
   26000    261.50812   -8773.1878    38.195796   -8811.3836    8740.1921 
   26200    359.66142   -8760.3129    52.532036    -8812.845   -49012.458 
   26400    254.50591   -8769.5467    37.173054   -8806.7198    7128.8061 
   26600    289.72718    -8776.329    42.317462   -8818.6464    37912.175 
   26800    301.80502   -8763.5677    44.081548   -8807.6492    7121.3765 
   27000    346.02168   -8766.1557     50.53982   -8816.6955    8352.6325 
   27200    319.05287   -8778.7164    46.600764   -8825.3171    32045.787 
   27400    344.67525   -8764.8427    50.343161   -8815.1858   -13261.628 
   27600    319.11148   -8767.2009    46.609324   -8813.8102    5246.0459 
   27800    289.77996   -8773.0912    42.325172   -8815.4164   -27289.095 
   28000    305.30424   -8772.2814    44.592643    -8816.874   -11574.045 
   28200    375.30994   -8751.0731    54.817655   -8805.8907   -33487.213 
   28400    304.23259   -8776.1288    44.436119    -8820.565    31548.188 
   28600    345.26199   -8770.6156    50.428861   -8821.0445    -19970.59 
   28800    310.06314   -8763.4844    45.287727   -8808.7721   -1774.8025 
   29000    304.86252   -8777.0221    44.528126   -8821.5502   -15305.425 
   29200    309.13153   -8777.1899    45.151657   -8822.3416    35267.658 
   29400    270.17798   -8767.7677    39.462113   -8807.2299      7162.97 
   29600    278.96171   -8774.3205    40.745061   -8815.0656   -13045.331 
   29800     245.8465   -8785.7444    35.908264   -8821.6527     11484.66 
   30000    289.27099    -8769.037    42.250831   -8811.2878   -32082.027 
   30200    265.96864   -8768.2162    38.847298   -8807.0635   -11625.101 
   30400    295.66735   -8786.4218    43.185082   -8829.6069   -3693.6583 
   30600    273.72298   -8780.4468    39.979894   -8820.4267    -29634.47 
   30800    340.76205   -8769.4728      49.7716   -8819.2444    18328.466 
   31000    318.16717   -8770.2964    46.471398   -8816.7678    35868.395 
   31200    219.75853   -8781.9976    32.097864   -8814.0954    19972.597 
   31400    307.46864   -8770.1303    44.908775    -8815.039   -5653.2553 
   31600    282.60438   -8774.3378    41.277109   -8815.6149   -24161.998 
   31800    206.83821   -8789.9436    30.210725   -8820.1544   -22155.088 
   32000    306.06066   -8771.9447    44.703126   -8816.6478    37647.883 
   32200    338.62418    -8765.473    49.459344   -8814.9324    15821.707 
   32400    264.63331   -8782.2799     38.65226   -8820.9322    4872.2397 
   32600    314.02511   -8778.3717    45.866411   -8824.2382    23002.858 
   32800    320.35852   -8768.2437    46.791466   -8815.0352   -14875.944 
   33000    269.22388   -8778.2822    39.322757    -8817.605    -4917.579 
   33200    264.03057   -8780.9988    38.564223   -8819.5631    2062.2634 
   33400    270.16996   -8773.8771    39.460942   -8813.3381    21780.567 
   33600    299.83609   -8765.5804    43.793967   -8809.3744    21956.552 
   33800    354.49372   -8757.9483    51.777244   -8809.7256    4567.7879 
   34000    298.83827   -8771.5561    43.648226   -8815.2043    14941.959 
   34200    282.55801   -8779.4335    41.270336   -8820.7038   -9616.0788 
   34400    225.08118   -8787.1455    32.875288   -8820.0208   -20688.442 
   34600    321.58737   -8767.8157    46.970952   -8814.7867   -22078.844 
   34800    291.26384   -8774.8548    42.541907   -8817.3967   -33414.732 
   35000     260.3904   -8786.2952    38.032542   -8824.3277    6279.8619 
   35200    317.92427   -8770.6931    46.435921    -8817.129   -32616.754 
   35400    353.14348   -8765.8911    51.580029   -8817.4711   -10675.242 
   35600    220.43121   -8783.7606    32.196115   -8815.9568   -29233.815 
   35800    292.06324   -8774.9899    42.658667   -8817.6485    4688.8673 
   36000    264.61402   -8768.3578    38.649443   -8807.0073    -13205.93 
   36200    353.88413   -8758.6093    51.688207   -8810.2975    26230.963 
   36400    271.99044   -8776.8419     39.72684   -8816.5687    32499.007 
   36600    331.53695   -8770.9046    48.424185   -8819.3287   -6481.4789 
   36800    294.81327   -8758.7479    43.060335   -8801.8082    9890.6684 
   37000    313.14002   -8773.7146    45.737135   -8819.4517    5862.0436 
   37200    280.36864   -8775.9217    40.950558   -8816.8722    886.21724 
   37400    334.08596   -8763.8781    48.796492   -8812.6746   -12101.252 
   37600    251.98318   -8775.0483    36.804586   -8811.8529   -23918.549 
   37800    301.70889   -8774.3155    44.067508    -8818.383    8653.2683 
   38000    294.60417   -8766.9373    43.029795   -8809.9671   -21540.894 
   38200    273.35068   -8776.4167    39.925517   -8816.3422   -15340.236 
   38400    239.44981   -8784.0572    34.973966   -8819.0311   -41731.869 
   38600    303.88229   -8773.1466    44.384954   -8817.5316   -10619.233 
   38800    275.50057   -8772.6049    40.239529   -8812.8445     21359.91 
   39000    282.71992   -8785.7525    41.293985   -8827.0465    6111.9201 
   39200    319.21992   -8769.4706    46.625163   -8816.0958   -12335.311 
   39400    309.10559   -8766.0729    45.147867   -8811.2208     8382.914 
   39600    250.89574   -8784.1981    36.645754   -8820.8438   -18245.537 
   39800    322.09959   -8772.7181    47.045768   -8819.7639   -7970.0609 
   40000    305.83705   -8771.4159    44.670466   -8816.0864    2095.8268 
   40200    288.64778   -8776.0833    42.159807   -8818.2431    2532.6819 
   40400    295.27915   -8771.7326    43.128382    -8814.861    14080.746 
   40600    314.78755   -8761.0297    45.977773   -8807.0075   -15864.898 
   40800    347.32264   -8775.4393    50.729837   -8826.1692   -1523.2111 
   41000    285.15686   -8777.9036    41.649923   -8819.5535   -8498.8304 
   41200    292.82447   -8760.9184    42.769852   -8803.6882   -47210.242 
   41400    327.08422   -8769.1732    47.773821    -8816.947   -8127.0853 
   41600    274.25964   -8778.0575    40.058278   -8818.1158   -20368.974 
   41800    347.86805   -8758.4864      50.8095   -8809.2959   -4960.7818 
   42000    274.78179   -8772.2897    40.134543   -8812.4243   -18628.414 
   42200    338.29997   -8774.6411     49.41199    -8824.053    15733.674 
   42400    346.37933   -8757.7641    50.592058   -8808.3562    -18740.64 
   42600    285.66246   -8772.6036    41.723771   -8814.3274    8384.6611 
   42800    278.32824    -8779.745    40.652537   -8820.3975    12082.558 
   43000    331.20646   -8766.5208    48.375913   -8814.8967   -22942.872 
   43200    300.69416   -8770.3274    43.919297   -8814.2467    3240.4405 
   43400    271.93298   -8772.6975    39.718447    -8812.416    8132.4413 
   43600      297.071   -8770.3115    43.390098   -8813.7016    11092.288 
   43800    222.01236   -8784.6442    32.427058   -8817.0713    10971.942 
   44000    339.56359   -8769.2695    49.596553    -8818.866   -9622.5575 
   44200    289.10958   -8769.8413    42.227256   -8812.0686   -9236.4634 
   44400    232.41697   -8788.0436    33.946752   -8821.9903   -6336.1378 
   44600    295.40227   -8770.3372    43.146365   -8813.4836    9251.3759 
   44800     312.3987   -8771.0689    45.628859   -8816.6978   -780.28177 
   45000     274.4233   -8785.1924    40.082182   -8825.2745   -16843.844 
   45200    274.48862    -8779.486    40.091724   -8819.5777   -3489.5206 
   45400    313.67068   -8771.3765    45.814643   -8817.1912    24438.498 
   45600    316.09389   -8772.0994    46.168577    -8818.268    15610.188 
   45800    302.44168   -8762.5511    44.174539   -8806.7257   -4345.8093 
   46000    239.28733   -8780.7338    34.950233    -8815.684    7859.3597 
   46200    264.59661    -8776.532      38.6469   -8815.1789    15160.027 
   46400     333.0262   -8767.4126    48.641705   -8816.0543   -10493.613 
   46600    234.77705   -8785.2113    34.291464   -8819.5028   -14451.622 
   46800     286.5283   -8771.3555    41.850235   -8813.2058   -33669.371 
   47000    281.30453   -8764.9845    41.087253   -8806.0717   -28623.567 
   47200    341.43021   -8771.6719    49.869191   -8821.5411   -5322.2895 
   47400     339.7945   -8771.4162     49.63028   -8821.0465    5335.0666 
   47600    249.04305   -8786.9186    36.375151   -8823.2938   -19880.492 
   47800    305.96533   -8777.3212    44.689203   -8822.0104   -46330.349 
   48000    265.06736   -8770.8396    38.715657   -8809.5552   -21275.047 
   48200    291.68583   -8771.2723    42.603543   -8813.8759    16196.981 
   48400    288.68261   -8779.6293    42.164893   -8821.7942    10829.125 
   48600    327.31658   -8759.8533    47.807759   -8807.6611     16539.91 
   48800    294.06775   -8765.6467    42.951445   -8808.5981    39816.505 
   49000    295.41629   -8774.2073    43.148412   -8817.3557    22745.074 
   49200     300.5755   -8772.0482    43.901966   -8815.9502    586.92624 
   49400    351.48326   -8760.8174    51.337536    -8812.155   -20299.819 
   49600    261.07107   -8775.7407    38.131961   -8813.8726    43153.924 
   49800    280.24539   -8775.1107    40.932555   -8816.0432   -9247.4127 
   50000    359.59111   -8759.8602    52.521766    -8812.382   -14664.009 
   50200    239.20335    -8783.579    34.937968    -8818.517    -636.0579 
   50400    297.31932   -8773.4164    43.426368   -8816.8428   -20022.286 
   50600    340.77921   -8761.2418    49.774107   -8811.0159    1398.0341 
   50800    263.82806   -8781.6532    38.534645   -8820.1878   -41880.755 
   51000    306.56019   -8771.3845    44.776087   -8816.1606   -19172.828 
   51200     328.2851   -8758.2773    47.949221   -8806.2265    8749.6394 
   51400    264.81578    -8770.551    38.678911   -8809.2299    35557.872 
   51600    304.58173   -8774.7871    44.487114   -8819.2743   -22701.901 
   51800    378.97488   -8763.0847    55.352955   -8818.4376   -13438.314 
   52000    284.83154   -8777.6629    41.602406   -8819.2653    -3706.452 
   52200    292.83278   -8778.5516    42.771065   -8821.3227    34392.782 
   52400    336.25629   -8764.0512     49.11349   -8813.1646    24034.394 
   52600    293.95541   -8774.5524    42.935037   -8817.4874   -38896.238 
   52800    320.39186     -8773.33    46.796336   -8820.1263    9759.0329 
   53000    336.98133   -8762.8321     49.21939   -8812.0514    10874.744 
   53200    281.71354   -8779.3895    41.146993   -8820.5365    38549.579 
   53400     318.2793   -8775.4218    46.487777   -8821.9096   -12523.883 
   53600      335.471    -8760.182    48.998791   -8809.1808         5023 
   53800    313.66299   -8760.3116     45.81352   -8806.1251   -31224.547 
   54000    279.37065   -8774.3566    40.804791   -8815.1614    5901.8279 
   54200    249.78232   -8780.2596    36.483128   -8816.7428   -25882.147 
   54400    306.24333   -8768.9267    44.729806   -8813.6565    -10714.56 
   54600    312.34536   -8768.0755    45.621068   -8813.6965   -4907.0853 
   54800    285.41652   -8784.8776    41.687849   -8826.5655    -36133.25 
   55000    343.48628   -8775.7822    50.169501   -8825.9517     34505.67 
   55200    299.17306   -8771.6623    43.697125   -8815.3594   -15727.631 
   55400    255.08816   -8787.4929    37.258098    -8824.751    4424.2007 
   55600    288.53169   -8774.2659    42.142849   -8816.4088   -27751.328 
   55800     314.7306   -8767.1961    45.969455   -8813.1656    2454.3211 
   56000    298.30016   -8776.2815     43.56963   -8819.8512    9118.0261 
   56200    293.37081   -8783.3986     42.84965   -8826.2482    15848.478 
   56400    245.77943   -8775.7437    35.898467   -8811.6421   -18488.978 
   56600    325.59332   -8769.8507    47.556059   -8817.4067   -13835.446 
   56800    267.24981   -8777.6578    39.034426   -8816.6922   -33090.056 
   57000    367.38142   -8755.1658    53.659617   -8808.8254    5580.4047 
   57200    305.12872   -8770.1131    44.567006   -8814.6801   -10361.612 
   57400    291.61114   -8781.7345    42.592633   -8824.3271    -363.7011 
   57600    304.15781   -8765.8769    44.425197   -8810.3021   -8377.3498 
   57800    260.43222    -8771.269     38.03865   -8809.3076    1842.8805 
   58000    329.37617   -8774.4756    48.108582   -8822.5842   -10932.443 
   58200    247.10653    -8779.356    36.092304   -8815.4483   -21532.675 
   58400    375.70568   -8764.3341    54.875456   -8819.2096     25999.87 
   58600    246.72404   -8777.1746    36.036438   -8813.2111    12617.306 
   58800    293.08996   -8776.9401    42.808629   -8819.7487    60125.691 
   59000    291.47674   -8767.0001    42.573003   -8809.5731    10697.409 
   59200    298.22335    -8768.589    43.558411   -8812.1474    35571.618 
   59400    326.47705   -8773.9209    47.685137    -8821.606   -3277.3382 
   59600    257.16735   -8788.4372    37.561784    -8825.999   -12404.991 
   59800    311.16549   -8773.8395    45.448736   -8819.2883    4810.2336 
   60000    288.03534   -8769.8536    42.070353    -8811.924   -33794.443 
   60200    326.44475   -8758.1203     47.68042   -8805.8008   -41559.528 
   60400    293.46714   -8775.4732     42.86372   -8818.3369   -20479.287 
   60600    319.60239   -8774.9618    46.681026   -8821.6428   -7554.5687 
   60800    396.40741    -8756.043    57.899145   -8813.9421    8215.7108 
   61000     277.3247   -8772.8737    40.505961   -8813.3797   -4524.9685 
   61200    287.42268   -8771.8647    41.980868   -8813.8456   -25129.788 
   61400     255.5529   -8784.6961    37.325978   -8822.0221    15410.632 
   61600    324.06059    -8768.201    47.332191   -8815.5332    6847.7037 
   61800    269.23899   -8771.3268    39.324964   -8810.6517    -54210.51 
   62000    320.65761   -8776.1763    46.835152   -8823.0114    33456.347 
   62200    277.54615   -8773.0011    40.538305   -8813.5394   -9519.7415 
   62400    298.27656   -8763.8904    43.566182   -8807.4566    9464.7543 
   62600    339.62603   -8769.3629    49.605674   -8818.9686   -20470.538 
   62800    314.24246   -8775.5248    45.898157    -8821.423   -45056.459 
   63000    333.82029   -8769.0058    48.757689   -8817.7635   -24412.032 
   63200    279.80357   -8769.5556    40.868023   -8810.4236    5960.9182 
   63400    300.12326   -8778.7798    43.835911   -8822.6157    5161.6749 
   63600    345.67706   -8758.1193    50.489485   -8808.6088   -26185.557 
   63800    288.68076   -8772.5714    42.164623   -8814.7361   -40201.886 
   64000    312.50083   -8775.3982    45.643776   -8821.0419   -14173.081 
   64200    372.27316   -8760.7288    54.374103   -8815.1029    7935.6822 
   64400    296.15659   -8774.1015     43.25654    -8817.358    -22307.35 
   64600    232.62899   -8787.1643    33.977719    -8821.142   -6842.7942 
   64800    320.53819   -8764.4053     46.81771    -8811.223    32208.158 
   65000    266.94176    -8772.911    38.989432   -8811.9005    13243.145 
   65200      307.132    -8781.748    44.859606   -8826.6076    2638.7254 
   65400     278.1615   -8777.5353    40.628183   -8818.1635    7151.1076 
   65600    367.98629    -8765.519    53.747964   -8819.2669   -9355.6234 
   65800    257.22512   -8779.8743    37.570221   -8817.4446   -5322.0624 
   66000    327.34745   -8773.8589    47.812268   -8821.6711   -9277.7615 
   66200      359.553   -8761.6275    52.516201   -8814.1437    53412.736 
   66400    296.92197   -8778.1107    43.368332    -8821.479   -13260.911 
   66600    283.89605   -8773.0896     41.46577   -8814.5554   -5678.0767 
   66800       366.39   -8750.9154    53.514811   -8804.4302   -7732.9618 
   67000    344.56842   -8760.2341    50.327557   -8810.5617   -23941.215 
   67200    274.29889   -8778.1026    40.064011   -8818.1666   -10598.629 
   67400     292.0088   -8775.6307    42.650715   -8818.2814    19311.122 
   67600    388.26215   -8756.7099     56.70945   -8813.4194   -27052.516 
   67800    368.19717   -8766.9839    53.778766   -8820.7627    38560.073 
   68000    278.48673   -8775.8482    40.675687   -8816.5239   -15204.375 
   68200    394.21966   -8759.3759    57.579602   -8816.9555    3546.5857 
   68400    290.63778   -8776.8351    42.450465   -8819.2856    132.74347 
   68600    276.52185   -8777.1469    40.388697   -8817.5356    17547.963 
   68800    332.04932   -8760.9463    48.499022   -8809.4453   -26421.816 
   69000     323.9033   -8767.8446    47.309216   -8815.1538    51425.443 
   69200     331.7058   -8771.7365    48.448847   -8820.1853      10878.2 
   69400    248.12723   -8784.1517    36.241387    -8820.393   -14663.017 
   69600    271.59095   -8784.7262    39.668491   -8824.3946    25251.688 
   69800    345.35041   -8768.8416    50.441775   -8819.2834   -5566.8323 
   70000    292.40825   -8765.4256    42.709059   -8808.1346     11639.85 
   70200    274.68459   -8779.8116    40.120347    -8819.932   -23908.652 
   70400    342.04489   -8768.0142    49.958972   -8817.9732    22611.263 
   70600    353.03421   -8762.8148    51.564068   -8814.3789    28421.007 
   70800    241.16815   -8784.1203    35.224946   -8819.3453    16519.416 
   71000    304.65909   -8769.1874    44.498414   -8813.6858   -3478.7651 
   71200    282.97443   -8770.8528    41.331158   -8812.1839    4932.0348 
   71400    282.91185   -8786.9989    41.322018   -8828.3209    2519.0069 
   71600    319.94038   -8776.3094    46.730394   -8823.0398   -21114.734 
   71800    314.13776   -8768.7855    45.882864   -8814.6683    30018.753 
   72000    233.21384   -8782.0122    34.063142   -8816.0753    18458.288 
   72200    279.88732   -8771.3688    40.880257   -8812.2491   -2845.3637 
   72400     316.3035   -8759.2582    46.199193   -8805.4574    3266.5754 
   72600    314.25486   -8774.4604    45.899969   -8820.3604    15857.846 
   72800      306.968   -8775.5276    44.835651   -8820.3632    26200.418 
   73000    299.59263   -8764.7049    43.758407   -8808.4633    20927.376 
   73200    285.55922   -8778.9269    41.708692   -8820.6356     18209.19 
   73400    243.32195   -8780.0406    35.539529   -8815.5801     33234.73 
   73600    324.94746   -8766.9544    47.461726   -8814.4162    7559.1054 
   73800    276.30158   -8781.8196    40.356524   -8822.1761    21376.761 
   74000    321.09562    -8766.657    46.899128   -8813.5561    4159.1596 
   74200     291.0047    -8766.858    42.504057    -8809.362   -21080.206 
   74400    271.19943   -8778.4493    39.611306   -8818.0606   -42192.274 
   74600     246.8304   -8790.2681    36.051973   -8826.3201   -24171.634 
   74800    310.96926   -8775.4002    45.420075   -8820.8203    10015.348 
   75000    307.99562   -8771.4476    44.985746   -8816.4334    17901.913 
   75200    342.06308   -8765.9992    49.961629   -8815.9608    27847.207 
   75400    262.01359   -8779.8651    38.269624   -8818.1347   -12181.704 
   75600     342.8111   -8760.6726    50.070884   -8810.7435   -47222.486 
   75800    330.92753   -8763.0692    48.335173   -8811.4043    1526.3509 
   76000    303.13783   -8778.9855    44.276218   -8823.2617   -25502.296 
   76200    303.34333   -8771.4421    44.306233   -8815.7483    31519.039 
   76400    388.07041   -8758.8922    56.681445   -8815.5736   -19140.662 
   76600    301.19434   -8771.2138    43.992353   -8815.2061    22545.868 
   76800    310.20203   -8770.7735    45.308013   -8816.0815    14262.763 
   77000    293.71959    -8771.266    42.900592   -8814.1666    8255.3295 
   77200    252.89757   -8783.7056    36.938142   -8820.6437    28530.847 
   77400    313.79661   -8765.2944    45.833037   -8811.1274    22823.759 
   77600    344.05002   -8763.0065     50.25184   -8813.2583   -13283.596 
   77800    274.84051   -8771.4141     40.14312   -8811.5572    68021.297 
   78000    298.20376   -8765.9711     43.55555   -8809.5266    7880.4769 
   78200     326.7666   -8763.1051    47.727429   -8810.8325   -24160.354 
   78400    263.40873   -8780.0569    38.473398   -8818.5303    15661.121 
   78600     295.1126   -8768.1785    43.104056   -8811.2825    3346.8527 
   78800    303.81563   -8763.9268    44.375218   -8808.3021    38158.151 
   79000    321.77823   -8771.7258     46.99883   -8818.7247   -342.20271 
   79200    266.18063   -8787.0976    38.878261   -8825.9759    4856.3545 
   79400    340.78295   -8768.7719    49.774652   -8818.5465   -1091.9608 
   79600    252.82354    -8772.252    36.927328   -8809.1793     33725.07 
   79800    327.17438   -8769.7261    47.786989    -8817.513    5058.3938 
   80000    292.60963   -8770.3107    42.738473   -8813.0492   -28867.866 
   80200    313.94857   -8773.8523    45.855232   -8819.7075    6843.5066 
   80400    228.99985   -8785.6251    33.447647   -8819.0727    26023.301 
   80600    290.83112   -8766.8808    42.478704   -8809.3595    16009.942 
   80800    337.07308     -8770.55    49.232791   -8819.7828   -3335.6477 
   81000    192.26658   -8785.8905    28.082398   -8813.9729    -6158.628 
   81200     249.8126   -8773.9482    36.487551   -8810.4358   -263.40852 
   81400    336.71531   -8765.8418    49.180535   -8815.0223   -24319.173 
   81600    277.35574   -8783.9758    40.510493   -8824.4863   -15868.722 
   81800    314.65206   -8773.1238    45.957983   -8819.0818    5057.4311 
   82000    380.17801   -8757.2258    55.528684   -8812.7545   -26153.046 
   82200    359.27182   -8750.3578    52.475131    -8802.833    5128.9872 
   82400    291.09766   -8770.9436    42.517635   -8813.4612    4397.1771 
   82600    322.27918   -8776.8365    47.071998   -8823.9085   -24408.297 
   82800    327.69967   -8760.5199    47.863713   -8808.3836   -12657.401 
   83000    299.39763   -8778.2803    43.729926   -8822.0103    37321.951 
   83200    297.44208   -8776.8485    43.444299   -8820.2928    30908.607 
   83400     345.4608   -8764.7022    50.457898   -8815.1601   -2670.5123 
   83600    294.65903    -8774.062    43.037807   -8817.0998   -2146.5967 
   83800    363.09939   -8765.7148    53.034185   -8818.7489    -20152.19 
   84000    320.68079   -8762.7867    46.838538   -8809.6252   -36028.737 
   84200    310.79815   -8779.2005    45.395082   -8824.5955     -16700.2 
   84400    270.53134   -8769.3026    39.513724   -8808.8164    15514.645 
   84600     345.3922   -8763.0157    50.447878   -8813.4636    18719.977 
   84800    272.57594    -8776.067    39.812358   -8815.8793   -8927.6698 
   85000    327.43167   -8769.9816     47.82457   -8817.8062    13962.002 
   85200    345.03364   -8760.2809    50.395507   -8810.6764     6333.671 
   85400     258.3328   -8778.9156     37.73201   -8816.6476    1583.9952 
   85600    318.08594   -8776.2238    46.459535   -8822.6834    2362.1066 
   85800    282.87462   -8760.3615     41.31658   -8801.6781    -6662.008 
   86000    296.64695   -8773.2432    43.328162   -8816.5713   -1021.6587 
   86200    324.25066   -8777.4875    47.359951   -8824.8474   -24003.944 
   86400     289.5484   -8760.0795     42.29135   -8802.3708   -5968.7035 
   86600    334.95717   -8770.2862    48.923741   -8819.2099    16759.084 
   86800    300.55261   -8773.8117    43.898622   -8817.7103    -1835.089 
   87000     262.3668   -8775.7396    38.321213   -8814.0608   -42681.469 
   87200    313.49653   -8762.5515    45.789207   -8808.3407   -4140.8042 
   87400    254.53565   -8775.1238    37.177399   -8812.3012   -55244.863 
   87600    310.21375   -8776.7858    45.309725   -8822.0956   -20911.944 
   87800    323.48603   -8768.3651     47.24827   -8815.6133    12493.795 
   88000    264.56547   -8774.3834    38.642351   -8813.0257     29006.21 
   88200    281.61926    -8789.554    41.133223   -8830.6872   -965.74894 
   88400     330.9173   -8776.0465    48.333678   -8824.3802   -7964.7991 
   88600    284.13749   -8771.5151    41.501034   -8813.0162    5260.1968 
   88800    257.55265   -8778.7353    37.618062   -8816.3533    9670.5787 
   89000    272.71598    -8775.363    39.832813   -8815.1958   -45570.254 
   89200    322.59138   -8760.9237    47.117598   -8808.0412    12382.945 
   89400    327.56871   -8774.9849    47.844585   -8822.8295    11290.149 
   89600    336.89168   -8777.6768    49.206296   -8826.8831   -7631.9772 
   89800    286.80888   -8766.3178    41.891217    -8808.209    23255.226 
   90000    291.40429   -8772.9206    42.562421    -8815.483   -1037.3339 
   90200    272.79751     -8774.54    39.844721   -8814.3848   -21183.439 
   90400    330.21779   -8762.9881    48.231509   -8811.2196    12608.983 
   90600    337.43266   -8768.5583    49.285311   -8817.8436   -12172.514 
   90800    283.03272   -8776.5261    41.339672   -8817.8658   -14497.144 
   91000    352.25334   -8762.3296    51.450014   -8813.7797   -7416.2611 
   91200    246.56076    -8782.125    36.012588   -8818.1375   -18075.949 
   91400    322.69387   -8776.8473    47.132567   -8823.9798    21911.294 
   91600    289.15439   -8766.6646    42.233801   -8808.8984   -2946.7851 
   91800     218.6436   -8781.7451    31.935017   -8813.6801   -28674.623 
   92000    264.05123   -8775.6892    38.567241   -8814.2564    17746.209 
   92200    247.23345   -8769.3765    36.110842   -8805.4873   -783.57003 
   92400    273.15532   -8781.1192    39.896982   -8821.0162    24685.276 
   92600     267.9019   -8783.8452    39.129669   -8822.9749   -22579.274 
   92800    280.87276     -8769.83    41.024188   -8810.8542    1024.1864 
   93000    256.41213   -8768.7864    37.451477   -8806.2379   -16045.508 
   93200    258.69899   -8784.0864    37.785496   -8821.8719     16714.73 
   93400    269.52078   -8770.8581    39.366123   -8810.2242    15133.293 
   93600    290.94673   -8770.4538     42.49559   -8812.9494   -16832.753 
   93800      214.383   -8788.8623    31.312715    -8820.175    25970.889 
   94000       274.52   -8775.6238    40.096306   -8815.7201    21048.993 
   94200    272.44011   -8771.1828    39.792518   -8810.9753   -1045.9386 
   94400    331.62836   -8754.6578    48.437536   -8803.0954    24549.628 
   94600    277.74416   -8772.4531    40.567227   -8813.0203    62294.316 
   94800    292.37566   -8769.3238    42.704298   -8812.0281     39061.44 
   95000    362.99751   -8759.0773    53.019304   -8812.0966   -3739.2837 
   95200    232.54347   -8777.4464    33.965228   -8811.4117   -1433.4016 
   95400    319.98891   -8773.4808    46.737482   -8820.2183     -23080.2 
   95600    297.87007    -8757.054     43.50681   -8800.5608    1132.0506 
   95800     370.1155   -8765.6518    54.058956   -8819.7108    23516.626 
   96000    278.28497   -8777.8226    40.646218   -8818.4688    9051.9738 
   96200    338.53249   -8768.1342    49.445951   -8817.5801   -39997.361 
   96400     311.1851   -8765.2388      45.4516   -8810.6904    7866.7828 
   96600    292.73971   -8776.7185    42.757471    -8819.476    3991.9109 
   96800    287.00684    -8774.598    41.920131   -8816.5181   -16342.674 
   97000     294.7108   -8768.9046    43.045369     -8811.95   -28980.411 
   97200    239.99324   -8782.5409    35.053339   -8817.5942    -30993.52 
   97400    312.85736   -8770.3067     45.69585   -8816.0026   -2800.0844 
   97600    321.34712    -8768.106    46.935862   -8815.0418    20924.829 
   97800    291.31507   -8785.3318    42.549389   -8827.8812   -5737.2281 
   98000    266.79679   -8776.8758    38.968258   -8815.8441    15656.137 
   98200    259.27911   -8770.9229    37.870228   -8808.7931   -1312.7088 
   98400    345.27474   -8767.3739    50.430722   -8817.8046    26078.538 
   98600    291.95481   -8773.0156     42.64283   -8815.6584    25513.876 
   98800    251.33852   -8779.7033    36.710427   -8816.4137   -14308.958 
   99000    360.02588   -8762.2128     52.58527    -8814.798   -25033.921 
   99200    267.44886    -8773.189    39.063499   -8812.2525    6298.5745 
   99400    284.49165    -8774.557    41.552764   -8816.1098   -7837.8544 
   99600    383.61108    -8757.925    56.030117   -8813.9551    35594.341 
   99800    313.89535   -8765.6158    45.847458   -8811.4632    2452.6587 
  100000    305.92283   -8774.9405    44.682994   -8819.6235   -16085.072 
  100200    292.99591   -8770.3322    42.794892   -8813.1271   -9952.1253 
  100400    290.64449   -8754.6942    42.451445   -8797.1457   -27304.641 
  100600    347.46752   -8773.7147       50.751   -8824.4657    2138.4577 
  100800    306.37923    -8776.522    44.749656   -8821.2716   -8289.7642 
  101000    321.71676   -8758.9263    46.989851   -8805.9161    28621.946 
  101200    306.65631   -8772.7674    44.790126   -8817.5575   -9954.9165 
  101400    308.85613   -8772.5526    45.111432    -8817.664    30658.789 
  101600     342.0951   -8758.1832    49.966305   -8808.1495   -14298.093 
  101800     329.0749    -8766.616    48.064578   -8814.6806   -19407.091 
  102000    276.35133   -8777.6921     40.36379   -8818.0559   -4993.8738 
  102200     315.1477   -8767.9921    46.030376   -8814.0225    18622.091 
  102400    326.23354   -8761.1209    47.649571   -8808.7705   -21182.015 
  102600    299.07089   -8773.4625    43.682202   -8817.1447   -19410.958 
  102800    301.73281    -8770.417    44.071002    -8814.488    28980.886 
  103000     331.2783   -8755.5413    48.386407   -8803.9277     14380.96 
  103200    306.37047   -8774.3013    44.748377   -8819.0497    -37498.32 
  103400    276.73845   -8777.5833    40.420332   -8818.0036   -2545.8149 
  103600    286.81991   -8761.1758    41.892828   -8803.0686   -19192.282 
  103800    260.36418   -8775.2602    38.028712   -8813.2889    12962.935 
  104000    286.75447   -8773.5835     41.88327   -8815.4668   -17830.565 
  104200    349.39322   -8763.6166    51.032267   -8814.6489   -20128.821 
  104400    305.56348   -8756.5181    44.630508   -8801.1486   -33111.174 
  104600    319.05517   -8771.0566      46.6011   -8817.6577      10737.4 
  104800    295.43328   -8780.7997    43.150894   -8823.9506   -19043.079 
  105000    327.43383   -8762.6789    47.824884   -8810.5038   -59643.817 
  105200    295.28122   -8770.7346    43.128684   -8813.8633    17626.433 
  105400    266.60296   -8779.4991    38.939946    -8818.439   -14118.821 
  105600    278.79649   -8774.4304     40.72093   -8815.1514    4625.4159 
  105800    341.70824    -8766.242      49.9098   -8816.1518    33125.249 
  106000    282.19089   -8782.1124    41.216714   -8823.3291    -29071.39 
  106200    300.01186   -8768.8223     43.81964   -8812.6419    15791.904 
  106400    262.94796   -8770.0454    38.406098   -8808.4515    43703.756 
  106600    289.89392   -8779.6393    42.341817   -8821.9811   -11672.751 
  106800    265.81394   -8783.4947    38.824702   -8822.3194   -18183.434 
  107000    335.70648   -8765.3705    49.033185   -8814.4037   -15832.855 
  107200    279.60462     -8776.81    40.838965    -8817.649    17069.531 
  107400    271.49981   -8781.0981    39.655179   -8820.7533   -27748.598 
  107600    306.63696   -8771.1294      44.7873   -8815.9167   -15013.157 
  107800    302.93658   -8772.5725    44.246823   -8816.8193   -14063.941 
  108000    231.65093   -8779.4223    33.834864   -8813.2572   -16432.944 
  108200    341.57157   -8770.4191    49.889839   -8820.3089   -33808.892 
  108400    295.71879   -8766.2637    43.192596   -8809.4563    5062.0843 
  108600    310.98807   -8784.1557    45.422822   -8829.5785   -8760.2117 
  108800    309.85629   -8771.4952    45.257514   -8816.7527    3337.4217 
  109000    354.59234   -8768.3103    51.791649   -8820.1019    3426.2996 
  109200    263.46831   -8777.2222      38.4821   -8815.7043    3271.7237 
  109400     357.7069   -8761.2381     52.24656   -8813.4846    10369.456 
  109600    303.77202   -8770.2777    44.368848   -8814.6465   -15268.168 
  109800    326.09748   -8775.0661    47.629698   -8822.6958   -4103.3237 
  110000    303.35595   -8774.2871    44.308077   -8818.5952   -23186.637 
  110200    282.87595   -8766.7936    41.316774   -8808.1104    4827.5797 
  110400    290.04661   -8783.1253    42.364119   -8825.4894   -6208.3723 
  110600    324.12649   -8778.7834    47.341816   -8826.1252    22312.932 
  110800    326.25658   -8773.5376    47.652935   -8821.1905   -26195.481 
  111000    321.64572    -8776.122    46.979475   -8823.1015    13933.252 
  111200    338.76618   -8765.1952    49.480084   -8814.6753     28593.72 
  111400    253.14383   -8780.1187    36.974109   -8817.0928   -6726.0849 
  111600     342.9068   -8773.3302    50.084862   -8823.4151    26517.126 
  111800    329.15341   -8757.1987    48.076046   -8805.2747    39802.592 
  112000    313.81861   -8777.3539     45.83625   -8823.1901   -13839.101 
  112200    304.96531   -8774.8912    44.543139   -8819.4343   -20161.351 
  112400    375.53677   -8761.1863    54.850785   -8816.0371   -8578.6997 
  112600    267.13577   -8782.8406    39.017768   -8821.8584   -35842.819 
  112800    287.22497   -8770.9662     41.95199   -8812.9182    4048.5551 
  113000    243.02613   -8780.0668    35.496322   -8815.5631   -906.54926 
  113200    282.47565   -8782.9974    41.258307   -8824.2557     16838.57 
  113400    368.27305   -8767.9315    53.789848   -8821.7213    43910.314 
  113600    327.57797   -8768.1604    47.845938   -8816.0063   -632.92005 
  113800     224.5793   -8787.8788    32.801983   -8820.6808   -8759.9232 
  114000    286.21705   -8775.2095    41.804774   -8817.0143   -18702.793 
  114200    300.61827    -8773.902    43.908212   -8817.8102   -9914.2914 
  114400    286.34516   -8789.1617    41.823485   -8830.9852   -8566.9303 
  114600    306.51805   -8774.3261    44.769931   -8819.0961   -25882.431 
  114800    359.01894    -8766.389    52.438196   -8818.8272    22676.728 
  115000    291.67125   -8781.0272    42.601413   -8823.6286    54350.631 
  115200    247.59949   -8777.1563    36.164305   -8813.3206    20058.513 
  115400    411.42746   -8744.2621    60.092969    -8804.355    -2433.062 
  115600    338.61544   -8766.7228    49.458067   -8816.1809   -33249.916 
  115800     247.7784   -8783.1202    36.190436   -8819.3107    5195.2873 
  116000    243.48873   -8771.8467    35.563889   -8807.4106   -14698.035 
  116200    335.97732   -8767.9374    49.072744   -8817.0102    43296.173 
  116400    235.07944    -8782.415    34.335631   -8816.7507    27439.918 
  116600     304.0296   -8778.6395     44.40647    -8823.046    12306.602 
  116800    274.19936   -8772.6019    40.049474   -8812.6513    38350.811 
  117000    322.77857   -8762.7545    47.144938   -8809.8994    55061.489 
  117200    322.49341   -8776.8149    47.103289   -8823.9182   -5284.1072 
  117400    354.30552   -8769.6004    51.749755   -8821.3502    18327.456 
  117600     299.7426   -8780.3799    43.780312   -8824.1602    13504.653 
  117800     262.5384   -8787.1997    38.346278   -8825.5459    884.55213 
  118000    322.20139   -8765.4468    47.060636   -8812.5074    10916.847 
  118200    315.85691    -8777.307    46.133964   -8823.4409   -7653.5822 
  118400    303.65691   -8777.8232    44.352035   -8822.1752    -12988.02 
  118600    306.09606   -8776.5938    44.708296   -8821.3021   -8776.3159 
  118800    316.83794   -8780.1048    46.277252    -8826.382    17786.187 
  119000    334.61088   -8770.4425    48.873162   -8819.3157    5641.3815 
  119200    272.78175   -8783.9165    39.842418   -8823.7589   -9309.5526 
  119400    319.75541   -8770.5682    46.703376   -8817.2716   -3377.2509 
  119600    342.01213   -8765.6835    49.954186   -8815.6377    7573.2619 
  119800    296.20474   -8781.0848    43.263573   -8824.3484   -13957.776 
  120000     324.3574   -8775.7234    47.375543    -8823.099    3953.2133 
  120200     321.9486    -8778.843    47.023714   -8825.8667    858.40278 
  120400    299.80939   -8774.2095    43.790067   -8817.9996    18542.726 
  120600    310.03662   -8762.1335    45.283853   -8807.4174    6239.2737 
  120800     314.8757   -8766.9019    45.990648   -8812.8926   -7135.3338 
  121000    357.34281   -8774.5829    52.193381   -8826.7763   -21296.814 
  121200    291.87259   -8780.8823    42.630821   -8823.5131    1066.5705 
  121400    331.49489   -8777.2826    48.418042   -8825.7006   -24903.965 
  121600    293.41949   -8766.5246    42.856761   -8809.3814   -47615.954 
  121800    384.57004   -8765.8324    56.170181   -8822.0026   -16700.969 
  122000    272.57426   -8781.4511    39.812112   -8821.2632    18192.607 
  122200    299.26752   -8765.9502    43.710922   -8809.6611   -18522.058 
  122400     348.7701   -8761.0635    50.941254   -8812.0048    49666.815 
  122600    262.35769   -8780.1935    38.319883   -8818.5134   -3357.8883 
  122800    245.43625   -8772.8056    35.848343   -8808.6539    -40626.54 
  123000    302.47974     -8759.41    44.180098   -8803.5901    14623.776 
  123200    305.43426   -8777.7238    44.611634   -8822.3354    18272.956 
  123400    321.65065   -8776.9102    46.980195   -8823.8904   -3342.7061 
  123600     326.0553   -8778.8869    47.623537   -8826.5105    66899.276 
  123800      285.348   -8768.8639    41.677841   -8810.5417    -19188.54 
  124000    297.67288   -8779.4061    43.478009   -8822.8841    20306.112 
  124200    282.63581   -8778.4247    41.281699   -8819.7064    4367.9164 
  124400    286.36584   -8769.8279    41.826507   -8811.6544   -32151.483 
  124600    347.94385    -8771.808    50.820571   -8822.6286    23377.545 
  124800    247.07689   -8781.2562    36.087974   -8817.3441   -3728.1896 
  125000    351.73052   -8765.7617    51.373651   -8817.1353    10786.882 
  125200    266.67042   -8772.8584    38.949799   -8811.8082   -17781.993 
  125400    286.60581     -8780.45    41.861556   -8822.3116    986.09263 
  125600    259.12411   -8777.3756    37.847588   -8815.2231   -8955.5693 
  125800    363.55093   -8761.2678    53.100137    -8814.368    14903.823 
  126000    296.28297   -8773.9534    43.274999   -8817.2284   -6680.8546 
  126200    271.88374    -8775.811    39.711256   -8815.5223    1495.7092 
  126400    306.52515     -8773.19    44.770969    -8817.961   -7049.2265 
  126600    328.62125   -8764.6393    47.998318   -8812.6376   -19659.718 
  126800    265.67425   -8782.1433    38.804299   -8820.9476    1254.8173 
  127000    297.04784   -8774.9062    43.386716   -8818.2929   -9832.8364 
  127200    250.73794   -8780.0998    36.622707   -8816.7225    20475.955 
  127400    299.94364    -8783.466    43.809675   -8827.2757    22000.614 
  127600     322.2927   -8773.7123    47.073973   -8820.7862    22280.097 
  127800    279.87468    -8770.252    40.878409   -8811.1304   -36535.074 
  128000    284.13445   -8776.7191     41.50059   -8818.2197   -24170.878 
  128200    269.46366   -8773.7263    39.357779    -8813.084    19332.485 
  128400    385.90916   -8753.8039    56.365774   -8810.1697     8646.732 
  128600    298.07622   -8771.2856    43.536921   -8814.8226    12683.701 
  128800    284.10493   -8783.6579    41.496279   -8825.1542   -10.039244 
  129000    303.01897   -8769.7116    44.258857   -8813.9705   -5549.1444 
  129200    314.46834   -8772.5961    45.931149   -8818.5272    12537.063 
  129400    315.65884    -8778.362    46.105032   -8824.4671    6717.6712 
  129600    322.84678   -8771.5942    47.154901   -8818.7491    -31076.07 
  129800    243.33205   -8787.2612    35.541004   -8822.8022    2761.4524 
  130000    332.69296   -8772.3929    48.593031    -8820.986     28758.83 
  130200    309.20426   -8772.9218    45.162279   -8818.0841    -22596.65 
  130400    322.92692   -8774.7476    47.166607   -8821.9143   -10022.029 
  130600    292.57209   -8781.4006     42.73299   -8824.1336    2827.8076 
  130800    323.14794   -8765.9282    47.198889   -8813.1271    12009.342 
  131000      279.353   -8776.7038    40.802213    -8817.506    6160.2141 
  131200    275.60111   -8788.8649    40.254214   -8829.1191   -7593.5284 
  131400    248.95065   -8788.2421    36.361655   -8824.6037   -32579.535 
  131600    341.39039   -8774.3788    49.863375   -8824.2422   -14855.153 
  131800    244.30857   -8773.0214    35.683635   -8808.7051   -7897.3927 
  132000     318.0626   -8770.2816    46.456125   -8816.7377    8772.3949 
  132200    250.38061   -8783.7832    36.570515   -8820.3537    18980.386 
  132400    359.37524    -8765.529    52.490238   -8818.0193    2842.8433 
  132600    293.58866   -8773.7561    42.881469   -8816.6376    7322.0107 
  132800    295.48975   -8776.2289    43.159142   -8819.3881   -4303.7399 
  133000    246.90082   -8791.7623    36.062258   -8827.8246    15139.341 
  133200    275.01301   -8776.5542    40.168315   -8816.7225   -22247.822 
  133400    320.93857   -8768.2354    46.876189   -8815.1116   -2131.8939 
  133600    267.40333   -8785.2927    39.056848   -8824.3496   -34277.197 
  133800    305.13332     -8775.18    44.567678   -8819.7477   -6767.0676 
  134000    329.78849   -8773.1809    48.168805   -8821.3497   -1266.4306 
  134200    266.81244   -8778.5501    38.970543   -8817.5206    6530.0028 
  134400    348.46777   -8776.8801    50.897095   -8827.7772    7428.2066 
  134600     316.0868   -8769.9154    46.167541    -8816.083   -7591.2342 
  134800    272.97819   -8785.2174    39.871111   -8825.0885   -6313.8636 
  135000    312.01708   -8773.6188    45.573119   -8819.1919   -5210.3813 
  135200    317.98685   -8767.9904    46.445062   -8814.4354    43000.808 
  135400    269.12593   -8782.5108     39.30845   -8821.8193    2766.1941 
  135600    268.12695   -8784.4093     39.16254   -8823.5718    1538.3834 
  135800     330.7356    -8769.831     48.30714   -8818.1381    -27664.12 
  136000    329.32818   -8777.3209    48.101572   -8825.4224    863.83001 
  136200    290.00993   -8787.4081    42.358761   -8829.7669   -9862.7124 
  136400    301.50394   -8776.1753    44.037572   -8820.2129   -13066.418 
  136600    333.47063   -8769.6858    48.706618   -8818.3924    26555.613 
  136800    253.35346   -8775.0896    37.004728   -8812.0943   -222.00402 
  137000    290.07339   -8782.7503     42.36803   -8825.1183   -4599.2519 
  137200    374.72056    -8764.917     54.73157   -8819.6486    22289.573 
  137400    305.11934   -8771.2508    44.565637   -8815.8165    6603.9709 
  137600    279.28062   -8785.0059    40.791641   -8825.7975   -335.31481 
  137800    296.39207   -8781.4047    43.290935   -8824.6957    3859.8848 
  138000     363.2636   -8769.0876     53.05817   -8822.1457   -18257.241 
  138200    299.19001   -8783.5529    43.699601   -8827.2525    3530.9397 
  138400    338.80801   -8768.7942    49.486194   -8818.2804    -24999.85 
  138600    326.73908   -8770.5461     47.72341   -8818.2696   -24193.592 
  138800    265.57097   -8781.5722    38.789214   -8820.3614    30585.869 
  139000     321.1275   -8766.1106    46.903784   -8813.0144   -49223.001 
  139200    306.33933   -8771.1664    44.743828   -8815.9102   -32596.558 
  139400    287.39238   -8781.1235    41.976443      -8823.1    17853.696 
  139600    297.17182   -8776.8433    43.404824   -8820.2481    1832.9891 
  139800    335.28685   -8772.4148    48.971894   -8821.3867   -2817.5724 
  140000    315.04181   -8763.3459     46.01491   -8809.3608    51641.277 
  140200    332.52574   -8776.8848    48.568608   -8825.4534   -35859.851 
  140400    319.13344   -8776.1187    46.612532   -8822.7312    25919.241 
  140600    306.75074   -8773.0008    44.803919   -8817.8047    -1440.047 
  140800    259.49665   -8785.4546    37.902001   -8823.3566    10518.196 
  141000    287.19374   -8772.6013    41.947429   -8814.5487    17075.044 
  141200    350.80981   -8769.6958    51.239173    -8820.935   -195.95117 
  141400    259.97372   -8786.1155    37.971681   -8824.0871    1246.8956 
  141600    321.32485   -8771.5131    46.932609   -8818.4457   -27487.859 
  141800    341.39976   -8771.4393    49.864744    -8821.304   -85.500276 
  142000    211.95594   -8790.6167     30.95822   -8821.5749    19893.384 
  142200    259.91486   -8788.7471    37.963085   -8826.7102   -10310.191 
  142400    259.74407     -8775.57    37.938139   -8813.5081    25785.311 
  142600     349.9747   -8768.1847    51.117197   -8819.3019   -24572.946 
  142800    283.09889   -8778.4599    41.349337   -8819.8092   -38844.365 
  143000     285.1264    -8771.604    41.645474   -8813.2495   -25520.482 
  143200    230.05634   -8786.4201    33.601959   -8820.0221   -1014.7056 
  143400    273.54488   -8782.0629    39.953882   -8822.0168   -9756.9093 
  143600    315.16034   -8775.8661    46.032222   -8821.8983    17140.499 
  143800    300.29191   -8769.5935    43.860544   -8813.4541   -17842.168 
  144000    362.38711   -8761.6815     52.93015   -8814.6117   -8068.8088 
  144200    287.88615   -8777.6879    42.048563   -8819.7364   -26864.315 
  144400    319.28357   -8765.6789    46.634459   -8812.3133   -38173.862 
  144600    292.88302   -8780.3744    42.778404   -8823.1528   -21876.384 
  144800    286.61336   -8778.9501     41.86266   -8820.8128    11345.832 
  145000    325.68293   -8761.7132    47.569148   -8809.2824   -13071.849 
  145200    307.07009   -8776.1913    44.850563   -8821.0419   -483.34439 
  145400     289.2059   -8775.5078    42.241325   -8817.7491    8857.4037 
  145600     329.7342   -8767.6372    48.160876   -8815.7981    17657.837 
  145800    320.10757   -8779.9985    46.754813   -8826.7533    4105.1058 
  146000    378.92083   -8771.8209    55.345059    -8827.166   -13217.505 
  146200    290.45681   -8779.6148    42.424032   -8822.0389   -2828.1686 
  146400    281.63554   -8778.3646      41.1356   -8819.5002   -32298.622 
  146600     346.1143   -8765.8493    50.553349   -8816.4027     2731.738 
  146800    332.39402   -8775.5591    48.549369   -8824.1085    11640.447 
  147000    263.74998   -8795.8191    38.523241   -8834.3423   -23625.782 
  147200    275.23766   -8785.2952    40.201128   -8825.4963   -22431.231 
  147400     269.9516   -8774.7151    39.429047   -8814.1441   -12064.397 
  147600    272.45311   -8766.1409    39.794417   -8805.9353    25212.275 
  147800    351.39261   -8766.2865    51.324296   -8817.6108   -32139.913 
  148000    280.29198   -8779.2793     40.93936   -8820.2187   -23977.825 
  148200    359.50627   -8767.9073    52.509375   -8820.4166   -12737.343 
  148400    340.24721   -8766.9698    49.696403   -8816.6662     7587.846 
  148600    312.37593   -8779.6819    45.625533   -8825.3074   -29293.966 
  148800    288.09984   -8766.1942    42.079775   -8808.2739   -9673.0209 
  149000    311.76542   -8766.2109    45.536361   -8811.7473    14161.007 
  149200    283.32684   -8775.4837    41.382631   -8816.8663    2995.7084 
  149400    287.11536   -8781.5295    41.935981   -8823.4655    23948.472 
  149600    271.10043   -8788.0202    39.596846    -8827.617   -1116.5834 
  149800    303.79499   -8772.4674    44.372203   -8816.8396    -11782.76 
  150000    356.05097   -8767.9651    52.004696   -8819.9698    37827.863 
  150200    282.14555   -8785.1566    41.210092   -8826.3667   -1635.5849 
  150400    310.50703   -8773.7347    45.352561   -8819.0873   -8376.6982 
  150600    290.19112    -8769.288    42.385225   -8811.6732   -7053.9458 
  150800    273.69159   -8779.6339     39.97531   -8819.6092    44289.536 
  151000    329.52154   -8765.3256    48.129815   -8813.4554    11528.365 
  151200    292.78831   -8771.4289    42.764571   -8814.1935    6189.6226 
  151400    340.90347   -8778.2955    49.792256   -8828.0877    9291.1557 
  151600    311.61123   -8772.5157    45.513841   -8818.0296   -12088.432 
  151800    338.56586   -8761.1062    49.450825    -8810.557   -23194.827 
  152000    272.48522   -8779.0698    39.799107   -8818.8689    9874.8963 
  152200    280.42863   -8776.1619     40.95932   -8817.1212    -3168.877 
  152400    382.48135   -8763.9261    55.865108   -8819.7912     4631.868 
  152600    294.52465   -8776.2315     43.01818   -8819.2497   -11410.387 
  152800    310.84102   -8786.9631    45.401343   -8832.3644   -816.32796 
  153000     281.8764   -8786.6565    41.170781   -8827.8273    33610.282 
  153200    325.31778    -8769.508    47.515815   -8817.0238   -35042.668 
  153400    290.43122   -8778.1512    42.420295   -8820.5715    40397.418 
  153600    245.17792   -8791.6774    35.810611    -8827.488   -26892.285 
  153800      294.628   -8770.0023    43.033275   -8813.0356   -3990.5724 
  154000    386.12455   -8771.0277    56.397233   -8827.4249    9901.0504 
  154200    277.38945   -8786.0696    40.515418    -8826.585    6740.1567 
  154400    305.60893   -8774.0638    44.637147    -8818.701    15443.258 
  154600    250.24382   -8776.0044    36.550536    -8812.555   -6589.8061 
  154800    254.14917   -8774.1519     37.12095   -8811.2728   -19215.622 
  155000     276.0387   -8776.5067    40.318127   -8816.8248    40040.746 
  155200    294.73863   -8777.7475    43.049434   -8820.7969     2031.911 
  155400    304.72442   -8763.9908    44.507955   -8808.4988      30398.5 
  155600     234.8781   -8783.0306    34.306224   -8817.3368   -15055.009 
  155800    311.14657   -8773.7019    45.445972   -8819.1479    4437.1494 
  156000    352.53033   -8764.1351    51.490472   -8815.6256   -33712.343 
  156200    280.75731   -8771.4974    41.007327   -8812.5047    43963.806 
  156400     239.8095   -8780.1341    35.026502   -8815.1606    9089.1329 
  156600     361.0514   -8761.5926    52.735056   -8814.3277    9869.1396 
  156800    347.33835   -8766.2423    50.732133   -8816.9744   -16413.804 
  157000    360.76916   -8775.1387    52.693832   -8827.8326    17372.636 
  157200    258.38536   -8780.6678    37.739686   -8818.4075    25992.128 
  157400    364.21004   -8759.4222    53.196406   -8812.6186   -1968.9082 
  157600    284.18082   -8772.6619    41.507363   -8814.1693   -40847.416 
  157800     277.6744   -8779.3796    40.557037   -8819.9366    30394.119 
  158000    333.24714   -8761.2097    48.673975   -8809.8836   -3623.8293 
  158200    372.50741   -8771.0534    54.408317   -8825.4617   -6509.0755 
  158400    298.53512   -8779.4285    43.603947   -8823.0325    1697.9471 
  158600    321.83344    -8762.342    47.006893   -8809.3489    14675.448 
  158800    351.48353   -8771.1891    51.337576   -8822.5267   -25069.187 
  159000    319.62713   -8775.5537    46.684641   -8822.2383    522.67905 
  159200    282.59258   -8785.7964    41.275385   -8827.0718   -9221.0547 
  159400    284.32383   -8781.2161    41.528252   -8822.7444   -8915.6482 
  159600    238.00308   -8773.6718    34.762657   -8808.4344    9824.7244 
  159800    311.80658   -8768.4848    45.542373   -8814.0272   -41251.091 
  160000    345.46441   -8774.0088    50.458426   -8824.4672   -29575.603 
  160200    270.16537   -8784.9613    39.460271   -8824.4216    478.67008 
  160400      270.462   -8774.7812    39.503596   -8814.2848    74935.558 
  160600     304.5477   -8773.2738    44.482143   -8817.7559    14652.691 
  160800    274.43595   -8784.2076    40.084031   -8824.2916     12630.84 
  161000    274.90809   -8763.4636     40.15299   -8803.6165   -25493.283 
  161200    312.03429   -8773.2499    45.575633   -8818.8256    23990.979 
  161400    259.99186   -8780.1519    37.974331   -8818.1263    5175.4335 
  161600    366.00241   -8763.2503      53.4582   -8816.7085   -6947.7903 
  161800    202.55565   -8785.9747    29.585216   -8815.5599   -37648.189 
  162000    329.87029   -8773.3003    48.180753   -8821.4811    7620.2191 
  162200    329.42221   -8763.3413    48.115306   -8811.4566     44726.98 
  162400    276.03504   -8784.4559    40.317593   -8824.7735    1027.5053 
  162600    282.96615   -8776.4185    41.329949   -8817.7485   -1330.9554 
  162800    269.85186    -8773.951    39.414479   -8813.3654     -36526.8 
  163000    300.40727   -8777.0834    43.877393   -8820.9607     7165.685 
  163200    286.09528   -8774.2164    41.786989   -8816.0034   -15545.957 
  163400     458.8364   -8751.0489    67.017503   -8818.0664   -8581.4402 
  163600    301.15815   -8769.0792    43.987067   -8813.0662   -15494.221 
  163800    316.93508   -8780.5792     46.29144   -8826.8706    40937.207 
  164000    291.96543   -8785.8531    42.644382   -8828.4975   -23070.816 
  164200    307.41845   -8768.8598    44.901444   -8813.7613    113.57227 
  164400    258.40581   -8781.6383    37.742673    -8819.381   -18.986504 
  164600    268.76312   -8784.4309    39.255458   -8823.6864    36376.103 
  164800    345.80504   -8766.4763    50.508178   -8816.9844    25317.003 
  165000    269.61651   -8781.2185    39.380104   -8820.5986   -21331.747 
  165200    317.38209    -8779.866     46.35673   -8826.2227     847.3221 
  165400    264.59196    -8768.538    38.646221   -8807.1842   -15843.738 
  165600    360.63322   -8765.0541    52.673977   -8817.7281    3573.1113 
  165800    284.69728   -8775.7198    41.582796   -8817.3026    20439.107 
  166000    236.03378   -8782.9078    34.475021   -8817.3828    15519.843 
  166200     343.8548   -8781.0078    50.223326   -8831.2311    8324.5585 
  166400    313.67166   -8773.3355    45.814786   -8819.1503   -47.214481 
  166600    267.23061   -8781.4441    39.031621   -8820.4757     12733.24 
  166800    321.45152   -8776.9826    46.951111   -8823.9337    -19040.03 
  167000    368.96062   -8762.8737    53.890275    -8816.764   -25115.935 
  167200    290.20022   -8781.6011    42.386555   -8823.9876    46635.547 
  167400    271.27502   -8778.0292    39.622346   -8817.6516   -18876.656 
  167600    344.50289   -8766.7749    50.317986   -8817.0929   -40732.809 
  167800    361.73985   -8770.1912    52.835612   -8823.0268   -34552.725 
  168000    282.65246   -8778.4346    41.284132   -8819.7187    20811.824 
  168200    445.80288   -8760.8448    65.113832   -8825.9586   -20311.815 
  168400    316.87588   -8790.1356    46.282793   -8836.4184    9240.4506 
  168600    278.02699    -8808.941    40.608537   -8849.5495    19790.455 
  168800    254.83839   -8804.6657    37.221616   -8841.8873   -3096.6402 
  169000    311.30023   -8793.1802    45.468415   -8838.6486   -15701.828 
  169200     241.1397   -8811.3501     35.22079   -8846.5709    23033.474 
  169400    319.97755   -8804.9006    46.735822   -8851.6364    -44762.72 
  169600    269.97255   -8796.4949    39.432108    -8835.927    10419.556 
  169800     282.0918    -8812.961    41.202241   -8854.1632    20120.238 
  170000    260.50971   -8810.3913    38.049969   -8848.4412    3409.7302 
  170200    298.49099   -8797.4008    43.597502   -8840.9984    12274.632 
  170400    280.70917   -8801.2223    41.000295   -8842.2226   -16104.788 
  170600    264.76661   -8815.0745     38.67173   -8853.7463   -12495.472 
  170800     290.8594   -8800.9558    42.482834   -8843.4386   -8008.8303 
  171000    318.55007   -8798.8314    46.527325   -8845.3587    15368.268 
  171200    255.07318   -8813.7808     37.25591   -8851.0367    -252.4955 
  171400    284.99239   -8794.5866    41.625901   -8836.2125    14069.377 
  171600    276.52161   -8799.1418    40.388662   -8839.5304   -12722.871 
  171800    237.81747   -8813.3897    34.735546   -8848.1253    1320.0021 
  172000    331.02962   -8793.8613    48.350084   -8842.2114    4171.8821 
  172200    243.80718   -8805.2344    35.610401   -8840.8448   -26915.592 
  172400    333.78633   -8795.1471    48.752729   -8843.8998   -9889.1284 
  172600     260.4518   -8805.9347     38.04151   -8843.9762    19649.556 
  172800    268.92799    -8806.421     39.27954   -8845.7006   -22354.152 
  173000    313.00455   -8792.4818    45.717349   -8838.1992    2032.9445 
  173200    265.94947   -8802.7836    38.844498   -8841.6281    17194.244 
  173400     232.9986   -8819.6058    34.031704   -8853.6375    20527.895 
  173600    278.27682   -8810.1762    40.645027   -8850.8212    32595.362 
  173800    309.29125    -8800.029    45.174984    -8845.204    11557.273 
  174000    355.01111   -8788.1881    51.852814   -8840.0409   -6297.9598 
  174200    245.31471   -8808.8719    35.830592   -8844.7025   -27960.738 
  174400     304.0107   -8798.2182    44.403709   -8842.6219   -12932.032 
  174600    324.17622   -8796.7898    47.349079   -8844.1389    8867.0852 
  174800    344.20949    -8805.481    50.275132   -8855.7561    32808.028 
  175000    204.05916   -8821.0653    29.804818   -8850.8701   -24126.214 
  175200    286.77698   -8803.2706    41.886558   -8845.1571    -19274.76 
  175400    309.69182   -8799.3963    45.233492   -8844.6298    3789.5143 
  175600    308.57015   -8803.7534    45.069661   -8848.8231    -1168.501 
  175800    280.54653   -8803.6166     40.97654   -8844.5931   -33923.864 
  176000    312.09499    -8792.011    45.584498   -8837.5955    9804.1376 
  176200    259.52839   -8810.5869    37.906637   -8848.4935    11473.839 
  176400    265.67349   -8804.9994    38.804188   -8843.8036    21914.417 
  176600    309.39884    -8796.957    45.190699   -8842.1477    -14403.54 
  176800     275.7485   -8801.7086    40.275741   -8841.9843   -10874.466 
  177000    376.05872   -8779.7085    54.927021   -8834.6355   -27982.171 
  177200    317.64856   -8789.4925    46.395651   -8835.8881    10451.616 
  177400    326.05177   -8802.5169    47.623021   -8850.1399    27659.875 
  177600    255.24214   -8810.4957    37.280588   -8847.7763   -11685.573 
  177800    289.68685   -8794.7839    42.311572   -8837.0954   -15494.742 
  178000    296.38091    -8798.737    43.289304   -8842.0263   -3722.7561 
  178200    302.86501   -8812.9226     44.23637   -8857.1589    4027.9141 
  178400    265.08847   -8802.5607    38.718741   -8841.2794    -6934.846 
  178600     337.7474    -8793.925    49.331282   -8843.2563    12548.416 
  178800    273.62755   -8812.9942    39.965957   -8852.9601   -2969.0208 
  179000    274.53056   -8808.2193     40.09785   -8848.3172    27378.766 
  179200    346.66025   -8795.7468     50.63309   -8846.3799   -7093.5166 
  179400    302.73429   -8807.3173    44.217277   -8851.5346    3488.3036 
[...]
  950000    338.86624   -8798.1144    49.494698   -8847.6091   -8418.9603 
  950200    317.88044   -8796.0073    46.429519   -8842.4369   -3022.3042 
  950400    247.45626   -8812.2234    36.143386   -8848.3668    17906.647 
  950600    332.97019   -8800.0869    48.633524   -8848.7205   -23024.496 
  950800    355.69384   -8791.8758    51.952532   -8843.8283    9705.6862 
  951000    263.99315   -8808.4832    38.558758    -8847.042    2871.8959 
  951200    313.73868   -8798.8319    45.824576   -8844.6564    15032.724 
  951400    278.98216   -8797.0662    40.748049   -8837.8142   -22651.351 
  951600    297.80073   -8805.5974    43.496683   -8849.0941   -35655.544 
  951800    343.44617   -8787.1229    50.163642   -8837.2865   -16882.855 
  952000    303.08535   -8793.5209    44.268553   -8837.7894   -21372.656 
  952200    331.44364   -8802.5735    48.410556   -8850.9841   -22822.012 
  952400    273.34761   -8801.8449    39.925067     -8841.77   -11475.162 
  952600    313.80408   -8788.9913    45.834127   -8834.8254    5335.6494 
  952800    268.25435   -8805.5358    39.181147    -8844.717   -13708.348 
  953000    278.00797   -8803.6627    40.605759   -8844.2685    2829.9182 
  953200    315.10981   -8791.8577    46.024842   -8837.8825    11849.019 
  953400    330.23043   -8796.2627    48.233355    -8844.496    9277.7954 
  953600    326.99818   -8807.8422    47.761254   -8855.6034   -3427.2254 
  953800    285.85806   -8802.6326    41.752341   -8844.3849   -11877.366 
  954000    301.66991   -8792.5384    44.061814   -8836.6002   -3466.8432 
  954200    279.23521   -8805.6849    40.785008     -8846.47    25235.455 
  954400    347.12981   -8788.1725    50.701673   -8838.8742   -10757.962 
  954600    293.86768   -8795.0822    42.922223   -8838.0044    -24102.87 
  954800    293.89186   -8804.5596    42.925754   -8847.4853   -34473.645 
  955000    352.52073   -8792.5933    51.489069   -8844.0824    15756.248 
  955200    408.64315   -8773.3192    59.686292   -8833.0055    9726.3303 
  955400    294.48172   -8797.6232    43.011909   -8840.6351   -44886.747 
  955600    272.27651   -8807.5024    39.768624    -8847.271   -806.72943 
  955800    332.35313   -8794.7164    48.543396   -8843.2598    -12784.46 
  956000    295.63564   -8798.0272     43.18045   -8841.2077     18750.51 
  956200    308.74736   -8803.6867    45.095545   -8848.7823    8574.4681 
  956400    269.44171   -8797.9511    39.354573   -8837.3057    26907.735 
  956600    284.98864   -8784.0787    41.625352   -8825.7041    899.17513 
  956800    319.61144   -8802.3123    46.682348   -8848.9947    8478.5977 
  957000    298.46131   -8804.2369    43.593167     -8847.83    26968.295 
  957200    373.00529   -8793.0803    54.481038   -8847.5613   -6080.1662 
  957400    269.55443   -8804.8579    39.371037   -8844.2289   -10869.693 
  957600    265.20028   -8808.5111    38.735072   -8847.2461   -11559.153 
  957800    316.92693   -8800.8542     46.29025   -8847.1444    23018.456 
  958000     312.8263   -8794.8743    45.691313   -8840.5656    22378.419 
  958200    326.22244   -8781.1756    47.647949   -8828.8236   -21519.626 
  958400     311.8983   -8801.2056    45.555769   -8846.7614    -32885.83 
  958600    269.57137   -8801.7325    39.373511    -8841.106   -38382.543 
  958800    296.67999   -8794.1773    43.332988   -8837.5103    28149.434 
  959000    300.72773   -8808.8769      43.9242   -8852.8011   -169.38623 
  959200    307.56166    -8804.442    44.922362   -8849.3644   -2559.7479 
  959400    372.85918     -8792.39    54.459697   -8846.8497    35439.232 
  959600    315.21395   -8807.9169    46.040053    -8853.957    10672.565 
  959800    301.50738   -8802.0481    44.038075   -8846.0862    37661.896 
  960000    282.38903    -8794.316    41.245655   -8835.5616    30437.916 
  960200    290.73637   -8801.0933    42.464864   -8843.5582   -26206.649 
  960400    247.83176   -8807.5086    36.198231   -8843.7068   -14408.511 
  960600    330.53185   -8796.6801     48.27738   -8844.9574    23011.128 
  960800     286.9088   -8798.8006    41.905812   -8840.7064    20837.162 
  961000    233.84155   -8816.0298    34.154824   -8850.1846   -13649.104 
  961200    285.73389   -8804.9538    41.734204    -8846.688   -24774.305 
  961400    317.94346   -8799.8576    46.438723   -8846.2963   -15797.338 
  961600    378.41528   -8782.2394    55.271219   -8837.5106   -1877.7639 
  961800    270.80308   -8801.3795    39.553414   -8840.9329    9205.6982 
  962000    322.11467   -8801.6793    47.047969   -8848.7273    14540.627 
  962200     361.3813   -8788.8403    52.783241   -8841.6235   -19607.546 
  962400    268.40149   -8803.8816    39.202639   -8843.0843   -27151.857 
  962600    313.28728   -8804.3994    45.758644    -8850.158    18427.555 
  962800     376.5473   -8788.9868    54.998382   -8843.9852    15490.348 
  963000    393.52284   -8785.8479    57.477825   -8843.3257    1923.9713 
  963200    264.44164   -8803.9977    38.624264   -8842.6219   -1045.0016 
  963400    303.47369   -8798.0595    44.325274   -8842.3848    5454.4643 
  963600     300.4733   -8788.6341    43.887038   -8832.5211    19866.865 
  963800    320.56222   -8804.7068    46.821219    -8851.528   -108.87226 
  964000    281.41415   -8806.1896    41.103264   -8847.2929    -11491.55 
  964200    313.42191   -8794.7931    45.778308   -8840.5714    42718.063 
  964400    335.83958   -8802.7804    49.052625    -8851.833   -5996.2903 
  964600    268.10639    -8810.714    39.159537   -8849.8736   -16335.319 
  964800    274.53589   -8799.7169    40.098628   -8839.8156   -22022.908 
  965000    251.30338     -8797.96    36.705295   -8834.6653   -14217.457 
  965200    294.29069   -8806.4757    42.984008   -8849.4597   -22063.302 
  965400    237.61598   -8818.5098    34.706117    -8853.216     9085.705 
  965600    323.12043   -8800.3359    47.194871   -8847.5307    29244.887 
  965800    272.37464    -8799.665    39.782956    -8839.448    20896.473 
  966000      267.082   -8808.1623    39.009915   -8847.1722   -5652.8534 
  966200    291.76311   -8800.7704     42.61483   -8843.3852   -12027.067 
  966400    307.22392   -8792.0127    44.873031   -8836.8858   -2887.0327 
  966600    274.98817   -8809.6042    40.164688   -8849.7689   -40331.582 
  966800    277.96182   -8804.4821    40.599018   -8845.0811      5882.45 
  967000    294.86848   -8795.8392      43.0684   -8838.9076   -21076.985 
  967200    387.74507   -8778.3975    56.633926   -8835.0314   -39468.288 
  967400    314.34854    -8801.113    45.913651   -8847.0267   -1137.5465 
  967600    289.41345    -8804.072    42.271639   -8846.3437   -23398.682 
  967800    346.86875   -8786.8541    50.663543   -8837.5176    39334.694 
  968000    274.30551   -8799.4684    40.064979   -8839.5334   -6137.1753 
  968200    285.39387   -8804.1773    41.684541   -8845.8619   -1336.5536 
  968400    294.96407   -8795.3561    43.082362   -8838.4384    22329.866 
  968600    314.35234   -8792.5784    45.914206   -8838.4926   -7971.3513 
  968800     271.3071   -8805.0782    39.627032   -8844.7053   -26508.466 
  969000    388.19395   -8795.1037    56.699489   -8851.8032   -4513.2898 
  969200    382.23822    -8782.077    55.829597   -8837.9066    958.33494 
  969400    338.28881   -8803.1187     49.41036    -8852.529     8351.981 
  969600    280.89728   -8807.4299     41.02777   -8848.4576   -10826.872 
  969800    320.13855   -8793.5101    46.759338   -8840.2694   -51974.682 
  970000    307.79902   -8798.4543    44.957031   -8843.4114   -26865.386 
  970200    302.28077   -8801.4045    44.151037   -8845.5555    2375.0051 
  970400    257.03063   -8813.6978    37.541815   -8851.2396    13305.661 
  970600    339.17906   -8798.7193    49.540389   -8848.2597    12871.798 
  970800     276.6966   -8799.0027     40.41422   -8839.4169   -8093.8537 
  971000     258.5466   -8813.6148    37.763237    -8851.378    22853.886 
  971200    217.95059   -8821.0043    31.833796   -8852.8381    19647.987 
  971400    254.41713   -8802.3689    37.160088    -8839.529   -9565.3627 
  971600    349.88646    -8790.317    51.104309   -8841.4213     20048.85 
  971800    297.09995   -8808.1828    43.394328   -8851.5771   -18231.631 
  972000    301.06479   -8807.1573     43.97343   -8851.1307    5443.8993 
  972200    300.59168   -8801.3221    43.904328   -8845.2264   -23460.927 
  972400    310.31865   -8800.4372    45.325046   -8845.7622   -27532.816 
  972600    371.71831   -8788.3564    54.293062   -8842.6494   -7343.6677 
  972800    286.45658   -8802.9759    41.839761   -8844.8157   -5878.7811 
  973000    353.35235   -8798.1485    51.610536   -8849.7591   -9168.3769 
  973200    367.91179    -8784.816    53.737083   -8838.5531   -7163.0788 
  973400     294.6996   -8804.4537    43.043732   -8847.4974   -7302.3721 
  973600     283.3292   -8800.2243    41.382976   -8841.6072    18352.838 
  973800    328.88146   -8788.1451    48.036325   -8836.1814    11412.565 
  974000      244.779   -8806.6181    35.752346   -8842.3705   -583.01113 
  974200     272.2126   -8800.2345    39.759288   -8839.9937     11517.38 
  974400     313.3066   -8778.7829    45.761466   -8824.5443   -12148.836 
  974600    301.90988   -8798.5254    44.096864   -8842.6223   -5125.1051 
  974800    257.68346   -8807.1676    37.637166   -8844.8048    3163.2978 
  975000    280.39301   -8807.5246    40.954117   -8848.4787   -30075.276 
  975200    320.15527   -8793.5248     46.76178   -8840.2865   -2918.6709 
  975400    271.68969   -8807.2599    39.682912   -8846.9429   -5725.5956 
  975600    301.19488    -8806.345    43.992431   -8850.3374   -16658.619 
  975800    334.54222   -8789.1568    48.863134     -8838.02    28054.055 
  976000    320.60901   -8804.3874    46.828054   -8851.2155    17402.919 
  976200    281.90128   -8809.4207    41.174414   -8850.5951   -4680.0613 
  976400    305.61609   -8789.9308    44.638193    -8834.569    28872.889 
  976600    272.10321   -8805.5256    39.743311   -8845.2689   -3461.0147 
  976800    313.12749   -8800.7053    45.735305   -8846.4406    58372.977 
  977000    414.69682   -8783.5408     60.57049   -8844.1113    30472.616 
  977200      277.984    -8804.917    40.602258   -8845.5193   -20934.965 
  977400    303.98693    -8797.541    44.400238   -8841.9412   -7265.2846 
  977600    316.35047   -8790.3148    46.206052   -8836.5209    28234.843 
  977800    286.39215   -8806.9153    41.830349   -8848.7457   -22722.503 
  978000    293.78047    -8810.957    42.909485   -8853.8665    18764.687 
  978200    322.97204   -8792.6905    47.173197   -8839.8637   -10296.629 
  978400    265.13561   -8806.9729    38.725625   -8845.6985    11498.032 
  978600    271.36349   -8804.5695    39.635268   -8844.2048    14440.431 
  978800    326.10404   -8799.0631    47.630656   -8846.6937    11528.141 
  979000    312.48223   -8789.9072    45.641058   -8835.5483   -1373.2838 
  979200     288.5005   -8795.7534    42.138294   -8837.8916   -41260.945 
  979400    295.21723   -8804.5707    43.119338   -8847.6901    13017.092 
  979600    293.99004   -8801.8831    42.940095   -8844.8232    9205.0642 
  979800     305.8002    -8793.632    44.665084   -8838.2971    14870.513 
  980000    247.46785   -8809.2333    36.145078   -8845.3783   -15707.234 
  980200    231.41564   -8814.8516    33.800497   -8848.6521    1924.8002 
  980400     325.6945   -8791.4618    47.570839   -8839.0326   -599.36154 
  980600    277.17299   -8804.6493    40.483802   -8845.1331    -831.9264 
  980800    273.37825   -8806.9853    39.929544   -8846.9149   -2743.8874 
  981000    364.23051   -8786.3366    53.199396    -8839.536   -13806.599 
  981200    272.33661   -8798.5375    39.777402   -8838.3149    9959.0512 
  981400    253.93084     -8805.14     37.08906    -8842.229   -1559.4981 
  981600    368.18518   -8787.4332    53.777014   -8841.2102   -13195.379 
  981800    311.88318   -8794.9555    45.553562    -8840.509    2655.6825 
  982000    339.59128   -8803.4823    49.600598   -8853.0829   -3569.9998 
  982200    258.75689   -8816.1765    37.793951   -8853.9704    19168.554 
  982400    320.32806   -8805.2309    46.787018   -8852.0179   -7977.0586 
  982600    341.04341   -8792.2391    49.812695   -8842.0518   -16473.597 
  982800    250.47729   -8807.9596    36.584636   -8844.5442   -7879.4812 
  983000     312.0287   -8805.4195    45.574816   -8850.9944   -22154.735 
  983200    294.66238   -8792.2593    43.038297   -8835.2976   -6652.3448 
  983400     407.9358   -8774.4381    59.582978   -8834.0211   -27458.742 
  983600     337.1968   -8799.6613    49.250861   -8848.9122    17149.843 
  983800    298.11106   -8806.5102    43.542009   -8850.0522    2009.4189 
  984000    274.87767   -8791.3927    40.148547   -8831.5412   -12826.633 
  984200    304.46688   -8795.8153    44.470338   -8840.2856   -17861.238 
  984400    267.55943   -8802.9116    39.079648   -8841.9913   -7202.5751 
  984600     338.7044   -8790.1971    49.471061   -8839.6682   -11399.853 
  984800    280.78236   -8810.7248    41.010985   -8851.7358   -23817.474 
  985000    309.49966   -8802.1574    45.205425   -8847.3629   -5434.2329 
  985200    337.59363   -8789.3863    49.308822   -8838.6951    -8460.297 
  985400    299.58219   -8797.0789    43.756882   -8840.8358    9670.3859 
  985600      264.793   -8805.9711    38.675584   -8844.6467    8191.5049 
  985800    279.26246   -8811.9138    40.788989   -8852.7028   -16294.842 
  986000    315.20682   -8796.4708    46.039011   -8842.5098    28044.512 
  986200    297.14441   -8805.1266    43.400821   -8848.5274    41306.175 
  986400    270.57766   -8814.8407    39.520489   -8854.3612    6034.1036 
  986600    302.69406   -8797.3622    44.211401   -8841.5736    4565.7204 
  986800    305.24146    -8791.521    44.583474   -8836.1044   -3577.9778 
  987000    264.33067   -8810.3076    38.608057   -8848.9157   -2608.5525 
  987200    307.78614   -8804.0711    44.955148   -8849.0263    47655.037 
  987400    360.83648   -8791.9224    52.703665   -8844.6261    23259.641 
  987600    299.89233   -8802.9083    43.802181   -8846.7105      1720.44 
  987800    311.82445   -8796.8035    45.544983   -8842.3485   -17302.351 
  988000    373.30516   -8786.0189    54.524836   -8840.5437    26098.239 
  988200    297.49647   -8803.5265    43.452243   -8846.9787    4580.7678 
  988400    266.03771   -8798.1806    38.857386   -8837.0379   -18554.263 
  988600    322.89373   -8795.9289    47.161759   -8843.0906    1530.9332 
  988800    282.86008   -8809.7821    41.314456   -8851.0965   -6683.0313 
  989000     353.1113   -8791.7467    51.575327    -8843.322    14702.965 
  989200    332.77778    -8790.688     48.60542   -8839.2934   -14775.158 
  989400    336.22671   -8803.5621     49.10917   -8852.6712   -378.74453 
  989600    302.74032   -8803.3141    44.218158   -8847.5322   -9383.1765 
  989800    252.56388    -8803.228    36.889402   -8840.1174   -20298.645 
  990000    334.73347   -8801.9457    48.891067   -8850.8368   -29912.179 
  990200    306.80901   -8797.6858     44.81243   -8842.4982    8805.2799 
  990400    352.31031     -8790.49    51.458335   -8841.9483    2433.3273 
  990600    256.03785   -8806.8746    37.396809   -8844.2715    6917.7583 
  990800    298.34832   -8803.3878    43.576664   -8846.9645   -14995.008 
  991000    257.49818   -8808.5477    37.610105   -8846.1578   -9666.7965 
  991200    320.23691   -8795.7228    46.773705   -8842.4965    -12416.17 
  991400    261.06746   -8807.8323    38.131433   -8845.9638    6470.6429 
  991600    273.01561   -8804.4933    39.876576   -8844.3699    9767.3467 
  991800    361.81805   -8790.4706    52.847033   -8843.3177   -34096.408 
  992000    266.13492   -8806.7904    38.871585    -8845.662   -10023.946 
  992200    300.09314   -8805.9162    43.831512   -8849.7477    23318.964 
  992400    303.38805   -8803.0977    44.312765   -8847.4105    6871.5049 
  992600    387.68037   -8780.9939    56.624476   -8837.6184   -9369.2337 
  992800    333.10801   -8796.6011    48.653653   -8845.2547   -37768.516 
  993000    287.71795   -8801.1708    42.023996   -8843.1948    12361.393 
  993200    278.34968   -8787.0372    40.655669   -8827.6929   -10509.008 
  993400    331.77497   -8800.6776    48.458951   -8849.1366    17520.572 
  993600    236.27033   -8804.3639    34.509571   -8838.8735    21444.523 
  993800    300.65108   -8796.4738    43.913005   -8840.3868   -8366.5175 
  994000    317.23401   -8788.3782    46.335103   -8834.7133    30099.771 
  994200    306.08993   -8807.0565      44.7074   -8851.7639    15774.539 
  994400     289.0187   -8799.9748    42.213982   -8842.1888   -28152.328 
  994600    310.94975   -8787.9119    45.417224   -8833.3291    18556.614 
  994800    286.04226   -8804.8188    41.779244    -8846.598    9618.4645 
  995000    291.39473   -8802.5908    42.561025   -8845.1518   -11092.327 
  995200    301.68953   -8789.2383    44.064681    -8833.303   -26955.882 
  995400    271.48494   -8806.6937    39.653007   -8846.3467   -9214.1257 
  995600    294.38799   -8801.1563     42.99822   -8844.1546    4392.2742 
  995800     334.5268   -8791.5172    48.860882   -8840.3781   -11234.577 
  996000    342.67954   -8795.5804    50.051668   -8845.6321    12119.705 
  996200    263.27057   -8810.3587    38.453219   -8848.8119    -2140.447 
  996400    352.66676   -8794.8782    51.510399   -8846.3886    4675.1075 
  996600    267.34002   -8795.8753    39.047601   -8834.9229    29186.124 
  996800    255.88825    -8803.419    37.374959   -8840.7939   -13403.836 
  997000    331.84183   -8801.0212    48.468716   -8849.4899    11854.926 
  997200    324.30972    -8792.752    47.368577   -8840.1206   -7946.5114 
  997400    280.27532   -8806.5707    40.936927   -8847.5077    14881.256 
  997600    262.82161   -8807.8379    38.387644   -8846.2256    -3855.114 
  997800    354.81189   -8798.5248    51.823715   -8850.3486     -24702.8 
  998000    274.88678   -8805.8786    40.149878   -8846.0285    44958.132 
  998200    294.68416   -8804.9734    43.041478   -8848.0149      15636.5 
  998400    241.60844   -8791.5475    35.289254   -8826.8368    16237.929 
  998600    307.09847   -8808.5231    44.854707   -8853.3779    17544.626 
  998800    336.94676     -8804.25    49.214341   -8853.4643    2650.0781 
  999000    328.12763   -8796.6903    47.926221   -8844.6165    1713.5315 
  999200    272.42701   -8812.1946    39.790606   -8851.9852   -34719.659 
  999400    263.94158   -8811.8042    38.551225   -8850.3555   -5984.7683 
  999600    335.81302   -8798.5778    49.048746   -8847.6265    6319.2049 
  999800    313.46913   -8794.1627    45.785205   -8839.9479   -3926.4712 
 1000000    270.09266   -8811.9151    39.449651   -8851.3647   -22292.092 
Loop time of 2334.24 on 8 procs for 1000000 steps with 50 atoms

Performance: 9.254 ns/day, 2.594 hours/ns, 428.405 timesteps/s
99.4% CPU use with 8 MPI tasks x no OpenMP threads

MPI task timing breakdown:
Section |  min time  |  avg time  |  max time  |%varavg| %total
---------------------------------------------------------------
Pair    | 1980.6     | 2008.4     | 2036.9     |  40.6 | 86.04
Neigh   | 0.079934   | 0.080973   | 0.082596   |   0.3 |  0.00
Comm    | 20.832     | 49.27      | 77.175     | 259.8 |  2.11
Output  | 0.086727   | 0.094553   | 0.14659    |   6.4 |  0.00
Modify  | 274.72     | 274.81     | 274.95     |   0.5 | 11.77
Other   |            | 1.585      |            |       |  0.07

Nlocal:    6.25 ave 7 max 6 min
Histogram: 6 0 0 0 0 0 0 0 0 2
Nghost:    587.5 ave 596 max 578 min
Histogram: 1 1 1 0 0 1 0 2 1 1
Neighs:    808.75 ave 909 max 763 min
Histogram: 2 4 0 0 0 0 0 0 1 1

Total # of neighbors = 6470
Ave neighs/atom = 129.4
Neighbor list builds = 120
Dangerous builds = 0

Please see the log.cite file for references relevant to this simulation

Total wall time: 0:39:01
