LAMMPS (3 Mar 2020)
Reading data file ...
  orthogonal box = (0 0 0) to (11 11.002 11)
  2 by 2 by 2 MPI processor grid
  reading atoms ...
  50 atoms
  read_data CPU = 0.0269027 secs
WARNING: Changed valency_val to valency_boc for X (../reaxc_ffield.cpp:315)
WARNING: Using 'neigh_modify every 1 delay 0 check yes' setting during minimization (../min.cpp:190)
Neighbor list info ...
  update every 1 steps, delay 0 steps, check yes
  max neighbors/atom: 2000, page size: 100000
  master list distance cutoff = 12
  ghost atom cutoff = 12
  binsize = 6, bins = 2 2 2
  2 neighbor lists, perpetual/occasional/extra = 2 0 0
  (1) pair reax/c, perpetual
      attributes: half, newton off, ghost
      pair build: half/bin/newtoff/ghost
      stencil: half/ghost/bin/3d/newtoff
      bin: standard
  (2) fix qeq/reax, perpetual, copy from (1)
      attributes: half, newton off, ghost
      pair build: copy
      stencil: none
      bin: none
Setting up cg style minimization ...
  Unit style    : real
  Current step  : 0
Per MPI rank memory allocation (min/avg/max) = 24.91 | 25.14 | 25.43 Mbytes
Step Temp E_pair E_mol TotEng Press 
       0            0   -8631.9636            0   -8631.9636    111628.37 
     111            0   -8839.9828            0   -8839.9828    32743.233 
Loop time of 4.33905 on 8 procs for 111 steps with 50 atoms

98.9% CPU use with 8 MPI tasks x no OpenMP threads

Minimization stats:
  Stopping criterion = energy tolerance
  Energy initial, next-to-last, final = 
        -8631.96360623      -8839.9827165      -8839.9828053
  Force two-norm initial, final = 1139.24 54.3122
  Force max component initial, final = 174.296 13.9899
  Final line search alpha, max atom move = 4.36283e-07 6.10355e-06
  Iterations, force evaluations = 111 851

MPI task timing breakdown:
Section |  min time  |  avg time  |  max time  |%varavg| %total
---------------------------------------------------------------
Pair    | 3.6104     | 3.6432     | 3.7132     |   1.9 | 83.96
Neigh   | 0          | 0          | 0          |   0.0 |  0.00
Comm    | 0.048657   | 0.11835    | 0.15119    |  10.7 |  2.73
Output  | 0.00035965 | 0.00046664 | 0.00080898 |   0.0 |  0.01
Modify  | 0.56744    | 0.56815    | 0.56881    |   0.1 | 13.09
Other   |            | 0.008898   |            |       |  0.21

Nlocal:    6.25 ave 8 max 6 min
Histogram: 7 0 0 0 0 0 0 0 0 1
Nghost:    963.25 ave 980 max 950 min
Histogram: 2 0 0 0 4 0 0 0 0 2
Neighs:    1763.38 ave 2243 max 1682 min
Histogram: 7 0 0 0 0 0 0 0 0 1

Total # of neighbors = 14107
Ave neighs/atom = 282.14
Neighbor list builds = 0
Dangerous builds = 0
WARNING: Using 'neigh_modify every 1 delay 0 check yes' setting during minimization (../min.cpp:190)
Setting up cg style minimization ...
  Unit style    : real
  Current step  : 111
Per MPI rank memory allocation (min/avg/max) = 24.91 | 25.14 | 25.43 Mbytes
Step Temp E_pair E_mol TotEng Press 
     111            0   -8839.9828            0   -8839.9828    32743.241 
     115            0   -8839.9837            0   -8839.9837    32742.938 
Loop time of 0.360886 on 8 procs for 4 steps with 50 atoms

99.0% CPU use with 8 MPI tasks x no OpenMP threads

Minimization stats:
  Stopping criterion = energy tolerance
  Energy initial, next-to-last, final = 
        -8839.98280327     -8839.98371856     -8839.98374846
  Force two-norm initial, final = 54.3122 56.0557
  Force max component initial, final = 13.9899 13.726
  Final line search alpha, max atom move = 7.85178e-08 1.07774e-06
  Iterations, force evaluations = 4 74

MPI task timing breakdown:
Section |  min time  |  avg time  |  max time  |%varavg| %total
---------------------------------------------------------------
Pair    | 0.31124    | 0.31529    | 0.32039    |   0.5 | 87.37
Neigh   | 0          | 0          | 0          |   0.0 |  0.00
Comm    | 0.0040164  | 0.009088   | 0.013167   |   2.9 |  2.52
Output  | 0          | 0          | 0          |   0.0 |  0.00
Modify  | 0.035686   | 0.035734   | 0.03578    |   0.0 |  9.90
Other   |            | 0.000771   |            |       |  0.21

Nlocal:    6.25 ave 8 max 6 min
Histogram: 7 0 0 0 0 0 0 0 0 1
Nghost:    962.5 ave 971 max 956 min
Histogram: 2 0 0 0 4 0 0 0 1 1
Neighs:    1761.12 ave 2224 max 1680 min
Histogram: 7 0 0 0 0 0 0 0 0 1

Total # of neighbors = 14089
Ave neighs/atom = 281.78
Neighbor list builds = 0
Dangerous builds = 0
WARNING: Using 'neigh_modify every 1 delay 0 check yes' setting during minimization (../min.cpp:190)
Setting up cg style minimization ...
  Unit style    : real
  Current step  : 115
WARNING: Energy due to 3 extra global DOFs will be included in minimizer energies
Per MPI rank memory allocation (min/avg/max) = 24.91 | 25.14 | 25.43 Mbytes
Step Temp E_pair E_mol TotEng Press Volume 
     115            0   -8839.9837            0   -8839.9837     32742.95     1331.242 
     287            0   -8843.8315            0   -8843.8315   -77.395627    1344.8318 
Loop time of 1.76098 on 8 procs for 172 steps with 50 atoms

98.9% CPU use with 8 MPI tasks x no OpenMP threads

Minimization stats:
  Stopping criterion = energy tolerance
  Energy initial, next-to-last, final = 
        -8839.98374533     -8843.83139184       -8843.831458
  Force two-norm initial, final = 1102.94 46.497
  Force max component initial, final = 661.572 11.0764
  Final line search alpha, max atom move = 1.31604e-07 1.45769e-06
  Iterations, force evaluations = 172 373

MPI task timing breakdown:
Section |  min time  |  avg time  |  max time  |%varavg| %total
---------------------------------------------------------------
Pair    | 1.5548     | 1.5718     | 1.5881     |   0.8 | 89.26
Neigh   | 0          | 0          | 0          |   0.0 |  0.00
Comm    | 0.022095   | 0.038231   | 0.055259   |   5.5 |  2.17
Output  | 0.00049551 | 0.00067701 | 0.0011518  |   0.0 |  0.04
Modify  | 0.13918    | 0.13925    | 0.1393     |   0.0 |  7.91
Other   |            | 0.01099    |            |       |  0.62

Nlocal:    6.25 ave 8 max 6 min
Histogram: 7 0 0 0 0 0 0 0 0 1
Nghost:    962.5 ave 971 max 956 min
Histogram: 2 0 0 0 4 0 0 0 1 1
Neighs:    1761.12 ave 2224 max 1680 min
Histogram: 7 0 0 0 0 0 0 0 0 1

Total # of neighbors = 14089
Ave neighs/atom = 281.78
Neighbor list builds = 0
Dangerous builds = 0
WARNING: Using 'neigh_modify every 1 delay 0 check yes' setting during minimization (../min.cpp:190)
Setting up cg style minimization ...
  Unit style    : real
  Current step  : 287
Per MPI rank memory allocation (min/avg/max) = 24.91 | 25.14 | 25.43 Mbytes
Step Temp E_pair E_mol TotEng Press 
     287            0   -8843.8315            0   -8843.8315   -77.394888 
     289            0   -8843.8316            0   -8843.8316   -76.359132 
Loop time of 0.178462 on 8 procs for 2 steps with 50 atoms

98.9% CPU use with 8 MPI tasks x no OpenMP threads

Minimization stats:
  Stopping criterion = energy tolerance
  Energy initial, next-to-last, final = 
        -8843.83145814     -8843.83154875     -8843.83158934
  Force two-norm initial, final = 46.4109 5285.63
  Force max component initial, final = 11.0764 3482.81
  Final line search alpha, max atom move = 1.09329e-07 0.000380771
  Iterations, force evaluations = 2 38

MPI task timing breakdown:
Section |  min time  |  avg time  |  max time  |%varavg| %total
---------------------------------------------------------------
Pair    | 0.15338    | 0.1548     | 0.15844    |   0.4 | 86.74
Neigh   | 0          | 0          | 0          |   0.0 |  0.00
Comm    | 0.0019063  | 0.0055352  | 0.0069706  |   2.2 |  3.10
Output  | 0          | 0          | 0          |   0.0 |  0.00
Modify  | 0.017646   | 0.017674   | 0.017698   |   0.0 |  9.90
Other   |            | 0.0004569  |            |       |  0.26

Nlocal:    6.25 ave 8 max 6 min
Histogram: 7 0 0 0 0 0 0 0 0 1
Nghost:    931 ave 944 max 920 min
Histogram: 2 0 2 0 0 0 2 0 0 2
Neighs:    1752.12 ave 2202 max 1673 min
Histogram: 7 0 0 0 0 0 0 0 0 1

Total # of neighbors = 14017
Ave neighs/atom = 280.34
Neighbor list builds = 0
Dangerous builds = 0
WARNING: Using 'neigh_modify every 1 delay 0 check yes' setting during minimization (../min.cpp:190)
Setting up cg style minimization ...
  Unit style    : real
  Current step  : 289
WARNING: Energy due to 3 extra global DOFs will be included in minimizer energies
Per MPI rank memory allocation (min/avg/max) = 24.91 | 25.14 | 25.43 Mbytes
Step Temp E_pair E_mol TotEng Press Volume 
     289            0   -8843.8316            0   -8843.8316   -76.370307    1344.8318 
     290            0   -8843.8316            0   -8843.8316   -76.370099    1344.8318 
Loop time of 0.176974 on 8 procs for 1 steps with 50 atoms

98.7% CPU use with 8 MPI tasks x no OpenMP threads

Minimization stats:
  Stopping criterion = energy tolerance
  Energy initial, next-to-last, final = 
        -8843.83159239     -8843.83159239     -8843.83158956
  Force two-norm initial, final = 5285.63 39.5011
  Force max component initial, final = 3482.81 9.68119
  Final line search alpha, max atom move = 2.13925e-13 2.07104e-12
  Iterations, force evaluations = 1 38

MPI task timing breakdown:
Section |  min time  |  avg time  |  max time  |%varavg| %total
---------------------------------------------------------------
Pair    | 0.15471    | 0.15589    | 0.15932    |   0.4 | 88.09
Neigh   | 0          | 0          | 0          |   0.0 |  0.00
Comm    | 0.0023157  | 0.0057323  | 0.0068907  |   2.0 |  3.24
Output  | 0          | 0          | 0          |   0.0 |  0.00
Modify  | 0.014315   | 0.014327   | 0.014336   |   0.0 |  8.10
Other   |            | 0.001027   |            |       |  0.58

Nlocal:    6.25 ave 8 max 6 min
Histogram: 7 0 0 0 0 0 0 0 0 1
Nghost:    931 ave 944 max 920 min
Histogram: 2 0 2 0 0 0 2 0 0 2
Neighs:    1752.12 ave 2202 max 1673 min
Histogram: 7 0 0 0 0 0 0 0 0 1

Total # of neighbors = 14017
Ave neighs/atom = 280.34
Neighbor list builds = 0
Dangerous builds = 0
WARNING: Using 'neigh_modify every 1 delay 0 check yes' setting during minimization (../min.cpp:190)
Setting up cg style minimization ...
  Unit style    : real
  Current step  : 290
Per MPI rank memory allocation (min/avg/max) = 24.91 | 25.14 | 25.43 Mbytes
Step Temp E_pair E_mol TotEng Press 
     290            0   -8843.8316            0   -8843.8316    -76.37736 
     292            0   -8843.8317            0   -8843.8317   -75.855074 
Loop time of 0.19273 on 8 procs for 2 steps with 50 atoms

98.7% CPU use with 8 MPI tasks x no OpenMP threads

Minimization stats:
  Stopping criterion = energy tolerance
  Energy initial, next-to-last, final = 
        -8843.83159141     -8843.83168924     -8843.83171307
  Force two-norm initial, final = 39.4017 43.24
  Force max component initial, final = 9.68119 11.6211
  Final line search alpha, max atom move = 1.85812e-08 2.15934e-07
  Iterations, force evaluations = 2 41

MPI task timing breakdown:
Section |  min time  |  avg time  |  max time  |%varavg| %total
---------------------------------------------------------------
Pair    | 0.16626    | 0.16776    | 0.17163    |   0.4 | 87.04
Neigh   | 0          | 0          | 0          |   0.0 |  0.00
Comm    | 0.0020067  | 0.005872   | 0.0074035  |   2.3 |  3.05
Output  | 0          | 0          | 0          |   0.0 |  0.00
Modify  | 0.018581   | 0.018627   | 0.018658   |   0.0 |  9.66
Other   |            | 0.0004756  |            |       |  0.25

Nlocal:    6.25 ave 8 max 6 min
Histogram: 7 0 0 0 0 0 0 0 0 1
Nghost:    931 ave 944 max 920 min
Histogram: 2 0 2 0 0 0 2 0 0 2
Neighs:    1752.12 ave 2202 max 1673 min
Histogram: 7 0 0 0 0 0 0 0 0 1

Total # of neighbors = 14017
Ave neighs/atom = 280.34
Neighbor list builds = 0
Dangerous builds = 0
Setting up Verlet run ...
  Unit style    : real
  Current step  : 0
  Time step     : 0.25
Per MPI rank memory allocation (min/avg/max) = 23.78 | 24.02 | 24.3 Mbytes
Step Temp TotEng KinEng PotEng Press 
       0          300   -8800.0138    43.817908   -8843.8317    1413.5623 
     200     208.6931   -8781.3757     30.48165   -8811.8573    22898.581 
     400     342.0292   -8754.5926     49.95668   -8804.5493   -12062.757 
     600    316.56341   -8763.1896    46.237155   -8809.4268    8633.8594 
     800    278.85094   -8768.3811    40.728883     -8809.11   -23993.554 
    1000    359.63293   -8756.2524    52.527875   -8808.7802   -45403.177 
    1200    284.36478   -8761.4163    41.534233   -8802.9506    38726.576 
    1400    275.92498   -8755.4333    40.301518   -8795.7349   -27610.403 
    1600    301.37988   -8763.4153    44.019452   -8807.4348   -18535.966 
    1800     257.1605    -8763.918    37.560783   -8801.4788    32406.967 
    2000    287.66988   -8757.5574    42.016974   -8799.5744    1889.2013 
    2200    240.09215   -8774.5382    35.067786    -8809.606   -33114.801 
    2400    288.94917   -8765.7683    42.203826   -8807.9721   -21906.911 
    2600    273.31893   -8757.8173    39.920878   -8797.7382    21051.761 
    2800    279.42658   -8762.1246     40.81296   -8802.9376   -9206.9664 
    3000    292.39669   -8763.8181    42.707371   -8806.5254   -35816.428 
    3200    295.37518   -8752.1965    43.142407   -8795.3389    78669.408 
    3400     341.8394    -8752.741    49.928958   -8802.6699   -146.48394 
    3600    280.50974   -8769.8615    40.971167   -8810.8327    18421.023 
    3800    314.63926   -8756.0591    45.956113   -8802.0152    40330.801 
    4000     316.2635   -8757.8364     46.19335   -8804.0298   -6037.4816 
    4200    296.50826   -8767.7784    43.307905   -8811.0863    1200.5016 
    4400     243.9625   -8772.3101    35.633088   -8807.9432   -9329.6215 
    4600    298.61102   -8760.2728    43.615034   -8803.8878    33974.596 
    4800    309.12559   -8753.8307    45.150789   -8798.9815    57549.355 
    5000    295.03481   -8750.3557    43.092694   -8793.4484    15930.599 
    5200    289.15555   -8766.5699    42.233971   -8808.8039   -43176.903 
    5400    263.57688   -8754.7418    38.497958   -8793.2397    22696.542 
    5600    381.36767   -8734.4159    55.702444   -8790.1184    12346.428 
    5800    294.26996   -8761.2718    42.980979   -8804.2528   -47757.886 
    6000    276.51402   -8759.9105    40.387553    -8800.298    1863.5699 
    6200    357.27286   -8748.3119    52.183164   -8800.4951   -14728.948 
    6400    311.68643   -8763.3136    45.524824   -8808.8385   -14597.986 
    6600    355.73965   -8755.4651    51.959224   -8807.4244    6606.5243 
    6800     305.7628   -8749.3058     44.65962   -8793.9654      -7148.3 
    7000    314.40333   -8765.5844    45.921653    -8811.506     12172.75 
    7200    321.12552   -8755.7471    46.903495   -8802.6506     18218.57 
    7400    290.22285   -8751.1882    42.389861   -8793.5781   -10700.004 
    7600    326.96177   -8757.2891    47.755936    -8805.045    15316.657 
    7800    281.96465    -8765.186     41.18367   -8806.3697    13541.181 
    8000    331.26372   -8750.5289    48.384277   -8798.9131   -11785.246 
    8200    294.20117   -8757.1285    42.970932   -8800.0995    19005.025 
    8400    274.80241    -8762.618    40.137556   -8802.7556   -24185.783 
    8600     285.6346   -8751.4359    41.719702   -8793.1556   -2399.4746 
    8800    313.44311   -8753.1849    45.781404   -8798.9663   -9137.3625 
    9000    281.82343   -8758.7769    41.163043     -8799.94    10418.574 
    9200    358.27969   -8753.5028    52.330222    -8805.833   -767.16947 
    9400    332.29171   -8743.8826    48.534425   -8792.4171   -38787.551 
    9600    303.21443   -8762.9002    44.287406   -8807.1876    6352.1922 
    9800     287.3499   -8760.6732    41.970239   -8802.6434     18302.22 
   10000    337.17575   -8746.0679    49.247787   -8795.3157    36714.861 
   10200    252.47166   -8766.4072    36.875934   -8803.2832    34331.953 
   10400     358.1618   -8751.0718    52.313002   -8803.3848   -16811.004 
   10600    294.83201   -8759.1832    43.063073   -8802.2463   -58954.341 
   10800     222.1489   -8776.3141       32.447   -8808.7611   -24037.692 
   11000    330.65512   -8761.5325    48.295385   -8809.8279     13455.28 
   11200    298.88075   -8752.2668    43.654431   -8795.9212   -41854.814 
   11400    308.81693   -8754.0668    45.105706   -8799.1725   -11694.296 
   11600    280.50969   -8764.8939    40.971159    -8805.865   -6952.4855 
   11800    297.60738   -8749.8732    43.468442   -8793.3416    18903.983 
   12000    386.79483   -8757.2544    56.495133   -8813.7495   -11774.551 
   12200    301.28508    -8784.751    44.005606   -8828.7566    4356.9195 
   12400     303.9111   -8791.7498    44.389162   -8836.1389   -13619.801 
   12600     346.4858   -8776.5189     50.60761   -8827.1265    35127.325 
   12800    250.55155   -8791.8609    36.595483   -8828.4564    22708.298 
   13000    276.14072   -8793.3978    40.333029   -8833.7308   -926.72937 
   13200    303.58677   -8778.2251     44.34179   -8822.5669    16215.293 
   13400    277.16284   -8784.1021    40.482319   -8824.5844     31722.51 
   13600    269.76669   -8787.6636     39.40204   -8827.0656    17394.474 
   13800    359.95828   -8765.9346    52.575396     -8818.51    17273.746 
   14000     326.7783    -8782.357    47.729138   -8830.0861    2827.3207 
   14200    316.17802   -8791.3429    46.180865   -8837.5238   -31314.935 
   14400     264.5274   -8794.1623     38.63679   -8832.7991     -36372.1 
   14600     331.7525   -8778.5639    48.455668   -8827.0196   -13414.115 
   14800    287.49711   -8791.9231    41.991739   -8833.9149   -25650.178 
   15000    321.60155   -8785.8129    46.973023   -8832.7859   -332.96367 
   15200    316.48599   -8774.0001    46.225847   -8820.2259   -36635.617 
   15400    275.13326   -8792.3355    40.185879   -8832.5214    426.56665 
   15600    260.55726   -8787.6195    38.056914   -8825.6764     15760.76 
   15800    330.28291   -8772.9912     48.24102   -8821.2322    66486.915 
   16000    299.39888   -8784.1815    43.730108   -8827.9116    29152.902 
   16200    321.16859   -8788.8824    46.909785   -8835.7922     15229.55 
   16400    260.44786   -8802.4085    38.040934   -8840.4494    3279.0028 
   16600     302.7086   -8788.3291    44.213526   -8832.5427   -36535.943 
   16800    248.83203   -8793.2045     36.34433   -8829.5488    11048.003 
   17000    294.32692   -8789.4854      42.9893   -8832.4747   -13782.537 
   17200    340.00089   -8778.3093    49.660426   -8827.9697   -23291.219 
   17400    264.39072   -8796.4743    38.616827   -8835.0912    266.13288 
   17600    275.53933   -8791.5819     40.24519   -8831.8271    35086.173 
   17800    302.51328   -8781.0055    44.184997   -8825.1905   -26884.215 
   18000    371.66177    -8764.947    54.284804   -8819.2318    11035.293 
   18200    327.23695   -8784.4212    47.796128   -8832.2173   -43916.018 
   18400    241.01821   -8794.0997    35.203045   -8829.3027   -9833.1041 
   18600    317.10913    -8775.119    46.316862   -8821.4359    39324.153 
   18800    295.72196   -8786.1635    43.193058   -8829.3565    14256.272 
   19000    318.40843   -8787.2854    46.506638    -8833.792    20126.063 
   19200    358.57887   -8773.9103    52.373919   -8826.2842   -33227.381 
   19400    304.08268   -8784.8149    44.414223   -8829.2292      11473.4 
   19600    283.76932   -8792.9201    41.447259   -8834.3673    50599.374 
   19800    316.84796     -8777.96    46.278715   -8824.2387   -12846.359 
   20000    317.77284   -8781.1535    46.413804   -8827.5673   -35892.795 
   20200    257.03571   -8788.9933    37.542557   -8826.5359    6924.5299 
   20400    349.02347    -8780.205     50.97826   -8831.1833   -26573.334 
   20600    304.53607   -8783.6457    44.480444   -8828.1261    17113.895 
   20800    238.47605   -8798.4764    34.831738   -8833.3082   -34244.401 
   21000    278.94721   -8784.7474    40.742943   -8825.4903   -16941.978 
   21200    288.54475   -8787.9566    42.144757   -8830.1014    8095.1581 
   21400    335.93843   -8785.7792    49.067063   -8834.8463   -4748.4831 
   21600    304.79749    -8778.593    44.518627   -8823.1117    4499.5907 
   21800     288.8321   -8792.9216    42.186728   -8835.1083    10966.387 
   22000    288.11332   -8788.5236    42.081744   -8830.6054    34553.401 
   22200     267.4649   -8783.6601    39.065842   -8822.7259     11352.25 
   22400    270.52218   -8788.7995    39.512387   -8828.3119    18131.963 
   22600    216.93873    -8803.604    31.686005     -8835.29    9958.8296 
   22800    275.53532   -8785.5526    40.244604   -8825.7972   -27654.548 
   23000    345.23662   -8774.8013    50.425155   -8825.2265   -36565.616 
   23200    254.60452   -8795.3176    37.187458   -8832.5051    28393.053 
   23400    263.53603   -8786.5494    38.491992   -8825.0414   -6797.3125 
   23600    273.60481   -8781.9719    39.962635   -8821.9346    13279.361 
   23800     266.9503    -8800.567    38.990678   -8839.5577   -15980.714 
   24000     327.6964   -8786.9198    47.863235    -8834.783   -16377.037 
   24200    344.49081   -8779.1258    50.316221    -8829.442    313.79543 
   24400    231.30906   -8795.9742     33.78493   -8829.7591    10985.299 
   24600    314.80965   -8788.6088       45.981   -8834.5898      19891.5 
   24800    324.10671   -8779.7159    47.338926   -8827.0549     6614.814 
   25000    266.60638   -8795.7425    38.940446   -8834.6829     8532.575 
   25200    335.62665   -8786.6212    49.021525   -8835.6428   -17989.518 
   25400    312.81162   -8778.3417    45.689169   -8824.0308    -3520.632 
   25600     277.6741   -8787.0481    40.556994   -8827.6051   -30369.091 
   25800    311.01046   -8789.0064    45.426092   -8834.4325   -32311.759 
   26000    272.82536   -8787.4987    39.848788   -8827.3475   -6553.6439 
   26200    264.78266   -8786.6367    38.674073   -8825.3108    57363.286 
   26400    241.38643   -8800.8309    35.256828   -8836.0877   -13540.942 
   26600    281.02634     -8781.94     41.04662   -8822.9867    36223.081 
   26800    342.31851   -8781.9978    49.998937   -8831.9968    10634.566 
   27000    276.41234   -8800.8824    40.372701   -8841.2551    5993.9879 
   27200    292.05294    -8793.196    42.657163   -8835.8532     21167.29 
   27400    293.88312   -8785.0921    42.924478   -8828.0166   -21203.436 
   27600    359.96844   -8775.4406     52.57688   -8828.0175    -19449.63 
   27800    300.50969   -8785.4957    43.892353    -8829.388   -23990.956 
   28000    300.97852   -8787.6407    43.960831   -8831.6016    11121.963 
   28200    325.87666   -8791.2703    47.597445   -8838.8678   -13637.626 
   28400    308.88174   -8793.2215    45.115173   -8838.3367    20917.066 
   28600    327.68252   -8783.9338    47.861208    -8831.795    7633.2597 
   28800    263.29497   -8791.0503    38.456782   -8829.5071   -9116.2305 
   29000    275.19892   -8796.5332     40.19547   -8836.7286    -2728.228 
   29200    290.24498   -8780.9304    42.393093   -8823.3235     46411.52 
   29400    320.20334   -8780.3285    46.768802   -8827.0973    8980.7407 
   29600    275.44493   -8794.8798    40.231402   -8835.1112   -23977.943 
   29800    280.09433   -8788.9313    40.910492   -8829.8418   -19497.468 
   30000    309.01935    -8780.776    45.135271   -8825.9112    19280.677 
   30200    260.90056   -8795.1549    38.107056   -8833.2619    35425.754 
   30400    274.33221   -8796.4904    40.068878   -8836.5592   -34532.901 
   30600    306.06779   -8782.0316    44.704167   -8826.7358   -38693.175 
   30800    298.51921   -8785.9876    43.601625   -8829.5892   -745.55825 
   31000    228.13661   -8798.1159    33.321564   -8831.4374   -13187.234 
   31200    295.88355   -8780.4956     43.21666   -8823.7123    48477.426 
   31400    289.54748    -8787.538    42.291216   -8829.8292    36350.818 
   31600     277.6941   -8790.0179    40.559916   -8830.5778    11216.225 
   31800    346.37951   -8772.6694    50.592085   -8823.2615     16924.07 
   32000    335.13902   -8785.1562    48.950302   -8834.1065    4281.2838 
   32200    322.35602   -8790.6604    47.083221   -8837.7436   -38849.805 
   32400     352.3006   -8785.1329    51.456917   -8836.5898   -9246.1175 
   32600    313.56052   -8787.1024    45.798553    -8832.901   -10832.445 
   32800    273.93023   -8800.7947    40.010165   -8840.8049    14452.977 
   33000    247.07854   -8788.4883    36.088216   -8824.5765   -11017.074 
   33200     302.0653   -8781.3848    44.119565   -8825.5044   -19786.329 
   33400    349.96869   -8772.8945     51.11632   -8824.0108    -20754.48 
   33600     276.8051   -8790.7665    40.430067   -8831.1966    5450.6538 
   33800    297.31722   -8789.0222    43.426062   -8832.4482   -15610.614 
   34000    292.68977   -8785.1575    42.750178   -8827.9077    2234.4017 
   34200    322.24145   -8782.3684    47.066487   -8829.4348   -32258.623 
   34400    281.63363   -8793.4422    41.135321   -8834.5775    9136.8908 
   34600    310.92056   -8786.2782    45.412961   -8831.6911    10115.731 
   34800    358.89638   -8768.5439    52.420295   -8820.9642   -18659.382 
   35000    323.19703   -8784.2576    47.206059   -8831.4637   -54856.224 
   35200    314.75838   -8787.6196    45.973512   -8833.5931    30202.766 
   35400    288.83544   -8789.0675    42.187216   -8831.2547   -5076.8308 
   35600    321.92675   -8775.9824    47.020521    -8823.003   -2438.9189 
   35800     286.0405   -8793.9543    41.778988   -8835.7333    6651.3267 
   36000    289.69202   -8792.6764    42.312327   -8834.9887     -11096.2 
   36200    355.10156    -8782.041    51.866025    -8833.907    18984.949 
   36400    294.80718   -8788.6715    43.059446    -8831.731   -28519.525 
   36600    282.46655   -8795.5258    41.256978   -8836.7827    26247.783 
   36800     340.3592   -8778.7004     49.71276   -8828.4131    39485.992 
   37000    319.65921   -8782.4701    46.689326   -8829.1594   -16104.027 
   37200    303.07399   -8794.4977    44.266893   -8838.7646   -19522.902 
   37400    327.02092   -8786.7667    47.764575   -8834.5313    -20940.27 
   37600    363.78332   -8775.3006     53.13408   -8828.4347   -3906.8481 
   37800    299.17775   -8784.8367     43.69781   -8828.5345    679.67808 
   38000    273.86417    -8788.861    40.000517   -8828.8615   -4273.6037 
   38200    344.89478   -8774.6127    50.375226   -8824.9879   -39469.441 
   38400    271.46088   -8786.4569    39.649493   -8826.1064   -18865.275 
   38600    277.62576   -8785.1297    40.549934   -8825.6796   -28707.475 
   38800    256.80639   -8792.3205    37.509063   -8829.8296   -31858.795 
   39000    255.74763   -8795.2801     37.35442   -8832.6345   -6886.3935 
   39200    296.31741   -8783.8937     43.28003   -8827.1737    65452.843 
   39400    285.98367    -8791.663    41.770687   -8833.4337   -23342.198 
   39600     215.0668   -8805.4559    31.412591   -8836.8685    -31667.91 
   39800    274.90856   -8788.9706     40.15306   -8829.1237    24475.475 
   40000     296.4189   -8783.0045    43.294853   -8826.2994      9698.54 
   40200    356.06618   -8772.0729    52.006917   -8824.0798   -16401.785 
   40400    242.83283   -8790.6354    35.468089   -8826.1035   -8830.3461 
   40600     307.3037   -8785.4138    44.884684   -8830.2985    36683.877 
   40800     301.3206   -8776.1226    44.010795   -8820.1334   -228.39859 
   41000    260.19723   -8794.1561    38.004327   -8832.1605    4803.7086 
   41200    312.53819   -8780.9803    45.649232   -8826.6295   -21621.829 
   41400    278.22714   -8793.3863     40.63777   -8834.0241    46856.774 
   41600     283.9063   -8795.6697    41.467266    -8837.137    -5075.615 
   41800    296.30587   -8782.4685    43.278344   -8825.7469   -20375.762 
   42000    277.64049   -8790.8279    40.552084     -8831.38    23058.849 
   42200    322.99348   -8795.3639    47.176329   -8842.5403    49968.301 
   42400    321.62397    -8782.987    46.976298   -8829.9633    4087.4387 
   42600    321.70104   -8782.7438    46.987555   -8829.7313   -14097.527 
   42800    281.46311   -8782.5531    41.110415   -8823.6635    3420.3471 
   43000    292.35169   -8790.2163    42.700798   -8832.9171    3294.5601 
   43200     306.5076   -8782.7551    44.768405   -8827.5235    13189.296 
   43400    273.94436   -8798.4668     40.01223    -8838.479    17639.973 
   43600    337.93305   -8784.1799    49.358398   -8833.5383   -41533.887 
   43800    339.15479   -8780.7076    49.536844   -8830.2445    22982.504 
   44000    287.29375   -8790.1239    41.962037   -8832.0859   -17754.311 
   44200    334.10972   -8778.3789    48.799962   -8827.1789   -14660.123 
   44400    315.39471   -8778.3252    46.066455   -8824.3917   -2754.4457 
   44600    267.83759   -8787.4276    39.120275   -8826.5478   -17042.702 
   44800    245.82602   -8800.3161    35.905273   -8836.2214    -2458.499 
   45000    285.16125    -8788.917    41.650564   -8830.5676   -21497.731 
   45200    321.08235   -8784.2093     46.89719   -8831.1064    4206.7218 
   45400    288.94826   -8795.1709    42.203694   -8837.3746    21400.221 
   45600    291.26167   -8794.7017    42.541589   -8837.2433    6108.2988 
   45800     367.4475    -8779.519    53.669269   -8833.1882   -2284.5914 
   46000    308.33704   -8790.3724    45.035613    -8835.408     36109.23 
   46200    246.52315   -8804.1647    36.007095   -8840.1718    16377.225 
   46400    302.48793   -8790.9858    44.181293    -8835.167    11676.619 
   46600    374.80856   -8777.9989    54.744422   -8832.7433     16092.35 
   46800    322.00807   -8785.9375    47.032399   -8832.9699   -2986.4906 
   47000    265.24315   -8786.9926    38.741332   -8825.7339   -22927.727 
   47200    388.05159   -8775.0998    56.678696   -8831.7785   -6872.0172 
   47400     273.1536   -8791.2761    39.896731   -8831.1728    42283.728 
   47600    326.55466   -8788.7014    47.696473   -8836.3979    5833.9417 
   47800    280.76377   -8785.1107     41.00827    -8826.119    4861.3901 
   48000    358.74905   -8773.2781    52.398776   -8825.6769   -20478.252 
   48200    306.07657    -8789.057     44.70545   -8833.7625   -14418.466 
   48400    330.83255   -8787.3063    48.321301   -8835.6276    5080.8722 
   48600    291.80586   -8772.6868    42.621074   -8815.3079    18855.898 
   48800    273.59102   -8787.2762     39.96062   -8827.2368   -2440.4944 
   49000    284.16283   -8786.7291    41.504736   -8828.2339   -18593.617 
   49200    353.36995   -8777.1028    51.613106   -8828.7159   -20371.189 
   49400    320.57531   -8793.3437    46.823131   -8840.1668   -14670.611 
   49600    354.85719   -8782.9425    51.830331   -8834.7729    13089.698 
   49800    249.40826   -8795.9658    36.428494   -8832.3943    5950.5618 
   50000    270.97914   -8793.2635     39.57913   -8832.8427   -15365.838 
   50200     257.2709   -8784.7113    37.576908   -8822.2882   -32701.758 
   50400    334.86377   -8780.7308    48.910099   -8829.6409   -8131.1575 
   50600    270.19524   -8793.4153    39.464634   -8832.8799    3987.9452 
   50800    346.88609   -8783.7329    50.666075    -8834.399    413.04965 
   51000    302.52153   -8789.2618    44.186202    -8833.448    6553.0643 
   51200    290.72703   -8801.6461      42.4635   -8844.1096   -11859.932 
   51400    254.08186   -8784.1774    37.111118   -8821.2885    29970.358 
   51600    329.05662   -8780.2585    48.061909   -8828.3204   -11193.894 
   51800    211.88242   -8797.9837    30.947481   -8828.9312   -5282.5576 
   52000    315.12139   -8786.8303    46.026533   -8832.8568   -18072.115 
   52200     262.7833   -8790.9568    38.382047   -8829.3388    9602.0996 
   52400    269.58651   -8799.1844    39.375723   -8838.5601    19836.226 
   52600    284.08014   -8784.8691    41.492658   -8826.3618   -46280.803 
   52800    337.01105   -8783.7294     49.22373   -8832.9532   -28692.599 
   53000    275.32605   -8798.2735    40.214039   -8838.4875    9575.6201 
   53200    318.88119   -8782.8035    46.575688   -8829.3792    46153.961 
   53400    287.41241   -8789.2621    41.979368   -8831.2415   -11998.303 
   53600    313.91602   -8787.3747    45.850477   -8833.2252    -13813.23 
   53800    345.74596   -8784.6052    50.499549   -8835.1047   -34043.917 
   54000    252.62466   -8793.2075     36.89828   -8830.1058   -4255.9442 
   54200    326.43119   -8788.6364     47.67844   -8836.3148    1518.2018 
   54400    293.56571   -8786.1108    42.878117   -8828.9889    41813.302 
   54600    432.47849   -8768.0945    63.167676   -8831.2622   -5915.7182 
   54800    363.88695   -8776.6248    53.149215    -8829.774   -3518.1392 
   55000     309.0176   -8791.3254    45.135016   -8836.4604   -22958.955 
   55200    308.65271   -8784.5119     45.08172   -8829.5936    27961.282 
   55400    285.26507   -8783.6688    41.665728   -8825.3345   -35385.849 
   55600    302.40363   -8787.7954    44.168981   -8831.9644    7520.7732 
   55800     328.1526   -8780.3562    47.929867   -8828.2861    13588.791 
   56000    289.07773   -8794.7019    42.222605   -8836.9245   -58852.836 
   56200    275.70024   -8780.8739    40.268693   -8821.1426   -13273.677 
   56400    263.82494   -8792.3361    38.534189   -8830.8703   -38719.594 
   56600    326.03047   -8792.8275     47.61991   -8840.4475   -34477.255 
   56800    297.98674   -8781.3349    43.523851   -8824.8587     13956.88 
   57000     254.4873   -8798.6746    37.170337   -8835.8449   -64350.735 
   57200    298.66023    -8792.638    43.622221   -8836.2602   -13335.341 
   57400    331.64403   -8783.0237    48.439825   -8831.4636    35920.401 
   57600    287.22185   -8784.2307    41.951535   -8826.1822    51379.523 
   57800    315.40299   -8793.2076    46.067664   -8839.2753    5377.5768 
   58000    317.76922   -8777.6593    46.413274   -8824.0726   -7326.2932 
   58200    332.93549   -8782.8122    48.628456   -8831.4406   -15151.527 
   58400    280.46503   -8793.6474    40.964636    -8834.612    38966.397 
   58600    273.75193    -8784.236    39.984123   -8824.2201    29955.892 
   58800     296.3717   -8781.1664    43.287959   -8824.4544   -20740.311 
   59000    295.13637    -8795.909    43.107527   -8839.0165   -28376.121 
   59200    295.62564   -8782.3038    43.178989   -8825.4828    815.08922 
   59400    335.81891   -8778.6211    49.049607   -8827.6707    18985.531 
   59600    269.38388    -8796.355    39.346126   -8835.7011   -44484.794 
   59800    279.46496   -8784.8859    40.818566   -8825.7045   -10905.562 
   60000    311.03183   -8784.9524    45.429213   -8830.3816    -27068.34 
   60200    284.33019   -8790.9365    41.529181   -8832.4657    7108.3775 
   60400    313.59728   -8785.3434    45.803922   -8831.1473   -481.78546 
   60600    294.02617   -8785.9699    42.945372   -8828.9153    33308.332 
   60800    329.73173    -8785.782    48.160515   -8833.9425     4183.447 
   61000     272.8801   -8789.6154    39.856784   -8829.4722      129.966 
   61200    298.14937   -8787.1722    43.547605   -8830.7198    19824.995 
   61400    348.50387   -8780.0435    50.902368   -8830.9459    20339.382 
   61600     258.7355   -8792.9263    37.790827   -8830.7171   -23124.546 
   61800    274.02663   -8790.3253    40.024245   -8830.3495     14263.05 
   62000    328.55337   -8776.3527    47.988404   -8824.3411    3138.8652 
   62200    271.45387   -8791.7024    39.648468   -8831.3508   -23941.143 
   62400    257.23271   -8792.6578     37.57133   -8830.2292   -16822.521 
   62600    320.75768   -8782.4214    46.849768   -8829.2711    34038.157 
   62800    287.46894   -8798.9986    41.987625   -8840.9862    47457.246 
   63000    234.46614   -8796.7523    34.246052   -8830.9984   -1395.3392 
   63200    335.68282   -8783.0096     49.02973   -8832.0393   -13894.869 
   63400    263.73984   -8791.3363     38.52176   -8829.8581   -35615.327 
   63600    287.23707   -8791.2645    41.953759   -8833.2182   -13794.266 
   63800     281.8609   -8785.3945    41.168517    -8826.563    24144.479 
   64000    266.36103   -8790.9691     38.90461   -8829.8737    -19615.84 
   64200    295.09732   -8794.6309    43.101824   -8837.7328    4369.2545 
   64400    301.88797    -8781.419    44.093663   -8825.5126   -28119.871 
   64600    254.92881   -8797.8549    37.234823   -8835.0897   -29320.494 
   64800    324.92949   -8789.2099    47.459101    -8836.669   -23491.048 
   65000     268.2524   -8783.1646    39.180864   -8822.3454    40790.863 
   65200    280.70474   -8786.9044    40.999648   -8827.9041   -1364.2151 
   65400    223.34487   -8801.5845    32.621684   -8834.2062   -33028.523 
   65600    325.75633   -8788.9855    47.579869   -8836.5654     20474.84 
   65800    282.51724   -8783.2286     41.26438    -8824.493   -18050.837 
   66000    267.02413   -8788.2275    39.001462    -8827.229   -47752.916 
   66200     263.2253   -8793.7393    38.446606   -8832.1859    18512.745 
   66400    372.24911   -8777.1948    54.370591   -8831.5653   -38641.169 
   66600    280.32204   -8783.3045    40.943751   -8824.2482    33641.337 
   66800    252.99445    -8799.058    36.952291   -8836.0103   -6182.8039 
   67000    309.87878   -8788.0486    45.260799   -8833.3094   -623.48438 
   67200    336.72041    -8782.034     49.18128   -8831.2153   -31801.204 
   67400    282.91847   -8800.9365    41.322985   -8842.2594    -10046.51 
   67600    308.59438   -8789.9963    45.073201   -8835.0695    19549.069 
   67800    261.17078   -8787.1143    38.146523   -8825.2608   -28864.302 
   68000    434.96651   -8764.7489    63.531074   -8828.2799    2101.1881 
   68200    346.19175   -8780.3798    50.564661   -8830.9444   -2618.7076 
   68400    248.36577    -8788.641    36.276228   -8824.9172    10477.889 
   68600    304.02402    -8793.184    44.405655   -8837.5897   -10976.503 
   68800    350.57128   -8778.8636    51.204333   -8830.0679    833.16679 
   69000    313.06628   -8789.1187    45.726364   -8834.8451   -35474.886 
   69200    303.83631   -8791.9445    44.378238   -8836.3227   -11448.073 
   69400    301.50557   -8783.0297    44.037812   -8827.0676    -8528.645 
   69600    305.97204   -8784.8309    44.690182   -8829.5211   -18185.928 
   69800    315.11274   -8787.2908     46.02527   -8833.3161   -23807.729 
   70000    288.02214   -8785.7213    42.068425   -8827.7897   -15400.416 
   70200    324.17105   -8776.7849    47.348324   -8824.1333    27858.662 
   70400    310.79917   -8794.2091    45.395231   -8839.6044   -5215.8812 
   70600    328.54543   -8785.8144    47.987244   -8833.8016   -22595.535 
   70800    431.54211   -8759.7994    63.030907   -8822.8303    9512.4756 
   71000    349.66352   -8785.3935    51.071747   -8836.4653    32584.157 
   71200    294.56392   -8792.2003    43.023916   -8835.2242    23773.644 
   71400    372.26764   -8774.9799    54.373297   -8829.3532   -18311.104 
   71600    326.03873   -8780.0308    47.621117   -8827.6519    7099.1947 
   71800    298.21964   -8783.5877    43.557869   -8827.1456    21950.344 
   72000    282.57465    -8790.563    41.272766   -8831.8357   -44846.287 
   72200    324.51137   -8785.9219     47.39803   -8833.3199    42108.256 
   72400    261.30947   -8792.4735    38.166781   -8830.6403   -8751.2734 
   72600    286.96291   -8789.7545    41.913715   -8831.6683   -20129.022 
   72800    295.78215   -8786.1408    43.201849   -8829.3426   -15002.364 
   73000    293.94637   -8784.9257    42.933717   -8827.8594    29347.665 
   73200    325.96618   -8770.6395     47.61052     -8818.25   -68007.302 
   73400    303.48128   -8785.6291    44.326382   -8829.9555    52173.885 
   73600    276.10685   -8788.9276    40.328081   -8829.2557    23535.802 
   73800    416.20114   -8773.3238    60.790211    -8834.114   -14464.998 
   74000    238.89035   -8795.7893    34.892251   -8830.6816   -29535.097 
   74200    306.35946   -8783.3056    44.746769   -8828.0524   -44598.217 
   74400    226.74603   -8789.3928    33.118456   -8822.5113   -7904.5158 
   74600    284.34223   -8790.3283    41.530938   -8831.8592    5341.8379 
   74800    312.14246   -8779.3839    45.591432   -8824.9753    13480.333 
   75000    318.93283   -8791.9826    46.583231   -8838.5658    6042.8472 
   75200     271.0695   -8794.0401    39.592328   -8833.6325   -28723.474 
   75400    327.26723   -8781.9144    47.800551    -8829.715   -11380.256 
   75600    314.91076   -8795.4875    45.995768   -8841.4833    8033.3201 
   75800    340.83457    -8779.204    49.782193   -8828.9862    13197.398 
   76000    324.75615   -8778.9387    47.433783   -8826.3725   -6738.3839 
   76200    316.33296   -8780.6392    46.203494   -8826.8427    42013.775 
   76400    354.62349   -8783.1583    51.796198   -8834.9545    1339.3455 
   76600    301.23914   -8787.4763    43.998897   -8831.4752   -256.21578 
   76800    319.89062   -8787.4265    46.723126   -8834.1497    49194.801 
   77000    251.77922   -8805.4665    36.774795   -8842.2412    6927.6465 
   77200    277.28195   -8795.6881    40.499716   -8836.1878   -49163.021 
   77400    261.26478   -8784.0715    38.160253   -8822.2318   -3630.1288 
   77600    320.30512   -8781.3298    46.783668   -8828.1135    -8067.389 
   77800    340.48752   -8776.9724    49.731502   -8826.7039    49160.988 
   78000    244.08466   -8792.0379    35.650931   -8827.6888   -33180.255 
   78200    281.42429   -8786.2039    41.104745   -8827.3087   -7968.3709 
   78400    397.97304   -8777.0741    58.127819   -8835.2019    52476.022 
   78600     243.9176   -8790.9715     35.62653    -8826.598   -3005.2201 
   78800    282.99753   -8793.7635    41.334533    -8835.098   -30352.847 
   79000    295.95273   -8776.8694    43.226765   -8820.0962   -51974.598 
   79200    265.05161   -8784.0195    38.713357   -8822.7329   -898.09908 
   79400    307.82458   -8793.3232    44.960764    -8838.284   -32646.895 
   79600    296.18254   -8782.4112     43.26033   -8825.6716    9334.3033 
   79800    333.46222   -8774.1807    48.705389   -8822.8861    22318.912 
   80000    280.81069   -8794.1551    41.015123   -8835.1702    57319.678 
   80200    249.85083   -8794.8326    36.493135   -8831.3258    37060.405 
   80400     307.9446   -8781.2084    44.978294   -8826.1867   -4435.6575 
   80600    274.26693   -8787.6964    40.059344   -8827.7557    -7793.632 
   80800    297.93323   -8784.7196    43.516036   -8828.2356   -10972.633 
   81000    313.49283   -8770.2367    45.788667   -8816.0254   -35041.635 
   81200    294.84627   -8789.0231    43.065155   -8832.0882    21623.738 
   81400      316.078   -8784.1577    46.166255    -8830.324   -39324.058 
   81600    379.11381   -8777.4774    55.373246   -8832.8506   -16174.384 
   81800    297.79203   -8794.3909    43.495412   -8837.8863    27707.862 
   82000    369.58859    -8781.604    53.981996    -8835.586   -48986.207 
   82200    331.54083    -8782.922    48.424751   -8831.3467   -17118.357 
   82400    300.50754   -8791.4516    43.892039   -8835.3437    18542.621 
   82600    327.53899   -8774.5442    47.840245   -8822.3844    12790.631 
   82800    254.85952   -8787.9719    37.224703   -8825.1966   -22416.204 
   83000    342.27013   -8781.5703     49.99187   -8831.5622    25451.617 
   83200    308.49654   -8782.1211     45.05891     -8827.18   -17725.422 
   83400    313.70669   -8790.7246    45.819903   -8836.5445   -20417.661 
   83600    272.64222   -8790.0228    39.822039   -8829.8448   -21382.022 
   83800    320.33394   -8782.6059    46.787876   -8829.3937   -45536.317 
   84000    303.71117   -8781.6221     44.35996   -8825.9821   -32792.407 
   84200    284.68218    -8793.303    41.580592   -8834.8836    -18080.91 
   84400     392.3451    -8779.682    57.305805   -8836.9878    13656.195 
   84600    352.14858   -8775.5656    51.434714   -8827.0003    16308.105 
   84800    262.46066   -8793.0776    38.334924   -8831.4125     51396.91 
   85000    352.34171   -8787.7568    51.462922   -8839.2197     5322.442 
   85200    327.39197   -8777.8008    47.818771   -8825.6195    17297.161 
   85400    335.77158   -8785.3764    49.042694   -8834.4191    54168.526 
   85600      239.398   -8797.4491    34.966399   -8832.4155    20950.864 
   85800    285.92852   -8784.4517    41.762631   -8826.2143    30970.621 
   86000    320.22716   -8781.7002    46.772281   -8828.4724    18355.965 
   86200    283.32415   -8793.7984    41.382238   -8835.1806   -12455.891 
   86400    372.46032   -8776.1186     54.40144     -8830.52   -27269.899 
   86600    285.01982   -8790.1346    41.629907   -8831.7645   -5576.4795 
   86800     284.1485   -8788.3804    41.502643    -8829.883    17279.297 
   87000    360.91839   -8784.1115     52.71563   -8836.8271   -6017.2595 
   87200    273.27783   -8788.3574    39.914876   -8828.2723    13183.801 
   87400     364.5683   -8775.3512    53.248733   -8828.5999    9178.3411 
   87600    298.17925   -8789.9704     43.55197   -8833.5224    59014.762 
   87800    305.33928   -8787.6417    44.597762   -8832.2395   -13380.729 
   88000    238.97566   -8799.5183    34.904711    -8834.423   -12240.316 
   88200    277.18646   -8786.7406    40.485769   -8827.2264    13977.982 
   88400    264.98724   -8780.6695    38.703954   -8819.3735   -2425.8806 
   88600    317.98153   -8768.3822    46.444285   -8814.8264   -26744.823 
   88800    313.69912   -8783.0369    45.818798   -8828.8557     4899.979 
   89000    302.92531   -8790.4908    44.245178    -8834.736   -30788.638 
   89200    245.93909    -8804.668    35.921788   -8840.5898    1283.7086 
   89400    252.65903   -8786.2848      36.9033   -8823.1881   -32142.776 
   89600    312.75594   -8785.4735    45.681036   -8831.1545     74.51198 
   89800    305.76997   -8780.1887    44.660667   -8824.8494   -14772.012 
   90000    306.20597   -8782.8615    44.724349   -8827.5859    5970.1658 
   90200    323.25511   -8788.3569    47.214542   -8835.5714   -32986.731 
   90400    278.11906   -8787.7463    40.621985   -8828.3683   -24261.359 
   90600    351.98331   -8782.0582    51.410573   -8833.4688   -38107.918 
   90800    241.63317   -8792.5867    35.292866   -8827.8796    54252.579 
   91000    374.11496   -8773.8482    54.643116   -8828.4913   -14506.998 
   91200    267.44487   -8785.9801    39.062915    -8825.043    405.80005 
   91400    300.38307   -8788.7592    43.873858    -8832.633   -9286.3987 
   91600    309.99973   -8781.2738    45.278465   -8826.5523   -6741.1682 
   91800    351.57312    -8767.754    51.350661   -8819.1047    37168.818 
   92000    269.40193   -8789.0604    39.348763   -8828.4092   -34777.694 
   92200    239.90857   -8790.0963    35.040972   -8825.1372   -4391.9583 
   92400    300.03105   -8792.9515    43.822442   -8836.7739   -26821.121 
   92600    308.90958   -8777.6201    45.119238   -8822.7393    12669.715 
   92800    272.17453    -8787.558    39.753728   -8827.3118    68632.403 
   93000    273.92619   -8794.5326    40.009576   -8834.5421    5652.6998 
   93200    324.32035   -8782.4413     47.37013   -8829.8115    15793.341 
   93400    332.35918   -8786.6767    48.544279    -8835.221    25868.007 
   93600    285.11338   -8793.3974    41.643573    -8835.041    81547.678 
   93800     331.9783   -8783.3314    48.488648   -8831.8201   -11107.375 
   94000    355.09322   -8768.8947    51.864807   -8820.7595    9091.5943 
   94200    277.62233   -8789.1315    40.549432   -8829.6809   -7562.0114 
   94400    335.51785   -8782.2746    49.005633   -8831.2803   -6695.9295 
   94600    304.98467   -8780.4572    44.545967   -8825.0031    -9532.441 
   94800    273.38027   -8794.8028    39.929838   -8834.7327    4619.9511 
   95000    300.14425   -8786.2841    43.838977   -8830.1231    5508.9619 
   95200    285.17139   -8790.1118    41.652046   -8831.7639   -31547.943 
   95400    304.08512   -8783.8239    44.414579   -8828.2385   -6790.6089 
   95600    250.15377   -8790.5089    36.537383   -8827.0462    6800.2277 
   95800    284.80395   -8791.1722    41.598377   -8832.7706    -1082.967 
   96000     287.7348   -8778.1495    42.026456    -8820.176    31815.283 
   96200    278.37027   -8790.7855    40.658676   -8831.4442    2246.7409 
   96400    312.36981   -8785.0889    45.624638   -8830.7136   -29735.675 
   96600    312.36237   -8783.9601    45.623551   -8829.5836    -60145.03 
   96800    247.08296   -8793.7373    36.088861   -8829.8262   -15765.437 
   97000    288.83211   -8790.0899    42.186729   -8832.2766   -4155.4078 
   97200    295.82763   -8781.7091    43.208492   -8824.9176   -12407.619 
   97400    344.10186   -8771.5211    50.259412   -8821.7805    24559.165 
   97600    311.14604   -8786.6929    45.445895   -8832.1388   -11702.118 
   97800     334.2408   -8785.9739    48.819108    -8834.793   -34271.869 
   98000    281.60969   -8792.8886    41.131825   -8834.0204   -8071.0491 
   98200    342.67522   -8777.1381    50.051038   -8827.1891    41436.758 
   98400    300.49107   -8791.7139    43.889633   -8835.6035    17910.376 
   98600    297.56244   -8789.9172    43.461878   -8833.3791   -15358.674 
   98800    302.97826   -8778.7064    44.252912   -8822.9593    28107.431 
   99000    246.54254   -8797.8051    36.009927   -8833.8151    32278.325 
   99200    289.98613   -8782.6525    42.355286   -8825.0078    37670.942 
   99400    283.40565   -8781.6434    41.394142   -8823.0375     21157.69 
   99600    240.69306   -8800.8139    35.155554   -8835.9694    42404.934 
   99800    365.70898   -8790.5922    53.415342   -8844.0075    5413.9015 
  100000    305.41535   -8792.0096    44.608872   -8836.6185   -25348.741 
  100200    298.18183   -8779.9849    43.552347   -8823.5373    4129.7634 
  100400    310.77231   -8791.6168    45.391309   -8837.0081    -11268.56 
  100600     293.9516   -8786.7917     42.93448   -8829.7261   -24948.678 
  100800    301.00166   -8780.2489     43.96421   -8824.2131    10978.376 
  101000    283.95937   -8787.1501    41.475018   -8828.6252    12136.754 
  101200    252.99313   -8798.3545    36.952099   -8835.3066    -11187.62 
  101400    306.63476   -8789.7874    44.786979   -8834.5743   -21828.872 
  101600    237.38048   -8797.5587    34.671719   -8832.2304   -7220.5745 
  101800    319.23453   -8787.7911    46.627298   -8834.4184    43473.148 
  102000    281.28418   -8793.4833    41.084281   -8834.5676    52906.398 
  102200    245.88091   -8783.3368     35.91329   -8819.2501    9088.1213 
  102400    387.26107   -8780.2341    56.563232   -8836.7973   -35795.937 
  102600    304.23083   -8789.2283    44.435862   -8833.6642   -34565.699 
  102800     276.2824   -8793.4896    40.353722   -8833.8433   -843.82073 
  103000    416.33311   -8779.7026    60.809486   -8840.5121   -38359.456 
  103200     298.0866   -8794.5772    43.538436   -8838.1156   -7370.3256 
  103400    277.06789   -8793.5975    40.468451   -8834.0659    21999.931 
  103600    279.50502   -8789.7805    40.824417    -8830.605    1177.8589 
  103800    413.70566   -8769.0584    60.425722   -8829.4841    4394.2055 
  104000    261.26536    -8785.965    38.160338   -8824.1253    -21758.35 
  104200    269.51684    -8784.907    39.365547   -8824.2725   -36781.124 
  104400     350.9384   -8771.8609    51.257955   -8823.1189    29927.325 
  104600    321.77286   -8792.8285    46.998046   -8839.8265    31810.831 
  104800    282.60911   -8795.4656    41.277799   -8836.7434   -8044.9261 
  105000    326.40031   -8780.3088    47.673929   -8827.9828    -1903.516 
  105200    273.29224   -8789.9799    39.916981   -8829.8969    10.438305 
  105400    250.25355   -8790.3078    36.551957   -8826.8597   -11026.509 
  105600    355.91818   -8778.6331    51.985299   -8830.6184   -16144.076 
  105800    267.16022   -8788.3171    39.021339   -8827.3385   -18555.244 
  106000    316.52893   -8784.9037    46.232119   -8831.1359    16968.562 
  106200    348.44482    -8772.599    50.893744   -8823.4927    67696.704 
  106400    297.28285   -8789.9318    43.421042   -8833.3528    4012.7756 
  106600    277.92127   -8791.9242    40.593095   -8832.5173   -8976.8514 
  106800    340.83145   -8776.1758    49.781736   -8825.9575   -15080.455 
  107000    219.26991   -8791.0233    32.026496   -8823.0498    31554.129 
  107200    301.87248   -8783.5518    44.091401   -8827.6432   -27056.161 
  107400    308.52434   -8776.7242     45.06297   -8821.7871   -28068.259 
  107600    325.07097   -8791.2841    47.479766   -8838.7639   -22014.115 
  107800    275.76238   -8798.1022    40.277769     -8838.38    2528.3907 
  108000    283.44707   -8786.3598    41.400192   -8827.7599   -29170.407 
  108200    259.92686   -8790.8999    37.964838   -8828.8648    3865.4635 
  108400    259.18469   -8805.7447    37.856436   -8843.6012   -25972.519 
  108600    300.09547    -8789.444    43.831852   -8833.2759   -31611.989 
  108800    350.04216   -8776.2851     51.12705   -8827.4121    11160.682 
  109000    282.36927   -8791.8189    41.242768   -8833.0617    23252.043 
  109200    288.11603   -8786.4402    42.082138   -8828.5223    6309.1148 
  109400    325.46804   -8785.4268    47.537761   -8832.9645     10928.34 
  109600    247.31844   -8799.2029    36.123255   -8835.3262    40974.307 
  109800    237.70617   -8788.6137     34.71929    -8823.333    31036.224 
  110000    311.10942   -8780.4647    45.440546   -8825.9052    31352.695 
  110200    335.82821   -8781.8339    49.050965   -8830.8849    22663.166 
  110400    307.33972   -8791.7013    44.889945   -8836.5913   -8396.7961 
  110600    340.21726   -8777.2185    49.692029   -8826.9106   -13458.207 
  110800    350.78963   -8774.4083    51.236225   -8825.6445    62763.425 
  111000    296.13623   -8789.7331    43.253567   -8832.9867   -16095.592 
  111200     284.2535   -8788.6155    41.517979   -8830.1335    3368.7851 
  111400    280.23786   -8778.2899    40.931456   -8819.2213   -15129.542 
  111600    255.28679   -8790.3086     37.28711   -8827.5958    24805.646 
  111800    279.21262   -8790.2264    40.781709   -8831.0081    42629.582 
  112000    328.06257   -8772.3284    47.916719   -8820.2451    -16844.52 
  112200     367.9803   -8771.9371    53.747089   -8825.6842   -51274.153 
  112400    341.06659   -8785.4732    49.816082   -8835.2893   -21625.909 
  112600    300.63353   -8791.5252    43.910441   -8835.4357   -36324.493 
  112800    281.86183   -8791.2571    41.168652   -8832.4257   -23093.567 
  113000    355.38973   -8776.2343    51.908114   -8828.1424    49618.209 
  113200    253.51735   -8795.5824    37.028666    -8832.611    21259.918 
  113400    274.17018   -8790.6547    40.045212   -8830.6999     31626.23 
  113600    288.66288   -8777.9854    42.162012   -8820.1474   -26787.953 
  113800    282.10009   -8791.1479    41.203452   -8832.3514    16388.258 
  114000    300.80785   -8794.0793    43.935902   -8838.0153   -18476.104 
  114200    313.99568   -8779.3089    45.862113    -8825.171   -11966.654 
  114400    324.57445   -8784.6517    47.407245   -8832.0589    31696.875 
  114600    264.95404   -8796.4688    38.699106    -8835.168    22661.765 
  114800    333.91153   -8782.0668    48.771016   -8830.8378    53443.334 
  115000      242.979   -8786.7865    35.489439   -8822.2759   -45315.548 
  115200    281.62881   -8789.5234    41.134618    -8830.658    30099.408 
  115400    254.62336   -8791.3236    37.190209   -8828.5138    15327.992 
  115600     272.8166   -8780.5814    39.847509   -8820.4289    24451.949 
  115800    319.53674   -8777.5143    46.671438   -8824.1858   -25137.224 
  116000    278.83665   -8792.7816    40.726795   -8833.5083       -13547 
  116200    275.36461   -8782.5673     40.21967    -8822.787   -12346.233 
  116400    325.38509   -8777.8126    47.525646   -8825.3382   -8152.5618 
  116600    346.67744    -8785.753      50.6356   -8836.3886    16407.209 
  116800    276.22989   -8789.2099    40.346052    -8829.556    16843.637 
  117000    326.94542    -8782.533    47.753547   -8830.2866   -29013.509 
  117200    344.26458    -8781.131    50.283178   -8831.4142   -14142.444 
  117400    289.38332   -8794.1358    42.267238    -8836.403   -14012.118 
  117600    298.51617   -8785.7512    43.601179   -8829.3524   -16575.841 
  117800    342.66132   -8766.3156    50.049008   -8816.3647   -224.25281 
  118000    302.33964   -8788.4549    44.159635   -8832.6145   -2607.9968 
  118200    288.65618   -8786.1349    42.161034    -8828.296   -38732.891 
  118400    398.70317   -8773.2292    58.234462   -8831.4637   -5575.5684 
  118600    311.71388   -8790.0585    45.528834   -8835.5874    6840.4609 
  118800    322.07157   -8783.0908    47.041674   -8830.1325    5163.0587 
  119000    422.32202   -8769.8954    61.684224   -8831.5796    2148.9078 
  119200    268.74264   -8788.0618    39.252467   -8827.3143    4981.4161 
  119400     305.5322   -8788.9179    44.625939   -8833.5439    70839.238 
  119600    282.72839   -8784.5823    41.295222   -8825.8775   -21783.307 
  119800    284.07776   -8781.6262     41.49231   -8823.1185   -27687.555 
  120000    291.57553   -8789.6153    42.587432   -8832.2027    -35492.74 
  120200    302.66225   -8785.9282    44.206755    -8830.135   -36508.914 
  120400    264.49173   -8799.6922    38.631581   -8838.3238   -11109.528 
  120600    309.78212   -8783.3697    45.246682   -8828.6163   -13906.847 
  120800    267.03174   -8787.1977    39.002574   -8826.2003    20602.367 
  121000     254.0311   -8795.8815    37.103705   -8832.9852   -2398.8162 
  121200    296.27506   -8786.4478    43.273845   -8829.7216    30560.111 
  121400    336.54123   -8778.2783    49.155108   -8827.4334    1903.3945 
  121600    272.03252   -8796.7218    39.732986   -8836.4548   -32249.501 
  121800    326.76099   -8787.9905    47.726609   -8835.7171    4908.0399 
  122000    350.50699   -8780.3204    51.194943   -8831.5153    6429.5402 
  122200     311.7306   -8788.5603    45.531275   -8834.0915   -17834.071 
  122400    298.67638   -8794.8174    43.624581    -8838.442    -13815.86 
  122600    316.50782   -8780.1298    46.229035   -8826.3588   -13010.005 
  122800    280.45697   -8793.8514    40.963459   -8834.8148   -8148.4447 
  123000    303.54991   -8785.9099    44.336407   -8830.2463   -32288.386 
  123200    281.09863   -8776.7435    41.057179   -8817.8007     30539.12 
  123400    310.82846   -8789.3761    45.399509   -8834.7756   -3429.5456 
  123600    269.05496   -8788.4269    39.298084    -8827.725   -23066.331 
  123800    365.17607   -8774.1914    53.337504   -8827.5289   -14346.165 
  124000    289.76348   -8785.4493    42.322765   -8827.7721    11595.207 
  124200    286.17396   -8783.3456     41.79848    -8825.144    49422.612 
  124400    277.19675   -8794.1433    40.487272   -8834.6305   -17433.775 
  124600    314.43747    -8789.212    45.926641   -8835.1387   -39162.894 
  124800    326.93959   -8779.8174    47.752696   -8827.5701    18946.715 
  125000    293.23675   -8785.8995     42.83007   -8828.7295    8963.7259 
  125200    285.99472   -8797.0051    41.772301   -8838.7774    68041.184 
  125400     334.5966   -8784.3211    48.871076   -8833.1921   -1394.6466 
  125600     329.8806    -8779.781    48.182258   -8827.9632    20290.347 
  125800    293.23459    -8795.843    42.829754   -8838.6727   -30018.047 
  126000    294.23261   -8792.4323    42.975524   -8835.4078     9361.557 
  126200    348.43277    -8783.461    50.891983    -8834.353   -28321.428 
  126400    266.45346   -8793.2965    38.918111   -8832.2146    5991.8303 
  126600    298.87728   -8792.9275    43.653924   -8836.5814    14932.333 
  126800    330.45346   -8781.4776    48.265931   -8829.7436   -2196.5432 
  127000    288.40267   -8783.3589    42.124006   -8825.4829   -20167.377 
  127200    344.75168   -8782.9016    50.354325   -8833.2559   -30361.924 
  127400    288.96798   -8797.1515    42.206574   -8839.3581    -23280.07 
  127600     293.8668   -8781.1399    42.922095    -8824.062   -20771.242 
  127800    300.61003   -8785.4305    43.907008   -8829.3376    5959.6331 
  128000    284.87508   -8795.7383    41.608767   -8837.3471   -21494.004 
  128200    323.05349    -8775.192    47.185094   -8822.3771   -623.29426 
  128400    257.14949    -8785.544    37.559176   -8823.1031    39710.606 
  128600    266.66623   -8797.2952    38.949188   -8836.2444   -36118.832 
  128800    286.57198   -8799.4713    41.856616   -8841.3279   -24397.131 
  129000    274.66013   -8783.4084    40.116774   -8823.5252    54354.314 
  129200    323.20505   -8787.4201     47.20723   -8834.6273   -1343.9506 
  129400    241.56189   -8799.3612    35.282455   -8834.6437    1116.5296 
  129600    307.13557   -8787.4944    44.860127   -8832.3546   -30980.491 
  129800    313.65728   -8780.2233    45.812686    -8826.036     21770.57 
  130000    312.92758   -8788.3133    45.706105   -8834.0194    6418.7369 
  130200    255.43897   -8793.9222    37.309337   -8831.2315   -2601.5291 
  130400    328.74129   -8780.2529    48.015852   -8828.2687    7603.2418 
  130600    306.10203   -8787.3067    44.709169   -8832.0158    28122.236 
  130800    244.80869    -8802.908    35.756682   -8838.6647    -17493.22 
  131000    332.54396   -8788.7139    48.571268   -8837.2852   -39343.025 
  131200    289.22027   -8779.5124    42.243424   -8821.7558     24605.96 
  131400     278.0772   -8783.8686    40.615871   -8824.4845    9401.4357 
  131600    267.37876   -8793.5498    39.053259   -8832.6031   -1243.9266 
  131800    335.82963   -8782.5119    49.051172   -8831.5631    15132.608 
  132000    281.11914   -8787.3089    41.060175   -8828.3691    24481.262 
  132200    256.69344    -8798.979    37.492565   -8836.4716   -5207.4852 
  132400    342.14388   -8795.2263     49.97343   -8845.1998   -21534.635 
  132600    285.28274   -8783.5166    41.668309   -8825.1849    9862.9016 
  132800    322.77961   -8781.4167    47.145091   -8828.5618   -9411.6408 
  133000    307.52838   -8784.9886    44.917501   -8829.9061    13533.175 
  133200    291.65658   -8793.8288     42.59927   -8836.4281   -33870.863 
  133400    332.52974   -8773.8502    48.569191   -8822.4194    8972.1814 
  133600    261.97114   -8783.0709    38.263424   -8821.3343    -42105.75 
  133800    315.78368   -8789.8933    46.123267   -8836.0166   -209.98489 
  134000    237.90641   -8795.1639    34.748537   -8829.9125   -32248.044 
  134200    306.17939   -8776.7773    44.720467   -8821.4977    8720.2898 
  134400    290.90668   -8786.2714     42.48974   -8828.7611   -20758.092 
  134600    261.16177   -8791.8184    38.145208   -8829.9636   -1210.9911 
  134800    298.20056     -8785.92    43.555083   -8829.4751    5349.0819 
  135000    284.43647    -8783.553    41.544703   -8825.0977   -44588.782 
  135200    319.87713   -8786.9208    46.721155   -8833.6419    11316.742 
  135400    321.73335   -8790.7754    46.992274   -8837.7676   -4626.9873 
  135600    329.53532   -8770.1867    48.131827   -8818.3185   -15930.907 
  135800    264.29278   -8788.7408    38.602522   -8827.3433    37789.856 
  136000     329.6332   -8787.0017    48.146124   -8835.1478   -6557.2705 
  136200    314.74353   -8769.3023    45.971343   -8815.2736    12651.204 
  136400    292.39279   -8787.1699    42.706801   -8829.8767    21551.372 
  136600    273.57642   -8787.8132    39.958487   -8827.7716   -25265.374 
  136800    318.11149   -8773.2815    46.463267   -8819.7448    1829.1142 
  137000    313.11922    -8788.151    45.734097   -8833.8851    4880.3851 
  137200    314.05967   -8786.8587    45.871458   -8832.7302    -7318.743 
  137400    346.61288   -8773.6749    50.626171   -8824.3011    31975.315 
  137600    281.82685   -8787.7808    41.163544   -8828.9443   -64360.578 
  137800    294.08031   -8784.5771     42.95328   -8827.5304   -54132.959 
  138000    294.61921   -8792.6218    43.031991   -8835.6538    8947.3743 
  138200    295.95532   -8792.7219    43.227142   -8835.9491    8041.8274 
  138400    299.02155    -8784.845    43.674995     -8828.52    29063.025 
  138600    262.11211   -8785.7484    38.284015   -8824.0324     22820.17 
  138800     351.0275   -8769.2975    51.270969   -8820.5684   -11882.852 
  139000    245.67434   -8785.5892    35.883118   -8821.4723   -11005.021 
  139200    346.66642    -8782.402     50.63399    -8833.036    1549.0538 
  139400    309.69526   -8771.7205    45.233994   -8816.9545    -6408.787 
  139600    265.93621   -8788.9295    38.842561    -8827.772   -805.58452 
  139800    332.98984   -8782.1492    48.636394   -8830.7856    39994.996 
  140000    240.55167   -8799.3925    35.134904   -8834.5274    27179.663 
  140200    276.98815   -8788.4202    40.456804    -8828.877    634.76462 
  140400    284.89171    -8782.635    41.611196   -8824.2462    32969.931 
  140600    324.91093   -8777.7322     47.45639   -8825.1886   -5641.7372 
  140800    280.33381   -8780.5342    40.945471   -8821.4796   -13485.057 
  141000    293.22305   -8785.3553    42.828068   -8828.1834    -4111.754 
  141200     324.0457   -8788.0793    47.330016   -8835.4093   -19006.687 
  141400    340.17099   -8789.9825    49.685271   -8839.6678   -15470.588 
  141600    320.63077   -8783.8338    46.831231   -8830.6651    14072.071 
  141800    278.90438   -8773.9411    40.736689   -8814.6778   -30959.865 
  142000    280.96002   -8794.6367    41.036935   -8835.6737    26603.741 
  142200      292.853   -8781.9767     42.77402   -8824.7507   -10854.946 
  142400    337.34907    -8778.203    49.273101   -8827.4761    -21312.21 
  142600    357.11862   -8785.6996    52.160636   -8837.8602    9373.9127 
  142800    252.04777   -8791.1025     36.81402   -8827.9166    14045.736 
  143000    257.07131   -8778.4642    37.547756   -8816.0119   -28745.971 
  143200     342.3591   -8778.1648    50.004865   -8828.1697   -20896.434 
  143400    295.42794   -8786.9591    43.150115   -8830.1092   -478.60141 
  143600     307.4247   -8780.7689    44.902358   -8825.6713    7573.9721 
  143800    319.54829   -8776.0306    46.673125   -8822.7038    8938.4082 
  144000    306.49006   -8789.8162    44.765845    -8834.582    18175.509 
  144200    279.12375   -8789.6709    40.768729   -8830.4396    58377.536 
  144400    320.17831   -8773.9896    46.765146   -8820.7547   -188.98646 
  144600    292.43847   -8790.5661    42.713473   -8833.2796    11396.832 
  144800    256.93054   -8789.7088    37.527196    -8827.236    5249.7541 
  145000    354.27887   -8771.6564    51.745863   -8823.4023    38238.974 
  145200     328.8402   -8783.7557    48.030299    -8831.786   -4460.4712 
  145400    300.18819   -8788.2677    43.845395   -8832.1131   -5506.2579 
  145600    309.35727     -8787.52    45.184628   -8832.7046    1413.7824 
  145800    241.70745   -8801.9119    35.303715   -8837.2156    12645.098 
  146000    319.12961   -8786.7528    46.611973   -8833.3647    9197.2966 
  146200    274.85854   -8783.5293    40.145754    -8823.675   -3390.1777 
  146400    277.67539   -8798.1662    40.557182   -8838.7233    2288.0486 
  146600    319.07276   -8783.0288    46.603669   -8829.6325   -16957.105 
  146800    288.26236     -8781.47    42.103511   -8823.5735    36404.054 
  147000    311.85113   -8793.1205    45.548881   -8838.6694    58146.196 
  147200    232.92491   -8795.1738     34.02094   -8829.1947    29839.549 
  147400    336.38385   -8779.3641    49.132121   -8828.4963    9374.3016 
  147600    258.91338   -8793.3173    37.816809   -8831.1341     -11882.2 
  147800    344.22812   -8781.8716    50.277853   -8832.1494    -27702.89 
  148000    343.92651   -8774.1012    50.233801    -8824.335    32366.292 
  148200    288.16302   -8789.3138    42.089002   -8831.4028    16752.675 
  148400     294.0597   -8783.5535     42.95027   -8826.5037    571.80351 
  148600      423.908   -8761.1824    61.915873   -8823.0983    56841.588 
  148800    324.84745   -8787.7361    47.447119   -8835.1832   -11258.102 
  149000    303.88449   -8792.7292    44.385275   -8837.1144   -3805.6385 
  149200    380.81372   -8779.7364    55.621535   -8835.3579   -25409.872 
  149400     317.3943   -8783.6092    46.358514   -8829.9677    20913.138 
  149600     247.4554    -8800.517     36.14326   -8836.6603    31648.618 
  149800    267.77176   -8787.8099    39.110662   -8826.9206   -4169.6454 
  150000    339.89021   -8780.5741     49.64426   -8830.2184   -52557.648 
  150200    246.94987   -8797.9714    36.069422   -8834.0409    7725.4343 
  150400    247.08427    -8792.245    36.089053   -8828.3341   -12483.549 
  150600    321.88906   -8785.3111    47.015017   -8832.3261   -17495.344 
  150800    301.60654   -8787.0893    44.052559   -8831.1419    22005.059 
  151000    270.38674   -8784.1052    39.492603   -8823.5978    26427.394 
  151200    341.60589   -8776.4827    49.894851   -8826.3775     29378.39 
  151400     274.6735   -8788.8002    40.118727   -8828.9189    5169.3618 
  151600    302.24088   -8789.2456     44.14521   -8833.3908   -3075.9464 
  151800    333.59224   -8772.8505     48.72438   -8821.5748     2779.371 
  152000    301.62013   -8786.0453    44.054544   -8830.0999   -33733.776 
  152200    294.62594   -8790.7328    43.032974   -8833.7658   -25291.242 
  152400    316.99912   -8771.7448    46.300794   -8818.0456   -21343.217 
  152600    325.45806   -8785.4081    47.536304   -8832.9445    20167.101 
  152800    288.43951   -8787.3656    42.129386   -8829.4949   -3083.4654 
  153000    405.85197   -8766.5142    59.278614   -8825.7928    10174.172 
  153200    315.52014   -8782.9818    46.084774   -8829.0666    5357.1803 
  153400    282.16275   -8789.8201    41.212605   -8831.0327    28000.413 
  153600     284.0482   -8794.2169    41.487993   -8835.7049   -14666.544 
  153800    363.43381   -8777.7286    53.083031   -8830.8116    1946.1518 
  154000    341.91186   -8787.6742    49.939542   -8837.6137   -6617.1113 
  154200    310.49781   -8786.5579    45.351214   -8831.9091   -16741.264 
  154400    311.45456   -8776.7759    45.490958   -8822.2669    32989.653 
  154600    324.48027    -8791.239    47.393489   -8838.6325    9262.4252 
  154800    306.38344   -8790.4667    44.750271    -8835.217    27162.999 
  155000    340.39082   -8780.6387    49.717379   -8830.3561    4374.5031 
  155200    245.11498   -8798.6709    35.801419   -8834.4723    15545.216 
  155400    324.71867   -8782.5814    47.428309   -8830.0097    -15071.18 
  155600    285.96793   -8783.5451    41.768389   -8825.3135    27647.767 
  155800    274.26858   -8797.6601    40.059585   -8837.7197    52213.169 
  156000     302.6587   -8783.8071    44.206236   -8828.0133   -56480.676 
  156200    337.56446   -8781.1007    49.304561   -8830.4053   -39487.908 
  156400    259.07551   -8796.4533     37.84049   -8834.2938   -20738.122 
  156600    247.30864   -8791.3944    36.121823   -8827.5162    11480.265 
  156800    323.23589   -8779.2819    47.211734   -8826.4937   -46933.482 
  157000    291.19153   -8789.4837    42.531345   -8832.0151    1115.1765 
  157200    280.44661   -8788.7507    40.961946   -8829.7126    38837.641 
  157400    356.99028   -8781.3232     52.14189   -8833.4651    7289.6276 
  157600    249.72739   -8789.2504    36.475106   -8825.7255    14698.494 
  157800    306.78993   -8784.3494    44.809642    -8829.159    17222.279 
  158000     326.3981   -8772.3148    47.673605   -8819.9884   -81.356844 
  158200    327.55669   -8784.9582    47.842829   -8832.8011   -21206.125 
  158400    308.05804   -8789.4857    44.994862   -8834.4805    -12089.71 
  158600    335.96392   -8774.7111    49.070787   -8823.7819    209.18787 
  158800    280.84131   -8785.2246    41.019596   -8826.2442     34630.86 
  159000    257.51981   -8795.5564    37.613264   -8833.1696   -3349.7317 
  159200    299.99344   -8779.5477    43.816949   -8823.3646    -25814.33 
  159400    273.92513   -8782.2404     40.00942   -8822.2498    -22217.84 
  159600    250.18859   -8791.9487    36.542469   -8828.4912    29201.576 
  159800    347.16374   -8771.6348    50.706628   -8822.3414   -51092.143 
  160000    321.71541   -8786.5872    46.989654   -8833.5769     -11059.1 
  160200    319.45645   -8788.4946    46.659711   -8835.1543    52287.653 
  160400     309.9517   -8775.7698     45.27145   -8821.0413    12297.452 
  160600    285.77127   -8785.7685    41.739663   -8827.5082    21114.297 
  160800    252.50209   -8790.6036    36.880377   -8827.4839    403.37128 
  161000    292.19274     -8776.46    42.677581   -8819.1376   -32986.773 
  161200    371.92396   -8762.5186    54.323099   -8816.8417   -1692.3113 
  161400    332.54403   -8784.6177    48.571279    -8833.189     19891.15 
  161600     293.0901   -8795.2704     42.80865    -8838.079   -1567.7373 
  161800    310.57227    -8777.593     45.36209    -8822.955   -7814.3785 
  162000    312.53435   -8793.1927    45.648671   -8838.8414    10393.191 
  162200     283.2549   -8786.9739    41.372123    -8828.346   -16496.233 
  162400    365.93057   -8778.5332    53.447707   -8831.9809    901.80593 
  162600    251.56853   -8783.6824    36.744022   -8820.4265   -10043.551 
  162800    262.31236   -8792.2588    38.313263   -8830.5721    6189.6638 
  163000    279.78847   -8793.6024    40.865818   -8834.4682   -29981.015 
  163200    343.57477    -8785.016    50.182426   -8835.1984   -26079.414 
  163400    296.84576   -8791.8036    43.357201   -8835.1608   -17621.457 
  163600    302.74413   -8792.5615    44.218714   -8836.7802     35195.17 
  163800    299.04899   -8778.5068    43.679003   -8822.1858   -7566.2902 
  164000      299.215   -8785.6763    43.703251   -8829.3796    24058.242 
  164200    234.15141   -8792.8375    34.200082   -8827.0375   -5412.2286 
  164400    270.57432   -8782.3834    39.520002   -8821.9034   -10268.823 
  164600    322.89835   -8787.7787    47.162433   -8834.9411   -865.83826 
  164800    273.04092   -8797.9747    39.880272   -8837.8549    15472.495 
  165000    323.25567   -8784.6284    47.214624    -8831.843    25012.987 
  165200    368.46538   -8786.8222    53.817939   -8840.6402    21818.035 
  165400    248.94453   -8803.3364    36.360761   -8839.6971    22021.593 
  165600    278.47117   -8791.7689    40.673413   -8832.4423    6017.4066 
  165800    356.03512   -8779.5844     52.00238   -8831.5868    33908.321 
  166000    325.96572   -8781.4936    47.610454    -8829.104    26364.322 
  166200    240.63054   -8795.4273    35.146423   -8830.5737   -18522.129 
  166400    358.41399   -8779.4172    52.349838    -8831.767   -12492.615 
  166600     315.5956    -8782.743    46.095796   -8828.8388   -11481.317 
  166800    282.30482    -8792.101    41.233356   -8833.3344    983.78836 
  167000    356.54675   -8773.7431    52.077109   -8825.8202   -20508.142 
  167200    341.69794   -8782.0779    49.908296   -8831.9862   -10092.811 
  167400    349.90335   -8790.6759    51.106776   -8841.7827   -29677.737 
  167600    278.20507   -8793.6723    40.634547   -8834.3068   -4856.5863 
  167800     384.8929   -8778.1496    56.217339   -8834.3669   -17785.522 
  168000    277.56324   -8791.1651    40.540802   -8831.7059     6782.178 
  168200    327.96321   -8782.0966    47.902205   -8829.9988    20596.362 
  168400    253.79035   -8796.4668    37.068541   -8833.5354      2428.88 
  168600    280.23489   -8790.5984    40.931022   -8831.5294    8758.8713 
  168800    259.47561   -8780.1675    37.898928   -8818.0665    6395.8693 
  169000    311.43448   -8784.4019    45.488024   -8829.8899   -21119.794 
  169200    297.80148   -8787.7131    43.496793   -8831.2099   -13940.054 
  169400    359.49134   -8780.2801    52.507194   -8832.7873    2297.5864 
  169600    282.49763   -8788.2512    41.261517   -8829.5127    -3028.785 
  169800    307.83221   -8791.5753    44.961878   -8836.5372   -14117.932 
  170000     331.7783   -8772.9496    48.459436   -8821.4091    5357.2753 
  170200    317.84282   -8776.9049    46.424024    -8823.329    53684.409 
  170400    265.65649   -8793.5716    38.801705   -8832.3733   -28784.999 
  170600     290.4852   -8781.2969     42.42818   -8823.7251   -14013.588 
  170800    312.36684   -8780.7848    45.624205    -8826.409    63815.256 
  171000    346.95842   -8784.1344    50.676641   -8834.8111   -32598.849 
  171200    231.55256   -8799.4458    33.820496   -8833.2663    34782.811 
  171400    277.83703   -8787.6768    40.580791   -8828.2576     27197.16 
  171600    296.80844   -8787.3904    43.351749   -8830.7422   -23745.976 
  171800    296.64645   -8798.3149    43.328089   -8841.6429    -22102.97 
  172000    322.99607   -8781.4506    47.176706   -8828.6273   -4009.4677 
  172200    341.99455   -8779.9218    49.951619   -8829.8734    10579.786 
  172400    272.43149   -8798.5852    39.791259   -8838.3764   -27945.532 
  172600    332.07199   -8790.9792    48.502333   -8839.4815   -2944.9832 
  172800    312.89469   -8782.4364    45.701302   -8828.1377    15249.399 
  173000    409.50644   -8762.0202    59.812385   -8821.8326   -17092.654 
  173200    305.62165    -8782.862    44.639004    -8827.501   -30251.603 
  173400    263.29406   -8793.4835    38.456649   -8831.9401    9822.2825 
  173600     349.3082   -8773.4932    51.019849   -8824.5131     50411.77 
  173800    319.56682   -8784.0356    46.675832   -8830.7114    21667.588 
  174000    296.84233   -8790.0202      43.3567   -8833.3769    1443.8648 
  174200    351.79173   -8785.2705    51.382592   -8836.6531   -30864.149 
  174400    282.92556   -8774.7658     41.32402   -8816.0898    30367.732 
  174600    275.58968   -8788.3316    40.252544   -8828.5841    7377.5734 
  174800    316.22331   -8787.4626    46.187479   -8833.6501    8533.8449 
  175000    268.15989   -8782.0668    39.167351   -8821.2342    1381.9227 
  175200    323.51953   -8778.9037    47.253162   -8826.1568   -28592.051 
  175400    262.05362   -8791.4889    38.275471   -8829.7644    -16923.69 
  175600     351.0505    -8781.081    51.274329   -8832.3553   -14028.673 
  175800    385.54984   -8770.1969    56.313291   -8826.5102    1224.2175 
  176000    282.79977   -8790.2691    41.305648   -8831.5747   -3338.0969 
  176200    311.43914   -8783.6439    45.488705   -8829.1326   -8552.9104 
  176400    276.49209   -8775.9209     40.38435   -8816.3052    6882.7491 
  176600    267.03658   -8794.6459    39.003281   -8833.6491   -2328.2642 
  176800    363.42899   -8784.0192    53.082327   -8837.1015    46684.071 
  177000    293.16208   -8782.9457    42.819163   -8825.7649    34870.761 
  177200    294.68978   -8786.3523    43.042298   -8829.3946    13705.472 
  177400    292.74211   -8787.5558    42.757822   -8830.3136    23978.891 
  177600    286.19515    -8795.285    41.801576   -8837.0866    16818.907 
  177800    344.38516   -8776.8635     50.30079   -8827.1643    393.34658 
  178000    268.89187   -8787.4839    39.274264   -8826.7581   -4267.3447 
  178200    286.51338   -8790.8837    41.848056   -8832.7317   -9465.3594 
  178400    312.36442   -8787.3939    45.623852   -8833.0178   -30861.565 
  178600    298.23262   -8777.8606    43.559764   -8821.4204   -10882.899 
  178800    348.66637   -8776.3934    50.926103   -8827.3195     42574.01 
  179000    288.77526   -8792.6073    42.178425   -8834.7857    14560.183 
  179200    334.20307   -8779.6116    48.813597   -8828.4252    14560.569 
  179400    335.43998   -8775.9053    48.994261   -8824.8996    26383.579 
  179600    343.90986   -8783.1118    50.231369   -8833.3432   -22584.787 
  179800    341.08574    -8794.728    49.818878   -8844.5469      -3514.8 
  180000    286.34725   -8784.6338    41.823792   -8826.4576    14328.516 
  180200    302.14869   -8784.4311    44.131745   -8828.5628   -59512.558 
  180400    282.20202   -8793.1098     41.21834   -8834.3282    8683.3592 
  180600    312.68183   -8778.0194    45.670211   -8823.6897    -34519.75 
  180800    307.89944   -8789.5142    44.971697   -8834.4859    34395.488 
  181000    356.11591   -8788.5331    52.014181   -8840.5473    48650.143 
  181200    325.33594   -8779.2575    47.518468    -8826.776    -10344.28 
  181400    269.89342    -8796.043    39.420549   -8835.4635   -10669.481 
[...]
  950000    261.06853   -8788.7594     38.13159    -8826.891    2958.7398 
  950200    340.47708    -8782.064    49.729978    -8831.794    22629.749 
  950400    367.45615   -8773.5055    53.670532   -8827.1761    7508.9495 
  950600    270.94938   -8792.0061    39.574783   -8831.5808   -14497.425 
  950800    295.71741   -8786.4845    43.192394   -8829.6769   -16906.326 
  951000     392.7723   -8769.1242    57.368202   -8826.4924      10827.6 
  951200    313.14175   -8780.8687    45.737388   -8826.6061   -9207.5274 
  951400    287.02726   -8791.4921    41.923114   -8833.4152    23942.999 
  951600    282.90373   -8788.0242    41.320831   -8829.3451    7092.9275 
  951800    333.94327   -8778.4094    48.775651   -8827.1851    26687.491 
  952000     255.0485   -8793.2136    37.252305   -8830.4659   -1212.5468 
  952200    260.04778   -8788.3268    37.982498   -8826.3093    6037.8972 
  952400     304.4726   -8777.5065    44.471174   -8821.9777    45.162282 
  952600    333.58022   -8776.2375    48.722625   -8824.9601   -15537.351 
  952800    278.68285    -8790.166    40.704331   -8830.8703    -13296.04 
  953000    365.07648   -8777.2836    53.322959   -8830.6065   -13457.036 
  953200    378.05796   -8773.0446    55.219029   -8828.2636    14237.616 
  953400     291.4357   -8788.7921    42.567009   -8831.3591   -18059.961 
  953600    288.48326   -8795.8143    42.135776     -8837.95   -26546.155 
  953800    295.64712   -8786.2423    43.182128   -8829.4245   -14183.537 
  954000     330.7114   -8782.3665    48.303605   -8830.6701    12217.174 
  954200    244.91829   -8802.1304     35.77269   -8837.9031    30418.431 
  954400    243.50672   -8795.6522    35.566516   -8831.2187   -19745.806 
  954600    324.45432   -8782.0726    47.389698   -8829.4623    14096.454 
  954800    274.27993   -8785.1665    40.061242   -8825.2277    36603.649 
  955000    245.83026   -8795.6697    35.905891   -8831.5756    3488.0405 
  955200    289.39323   -8783.9711    42.268685   -8826.2398    6322.8067 
  955400    303.15942   -8782.6653    44.279372   -8826.9447   -3744.5732 
  955600    273.74781   -8788.6588    39.983521   -8828.6424    61561.926 
  955800     356.7378   -8787.4458    52.105013   -8839.5509    24362.186 
  956000    316.41863   -8785.6586    46.216008   -8831.8746   -20700.979 
  956200    365.77285   -8768.8916     53.42467   -8822.3163    -13698.03 
  956400    333.17613   -8788.0029    48.663604   -8836.6665    7864.7912 
  956600    257.64281   -8785.2913    37.631229   -8822.9226   -25178.661 
  956800    345.40218   -8769.0645    50.449336   -8819.5139    10185.425 
  957000    265.99233   -8790.7066    38.850758   -8829.5573   -33912.755 
  957200    304.01526   -8783.4436    44.404375    -8827.848    29393.784 
  957400    365.39769   -8776.8121    53.369875    -8830.182    25561.312 
  957600    309.88664   -8790.2923    45.261948   -8835.5543     22462.96 
  957800    266.48255   -8792.3311     38.92236   -8831.2535   -58637.139 
  958000    386.51559   -8778.1144    56.454348   -8834.5688    50067.345 
  958200    324.53578    -8790.821    47.401596   -8838.2226    20764.965 
  958400    313.49359   -8779.1593    45.788777    -8824.948    22430.959 
  958600    340.82074   -8779.0495    49.780172   -8828.8297   -591.98561 
  958800    292.25347   -8787.5756    42.686452   -8830.2621   -942.12948 
  959000    308.71992   -8786.0235    45.091537    -8831.115     -15013.4 
  959200    270.48893   -8774.6016    39.507531   -8814.1091   -2317.2304 
  959400    256.71087   -8787.6106     37.49511   -8825.1057   -9034.7032 
  959600    306.53399   -8788.3094     44.77226   -8833.0816    65495.984 
  959800    300.21825   -8773.1452    43.849786    -8816.995    41288.485 
  960000    300.98207   -8790.0115    43.961348   -8833.9729     7324.645 
  960200    310.63704    -8794.988     45.37155   -8840.3596   -31973.649 
  960400    305.65502   -8783.7768    44.643878   -8828.4207   -19913.945 
  960600    276.05917   -8784.7379    40.321117    -8825.059    9616.3265 
  960800    311.37346   -8785.1075    45.479113   -8830.5866    455.15234 
  961000    321.27786   -8780.2666    46.925745   -8827.1924    1808.6834 
  961200    287.19735    -8792.018    41.947956    -8833.966   -16347.769 
  961400    246.49902   -8799.6645     36.00357   -8835.6681    1256.9913 
  961600    331.18409    -8779.255    48.372646   -8827.6277    12897.329 
  961800    284.45098   -8789.5125    41.546823   -8831.0593    6354.6463 
  962000    277.11911    -8791.225    40.475933    -8831.701   -23239.999 
  962200    354.96408   -8784.4894    51.845944   -8836.3354    2144.7034 
  962400    282.25692   -8791.4298    41.226359   -8832.6562    32044.188 
  962600     276.6183     -8803.45    40.402784   -8843.8528    43691.793 
  962800     369.8486   -8784.0653    54.019973   -8838.0853    45964.785 
  963000    286.71296   -8787.4825    41.877206   -8829.3597   -13002.703 
  963200    233.65674   -8797.1686    34.127832   -8831.2964    6129.1182 
  963400    305.97168   -8778.9742    44.690129   -8823.6643   -9893.3567 
  963600    266.54425   -8789.6611    38.931371   -8828.5924   -10672.766 
  963800    280.82125   -8796.0408    41.016665   -8837.0574   -9391.9163 
  964000    324.18804   -8780.1085    47.350806   -8827.4593    2409.5631 
  964200    327.96941   -8783.8764    47.903111   -8831.7795    6058.4855 
  964400    254.55995   -8797.9712    37.180948   -8835.1521    -11311.94 
  964600    294.09294   -8784.7623    42.955124   -8827.7174   -29670.893 
  964800    249.43807   -8783.3044    36.432848   -8819.7372    5061.5445 
  965000    316.75189   -8789.8754    46.264683   -8836.1401    10732.694 
  965200    238.82139   -8801.0124    34.882179   -8835.8946   -4386.7837 
  965400    336.72134   -8782.3115    49.181415   -8831.4929   -51031.365 
  965600    328.26493   -8786.9443    47.946275   -8834.8905    3711.1022 
  965800    255.97021   -8796.4801     37.38693   -8833.8671   -17798.683 
  966000    318.26383   -8780.9287    46.485517   -8827.4143   -32185.993 
  966200    257.68754   -8787.9919    37.637763   -8825.6297   -12346.119 
  966400    275.56328   -8787.0833    40.248688    -8827.332    18303.161 
  966600    307.42447   -8777.6887    44.902323    -8822.591   -44884.314 
  966800    301.60097    -8784.097    44.051745   -8828.1487    15266.592 
  967000    270.53824    -8791.959    39.514732   -8831.4738   -14534.139 
  967200     307.1943    -8781.762    44.868706   -8826.6307   -19209.526 
  967400    278.64688   -8792.8508    40.699077   -8833.5499   -10286.448 
  967600    309.43876   -8788.8316    45.196531   -8834.0281   -11806.558 
  967800    341.36041   -8773.7781    49.858996   -8823.6371   -6152.8998 
  968000    249.91545   -8791.0664    36.502574    -8827.569   -30006.685 
  968200    302.27777   -8791.5245    44.150598   -8835.6751   -15398.973 
  968400    251.47727   -8804.8462    36.730693   -8841.5768    38499.166 
  968600    292.42417    -8790.856    42.711385   -8833.5674     11563.01 
  968800     282.0693   -8796.3671    41.198955   -8837.5661    33764.607 
  969000    292.95554   -8791.8053    42.788996   -8834.5943   -39384.176 
  969200    320.59767   -8785.1897    46.826397   -8832.0161   -13408.421 
  969400    315.85929   -8796.0858    46.134311   -8842.2202     11032.51 
  969600    312.57654   -8779.8374    45.654834   -8825.4923    5636.5881 
  969800    306.36304    -8786.446    44.747291   -8831.1933    1256.6255 
  970000    250.18361   -8798.1073    36.541741    -8834.649    11929.871 
  970200    313.21293   -8781.5884    45.747784   -8827.3362    20311.999 
  970400    302.10393   -8784.9932    44.125207   -8829.1184   -3059.9125 
  970600    265.28012   -8795.1341    38.746733   -8833.8809   -35408.034 
  970800    269.82442   -8792.2757    39.410472   -8831.6862   -4762.2274 
  971000    308.94703   -8780.7543    45.124707    -8825.879   -24989.413 
  971200    265.26702   -8789.5405    38.744819   -8828.2854   -721.50542 
  971400    282.97831   -8797.4672    41.331725   -8838.7989    14758.145 
  971600    329.70604    -8782.087    48.156763   -8830.2437    1829.0393 
  971800    307.87686   -8783.8512      44.9684   -8828.8196    6973.4856 
  972000    252.80501   -8800.8111    36.924622   -8837.7357    223.23268 
  972200    333.99306   -8784.3208    48.782924   -8833.1037    10325.394 
  972400    317.84926   -8781.3204    46.424966   -8827.7453   -16658.037 
  972600    269.40484   -8797.1999    39.349188    -8836.549   -31253.781 
  972800    339.12691     -8783.53    49.532772   -8833.0628   -4345.3215 
  973000     310.8883   -8784.7482     45.40825   -8830.1564    12383.546 
  973200    243.12406   -8798.5552    35.510625   -8834.0658    4827.5087 
  973400    312.20389   -8783.9997    45.600403   -8829.6001    31906.979 
  973600      272.906   -8785.4668    39.860566   -8825.3274   -2224.9418 
  973800    266.98281   -8792.6072    38.995427   -8831.6026       -34251 
  974000    323.65597   -8775.7291    47.273091   -8823.0021   -5466.4859 
  974200    256.48141   -8788.9221    37.461595   -8826.3837   -16493.365 
  974400    381.74284   -8776.2936    55.757242   -8832.0509   -3796.1853 
  974600     308.0952   -8784.3921     45.00029   -8829.3924   -13099.325 
  974800     279.3894   -8792.0954    40.807531   -8832.9029   -19115.657 
  975000    284.67346   -8796.6198    41.579317   -8838.1991    11318.837 
  975200      335.969   -8782.3523    49.071528   -8831.4238    9097.6867 
  975400    311.00231   -8778.2032    45.424902   -8823.6281   -22707.272 
  975600    285.57468   -8797.8456     41.71095   -8839.5566   -5168.7451 
  975800    243.04171   -8784.1457    35.498598   -8819.6443    -5044.884 
  976000    335.23766    -8781.626     48.96471   -8830.5907    4121.7669 
  976200    272.22659   -8793.8284    39.761332   -8833.5897   -756.77014 
  976400    305.32299   -8786.9395    44.595381   -8831.5348    10378.244 
  976600    333.24747    -8786.819    48.674022    -8835.493   -3715.7978 
  976800    295.50216   -8784.9882    43.160955   -8828.1492     4052.799 
  977000    279.59959   -8793.0792    40.838229   -8833.9174     8831.588 
  977200    315.83448    -8778.444    46.130686   -8824.5747    10130.525 
  977400    279.94311   -8788.6258    40.888404   -8829.5142   -1523.4855 
  977600    307.42176   -8790.9288    44.901927   -8835.8307    36243.737 
  977800    323.39931   -8785.6409    47.235604   -8832.8765    12312.938 
  978000    345.83794   -8777.1223    50.512984   -8827.6353   -40434.468 
  978200    292.15636   -8789.9305    42.672269   -8832.6028   -34458.098 
  978400    289.08833   -8799.5483    42.224153   -8841.7725    34738.685 
  978600    275.35799   -8781.9507    40.218703   -8822.1694    29221.779 
  978800    261.89509   -8784.7754    38.252316   -8823.0277    30015.575 
  979000    280.61488   -8793.2566    40.986523   -8834.2431   -8652.5157 
  979200    288.42888   -8795.8981    42.127834    -8838.026   -6868.6324 
  979400    335.18154   -8779.4012    48.956513   -8828.3577    6693.5709 
  979600    276.85369   -8790.0864    40.437165   -8830.5236   -11123.943 
  979800    289.62556   -8793.5057     42.30262   -8835.8083    -9980.422 
  980000    326.07537   -8782.2531    47.626468   -8829.8796   -1373.2369 
  980200     349.9335   -8772.8502    51.111179   -8823.9614   -13067.992 
  980400     329.4268   -8786.3452    48.115977   -8834.4612    8878.6287 
  980600    342.85523   -8785.5107    50.077329    -8835.588    53112.911 
  980800    344.58512   -8768.5288    50.329997   -8818.8588   -12670.986 
  981000    313.09962   -8785.2453    45.731234   -8830.9765   -5157.9377 
  981200    275.14835   -8795.4247    40.188084   -8835.6128    2129.3863 
  981400     266.2823   -8797.5194     38.89311   -8836.4125    -4169.052 
  981600     285.9597   -8781.7211    41.767185   -8823.4882   -24927.353 
  981800    282.29432   -8787.7612    41.231821   -8828.9931    -5005.594 
  982000    258.89934   -8798.7552    37.814757     -8836.57    26617.405 
  982200    336.69367   -8778.8672    49.177374   -8828.0446   -6628.6981 
  982400    273.47847   -8789.7875    39.944181   -8829.7317   -27305.223 
  982600    305.76418     -8795.21    44.659822   -8839.8698   -18639.241 
  982800    217.91027   -8800.6107    31.827908   -8832.4386    39004.456 
  983000    298.88207   -8786.1918    43.654623   -8829.8465   -15515.898 
  983200    297.01855   -8780.4862    43.382438   -8823.8686    20311.365 
  983400    233.16653     -8798.46    34.056232   -8832.5162    40132.037 
  983600    289.06832   -8783.9673    42.221229   -8826.1886     37239.62 
  983800    318.15181   -8784.5973    46.469155   -8831.0664   -25313.563 
  984000    230.83832   -8802.8123    33.716174   -8836.5284   -15440.173 
  984200    284.51255   -8792.0095    41.555815   -8833.5653   -14419.836 
  984400    322.41429    -8783.372    47.091732   -8830.4637    40382.367 
  984600    313.63933   -8787.3313    45.810065   -8833.1413   -38444.651 
  984800    237.81167   -8797.7823    34.734699    -8832.517    -33383.65 
  985000     261.1617   -8782.2622    38.145197   -8820.4074   -2890.3742 
  985200    249.94836   -8782.6775     36.50738   -8819.1849   -13736.979 
  985400    319.04148   -8781.1216    46.599101   -8827.7207    33300.247 
  985600    246.51187   -8795.4408    36.005448   -8831.4462    26346.957 
  985800    351.45895   -8780.0025    51.333986   -8831.3365     7875.731 
  986000    342.22382   -8781.2328    49.985105   -8831.2179    6128.9125 
  986200    245.31483   -8787.2385    35.830608   -8823.0691    17993.217 
  986400    328.31091    -8786.123    47.952991    -8834.076   -5484.2867 
  986600    334.20531   -8773.3924    48.813925   -8822.2063   -16963.907 
  986800    272.06228   -8791.1515    39.737332   -8830.8888    8458.7682 
  987000    296.91356   -8792.8478    43.367103   -8836.2149    35667.675 
  987200    244.55708   -8786.0029    35.719932   -8821.7228   -2490.9971 
  987400    372.85379   -8773.8268     54.45891   -8828.2857    21186.483 
  987600    237.16849   -8799.7045    34.640757   -8834.3452    8437.2769 
  987800    301.89213   -8785.6657    44.094271     -8829.76    13449.536 
  988000    362.47561   -8777.1073    52.943076   -8830.0504    1785.4956 
  988200    238.16771   -8793.2954    34.786702   -8828.0821   -16336.212 
  988400    312.88938   -8786.2565    45.700526    -8831.957   -17782.221 
  988600    329.64896   -8769.8543    48.148426   -8818.0027   -31144.844 
  988800     267.3504    -8790.652    39.049117   -8829.7011   -7223.1739 
  989000    340.10011   -8786.5135    49.674918   -8836.1885   -9126.2851 
  989200     360.6465   -8771.7205    52.675916   -8824.3964   -24401.988 
  989400    306.29853   -8784.9267    44.737869   -8829.6646    19805.155 
  989600    289.45603   -8790.2614    42.277859   -8832.5392    24803.037 
  989800    313.12475   -8779.6443    45.734904   -8825.3792    22015.458 
  990000    294.11316   -8787.9296    42.958078   -8830.8877    18380.214 
  990200     295.2329   -8795.2861    43.121626   -8838.4077   -16147.551 
  990400    330.87657   -8776.3538     48.32773   -8824.6815   -13369.082 
  990600    271.43332   -8785.3305    39.645467   -8824.9759    36418.153 
  990800    267.26979   -8788.0928    39.037343   -8827.1301    15265.252 
  991000    269.18568   -8784.8545    39.317178   -8824.1717    32184.354 
  991200    289.13429   -8786.5855    42.230866   -8828.8164   -1256.4653 
  991400    301.55732    -8788.457     44.04537   -8832.5023    5522.1416 
  991600    265.05576   -8794.5777    38.713963   -8833.2916   -19305.371 
  991800    307.75778   -8779.4569    44.951007   -8824.4079   -56232.526 
  992000    303.00237   -8793.3122    44.256433   -8837.5686    5988.2196 
  992200    272.31583   -8792.4634    39.774367   -8832.2378   -4039.6718 
  992400     292.9874   -8780.6788     42.79365   -8823.4725    31038.111 
  992600    281.89717   -8793.3733    41.173814   -8834.5471   -26274.664 
  992800    298.24793   -8793.4944       43.562   -8837.0564    14427.265 
  993000    295.43092   -8784.3877    43.150549   -8827.5382    9152.9688 
  993200    293.42419   -8789.3891    42.857446   -8832.2466    23040.134 
  993400    234.12679   -8800.7041    34.196487   -8834.9006    6559.1551 
  993600     311.8832   -8784.3008    45.553564   -8829.8544   -45956.958 
  993800    297.15722   -8783.2101    43.402692   -8826.6128   -18896.936 
  994000    345.16137   -8791.3346    50.414163   -8841.7488    34433.094 
  994200    294.61208   -8791.6885     43.03095   -8834.7195    27295.339 
  994400     309.5688   -8779.5241    45.215523   -8824.7396    -15954.73 
  994600    282.15579   -8790.9823    41.211588   -8832.1939    6160.9613 
  994800    223.55134   -8805.7375    32.651839   -8838.3894    26439.751 
  995000    280.88681   -8793.7196    41.026241   -8834.7458   -34128.723 
  995200    277.81634   -8781.9668     40.57777   -8822.5446    16680.078 
  995400    289.10262   -8780.3968     42.22624   -8822.6231   -23500.598 
  995600    277.64633   -8794.2867    40.552938   -8834.8397   -16014.181 
  995800    353.74658   -8776.9907    51.668117   -8828.6588   -6526.1771 
  996000    353.44843   -8776.1888    51.624568   -8827.8134    -1217.731 
  996200    322.89355   -8790.8093    47.161732    -8837.971   -9615.0775 
  996400    277.42962   -8791.3323    40.521285   -8831.8536   -7308.4051 
  996600    381.30618   -8775.7498    55.693463   -8831.4433    13856.931 
  996800    276.13743   -8780.4778    40.332549   -8820.8104    19314.803 
  997000    311.05494   -8792.4472    45.432589   -8837.8798   -18980.411 
  997200    248.26066   -8804.4027    36.260876   -8840.6636    7453.0436 
  997400    325.64769   -8786.1056    47.564001   -8833.6696   -10072.462 
  997600    284.33042   -8786.5459    41.529213   -8828.0751   -19763.541 
  997800    262.19304   -8804.0877    38.295835   -8842.3835   -27082.449 
  998000    264.37461   -8791.9272    38.614474   -8830.5417    30817.053 
  998200    255.44732   -8779.5808    37.310556   -8816.8913   -20261.317 
  998400     251.0244   -8786.8479    36.664547   -8823.5125    10414.116 
  998600    295.32387   -8793.7649    43.134913   -8836.8998    -961.8546 
  998800    309.27887   -8786.5253    45.173177   -8831.6985    20693.612 
  999000    323.35338   -8788.9122    47.228895   -8836.1411    5336.6657 
  999200    326.63738   -8787.7439    47.708555   -8835.4525   -25323.396 
  999400    305.13097   -8790.5441    44.567336   -8835.1114   -28026.667 
  999600    314.01341    -8776.031    45.864703   -8821.8957    -19735.14 
  999800    277.64702   -8787.3785    40.553039   -8827.9316   -18613.369 
 1000000    276.00289   -8793.6983    40.312898   -8834.0112   -16405.052 
Loop time of 5662.05 on 8 procs for 1000000 steps with 50 atoms

Performance: 3.815 ns/day, 6.291 hours/ns, 176.615 timesteps/s
99.1% CPU use with 8 MPI tasks x no OpenMP threads

MPI task timing breakdown:
Section |  min time  |  avg time  |  max time  |%varavg| %total
---------------------------------------------------------------
Pair    | 3728.2     | 3962.6     | 5256.9     | 778.8 | 69.99
Neigh   | 2.4986     | 2.539      | 2.6248     |   2.3 |  0.04
Comm    | 44.094     | 1338.4     | 1572.4     |1340.1 | 23.64
Output  | 0.12964    | 0.14855    | 0.27634    |  12.5 |  0.00
Modify  | 353.65     | 354.57     | 355.51     |   2.9 |  6.26
Other   |            | 3.785      |            |       |  0.07

Nlocal:    6.25 ave 8 max 6 min
Histogram: 7 0 0 0 0 0 0 0 0 1
Nghost:    909.375 ave 929 max 896 min
Histogram: 2 0 2 1 1 0 0 0 1 1
Neighs:    1752.88 ave 2211 max 1674 min
Histogram: 7 0 0 0 0 0 0 0 0 1

Total # of neighbors = 14023
Ave neighs/atom = 280.46
Neighbor list builds = 1143
Dangerous builds = 0

Please see the log.cite file for references relevant to this simulation

Total wall time: 1:34:29
