LAMMPS (3 Mar 2020)
Reading data file ...
  orthogonal box = (0 0 0) to (13.6 13.6 13.6)
  2 by 2 by 2 MPI processor grid
  reading atoms ...
  73 atoms
  read_data CPU = 0.0288634 secs
WARNING: Using 'neigh_modify every 1 delay 0 check yes' setting during minimization (../min.cpp:190)
WARNING: Total cutoff < 2*bond cutoff. May need to use an increased neighbor list skin. (../pair_reaxc.cpp:413)
Neighbor list info ...
  update every 1 steps, delay 0 steps, check yes
  max neighbors/atom: 2000, page size: 100000
  master list distance cutoff = 9.5
  ghost atom cutoff = 9.5
  binsize = 4.75, bins = 3 3 3
  2 neighbor lists, perpetual/occasional/extra = 2 0 0
  (1) pair reax/c, perpetual
      attributes: half, newton off, ghost
      pair build: half/bin/newtoff/ghost
      stencil: half/ghost/bin/3d/newtoff
      bin: standard
  (2) fix qeq/reax, perpetual, copy from (1)
      attributes: half, newton off, ghost
      pair build: copy
      stencil: none
      bin: none
Setting up cg style minimization ...
  Unit style    : real
  Current step  : 0
Per MPI rank memory allocation (min/avg/max) = 15.74 | 16.73 | 17.08 Mbytes
Step Temp E_pair E_mol TotEng Press 
       0            0   -13467.099            0   -13467.099    5648.9299 
     113            0   -13514.461            0   -13514.461   -11030.937 
Loop time of 1.69108 on 8 procs for 113 steps with 73 atoms

99.3% CPU use with 8 MPI tasks x no OpenMP threads

Minimization stats:
  Stopping criterion = energy tolerance
  Energy initial, next-to-last, final = 
        -13467.0988244     -13514.4605625     -13514.4606806
  Force two-norm initial, final = 337.176 34.2847
  Force max component initial, final = 168.382 7.53659
  Final line search alpha, max atom move = 0.00020731 0.00156241
  Iterations, force evaluations = 113 717

MPI task timing breakdown:
Section |  min time  |  avg time  |  max time  |%varavg| %total
---------------------------------------------------------------
Pair    | 1.121      | 1.2226     | 1.2687     |   5.3 | 72.30
Neigh   | 0          | 0          | 0          |   0.0 |  0.00
Comm    | 0.013665   | 0.059283   | 0.16066    |  23.9 |  3.51
Output  | 0.0002083  | 0.00025712 | 0.0003585  |   0.0 |  0.02
Modify  | 0.4047     | 0.40492    | 0.40503    |   0.0 | 23.94
Other   |            | 0.004025   |            |       |  0.24

Nlocal:    9.125 ave 13 max 0 min
Histogram: 2 0 0 0 0 0 0 0 0 6
Nghost:    488.875 ave 492 max 484 min
Histogram: 1 0 0 1 0 3 0 0 0 3
Neighs:    825.75 ave 1172 max 0 min
Histogram: 2 0 0 0 0 0 0 0 0 6

Total # of neighbors = 6606
Ave neighs/atom = 90.4932
Neighbor list builds = 0
Dangerous builds = 0
WARNING: Using 'neigh_modify every 1 delay 0 check yes' setting during minimization (../min.cpp:190)
WARNING: Total cutoff < 2*bond cutoff. May need to use an increased neighbor list skin. (../pair_reaxc.cpp:413)
Setting up cg style minimization ...
  Unit style    : real
  Current step  : 113
Per MPI rank memory allocation (min/avg/max) = 15.74 | 16.73 | 17.08 Mbytes
Step Temp E_pair E_mol TotEng Press 
     113            0   -13514.461            0   -13514.461   -11030.937 
     114            0   -13514.461            0   -13514.461   -11030.925 
Loop time of 0.022659 on 8 procs for 1 steps with 73 atoms

99.3% CPU use with 8 MPI tasks x no OpenMP threads

Minimization stats:
  Stopping criterion = energy tolerance
  Energy initial, next-to-last, final = 
        -13514.4606806     -13514.4606806     -13514.4607512
  Force two-norm initial, final = 34.2847 34.2734
  Force max component initial, final = 7.53659 7.53634
  Final line search alpha, max atom move = 0.000207322 0.00156245
  Iterations, force evaluations = 1 9

MPI task timing breakdown:
Section |  min time  |  avg time  |  max time  |%varavg| %total
---------------------------------------------------------------
Pair    | 0.01559    | 0.017005   | 0.017536   |   0.6 | 75.05
Neigh   | 0          | 0          | 0          |   0.0 |  0.00
Comm    | 0.00017682 | 0.00070494 | 0.0021152  |   0.0 |  3.11
Output  | 0          | 0          | 0          |   0.0 |  0.00
Modify  | 0.004849   | 0.0048503  | 0.0048512  |   0.0 | 21.41
Other   |            | 9.897e-05  |            |       |  0.44

Nlocal:    9.125 ave 13 max 0 min
Histogram: 2 0 0 0 0 0 0 0 0 6
Nghost:    490.375 ave 492 max 488 min
Histogram: 2 0 1 0 0 1 0 0 0 4
Neighs:    823 ave 1169 max 0 min
Histogram: 2 0 0 0 0 0 0 0 0 6

Total # of neighbors = 6584
Ave neighs/atom = 90.1918
Neighbor list builds = 0
Dangerous builds = 0
WARNING: Using 'neigh_modify every 1 delay 0 check yes' setting during minimization (../min.cpp:190)
WARNING: Total cutoff < 2*bond cutoff. May need to use an increased neighbor list skin. (../pair_reaxc.cpp:413)
Setting up cg style minimization ...
  Unit style    : real
  Current step  : 114
WARNING: Energy due to 3 extra global DOFs will be included in minimizer energies
Per MPI rank memory allocation (min/avg/max) = 15.74 | 16.73 | 17.08 Mbytes
Step Temp E_pair E_mol TotEng Press Volume 
     114            0   -13514.461            0   -13514.461   -11030.925     2515.456 
     484            0   -13517.255            0   -13517.255     144.4211     2504.093 
Loop time of 1.34007 on 8 procs for 370 steps with 73 atoms

99.4% CPU use with 8 MPI tasks x no OpenMP threads

Minimization stats:
  Stopping criterion = energy tolerance
  Energy initial, next-to-last, final = 
        -13514.4607512     -13517.2548539     -13517.2549672
  Force two-norm initial, final = 705.263 11.1507
  Force max component initial, final = 434.245 5.52174
  Final line search alpha, max atom move = 2.29355e-06 1.26644e-05
  Iterations, force evaluations = 370 636

MPI task timing breakdown:
Section |  min time  |  avg time  |  max time  |%varavg| %total
---------------------------------------------------------------
Pair    | 0.9808     | 1.0726     | 1.1069     |   4.9 | 80.04
Neigh   | 0          | 0          | 0          |   0.0 |  0.00
Comm    | 0.012135   | 0.046277   | 0.13783    |  23.4 |  3.45
Output  | 0.00064989 | 0.0008015  | 0.0010783  |   0.0 |  0.06
Modify  | 0.21015    | 0.21021    | 0.21029    |   0.0 | 15.69
Other   |            | 0.01019    |            |       |  0.76

Nlocal:    9.125 ave 13 max 0 min
Histogram: 2 0 0 0 0 0 0 0 0 6
Nghost:    490.375 ave 492 max 488 min
Histogram: 2 0 1 0 0 1 0 0 0 4
Neighs:    823 ave 1169 max 0 min
Histogram: 2 0 0 0 0 0 0 0 0 6

Total # of neighbors = 6584
Ave neighs/atom = 90.1918
Neighbor list builds = 0
Dangerous builds = 0
WARNING: Using 'neigh_modify every 1 delay 0 check yes' setting during minimization (../min.cpp:190)
WARNING: Total cutoff < 2*bond cutoff. May need to use an increased neighbor list skin. (../pair_reaxc.cpp:413)
Setting up cg style minimization ...
  Unit style    : real
  Current step  : 484
Per MPI rank memory allocation (min/avg/max) = 15.74 | 16.73 | 17.08 Mbytes
Step Temp E_pair E_mol TotEng Press 
     484            0   -13517.255            0   -13517.255     144.4211 
     485            0   -13517.255            0   -13517.255    141.56364 
Loop time of 0.0394464 on 8 procs for 1 steps with 73 atoms

99.4% CPU use with 8 MPI tasks x no OpenMP threads

Minimization stats:
  Stopping criterion = energy tolerance
  Energy initial, next-to-last, final = 
        -13517.2549672     -13517.2549672     -13517.2550521
  Force two-norm initial, final = 6.36681 11.0664
  Force max component initial, final = 1.53237 5.99381
  Final line search alpha, max atom move = 3.98306e-06 2.38737e-05
  Iterations, force evaluations = 1 17

MPI task timing breakdown:
Section |  min time  |  avg time  |  max time  |%varavg| %total
---------------------------------------------------------------
Pair    | 0.028107   | 0.030556   | 0.031648   |   0.8 | 77.46
Neigh   | 0          | 0          | 0          |   0.0 |  0.00
Comm    | 0.00033496 | 0.0014217  | 0.0038659  |   3.7 |  3.60
Output  | 0          | 0          | 0          |   0.0 |  0.00
Modify  | 0.0073307  | 0.0073345  | 0.0073392  |   0.0 | 18.59
Other   |            | 0.0001344  |            |       |  0.34

Nlocal:    9.125 ave 13 max 0 min
Histogram: 2 0 0 0 0 0 0 0 0 6
Nghost:    492.375 ave 496 max 488 min
Histogram: 1 0 0 0 0 4 1 1 0 1
Neighs:    823.75 ave 1172 max 0 min
Histogram: 2 0 0 0 0 0 0 0 0 6

Total # of neighbors = 6590
Ave neighs/atom = 90.274
Neighbor list builds = 0
Dangerous builds = 0
WARNING: Using 'neigh_modify every 1 delay 0 check yes' setting during minimization (../min.cpp:190)
WARNING: Total cutoff < 2*bond cutoff. May need to use an increased neighbor list skin. (../pair_reaxc.cpp:413)
Setting up cg style minimization ...
  Unit style    : real
  Current step  : 485
WARNING: Energy due to 3 extra global DOFs will be included in minimizer energies
Per MPI rank memory allocation (min/avg/max) = 15.74 | 16.73 | 17.08 Mbytes
Step Temp E_pair E_mol TotEng Press Volume 
     485            0   -13517.255            0   -13517.255    141.56364     2504.093 
     486            0   -13517.255            0   -13517.255   -189.84205    2504.1552 
Loop time of 0.00634336 on 8 procs for 1 steps with 73 atoms

99.3% CPU use with 8 MPI tasks x no OpenMP threads

Minimization stats:
  Stopping criterion = energy tolerance
  Energy initial, next-to-last, final = 
        -13517.2550521     -13517.2550521     -13517.2551529
  Force two-norm initial, final = 14.2435 13.1493
  Force max component initial, final = 5.99381 7.43889
  Final line search alpha, max atom move = 1.84353e-05 0.000137138
  Iterations, force evaluations = 1 2

MPI task timing breakdown:
Section |  min time  |  avg time  |  max time  |%varavg| %total
---------------------------------------------------------------
Pair    | 0.0047029  | 0.0051152  | 0.005304   |   0.3 | 80.64
Neigh   | 0          | 0          | 0          |   0.0 |  0.00
Comm    | 4.5826e-05 | 0.00023312 | 0.00064469 |   0.0 |  3.68
Output  | 0          | 0          | 0          |   0.0 |  0.00
Modify  | 0.00091492 | 0.00091529 | 0.00091606 |   0.0 | 14.43
Other   |            | 7.978e-05  |            |       |  1.26

Nlocal:    9.125 ave 13 max 0 min
Histogram: 2 0 0 0 0 0 0 0 0 6
Nghost:    492.375 ave 496 max 488 min
Histogram: 1 0 0 0 0 4 1 1 0 1
Neighs:    823.75 ave 1172 max 0 min
Histogram: 2 0 0 0 0 0 0 0 0 6

Total # of neighbors = 6590
Ave neighs/atom = 90.274
Neighbor list builds = 0
Dangerous builds = 0
WARNING: Using 'neigh_modify every 1 delay 0 check yes' setting during minimization (../min.cpp:190)
WARNING: Total cutoff < 2*bond cutoff. May need to use an increased neighbor list skin. (../pair_reaxc.cpp:413)
Setting up cg style minimization ...
  Unit style    : real
  Current step  : 486
Per MPI rank memory allocation (min/avg/max) = 15.74 | 16.73 | 17.08 Mbytes
Step Temp E_pair E_mol TotEng Press 
     486            0   -13517.255            0   -13517.255   -189.84205 
     499            0   -13517.263            0   -13517.263    39.367704 
Loop time of 0.316713 on 8 procs for 13 steps with 73 atoms

99.4% CPU use with 8 MPI tasks x no OpenMP threads

Minimization stats:
  Stopping criterion = energy tolerance
  Energy initial, next-to-last, final = 
        -13517.2551529     -13517.2633115     -13517.2634379
  Force two-norm initial, final = 5.31319 12.4346
  Force max component initial, final = 1.56076 5.80843
  Final line search alpha, max atom move = 9.22345e-06 5.35738e-05
  Iterations, force evaluations = 13 139

MPI task timing breakdown:
Section |  min time  |  avg time  |  max time  |%varavg| %total
---------------------------------------------------------------
Pair    | 0.21923    | 0.23799    | 0.24651    |   2.2 | 75.15
Neigh   | 0          | 0          | 0          |   0.0 |  0.00
Comm    | 0.0023701  | 0.010869   | 0.029639   |  10.4 |  3.43
Output  | 1.9096e-05 | 2.3303e-05 | 3.3903e-05 |   0.0 |  0.01
Modify  | 0.067027   | 0.067073   | 0.067101   |   0.0 | 21.18
Other   |            | 0.0007535  |            |       |  0.24

Nlocal:    9.125 ave 13 max 0 min
Histogram: 2 0 0 0 0 0 0 0 0 6
Nghost:    492.375 ave 496 max 488 min
Histogram: 1 0 0 0 0 4 1 1 0 1
Neighs:    823.75 ave 1172 max 0 min
Histogram: 2 0 0 0 0 0 0 0 0 6

Total # of neighbors = 6590
Ave neighs/atom = 90.274
Neighbor list builds = 0
Dangerous builds = 0
WARNING: Total cutoff < 2*bond cutoff. May need to use an increased neighbor list skin. (../pair_reaxc.cpp:413)
Setting up Verlet run ...
  Unit style    : real
  Current step  : 0
  Time step     : 0.25
Per MPI rank memory allocation (min/avg/max) = 14.61 | 15.6 | 15.96 Mbytes
Step Temp TotEng KinEng PotEng Press 
       0          300   -13452.878    64.385497   -13517.263    1214.6973 
     200    173.78968   -13428.452    37.298449    -13465.75     19341.61 
     400    302.04091   -13388.312    64.823514   -13453.136    12711.824 
     600    345.14468   -13373.484    74.074372   -13447.558    8084.8242 
     800    301.14174   -13382.584    64.630536   -13447.215     9427.002 
    1000    262.92414   -13392.608    56.428338   -13449.036    7734.3214 
    1200     358.3023   -13376.271    76.898239   -13453.169   -13865.967 
    1400    286.70921   -13397.866     61.53305   -13459.399    6108.8997 
    1600    320.79153   -13392.279    68.847741   -13461.126     4399.308 
    1800    296.24158   -13382.017    63.578872   -13445.596    5536.2123 
    2000    350.70819   -13365.804    75.268404   -13441.072    25833.814 
    2200    274.63947    -13382.17    58.942663   -13441.113    25621.158 
    2400    294.82645   -13381.035    63.275159    -13444.31   -4387.2145 
    2600    297.65933   -13369.273    63.883146   -13433.156    -5450.556 
    2800    317.99076   -13389.284    68.246645   -13457.531    9604.2941 
    3000    275.76689   -13395.786    59.184628    -13454.97    30700.257 
    3200    345.29865   -13372.942    74.107418    -13447.05    5101.4208 
    3400    307.10779   -13387.696    65.910959   -13453.607   -1033.3216 
    3600    289.96437   -13385.659    62.231667    -13447.89   -8810.3904 
    3800    298.93915   -13380.394    64.157819   -13444.552   -3436.4068 
    4000    262.14481   -13391.445    56.261079   -13447.706   -19479.656 
    4200    307.01868    -13395.77    65.891835   -13461.662   -1849.5882 
    4400    326.45575   -13381.103    70.063387   -13451.167    -1643.736 
    4600    290.53225   -13387.132    62.353545   -13449.486    3034.9218 
    4800    236.97978   -13407.735    50.860202   -13458.596   -2569.7394 
    5000    294.81086   -13391.637    63.271813   -13454.909   -2307.4621 
    5200    286.21127   -13378.261    61.426182   -13439.687    -7908.226 
    5400    317.48832   -13376.357    68.138811   -13444.496    11713.593 
    5600    307.42573   -13392.205    65.979195   -13458.184    9803.7256 
    5800    301.89152   -13373.193    64.791453   -13437.985   -11062.716 
    6000    306.78305   -13380.759    65.841263     -13446.6   -8646.5012 
    6200    325.63662   -13383.102    69.887584    -13452.99    12105.617 
    6400    291.89797   -13382.294    62.646654   -13444.941   -8299.7485 
    6600    277.11533   -13386.417    59.474028   -13445.891   -9150.1293 
    6800     332.0299   -13378.103      71.2597   -13449.363   -8381.5906 
    7000    289.84484   -13386.149    62.206013   -13448.355   -4955.8927 
    7200    243.63275   -13400.603    52.288052   -13452.891   -8260.4519 
    7400    297.47485    -13391.35    63.843554   -13455.193    -2297.003 
    7600    331.79639   -13377.244    71.209584   -13448.454    6453.5356 
    7800    250.63409   -13392.352    53.790669   -13446.142   -11475.339 
    8000     313.2787   -13388.641     67.23535   -13455.877    9421.4604 
    8200     314.6344   -13377.048    67.526308   -13444.574    21716.437 
    8400    288.20751   -13387.837    61.854612   -13449.692   -2907.0632 
    8600     245.2643   -13398.959    52.638213   -13451.597    24281.847 
    8800    302.77869   -13387.367    64.981856   -13452.348    9773.5342 
    9000    305.72661   -13381.668    65.614532   -13447.283   -6673.9849 
    9200    264.80852   -13394.282    56.832762   -13451.115   -17097.383 
    9400    323.65614   -13373.794    69.462538   -13443.256    2422.1786 
    9600    348.72929   -13373.901    74.843695   -13448.744    18326.314 
    9800     320.7036   -13397.205     68.82887   -13466.033    2648.9105 
   10000    301.93138   -13381.052    64.800008   -13445.852   -3322.1753 
   10200    319.56733   -13388.498    68.585006   -13457.083    -4890.364 
   10400     278.0739   -13395.942    59.679753   -13455.622    6395.4252 
   10600    285.88983   -13386.827    61.357197   -13448.185    -3964.593 
   10800     264.8931   -13375.295    56.850913   -13432.146   -7675.4551 
   11000    300.83855   -13375.131    64.565466   -13439.696   -6390.5232 
   11200    273.27804   -13389.228    58.650474   -13447.878    4520.6073 
   11400    279.65451   -13380.782    60.018983   -13440.801   -9033.5713 
   11600    307.54691   -13373.644    66.005202   -13439.649    7548.7053 
   11800    320.55724   -13387.355    68.797457   -13456.153   -16902.313 
   12000    320.10253   -13381.433    68.699869   -13450.133   -15014.166 
   12200     306.5805    -13380.03    65.797793   -13445.828    5797.6771 
   12400    258.50409   -13390.453    55.479714   -13445.933    -4480.495 
   12600     344.8663   -13373.457    74.014627   -13447.472    -5958.861 
   12800    280.48375    -13386.22    60.196953   -13446.417    2278.5327 
   13000    305.85279   -13383.747    65.641612   -13449.389   -11641.806 
   13200    255.47907   -13399.616    54.830489   -13454.447   -9118.6063 
   13400    292.90712   -13381.309    62.863235   -13444.172    3454.0848 
   13600    303.20275   -13384.127    65.072867     -13449.2     220.5845 
   13800    302.28378   -13389.397    64.875638   -13454.272    5077.5672 
   14000    334.11398    -13368.53    71.706983   -13440.237    410.77272 
   14200    259.09984   -13386.246    55.607574   -13441.854   -17723.365 
   14400    253.99634   -13389.798     54.51227   -13444.311   -3427.0174 
   14600    351.85152   -13369.001    75.513784   -13444.514   -17957.324 
   14800    273.08771   -13383.041    58.609627   -13441.651   -804.71522 
   15000    297.91721   -13389.081    63.938492    -13453.02    9457.4527 
   15200    303.74447   -13386.723     65.18913   -13451.912    -4676.293 
   15400     336.8168   -13366.718    72.287057   -13439.005   -4092.7538 
   15600     334.3133   -13387.086     71.74976   -13458.836   -2337.4642 
   15800    301.69563   -13387.595     64.74941   -13452.344    6093.8692 
   16000    311.80088   -13380.235    66.918182   -13447.153   -9023.0951 
   16200    340.94214   -13365.326     73.17243   -13438.498    5507.9215 
   16400    264.87515   -13384.322    56.847062   -13441.169     -20275.8 
   16600    318.21169   -13381.871    68.294059   -13450.166    19027.549 
   16800    263.90111   -13391.862    56.638013     -13448.5    3025.1521 
   17000    282.21791   -13382.423    60.569135   -13442.992    3238.2269 
   17200    326.17337   -13378.434    70.002782   -13448.437    6236.2767 
   17400    339.26874   -13384.637    72.813289    -13457.45      8614.72 
   17600    288.70706   -13383.546    61.961826   -13445.508   -7018.0387 
   17800    348.23097   -13368.584    74.736747    -13443.32   -7638.2933 
   18000    302.84865   -13388.754    64.996869   -13453.751   -2034.8848 
   18200    322.36147   -13382.551    69.184678   -13451.736   -1422.3639 
   18400    237.12075   -13396.091    50.890457   -13446.982   -4587.9296 
   18600    292.96423   -13393.134    62.875492   -13456.009    8931.1301 
   18800    315.19003   -13382.847    67.645556   -13450.493    8369.5361 
   19000    233.42959   -13400.175    50.098267   -13450.273   -13346.716 
   19200    312.87678   -13395.008    67.149089   -13462.158    4625.5752 
   19400    272.62484   -13379.981    58.510286   -13438.491   -23056.129 
   19600    290.91425   -13380.237    62.435528   -13442.673    1814.8098 
   19800    276.87762   -13391.826    59.423011   -13451.249    8054.6968 
   20000    349.42366   -13372.568     74.99272    -13447.56    16832.061 
   20200    280.22151   -13395.749     60.14067    -13455.89   -5936.5682 
   20400    303.77578   -13391.205    65.195849   -13456.401   -17491.142 
   20600    334.79688   -13375.216    71.853545   -13447.069    2454.0901 
   20800    296.34665   -13386.318    63.601421    -13449.92    17542.855 
   21000    288.74049   -13377.314    61.969001   -13439.283    5094.4908 
   21200    304.76327   -13381.558    65.407782   -13446.966    19187.128 
   21400    289.74746   -13392.724    62.185113   -13454.909   -6955.8161 
   21600    318.47189   -13369.963    68.349903   -13438.313   -78.990462 
   21800    355.72459   -13383.422    76.345016   -13459.767    9939.6214 
   22000    295.19471   -13390.644    63.354193   -13453.998    -18411.33 
   22200    299.81843   -13379.559     64.34653   -13443.905    2689.1275 
   22400    365.51962   -13371.303    78.447209    -13449.75    18232.131 
   22600    261.95362   -13390.608    56.220046   -13446.828    4015.0093 
   22800    309.73181   -13377.392    66.474121   -13443.866   -6103.6553 
   23000    342.72112   -13359.458    73.554232   -13433.012    20921.086 
   23200     309.6316   -13386.663    66.452616   -13453.115    16038.062 
   23400    294.62312   -13395.718     63.23152    -13458.95   -13032.179 
   23600    338.11683   -13374.163    72.566067   -13446.729   -12960.634 
   23800    286.66394   -13384.348    61.523334   -13445.872    17591.973 
   24000    239.78277   -13400.229    51.461776   -13451.691    8995.8422 
   24200    260.65671   -13387.736    55.941707   -13443.677   -3286.5015 
   24400    367.38346   -13377.846    78.847222   -13456.693    16638.979 
   24600    255.48222   -13399.848    54.831166   -13454.679   -8536.9674 
   24800    268.01133   -13383.152    57.520142   -13440.672        19659 
   25000    316.07108   -13375.171    67.834646   -13443.006   -613.45602 
   25200    290.84106   -13398.494    62.419821   -13460.914    2853.8624 
   25400    337.22235     -13386.1    72.374095   -13458.474   -24006.864 
   25600    285.99734   -13385.719    61.380269   -13447.099    -8997.242 
   25800    307.47911   -13380.017     65.99065   -13446.008    3089.5363 
   26000    321.30983   -13372.266    68.958978   -13441.225    1274.5338 
   26200    285.60367   -13388.465     61.29578   -13449.761   -8702.9733 
   26400    326.01174   -13373.962    69.968092    -13443.93   -8533.1747 
   26600    286.52798    -13392.02    61.494154   -13453.514    3706.3423 
   26800    306.08049   -13386.063    65.690481   -13451.754   -2218.0858 
   27000    376.28588   -13370.661    80.757844   -13451.418   -4453.1227 
   27200    273.29854   -13385.936    58.654875   -13444.591   -10927.549 
   27400    274.57115   -13388.691    58.928001   -13447.619    -21523.01 
   27600      286.876   -13380.505    61.568846   -13442.074   -11527.541 
   27800    263.56982   -13395.711    56.566914   -13452.278   -9823.4221 
   28000    305.11151   -13374.701     65.48252   -13440.184   -4791.1101 
   28200    276.09864   -13379.674    59.255828    -13438.93   -9650.2702 
   28400    304.87155   -13387.045    65.431022   -13452.476    -111.4886 
   28600    247.10799   -13404.017    53.033903   -13457.051    4693.0555 
   28800    286.65951   -13386.319    61.522383   -13447.841   -1314.3309 
   29000    265.62778   -13377.964    57.008589   -13434.972    7557.4362 
   29200     330.3988   -13368.019    70.909636   -13438.929    9159.9807 
   29400    249.68572   -13383.975     53.58713   -13437.563   -5043.1029 
   29600    339.89557   -13372.605    72.947817   -13445.552    15947.319 
   29800    267.93715   -13391.031    57.504222   -13448.536   -7575.2069 
   30000    344.84855   -13376.903    74.010817   -13450.914    8752.1303 
   30200    344.94748   -13383.612    74.032049   -13457.644    2994.3006 
   30400    313.19004   -13383.891    67.216321   -13451.108   -3006.8479 
   30600    286.91032    -13366.58    61.576213   -13428.156   -2061.7434 
   30800    298.76758   -13386.941    64.120997   -13451.062    6037.2845 
   31000    235.37819   -13389.526    50.516472   -13440.042   -13050.448 
   31200    346.78273   -13375.666    74.425929   -13450.092    19137.904 
   31400    283.95932    -13388.15    60.942873   -13449.093    21072.773 
   31600    347.11098   -13388.097    74.496377   -13462.593     6864.189 
   31800    264.94887   -13387.094    56.862883   -13443.957   -10427.103 
   32000    387.42522   -13371.202     83.14855    -13454.35   -10358.958 
   32200    296.29249   -13385.544    63.589797   -13449.134   -1227.9809 
   32400    265.25261   -13400.752    56.928071    -13457.68    13670.068 
   32600    307.48141   -13390.223    65.991145   -13456.214    -5814.241 
   32800    294.77827   -13380.585    63.264819    -13443.85     3135.059 
   33000    275.91034   -13398.561    59.215414   -13457.777    9454.7289 
   33200    230.64937   -13398.701     49.50158   -13448.203   -5006.6045 
   33400    326.26337   -13387.297    70.022098   -13457.319   -14448.983 
   33600    299.86782   -13397.406    64.357129   -13461.763    2144.3589 
   33800    348.46297   -13375.964    74.786538    -13450.75     -1774.81 
   34000    324.04418     -13388.5    69.545819   -13458.045   -24910.341 
   34200    298.74834   -13403.037    64.116868   -13467.154   -17726.944 
   34400    269.12312   -13405.438    57.758753   -13463.196    445.01208 
   34600    312.15885   -13391.729    66.995009   -13458.724   -7718.1502 
   34800    334.40962   -13376.279    71.770432   -13448.049        21677 
   35000    316.97494   -13388.072    68.028629   -13456.101   -1651.8371 
   35200    297.93214   -13389.379    63.941697    -13453.32   -7182.0267 
   35400    257.26693   -13388.521    55.214197   -13443.735    24920.607 
   35600    315.04561   -13373.351    67.614561   -13440.965   -14038.292 
   35800    271.18217   -13396.292    58.200662   -13454.492    414.07244 
   36000     349.2482    -13386.94    74.955064   -13461.895    9308.7929 
   36200    263.93846   -13390.422    56.646031   -13447.068    7593.4731 
   36400     279.5051   -13395.806    59.986916   -13455.793    13964.731 
   36600    318.24164   -13375.972    68.300487   -13444.272    -24906.89 
   36800    309.84132   -13385.906    66.497624   -13452.404   -28657.465 
   37000    251.37363    -13398.17    53.949388    -13452.12    32700.207 
   37200     305.0824   -13384.035    65.476274   -13449.511   -12938.254 
   37400    352.21554   -13369.996    75.591909   -13445.588   -5289.4748 
   37600    246.37891   -13393.629    52.877428   -13446.506    16019.953 
   37800    364.69258   -13378.573     78.26971   -13456.843    8942.0817 
   38000     284.3792   -13392.332    61.032988   -13453.365    12900.947 
   38200    278.68496   -13396.097    59.810899   -13455.908    5528.8459 
   38400    308.57424   -13377.774    66.225687       -13444    9584.0799 
   38600    262.07433   -13400.013    56.245954   -13456.259    3968.9042 
   38800    293.91941   -13391.341    63.080492   -13454.421    4041.6019 
   39000    331.87333    -13378.54    71.226098   -13449.767   -20639.249 
   39200    262.52004   -13400.304    56.341611   -13456.645    7666.2245 
   39400    303.63095    -13386.22    65.164764   -13451.385   -7884.3013 
   39600    312.96854   -13389.542    67.168784   -13456.711   -11043.334 
   39800    287.43526   -13397.132    61.688874   -13458.821   -12457.418 
   40000    307.67794   -13387.003    66.033324   -13453.036   -15569.356 
   40200     262.3946   -13405.184     56.31469   -13461.498    491.37835 
   40400    290.98737   -13391.306    62.451222   -13453.757    3889.9818 
   40600    301.27414    -13385.92    64.658951   -13450.579    4512.8971 
   40800    342.33543   -13400.109    73.471456   -13473.581     2905.243 
   41000    249.40131   -13399.382    53.526091   -13452.908    2433.5823 
   41200    309.14912    -13385.89    66.349066    -13452.24     8149.438 
   41400    312.30336   -13390.394    67.026025    -13457.42    3422.9942 
   41600    285.15102   -13404.846    61.198634   -13466.045   -19089.646 
   41800    301.34818   -13389.034    64.674841   -13453.709   -8073.7631 
   42000    323.97736   -13380.137    69.531478   -13449.668   -12342.558 
   42200    249.16403   -13397.964    53.475167   -13451.439     11397.23 
   42400     311.0919   -13391.196    66.766022   -13457.962    7507.5037 
   42600    299.23409   -13390.267    64.221119   -13454.489    1555.8454 
   42800     315.8506   -13376.852    67.787326   -13444.639    3905.0099 
   43000    249.64607   -13396.279    53.578621   -13449.858    2091.0437 
   43200    269.85885   -13387.059    57.916653   -13444.975    43816.732 
   43400    333.00788   -13370.927    71.469592   -13442.396    7442.7593 
   43600    301.78977   -13392.355    64.769614   -13457.125    24327.195 
   43800    277.71047   -13394.208    59.601755    -13453.81   -2238.7573 
   44000    308.10125   -13376.052    66.124173   -13442.176   -7930.0622 
   44200    300.70073   -13391.201    64.535886   -13455.736    5973.9638 
   44400     331.0178   -13387.753    71.042485   -13458.795    21644.935 
   44600    380.33403   -13371.297    81.626651   -13452.924   -7319.5556 
   44800    324.74044   -13390.977    69.695248   -13460.672   -7078.6213 
   45000    278.03003     -13387.3    59.670338    -13446.97   -11144.352 
   45200    391.19827   -13369.715    83.958317   -13453.673   -3236.8095 
   45400    299.18275   -13390.739    64.210101   -13454.949   -10393.887 
   45600    294.33453    -13389.97    63.169583    -13453.14   -5961.4507 
   45800    364.09885   -13370.248    78.142284    -13448.39   -1961.7431 
   46000    273.77506   -13394.863    58.757145   -13453.621      1195.46 
   46200    293.76773   -13393.592    63.047937    -13456.64    10963.486 
   46400    357.53774   -13372.204     76.73415   -13448.938    3521.6078 
   46600    278.61405   -13387.538    59.795679   -13447.334    7117.8066 
   46800    318.35466   -13388.807    68.324742   -13457.132   -1901.3245 
   47000    263.77919   -13395.499    56.611848   -13452.111   -32058.282 
   47200    299.37261   -13379.943    64.250848   -13444.194    18978.524 
   47400    275.96917   -13398.458    59.228041   -13457.686    -28685.67 
   47600    311.88769   -13391.108    66.936813   -13458.045   -8594.5704 
   47800    309.92335   -13385.523    66.515231   -13452.038    6639.5437 
   48000    274.34405   -13391.975    58.879261   -13450.854   -11256.335 
   48200    271.17691   -13408.071    58.199533   -13466.271   -11106.296 
   48400    303.49845   -13392.218    65.136329   -13457.355    5315.2316 
   48600    307.62541    -13381.22    66.022049   -13447.242    403.52872 
   48800    349.77311    -13377.29    75.067719   -13452.358    9224.3686 
   49000    296.83474   -13398.158    63.706175   -13461.865   -1545.8828 
   49200    297.79828    -13383.14    63.912968   -13447.053    8938.8509 
   49400    308.24438   -13374.709    66.154893   -13440.864    17869.544 
   49600    296.73023   -13393.098    63.683744   -13456.782   -3005.8467 
   49800    330.63722   -13384.434    70.960807   -13455.395    16584.928 
   50000     279.2283   -13395.062    59.927511   -13454.989    4842.6779 
   50200    280.09813   -13398.008    60.114192   -13458.123    -14617.63 
   50400    283.61738   -13376.257    60.869487   -13437.126    4859.1854 
   50600    226.04025   -13391.005     48.51238   -13439.517   -9660.8124 
   50800    316.54503   -13391.731    67.936363   -13459.667   -757.28165 
   51000    288.55897   -13372.336    61.930043   -13434.266    7999.4879 
   51200    302.66456   -13393.407    64.957361   -13458.364   -427.17342 
   51400     287.2263   -13392.943    61.644026   -13454.587    478.37112 
   51600    340.08622    -13366.68    72.988734   -13439.668   -2776.4486 
   51800    345.05739   -13380.905    74.055639    -13454.96    6968.4724 
   52000    259.06095   -13393.848    55.599226   -13449.448   -1311.6747 
   52200    273.45645   -13378.697    58.688764   -13437.385    6366.6378 
   52400     329.5238   -13376.385    70.721846   -13447.107    12008.928 
   52600    317.63243    -13390.19     68.16974    -13458.36    37486.978 
   52800    286.89143     -13393.1    61.572158   -13454.672   -10161.163 
   53000    236.69944   -13408.329    50.800038   -13459.129    2655.0628 
   53200    331.65564   -13389.611    71.179378   -13460.791   -579.48245 
   53400    313.28091   -13385.589    67.235824   -13452.825   -5455.5388 
   53600    331.38389   -13367.752    71.121055   -13438.873    4214.2992 
   53800    293.70198   -13387.979    63.033826   -13451.013    6208.6019 
   54000     284.9755   -13392.523    61.160964   -13453.684   -24610.897 
   54200    288.10472     -13392.5    61.832551   -13454.333   -10187.916 
   54400    330.61528   -13380.618    70.956097   -13451.574   -5816.8332 
   54600    272.30509   -13396.192    58.441662   -13454.634   -14871.158 
   54800    296.60761   -13388.412    63.657427    -13452.07   -23450.969 
   55000    315.08762   -13366.868    67.623578   -13434.492    17771.371 
   55200    279.96578    -13388.32    60.085787   -13448.406    -1104.847 
   55400    330.43427    -13389.51    70.917249   -13460.427    13335.273 
   55600    271.92135   -13403.043    58.359305   -13461.402    21206.338 
   55800     301.8559   -13394.002    64.783807   -13458.786   -5995.1865 
   56000     315.8002   -13383.932     67.77651   -13451.708   -14341.299 
   56200    266.68385   -13399.087    57.235241   -13456.322    741.01566 
   56400    310.97303   -13404.643     66.74051   -13471.384    1666.9731 
   56600    289.81161    -13382.67    62.198882   -13444.869    23044.221 
   56800    320.78753   -13387.811    68.846881   -13456.658    14351.996 
   57000    295.06701    -13394.79    63.326786   -13458.117   -2483.3655 
   57200    327.09945   -13384.593    70.201537   -13454.794     6504.776 
   57400    242.45419   -13407.275    52.035112    -13459.31   -8928.1804 
   57600    317.48076   -13399.531    68.137189   -13467.668   -6170.3843 
   57800    277.48642    -13385.47     59.55367   -13445.024   -3942.6921 
   58000    274.18553   -13392.245    58.845238    -13451.09   -7969.1265 
   58200    253.76882   -13403.298    54.463438   -13457.761   -6812.3329 
   58400    288.62222   -13387.292    61.943617   -13449.235    1677.2539 
   58600    365.48004   -13372.126    78.438714   -13450.565    6483.8117 
   58800    272.20152   -13394.906    58.419434   -13453.326    4597.9066 
   59000    282.69158    -13393.76    60.670794   -13454.431    -6309.889 
   59200    307.40128   -13383.192    65.973947   -13449.166    13241.685 
   59400    296.47159   -13393.182    63.628235    -13456.81   -3098.7177 
   59600    324.23908   -13391.511    69.587648   -13461.098    6451.0743 
   59800    319.67497   -13371.807    68.608105   -13440.415   -4892.6384 
   60000    310.91088   -13390.508    66.727172   -13457.235   -1068.5363 
   60200    319.67425   -13391.294    68.607952   -13459.902    5580.0301 
   60400    301.12151   -13382.886    64.626194   -13447.512    7620.0596 
   60600    256.15249   -13401.749    54.975019   -13456.724   -26812.271 
   60800    262.02154   -13388.617    56.234624   -13444.851   -27285.776 
   61000    329.89148   -13383.805    70.800756   -13454.606    7735.5881 
   61200    278.20233   -13401.726    59.707317   -13461.434   -6843.0392 
   61400    212.63799   -13421.215    45.636008   -13466.851   -24199.167 
   61600    275.57749   -13395.138    59.143979   -13454.282    -206.6096 
   61800    331.65272   -13380.307    71.178751   -13451.486   -18514.127 
   62000      277.509    -13400.79    59.558517   -13460.349    1457.8109 
   62200    262.74476   -13394.543    56.389841   -13450.933   -11107.544 
   62400    304.12854    -13387.27    65.271557   -13452.542   -3800.1039 
   62600    340.05097   -13371.571     72.98117   -13444.552   -11567.803 
   62800    316.70891   -13381.722    67.971535   -13449.694     5090.466 
   63000    307.40693   -13394.403    65.975159   -13460.378    25206.028 
   63200    254.61073   -13401.604    54.644129   -13456.248    4150.6432 
   63400    299.19439   -13384.397    64.212599    -13448.61    915.62236 
   63600    348.57146   -13381.317    74.809822   -13456.127    7130.4065 
   63800    286.46004    -13395.52    61.479574   -13456.999    240.42971 
   64000    312.68633   -13392.478    67.108216   -13459.586    8337.2961 
   64200    338.56213   -13380.211    72.661636   -13452.872    15445.681 
   64400    284.81826   -13380.188    61.127218   -13441.316    -3974.435 
   64600     267.2791   -13394.652    57.362992   -13452.015    21998.714 
   64800    269.62988    -13398.93    57.867512   -13456.797    2399.9709 
   65000    323.50308   -13375.932    69.429689   -13445.361    7549.3738 
   65200    316.22903   -13387.854    67.868543   -13455.723    4509.0229 
   65400    285.90176   -13397.693    61.359755   -13459.053    26129.859 
   65600    295.74114    -13392.22    63.471468   -13455.692   -3069.1695 
   65800    357.29272   -13370.467    76.681564   -13447.148   -6228.8256 
   66000    290.92293   -13385.713    62.437392   -13448.151    937.59964 
   66200     296.9512   -13389.025    63.731169   -13452.756    7629.5001 
   66400    268.17086   -13403.334     57.55438   -13460.889   -3558.4153 
   66600    320.71171   -13384.962     68.83061   -13453.792    5642.7056 
   66800    280.97925   -13386.216    60.303295    -13446.52    20585.991 
   67000    246.31442   -13406.654    52.863588   -13459.518    1199.8863 
   67200    292.14495    -13386.66    62.699659   -13449.359    1113.2321 
   67400    337.42404   -13383.641    72.417383   -13456.058    12433.286 
   67600    296.61024   -13398.886    63.657993   -13462.544   -1916.9789 
   67800    308.99428   -13387.905    66.315835   -13454.221    2729.1885 
   68000    281.37212   -13384.051    60.387613   -13444.439   -20580.186 
   68200    288.24508    -13391.57    61.862677   -13453.433    15427.332 
   68400    312.90521   -13387.567    67.155191   -13454.722   -17809.043 
   68600    338.80981   -13388.413    72.714793   -13461.127    16.965959 
   68800     286.3224   -13401.177    61.450034   -13462.627    5887.0979 
   69000    324.12529   -13379.706    69.563227    -13449.27     12201.62 
   69200    312.30382   -13391.055    67.026123   -13458.082   -2482.7049 
   69400    281.10084   -13404.279     60.32939   -13464.608   -5591.2782 
   69600    275.06949   -13395.541    59.034954   -13454.576    2844.8148 
   69800    296.80977   -13385.136    63.700816   -13448.837   -3103.6878 
   70000    274.20083   -13402.287    58.848522   -13461.136   -11811.933 
   70200    280.48145   -13395.829    60.196458   -13456.026    1599.5957 
   70400    335.60244    -13382.68    72.026434   -13454.706   -12279.696 
   70600    302.37876   -13387.946    64.896022   -13452.842   -8035.7488 
   70800    259.93702   -13399.425    55.787248   -13455.212   -7112.7092 
   71000    348.13551   -13384.105    74.716259   -13458.822    5015.4659 
   71200    324.03156   -13388.092    69.543111   -13457.635    797.67647 
   71400    272.31557   -13399.152    58.443912   -13457.596   -1598.3446 
   71600     289.9166   -13387.421    62.221414   -13449.642    2481.9191 
   71800    332.17401   -13381.821    71.290629   -13453.112    -16046.95 
   72000    284.78519   -13399.338     61.12012   -13460.458    4967.1386 
   72200    308.88575   -13383.732    66.292542   -13450.025   -2812.8127 
   72400     336.1255   -13380.998    72.138692   -13453.137     8856.166 
   72600    263.92802   -13400.836    56.643789    -13457.48    19530.046 
   72800    311.57921   -13383.264    66.870607   -13450.134   -7520.5399 
   73000    289.90338   -13384.646    62.218577   -13446.864   -9124.0103 
   73200    280.61646   -13398.462    60.225435   -13458.687   -5444.6032 
   73400    341.01313   -13374.815    73.187666   -13448.003   -10475.471 
   73600    322.14156   -13386.055    69.137482   -13455.193    4824.8354 
   73800    287.70002   -13392.617    61.745696   -13454.363    14606.629 
   74000    337.56267   -13368.914    72.447134   -13441.361    29541.542 
   74200    357.57392   -13389.849    76.741916   -13466.591   -1360.8185 
   74400    288.56404   -13397.576    61.931131   -13459.507     8850.627 
   74600    305.17772   -13385.261     65.49673   -13450.758   -19572.576 
   74800    355.58489   -13369.061    76.315033   -13445.376   -11428.768 
   75000    288.61014   -13388.957    61.941025   -13450.898   -8655.1681 
   75200    294.53985   -13391.302    63.213648   -13454.516    9182.0173 
   75400    337.93113   -13372.458    72.526213   -13444.984    8577.2939 
   75600    270.48944   -13399.207    58.051989   -13457.259    -8735.048 
   75800    314.50075   -13386.973    67.497624   -13454.471   -22285.626 
   76000    342.21293   -13379.841    73.445165   -13453.286   -3150.9034 
   76200    275.87405   -13399.496    59.207626   -13458.703      35959.2 
   76400    317.82237   -13385.916    68.210505   -13454.127   -7332.2315 
   76600    279.28158   -13388.633    59.938945   -13448.572   -8053.3146 
   76800    272.28312   -13404.056    58.436947   -13462.493    7732.2116 
   77000    301.91834   -13385.434    64.797209   -13450.232   -12322.794 
   77200    319.69699   -13394.468    68.612833   -13463.081    24995.463 
   77400    257.03245   -13402.896    55.163873    -13458.06    18552.226 
   77600    324.02878   -13383.192    69.542513   -13452.735    1362.2608 
   77800    305.53501   -13397.613    65.573411   -13463.186   -5078.5402 
   78000    278.41589   -13394.507    59.753152    -13454.26   -4675.0186 
   78200    319.84499   -13383.046    68.644597    -13451.69     -11178.1 
   78400    253.54729   -13396.808    54.415895   -13451.224   -4486.6041 
   78600    309.78873    -13403.18    66.486338   -13469.666    2840.6517 
   78800    311.03532   -13380.998    66.753879   -13447.751   -1738.1109 
   79000     293.4688   -13388.032    62.983781   -13451.016     15175.08 
   79200    280.73279   -13407.333    60.250401   -13467.583   -6507.1976 
   79400    313.66261   -13383.853    67.317743   -13451.171     2721.514 
   79600    303.93191   -13382.527    65.229357   -13447.756    9882.2582 
   79800     225.8493   -13399.184    48.471399   -13447.656    6703.0194 
   80000    379.02291   -13375.451    81.345261   -13456.796   -17250.562 
   80200    328.24151   -13394.346    70.446643   -13464.793   -7750.4226 
   80400    300.34828   -13389.819    64.460245   -13454.279    6493.0246 
   80600    327.92217   -13374.015    70.378106   -13444.393    21954.816 
   80800    290.00187   -13396.486    62.239716   -13458.726   -8754.7506 
   81000    271.51184   -13397.596    58.271417   -13455.867    7328.6198 
   81200     334.2546   -13379.186    71.737162   -13450.923   -4978.7616 
   81400    290.28934   -13386.982    62.301412   -13449.283   -1018.7637 
   81600    287.92557   -13391.402    61.794104   -13453.196    -3645.751 
   81800     277.4741   -13406.351    59.551025   -13465.902    6661.2799 
   82000    315.91799   -13395.336     67.80179   -13463.138   -1966.4161 
   82200    265.23937    -13385.95    56.925229   -13442.876   -24723.011 
   82400    283.68484   -13388.908    60.883966   -13449.792    6360.5926 
   82600    281.84024   -13398.342    60.488081    -13458.83    12682.675 
   82800     313.7481   -13383.226    67.336092   -13450.562   -735.02114 
   83000    297.69992   -13388.089    63.891858   -13451.981    4522.1853 
   83200    308.46175   -13395.084    66.201544   -13461.286   -3119.1738 
   83400    238.62085   -13394.684    51.212407   -13445.897    16274.821 
   83600     326.9225   -13381.017    70.163558   -13451.181    12244.286 
   83800    269.67467   -13399.375    57.877126   -13457.252    490.71636 
   84000    281.63213   -13394.828    60.443415   -13455.271   -9192.8396 
   84200    343.32448   -13380.117    73.683725   -13453.801    3553.7228 
   84400    267.07908   -13401.612    57.320065   -13458.932   -3000.0571 
   84600    320.99037   -13391.131    68.890415   -13460.021   -15218.498 
   84800    337.01047    -13377.99    72.328621   -13450.319   -24810.323 
   85000    258.42889   -13403.732    55.463576   -13459.195    3280.5594 
   85200     335.8301   -13388.112    72.075292   -13460.188     9529.693 
   85400    285.09774   -13382.399    61.187199   -13443.586    17513.042 
   85600    295.77769   -13402.063    63.479312   -13465.542    4966.7771 
   85800    304.16611   -13387.566     65.27962   -13452.845    9541.8492 
   86000    269.52632   -13392.092    57.845286   -13449.937   -10922.457 
   86200    226.76595   -13416.386    48.668127   -13465.054   -8720.2734 
   86400    267.41423   -13397.693    57.391994   -13455.085   -11291.871 
   86600    302.16715   -13386.945    64.850607   -13451.796    4716.0635 
   86800    268.60817   -13405.847    57.648236   -13463.495    23861.196 
   87000    315.31497   -13390.884     67.67237   -13458.557    24711.273 
   87200    315.61256    -13381.89    67.736238   -13449.626    10141.933 
   87400    288.66418   -13398.108    61.952623   -13460.061   -1265.9051 
   87600     294.0402   -13399.655    63.106414   -13462.762   -16897.712 
   87800    305.64747   -13383.716    65.597547   -13449.314   -9.3780377 
   88000    314.48426    -13391.37    67.494085   -13458.864     3044.113 
   88200    248.15952    -13403.83    53.259579    -13457.09    285.27051 
   88400    263.58854   -13393.495    56.570931   -13450.066    -14245.83 
   88600    304.52445   -13382.727    65.356527   -13448.083    -9496.749 
   88800    226.20412   -13406.523    48.547548   -13455.071    4110.6472 
   89000    279.24638   -13390.609     59.93139    -13450.54    21658.651 
   89200    295.75098   -13386.643    63.473579   -13450.116    12449.621 
   89400    246.43365   -13406.884    52.889176   -13459.773   -1035.2068 
   89600       239.58   -13401.925    51.418259   -13453.343    14789.334 
   89800    312.09276   -13382.963    66.980825   -13449.944   -7957.7635 
   90000    286.68582   -13394.223    61.528031   -13455.751    17613.459 
   90200     268.2427   -13396.239    57.569798   -13453.809    1491.3973 
   90400    303.87629   -13382.166    65.217419   -13447.383    3883.4816 
   90600    253.87134   -13393.904    54.485441    -13448.39   -1691.0337 
   90800    375.02366   -13375.204    80.486949   -13455.691   -3818.7725 
   91000    365.86887   -13376.724    78.522163   -13455.246   -9778.2448 
   91200    281.78913   -13394.111    60.477111   -13454.588    4722.6257 
   91400    321.53035   -13385.625    69.006305   -13454.631    19501.182 
   91600     359.7195   -13377.896    77.202396   -13455.098    10635.678 
   91800    314.27732   -13394.334    67.449672   -13461.784    19667.974 
   92000     285.8496   -13387.741    61.348561    -13449.09   -4891.4948 
   92200    312.38043   -13390.072    67.042564   -13457.115    16313.684 
   92400    230.00715   -13401.596    49.363749   -13450.959    2304.3693 
   92600    315.55874   -13379.895    67.724688    -13447.62    3545.7976 
   92800    293.41925   -13385.869    62.973148   -13448.843    -12400.07 
   93000     289.9566   -13407.832    62.229999   -13470.062   -4975.6635 
   93200    247.30318   -13401.161    53.075794   -13454.237   -11469.826 
   93400     283.2712   -13386.211     60.79519   -13447.006    15059.498 
   93600    306.06591   -13379.782    65.687353    -13445.47   -3143.7684 
   93800    242.78251   -13400.799    52.105576   -13452.905    3198.8597 
   94000    308.86931   -13389.281    66.289013    -13455.57   -827.38172 
   94200    337.53209   -13381.706    72.440571   -13454.146   -2486.3532 
   94400    309.21592   -13390.722    66.363403   -13457.086   -15479.822 
   94600    310.01231   -13381.858    66.534321   -13448.392    13553.273 
   94800    274.16859   -13393.481    58.841603   -13452.323   -3238.0884 
   95000    330.41123    -13391.28    70.912305   -13462.192    17750.757 
   95200     312.0109   -13382.208    66.963256   -13449.171    8049.7775 
   95400    270.41559   -13391.961     58.03614   -13449.998    17447.345 
   95600    284.90266    -13390.96    61.145332   -13452.105   -936.43393 
   95800    314.68726    -13387.58    67.537651   -13455.117    15085.207 
   96000    292.56537   -13371.376    62.789889   -13434.166   -13952.348 
   96200    278.99097   -13394.231    59.876574   -13454.108    4270.0886 
   96400    311.41297   -13388.341    66.834929   -13455.176   -52.475526 
   96600    348.37327   -13366.984    74.767288   -13441.751    22974.954 
   96800    288.12484   -13392.483    61.836871    -13454.32    3853.9931 
   97000     286.9644   -13392.692    61.587817    -13454.28    8628.0487 
   97200    306.64009   -13377.036    65.810582   -13442.847   -6530.7246 
   97400    288.35801   -13397.309    61.886913   -13459.196   -2548.5005 
   97600    313.64587   -13395.515    67.314151   -13462.829   -7979.2203 
   97800    324.13294   -13373.562    69.564869   -13443.127    11041.938 
   98000    275.05589   -13393.471    59.032033   -13452.503    8032.9378 
   98200    288.20809   -13385.472    61.854738   -13447.327    1226.3439 
   98400    328.41311   -13374.791    70.483471   -13445.274    31120.994 
   98600    271.38703    -13396.14    58.244629   -13454.385    2447.0097 
   98800    303.72806   -13395.233    65.185606   -13460.418    3307.4928 
   99000    333.29006   -13381.016    71.530153   -13452.546   -12381.899 
   99200    312.11898   -13380.644    66.986452   -13447.631   -4679.6146 
   99400    281.92693   -13390.362    60.506685   -13450.868    2728.4181 
   99600    342.69409   -13381.538    73.548432   -13455.087   -8132.7479 
   99800    261.69916    -13404.93    56.165435   -13461.095    13894.851 
  100000    346.12491   -13390.038    74.284748   -13464.322   -11298.187 
  100200    308.65256   -13385.835    66.242494   -13452.077    16415.544 
  100400    323.13403   -13388.428    69.350484   -13457.779    8202.3785 
  100600    283.88715   -13389.746    60.927385   -13450.674    8704.6521 
  100800    326.59039   -13378.659    70.092283   -13448.751   -1543.6785 
  101000    369.58256   -13372.713     79.31919   -13452.032   -8481.3236 
  101200    314.51576   -13393.003    67.500845   -13460.504   -15461.961 
  101400    308.61504   -13393.924    66.234442   -13460.158     10301.03 
  101600    319.84436   -13378.945    68.644461    -13447.59    12115.581 
  101800    259.36981   -13384.703    55.665513   -13440.368    1339.4922 
  102000     270.0492   -13398.563    57.957506   -13456.521    2588.2511 
  102200    361.00736   -13379.817    77.478794   -13457.296   -11091.912 
  102400     310.3222   -13386.788     66.60083   -13453.388   -23052.947 
  102600    278.42211    -13394.14    59.754487   -13453.895    2775.6111 
  102800     308.4572   -13380.418    66.200566   -13446.618     14368.25 
  103000    288.56646    -13392.52     61.93165   -13454.452   -11794.147 
  103200    260.31624   -13398.419    55.868634   -13454.287    15443.336 
  103400    326.51778   -13381.951    70.076699   -13452.027    14872.119 
  103600    308.49504   -13389.833    66.208688   -13456.042    7248.1916 
  103800    274.18191   -13390.016    58.844461   -13448.861   -3084.2199 
  104000    316.51109   -13381.244    67.929079   -13449.173    2186.0437 
  104200    300.29268   -13392.948    64.448312   -13457.396    14528.176 
  104400    253.50076   -13408.506    54.405907   -13462.912   -7610.8798 
  104600    258.54455   -13404.707    55.488397   -13460.195    32350.578 
  104800    306.65811   -13384.038    65.814449   -13449.852    27989.276 
  105000    325.64258   -13385.891    69.888865    -13455.78    -14550.67 
  105200    285.87411   -13403.033    61.353823   -13464.386   -15214.602 
  105400    316.92197   -13385.706    68.017261   -13453.723   -28283.329 
  105600    299.08829   -13384.512    64.189828   -13448.701    -11414.22 
  105800    267.25342   -13398.386    57.357481   -13455.744    4368.5705 
  106000    308.02891   -13392.159    66.108649   -13458.268   -2053.1118 
  106200    308.40178   -13383.866    66.188674   -13450.055   -4555.5545 
  106400    280.67671   -13401.835    60.238364   -13462.073   -13425.512 
  106600    262.17883   -13409.759    56.268381   -13466.028   -14714.738 
  106800    368.91762   -13383.794    79.176481    -13462.97   -9557.1057 
  107000    282.47759   -13395.162    60.624867   -13455.787    11552.994 
  107200    294.18448   -13391.434     63.13738   -13454.571   -14473.079 
  107400    302.23837   -13375.889    64.865892   -13440.755    15295.099 
  107600    297.83917   -13394.001    63.921742   -13457.923   -942.61799 
  107800    264.91496   -13393.127    56.855605   -13449.982    17121.188 
  108000    311.58634   -13384.705    66.872139   -13451.577   -25756.332 
  108200    284.87216    -13395.42    61.138784   -13456.559    3717.4804 
  108400    272.75862   -13391.348    58.538998   -13449.887   -20088.534 
  108600    327.74534   -13381.408    70.340155   -13451.748    6264.3826 
  108800    272.28563   -13397.491    58.437486   -13455.929    869.42069 
  109000    274.22409   -13403.812    58.853515   -13462.665   -12167.878 
  109200    350.89568   -13378.813    75.308643   -13454.122    13981.958 
  109400    270.74103   -13395.836    58.105986   -13453.942    -5781.912 
  109600    343.79201   -13384.829    73.784066   -13458.613   -1275.2418 
  109800     371.1106   -13379.677    79.647136   -13459.324    16117.035 
  110000    257.03546   -13391.441     55.16452   -13446.606     -11172.2 
  110200    254.88513   -13385.737    54.703019    -13440.44   -1089.3022 
  110400    343.22738   -13377.856    73.662885   -13451.519    -2637.313 
  110600    292.32986    -13394.48    62.739344   -13457.219   -2705.8257 
  110800    305.39032   -13393.854    65.542358   -13459.396   -3351.0518 
  111000    358.79103   -13373.643    77.003129   -13450.647    8972.3112 
  111200    300.37984   -13391.755    64.467019   -13456.222    36683.812 
  111400    293.15281   -13393.322    62.915964   -13456.238    24971.959 
  111600    282.23624   -13391.199    60.573069   -13451.773    5104.0861 
  111800     297.3249   -13377.865    63.811372   -13441.676    26396.079 
  112000     342.1332   -13378.213    73.428054   -13451.641    20099.867 
  112200    294.06326   -13392.929    63.111363    -13456.04   -1661.7197 
  112400    303.65544   -13391.079    65.170022   -13456.249   -8885.9861 
  112600    325.23397    -13372.52     69.80117   -13442.321    36714.488 
  112800    296.59382   -13392.167    63.654468   -13455.822   -13927.939 
  113000    327.08346   -13386.207    70.198104   -13456.405   -406.52396 
  113200     327.6085   -13374.307    70.310786   -13444.617    8890.9121 
  113400    272.25072   -13389.799    58.429994   -13448.229    1068.2835 
  113600    271.12061   -13394.427     58.18745   -13452.614    2606.5248 
  113800    352.22645   -13370.829     75.59425   -13446.423    10150.878 
  114000    295.90382   -13381.094    63.506382     -13444.6    25433.234 
  114200    267.73111   -13393.786    57.460002   -13451.246    4127.5434 
  114400    237.59578   -13403.287    50.992408    -13454.28    15551.252 
  114600    320.27631   -13393.564    68.737164   -13462.301      6821.09 
  114800    311.88512   -13382.237    66.936261   -13449.174     11572.64 
  115000    269.84207   -13392.586    57.913052   -13450.499    22067.375 
  115200    276.94261   -13402.602    59.436958   -13462.039    8293.8548 
  115400     325.6409   -13382.257    69.888504   -13452.146    14582.273 
  115600    292.58719   -13388.149    62.794572   -13450.944    9553.8656 
  115800    294.16079   -13390.374    63.132295   -13453.507   -3568.4179 
  116000    312.73443   -13379.866     67.11854   -13446.984   -1140.0382 
  116200    260.13216   -13396.782    55.829128   -13452.611   -13314.505 
  116400    322.64615   -13387.469    69.245776   -13456.715    472.55937 
  116600    299.78045   -13377.809    64.338377   -13442.147     1490.151 
  116800    275.32434   -13395.774    59.089648   -13454.864    2981.0195 
  117000    273.23486   -13391.761    58.641208   -13450.402   -31460.363 
  117200    341.31805   -13378.028    73.253108   -13451.281     2082.467 
  117400    339.22337   -13383.916    72.803552    -13456.72    5037.5294 
  117600    228.57746   -13396.809    49.056912   -13445.866    19543.876 
  117800    369.77865   -13377.406    79.361274   -13456.767    6000.0178 
  118000    295.59748   -13385.041    63.440636   -13448.482    -2155.906 
  118200    302.66889   -13391.042    64.958289       -13456    8910.6899 
  118400     301.5095    -13380.25    64.709462   -13444.959    13419.631 
  118600    335.08588   -13370.562    71.915569   -13442.478   -4668.7756 
  118800    270.45954   -13390.707    58.045574   -13448.753   -21742.578 
  119000    266.12149   -13399.494    57.114548   -13456.608    8185.2754 
  119200    311.04261   -13393.005    66.755443    -13459.76    7511.3549 
  119400     263.4548   -13379.514    56.542229   -13436.056    7116.8033 
  119600    265.27462   -13398.949    56.932795   -13455.882    -11806.52 
  119800    297.70566   -13393.827     63.89309    -13457.72   -5836.9193 
  120000    315.17529   -13386.507    67.642391    -13454.15   -8020.8213 
  120200    289.65753   -13391.821    62.165814   -13453.987    6266.9585 
  120400    313.06435   -13377.966    67.189345   -13445.155    -20039.53 
  120600      301.158   -13386.716    64.634024   -13451.351   -18758.879 
  120800    261.40943   -13397.663    56.103253   -13453.767   -2370.8537 
  121000    313.20178   -13388.804    67.218842   -13456.023   -8872.2404 
  121200     322.2248   -13389.016    69.155347   -13458.171   -11970.737 
  121400    287.04042    -13398.27    61.604134   -13459.874   -3766.5592 
  121600    296.42175   -13392.779    63.617538   -13456.397   -29775.646 
  121800    283.41282   -13379.802    60.825585   -13440.628      516.801 
  122000    306.29645   -13394.971    65.736831   -13460.708    3273.6824 
  122200    271.65722    -13402.94    58.302618   -13461.242    15929.054 
  122400    334.71395   -13384.458    71.835748   -13456.294    11373.218 
  122600    313.58835   -13396.539    67.301806   -13463.841     6312.298 
  122800    287.11264   -13399.093    61.619634   -13460.713    16616.869 
  123000    306.39229   -13381.095    65.757399   -13446.853     836.0253 
  123200    274.22466    -13391.08    58.853637   -13449.934     9144.858 
  123400    312.88612   -13394.229    67.151095   -13461.381    8131.6943 
  123600    300.86516   -13381.206    64.571176   -13445.777   -18567.737 
  123800    288.74634   -13399.384    61.970255   -13461.354   -12677.932 
  124000    284.05911   -13389.826     60.96429    -13450.79   -2674.2997 
  124200    330.41045   -13376.821    70.912138   -13447.733    8389.7962 
  124400    324.15521    -13383.42    69.569648    -13452.99   -16773.505 
  124600    273.54517   -13397.239    58.707806   -13455.947   -6645.3244 
  124800    292.66788   -13389.344    62.811889   -13452.156    15974.795 
  125000    334.93821   -13368.486    71.883878    -13440.37   -11475.526 
  125200    271.92884   -13390.782    58.360913   -13449.143   -11557.685 
  125400    273.04653   -13389.403    58.600789   -13448.003    13386.758 
  125600    333.79979   -13373.362    71.639552   -13445.002   -1754.2994 
  125800    266.12336   -13390.877     57.11495   -13447.991   -13087.186 
  126000    310.80226   -13394.114     66.70386   -13460.818    25951.752 
  126200    255.16576   -13409.978    54.763248   -13464.741   -3736.3364 
  126400    304.92673     -13388.3    65.442863   -13453.743    9782.7516 
  126600    301.88548   -13383.465    64.790155   -13448.255    2170.9316 
  126800    298.39302   -13383.902     64.04061   -13447.942    3239.5973 
  127000    280.00157   -13402.009    60.093467   -13462.102   -1003.1259 
  127200    351.64511   -13380.844    75.469484   -13456.313    -13078.59 
  127400    340.66391   -13382.984    73.112716   -13456.097   -24386.839 
  127600    275.67304   -13397.671    59.164485   -13456.836   -12773.214 
  127800    313.06695   -13378.874    67.189905   -13446.064    15751.544 
  128000    295.21495   -13381.437    63.358538   -13444.796   -1677.6965 
  128200    288.26711    -13398.86    61.867403   -13460.727    3417.3957 
  128400    331.38841   -13387.073    71.122025   -13458.195    5303.7548 
  128600    324.58159   -13368.302    69.661157   -13437.963   -24933.457 
  128800    291.91425   -13384.488    62.650147   -13447.138   -20190.694 
  129000    266.38871   -13394.354    57.171899   -13451.526   -938.97392 
  129200    325.62463   -13380.633    69.885012   -13450.518   -413.60196 
  129400    280.46162   -13392.021    60.192203   -13452.214    -20549.58 
  129600    285.66155   -13393.132    61.308203    -13454.44    -15147.71 
  129800    307.98237    -13385.51    66.098661   -13451.608    14020.576 
  130000    280.85339   -13390.667    60.276284   -13450.943   -6179.7215 
  130200    265.86741   -13405.578    57.060018   -13462.638   -2595.8367 
  130400    313.30144   -13390.731     67.24023   -13457.971   -15542.461 
  130600    298.65647    -13386.79     64.09715   -13450.887   -7807.1466 
  130800    301.01179   -13404.492    64.602645   -13469.095    26934.089 
  131000     272.5334   -13389.756    58.490662   -13448.247    16007.401 
  131200    313.73914    -13387.66    67.334168   -13454.994    5482.6861 
  131400    279.42184   -13396.293    59.969047   -13456.262    18466.526 
  131600    297.76846    -13380.57    63.906567   -13444.477   -8688.8685 
  131800    302.00431   -13385.803    64.815658   -13450.619    22587.894 
  132000    298.53519    -13396.67    64.071122   -13460.741    6523.3966 
  132200    307.14533   -13386.803    65.919016   -13452.722   -12436.291 
  132400    343.22083   -13368.136     73.66148   -13441.797    2137.0438 
  132600    330.39348   -13383.925    70.908494   -13454.833   -5938.3254 
  132800    280.78885   -13398.976    60.262432   -13459.239   -7396.4801 
  133000    242.37942   -13394.062    52.019065   -13446.081   -8252.5988 
  133200     319.4434   -13379.377    68.558408   -13447.936   -9337.2736 
  133400    262.08959   -13396.905    56.249229   -13453.154    9382.2913 
  133600    359.30237   -13377.839    77.112873   -13454.952    13277.177 
  133800    310.18459   -13385.266    66.571296   -13451.837    9264.2756 
  134000    278.51446   -13393.274    59.774306   -13453.049    5008.9924 
  134200    320.95564   -13370.886    68.882962   -13439.769    2265.2831 
  134400     292.5728    -13383.77    62.791485   -13446.562    853.91116 
  134600     305.5099   -13391.801    65.568022   -13457.369    24521.139 
  134800    294.40634   -13387.719    63.184996   -13450.904     13042.18 
  135000    306.18127   -13375.425    65.712111   -13441.137   -9968.4606 
  135200    303.37464   -13391.804    65.109756   -13456.913   -15534.632 
  135400    302.95707   -13383.624    65.020139   -13448.644   -7066.1737 
  135600    260.11927   -13367.377    55.826362   -13423.203   -4600.3329 
  135800      292.577   -13394.816    62.792384   -13457.609   -10617.874 
  136000    308.89934   -13391.503    66.295458   -13457.798   -1026.2404 
  136200    324.94593   -13381.245    69.739351   -13450.984   -777.78241 
  136400    333.13699   -13388.043    71.497303    -13459.54    7362.3082 
  136600    269.42677   -13391.782    57.823922   -13449.606   -14761.453 
  136800    298.55093   -13398.282      64.0745   -13462.357    50.836124 
  137000    313.02302   -13382.828    67.180476   -13450.008    -9084.822 
  137200    279.21709   -13388.282    59.925103   -13448.207    1591.5377 
  137400    279.33022   -13402.391    59.949383   -13462.341   -2689.9248 
  137600     320.0008   -13379.392    68.678035    -13448.07    100.16773 
  137800    317.59838   -13388.223    68.162432   -13456.385    2799.2533 
  138000    268.74035   -13398.264    57.676603    -13455.94     13059.52 
  138200     333.6452   -13386.182    71.606374   -13457.788   -9384.3149 
  138400    323.59388   -13388.954    69.449176   -13458.403    9654.4175 
  138600    264.49475    -13405.12     56.76542   -13461.885   -2022.5793 
  138800    319.68256   -13382.414    68.609735   -13451.024   -9741.6194 
  139000    310.37497   -13383.178    66.612155   -13449.791    10416.566 
  139200    268.61241   -13403.751    57.649146   -13461.401   -10800.577 
  139400    273.38636   -13394.176    58.673723    -13452.85   -7272.1967 
  139600    339.78168   -13387.193    72.923374   -13460.116    418.72759 
  139800    364.17864   -13376.681     78.15941    -13454.84    10574.837 
  140000    277.26004   -13399.084    59.505084   -13458.589    13931.121 
  140200    309.76573   -13386.559    66.481401    -13453.04    11487.543 
  140400    297.44166   -13387.304    63.836431   -13451.141    -9792.091 
  140600    253.62162   -13400.783    54.431847   -13455.215    3871.8822 
  140800    310.77453   -13381.295    66.697909   -13447.993   -798.35593 
  141000    302.64857   -13386.309    64.953929   -13451.263   -18400.995 
  141200    267.68989   -13397.158    57.451156   -13454.609    1633.8971 
  141400     340.1838   -13376.376    73.009677   -13449.385    -4199.627 
  141600    308.03503   -13389.557    66.109963   -13455.667   -14708.112 
  141800    304.31068   -13389.297    65.310649   -13454.608   -529.21488 
  142000    275.30318   -13398.382    59.085107   -13457.467   -14516.257 
  142200    299.76088   -13393.937    64.334178   -13458.272    -1873.377 
  142400    336.12108    -13375.79    72.137742   -13447.928   -19417.882 
  142600    315.83504   -13383.641    67.783988   -13451.425   -6740.8765 
  142800    329.62583   -13393.199    70.743744   -13463.943    19058.571 
  143000    338.96635   -13383.478    72.748389   -13456.226    3845.5762 
  143200    367.31511   -13381.577    78.832554    -13460.41    8777.1084 
  143400     272.0618   -13397.702    58.389448   -13456.092     12183.28 
  143600    276.78934   -13375.613    59.404065   -13435.017   -5136.4383 
  143800    278.74612    -13383.55    59.824024   -13443.374    25151.117 
  144000    267.17601   -13393.317    57.340867   -13450.658    18055.375 
  144200    327.51447   -13373.685    70.290606   -13443.975   -14907.406 
  144400    304.99797   -13380.539    65.458152   -13445.997    8825.0747 
  144600    310.21892   -13389.153    66.578664   -13455.732    1904.1483 
  144800    272.87918    -13392.08    58.564871   -13450.645    10074.386 
  145000    328.27163   -13390.854    70.453108   -13461.307   -14384.938 
  145200    336.95008   -13384.585    72.315661     -13456.9   -9871.6657 
  145400    288.68394   -13399.116    61.956863   -13461.073    6645.2893 
  145600    314.97351   -13377.346    67.599088   -13444.945    12179.713 
  145800    304.28929   -13383.344    65.306057    -13448.65   -16446.927 
  146000    307.75404   -13397.315    66.049655   -13463.365   -18586.922 
  146200    279.97871   -13383.376     60.08856   -13443.465   -9025.1766 
  146400    276.41814   -13383.186    59.324398   -13442.511   -9209.2372 
  146600    285.21069   -13395.513     61.21144   -13456.724    9727.3659 
  146800     330.2406   -13390.444    70.875685    -13461.32    -13673.41 
  147000    309.13149   -13374.441    66.345282   -13440.787   -3840.0061 
  147200    300.69806    -13391.42    64.535314   -13455.955    14338.676 
  147400    332.36731   -13390.408    71.332114    -13461.74    14479.801 
  147600    260.96055   -13403.858    56.006916   -13459.865   -10770.989 
  147800    322.72797    -13388.39    69.263335   -13457.654   -3472.9976 
  148000    325.55276   -13380.493    69.869588   -13450.363     8373.628 
  148200    296.98813   -13384.873    63.739094   -13448.612    22649.388 
  148400    320.01595   -13394.327    68.681287   -13463.008    14845.569 
  148600     319.5465   -13380.578    68.580535   -13449.159    755.50935 
  148800    298.90339   -13390.656    64.150144   -13454.807   -20095.535 
  149000    307.07176   -13392.279    65.903226   -13458.183    2067.1627 
  149200    290.46754   -13370.545    62.339657   -13432.884   -18583.982 
  149400     333.6735   -13385.245    71.612447   -13456.858   -14657.774 
  149600    275.80843   -13393.044    59.193543   -13452.238    -1795.472 
  149800    309.88516   -13393.214    66.507033   -13459.721   -19405.358 
  150000    344.06429    -13383.25      73.8425   -13457.093    6094.5377 
  150200    289.77489   -13383.359    62.191001    -13445.55   -629.02996 
  150400    281.47102   -13394.773    60.408839   -13455.182   -14023.561 
  150600    315.19572   -13382.995    67.646777   -13450.642    5672.9599 
  150800    260.61822   -13407.487    55.933446   -13463.421   -9651.7662 
  151000    309.68048   -13387.878    66.463105   -13454.342   -8606.4976 
  151200    310.23432   -13383.196     66.58197   -13449.778    4977.1032 
  151400    265.82338   -13399.988    57.050568   -13457.038    -6759.059 
  151600    328.61021   -13381.772    70.525771   -13452.298    12812.707 
  151800    295.93728   -13380.784    63.513563   -13444.298   -5316.7264 
  152000    246.34743   -13397.797    52.870672   -13450.668     14387.02 
  152200    322.27583   -13374.241    69.166299   -13443.407    12193.619 
  152400    288.38638    -13386.89    61.893002   -13448.783   -3327.3012 
  152600    301.50756    -13389.07    64.709047   -13453.779   -7671.4953 
  152800    358.52192   -13368.248    76.945374   -13445.193   -17154.246 
  153000    297.41668   -13386.957     63.83107   -13450.788   -17716.706 
  153200    298.58778   -13395.652    64.082408   -13459.735    1098.8271 
  153400    366.73916   -13375.097    78.708943   -13453.806   -18238.097 
  153600    306.69987   -13398.957    65.823412   -13464.781   -13482.599 
  153800     299.4554   -13389.925    64.268616   -13454.193   -2034.9126 
  154000    347.59915   -13370.868    74.601146   -13445.469   -19350.533 
  154200    282.09764   -13398.883    60.543322   -13459.427     781.1111 
  154400     328.5878   -13390.728    70.520962   -13461.249   -802.10052 
  154600     302.6596    -13384.07    64.956296   -13449.026   -7462.5691 
  154800    246.74518   -13401.177    52.956038   -13454.133   -4855.4038 
  155000    266.36334   -13400.388    57.166454   -13457.554   -13228.883 
  155200     269.6661   -13384.127    57.875286   -13442.003   -8669.5595 
  155400    297.62874   -13398.016    63.876581   -13461.893   -499.36036 
  155600    290.46728   -13396.255      62.3396   -13458.594   -11122.551 
  155800    294.58961   -13392.002    63.224329   -13455.226   -112.49398 
  156000    308.19185   -13385.313    66.143618   -13451.456   -1537.0138 
  156200    342.75741   -13381.709     73.56202   -13455.272    7105.2823 
  156400    281.88148   -13396.641     60.49693   -13457.138   -8417.0659 
  156600     364.4503   -13382.428    78.217712   -13460.646    17954.941 
  156800    333.54448   -13369.273    71.584757   -13440.858   -7117.1116 
  157000    298.36626   -13385.976    64.034866   -13450.011    -3706.264 
  157200    314.26732   -13393.236    67.447526   -13460.683     8735.763 
  157400    260.42013   -13406.191    55.890931   -13462.082    11189.598 
  157600    350.24591   -13388.369     75.16919   -13463.538    33889.428 
  157800    310.70649   -13386.051    66.683306   -13452.734    4652.9514 
  158000    293.73868   -13404.568    63.041704    -13467.61   -3758.4331 
  158200    293.17398   -13391.581    62.920508   -13454.501     13458.84 
  158400    314.65329   -13385.451    67.530361   -13452.982   -13422.751 
  158600     313.5531   -13368.172    67.294242   -13435.466    3390.2459 
  158800    335.38306   -13394.888     71.97935   -13466.868   -5223.0682 
  159000    290.71468   -13396.956    62.392698   -13459.348   -286.24214 
  159200    322.54232   -13375.967    69.223492    -13445.19    18420.663 
  159400    333.15134   -13386.032    71.500381   -13457.532    10993.378 
  159600    279.09914   -13393.513     59.89979   -13453.412   -1569.7452 
  159800    325.91997   -13381.043    69.948398   -13450.991     6850.536 
  160000    336.69919   -13376.178    72.261816    -13448.44    12993.998 
  160200    322.98529    -13389.54    69.318562   -13458.859    3159.2277 
  160400    368.78916   -13386.669    79.148911   -13465.818   -2098.1318 
  160600    297.03497   -13383.871    63.749148   -13447.621   -17829.724 
  160800    271.01996    -13397.72    58.165849   -13455.886    212.51076 
  161000    370.22024   -13374.355    79.456048   -13453.811   -15669.891 
  161200    321.43899    -13383.05    68.986697   -13452.036   -8309.6707 
  161400    272.37854   -13394.158    58.457425   -13452.615   -12192.609 
  161600    263.53262   -13409.096     56.55893   -13465.655   -4190.9998 
  161800    304.31523   -13392.214    65.311624   -13457.526   -11376.702 
  162000    317.93694   -13380.528    68.235094   -13448.763    6463.2183 
  162200    274.72261   -13396.396    58.960506   -13455.357    1244.4917 
  162400    314.13374   -13387.869    67.418857   -13455.288     17966.59 
  162600    301.71125   -13387.876    64.752763   -13452.629    -202.2528 
  162800    240.83024   -13412.068    51.686582   -13463.754   -18481.601 
  163000    305.63343   -13397.674    65.594535   -13463.268    8177.9933 
  163200    333.58184   -13386.916    71.592775   -13458.509    3049.0765 
  163400    261.88701    -13402.86    56.205752   -13459.066    4935.9787 
  163600    343.88509   -13383.352    73.804041   -13457.156    2446.3473 
  163800    307.94322   -13386.698    66.090257   -13452.788    -5067.884 
  164000    288.69053   -13402.143    61.958278   -13464.101   -9776.6932 
  164200    288.83036   -13390.064    61.988288   -13452.052   -4851.8794 
  164400    282.19613   -13391.118     60.56446   -13451.683   -15264.296 
  164600    353.05658   -13380.458    75.772412   -13456.231   -6070.5487 
  164800    307.86577    -13390.59    66.073636   -13456.663    13689.477 
  165000    304.68471   -13393.312    65.390922   -13458.703    27493.143 
  165200    370.03593    -13387.68    79.416492   -13467.096    34699.313 
  165400    308.58063    -13400.69    66.227057   -13466.917   -1393.8721 
  165600    283.26958   -13384.081    60.794843   -13444.876   -12553.554 
  165800    294.19815   -13387.075    63.140314   -13450.215    -22923.89 
  166000    249.40913   -13399.422    53.527769    -13452.95   -6266.1604 
  166200    315.31555   -13383.973    67.672495   -13451.645    -5193.406 
  166400    348.68223   -13381.496    74.833596   -13456.329    15194.852 
  166600    295.55731   -13396.192    63.432013   -13459.624    2831.6234 
  166800    339.23005   -13383.574    72.804986   -13456.379    3698.5123 
  167000    284.37207   -13391.333    61.031457   -13452.364    1285.4325 
  167200    281.94911   -13412.693    60.511444   -13473.204   -8419.7143 
  167400    292.17796   -13395.559    62.706745   -13458.266   -11699.648 
  167600    293.95571   -13388.431    63.088281   -13451.519   -7067.5824 
  167800    255.34381   -13380.489     54.80146    -13435.29   -9483.1202 
  168000    317.63441   -13375.629    68.170165   -13443.799    8326.8725 
  168200    274.83444   -13397.105    58.984507   -13456.089   -6585.7695 
  168400    291.23965   -13384.281    62.505365   -13446.786   -9628.4814 
  168600    355.28032   -13374.808    76.249668   -13451.058    1803.4065 
  168800     268.0282   -13395.475    57.523762   -13452.998   -14406.944 
  169000    301.72938   -13391.657    64.756654   -13456.413   -8.0469972 
  169200    247.94132   -13398.098     53.21275   -13451.311   -17761.582 
  169400    312.93453    -13376.39    67.161483   -13443.551    4895.5495 
  169600     277.0129   -13390.787    59.452045   -13450.239   -16332.823 
  169800    300.63199   -13398.108    64.521134   -13462.629    -1885.546 
  170000    294.44978   -13386.055    63.194318   -13449.249   -4007.1256 
  170200    330.30157   -13375.637    70.888768   -13446.526    6723.7561 
  170400    291.32963   -13393.596    62.524677    -13456.12    7981.9979 
  170600    312.37074   -13390.704    67.040484   -13457.744    19772.351 
  170800    345.90702   -13372.694    74.237984   -13446.932     573.0255 
  171000    299.58147   -13392.482    64.295673   -13456.778    24561.151 
  171200    289.44175   -13399.156    62.119504   -13461.275   -806.09091 
  171400     294.7869   -13383.721     63.26667   -13446.988   -4732.0437 
  171600    266.01561   -13391.795    57.091825   -13448.887    8989.5331 
  171800    317.96786   -13391.885    68.241728   -13460.127   -3324.3741 
  172000    273.02202   -13386.822    58.595529   -13445.417   -11004.306 
  172200    276.09147    -13399.98    59.254288   -13459.234   -6102.0466 
  172400    316.15641    -13376.57     67.85296   -13444.422   -8174.2902 
  172600    285.20514   -13390.308    61.210249   -13451.518   -18885.066 
  172800    289.19553   -13396.078    62.066661   -13458.144     22659.15 
  173000    272.81422   -13391.801     58.55093   -13450.352    19413.473 
  173200    290.05787   -13383.509    62.251735   -13445.761   -2495.9336 
  173400    347.20218   -13384.037    74.515949   -13458.553   -223.21884 
  173600    276.65473   -13398.669    59.375174   -13458.044     11780.81 
  173800    314.95066   -13382.202    67.594184   -13449.796    3114.3666 
  174000    296.20792   -13383.531    63.571647   -13447.103    6780.4881 
  174200    303.29241    -13397.34    65.092109   -13462.432     17996.38 
  174400    351.28803   -13378.502    75.392848   -13453.895   -4404.4906 
  174600    304.63011    -13381.92    65.379203   -13447.299   -13743.281 
  174800    300.17891   -13397.621    64.423895   -13462.044    9939.2869 
  175000    317.75434   -13379.588    68.195904   -13447.784   -10675.146 
  175200    338.90207   -13381.926    72.734593   -13454.661   -1908.3799 
  175400    303.98109   -13387.705    65.239911   -13452.945    12461.054 
  175600     386.3375   -13370.658    82.915106   -13453.573    17938.671 
  175800    286.88256   -13391.432    61.570254   -13453.002    5053.1466 
  176000     293.8938    -13390.87    63.074994   -13453.945    -8698.057 
  176200    382.84829   -13371.419    82.166258   -13453.585   -3285.4524 
  176400    288.35138   -13396.153     61.88549   -13458.039   -3924.9576 
  176600    263.53096    -13383.99    56.558573   -13440.549    23065.006 
  176800    272.45548   -13383.738    58.473938   -13442.212   -8843.2845 
  177000    286.26002   -13399.964    61.436646   -13461.401    2280.7803 
  177200    249.16551   -13414.227    53.475484   -13467.702   -3252.2769 
  177400     287.2234    -13391.39    61.643404   -13453.033   -20367.313 
  177600    309.80392   -13380.881    66.489598   -13447.371    -8793.285 
  177800    290.68204   -13397.843    62.385692   -13460.229    10513.243 
  178000    249.20247   -13396.758    53.483416   -13450.241    8333.4349 
  178200    305.23505   -13383.946    65.509035   -13449.455      22243.7 
  178400    274.91214    -13394.09    59.001182   -13453.091   -16848.076 
  178600    265.21002   -13401.603     56.91893   -13458.522    1369.2997 
  178800    300.99678   -13391.021    64.599424   -13455.621     14990.67 
  179000    281.39503   -13391.086     60.39253   -13451.479   -2231.0059 
  179200    269.18711   -13403.646    57.772486   -13461.418    6223.8094 
  179400    289.59979   -13385.609    62.153422   -13447.762      2433.48 
[...]
  950000     358.9628   -13381.705    77.039995   -13458.745    -11681.51 
  950200    314.72529   -13387.474    67.545815    -13455.02   -9125.7245 
  950400    282.72719    -13400.74    60.678436   -13461.418    6041.3195 
  950600    321.03264   -13386.315    68.899487   -13455.214    14244.116 
  950800    294.69554   -13395.443    63.247063    -13458.69    2903.9525 
  951000     231.6636   -13410.499    49.719254   -13460.218   -4645.9438 
  951200    298.72852   -13389.062    64.112614   -13453.174    7796.5994 
  951400    317.31268   -13387.153    68.101115   -13455.254    29262.002 
  951600    264.54233   -13403.337    56.775631   -13460.112    8291.5369 
  951800    363.27665   -13384.497    77.965827   -13462.463     6063.187 
  952000    344.01005   -13385.946     73.83086   -13459.777    1728.2507 
  952200    293.89694   -13402.929    63.075668   -13466.005   -13215.773 
  952400     272.2154    -13393.78    58.422414   -13452.202    21378.322 
  952600     278.9491   -13380.859    59.867588   -13440.727    15662.433 
  952800    252.82613   -13398.637    54.261119   -13452.898    13970.217 
  953000    302.64287   -13396.395    64.952706   -13461.347    5597.6147 
  953200    305.70596   -13377.617      65.6101   -13443.227   -2556.0772 
  953400    329.92788   -13389.932    70.808568    -13460.74   -9857.6342 
  953600    256.40995   -13406.271    55.030273   -13461.302   -5164.2543 
  953800     321.7328   -13382.905    69.049754   -13451.955    841.24676 
  954000    318.90832   -13389.154    68.443568   -13457.598    4448.2846 
  954200    324.36321   -13384.214    69.614288   -13453.828   -7253.7722 
  954400    272.57604   -13396.307    58.499812   -13454.807    12903.722 
  954600    341.70179   -13389.521    73.335466   -13462.857    2009.5431 
  954800    346.83565   -13371.982    74.437285   -13446.419   -1284.9742 
  955000    286.84372   -13383.179    61.561919   -13444.741    18000.168 
  955200     322.1073   -13391.361    69.130129   -13460.491   -9809.9918 
  955400    273.34771   -13402.655    58.665428    -13461.32   -11503.063 
  955600    294.32138   -13393.505    63.166761   -13456.671   -5602.2149 
  955800    309.97007   -13376.851    66.525257   -13443.376    18760.401 
  956000    306.60505   -13395.443    65.803063   -13461.246    526.32998 
  956200    298.01138   -13393.573    63.958702   -13457.532   -8801.9271 
  956400    330.98646   -13386.021     71.03576   -13457.057    14176.226 
  956600    313.63253   -13389.767    67.311287   -13457.078   -19571.846 
  956800    236.80366    -13405.49    50.822404   -13456.312    20611.814 
  957000    319.57866   -13387.441    68.587437   -13456.028   -156.23488 
  957200    305.08266   -13385.911    65.476328   -13451.387   -1121.2026 
  957400    275.84032   -13397.487    59.200388   -13456.688   -19125.982 
  957600     356.4622   -13384.396    76.503321   -13460.899   -2026.2932 
  957800    267.61089   -13391.448    57.434201   -13448.882   -12318.605 
  958000    282.39352   -13398.193    60.606823     -13458.8    2109.3929 
  958200    294.07507   -13384.676    63.113899    -13447.79   -14689.523 
  958400    313.15192   -13402.226    67.208141   -13469.434    5148.2941 
  958600    222.80833   -13402.145    47.818751   -13449.964   -564.92096 
  958800    296.83858   -13383.268    63.706998   -13446.975    5069.1213 
  959000    289.93505   -13387.451    62.225375   -13449.677    6192.3424 
  959200    258.55251    -13398.42    55.490106    -13453.91    4339.5502 
  959400    329.42922    -13389.07    70.701547   -13459.771   -27531.703 
  959600    341.83043   -13374.608    73.363075   -13447.971   -2998.6652 
  959800    300.30988   -13377.928    64.452002    -13442.38   -1458.3781 
  960000     322.1913   -13393.778    69.148157   -13462.926   -13204.744 
  960200    319.15141   -13396.886    68.495741   -13465.382   -2607.8459 
  960400    298.61646   -13375.127    64.088563   -13439.216    15490.687 
  960600    329.23779   -13388.143    70.660462   -13458.804    9589.7321 
  960800    272.85223   -13394.558    58.559087   -13453.117   -14695.816 
  961000    290.44141    -13390.97    62.334048   -13453.304    9126.6256 
  961200    351.99451   -13374.233    75.544471   -13449.777    16694.091 
  961400    263.97891   -13391.889     56.65471   -13448.544   -16641.519 
  961600    320.00774   -13391.473    68.679524   -13460.152   -12610.707 
  961800    317.52231   -13367.463    68.146106   -13435.609    20951.253 
  962000    352.71699   -13378.132    75.699528   -13453.831   -17593.015 
  962200    302.51312   -13390.472    64.924859   -13455.397    13720.206 
  962400    289.42518   -13397.997    62.115946   -13460.113    16171.295 
  962600    278.48971   -13400.544    59.768996   -13460.313    1754.7959 
  962800    291.17882   -13382.644    62.492311   -13445.136     6136.057 
  963000    284.83833    -13394.91    61.131524   -13456.042    1128.3289 
  963200    270.25218   -13402.125     58.00107   -13460.126    6931.3911 
  963400    306.52513   -13390.332     65.78591   -13456.118   -12032.676 
  963600    280.21523   -13386.491    60.139322   -13446.631    6959.4645 
  963800    264.55959   -13402.884    56.779336   -13459.664   -11104.202 
  964000    335.17781   -13382.815    71.935299    -13454.75   -2564.8975 
  964200    303.93432   -13392.656    65.229874   -13457.886    -2197.954 
  964400    310.22604   -13380.789    66.580192   -13447.369   -1903.6609 
  964600    280.25819   -13377.156    60.148543   -13437.305    -5804.756 
  964800    298.37676   -13390.833    64.037119    -13454.87    19144.769 
  965000    276.91543   -13397.637    59.431125   -13457.068   -4894.8891 
  965200    282.44749   -13382.799    60.618406   -13443.418    6288.3235 
  965400    288.24716   -13384.097    61.863121    -13445.96   -9788.8237 
  965600    302.75538   -13400.339    64.976853   -13465.315    4064.0092 
  965800    312.20001   -13383.709    67.003843   -13450.712    2695.5503 
  966000    257.18422   -13387.371    55.196447   -13442.567    3897.9085 
  966200    284.22392   -13394.553    60.999661   -13455.553    18817.435 
  966400     280.1477   -13394.783     60.12483   -13454.908    16897.226 
  966600    316.24076   -13379.771    67.871061   -13447.642    6478.7862 
  966800     302.7579   -13397.903    64.977393    -13462.88   -22658.256 
  967000    310.56786    -13397.11    66.653553   -13463.764    -13763.07 
  967200    323.86261   -13385.416    69.506851   -13454.923    3355.6826 
  967400    286.96253   -13391.777    61.587418   -13453.365    184.41813 
  967600    232.40089   -13409.764    49.877489   -13459.642     17918.87 
  967800     283.4638   -13391.627    60.836526   -13452.464   -4890.8256 
  968000    315.47805   -13383.521    67.707371   -13451.229   -3140.1264 
  968200    272.94061    -13401.03    58.578057   -13459.608   -7916.3846 
  968400    316.23348   -13387.596      67.8695   -13455.466    3869.3395 
  968600    325.42871   -13385.483    69.842964   -13455.326   -4464.8776 
  968800    295.88526   -13397.669    63.502399   -13461.172   -7361.9196 
  969000    268.68618   -13404.859    57.664978   -13462.524   -3203.2279 
  969200    289.04477   -13387.698    62.034305   -13449.733    21696.665 
  969400    254.36686   -13391.399    54.591789   -13445.991   -17261.645 
  969600    270.35828   -13399.814    58.023841   -13457.838   -10844.842 
  969800    361.83581   -13382.462    77.656594   -13460.119     1437.942 
  970000    308.84264   -13397.072     66.28329   -13463.355   -5133.8502 
  970200     306.2289   -13405.265    65.722334   -13470.988   -12110.991 
  970400    335.56372   -13385.351    72.018123   -13457.369    5195.3758 
  970600    302.90013   -13387.556    65.007919   -13452.564    8644.1608 
  970800    254.35361   -13406.421    54.588945    -13461.01    13261.356 
  971000    263.05448   -13405.784    56.456312    -13462.24   -10688.286 
  971200    345.26871   -13383.547    74.100992   -13457.648    212.53731 
  971400     276.6677   -13393.934    59.377959   -13453.312    18854.571 
  971600    294.28039   -13391.359    63.157963   -13454.517    6494.1002 
  971800    302.09598   -13377.095    64.835332   -13441.931    10867.918 
  972000    298.57354   -13390.662    64.079354   -13454.741    11160.685 
  972200    231.17703   -13409.609    49.614826   -13459.224     2476.423 
  972400    278.58207   -13396.182    59.788817   -13455.971     9347.435 
  972600    338.16622   -13384.932    72.576667   -13457.508    31155.386 
  972800    306.96251   -13385.429     65.87978   -13451.308    9589.2801 
  973000    270.90451   -13400.415    58.141072   -13458.556   -13670.876 
  973200    310.26885   -13385.489    66.589379   -13452.078   -14858.632 
  973400    314.88008   -13383.472    67.579036   -13451.051    10278.793 
  973600    300.46399   -13391.317    64.485078   -13455.802   -1649.7518 
  973800    304.07712    -13392.29    65.260522   -13457.551   -1245.9308 
  974000    273.02624   -13393.537    58.596433   -13452.134     10807.37 
  974200     372.1299   -13377.095    79.865896   -13456.961   -4699.0088 
  974400    273.81027    -13384.57      58.7647   -13443.334   -1460.8482 
  974600    252.95061   -13402.734    54.287836   -13457.022     6393.414 
  974800    346.81635   -13382.427    74.433143    -13456.86   -2972.5082 
  975000    283.33199   -13387.877    60.808237   -13448.685    -6061.062 
  975200    302.29671   -13393.813    64.878413   -13458.691    4431.3977 
  975400    320.40512   -13376.595    68.764811    -13445.36    8977.6946 
  975600    274.02378   -13396.978    58.810525   -13455.788    35761.775 
  975800    298.68794    -13387.01    64.103906   -13451.114   -5634.5616 
  976000    302.93069   -13379.586    65.014478     -13444.6    14140.964 
  976200    336.74672   -13390.978    72.272017    -13463.25   -8388.8905 
  976400    258.07005   -13405.896    55.386561   -13461.282   -6969.3003 
  976600    292.55333   -13390.155    62.787306   -13452.942    2089.3957 
  976800    306.99887    -13380.29    65.887582   -13446.178    -8243.525 
  977000    300.90417   -13397.392    64.579549   -13461.972   -7716.3832 
  977200    299.93622   -13395.226    64.371809   -13459.598    538.07875 
  977400    341.08754   -13381.444    73.203637   -13454.647   -5355.8455 
  977600     302.6308   -13391.539    64.950115   -13456.489   -8797.6688 
  977800    262.59154   -13410.464    56.356956   -13466.821    2815.0058 
  978000    305.57667   -13391.305    65.582353   -13456.887   -7796.5199 
  978200    318.96563   -13383.332    68.455869   -13451.788    1174.1377 
  978400    324.11391   -13380.883    69.560784   -13450.443   -5610.9619 
  978600    302.61839   -13398.845    64.947451   -13463.792   -9430.2836 
  978800     296.1776   -13380.254    63.565139   -13443.819    -24012.62 
  979000    277.45767   -13383.952      59.5475   -13443.499    4791.2923 
  979200    281.84226   -13393.816    60.488513   -13454.304    2838.1814 
  979400    375.35862   -13372.277    80.558837   -13452.836    11632.095 
  979600    332.80704   -13382.882     71.42649   -13454.308   -4886.6718 
  979800    270.16584   -13394.043     57.98254   -13452.025   -2842.4049 
  980000    319.29079   -13373.098    68.525655   -13441.624    15724.638 
  980200     295.5239   -13385.945    63.424843    -13449.37    15778.265 
  980400    308.59577   -13390.216    66.230308   -13456.447    27421.886 
  980600     338.9171   -13375.903    72.737819   -13448.641    1467.9548 
  980800    328.31735   -13390.247    70.462919    -13460.71   -4359.4265 
  981000    293.59975   -13395.567    63.011886   -13458.579   -11522.034 
  981200    298.17075   -13378.271    63.992906   -13442.264   -720.57157 
  981400    346.77225   -13368.759    74.423679   -13443.183    10884.587 
  981600    273.62902   -13395.418    58.725801   -13454.143    -17541.81 
  981800    332.82082   -13385.055    71.429446   -13456.484     2150.023 
  982000    324.01981   -13373.693    69.540588   -13443.233    7916.2414 
  982200    279.70281   -13396.751    60.029348   -13456.781    5957.2525 
  982400    299.72574   -13385.445    64.326635   -13449.771    6632.1138 
  982600    301.43215    -13375.91    64.692862   -13440.602    7094.3141 
  982800     331.1306   -13389.273    71.066695   -13460.339    1981.8972 
  983000    301.50533    -13391.85    64.708568   -13456.559   -4373.8004 
  983200    329.21195   -13374.945    70.654917     -13445.6   -7377.6699 
  983400    268.99062   -13393.895    57.730317   -13451.625    1488.6365 
  983600    323.98409   -13391.277    69.532922    -13460.81   -10787.176 
  983800    316.82603   -13367.554    67.996671   -13435.551    14283.797 
  984000    290.95969   -13389.058     62.44528   -13451.504    14512.044 
  984200    304.78357   -13390.668    65.412138   -13456.081     22506.62 
  984400    346.38016   -13371.376    74.339528   -13445.716   -10682.166 
  984600    316.26698   -13386.882     67.87669   -13454.759    2339.6798 
  984800    293.17685   -13393.322    62.921124   -13456.243     928.0185 
  985000    335.21015   -13377.181    71.942241   -13449.124    2697.2048 
  985200    316.47248   -13381.775    67.920793   -13449.696   -15458.246 
  985400    271.05577   -13396.205    58.173534   -13454.378   -8303.5513 
  985600    323.10211   -13382.569    69.343634   -13451.913   -11416.583 
  985800    250.43567   -13394.619    53.748085   -13448.367    2324.2102 
  986000    314.40069    -13398.29    67.476148   -13465.766    1708.3595 
  986200    333.76519   -13374.823    71.632127   -13446.455    3651.2409 
  986400    304.83752   -13383.504    65.423718   -13448.928   -22247.602 
  986600      271.087   -13401.147    58.180238   -13459.327   -3644.0729 
  986800    278.62427    -13385.82    59.797873   -13445.618    3449.1631 
  987000    307.44254   -13382.538    65.982803   -13448.521   -420.85417 
  987200    274.75962   -13398.781    58.968449   -13457.749    5533.7023 
  987400    290.13602   -13383.264    62.268506   -13445.532     1101.304 
  987600    277.23077   -13390.258    59.498803   -13449.756    13877.831 
  987800    286.83115   -13400.738    61.559221   -13462.297    10281.109 
  988000    300.90997   -13383.989    64.580792   -13448.569   -822.58282 
  988200    336.85916   -13383.557    72.296149   -13455.853   -13868.858 
  988400    309.93635    -13401.12    66.518019   -13467.638    -3554.012 
  988600    269.77362   -13403.947    57.898362   -13461.846    7253.1715 
  988800    302.88979   -13387.367    65.005699   -13452.372    3137.7129 
  989000    297.71362   -13385.908    63.894799   -13449.803    12055.347 
  989200    263.97897   -13409.302    56.654724   -13465.957    2128.8076 
  989400    298.02901    -13398.96    63.962486   -13462.922   -16655.571 
  989600     316.3909   -13385.148    67.903285   -13453.052    9093.9748 
  989800    356.50643   -13379.396    76.512813   -13455.908    -6301.646 
  990000    265.50521   -13397.922    56.982282   -13454.905   -7177.4898 
  990200    296.53194   -13389.764    63.641187   -13453.405   -2726.1841 
  990400    306.23722   -13380.023    65.724119   -13445.747   -13457.674 
  990600    346.72501   -13384.928     74.41354   -13459.341    18221.664 
  990800    263.85191   -13406.511    56.627455   -13463.138    1699.2454 
  991000    262.98527   -13392.318    56.441458   -13448.759   -18101.969 
  991200    295.80902   -13385.803    63.486035   -13449.289   -16065.407 
  991400     244.6558   -13404.437    52.507618   -13456.945    2348.6957 
  991600    325.86202    -13384.06    69.935961   -13453.996    14265.861 
  991800    293.76006   -13382.924    63.046292    -13445.97   -15679.514 
  992000    308.36343    -13398.85    66.180443   -13465.031    11864.387 
  992200    285.09484   -13393.874    61.186577   -13455.061    10235.268 
  992400    319.77512   -13384.759    68.629599   -13453.389    1192.3833 
  992600    259.03599   -13401.832     55.59387   -13457.426     9525.942 
  992800    251.27218   -13401.448    53.927614   -13455.375    12399.513 
  993000    284.47277    -13382.58    61.053069   -13443.633    3788.6161 
  993200    287.69881   -13393.849    61.745435   -13455.595   -8514.3273 
  993400    271.98428   -13396.765     58.37281   -13455.138   -12581.379 
  993600    307.03127   -13386.535    65.894536   -13452.429    524.03967 
  993800    331.22665   -13389.661    71.087309   -13460.748    16207.265 
  994000     228.9572   -13403.838     49.13841   -13452.976    7152.6376 
  994200    309.47613   -13386.397    66.419247   -13452.816    -14622.41 
  994400    289.49146   -13387.488    62.130172   -13449.618   -10709.521 
  994600    251.69366   -13399.323    54.018071   -13453.341    10826.018 
  994800    276.05361   -13397.531    59.246162   -13456.777   -5923.8651 
  995000    303.99606   -13383.096    65.243124   -13448.339    4330.0541 
  995200    283.85556   -13401.387    60.920605   -13462.308    946.23417 
  995400    295.93509   -13391.268    63.513093   -13454.781    3561.3389 
  995600    323.16997   -13382.539    69.358197   -13451.898    27465.229 
  995800    301.97955   -13394.506    64.810345   -13459.317    8278.4094 
  996000    280.42316   -13398.974    60.183948   -13459.158   -17013.092 
  996200    324.25371   -13379.275    69.590788   -13448.866   -17691.858 
  996400    311.46997   -13386.806    66.847164   -13453.654   -5219.1873 
  996600    265.61927   -13393.602    57.006763   -13450.609    8435.9313 
  996800    285.00727   -13386.596    61.167782   -13447.764   -10484.364 
  997000    330.98571   -13373.209    71.035598   -13444.244    21367.921 
  997200    303.24203   -13394.565    65.081295   -13459.647   -21243.701 
  997400    260.77003   -13389.531    55.966027   -13445.497     2052.339 
  997600    328.24022   -13366.916    70.446365   -13437.362     6429.202 
  997800    284.94396   -13392.058    61.154195   -13453.212   -10601.313 
  998000    308.18167    -13395.39    66.141433   -13461.531    18508.086 
  998200    327.05041   -13376.133     70.19101   -13446.324   -11834.133 
  998400    300.58967   -13388.586    64.512051   -13453.099    19913.711 
  998600    282.68107   -13393.865    60.668538   -13454.533    4099.9537 
  998800    355.28407   -13373.953    76.250471   -13450.203    10443.772 
  999000    315.15948   -13384.589    67.638999   -13452.228   -27908.853 
  999200    282.37182   -13389.165    60.602167   -13449.767   -3205.9904 
  999400    288.63151   -13387.232     61.94561   -13449.177   -6138.2494 
  999600    315.30325   -13377.303    67.669855   -13444.973    16237.035 
  999800    296.64554   -13398.439    63.665568   -13462.105    5106.2599 
 1000000     271.8391   -13389.112    58.341652   -13447.454    4579.8705 
Loop time of 2230.19 on 8 procs for 1000000 steps with 73 atoms

Performance: 9.685 ns/day, 2.478 hours/ns, 448.393 timesteps/s
99.4% CPU use with 8 MPI tasks x no OpenMP threads

MPI task timing breakdown:
Section |  min time  |  avg time  |  max time  |%varavg| %total
---------------------------------------------------------------
Pair    | 1669       | 1788.8     | 1853.5     | 165.0 | 80.21
Neigh   | 0.082056   | 0.083453   | 0.084517   |   0.3 |  0.00
Comm    | 31.183     | 95.441     | 214.87     | 711.4 |  4.28
Output  | 0.070637   | 0.076951   | 0.11541    |   5.2 |  0.00
Modify  | 343.57     | 344.08     | 344.56     |   1.9 | 15.43
Other   |            | 1.69       |            |       |  0.08

Nlocal:    9.125 ave 18 max 0 min
Histogram: 2 0 0 0 1 2 1 0 1 1
Nghost:    507.375 ave 514 max 496 min
Histogram: 1 0 0 1 1 0 2 0 1 2
Neighs:    834.25 ave 1587 max 0 min
Histogram: 2 0 0 0 1 2 1 0 1 1

Total # of neighbors = 6674
Ave neighs/atom = 91.4247
Neighbor list builds = 158
Dangerous builds = 0

Please see the log.cite file for references relevant to this simulation

Total wall time: 0:37:13
