ITEM: TIMESTEP
0
ITEM: NUMBER OF ATOMS
49
ITEM: BOX BOUNDS pp pp pp
0.0000000000000000e+00 1.1000000000000000e+01
0.0000000000000000e+00 1.1002000000000001e+01
0.0000000000000000e+00 1.1000000000000000e+01
ITEM: ATOMS id type x y z 
10 1 4.603 4.603 4.603 
11 1 3.085 3.085 3.085 
12 1 3.796 3.796 3.796 
46 1 0.726 0.725 0.725 
47 1 2.26 2.259 2.26 
48 1 1.551 1.55 1.55 
19 1 4.546 4.545 6.226 
20 1 3.013 3.013 7.764 
21 1 3.721 3.721 7.053 
31 1 0.668 0.667 10.103 
32 1 2.187 2.187 8.589 
33 1 1.476 1.475 9.298 
16 1 4.546 6.225 4.546 
17 1 3.013 7.765 3.013 
18 1 3.721 7.053 3.722 
25 1 0.668 10.103 0.668 
26 1 2.188 8.589 2.188 
27 1 1.476 9.298 1.476 
49 2 0.764 9.701 2.197 
4 1 4.608 6.169 6.169 
5 1 3.086 7.684 7.684 
6 1 3.799 6.974 6.974 
37 1 0.729 10.046 10.046 
38 1 2.259 8.509 8.508 
39 1 1.552 9.219 9.219 
13 1 6.225 4.546 4.546 
14 1 7.764 3.013 3.013 
15 1 7.053 3.721 3.722 
28 1 10.102 0.667 0.668 
29 1 8.589 2.187 2.188 
30 1 9.298 1.475 1.476 
1 1 6.168 4.608 6.169 
2 1 7.684 3.086 7.684 
3 1 6.974 3.799 6.974 
40 1 10.045 0.728 10.046 
41 1 8.508 2.259 8.508 
42 1 9.218 1.551 9.218 
7 1 6.169 6.169 4.608 
8 1 7.684 7.684 3.086 
9 1 6.974 6.974 3.799 
43 1 10.046 10.047 0.729 
44 1 8.508 8.509 2.259 
45 1 9.219 9.219 1.552 
22 1 6.229 6.229 6.229 
23 1 7.764 7.765 7.765 
24 1 7.055 7.056 7.055 
34 1 10.108 10.108 10.107 
35 1 8.59 8.59 8.59 
36 1 9.301 9.301 9.3 
ITEM: TIMESTEP
10
ITEM: NUMBER OF ATOMS
49
ITEM: BOX BOUNDS pp pp pp
0.0000000000000000e+00 1.1000000000000000e+01
0.0000000000000000e+00 1.1002000000000001e+01
0.0000000000000000e+00 1.1000000000000000e+01
ITEM: ATOMS id type x y z 
10 1 4.59703 4.5817 4.59717 
11 1 3.08045 3.08345 3.08044 
12 1 3.79253 3.78631 3.7925 
46 1 0.734918 0.752942 0.732851 
47 1 2.27502 2.27158 2.27502 
48 1 1.56589 1.56917 1.56509 
19 1 4.53728 4.53661 6.23478 
20 1 3.0028 3.00337 7.77356 
21 1 3.7099 3.70864 7.06537 
31 1 0.673267 0.688233 10.0903 
32 1 2.19377 2.18971 8.58388 
33 1 1.47883 1.48614 9.29164 
16 1 4.52824 6.24172 4.52944 
17 1 2.97253 7.8104 2.97039 
18 1 3.73061 7.04731 3.72823 
25 1 0.654508 10.1369 0.601613 
26 1 2.24843 8.52841 2.24184 
27 1 1.46969 9.2918 1.46033 
49 2 0.754341 9.6867 2.29362 
4 1 4.60231 6.17402 6.19026 
5 1 3.0831 7.68706 7.68509 
6 1 3.79552 6.97684 6.98108 
37 1 0.7421 10.0332 10.0106 
38 1 2.27893 8.48915 8.49154 
39 1 1.56998 9.201 9.19482 
13 1 6.23433 4.53744 4.53742 
14 1 7.77338 3.00377 3.00359 
15 1 7.06509 3.70871 3.71018 
28 1 10.0886 0.673836 0.675288 
29 1 8.58539 2.19082 2.19264 
30 1 9.29041 1.48196 1.48131 
1 1 6.17551 4.60048 6.17557 
2 1 7.68852 3.08223 7.68759 
3 1 6.97978 3.79169 6.98141 
40 1 10.0347 0.737972 10.0363 
41 1 8.4991 2.26817 8.49851 
42 1 9.20572 1.56291 9.20695 
7 1 6.19048 6.1743 4.60217 
8 1 7.68738 7.68923 3.08094 
9 1 6.98319 6.97915 3.79313 
43 1 10.0205 10.0401 0.735085 
44 1 8.49908 8.49674 2.27136 
45 1 9.20186 9.2077 1.56345 
22 1 6.23833 6.23798 6.23764 
23 1 7.77337 7.77441 7.77377 
24 1 7.06665 7.06727 7.06755 
34 1 10.0856 10.1021 10.1 
35 1 8.58753 8.58437 8.58413 
36 1 9.28961 9.29638 9.29558 
ITEM: TIMESTEP
20
ITEM: NUMBER OF ATOMS
49
ITEM: BOX BOUNDS pp pp pp
0.0000000000000000e+00 1.1000000000000000e+01
0.0000000000000000e+00 1.1002000000000001e+01
0.0000000000000000e+00 1.1000000000000000e+01
ITEM: ATOMS id type x y z 
10 1 4.6027 4.58212 4.60029 
11 1 3.08374 3.08788 3.08278 
12 1 3.79613 3.78254 3.79778 
46 1 0.732075 0.752587 0.729305 
47 1 2.27337 2.26969 2.27374 
48 1 1.56413 1.56941 1.56337 
19 1 4.53457 4.53102 6.23707 
20 1 3.00412 3.00013 7.77537 
21 1 3.70533 3.71009 7.06469 
31 1 0.66626 0.694029 10.0916 
32 1 2.19221 2.18955 8.58473 
33 1 1.47805 1.48743 9.29195 
16 1 4.53044 6.24183 4.53006 
17 1 2.97797 7.80781 2.97191 
18 1 3.73874 7.04531 3.72775 
25 1 0.661482 10.1349 0.581899 
26 1 2.27654 8.51585 2.20406 
27 1 1.41414 9.2999 1.52539 
49 2 0.743169 9.69108 2.32278 
4 1 4.61123 6.16558 6.19129 
5 1 3.09147 7.68034 7.68442 
6 1 3.79466 6.97366 6.97219 
37 1 0.738013 10.0421 10 
38 1 2.28007 8.48761 8.4929 
39 1 1.57113 9.20116 9.18583 
13 1 6.23694 4.53514 4.53335 
14 1 7.77473 3.00057 3.00432 
15 1 7.06629 3.711 3.70589 
28 1 10.0909 0.673558 0.675077 
29 1 8.58616 2.19091 2.19117 
30 1 9.28911 1.48049 1.48227 
1 1 6.17697 4.59728 6.17612 
2 1 7.68629 3.08397 7.68626 
3 1 6.97902 3.79317 6.9787 
40 1 10.0271 0.742644 10.0297 
41 1 8.49459 2.26981 8.49593 
42 1 9.20643 1.5678 9.20474 
7 1 6.1966 6.17031 4.60528 
8 1 7.6896 7.68694 3.08551 
9 1 6.9793 6.97815 3.78904 
43 1 10.0255 10.0432 0.732485 
44 1 8.50014 8.50093 2.26759 
45 1 9.20757 9.20854 1.56331 
22 1 6.242 6.24258 6.23917 
23 1 7.77427 7.77534 7.77678 
24 1 7.07037 7.06884 7.06544 
34 1 10.0798 10.106 10.1016 
35 1 8.58686 8.58495 8.58466 
36 1 9.28783 9.29621 9.29546 
ITEM: TIMESTEP
30
ITEM: NUMBER OF ATOMS
49
ITEM: BOX BOUNDS pp pp pp
0.0000000000000000e+00 1.1000000000000000e+01
0.0000000000000000e+00 1.1002000000000001e+01
0.0000000000000000e+00 1.1000000000000000e+01
ITEM: ATOMS id type x y z 
10 1 4.60283 4.57623 4.60211 
11 1 3.08377 3.0849 3.08379 
12 1 3.79525 3.7847 3.79469 
46 1 0.73003 0.746771 0.725759 
47 1 2.27332 2.26986 2.27421 
48 1 1.56429 1.57015 1.56302 
19 1 4.53615 4.53365 6.23447 
20 1 3.0016 3.00001 7.77596 
21 1 3.7068 3.70588 7.06676 
31 1 0.665071 0.694528 10.0921 
32 1 2.19314 2.18853 8.58527 
33 1 1.47497 1.49043 9.29172 
16 1 4.53376 6.24157 4.52908 
17 1 2.97576 7.81371 2.95611 
18 1 3.73591 7.04549 3.73077 
25 1 0.668681 10.1251 0.592916 
26 1 2.28553 8.5098 2.18589 
27 1 1.40666 9.30082 1.5537 
49 2 0.725798 9.70378 2.32881 
4 1 4.61084 6.16595 6.19138 
5 1 3.09018 7.67942 7.68001 
6 1 3.8012 6.9697 6.97807 
37 1 0.735583 10.0453 10.0009 
38 1 2.28093 8.48673 8.49201 
39 1 1.57028 9.20324 9.18556 
13 1 6.23604 4.5381 4.53385 
14 1 7.77639 3.00023 3.00124 
15 1 7.06801 3.7069 3.70675 
28 1 10.091 0.674714 0.675921 
29 1 8.5867 2.18915 2.19033 
30 1 9.29081 1.48048 1.48098 
1 1 6.1769 4.59855 6.17572 
2 1 7.68555 3.08394 7.68483 
3 1 6.97843 3.79492 6.97942 
40 1 10.0298 0.742049 10.0321 
41 1 8.49408 2.27346 8.49392 
42 1 9.20139 1.56719 9.20278 
7 1 6.19773 6.17115 4.60413 
8 1 7.68782 7.68846 3.081 
9 1 6.98761 6.97818 3.79323 
43 1 10.0328 10.045 0.728944 
44 1 8.50104 8.49998 2.26945 
45 1 9.20531 9.2094 1.56241 
22 1 6.24189 6.23927 6.23552 
23 1 7.77548 7.77524 7.77552 
24 1 7.06975 7.06921 7.06812 
34 1 10.0801 10.1068 10.1007 
35 1 8.58797 8.58427 8.58552 
36 1 9.28506 9.29919 9.29552 
ITEM: TIMESTEP
40
ITEM: NUMBER OF ATOMS
49
ITEM: BOX BOUNDS pp pp pp
0.0000000000000000e+00 1.1000000000000000e+01
0.0000000000000000e+00 1.1002000000000001e+01
0.0000000000000000e+00 1.1000000000000000e+01
ITEM: ATOMS id type x y z 
10 1 4.60432 4.57329 4.60198 
11 1 3.08255 3.08141 3.08289 
12 1 3.79565 3.78399 3.79437 
46 1 0.732987 0.737876 0.726944 
47 1 2.27065 2.27024 2.27272 
48 1 1.5647 1.56662 1.56162 
19 1 4.5356 4.53142 6.23306 
20 1 3.00182 2.99923 7.77665 
21 1 3.70661 3.7049 7.06648 
31 1 0.661827 0.694555 10.0922 
32 1 2.1916 2.19005 8.58574 
33 1 1.47381 1.48926 9.29235 
16 1 4.53465 6.24232 4.53103 
17 1 2.98523 7.80721 2.942 
18 1 3.74268 7.04124 3.72316 
25 1 0.67487 10.1135 0.598511 
26 1 2.30883 8.49637 2.14533 
27 1 1.38446 9.31153 1.6062 
49 2 0.677071 9.73896 2.34804 
4 1 4.61025 6.16462 6.18785 
5 1 3.08459 7.68101 7.67647 
6 1 3.81105 6.96715 6.99239 
37 1 0.737852 10.0442 10.0069 
38 1 2.27897 8.48817 8.4898 
39 1 1.5709 9.20396 9.1857 
13 1 6.23625 4.53879 4.53059 
14 1 7.77731 2.99942 3.0004 
15 1 7.06937 3.70575 3.70549 
28 1 10.0942 0.674795 0.674154 
29 1 8.58659 2.18835 2.18935 
30 1 9.29314 1.47866 1.48092 
1 1 6.17672 4.59923 6.17371 
2 1 7.68396 3.08513 7.68333 
3 1 6.97702 3.79688 6.97706 
40 1 10.0263 0.744292 10.0322 
41 1 8.4928 2.27522 8.49243 
42 1 9.19886 1.5689 9.20207 
7 1 6.20194 6.17051 4.60326 
8 1 7.6909 7.69012 3.07918 
9 1 6.99018 6.97886 3.79293 
43 1 10.0405 10.0425 0.728631 
44 1 8.50173 8.5027 2.26742 
45 1 9.20938 9.20954 1.56162 
22 1 6.24395 6.23988 6.23345 
23 1 7.77638 7.77548 7.77621 
24 1 7.0705 7.06902 7.06752 
34 1 10.082 10.1095 10.0984 
35 1 8.58628 8.58446 8.58631 
36 1 9.28617 9.30094 9.29597 
ITEM: TIMESTEP
50
ITEM: NUMBER OF ATOMS
49
ITEM: BOX BOUNDS pp pp pp
0.0000000000000000e+00 1.1000000000000000e+01
0.0000000000000000e+00 1.1002000000000001e+01
0.0000000000000000e+00 1.1000000000000000e+01
ITEM: ATOMS id type x y z 
10 1 4.60399 4.57729 4.59975 
11 1 3.08313 3.08024 3.0839 
12 1 3.79516 3.78051 3.7933 
46 1 0.742116 0.723823 0.727791 
47 1 2.26841 2.27101 2.27007 
48 1 1.5661 1.56087 1.56315 
19 1 4.53619 4.53036 6.22966 
20 1 3.00317 2.99894 7.77635 
21 1 3.70715 3.70337 7.06541 
31 1 0.656301 0.691882 10.0932 
32 1 2.18762 2.18992 8.58841 
33 1 1.47044 1.48973 9.29408 
16 1 4.53454 6.24164 4.53989 
17 1 3.00447 7.79219 2.8953 
18 1 3.76173 7.03051 3.69759 
25 1 0.686647 10.0953 0.614127 
26 1 2.33626 8.48385 2.09417 
27 1 1.34647 9.33619 1.69256 
49 2 0.591593 9.80042 2.3883 
4 1 4.61552 6.16605 6.19606 
5 1 3.09908 7.67776 7.6864 
6 1 3.79409 6.96208 6.97314 
37 1 0.743481 10.04 10.0179 
38 1 2.27618 8.49101 8.48013 
39 1 1.57562 9.2011 9.19519 
13 1 6.23546 4.54038 4.52681 
14 1 7.77893 2.99708 3.0001 
15 1 7.06994 3.70593 3.70196 
28 1 10.1039 0.668306 0.679462 
29 1 8.59322 2.17702 2.19842 
30 1 9.28886 1.4912 1.45822 
1 1 6.17302 4.60059 6.16709 
2 1 7.6814 3.08831 7.6809 
3 1 6.97596 3.79733 6.97312 
40 1 10.0268 0.744138 10.0338 
41 1 8.49239 2.27515 8.49339 
42 1 9.19869 1.56916 9.20334 
7 1 6.19906 6.17047 4.59949 
8 1 7.69324 7.69151 3.07935 
9 1 6.99428 6.97883 3.7911 
43 1 10.0505 10.0352 0.728194 
44 1 8.50189 8.50435 2.26686 
45 1 9.21326 9.20757 1.56063 
22 1 6.24333 6.24088 6.2343 
23 1 7.77186 7.77571 7.78119 
24 1 7.08277 7.0683 7.059 
34 1 10.0867 10.1164 10.0935 
35 1 8.58617 8.5884 8.59121 
36 1 9.2889 9.30382 9.29583 
ITEM: TIMESTEP
60
ITEM: NUMBER OF ATOMS
49
ITEM: BOX BOUNDS pp pp pp
0.0000000000000000e+00 1.1000000000000000e+01
0.0000000000000000e+00 1.1002000000000001e+01
0.0000000000000000e+00 1.1000000000000000e+01
ITEM: ATOMS id type x y z 
10 1 4.6035 4.57735 4.59905 
11 1 3.08227 3.07973 3.08385 
12 1 3.7958 3.78061 3.79278 
46 1 0.74252 0.721474 0.728879 
47 1 2.2674 2.27101 2.27047 
48 1 1.56824 1.55891 1.56206 
19 1 4.53544 4.5302 6.22925 
20 1 3.00215 2.99806 7.77728 
21 1 3.70682 3.70201 7.06605 
31 1 0.659936 0.690112 10.0945 
32 1 2.18619 2.19283 8.5899 
33 1 1.47189 1.48514 9.29161 
16 1 4.5371 6.24266 4.53128 
17 1 3.01381 7.78584 2.87137 
18 1 3.7539 7.03407 3.69994 
25 1 0.684952 10.0933 0.620916 
26 1 2.3275 8.49154 2.10001 
27 1 1.34385 9.33919 1.69927 
49 2 0.586058 9.80472 2.39866 
4 1 4.61302 6.16185 6.1892 
5 1 3.09004 7.67746 7.68332 
6 1 3.80438 6.96759 6.98347 
37 1 0.747613 10.0367 10.0252 
38 1 2.27606 8.49291 8.4847 
39 1 1.57308 9.20274 9.19206 
13 1 6.23593 4.54046 4.52465 
14 1 7.77955 2.99607 3.00083 
15 1 7.06958 3.70543 3.7018 
28 1 10.1027 0.671761 0.670385 
29 1 8.59025 2.18341 2.18844 
30 1 9.29598 1.47913 1.47506 
1 1 6.17485 4.60136 6.1676 
2 1 7.68144 3.08848 7.681 
3 1 6.97569 3.79713 6.97196 
40 1 10.0269 0.744337 10.0347 
41 1 8.49045 2.27611 8.49319 
42 1 9.19832 1.57141 9.20094 
7 1 6.19986 6.17112 4.6003 
8 1 7.69338 7.69095 3.07946 
9 1 6.99402 6.97939 3.7919 
43 1 10.0516 10.0348 0.727066 
44 1 8.50305 8.50527 2.26611 
45 1 9.21436 9.20769 1.55947 
22 1 6.24701 6.2396 6.22935 
23 1 7.77666 7.77524 7.77807 
24 1 7.07607 7.06937 7.0647 
34 1 10.0909 10.1134 10.0942 
35 1 8.58446 8.58882 8.59141 
36 1 9.28952 9.30312 9.29529 
ITEM: TIMESTEP
70
ITEM: NUMBER OF ATOMS
49
ITEM: BOX BOUNDS pp pp pp
0.0000000000000000e+00 1.1000000000000000e+01
0.0000000000000000e+00 1.1002000000000001e+01
0.0000000000000000e+00 1.1000000000000000e+01
ITEM: ATOMS id type x y z 
10 1 4.60418 4.57783 4.59856 
11 1 3.08249 3.07926 3.08369 
12 1 3.79504 3.78136 3.79306 
46 1 0.743017 0.721198 0.728768 
47 1 2.26825 2.27063 2.27051 
48 1 1.5674 1.55893 1.56231 
19 1 4.53529 4.53103 6.22887 
20 1 3.00241 2.99828 7.77711 
21 1 3.70708 3.70245 7.06558 
31 1 0.661008 0.687485 10.0939 
32 1 2.18592 2.19196 8.58911 
33 1 1.47171 1.48674 9.29335 
16 1 4.53399 6.24349 4.53324 
17 1 3.01891 7.78551 2.86609 
18 1 3.75833 7.03132 3.69117 
25 1 0.68342 10.0939 0.62378 
26 1 2.32365 8.49152 2.10318 
27 1 1.33982 9.34251 1.70526 
49 2 0.584055 9.80661 2.40359 
4 1 4.61302 6.1633 6.18903 
5 1 3.09094 7.67727 7.68236 
6 1 3.80466 6.96615 6.98342 
37 1 0.748147 10.0363 10.0267 
38 1 2.27584 8.49306 8.4839 
39 1 1.57416 9.20195 9.19323 
13 1 6.23524 4.54015 4.52454 
14 1 7.77964 2.99561 3.0007 
15 1 7.06994 3.70545 3.70088 
28 1 10.1018 0.673028 0.670975 
29 1 8.59047 2.18324 2.18663 
30 1 9.29817 1.47718 1.47707 
1 1 6.17473 4.60168 6.16637 
2 1 7.68133 3.08845 7.68066 
3 1 6.97552 3.79744 6.9719 
40 1 10.0279 0.744051 10.0337 
41 1 8.49075 2.27588 8.49326 
42 1 9.19821 1.57154 9.20177 
7 1 6.19949 6.17139 4.60001 
8 1 7.69385 7.69143 3.07955 
9 1 6.99416 6.97923 3.79134 
43 1 10.0507 10.0352 0.726302 
44 1 8.50317 8.50498 2.26647 
45 1 9.21404 9.20735 1.55919 
22 1 6.2464 6.23981 6.22934 
23 1 7.77716 7.77465 7.77707 
24 1 7.07413 7.06932 7.06557 
34 1 10.0925 10.1128 10.0935 
35 1 8.58439 8.5888 8.59131 
36 1 9.28954 9.3034 9.29522 
ITEM: TIMESTEP
80
ITEM: NUMBER OF ATOMS
49
ITEM: BOX BOUNDS pp pp pp
0.0000000000000000e+00 1.1000000000000000e+01
0.0000000000000000e+00 1.1002000000000001e+01
0.0000000000000000e+00 1.1000000000000000e+01
ITEM: ATOMS id type x y z 
10 1 4.60404 4.57883 4.59805 
11 1 3.08254 3.0794 3.08388 
12 1 3.79514 3.78138 3.79306 
46 1 0.743078 0.7213 0.729133 
47 1 2.26858 2.2702 2.27074 
48 1 1.56775 1.55892 1.5624 
19 1 4.53531 4.5313 6.2284 
20 1 3.00271 2.99843 7.7769 
21 1 3.70696 3.70284 7.06531 
31 1 0.661902 0.685369 10.0933 
32 1 2.18555 2.19222 8.58901 
33 1 1.47208 1.48654 9.2935 
16 1 4.53183 6.24481 4.53342 
17 1 3.02362 7.78333 2.85835 
18 1 3.76482 7.02732 3.68138 
25 1 0.68194 10.0938 0.627483 
26 1 2.3196 8.49326 2.10731 
27 1 1.33561 9.34572 1.71288 
49 2 0.580629 9.80979 2.40999 
4 1 4.61274 6.1634 6.18896 
5 1 3.09096 7.67669 7.68288 
6 1 3.80477 6.96739 6.98241 
37 1 0.749416 10.0351 10.0294 
38 1 2.27567 8.49332 8.48377 
39 1 1.57451 9.20166 9.1941 
13 1 6.23473 4.54057 4.52379 
14 1 7.77988 2.99528 3.00018 
15 1 7.07015 3.70516 3.70025 
28 1 10.1021 0.673501 0.671033 
29 1 8.59115 2.18316 2.18667 
30 1 9.29829 1.47631 1.47729 
1 1 6.1746 4.60174 6.16536 
2 1 7.68127 3.08848 7.68068 
3 1 6.97565 3.79721 6.97141 
40 1 10.0293 0.743467 10.033 
41 1 8.49074 2.27577 8.49365 
42 1 9.1987 1.57144 9.2021 
7 1 6.19857 6.17084 4.59918 
8 1 7.69421 7.69076 3.07952 
9 1 6.99355 6.9802 3.79212 
43 1 10.0496 10.0351 0.725606 
44 1 8.50358 8.5043 2.26664 
45 1 9.21333 9.20775 1.55906 
22 1 6.24567 6.24007 6.22901 
23 1 7.77723 7.77433 7.77696 
24 1 7.07344 7.06931 7.06556 
34 1 10.0939 10.1129 10.0922 
35 1 8.58358 8.58932 8.59146 
36 1 9.29098 9.30263 9.2942 
ITEM: TIMESTEP
90
ITEM: NUMBER OF ATOMS
49
ITEM: BOX BOUNDS pp pp pp
0.0000000000000000e+00 1.1000000000000000e+01
0.0000000000000000e+00 1.1002000000000001e+01
0.0000000000000000e+00 1.1000000000000000e+01
ITEM: ATOMS id type x y z 
10 1 4.60392 4.57888 4.59824 
11 1 3.08263 3.07937 3.08394 
12 1 3.79505 3.78155 3.79308 
46 1 0.743 0.721282 0.729106 
47 1 2.26863 2.27004 2.27064 
48 1 1.56781 1.55876 1.56262 
19 1 4.53545 4.53151 6.22809 
20 1 3.00286 2.99872 7.77665 
21 1 3.70714 3.70293 7.06517 
31 1 0.662209 0.6849 10.0932 
32 1 2.1855 2.19231 8.58906 
33 1 1.47217 1.48645 9.29333 
16 1 4.53206 6.24473 4.53229 
17 1 3.02568 7.78214 2.85508 
18 1 3.76559 7.02689 3.67949 
25 1 0.681399 10.0939 0.628948 
26 1 2.31846 8.49384 2.10865 
27 1 1.33426 9.34673 1.71532 
49 2 0.579184 9.81107 2.412 
4 1 4.61264 6.1632 6.189 
5 1 3.09088 7.67679 7.68302 
6 1 3.80469 6.96755 6.98235 
37 1 0.749854 10.0347 10.0304 
38 1 2.27573 8.49332 8.48363 
39 1 1.57452 9.20161 9.19462 
13 1 6.2347 4.54062 4.52354 
14 1 7.77989 2.99526 3.00018 
15 1 7.07006 3.70517 3.69997 
28 1 10.1023 0.67338 0.670697 
29 1 8.5912 2.18296 2.18678 
30 1 9.29856 1.47646 1.47731 
1 1 6.17432 4.60175 6.16528 
2 1 7.68123 3.08858 7.68073 
3 1 6.9757 3.79698 6.97115 
40 1 10.0299 0.743443 10.0329 
41 1 8.49097 2.27584 8.49403 
42 1 9.1986 1.57108 9.20188 
7 1 6.19828 6.17134 4.59944 
8 1 7.69412 7.69113 3.08006 
9 1 6.99364 6.97927 3.79147 
43 1 10.0492 10.0353 0.725517 
44 1 8.50366 8.50447 2.26659 
45 1 9.2133 9.20731 1.55905 
22 1 6.24546 6.24001 6.22885 
23 1 7.77715 7.77423 7.77702 
24 1 7.07333 7.06932 7.0654 
34 1 10.0944 10.1129 10.0918 
35 1 8.58357 8.58929 8.59143 
36 1 9.29109 9.30273 9.29399 
ITEM: TIMESTEP
95
ITEM: NUMBER OF ATOMS
49
ITEM: BOX BOUNDS pp pp pp
0.0000000000000000e+00 1.1000000000000000e+01
0.0000000000000000e+00 1.1002000000000001e+01
0.0000000000000000e+00 1.1000000000000000e+01
ITEM: ATOMS id type x y z 
10 1 4.60392 4.5789 4.59821 
11 1 3.08262 3.07937 3.08395 
12 1 3.79507 3.78157 3.79306 
46 1 0.742976 0.721299 0.729119 
47 1 2.26862 2.27007 2.27066 
48 1 1.56787 1.55871 1.56261 
19 1 4.53549 4.53149 6.22812 
20 1 3.00292 2.99869 7.77668 
21 1 3.70701 3.70295 7.06513 
31 1 0.662239 0.68485 10.0932 
32 1 2.18549 2.19232 8.58905 
33 1 1.4722 1.48645 9.29336 
16 1 4.53204 6.24473 4.53227 
17 1 3.0258 7.78207 2.85488 
18 1 3.76575 7.02681 3.67926 
25 1 0.681351 10.0939 0.629047 
26 1 2.31837 8.49388 2.10875 
27 1 1.33416 9.3468 1.71551 
49 2 0.579071 9.81117 2.41216 
4 1 4.61272 6.16338 6.18892 
5 1 3.09096 7.67695 7.68297 
6 1 3.80451 6.96727 6.98246 
37 1 0.749909 10.0346 10.0305 
38 1 2.27574 8.4933 8.48373 
39 1 1.57449 9.20168 9.1945 
13 1 6.23469 4.54064 4.52351 
14 1 7.77992 2.99522 3.00014 
15 1 7.07001 3.70522 3.70002 
28 1 10.1023 0.673379 0.670697 
29 1 8.59123 2.18295 2.1868 
30 1 9.29854 1.47645 1.47729 
1 1 6.17435 4.60173 6.16524 
2 1 7.68122 3.08856 7.68071 
3 1 6.97572 3.797 6.97116 
40 1 10.0298 0.743431 10.033 
41 1 8.49091 2.27584 8.49409 
42 1 9.19871 1.57108 9.20179 
7 1 6.19826 6.17129 4.5994 
8 1 7.69413 7.69109 3.08004 
9 1 6.99362 6.97934 3.79153 
43 1 10.0492 10.0353 0.725503 
44 1 8.50365 8.50445 2.26661 
45 1 9.21331 9.20732 1.55903 
22 1 6.24546 6.24006 6.22879 
23 1 7.77712 7.77423 7.77693 
24 1 7.07334 7.06928 7.06554 
34 1 10.0945 10.1128 10.0917 
35 1 8.58357 8.58928 8.59142 
36 1 9.2911 9.30274 9.29397 
ITEM: TIMESTEP
99
ITEM: NUMBER OF ATOMS
49
ITEM: BOX BOUNDS pp pp pp
0.0000000000000000e+00 1.1000000000000000e+01
0.0000000000000000e+00 1.1002000000000001e+01
0.0000000000000000e+00 1.1000000000000000e+01
ITEM: ATOMS id type x y z 
10 1 4.60393 4.5789 4.5982 
11 1 3.08264 3.07936 3.08395 
12 1 3.79505 3.78158 3.79306 
46 1 0.742974 0.721303 0.729119 
47 1 2.26862 2.27007 2.27066 
48 1 1.56787 1.5587 1.56261 
19 1 4.53547 4.53149 6.2281 
20 1 3.00289 2.9987 7.77667 
21 1 3.70706 3.70295 7.06516 
31 1 0.662243 0.684839 10.0932 
32 1 2.18548 2.19232 8.58904 
33 1 1.47221 1.48644 9.29336 
16 1 4.53203 6.24473 4.53226 
17 1 3.02583 7.78206 2.85483 
18 1 3.7658 7.02678 3.67918 
25 1 0.68134 10.0939 0.629073 
26 1 2.31834 8.49389 2.10877 
27 1 1.33413 9.34682 1.71556 
49 2 0.57904 9.8112 2.41221 
4 1 4.61272 6.16339 6.18892 
5 1 3.09097 7.67695 7.68297 
6 1 3.8045 6.96727 6.98245 
37 1 0.749914 10.0346 10.0305 
38 1 2.27573 8.49332 8.48371 
39 1 1.57451 9.20165 9.19454 
13 1 6.23469 4.54064 4.52351 
14 1 7.77993 2.99522 3.00013 
15 1 7.07 3.70523 3.70002 
28 1 10.1023 0.673383 0.670717 
29 1 8.59127 2.18296 2.18683 
30 1 9.29849 1.47644 1.47724 
1 1 6.17436 4.60172 6.16523 
2 1 7.68122 3.08856 7.68071 
3 1 6.97572 3.79701 6.97117 
40 1 10.0299 0.743429 10.0329 
41 1 8.49093 2.27585 8.49407 
42 1 9.19868 1.57108 9.20181 
7 1 6.19825 6.17129 4.59939 
8 1 7.69413 7.69108 3.08004 
9 1 6.99362 6.97935 3.79154 
43 1 10.0492 10.0353 0.725505 
44 1 8.50367 8.50443 2.26661 
45 1 9.21327 9.20735 1.55902 
22 1 6.24546 6.24006 6.22877 
23 1 7.77712 7.77423 7.77691 
24 1 7.07332 7.06928 7.06556 
34 1 10.0945 10.1128 10.0917 
35 1 8.58357 8.58929 8.59141 
36 1 9.2911 9.30273 9.29398 
ITEM: TIMESTEP
100
ITEM: NUMBER OF ATOMS
49
ITEM: BOX BOUNDS pp pp pp
-5.5000000000000003e-04 1.1000550000000000e+01
-5.4502801637366536e-04 1.1002545028016375e+01
-5.4932608671262411e-04 1.1000549326086713e+01
ITEM: ATOMS id type x y z 
10 1 4.60384 4.57881 4.59811 
11 1 3.08239 3.07912 3.08371 
12 1 3.79488 3.78141 3.79289 
46 1 0.742499 0.72083 0.728643 
47 1 2.2683 2.26975 2.27034 
48 1 1.56748 1.55831 1.56222 
19 1 4.53537 4.5314 6.22817 
20 1 3.00264 2.99845 7.77689 
21 1 3.70688 3.70277 7.06532 
31 1 0.661758 0.684361 10.0937 
32 1 2.18515 2.192 8.58935 
33 1 1.47181 1.48604 9.29374 
16 1 4.53194 6.24481 4.53217 
17 1 3.02559 7.78229 2.85457 
18 1 3.76563 7.02693 3.679 
25 1 0.680858 10.0944 0.628587 
26 1 2.31802 8.49419 2.10844 
27 1 1.33371 9.34721 1.71519 
49 2 0.578547 9.81163 2.4119 
4 1 4.61263 6.16346 6.18899 
5 1 3.09073 7.67717 7.68319 
6 1 3.80433 6.96742 6.9826 
37 1 0.749439 10.0351 10.031 
38 1 2.27541 8.49361 8.48401 
39 1 1.57411 9.20202 9.19491 
13 1 6.23476 4.54054 4.52341 
14 1 7.78016 2.99497 2.99988 
15 1 7.07015 3.70505 3.69984 
28 1 10.1028 0.672906 0.670233 
29 1 8.59157 2.18263 2.18649 
30 1 9.29887 1.47604 1.47684 
1 1 6.17442 4.60163 6.16529 
2 1 7.68144 3.08832 7.68092 
3 1 6.97586 3.79684 6.97132 
40 1 10.0303 0.742957 10.0334 
41 1 8.49123 2.27553 8.49437 
42 1 9.19905 1.57069 9.20218 
7 1 6.19833 6.17135 4.5993 
8 1 7.69435 7.69129 3.07979 
9 1 6.99377 6.9795 3.79137 
43 1 10.0497 10.0358 0.725028 
44 1 8.50397 8.50473 2.26629 
45 1 9.21364 9.20771 1.55863 
22 1 6.24553 6.24013 6.22885 
23 1 7.77735 7.77445 7.77714 
24 1 7.07348 7.06944 7.06572 
34 1 10.095 10.1133 10.0922 
35 1 8.58388 8.58959 8.59172 
36 1 9.29148 9.30311 9.29436 
ITEM: TIMESTEP
110
ITEM: NUMBER OF ATOMS
49
ITEM: BOX BOUNDS pp pp pp
-5.2237988174979157e-03 1.1005223798817502e+01
-4.1227339614812314e-03 1.1006122733961481e+01
-3.0802795318794316e-03 1.1003080279531876e+01
ITEM: ATOMS id type x y z 
10 1 4.60357 4.57855 4.59818 
11 1 3.08046 3.0777 3.08271 
12 1 3.79331 3.78009 3.79199 
46 1 0.738044 0.717293 0.726038 
47 1 2.26535 2.26744 2.26864 
48 1 1.56388 1.55544 1.56014 
19 1 4.53494 4.53113 6.22813 
20 1 3.00073 2.99702 7.77773 
21 1 3.70561 3.70189 7.06576 
31 1 0.657196 0.680741 10.0963 
32 1 2.1822 2.18973 8.59091 
33 1 1.46855 1.48356 9.29532 
16 1 4.53142 6.24498 4.53201 
17 1 3.0234 7.7839 2.85302 
18 1 3.7646 7.02751 3.67828 
25 1 0.676218 10.0979 0.625869 
26 1 2.31541 8.49599 2.10717 
27 1 1.33005 9.34981 1.71353 
49 2 0.574278 9.81451 2.41061 
4 1 4.61237 6.1634 6.18898 
5 1 3.08882 7.67846 7.68408 
6 1 3.80271 6.96854 6.98343 
37 1 0.74507 10.0383 10.0336 
38 1 2.27243 8.4958 8.48559 
39 1 1.57055 9.20466 9.19693 
13 1 6.23501 4.5403 4.52333 
14 1 7.78189 2.99355 2.99891 
15 1 7.07121 3.70416 3.6993 
28 1 10.1072 0.669281 0.667505 
29 1 8.59434 2.18035 2.18482 
30 1 9.30196 1.47355 1.47518 
1 1 6.17451 4.60151 6.16511 
2 1 7.68314 3.08687 7.6818 
3 1 6.9773 3.7956 6.97214 
40 1 10.0346 0.739468 10.0358 
41 1 8.49397 2.27323 8.49597 
42 1 9.20248 1.56787 9.20413 
7 1 6.19859 6.17127 4.59937 
8 1 7.69608 7.69257 3.0788 
9 1 6.9952 6.98064 3.79048 
43 1 10.0539 10.0392 0.722402 
44 1 8.50673 8.50689 2.26459 
45 1 9.2171 9.2104 1.55654 
22 1 6.24578 6.24023 6.22881 
23 1 7.77905 7.77571 7.77798 
24 1 7.07458 7.0702 7.06616 
34 1 10.0994 10.1168 10.0948 
35 1 8.58664 8.59175 8.59325 
36 1 9.29454 9.30541 9.29597 
ITEM: TIMESTEP
120
ITEM: NUMBER OF ATOMS
49
ITEM: BOX BOUNDS pp pp pp
-8.9519430367055296e-03 1.1008951943036713e+01
-6.4881514835082171e-03 1.1008488151483508e+01
-3.7503348267962457e-03 1.1003750334826789e+01
ITEM: ATOMS id type x y z 
10 1 4.60362 4.57858 4.59872 
11 1 3.07897 3.07682 3.08258 
12 1 3.79197 3.77914 3.79158 
46 1 0.734289 0.714667 0.724926 
47 1 2.26274 2.26555 2.26781 
48 1 1.56102 1.55361 1.55948 
19 1 4.53481 4.53124 6.2277 
20 1 2.99948 2.99641 7.77755 
21 1 3.70458 3.70129 7.06577 
31 1 0.653324 0.678032 10.0974 
32 1 2.17979 2.18814 8.59143 
33 1 1.46604 1.48205 9.29559 
16 1 4.53126 6.24482 4.5322 
17 1 3.02174 7.78497 2.85218 
18 1 3.76394 7.02769 3.67838 
25 1 0.672284 10.1004 0.624812 
26 1 2.31331 8.49714 2.10713 
27 1 1.32703 9.35163 1.71316 
49 2 0.57083 9.81647 2.41037 
4 1 4.6124 6.16306 6.18859 
5 1 3.08732 7.67926 7.68415 
6 1 3.80139 6.96935 6.98389 
37 1 0.741407 10.0407 10.0349 
38 1 2.26976 8.49758 8.48638 
39 1 1.56778 9.20636 9.19765 
13 1 6.23501 4.54038 4.52373 
14 1 7.78298 2.99291 2.99907 
15 1 7.07208 3.70359 3.6992 
28 1 10.111 0.66657 0.666284 
29 1 8.59661 2.17874 2.18429 
30 1 9.30433 1.47204 1.47486 
1 1 6.17435 4.60176 6.16455 
2 1 7.68447 3.086 7.6819 
3 1 6.9785 3.79465 6.97252 
40 1 10.0382 0.736883 10.0369 
41 1 8.49645 2.2714 8.4968 
42 1 9.20517 1.566 9.20476 
7 1 6.19858 6.17096 4.59993 
8 1 7.69735 7.69342 3.07868 
9 1 6.99653 6.98132 3.79005 
43 1 10.0576 10.0417 0.721264 
44 1 8.50923 8.50863 2.26373 
45 1 9.21979 9.21215 1.55588 
22 1 6.24578 6.24003 6.22836 
23 1 7.78015 7.77622 7.77777 
24 1 7.07542 7.0707 7.06621 
34 1 10.1031 10.1194 10.0959 
35 1 8.58888 8.59323 8.59379 
36 1 9.29692 9.30685 9.29619 
ITEM: TIMESTEP
130
ITEM: NUMBER OF ATOMS
49
ITEM: BOX BOUNDS pp pp pp
-1.2476972079258766e-02 1.1012476972079270e+01
-8.8412951145927909e-03 1.1010841295114593e+01
-4.2459024895317929e-03 1.1004245902489522e+01
ITEM: ATOMS id type x y z 
10 1 4.60367 4.5786 4.59925 
11 1 3.07755 3.07598 3.08249 
12 1 3.79073 3.77812 3.79127 
46 1 0.730668 0.712116 0.723947 
47 1 2.26016 2.26367 2.26701 
48 1 1.55841 1.55175 1.55903 
19 1 4.53474 4.53135 6.22724 
20 1 2.99838 2.99585 7.77724 
21 1 3.70355 3.70065 7.0658 
31 1 0.649628 0.675369 10.0984 
32 1 2.17749 2.1866 8.59184 
33 1 1.4637 1.48051 9.29575 
16 1 4.53114 6.24466 4.53244 
17 1 3.02021 7.786 2.85145 
18 1 3.76335 7.02785 3.67843 
25 1 0.668579 10.1029 0.624065 
26 1 2.31125 8.49834 2.10721 
27 1 1.32415 9.35347 1.71291 
49 2 0.567572 9.81844 2.41017 
4 1 4.61247 6.16275 6.18824 
5 1 3.08592 7.68009 7.68419 
6 1 3.80009 6.97014 6.98427 
37 1 0.737923 10.0431 10.0361 
38 1 2.26719 8.49938 8.48716 
39 1 1.56516 9.20804 9.19817 
13 1 6.23494 4.5405 4.52413 
14 1 7.78392 2.99236 2.99931 
15 1 7.07298 3.70292 3.69919 
28 1 10.1145 0.663913 0.665228 
29 1 8.59877 2.17716 2.18386 
30 1 9.30655 1.47051 1.47468 
1 1 6.17417 4.60197 6.164 
2 1 7.68571 3.0851 7.68194 
3 1 6.97966 3.79373 6.97284 
40 1 10.0417 0.734296 10.0378 
41 1 8.49886 2.26952 8.4976 
42 1 9.20769 1.56419 9.20519 
7 1 6.19865 6.17056 4.60046 
8 1 7.69863 7.69416 3.0786 
9 1 6.99765 6.98223 3.78976 
43 1 10.061 10.0441 0.72028 
44 1 8.51169 8.51041 2.26294 
45 1 9.22226 9.21385 1.55538 
22 1 6.24568 6.23982 6.22792 
23 1 7.78106 7.77668 7.77748 
24 1 7.07634 7.07125 7.0662 
34 1 10.1066 10.1219 10.0969 
35 1 8.59101 8.59469 8.59422 
36 1 9.29916 9.3083 9.29629 
ITEM: TIMESTEP
140
ITEM: NUMBER OF ATOMS
49
ITEM: BOX BOUNDS pp pp pp
-1.5324316011393660e-02 1.1015324316011407e+01
-1.0612974217646318e-02 1.1012612974217646e+01
-3.8773397453681197e-03 1.1003877339745358e+01
ITEM: ATOMS id type x y z 
10 1 4.60389 4.57873 4.59996 
11 1 3.07642 3.07542 3.08278 
12 1 3.78969 3.77723 3.79123 
46 1 0.727574 0.709986 0.723645 
47 1 2.25796 2.262 2.26665 
48 1 1.55622 1.55038 1.55916 
19 1 4.53488 4.53165 6.22659 
20 1 2.99767 2.99561 7.77649 
21 1 3.70272 3.70022 7.06558 
31 1 0.6465 0.673124 10.0987 
32 1 2.17561 2.18537 8.59177 
33 1 1.46186 1.47944 9.29528 
16 1 4.53122 6.24435 4.53289 
17 1 3.01902 7.78678 2.85106 
18 1 3.76306 7.02779 3.6787 
25 1 0.665436 10.1049 0.624195 
26 1 2.30952 8.49925 2.1079 
27 1 1.32172 9.35495 1.71326 
49 2 0.564913 9.81998 2.41042 
4 1 4.61265 6.16228 6.18778 
5 1 3.08477 7.68064 7.68386 
6 1 3.79907 6.97086 6.98446 
37 1 0.73495 10.045 10.0366 
38 1 2.26494 8.50095 8.48754 
39 1 1.56301 9.20935 9.19815 
13 1 6.23472 4.54079 4.52476 
14 1 7.78452 2.99214 3.00003 
15 1 7.07366 3.70245 3.69941 
28 1 10.1176 0.661728 0.664873 
29 1 8.60056 2.17592 2.18394 
30 1 9.30829 1.46942 1.47516 
1 1 6.1739 4.60234 6.16329 
2 1 7.68671 3.08451 7.68163 
3 1 6.98059 3.79291 6.97297 
40 1 10.0447 0.732119 10.038 
41 1 8.50099 2.26791 8.49801 
42 1 9.20976 1.56279 9.20505 
7 1 6.19859 6.17007 4.60117 
8 1 7.69958 7.6947 3.07889 
9 1 6.99871 6.98292 3.78973 
43 1 10.0639 10.0463 0.719953 
44 1 8.51384 8.51195 2.26258 
45 1 9.22432 9.21516 1.55551 
22 1 6.24543 6.23944 6.22728 
23 1 7.78166 7.77682 7.77674 
24 1 7.07701 7.07164 7.06597 
34 1 10.1097 10.1241 10.0972 
35 1 8.59277 8.59587 8.59413 
36 1 9.30091 9.30925 9.29584 
ITEM: TIMESTEP
150
ITEM: NUMBER OF ATOMS
49
ITEM: BOX BOUNDS pp pp pp
-1.9984104215107011e-02 1.1019984104215125e+01
-1.4073032460741802e-02 1.1016073032460742e+01
-4.2343558903155682e-03 1.1004234355890306e+01
ITEM: ATOMS id type x y z 
10 1 4.60423 4.57857 4.60087 
11 1 3.07468 3.07406 3.08285 
12 1 3.78779 3.77591 3.79078 
46 1 0.722436 0.706156 0.722371 
47 1 2.2543 2.25905 2.26559 
48 1 1.55278 1.5476 1.55864 
19 1 4.53504 4.53209 6.2257 
20 1 2.99638 2.99498 7.77573 
21 1 3.70147 3.6992 7.06549 
31 1 0.641675 0.66897 10.1 
32 1 2.1727 2.18303 8.59232 
33 1 1.45852 1.47732 9.29494 
16 1 4.53131 6.24382 4.53335 
17 1 3.01712 7.78811 2.84987 
18 1 3.76264 7.02811 3.67876 
25 1 0.660434 10.1085 0.623871 
26 1 2.30658 8.5011 2.10855 
27 1 1.31774 9.35779 1.71318 
49 2 0.560574 9.82297 2.41019 
4 1 4.61299 6.16184 6.18729 
5 1 3.08302 7.68196 7.68375 
6 1 3.79712 6.9719 6.98503 
37 1 0.730065 10.0487 10.0382 
38 1 2.26125 8.50382 8.48861 
39 1 1.5595 9.21184 9.1989 
13 1 6.23437 4.54112 4.52561 
14 1 7.78557 2.99144 3.00076 
15 1 7.07477 3.70153 3.69935 
28 1 10.1224 0.657746 0.663649 
29 1 8.60349 2.17353 2.18358 
30 1 9.31113 1.46731 1.47512 
1 1 6.17343 4.6026 6.16242 
2 1 7.68821 3.08312 7.68154 
3 1 6.98239 3.79167 6.97339 
40 1 10.0497 0.728092 10.0391 
41 1 8.50445 2.26502 8.49912 
42 1 9.21308 1.56009 9.20547 
7 1 6.19855 6.16963 4.60215 
8 1 7.70112 7.69602 3.07906 
9 1 7.00055 6.98384 3.78914 
43 1 10.0686 10.0501 0.718618 
44 1 8.51735 8.51466 2.26148 