LAMMPS (3 Mar 2020)
# Alpha
clear
units		real
dimension 3
boundary        p p p
atom_style	charge
newton on
read_data       H_18.lmp
  triclinic box = (0 0 0) to (13.552 11.7355 22.15) with tilt (-6.7755 0 0)
  2 by 2 by 2 MPI processor grid
  reading atoms ...
  161 atoms
  read_data CPU = 0.0104094 secs

timestep 0.25

# ---------- Define Interatomic Potential ---------------------
pair_style      reax/c NULL checkqeq no
pair_coeff      * * ffield.reax C H
fix             2 all qeq/reax 1 0.0 10.0 1.0e-6 reax/c

#------------ Equilibration of the system -------------------------
reset_timestep 0

dump 1 all custom 10 min.lammpstrj id type x y z

minimize 1.0e-8 1.0e-8 100000 100000
WARNING: Using 'neigh_modify every 1 delay 0 check yes' setting during minimization (../min.cpp:190)
WARNING: Total cutoff < 2*bond cutoff. May need to use an increased neighbor list skin. (../pair_reaxc.cpp:413)
Neighbor list info ...
  update every 1 steps, delay 0 steps, check yes
  max neighbors/atom: 2000, page size: 100000
  master list distance cutoff = 9.5
  ghost atom cutoff = 9.5
  binsize = 4.75, bins = 5 3 5
  2 neighbor lists, perpetual/occasional/extra = 2 0 0
  (1) pair reax/c, perpetual
      attributes: half, newton off, ghost
      pair build: half/bin/newtoff/ghost
      stencil: half/ghost/bin/3d/newtoff
      bin: standard
  (2) fix qeq/reax, perpetual, copy from (1)
      attributes: half, newton off, ghost
      pair build: copy
      stencil: none
      bin: none
Per MPI rank memory allocation (min/avg/max) = 22.39 | 23.31 | 24.23 Mbytes
Step Temp E_pair E_mol TotEng Press 
       0            0    -25467.85            0    -25467.85    98398.024 
     343            0    -29131.89            0    -29131.89    37092.017 
Loop time of 19.3732 on 8 procs for 343 steps with 161 atoms

99.2% CPU use with 8 MPI tasks x no OpenMP threads

Minimization stats:
  Stopping criterion = energy tolerance
  Energy initial, next-to-last, final = 
         -25467.849686     -29131.8899345     -29131.8899971
  Force two-norm initial, final = 4638.96 131.109
  Force max component initial, final = 780.034 21.8012
  Final line search alpha, max atom move = 0.0013499 0.0294295
  Iterations, force evaluations = 343 2401

MPI task timing breakdown:
Section |  min time  |  avg time  |  max time  |%varavg| %total
---------------------------------------------------------------
Pair    | 14.657     | 15.435     | 16.009     |  13.5 | 79.67
Neigh   | 0          | 0          | 0          |   0.0 |  0.00
Comm    | 0.1445     | 0.71609    | 1.4909     |  62.7 |  3.70
Output  | 0.0016595  | 0.0020905  | 0.0035684  |   1.3 |  0.01
Modify  | 3.1922     | 3.1935     | 3.1949     |   0.1 | 16.48
Other   |            | 0.02686    |            |       |  0.14

Nlocal:    20.125 ave 33 max 4 min
Histogram: 2 0 1 0 1 0 0 1 0 3
Nghost:    836.875 ave 879 max 787 min
Histogram: 2 1 1 0 0 0 0 0 0 4
Neighs:    2753.5 ave 4424 max 590 min
Histogram: 2 0 0 1 1 0 0 0 1 3

Total # of neighbors = 22028
Ave neighs/atom = 136.82
Neighbor list builds = 0
Dangerous builds = 0

###
min_style cg
minimize 1.0e-8 1.0e-8 100000 100000
WARNING: Using 'neigh_modify every 1 delay 0 check yes' setting during minimization (../min.cpp:190)
WARNING: Total cutoff < 2*bond cutoff. May need to use an increased neighbor list skin. (../pair_reaxc.cpp:413)
Per MPI rank memory allocation (min/avg/max) = 22.39 | 23.31 | 24.23 Mbytes
Step Temp E_pair E_mol TotEng Press 
     343            0    -29131.89            0    -29131.89    37092.017 
     367            0   -29132.416            0   -29132.416    36134.961 
Loop time of 1.77914 on 8 procs for 24 steps with 161 atoms

99.2% CPU use with 8 MPI tasks x no OpenMP threads

Minimization stats:
  Stopping criterion = energy tolerance
  Energy initial, next-to-last, final = 
        -29131.8899971     -29132.4156974     -29132.4159131
  Force two-norm initial, final = 131.109 34.7682
  Force max component initial, final = 21.8012 5.05373
  Final line search alpha, max atom move = 0.000151914 0.00076773
  Iterations, force evaluations = 24 215

MPI task timing breakdown:
Section |  min time  |  avg time  |  max time  |%varavg| %total
---------------------------------------------------------------
Pair    | 1.334      | 1.4228     | 1.4848     |   5.0 | 79.97
Neigh   | 0          | 0          | 0          |   0.0 |  0.00
Comm    | 0.012408   | 0.074301   | 0.16293    |  21.9 |  4.18
Output  | 9.068e-05  | 0.00011323 | 0.00020892 |   0.0 |  0.01
Modify  | 0.27936    | 0.27948    | 0.27959    |   0.0 | 15.71
Other   |            | 0.002449   |            |       |  0.14

Nlocal:    20.125 ave 33 max 4 min
Histogram: 2 0 1 1 0 0 0 0 2 2
Nghost:    866.125 ave 914 max 814 min
Histogram: 1 3 0 0 0 0 0 0 1 3
Neighs:    2742 ave 4367 max 583 min
Histogram: 2 0 0 2 0 0 0 0 0 4

Total # of neighbors = 21936
Ave neighs/atom = 136.248
Neighbor list builds = 0
Dangerous builds = 0

###
fix 1 all box/relax aniso 0.0
min_style cg
minimize 1.0e-8 1.0e-8 100000 100000
WARNING: Using 'neigh_modify every 1 delay 0 check yes' setting during minimization (../min.cpp:190)
WARNING: Total cutoff < 2*bond cutoff. May need to use an increased neighbor list skin. (../pair_reaxc.cpp:413)
Per MPI rank memory allocation (min/avg/max) = 22.39 | 23.31 | 24.23 Mbytes
Step Temp E_pair E_mol TotEng Press Volume 
     367            0   -29132.416            0   -29132.416    36134.961    3522.7279 
     424            0   -29143.887            0   -29143.887    776.26896    3527.7162 
Loop time of 0.749396 on 8 procs for 57 steps with 161 atoms

99.2% CPU use with 8 MPI tasks x no OpenMP threads

Minimization stats:
  Stopping criterion = energy tolerance
  Energy initial, next-to-last, final = 
        -29132.4159131     -29143.8865415     -29143.8866276
  Force two-norm initial, final = 4085.08 725.054
  Force max component initial, final = 3582.04 477.236
  Final line search alpha, max atom move = 4.08986e-10 1.95183e-07
  Iterations, force evaluations = 57 98

MPI task timing breakdown:
Section |  min time  |  avg time  |  max time  |%varavg| %total
---------------------------------------------------------------
Pair    | 0.60279    | 0.64208    | 0.67068    |   3.3 | 85.68
Neigh   | 0          | 0          | 0          |   0.0 |  0.00
Comm    | 0.0041186  | 0.032616   | 0.071845   |  14.6 |  4.35
Output  | 0.0002626  | 0.00031727 | 0.00054663 |   0.0 |  0.04
Modify  | 0.071102   | 0.071154   | 0.071211   |   0.0 |  9.49
Other   |            | 0.003228   |            |       |  0.43

Nlocal:    20.125 ave 33 max 4 min
Histogram: 2 0 1 1 0 0 0 0 2 2
Nghost:    866.125 ave 914 max 814 min
Histogram: 1 3 0 0 0 0 0 0 1 3
Neighs:    2741.5 ave 4367 max 583 min
Histogram: 2 0 0 2 0 0 0 0 0 4

Total # of neighbors = 21932
Ave neighs/atom = 136.224
Neighbor list builds = 0
Dangerous builds = 0

unfix 1
###
min_style cg
minimize 1.0e-8 1.0e-8 100000 100000
WARNING: Using 'neigh_modify every 1 delay 0 check yes' setting during minimization (../min.cpp:190)
WARNING: Total cutoff < 2*bond cutoff. May need to use an increased neighbor list skin. (../pair_reaxc.cpp:413)
Per MPI rank memory allocation (min/avg/max) = 22.39 | 23.31 | 24.23 Mbytes
Step Temp E_pair E_mol TotEng Press 
     424            0   -29143.887            0   -29143.887    776.26896 
     638            0   -29186.469            0   -29186.469    31571.175 
Loop time of 13.4036 on 8 procs for 214 steps with 161 atoms

99.2% CPU use with 8 MPI tasks x no OpenMP threads

Minimization stats:
  Stopping criterion = energy tolerance
  Energy initial, next-to-last, final = 
        -29143.8866276     -29186.4688969     -29186.4690506
  Force two-norm initial, final = 377.717 87.6802
  Force max component initial, final = 48.3072 23.7243
  Final line search alpha, max atom move = 0.000410284 0.00973369
  Iterations, force evaluations = 214 1639

MPI task timing breakdown:
Section |  min time  |  avg time  |  max time  |%varavg| %total
---------------------------------------------------------------
Pair    | 10.127     | 10.716     | 11.156     |  12.3 | 79.95
Neigh   | 0          | 0          | 0          |   0.0 |  0.00
Comm    | 0.095906   | 0.53399    | 1.1207     |  55.0 |  3.98
Output  | 0.00099165 | 0.0012055  | 0.0020728  |   1.0 |  0.01
Modify  | 2.1336     | 2.1344     | 2.1354     |   0.0 | 15.92
Other   |            | 0.01815    |            |       |  0.14

Nlocal:    20.125 ave 33 max 4 min
Histogram: 2 0 1 1 0 0 0 0 2 2
Nghost:    863.625 ave 914 max 808 min
Histogram: 1 2 1 0 0 0 0 0 2 2
Neighs:    2731.62 ave 4347 max 581 min
Histogram: 2 0 0 2 0 0 0 0 0 4

Total # of neighbors = 21853
Ave neighs/atom = 135.733
Neighbor list builds = 0
Dangerous builds = 0

###
fix 1 all box/relax aniso 0.0
min_style cg
minimize 1.0e-8 1.0e-8 100000 100000
WARNING: Using 'neigh_modify every 1 delay 0 check yes' setting during minimization (../min.cpp:190)
WARNING: Total cutoff < 2*bond cutoff. May need to use an increased neighbor list skin. (../pair_reaxc.cpp:413)
Per MPI rank memory allocation (min/avg/max) = 22.39 | 23.31 | 24.23 Mbytes
Step Temp E_pair E_mol TotEng Press Volume 
     638            0   -29186.469            0   -29186.469    31571.175    3527.7162 
     712            0   -29199.729            0   -29199.729    1176.9477    3534.0735 
Loop time of 0.952051 on 8 procs for 74 steps with 161 atoms

99.2% CPU use with 8 MPI tasks x no OpenMP threads

Minimization stats:
  Stopping criterion = linesearch alpha is zero
  Energy initial, next-to-last, final = 
        -29186.4690506     -29199.7290446     -29199.7290446
  Force two-norm initial, final = 3654.01 559.248
  Force max component initial, final = 3207.44 376.402
  Final line search alpha, max atom move = 3.16707e-14 1.19209e-11
  Iterations, force evaluations = 74 125

MPI task timing breakdown:
Section |  min time  |  avg time  |  max time  |%varavg| %total
---------------------------------------------------------------
Pair    | 0.77445    | 0.81515    | 0.84823    |   3.4 | 85.62
Neigh   | 0          | 0          | 0          |   0.0 |  0.00
Comm    | 0.0071436  | 0.040059   | 0.080611   |  15.1 |  4.21
Output  | 0.00035759 | 0.00043131 | 0.00072755 |   0.0 |  0.05
Modify  | 0.092211   | 0.09229    | 0.092368   |   0.0 |  9.69
Other   |            | 0.004122   |            |       |  0.43

Nlocal:    20.125 ave 33 max 4 min
Histogram: 2 0 1 1 0 0 0 0 2 2
Nghost:    861.625 ave 913 max 808 min
Histogram: 2 1 1 0 0 0 0 0 2 2
Neighs:    2734.25 ave 4401 max 578 min
Histogram: 2 0 0 2 0 0 0 0 1 3

Total # of neighbors = 21874
Ave neighs/atom = 135.863
Neighbor list builds = 0
Dangerous builds = 0

unfix 1
###
min_style cg
minimize 1.0e-8 1.0e-8 100000 100000
WARNING: Using 'neigh_modify every 1 delay 0 check yes' setting during minimization (../min.cpp:190)
WARNING: Total cutoff < 2*bond cutoff. May need to use an increased neighbor list skin. (../pair_reaxc.cpp:413)
Per MPI rank memory allocation (min/avg/max) = 22.39 | 23.31 | 24.23 Mbytes
Step Temp E_pair E_mol TotEng Press 
     712            0   -29199.729            0   -29199.729    1176.9477 
     763            0   -29217.365            0   -29217.365    31120.515 
Loop time of 2.94897 on 8 procs for 51 steps with 161 atoms

99.2% CPU use with 8 MPI tasks x no OpenMP threads

Minimization stats:
  Stopping criterion = energy tolerance
  Energy initial, next-to-last, final = 
        -29199.7290446     -29217.3648327     -29217.3648467
  Force two-norm initial, final = 331.265 79.7814
  Force max component initial, final = 41.0426 15.4517
  Final line search alpha, max atom move = 2.96805e-05 0.000458615
  Iterations, force evaluations = 51 356

MPI task timing breakdown:
Section |  min time  |  avg time  |  max time  |%varavg| %total
---------------------------------------------------------------
Pair    | 2.1986     | 2.3251     | 2.4395     |   6.0 | 78.84
Neigh   | 0          | 0          | 0          |   0.0 |  0.00
Comm    | 0.020648   | 0.13491    | 0.26111    |  25.0 |  4.57
Output  | 0.00022235 | 0.00027112 | 0.00047119 |   0.0 |  0.01
Modify  | 0.48445    | 0.48465    | 0.48481    |   0.0 | 16.43
Other   |            | 0.004045   |            |       |  0.14

Nlocal:    20.125 ave 33 max 4 min
Histogram: 2 0 1 1 0 0 0 0 2 2
Nghost:    858.25 ave 912 max 802 min
Histogram: 1 2 1 0 0 0 0 0 2 2
Neighs:    2730.38 ave 4395 max 578 min
Histogram: 2 0 0 2 0 0 0 0 1 3

Total # of neighbors = 21843
Ave neighs/atom = 135.671
Neighbor list builds = 0
Dangerous builds = 0

undump 1
#############
#----------- Thermo ------------
reset_timestep 0
thermo  200

thermo_style    custom step temp etotal ke pe press
velocity all create 300 12345 mom yes rot yes
fix 1 all npt temp 300 300 25.0 iso 0.0 0.0 250.0

variable vpe equal pe
variable vtemp equal temp
variable vstep equal step

fix output all print 2500 "${vstep} ${vtemp} ${vpe}" file temp-tpdh-Pt.dat screen no

dump 1 all custom 2500 thermo-tpdh-Pt.lammpstrj id type x y z

run 1000000
WARNING: Total cutoff < 2*bond cutoff. May need to use an increased neighbor list skin. (../pair_reaxc.cpp:413)
Per MPI rank memory allocation (min/avg/max) = 21.28 | 22.2 | 23.12 Mbytes
Step Temp TotEng KinEng PotEng Press 
       0          300   -29074.286    143.07888   -29217.365    32971.201 
     200    300.28899   -29111.717    143.21671   -29254.934    361.67141 
     400    382.63475   -29121.299    182.48984   -29303.788   -16228.345 
     600    280.37347     -29159.3    133.71841   -29293.018   -7764.9012 
     800     313.1974   -29153.595    149.37311   -29302.968    8266.6024 
    1000    292.86978   -29122.839    139.67827   -29262.518    6039.6362 
    1200    295.69845   -29133.065    141.02735   -29274.092    24440.701 
    1400    311.26002   -29120.035    148.44912   -29268.484    -16165.05 
    1600    293.47906   -29111.189    139.96885   -29251.158    -12281.61 
    1800    274.97893   -29112.826    131.14559   -29243.972    7297.5108 
    2000    326.36746   -29087.926     155.6543    -29243.58    7563.6097 
    2200    265.36006   -29111.946    126.55807   -29238.504   -8736.1919 
    2400    302.88457   -29094.278    144.45462   -29238.733    -11300.83 
    2600    305.53864   -29066.051    145.72042   -29211.771   -5557.7796 
    2800    285.15121   -29089.722    135.99705   -29225.719    41138.862 
    3000    267.73248   -29100.817    127.68955   -29228.506   -27017.696 
    3200    313.61128   -29063.224    149.57051   -29212.795     26671.17 
    3400    298.71206   -29063.509    142.46462   -29205.973   -7295.2619 
    3600    298.49377   -29088.653    142.36052   -29231.014     32022.96 
    3800    264.91425   -29089.365    126.34545    -29215.71   -16075.342 
    4000    330.35118   -29064.679    157.55426   -29222.234    -16690.73 
    4200    296.50113   -29079.346    141.41017   -29220.756    3864.8196 
    4400    271.29812   -29111.342    129.39011   -29240.732    28205.534 
    4600    265.36147   -29096.846    126.55874   -29223.404    -7437.397 
    4800    307.05446    -29092.63    146.44336   -29239.073   -19860.477 
    5000    350.16572    -29070.05     167.0044   -29237.055    29993.539 
    5200    304.19644   -29108.366    145.08029   -29253.446    16186.062 
    5400    299.74903   -29115.536    142.95919   -29258.495    132.93212 
    5600    308.46291   -29090.504    147.11509   -29237.619    5476.6282 
    5800    294.80683   -29128.451    140.60211   -29269.053   -2132.7929 
    6000    301.21355    -29127.05    143.65766   -29270.708    51100.843 
    6200    310.45138   -29138.507    148.06345    -29286.57   -27226.743 
    6400    291.22941   -29143.351    138.89593   -29282.247    23855.865 
    6600    324.35077   -29123.553    154.69248   -29278.246    6633.7911 
    6800    263.22334   -29137.705    125.53901   -29263.244    31141.381 
    7000    283.43795   -29114.599    135.17995   -29249.779   -16981.366 
    7200    319.95345   -29101.806    152.59527   -29254.401   -15328.563 
    7400    285.70521   -29129.165    136.26127   -29265.426   -95.759334 
    7600    297.11284    -29117.79    141.70191   -29259.492   -29518.828 
    7800    279.03006   -29153.459     133.0777   -29286.537   -15576.864 
    8000    316.79593   -29124.193    151.08936   -29275.282    19067.734 
    8200    326.61817   -29115.244    155.77387   -29271.018   -1516.8343 
    8400    278.86987   -29145.826     133.0013   -29278.828    -21711.36 
    8600    321.40157   -29120.866    153.28592   -29274.152    25060.799 
    8800    290.56549    -29116.31    138.57928   -29254.889   -10639.925 
    9000    313.05111   -29087.191    149.30335   -29236.495   -7759.0514 
    9200    289.44679   -29110.348    138.04574   -29248.394    3253.1894 
    9400    279.42006   -29139.098     133.2637   -29272.362     6765.667 
    9600    311.79621    -29125.88    148.70485   -29274.585    33189.194 
    9800    291.60181   -29113.853    139.07354   -29252.927   -28960.011 
   10000    308.16604   -29135.825    146.97351   -29282.799   -35141.202 
   10200    263.53224   -29132.948    125.68633   -29258.634   -29452.391 
   10400    308.73247   -29125.747    147.24365   -29272.991    5940.5237 
   10600    281.34912   -29148.894    134.18373   -29283.078    4825.4862 
   10800    319.83553   -29118.282    152.53903   -29270.821    22738.101 
   11000    281.21194    -29113.81     134.1183   -29247.928   -14870.856 
   11200    277.32358    -29115.09    132.26383   -29247.354   -9516.5158 
   11400    329.09305   -29115.966    156.95422   -29272.921    683.56511 
   11600    292.40814   -29140.394     139.4581   -29279.852    343.54626 
   11800    323.45352   -29114.208    154.26456   -29268.473    2300.3316 
   12000    325.43326   -29110.651    155.20875    -29265.86    4610.0525 
   12200    293.57784   -29140.204    140.01596    -29280.22    21164.277 
   12400    297.85631   -29138.816    142.05649   -29280.873    15883.293 
   12600     304.9324   -29117.489    145.43129   -29262.921   -16689.658 
   12800    300.25907   -29134.715    143.20244   -29277.917    12944.941 
   13000    342.21047    -29110.46     163.2103    -29273.67    18280.362 
   13200    300.46796    -29123.49    143.30207   -29266.792    22393.809 
   13400    298.98463   -29134.863    142.59462   -29277.457   -934.28008 
   13600    306.58708   -29136.292    146.22046   -29282.512   -26257.935 
   13800    321.66926   -29108.843     153.4136   -29262.256    17445.679 
   14000    302.71405   -29126.478    144.37329   -29270.851    16395.033 
   14200    303.70006   -29136.616    144.84355   -29281.459   -2664.7045 
   14400    317.91928   -29116.786    151.62512   -29268.411   -49404.973 
   14600    283.46069   -29144.322     135.1908   -29279.513   -13888.341 
   14800    295.26941   -29133.405    140.82272   -29274.227   -5129.7443 
   15000    324.92915   -29118.967    154.96833   -29273.935   -14836.821 
   15200    282.65706   -29150.252    134.80752    -29285.06   -22985.774 
   15400     295.5334   -29143.963    140.94863   -29284.912    4171.1503 
   15600    287.59016   -29130.228    137.16026   -29267.388   -23154.957 
   15800    324.63087   -29122.459    154.82608   -29277.285    23853.617 
   16000    324.54197   -29101.438    154.78367   -29256.222   -3959.9495 
   16200    294.05805   -29124.969    140.24499   -29265.214   -22921.686 
   16400    299.25634   -29133.802    142.72421   -29276.526   -47356.135 
   16600    339.01224   -29099.329    161.68498   -29261.014   -40962.466 
   16800    304.34408   -29108.447     145.1507   -29253.597   -20406.333 
   17000    323.97605   -29078.738    154.51377   -29233.252    17060.709 
   17200    312.74805   -29095.155     149.1588   -29244.314    4174.2082 
   17400    283.75905   -29116.782    135.33309   -29252.115   -49231.258 
   17600    270.01631   -29131.577    128.77877   -29260.356   -33104.717 
   17800    270.67241   -29135.598    129.09169    -29264.69   -29967.418 
   18000    330.31404   -29107.639    157.53654   -29265.176     30921.74 
   18200    284.92472   -29129.194    135.88903   -29265.083    9169.4296 
   18400    282.95095   -29132.829    134.94768   -29267.777   -18840.066 
   18600    313.22167   -29110.287    149.38469   -29259.672   -35516.683 
   18800    293.42708   -29117.715    139.94406   -29257.659    5121.8331 
   19000    298.63054    -29131.37    142.42574   -29273.795    40186.599 
   19200    297.66064   -29104.389    141.96317   -29246.352    17057.336 
   19400    314.90012   -29113.684    150.18519   -29263.869   -9926.0776 
   19600    262.97258   -29123.707    125.41941   -29249.126    5294.8684 
   19800    304.98119   -29104.364    145.45456   -29249.818   -17628.842 
   20000    326.04246   -29084.858     155.4993   -29240.358    14766.364 
   20200    311.23148   -29110.711    148.43551   -29259.146   -37602.023 
   20400    302.34262    -29120.31    144.19615   -29264.506    22531.669 
   20600    315.87474   -29089.543    150.65002   -29240.193    28880.871 
   20800    307.35585   -29105.437     146.5871   -29252.024    10316.797 
   21000    287.66903   -29114.887    137.19788   -29252.085   -773.89712 
   21200    303.61443   -29088.416    144.80271   -29233.219     8783.171 
   21400    293.40595   -29111.596    139.93398    -29251.53   -10436.784 
   21600     314.7152    -29116.08      150.097   -29266.177   -10387.923 
   21800    330.92297   -29087.804    157.82696   -29245.631    42130.631 
   22000    325.88592   -29098.756    155.42464    -29254.18    36605.708 
   22200    284.27926   -29126.074     135.5812   -29261.655    29023.043 
   22400    295.31744   -29135.124    140.84563   -29275.969    4135.0548 
   22600    321.07528   -29104.236    153.13031   -29257.367   -15092.194 
   22800     269.3514   -29124.053    128.46166   -29252.515    13363.258 
   23000    293.29539    -29133.17    139.88125   -29273.051   -43182.614 
   23200    308.35959   -29099.075    147.06582   -29246.141    6818.6701 
   23400    289.05476   -29131.501    137.85877    -29269.36    37510.326 
   23600    304.60987   -29113.972    145.27746   -29259.249   -10569.335 
   23800     307.8415   -29100.593    146.81872   -29247.412    74290.971 
   24000    308.20277   -29108.371    146.99103   -29255.362   -2367.1208 
   24200    308.75461   -29101.518    147.25421   -29248.773   -12710.135 
   24400    358.05385   -29070.479    170.76648   -29241.246   -4230.7939 
   24600    301.14802   -29102.902    143.62641   -29246.529   -30563.753 
   24800    290.73181   -29117.433    138.65861   -29256.091   -40806.864 
   25000    280.55859   -29132.445     133.8067   -29266.252   -23153.032 
   25200    325.76877   -29113.243    155.36877   -29268.611   -33392.194 
   25400    310.82918   -29111.176    148.24364    -29259.42     2843.344 
   25600    296.78102   -29134.929    141.54365   -29276.473   -12371.049 
   25800    322.25763   -29114.112    153.69421   -29267.807    -13946.11 
   26000    336.80447   -29094.769    160.63202   -29255.401     21219.41 
   26200    310.66168   -29112.326    148.16375    -29260.49    132.72869 
   26400    273.20824   -29132.515     130.3011   -29262.816    45826.996 
   26600    321.83218   -29101.468    153.49129   -29254.959   -22380.707 
   26800    312.52893   -29107.447     149.0543   -29256.502   -22742.004 
   27000    295.25589   -29120.892    140.81628   -29261.709   -10416.227 
   27200    309.18668   -29117.557    147.46028   -29265.018    31086.517 
   27400    344.05695   -29093.577    164.09095   -29257.667    17434.046 
   27600    270.35944   -29113.853    128.94242   -29242.795    10770.408 
   27800    300.82759     -29120.4    143.47359   -29263.873   -3009.1002 
   28000    348.81594   -29083.858    166.36065   -29250.219     13902.28 
   28200     308.1111   -29105.363     146.9473    -29252.31    10399.594 
   28400    298.02407   -29121.794     142.1365    -29263.93   -17501.481 
   28600    292.58084   -29126.661    139.54047   -29266.202     25066.88 
   28800    322.92898   -29102.142    154.01439   -29256.157   -32114.281 
   29000    290.35591     -29123.4    138.47933    -29261.88   -10042.616 
   29200    285.49338   -29127.644    136.16025   -29263.805    24848.471 
   29400    325.77298   -29115.519    155.37078   -29270.889    3037.9747 
   29600    283.25092   -29124.613    135.09075   -29259.704   -17729.971 
   29800    308.29874   -29121.172     147.0368   -29268.209   -6201.6405 
   30000    305.08023   -29113.849    145.50179    -29259.35   -2708.9008 
   30200    284.63183   -29142.462    135.74935   -29278.212   -6051.3632 
   30400    303.09562   -29118.344    144.55527     -29262.9   -14370.646 
   30600    330.94181   -29119.706    157.83595   -29277.542   -2060.3643 
   30800    275.28882   -29137.317    131.29339   -29268.611    10363.923 
   31000    316.71204   -29114.626    151.04935   -29265.676    33757.885 
   31200    298.74355   -29122.565    142.47965   -29265.045    48015.589 
   31400     248.9487   -29136.749    118.73101    -29255.48   -23791.689 
   31600    323.01553     -29118.9    154.05567   -29272.956    -395.2184 
   31800    296.42683    -29125.81    141.37473   -29267.185    11127.301 
   32000    290.02606   -29134.884    138.32201   -29273.206   -3194.8341 
   32200    327.64878   -29115.804    156.26541    -29272.07   -31724.288 
   32400    305.44611   -29124.647    145.67629   -29270.323   -11907.363 
   32600    292.62964    -29137.81    139.56374   -29277.374   -21208.844 
   32800    319.29878   -29115.008    152.28304   -29267.291   -29524.415 
   33000    333.37949   -29083.244    158.99855   -29242.242    10136.328 
   33200    287.00093   -29122.864    136.87924   -29259.744   -15818.277 
   33400    321.71309    -29131.03     153.4345   -29284.465    23429.669 
   33600    339.20103    -29103.54    161.77502   -29265.315   -17458.898 
   33800    288.65118   -29114.664    137.66629    -29252.33    20808.248 
   34000    277.96246   -29130.568    132.56853   -29263.136    -4474.947 
   34200    304.05562   -29111.515    145.01313   -29256.528   -12826.411 
   34400      312.303   -29103.462    148.94655   -29252.409    23577.642 
   34600    263.62582   -29132.959    125.73096    -29258.69    6760.5067 
   34800    309.15083   -29109.213    147.44318   -29256.656   -40005.999 
   35000    300.77662   -29106.142    143.44928   -29249.591    22158.722 
   35200    303.23736   -29127.637    144.62288    -29272.26   -544.61505 
   35400    294.82177   -29119.021    140.60923   -29259.631   -28435.109 
   35600    303.47169   -29104.746    144.73463   -29249.481    24317.146 
   35800    288.51008   -29133.143      137.599   -29270.742    22491.729 
   36000    311.31597   -29113.846     148.4758   -29262.322    9766.5025 
   36200    293.17605    -29109.27    139.82434   -29249.094    1203.4748 
   36400    284.51628   -29129.703    135.69424   -29265.397   -16880.629 
   36600    270.93803   -29147.271    129.21837   -29276.489    25831.642 
   36800    292.90958   -29113.091    139.69725   -29252.788    21832.762 
   37000     314.3941   -29121.562    149.94386   -29271.505    6581.6575 
   37200    276.20972   -29135.102    131.73259   -29266.835    27855.371 
   37400     311.0095   -29102.215    148.32964   -29250.544   -5087.4092 
   37600    311.29467   -29115.097    148.46564   -29263.562   -47128.083 
   37800    281.33275   -29121.412    134.17592   -29255.588   -60003.088 
   38000    312.05688   -29092.447    148.82917   -29241.276   -1395.5401 
   38200      288.379    -29119.57    137.53648   -29257.106   -23622.959 
   38400    300.52477   -29118.841    143.32916    -29262.17     34588.92 
   38600    293.91739   -29096.821    140.17791   -29236.999   -15817.881 
   38800     293.1319   -29101.978    139.80328   -29241.781    17402.518 
   39000    303.82065   -29123.137    144.90106   -29268.038   -94.473511 
   39200    298.98344   -29102.897    142.59405   -29245.491    12798.632 
   39400    297.47764   -29139.131    141.87589   -29281.007   -7991.8304 
   39600    292.16164   -29117.619    139.34053   -29256.959   -5244.4496 
   39800    333.58696   -29115.883     159.0975    -29274.98    29777.551 
   40000    265.65847     -29147.2    126.70039     -29273.9    11109.802 
   40200    313.22069   -29130.979    149.38422   -29280.363    22260.265 
   40400    299.84884   -29157.233    143.00679   -29300.239    5673.3898 
   40600      289.668   -29158.216    138.15124   -29296.367   -6544.1318 
   40800    325.42885   -29128.902    155.20665   -29284.108    13167.024 
   41000    320.91739   -29141.136      153.055   -29294.191    29239.518 
   41200    285.38811   -29154.811    136.11004   -29290.921    25908.113 
   41400    300.50325   -29131.393     143.3189   -29274.712    25941.636 
   41600    302.44668   -29133.329    144.24578   -29277.575   -10174.808 
   41800    294.78819   -29155.629    140.59322   -29296.222    12899.021 
   42000    302.68895   -29137.985    144.36132   -29282.346    3340.5098 
   42200    287.83375   -29123.599    137.27644   -29260.875    3613.3653 
   42400    303.04328   -29148.078    144.53031   -29292.608    11349.555 
   42600    268.99282   -29152.649    128.29064    -29280.94    11008.548 
   42800    330.51128    -29126.72    157.63062    -29284.35    30772.845 
   43000    306.90338   -29159.818    146.37131   -29306.189    21690.519 
   43200    317.54394   -29146.323    151.44611   -29297.769   -294.79442 
   43400    302.52416   -29137.338    144.28273   -29281.621    6159.7469 
   43600    297.75182   -29158.303    142.00666   -29300.309   -1443.3397 
   43800    312.28978   -29147.073    148.94024   -29296.013   -21343.863 
   44000     316.4928   -29132.331    150.94479   -29283.275    7785.9261 
   44200    301.07972    -29153.34    143.59383   -29296.934    6083.4858 
   44400    289.15333   -29142.634    137.90579    -29280.54    21889.962 
   44600    337.57314   -29138.425    160.99863   -29299.423    25169.013 
   44800    286.66284   -29162.243      136.718   -29298.961   -16612.894 
   45000     324.2563    -29148.37    154.64743   -29303.017    14240.697 
   45200    318.09007   -29133.884    151.70657   -29285.591    50922.062 
   45400    286.56364   -29167.608    136.67068   -29304.279   -2000.5584 
   45600    328.83724   -29143.909    156.83222   -29300.741   -7116.8488 
   45800    281.78218   -29141.703    134.39026   -29276.093    -19732.77 
   46000    289.36381   -29168.997    138.00617   -29307.003    12913.124 
   46200    321.45616   -29139.778    153.31196    -29293.09   -23370.902 
   46400     293.3079   -29150.788    139.88722   -29290.675    22571.755 
   46600    300.81935   -29117.232    143.46965   -29260.701   -48643.711 
   46800    292.82582   -29146.195     139.6573   -29285.852    1789.9243 
   47000    284.57408   -29145.904     135.7218   -29281.626    18147.524 
   47200    319.26431   -29117.997     152.2666   -29270.263   -5633.4387 
   47400    285.93097   -29155.018    136.36894   -29291.387    24293.553 
   47600    322.00813   -29144.372    153.57521   -29297.948   -38694.401 
   47800    314.84719   -29132.386    150.15995   -29282.546   -17703.406 
   48000    293.99048   -29165.432    140.21276   -29305.645    5399.7968 
   48200    304.17619   -29151.486    145.07063   -29296.557   -7182.2125 
   48400    283.74225   -29141.641    135.32508   -29276.966    11942.645 
   48600    290.10733   -29156.369    138.36077   -29294.729   -29518.561 
   48800    323.25945   -29122.423      154.172   -29276.595   -5075.2865 
   49000    277.91829   -29147.631    132.54746   -29280.179    3705.0978 
   49200    308.83119   -29143.451    147.29074   -29290.742    48815.071 
   49400    319.10454   -29130.691     152.1904   -29282.881    8017.8968 
   49600    261.46913   -29149.592    124.70237   -29274.294    30350.406 
   49800    307.50795   -29148.555    146.65965   -29295.214   -53969.866 
   50000    325.28067    -29128.94    155.13598   -29284.076    22335.573 
   50200    299.51474   -29143.921    142.84745   -29286.768    13179.401 
   50400    317.27322   -29141.036    151.31699   -29292.353     37982.28 
   50600    308.77939   -29122.979    147.26603   -29270.245   -4208.1151 
   50800     290.6295   -29144.268    138.60981   -29282.878    23636.335 
   51000    300.23173   -29147.967     143.1894   -29291.156   -15233.724 
   51200     320.1062   -29112.078    152.66812   -29264.746   -26413.129 
   51400    301.58883   -29135.774    143.83664   -29279.611    5971.9112 
   51600    294.23484   -29146.902    140.32931   -29287.232   -33787.135 
   51800     260.6812   -29172.529    124.32658   -29296.855   -8807.5136 
   52000    302.51193   -29140.393     144.2769    -29284.67    50712.348 
   52200    275.84044   -29133.828    131.55647   -29265.385   -34548.162 
   52400    287.19737    -29161.83    136.97293   -29298.803     12675.31 
   52600    306.05597   -29134.578    145.96715   -29280.545    15347.982 
   52800    287.77036   -29134.915    137.24621   -29272.161    31783.664 
   53000    277.68335   -29145.172    132.43541   -29277.608   -21110.803 
   53200    294.00747   -29145.504    140.22087   -29285.725   -1688.1763 
   53400    310.51945    -29122.77    148.09592   -29270.866   -46785.106 
   53600    303.76151    -29145.53    144.87286   -29290.403    352.82333 
   53800    315.15292   -29139.817    150.30576   -29290.123    2707.4565 
   54000    312.24418   -29142.458     148.9185   -29291.376    20704.299 
   54200    275.98523    -29165.68    131.62553   -29297.306    17899.178 
   54400    325.01827   -29147.321    155.01084   -29302.332   -3460.5002 
   54600    323.43974    -29134.18    154.25799   -29288.438    -8941.355 
   54800    290.77039    -29168.55    138.67701   -29307.227     18179.12 
   55000    274.26523   -29156.605    130.80521    -29287.41   -40005.683 
   55200    315.85906   -29140.179    150.64254   -29290.822   -18590.073 
   55400    282.44464   -29162.215    134.70621   -29296.921    -16474.33 
   55600    290.72081   -29163.085    138.65336   -29301.739   -8117.0543 
   55800    270.83704   -29137.869     129.1702   -29267.039     19329.64 
   56000    313.72678   -29122.657    149.62559   -29272.283    4976.3199 
   56200    285.95182   -29156.008    136.37889   -29292.387    16307.989 
   56400    310.05076   -29130.523    147.87239   -29278.396   -25464.971 
   56600    293.57325   -29129.166    140.01377   -29269.179    287.44759 
   56800    280.58161   -29159.542    133.81768   -29293.359    50641.472 
   57000    298.70324   -29146.385    142.46042   -29288.845    22137.016 
   57200    280.48873   -29131.078    133.77338   -29264.851    10767.859 
   57400    301.74709   -29144.513    143.91212   -29288.425    2121.9874 
   57600    283.49955   -29148.586    135.20933   -29283.796    168.97756 
   57800    321.87884   -29127.484    153.51355   -29280.997   -15562.223 
   58000    295.73451    -29137.81    141.04454   -29278.854    30184.658 
   58200    254.26923   -29160.765    121.26853   -29282.033    1090.7913 
   58400    314.02607   -29124.183    149.76833   -29273.951    -21179.68 
   58600    293.03025   -29133.375     139.7548    -29273.13    6616.5251 
   58800    286.69275   -29145.171    136.73226   -29281.903   -37389.961 
   59000     338.6031   -29123.027    161.48984   -29284.516   -13434.006 
   59200    305.18864   -29151.014     145.5535   -29296.568    21449.822 
   59400    279.58133   -29147.418    133.34061   -29280.758   -997.58189 
   59600    316.52614   -29138.825    150.96069   -29289.785    26961.342 
   59800    299.15477   -29136.617    142.67576   -29279.292    34482.288 
   60000    347.11902   -29112.822    165.55134   -29278.374    5117.8443 
   60200     302.3861    -29149.24    144.21688   -29293.457   -12476.264 
   60400    282.26392   -29139.115    134.62002   -29273.735   -24831.555 
   60600    329.88771   -29121.321    157.33322   -29278.655     20524.56 
   60800    290.79303   -29147.973    138.68781   -29286.661    -16543.74 
   61000    340.78769   -29109.448    162.53174    -29271.98    6663.0207 
   61200    300.13696   -29136.016     143.1442    -29279.16    7386.3674 
   61400    283.66638   -29152.835    135.28889   -29288.124    13056.676 
   61600    327.54999   -29123.853    156.21829   -29280.071    466.13339 
   61800    336.90486   -29129.012     160.6799   -29289.692   -29184.554 
   62000     299.9188    -29143.53    143.04015   -29286.571   -9290.3303 
   62200    313.64043   -29142.787    149.58441   -29292.371   -9121.0044 
   62400    314.57906    -29148.46    150.03207   -29298.492    -14574.21 
   62600    275.85196   -29156.857    131.56196   -29288.419   -28776.972 
   62800    329.09706   -29129.895    156.95613   -29286.851    -4525.033 
   63000    260.84604   -29164.454     124.4052   -29288.859    20793.546 
   63200    289.72166   -29155.898    138.17684   -29294.075   -15437.328 
   63400    309.98635   -29135.209    147.84167   -29283.051    15950.329 
   63600    299.54974   -29099.002    142.86414   -29241.866    25438.106 
   63800    330.26763   -29118.529    157.51441   -29276.043   -18522.624 
   64000    299.50924   -29142.444    142.84483   -29285.289    24902.646 
   64200    284.00266   -29153.969    135.44928   -29289.418   -13672.962 
   64400      303.728   -29123.332    144.85688   -29268.189   -11533.862 
   64600    299.01288   -29147.241     142.6081   -29289.849    -18294.63 
   64800    301.49496   -29146.642    143.79187   -29290.434   -1174.1682 
   65000    360.67524   -29117.929     172.0167   -29289.946    12403.181 
   65200    282.51003   -29151.541     134.7374   -29286.279     9135.579 
   65400    312.37734   -29137.281      148.982   -29286.263   -1612.0604 
   65600    282.19279   -29121.095     134.5861   -29255.681    28646.325 
   65800    281.42733   -29155.433    134.22103   -29289.654   -20764.576 
   66000      308.211    -29129.65    146.99495   -29276.645    2664.4592 
   66200    307.08996    -29137.57     146.4603    -29284.03    24628.622 
   66400    240.99689   -29175.375    114.93855   -29290.314   -6527.0326 
   66600    271.81749   -29153.712    129.63781   -29283.349   -19083.608 
   66800    305.83866   -29124.538    145.86351   -29270.401    26445.128 
   67000    282.30263   -29141.719    134.63848   -29276.357   -5551.3642 
   67200    296.73366   -29148.816    141.52107   -29290.337   -25748.869 
   67400    318.67482   -29135.983    151.98546   -29287.968    44094.688 
   67600    325.19327   -29100.717     155.0943   -29255.811    1512.8116 
   67800    306.69511   -29130.658    146.27198    -29276.93    25377.266 
   68000    282.54823   -29140.356    134.75561   -29275.112   -16350.993 
   68200    312.42654   -29130.077    149.00547   -29279.082   -6106.5982 
   68400    313.93594   -29128.012    149.72535   -29277.737    24492.506 
   68600    276.86222   -29155.283    132.04379   -29287.327   -37270.072 
   68800    319.64334   -29126.164    152.44737   -29278.612   -5312.0913 
   69000    300.96755   -29126.711    143.54034   -29270.251    415.12009 
   69200    285.25529   -29152.181    136.04669   -29288.228   -902.67427 
   69400    294.63705   -29138.865    140.52113   -29279.386    10577.431 
   69600    301.95084   -29131.261     144.0093   -29275.271    34808.422 
   69800    311.58788   -29102.758    148.60548   -29251.364    31178.042 
   70000    330.11645   -29130.435    157.44231   -29287.877     -26493.9 
   70200    293.31079   -29131.882     139.8886    -29271.77    5668.4533 
   70400    309.40908   -29108.038    147.56635   -29255.604    23435.457 
   70600    295.19077   -29142.244    140.78522    -29283.03    42553.379 
   70800    295.03275    -29125.13    140.70985    -29265.84    4838.2533 
   71000    310.17765   -29125.882    147.93291   -29273.815    23290.273 
   71200     309.5279   -29134.523    147.62302   -29282.146   -14284.703 
   71400    292.96708    -29145.29    139.72467   -29285.015   -30467.041 
   71600    304.38543   -29143.038    145.17042   -29288.208    41753.015 
   71800    330.78314   -29121.518    157.76027   -29279.279    5718.3057 
   72000    274.06938   -29152.899     130.7118   -29283.611    35275.121 
   72200    293.81219   -29138.451    140.12773   -29278.579    24946.865 
   72400    329.56511   -29112.007    157.17936   -29269.186    786.04748 
   72600    333.78788   -29115.042    159.19332   -29274.235    19380.439 
   72800    294.10687   -29135.405    140.26827   -29275.674    16914.044 
   73000    306.32646    -29111.61    146.09616   -29257.706   -7103.6609 
   73200    305.94633   -29136.999    145.91486   -29282.913    11853.624 
   73400    264.05627   -29132.857    125.93625   -29258.793   -17827.537 
   73600    324.18304   -29115.894    154.61249   -29270.506   -5188.2822 
   73800    260.10931   -29152.425    124.05383   -29276.479    3499.9946 
   74000    322.18093   -29138.193    153.65763   -29291.851    -15623.45 
   74200    323.52487   -29130.447    154.29859   -29284.745    8533.8964 
   74400     273.1502   -29162.975    130.27342   -29293.248   -35337.776 
   74600    305.49927   -29134.561    145.70165   -29280.263    8671.5801 
   74800    307.05317   -29127.496    146.44275   -29273.939   -42978.681 
   75000    276.87978   -29156.756    132.05217   -29288.808   -25929.077 
   75200    285.25828   -29133.097    136.04812   -29269.145    4744.7743 
   75400    286.91663   -29134.175    136.83904   -29271.014   -31110.176 
   75600    267.96553   -29151.839    127.80069    -29279.64   -3874.0426 
   75800    306.17796   -29131.171    146.02534   -29277.197   -7728.0078 
   76000    293.46959   -29137.229    139.96433   -29277.193    13012.125 
   76200    289.11134   -29151.158    137.88576   -29289.044    -3957.777 
   76400    293.69475    -29141.81    140.07172   -29281.882   -26501.963 
   76600     279.4256   -29137.554    133.26634   -29270.821   -8893.3114 
   76800    316.06423    -29114.93    150.74039    -29265.67    5513.3866 
   77000    288.08458   -29140.463    137.39607   -29277.859    11627.612 
   77200    314.55316   -29150.155    150.01972   -29300.175   -3927.4707 
   77400    338.11428   -29118.894    161.25671   -29280.151    5858.0737 
   77600      321.673   -29131.454    153.41538   -29284.869   -32508.902 
   77800    321.70782   -29141.021    153.43198   -29294.453   -5609.0982 
   78000    292.75877   -29148.217    139.62533   -29287.842     13667.21 
   78200    287.20717   -29156.271     136.9776   -29293.248    -16787.32 
   78400     313.5583   -29127.749    149.54524   -29277.295   -16886.117 
   78600    308.15892   -29146.242    146.97011   -29293.212    3693.4921 
   78800    311.15143   -29147.157    148.39733   -29295.554    44495.838 
   79000    295.10017   -29152.853    140.74201   -29293.595    10735.633 
   79200    295.08603   -29149.632    140.73527   -29290.368   -3479.1092 
   79400    312.93645   -29137.111    149.24866    -29286.36    9712.2019 
   79600    278.02406   -29167.548    132.59791   -29300.146    17691.888 
   79800     290.2109   -29147.688    138.41017   -29286.098   -11562.098 
   80000    294.88379   -29145.309    140.63881   -29285.948   -902.27045 
   80200    265.06558   -29151.611    126.41762   -29278.028    -8304.178 
   80400    306.08042   -29151.116    145.97881   -29297.095   -11275.225 
   80600    299.95985   -29141.003    143.05973   -29284.063    25872.952 
   80800    345.98115   -29106.949    165.00865   -29271.958    4680.7767 
   81000     293.6069   -29141.165    140.02982   -29281.195   -4527.3985 
   81200    283.78605   -29157.261    135.34597   -29292.607     20640.28 
   81400    311.75544   -29130.884     148.6854    -29279.57    17068.392 
   81600     312.0476   -29131.112    148.82474   -29279.937   -14458.889 
   81800    281.73772   -29156.966    134.36906   -29291.335    29508.982 
   82000    289.31414   -29143.341    137.98248   -29281.323     13876.57 
   82200    308.11322   -29133.088    146.94832   -29280.036    38954.099 
   82400    278.53193   -29163.089    132.84012   -29295.929    5541.2811 
   82600    291.36298   -29136.983    138.95963   -29275.943   -40262.978 
   82800    306.43643   -29136.718    146.14861   -29282.867         7133 
   83000    278.51817   -29149.837    132.83356    -29282.67    8947.5724 
   83200    281.50859   -29144.806    134.25978   -29279.065   -635.69209 
   83400    299.86671    -29133.48    143.01531   -29276.495    14764.997 
   83600     267.5921   -29160.244    127.62259   -29287.866    6924.2713 
   83800    302.99664   -29125.627    144.50807   -29270.135    21332.031 
   84000    300.15644   -29139.715     143.1535   -29282.868    46377.829 
   84200    271.20801   -29159.226    129.34713   -29288.573   -11163.186 
   84400    308.44698   -29139.559     147.1075   -29286.667   -11887.465 
   84600    318.55347   -29134.117    151.92758   -29286.044   -16607.522 
   84800    273.23834   -29157.296    130.31545   -29287.611    20174.961 
   85000    270.10095   -29141.001    128.81914    -29269.82    9838.9527 
   85200    317.50279   -29119.502    151.42648   -29270.928   -30216.876 
   85400    285.21991   -29120.022    136.02982   -29256.051   -2256.6033 
   85600    282.64713   -29152.637    134.80279    -29287.44    4452.6941 
   85800    311.44337     -29130.8    148.53656   -29279.337   -23358.269 
   86000    325.53317   -29133.821    155.25641   -29289.077    255.48829 
   86200    287.68443   -29158.059    137.20522   -29295.265   -6971.3325 
   86400    299.76639   -29140.054    142.96747   -29283.021   -40033.274 
   86600    295.89819    -29145.02    141.12261   -29286.142     32933.06 
   86800    287.31754    -29161.75    137.03024    -29298.78    16921.452 
   87000    332.51625   -29128.482    158.58685   -29287.069   -30422.885 
   87200    291.76161   -29147.628    139.14975   -29286.778   -45808.937 
   87400    303.90118   -29149.262    144.93947   -29294.202    10954.892 
   87600     330.2939   -29140.212    157.52694   -29297.739   -12701.393 
   87800    334.95051   -29114.775    159.74782   -29274.523    -30594.84 
   88000    288.91317   -29136.472    137.79124   -29274.263   -4884.1339 
   88200     293.3054   -29141.691    139.88603   -29281.577   -41588.214 
   88400    315.66948   -29121.807    150.55212   -29272.359   -22751.315 
   88600    283.67038    -29149.08     135.2908   -29284.371     22477.54 
   88800    322.77563   -29142.437    153.94125   -29296.379    26069.778 
   89000    311.51614   -29129.333    148.57127   -29277.904    20836.272 
   89200    310.47825   -29161.857    148.07627   -29309.934   -2857.6009 
   89400    305.10898   -29145.356    145.51551   -29290.872    15175.679 
   89600     297.4459   -29143.941    141.86076   -29285.802   -19353.997 
   89800    261.90513   -29176.704    124.91031   -29301.614   -7946.2988 
   90000    319.06939   -29147.176    152.17364   -29299.349    24143.533 
   90200     318.7043   -29141.583    151.99952   -29293.582   -26893.154 
   90400    330.47985   -29124.955    157.61563    -29282.57   -7693.6002 
   90600    289.78084   -29141.038    138.20506   -29279.243   -8352.8072 
   90800    283.27027   -29149.094    135.09998   -29284.194   -15647.613 
   91000    300.14437   -29125.879    143.14774   -29269.027    38228.016 
   91200    315.29704   -29131.438    150.37449   -29281.812   -23132.004 
   91400      280.524   -29154.103     133.7902   -29287.894    6555.7104 
   91600    324.31651   -29125.332    154.67615   -29280.009      33895.3 
   91800    310.39908   -29136.008    148.03851   -29284.046    13547.563 
   92000    277.54519   -29142.593    132.36952   -29274.962   -28872.506 
   92200    361.63514   -29106.771     172.4745   -29279.245    8027.3624 
   92400    298.67989   -29147.301    142.44928    -29289.75   -33929.934 
   92600    306.73699   -29146.206    146.29195   -29292.498   -19040.658 
   92800    332.34683   -29124.025    158.50604   -29282.531   -23100.729 
   93000    290.03624   -29159.135    138.32687   -29297.462   -10212.264 
   93200    327.25207   -29138.237     156.0762   -29294.313   -7726.6244 
   93400    271.19638   -29162.579    129.34159   -29291.921   -2542.3559 
   93600    284.44988   -29154.961    135.66257   -29290.623    2619.4844 
   93800    323.28994   -29143.231    154.18655   -29297.417   -520.06158 
   94000    283.29897   -29162.153    135.11367   -29297.266    16593.315 
   94200    274.10805    -29156.11    130.73024    -29286.84    31539.611 
   94400    301.14275   -29141.139    143.62389   -29284.763     31195.26 
   94600    330.53271     -29134.7    157.64084   -29292.341    1593.0937 
   94800    265.01534    -29157.85    126.39366   -29284.244    43868.655 
   95000    297.09438   -29137.301     141.6931   -29278.994   -26714.533 
   95200    303.80258   -29129.825    144.89245   -29274.717   -40374.158 
   95400    297.79529   -29147.367    142.02739   -29289.394    -9842.959 
   95600     261.6074   -29180.284    124.76831   -29305.052    13815.507 
   95800    301.59695   -29152.864    143.84052   -29296.704    15254.153 
   96000    330.01926   -29140.619    157.39595   -29298.015    1047.6441 
   96200    271.33577   -29170.165    129.40806   -29299.573    8765.9215 
   96400    285.21446   -29159.289    136.02722   -29295.316   -27208.273 
   96600    289.31451   -29147.626    137.98266   -29285.608    7837.2376 
   96800    288.81659   -29157.547    137.74518   -29295.292    -730.8081 
   97000    284.36955   -29172.128    135.62426   -29307.752   -11996.539 
   97200    296.09579   -29139.782    141.21685   -29280.999    34587.467 
   97400    297.79432   -29147.056    142.02693   -29289.083    20693.962 
   97600    294.37765   -29165.529    140.39742   -29305.926   -24354.861 
   97800    309.92578   -29131.586    147.81278   -29279.398    24170.964 
   98000    305.51293    -29139.89    145.70816   -29285.598    -24590.15 
   98200    285.66482   -29160.583    136.24201   -29296.825   -18833.354 
   98400     303.5912   -29124.346    144.79163   -29269.138   -9728.7952 
   98600    294.23961   -29142.487    140.33158   -29282.818    5659.6045 
   98800    304.28541   -29150.563    145.12272   -29295.685   -22623.516 
   99000    326.80181   -29122.957    155.86146   -29278.819   -4897.3612 
   99200    300.83355   -29150.621    143.47643   -29294.098   -13964.381 
   99400    320.08178   -29126.733    152.65648    -29279.39    16419.334 
   99600    298.15692   -29123.631    142.19986   -29265.831   -10063.329 
   99800      279.236    -29136.32    133.17592   -29269.496   -14461.888 
  100000    279.16292   -29133.565    133.14106   -29266.706    1904.0231 
  100200    305.81174   -29117.844    145.85068   -29263.695    14731.052 
  100400    286.49383   -29146.395    136.63739   -29283.032    5051.9741 
  100600    304.19093   -29132.058    145.07766   -29277.136    6112.7713 
  100800    324.08355    -29112.87    154.56504   -29267.435   -284.61167 
  101000    298.72903   -29138.295    142.47272   -29280.768    10167.563 
  101200    297.29668   -29154.931    141.78959    -29296.72    29734.578 
  101400    354.48041    -29124.33     169.0622   -29293.392   -46642.422 
  101600    290.02449   -29139.608    138.32126   -29277.929   -15493.939 
  101800    274.56826   -29151.214    130.94973   -29282.164   -17098.375 
  102000    276.86056   -29140.255      132.043   -29272.298   -6523.3238 
  102200    334.66801   -29106.178    159.61308   -29265.791   -18220.297 
  102400    303.09707   -29129.583    144.55597   -29274.139   -19797.705 
  102600    303.69704    -29139.33    144.84211   -29284.172    57613.215 
  102800    296.53791   -29110.545    141.42771   -29251.973   -33316.837 
  103000    321.86774   -29123.917    153.50826   -29277.425    11224.824 
  103200    272.94526   -29140.756    130.17568   -29270.931    -2131.579 
  103400    300.48227   -29141.082    143.30889   -29284.391   -23747.939 
  103600    320.10025   -29121.724    152.66529   -29274.389    33302.961 
  103800    277.18523   -29151.409    132.19784   -29283.607   -35569.283 
  104000    326.23332   -29143.513    155.59033   -29299.103   -2941.7089 
  104200    298.19195   -29129.002    142.21657   -29271.219    2356.2097 
  104400    338.68247   -29148.939     161.5277   -29310.466    -7069.976 
  104600    289.92278   -29151.918    138.27276    -29290.19   -10278.384 
  104800    320.38428    -29121.77    152.80075   -29274.571   -24270.675 
  105000    310.70295    -29146.66    148.18344   -29294.843    3221.2189 
  105200    296.95989   -29147.236    141.62897   -29288.865   -2068.2437 
  105400    341.48776   -29120.011    162.86562   -29282.876    50473.216 
  105600    298.73167    -29149.88    142.47398   -29292.354   -39006.942 
  105800    304.63116    -29143.96    145.28762   -29289.248        14902 
  106000    296.68813   -29140.915    141.49935   -29282.414    4671.0753 
  106200    298.96255   -29140.751    142.58409   -29283.335    38674.769 
  106400    314.00523   -29156.965    149.75839   -29306.723    6506.4912 
  106600    316.45916   -29133.383    150.92874   -29284.312    43016.183 
  106800    294.33369   -29124.474    140.37645    -29264.85   -13250.974 
  107000    268.02612   -29158.725    127.82959   -29286.555    13553.723 
  107200     292.6929   -29136.815    139.59391   -29276.409   -17132.011 
  107400    317.07013   -29128.643    151.22013   -29279.863   -1184.5036 
  107600    267.90271   -29142.303    127.77073   -29270.074   -8360.6218 
  107800    291.26638   -29161.206    138.91356   -29300.119    54228.407 
  108000    293.64479   -29137.066     140.0479   -29277.114   -6910.0573 
  108200    309.45269   -29139.981    147.58715   -29287.568    24482.663 
  108400    269.24065   -29167.419    128.40884   -29295.828    -9424.029 
  108600    302.94217   -29144.228    144.48209    -29288.71    12832.092 
  108800    275.46096   -29143.807    131.37549   -29275.182    13458.057 
  109000    306.00189    -29141.21    145.94136   -29287.152    36808.725 
  109200    253.56994   -29169.214    120.93501   -29290.149    18604.378 
  109400    291.28775   -29136.793    138.92375   -29275.717   -6059.9163 
  109600    323.05093   -29126.654    154.07255   -29280.726    3749.4953 
  109800    288.21016   -29157.003    137.45596   -29294.459    4640.3249 
  110000    287.11748   -29139.267    136.93483   -29276.202   -875.52121 
  110200    309.56753   -29129.782    147.64192   -29277.424   -7419.7333 
  110400    289.41302   -29155.416    138.02964   -29293.446   -8753.4206 
  110600    287.04266   -29144.658    136.89914   -29281.558    17020.427 
  110800    315.95593   -29130.897    150.68874   -29281.585    27587.482 
  111000    291.00424   -29157.118    138.78854   -29295.906   -1727.5813 
  111200    299.51384    -29130.12    142.84702   -29272.967    11490.995 
  111400    306.29157   -29129.412    146.07952   -29275.491   -31871.886 
  111600    265.42213   -29141.793    126.58767   -29268.381   -9950.4161 
  111800    337.81745   -29102.309    161.11514   -29263.425   -15695.602 
  112000    295.96101   -29125.788    141.15257    -29266.94   -28454.527 
  112200    321.77141   -29135.995    153.46231   -29289.457   -24435.019 
  112400    277.46359   -29155.024     132.3306   -29287.354   -40640.587 
  112600    313.90322   -29144.495    149.70974   -29294.205    10968.409 
  112800    321.82996   -29130.864    153.49024   -29284.354    46753.082 
  113000     276.9729   -29159.087    132.09658   -29291.184   -26373.356 
  113200    284.95814   -29165.635    135.90497    -29301.54    15247.302 
  113400    298.58476   -29141.601    142.40391   -29284.005   -7279.5029 
  113600    276.63288   -29154.093    131.93441   -29286.028   -8535.4417 
  113800    269.04613    -29162.26    128.31607   -29290.576   -16294.365 
  114000    307.54551   -29142.253    146.67756    -29288.93    3001.4273 
  114200    318.69141   -29134.927    151.99337   -29286.921    7047.3927 
  114400    318.61994   -29128.087    151.95928   -29280.047    43561.858 
  114600    282.17975   -29151.441    134.57988   -29286.021    25867.607 
  114800    320.96087   -29127.043    153.07574   -29280.119    33211.563 
  115000    324.75933   -29129.371    154.88734   -29284.259    1313.4144 
  115200    293.16635   -29151.619    139.81971   -29291.438   -10948.653 
  115400    318.10533   -29124.665    151.71385   -29276.378    14920.391 
  115600    310.52236   -29133.732    148.09731   -29281.829   -57540.521 
  115800    276.85442   -29153.594    132.04007   -29285.634    6279.8852 
  116000    324.94014   -29123.984    154.97357   -29278.957    2062.6327 
  116200    326.30668   -29129.308    155.62532   -29284.933    -7858.586 
  116400    300.45667   -29149.956    143.29668   -29293.252   -3187.7371 
  116600    303.79564   -29131.431    144.88913   -29276.321    1579.9676 
  116800     306.0311   -29125.816    145.95529   -29271.771   -30045.957 
  117000    287.00013   -29143.851    136.87886    -29280.73    1032.4809 
  117200    287.95815   -29142.524    137.33577    -29279.86   -7661.0981 
  117400    328.38731   -29117.504    156.61763   -29274.122   -17200.904 
  117600    309.30943   -29140.338    147.51882   -29287.857   -6073.3808 
  117800    309.51738   -29147.028      147.618   -29294.646    39434.379 
  118000    317.84531   -29129.174    151.58984   -29280.763    15040.719 
  118200    316.65078   -29139.664    151.02013   -29290.684   -4253.4884 
  118400    275.40612   -29157.746    131.34933   -29289.095    16124.257 
  118600    303.64346   -29128.455    144.81656   -29273.272    13499.717 
  118800    324.56605   -29132.676    154.79516   -29287.471   -31486.612 
  119000    269.16527   -29149.373    128.37289   -29277.746   -5596.1016 
  119200    294.03732   -29138.295     140.2351    -29278.53   -14367.968 
  119400    305.39603   -29127.785    145.65241   -29273.438   -8436.7468 
  119600    307.29567   -29145.327     146.5584   -29291.885   -48129.849 
  119800    295.70811   -29141.808    141.03196    -29282.84    27327.552 
  120000      277.686   -29140.177    132.43667   -29272.614   -4713.4762 
  120200    304.49725   -29135.512    145.22375   -29280.736    4821.0491 
  120400    302.60748   -29162.199    144.32247   -29306.522   -10418.392 
  120600    297.07394   -29148.056    141.68336   -29289.739   -3882.7788 
  120800    314.66765   -29137.292    150.07432   -29287.366   -2838.5189 
  121000    289.37265   -29160.315    138.01038   -29298.326   -30473.978 
  121200    304.07193   -29155.119     145.0209    -29300.14    8645.7243 
  121400    308.67512   -29128.566     147.2163   -29275.782    2305.4505 
  121600    275.02199   -29157.108    131.16613   -29288.274    -23956.46 
  121800    286.43922   -29141.275    136.61135   -29277.887   -2579.2584 
  122000    310.18704   -29121.861    147.93738   -29269.798    7562.5345 
  122200    295.44705   -29137.137    140.90745   -29278.045   -33348.019 
  122400    318.08054    -29154.73    151.70203   -29306.432    -15716.34 
  122600    265.19514   -29159.451    126.47942   -29285.931   -39354.282 
  122800    294.20341   -29132.671    140.31431   -29272.986    141.34727 
  123000    296.51557   -29160.539    141.41705   -29301.956   -21571.534 
  123200    307.87235   -29158.157    146.83344   -29304.991    16161.087 
  123400    297.62116   -29153.581    141.94434   -29295.525    23456.084 
  123600    298.60325   -29158.106    142.41273   -29300.519   -26012.491 
  123800     285.1285    -29178.05    135.98622   -29314.036    12953.748 
  124000    316.50856   -29148.225     150.9523   -29299.177    -18068.95 
  124200    281.20681   -29152.407    134.11585   -29286.523   -37189.145 
  124400    292.96764    -29150.69    139.72494   -29290.415   -1510.8267 
  124600    332.24871   -29127.668    158.45925   -29286.127    24885.404 
  124800    260.22273   -29161.874    124.10793   -29285.982    45478.888 
  125000    295.30476   -29145.434    140.83958   -29286.274    16092.314 
  125200    306.20026   -29136.348    146.03597   -29282.384    8463.5674 
  125400    285.00325   -29145.377    135.92649   -29281.303   -13546.586 
  125600    303.71369   -29148.571    144.85005   -29293.422    5976.1697 
  125800    263.20933   -29166.413    125.53232   -29291.946   -3936.4383 
  126000    316.49816    -29136.51    150.94734   -29287.458    47377.681 
  126200    291.29686   -29143.153     138.9281   -29282.081    6301.6155 
  126400    273.69351   -29156.862    130.53254   -29287.395     -5116.65 
  126600      293.407   -29136.527    139.93449   -29276.461   -51746.664 
  126800    291.49517    -29133.13    139.02268   -29272.153   -11495.993 
  127000    251.49684   -29159.317    119.94629   -29279.263    6228.6574 
  127200    331.51999   -29118.293     158.1117   -29276.404    12560.296 
  127400    304.13482   -29142.391     145.0509   -29287.442    28637.605 
  127600    308.00565   -29134.011    146.89701   -29280.908   -7168.6243 
  127800    292.48889   -29121.811    139.49661   -29261.307    23247.777 
  128000    307.44464   -29143.629    146.62945   -29290.258   -17844.612 
  128200    323.22279     -29128.5    154.15452   -29282.655   -17180.796 
  128400    263.59425   -29157.194     125.7159    -29282.91    46946.008 
  128600     316.0878   -29141.331    150.75163   -29292.083    41473.466 
  128800    293.55756    -29131.65    140.00629   -29271.656   -4513.1836 
  129000    331.36956   -29120.081    158.03996   -29278.121    3488.4134 
  129200    294.83905   -29123.698    140.61747   -29264.315   -20243.946 
  129400    282.54454   -29142.759    134.75386   -29277.513   -10848.839 
  129600    312.69492   -29109.607    149.13347    -29258.74    638.81458 
  129800    307.48921   -29129.586    146.65071   -29276.237   -16976.713 
  130000    292.96595   -29137.039    139.72413   -29276.763    19447.945 
  130200    279.25131    -29160.07    133.18322   -29293.253   -25758.403 
  130400    299.79521   -29151.802    142.98121   -29294.783   -24320.335 
  130600     301.7087   -29136.907    143.89381   -29280.801   -14375.565 
  130800    266.11461   -29164.963    126.91794   -29291.881    14552.454 
  131000    302.84263   -29140.733    144.43462   -29285.168    15631.082 
  131200    304.24029   -29141.243     145.1012   -29286.344   -2962.7221 
  131400    287.80649   -29151.577    137.26344    -29288.84    -13238.77 
  131600     302.6562   -29120.127     144.3457   -29264.472   -21610.914 
  131800    305.99754   -29133.931    145.93929    -29279.87     6647.802 
  132000    323.06666   -29139.117    154.08005   -29293.197   -15557.896 
  132200     305.1514   -29131.837    145.53574   -29277.373   -28818.312 
  132400    334.00062   -29116.232    159.29479   -29275.527    4044.7612 
  132600    296.19087   -29145.052     141.2622   -29286.314   -23063.726 
  132800    330.73477   -29139.019    157.73721   -29296.757    607.50124 
  133000      321.733   -29107.278    153.44399   -29260.722   -1654.6821 
  133200    320.13391   -29129.721    152.68134   -29282.402   -18990.663 
  133400    312.98631   -29154.404    149.27244   -29303.677    19547.867 
  133600    301.95153   -29159.062    144.00962   -29303.071    -17762.05 
  133800    329.24612   -29129.227    157.02722   -29286.255    72439.844 
  134000    302.43507   -29153.849    144.24024   -29298.089   -444.62703 
  134200    300.36049   -29157.682    143.25081   -29300.932   -22940.582 
  134400    307.01724    -29139.05    146.42561   -29285.476    43914.602 
  134600    319.93147   -29126.981    152.58479   -29279.566   -6829.9898 
  134800    275.45921   -29149.847    131.37465   -29281.222   -5931.3639 
  135000    302.69476   -29130.238     144.3641   -29274.602   -25904.931 
  135200    281.68742   -29147.911    134.34507   -29282.256    19913.712 
  135400     292.7754   -29163.854    139.63326   -29303.487   -39245.518 
  135600    308.19144   -29135.127    146.98562   -29282.113     19912.46 
  135800    263.11144     -29163.7    125.48564   -29289.186    -5820.858 
  136000    265.92476   -29162.687    126.82739   -29289.515    4617.7609 
  136200    320.09818   -29136.433     152.6643   -29289.098   -1463.6376 
  136400    274.36251   -29169.729     130.8516   -29300.581     31030.94 
  136600     294.4646   -29152.403    140.43888   -29292.842   -2914.5785 
  136800    315.08204   -29134.286    150.27196   -29284.558    14998.357 
  137000    270.55184   -29164.236    129.03418    -29293.27    10899.524 
  137200    290.64513   -29156.398    138.61727   -29295.015   -21025.306 
  137400    293.69928   -29135.925    140.07388   -29275.999    23082.157 
  137600    288.49501   -29154.288    137.59181    -29291.88   -5538.3576 
  137800    310.38851   -29155.853    148.03347   -29303.886   -7445.9775 
  138000    293.47699   -29139.714    139.96787   -29279.682   -513.17482 
  138200    305.80953   -29140.396    145.84962   -29286.246     7607.557 
  138400    285.50699    -29150.71    136.16673   -29286.877   -27735.536 
  138600     343.5048   -29123.602    163.82761   -29287.429   -14350.621 
  138800    300.03418   -29141.156    143.09518   -29284.251    2670.3502 
  139000    290.48174   -29149.914    138.53934   -29288.453    32901.772 
  139200    306.98438   -29127.047    146.40994   -29273.456    24307.797 
  139400    320.55685   -29130.405    152.88305   -29283.288    56014.078 
  139600    282.88739   -29154.336    134.91737   -29289.253    14005.586 
  139800    320.15312   -29124.224     152.6905   -29276.914    67168.987 
  140000    324.80919   -29137.838    154.91112   -29292.749   -5678.5569 
  140200    289.89715   -29145.072    138.26053   -29283.333   -30479.617 
  140400    298.97111   -29140.666    142.58817   -29283.254    22231.159 
  140600    280.44789    -29145.87     133.7539   -29279.624    48930.013 
  140800    297.99721   -29141.608    142.12369   -29283.732    1888.2887 
  141000    321.79759   -29121.513     153.4748   -29274.988    34626.519 
  141200    287.01161   -29143.316    136.88433     -29280.2    33177.691 
  141400    303.88334   -29133.239    144.93096    -29278.17   -12728.153 
  141600    316.19583   -29118.783    150.80315   -29269.586   -12798.396 
  141800    290.59635   -29135.371      138.594   -29273.965    32039.649 
  142000    277.30347   -29157.166    132.25423   -29289.421    18217.112 
  142200    274.87861   -29125.249    131.09775   -29256.347    2373.9445 
  142400    315.43275   -29122.579    150.43922   -29273.018    13356.129 
  142600    276.83964   -29156.157    132.03302    -29288.19    45791.455 
  142800    281.03113   -29145.721    134.03206   -29279.753    8125.7823 
  143000    319.79467   -29138.109    152.51955   -29290.628    5676.7116 
  143200    279.07681   -29161.708    133.09999   -29294.808     65184.33 
  143400    298.43901   -29157.144     142.3344   -29299.478   -6677.6514 
  143600    305.67177    -29137.24    145.78392   -29283.024   -16080.571 
  143800     288.8961   -29153.241     137.7831   -29291.024   -25700.871 
  144000    283.55534   -29161.703    135.23594   -29296.939    10323.912 
  144200     283.8739   -29140.884    135.38787   -29276.272   -22923.837 
  144400    312.55993    -29124.08    149.06909   -29273.149   -11652.875 
  144600    311.85405   -29146.435    148.73243   -29295.168    34680.626 
  144800    262.23431   -29149.251    125.06731   -29274.318   -28142.464 
  145000    330.30011    -29125.84     157.5299   -29283.369   -29059.057 
  145200    289.18767   -29143.614    137.92216   -29281.537   -9062.1387 
  145400     289.3561   -29136.701    138.00249   -29274.704   -8742.4032 
  145600    325.87625   -29119.997    155.42003   -29275.417    63660.651 
  145800    297.18587   -29148.623    141.73674   -29290.359    15505.006 
  146000    299.60119   -29136.351    142.88868    -29279.24    94888.808 
  146200    331.79178   -29111.042    158.24133   -29269.284     18139.96 
  146400    295.34844   -29136.899    140.86042   -29277.759   -15762.167 
  146600    272.83916   -29150.876    130.12507   -29281.001    38066.639 
  146800     292.9072   -29133.387    139.69612   -29273.083   -9311.0036 
  147000    315.54745   -29143.061    150.49392   -29293.555   -59423.356 
  147200    281.32958   -29156.295    134.17441   -29290.469    28688.504 
  147400     319.3159   -29138.698    152.29121    -29290.99    15534.491 
  147600    322.10115   -29137.317    153.61958   -29290.937    4871.9437 
  147800    274.74628   -29157.206    131.03464   -29288.241    6404.9789 
  148000     256.3681   -29155.115    122.26954   -29277.384    44848.638 
  148200      320.671   -29132.422    152.93749    -29285.36    -10473.94 
  148400    312.98375   -29123.216    149.27122   -29272.488    -18610.22 
  148600    272.07788   -29143.068    129.76199    -29272.83   -45911.016 
  148800    325.26441    -29132.26    155.12823   -29287.388     1164.667 
  149000    313.55124   -29120.563    149.54187   -29270.105    34147.642 
  149200    296.96457   -29136.682     141.6312   -29278.313   -9185.3908 
  149400    304.87051   -29137.237    145.40177   -29282.638   -19484.261 
  149600    292.85879   -29149.659    139.67303   -29289.332   -13332.152 
  149800    315.75148   -29146.019    150.59123    -29296.61   -52363.632 
  150000    304.02237   -29130.567    144.99727   -29275.564    13445.594 
  150200    261.36876   -29159.756     124.6545    -29284.41    41491.598 
  150400    308.18868   -29130.666    146.98431    -29277.65   -12879.908 
  150600     288.2184    -29131.64    137.45989     -29269.1     38615.98 
  150800    265.87837   -29160.895    126.80527   -29287.701     30056.36 
  151000    276.84903   -29138.402     132.0375    -29270.44    25457.509 
  151200    324.80916   -29121.703    154.91111   -29276.614    1034.0693 
  151400    323.95333   -29113.897    154.50294     -29268.4    53576.724 
  151600    300.97991   -29139.137    143.54623   -29282.683   -7769.1698 
  151800    296.96411   -29138.448    141.63098   -29280.079   -48274.661 
  152000    321.58425   -29114.981    153.37305   -29268.354    41746.813 
  152200    280.80584   -29142.564    133.92462   -29276.489    2087.2776 
  152400    299.04065   -29136.409    142.62134    -29279.03   -32004.382 
  152600    331.88733   -29110.085     158.2869   -29268.372    4020.3496 
  152800    295.31969   -29145.859    140.84671   -29286.706    33458.104 
  153000    294.82962    -29149.81    140.61297   -29290.423    4328.4828 
  153200    325.58293   -29127.168    155.28014   -29282.448   -55117.967 
  153400    299.44545   -29137.538     142.8144   -29280.352    6813.2153 
  153600    320.99072   -29150.754    153.08998   -29303.844   -11993.561 
  153800    328.37219   -29129.411    156.61042   -29286.021    29052.609 
  154000    310.42388   -29139.058    148.05034   -29287.108    8242.1404 
  154200    294.91692   -29159.007    140.65461   -29299.662   -9792.6781 
  154400    291.97529    -29128.24    139.25166   -29267.492    24521.403 
  154600    295.78504   -29130.707    141.06864   -29271.775    10906.558 
  154800    296.26813   -29148.308    141.29904   -29289.607    45985.103 
  155000    286.53035    -29147.41    136.65481   -29284.065    17125.563 
  155200    307.95235   -29125.576    146.87159   -29272.447    12957.337 
  155400    301.72524   -29143.393     143.9017   -29287.294   -24726.074 
  155600    293.24171   -29150.058    139.85565   -29289.914    112.84567 
  155800     330.3538   -29129.406    157.55551   -29286.962    25448.458 
  156000     322.1558   -29140.525    153.64564   -29294.171   -10025.489 
  156200    283.25969   -29156.204    135.09493   -29291.299    25310.829 
  156400    320.60043   -29121.406    152.90384    -29274.31     13055.39 
  156600    284.76281    -29147.54    135.81182   -29283.352   -14852.314 
  156800    289.71639   -29147.187    138.17433   -29285.362   -22993.888 
  157000    359.35545   -29112.175    171.38725   -29283.562    14311.999 
  157200    305.63424   -29141.072    145.76602   -29286.838   -5534.6819 
  157400    300.99657   -29152.084    143.55418   -29295.639   -9595.8553 
  157600     317.6614    -29138.81    151.50213   -29290.312   -8420.7435 
  157800    319.67868   -29119.033    152.46423   -29271.497   -22222.725 
  158000    276.61455    -29153.39    131.92567   -29285.316    9006.7152 
  158200    304.18101   -29138.838    145.07293   -29283.911    19777.218 
  158400    318.20801   -29121.902    151.76282   -29273.664   -54413.037 
  158600    318.42998   -29123.254    151.86869   -29275.123    19021.735 
  158800    309.95334   -29151.841    147.82593   -29299.667    41999.876 
  159000    308.71312   -29128.229    147.23443   -29275.464    11782.786 
  159200    334.28609   -29126.004    159.43093   -29285.435   -1531.5907 
  159400    295.07276   -29148.683    140.72893   -29289.412    4180.5738 
  159600    262.49055    -29155.91    125.18952   -29281.099     2144.235 
  159800    320.96778   -29125.782    153.07904   -29278.861   -27715.778 
  160000     298.4687   -29155.803    142.34856   -29298.152    42641.185 
  160200    285.06737   -29153.996    135.95707   -29289.953     16778.99 
  160400    332.58359   -29129.486    158.61896   -29288.105   -23311.462 
  160600    297.11219   -29136.919     141.7016   -29278.621    34128.948 
  160800    310.10827   -29148.715    147.89982   -29296.615   -54843.488 
  161000    316.03612   -29133.452    150.72698   -29284.179   -46425.646 
  161200    291.48506   -29153.686    139.01786   -29292.703     24580.84 
  161400    296.47293    -29155.11    141.39672   -29296.506   -11234.952 
  161600    299.92196   -29133.269    143.04166   -29276.311    22238.708 
  161800    306.44159   -29147.723    146.15107   -29293.874   -29856.974 
  162000    264.09057   -29170.077    125.95261    -29296.03    21916.003 
  162200    284.08586   -29153.816    135.48896   -29289.304   -1622.0024 
  162400    295.30401   -29138.594    140.83923   -29279.433    57017.232 
  162600    290.76693   -29161.458    138.67536   -29300.134     60856.95 
  162800    297.45334   -29163.394     141.8643   -29305.258    2785.8881 
  163000    285.66798   -29146.038    136.24352   -29282.282    41304.807 
  163200    314.14788   -29139.812    149.82643   -29289.639    25127.832 
  163400    280.29802    -29171.46    133.68243   -29305.142   -15846.022 
  163600    299.22272    -29146.66    142.70817   -29289.369    -17103.97 
  163800    299.67353   -29142.411    142.92318   -29285.334    14484.625 
  164000    299.46516   -29134.425     142.8238   -29277.248    28242.695 
  164200    302.16184   -29151.183    144.10993   -29295.293   -10412.784 
  164400    307.21132   -29160.505    146.51817   -29307.024   -4782.2033 
  164600    320.15113   -29130.085    152.68955   -29282.774   -5890.2634 
  164800    281.82287   -29148.675    134.40967   -29283.084    9620.1404 
  165000    276.85462   -29166.749    132.04017    -29298.79    44240.768 
  165200    296.67544   -29129.739     141.4933   -29271.232   -4789.9559 
  165400    305.93378   -29153.102    145.90888   -29299.011   -8969.7206 
  165600    290.12162   -29155.713    138.36759   -29294.081   -1345.3391 
  165800    318.09598   -29127.763    151.70939   -29279.473    8415.6101 
  166000    289.14245   -29152.185     137.9006   -29290.085    38574.626 
  166200     302.7152   -29144.069    144.37384   -29288.443   -21841.122 
  166400    292.72257   -29142.178    139.60806   -29281.786    -12360.73 
  166600    264.54766   -29158.286    126.17061   -29284.457    47311.054 
  166800    258.55694   -29161.938    123.31346   -29285.251   -1687.6892 
  167000    305.24702   -29132.404    145.58134   -29277.985    5255.9722 
  167200    305.09046   -29149.606    145.50667   -29295.113    4729.1034 
  167400    292.02627   -29150.347    139.27597   -29289.623    15621.083 
  167600    314.50334   -29125.594    149.99595    -29275.59    9236.4594 
  167800    279.84845   -29154.318    133.46801   -29287.786   -15388.821 
  168000    310.73313   -29124.693    148.19783   -29272.891    20995.539 
  168200     317.5009   -29122.055    151.42558   -29273.481    3942.3208 
  168400    281.87958   -29142.157    134.43672   -29276.594    25106.686 
  168600    314.95856   -29126.326    150.21306   -29276.539    40980.422 
  168800    305.04626   -29120.621    145.48559   -29266.107   -34814.425 
  169000    287.76886   -29148.878    137.24549   -29286.124    5862.2877 
  169200    315.43833   -29132.966    150.44188   -29283.408   -40730.735 
  169400    336.90435   -29092.061    160.67966   -29252.741   -16143.419 
  169600    325.31026   -29115.991    155.15009   -29271.141    27514.999 
  169800    286.07255   -29140.471    136.43647   -29276.908   -42861.937 
  170000    289.87499   -29143.042    138.24997   -29281.292   -16048.854 
  170200     310.6831   -29117.291    148.17397   -29265.465   -1112.8777 
  170400    294.18336   -29134.357    140.30475   -29274.662    -36273.51 
  170600    295.38462   -29135.576    140.87767   -29276.454    2884.1378 
  170800    295.33396   -29130.806    140.85351    -29271.66   -16724.832 
  171000    293.80881   -29146.205    140.12612   -29286.331    26053.521 
  171200    291.95072   -29160.148    139.23994   -29299.388    41152.909 
  171400    340.60833   -29128.179     162.4462   -29290.625    20016.121 
  171600    303.49328   -29149.344    144.74493   -29294.089     32908.08 
  171800    283.06278   -29149.678    135.00102   -29284.679   -2145.8089 
  172000    327.89773   -29133.136    156.38414    -29289.52   -10570.617 
  172200    296.01849   -29135.161    141.17998   -29276.341   -11811.567 
  172400    281.66165   -29157.223    134.33278   -29291.556   -8056.8113 
  172600    289.98553   -29128.522    138.30268   -29266.824   -24202.507 
  172800    330.83476   -29137.482    157.78489   -29295.267      32905.9 
  173000     296.9148   -29142.707    141.60746   -29284.315   -24.807935 
  173200    289.76835   -29169.414    138.19911   -29307.613   -14596.652 
  173400    284.55631   -29160.479    135.71333   -29296.193    7872.4436 
  173600    302.14958   -29148.425    144.10408   -29292.529   -20353.838 
  173800    301.43073   -29140.632    143.76124   -29284.393   -30325.295 
  174000     307.8746   -29139.728    146.83451   -29286.563    16149.546 
  174200    283.85983   -29158.178    135.38116    -29293.56   -8464.0042 
  174400    301.48593   -29144.541    143.78757   -29288.329   -12647.529 
  174600    312.22897   -29130.177    148.91124   -29279.088   -11145.217 
  174800    302.83174   -29157.768    144.42942   -29302.198   -1371.2041 
  175000    298.74882   -29150.813    142.48216   -29293.296   -20218.335 
  175200    325.97041   -29133.222    155.46494   -29288.686      7143.47 
  175400    318.61697   -29142.763    151.95786   -29294.721   -100.72701 
  175600    284.37877   -29160.831    135.62865    -29296.46    13665.854 
  175800    315.82112    -29135.77    150.62444   -29286.394   -17542.063 
  176000    309.05037   -29142.528    147.39527   -29289.923   -12989.201 
  176200    289.47112    -29149.69    138.05735   -29287.748   -15445.443 
  176400    310.43666   -29128.232    148.05643   -29276.288   -10447.477 
  176600    274.77435   -29143.683    131.04802   -29274.731    -36705.01 
  176800      288.295   -29152.201    137.49642   -29289.698    15726.509 
  177000    303.40958   -29132.523    144.70501   -29277.228   -23253.951 
  177200    329.76088   -29127.752    157.27273   -29285.024   -41200.948 
  177400    293.79415   -29159.728    140.11913   -29299.848   -6821.2578 
  177600    314.46595   -29145.871    149.97812   -29295.849    21054.676 
  177800     325.9902   -29133.444    155.47438   -29288.919   -7283.9293 
[...]
  950000    299.35938   -29163.259    142.77335   -29306.033   -5621.0177 
  950200    330.52727   -29148.242    157.63824   -29305.881   -14979.995 
  950400    335.03876    -29139.74    159.78991    -29299.53    74266.641 
  950600    315.26287   -29168.578     150.3582   -29318.936    33697.609 
  950800    285.56335   -29164.353    136.19362   -29300.547    446.10322 
  951000    316.43176   -29138.604    150.91568   -29289.519    30782.673 
  951200    279.28824   -29164.913    133.20083   -29298.114    6425.9279 
  951400    279.95193   -29157.728    133.51736   -29291.245    37117.803 
  951600    318.37185   -29137.228    151.84096   -29289.069    9065.5337 
  951800    293.42357   -29164.931    139.94239   -29304.873   -15629.087 
  952000    305.54228   -29145.391    145.72216   -29291.113    15666.953 
  952200    298.75392   -29136.189    142.48459   -29278.673    38886.583 
  952400    282.87409   -29160.149    134.91103    -29295.06    36507.816 
  952600    302.43157   -29156.533    144.23857   -29300.771   -8047.0312 
  952800      319.792   -29129.585    152.51827   -29282.103    19088.906 
  953000    306.17734   -29158.671    146.02504   -29304.697    -20168.65 
  953200    303.09683   -29158.186    144.55585   -29302.742   -38385.939 
  953400    297.12846   -29131.048    141.70936   -29272.757    45614.968 
  953600    283.30387   -29161.281      135.116   -29296.397    13841.549 
  953800    292.12527   -29157.993    139.32319   -29297.316   -31733.828 
  954000    330.46207   -29129.389    157.60714   -29286.996   -16743.991 
  954200    311.78613   -29155.442    148.70004   -29304.142   -7278.0897 
  954400    275.89266   -29163.151    131.58138   -29294.732   -7254.3991 
  954600    328.81843   -29134.497    156.82324   -29291.321   -26993.257 
  954800     297.2556   -29163.244       141.77   -29305.014   -10714.672 
  955000     279.7606   -29164.843    133.42611   -29298.269    11831.931 
  955200    312.93419   -29136.423    149.24758    -29285.67   -20306.249 
  955400    259.44493   -29163.736    123.73697   -29287.473    -44184.57 
  955600    302.57766   -29161.494    144.30824   -29305.802    5142.5518 
  955800    324.95185     -29142.2    154.97916   -29297.179    1821.5177 
  956000    270.89498   -29172.904    129.19784   -29302.102   -30350.992 
  956200    316.24584   -29152.415      150.827   -29303.242    8547.2788 
  956400    332.29215   -29146.289    158.47996   -29304.769   -80409.142 
  956600    310.43257   -29152.894    148.05449   -29300.949    59345.318 
  956800    294.54613   -29156.645    140.47777   -29297.123    19281.179 
  957000    282.53382   -29162.975    134.74874   -29297.723    8465.1946 
  957200    282.55183   -29154.155    134.75733   -29288.913   -3835.7281 
  957400     307.9657   -29137.985    146.87796   -29284.863   -51867.354 
  957600      304.785   -29170.535    145.36099   -29315.896   -13175.792 
  957800    283.11483   -29152.961    135.02585   -29287.987   -20547.823 
  958000    309.09026   -29145.797     147.4143   -29293.211   -16013.452 
  958200    305.37706   -29189.861    145.64336   -29335.505    28922.382 
  958400    289.27287   -29160.678     137.9628   -29298.641     34302.39 
  958600    290.79684   -29142.225    138.68962   -29280.915    28642.359 
  958800    308.62535   -29150.511    147.19257   -29297.704   -8987.3789 
  959000    285.65323   -29173.631    136.23648   -29309.868    -21005.56 
  959200    302.42231   -29141.944    144.23415   -29286.178    7289.0132 
  959400    280.44495   -29151.755     133.7525   -29285.508    33324.624 
  959600    281.46587   -29174.293    134.23941   -29308.532   -16490.015 
  959800    298.63671   -29141.808    142.42869   -29284.236    11792.712 
  960000    306.82863   -29151.768    146.33566   -29298.103    42267.499 
  960200    284.99541   -29169.441    135.92275   -29305.364    24567.497 
  960400     317.9163   -29134.823     151.6237   -29286.447    8696.8471 
  960600    322.27738     -29145.6    153.70362   -29299.303     38909.28 
  960800    294.45881   -29166.349    140.43612   -29306.785    16458.045 
  961000    305.88961   -29138.993    145.88781   -29284.881   -6353.6431 
  961200    307.64182   -29141.273    146.72349   -29287.997    37037.411 
  961400    292.77858   -29161.395    139.63477    -29301.03   -12101.314 
  961600    307.40229   -29156.668    146.60926   -29303.277    40435.905 
  961800    339.52295   -29128.253    161.92855   -29290.182    94095.612 
  962000    297.73863   -29160.066    142.00037   -29302.066   -15428.613 
  962200    274.66536   -29162.514    130.99604    -29293.51   -31216.509 
  962400    311.01861    -29131.44    148.33398   -29279.774    682.44561 
  962600    314.81898   -29157.791    150.14649   -29307.938    31917.673 
  962800     272.6414   -29165.039    130.03076    -29295.07   -3449.0438 
  963000    303.53843   -29144.842    144.76646   -29289.608   -12098.491 
  963200    310.14939   -29148.445    147.91943   -29296.364    18004.094 
  963400    287.15888   -29168.655    136.95457   -29305.609   -5408.8811 
  963600    311.28259   -29142.552    148.45989   -29291.012    9133.6575 
  963800    282.96978   -29163.038    134.95667   -29297.995    6654.3678 
  964000    302.59025   -29166.606    144.31425    -29310.92    30695.619 
  964200    299.39833   -29147.362    142.79193   -29290.154   -34752.233 
  964400    300.48067   -29157.977    143.30813   -29301.286   -40437.219 
  964600    282.14103    -29160.65    134.56141   -29295.211    29500.224 
  964800    325.05953    -29150.46    155.03052    -29305.49   -60255.415 
  965000    279.29634   -29166.055    133.20469    -29299.26   -14869.471 
  965200    286.59403   -29174.159    136.68518   -29310.845    2980.8862 
  965400    321.87913   -29143.608    153.51369   -29297.121    3857.5824 
  965600    309.44955   -29164.422    147.58565   -29312.008    2338.6912 
  965800    278.48749    -29155.31    132.81893   -29288.129    6402.3618 
  966000    309.22711   -29142.467    147.47956   -29289.947   -12657.346 
  966200    287.69085   -29166.858    137.20829   -29304.066    346.84784 
  966400    289.11266   -29154.535    137.88639   -29292.421   -8336.0102 
  966600    292.21999   -29154.081    139.36837    -29293.45   -13452.346 
  966800    282.90609   -29159.268    134.92629   -29294.194    46920.909 
  967000    331.32257   -29144.536    158.01754   -29302.554   -25235.153 
  967200    288.30243   -29160.172    137.49997   -29297.672    17403.322 
  967400    286.84588    -29168.57    136.80529   -29305.375   -4941.4542 
  967600    295.13956   -29154.789     140.7608    -29295.55        14003 
  967800     287.9115   -29155.373    137.31352   -29292.687   -22934.795 
  968000    294.46841   -29161.503     140.4407   -29301.943    6588.7451 
  968200    291.49077   -29166.492    139.02058   -29305.512    18635.346 
  968400    339.69172   -29135.434    162.00904   -29297.443   -41212.339 
  968600     289.6138    -29151.62     138.1254   -29289.745    51321.065 
  968800    291.51575   -29157.232    139.03249   -29296.264   -34401.112 
  969000    328.98941   -29146.844    156.90479   -29303.749    8726.0703 
  969200     317.9845    -29128.07    151.65622   -29279.727   -30690.888 
  969400    302.95742    -29164.86    144.48936    -29309.35    267.86298 
  969600    290.84696   -29150.935    138.71353   -29289.649    5427.0608 
  969800    344.92006   -29125.029    164.50259   -29289.532   -17877.057 
  970000    274.77117   -29167.719    131.04651   -29298.766   -38190.623 
  970200    308.81566   -29160.661    147.28333   -29307.944   -42050.564 
  970400     336.1564   -29135.235    160.32294   -29295.558    4293.4433 
  970600    272.28489   -29173.706    129.86073   -29303.567   -23956.788 
  970800    317.71388    -29150.19    151.52716   -29301.717   -4616.2649 
  971000     306.5392   -29144.965    146.19762   -29291.162   -33812.891 
  971200    303.61182   -29175.048    144.80147    -29319.85   -19156.509 
  971400    296.32994   -29149.836    141.32852   -29291.165    2941.2468 
  971600     276.6805   -29156.396    131.95712   -29288.354   -7446.9694 
  971800    265.05372   -29190.712    126.41197   -29317.124    23186.943 
  972000    292.05675   -29169.919    139.29051   -29309.209    13268.986 
  972200    297.90441   -29150.041    142.07943    -29292.12   -1710.4059 
  972400    277.13984   -29177.874    132.17619    -29310.05    48176.652 
  972600    307.34646   -29167.681    146.58262   -29314.264   -14694.596 
  972800    284.23737   -29154.413    135.56122   -29289.975    -17304.85 
  973000    289.85587   -29168.019    138.24085    -29306.26   -46565.738 
  973200    281.42759   -29183.199    134.22115    -29317.42    31853.661 
  973400    309.56696   -29153.652    147.64165   -29301.294   -4533.1389 
  973600    298.25359   -29148.731    142.24597   -29290.977    19987.626 
  973800    298.76626    -29176.51    142.49047   -29319.001   -30576.746 
  974000    266.46446   -29157.119    127.08479   -29284.203    -23486.23 
  974200    296.89438     -29156.4    141.59772   -29297.998    8311.6058 
  974400    292.15964   -29153.785    139.33958   -29293.125   -26675.999 
  974600    269.55912   -29163.446    128.56072   -29292.007    15364.338 
  974800    276.67607   -29171.042    131.95501   -29302.997    17995.737 
  975000    295.09846   -29145.228    140.74119   -29285.969    -35568.61 
  975200    289.96358   -29168.866    138.29222   -29307.159   -10044.532 
  975400    280.66495   -29151.349    133.85742   -29285.206   -18155.501 
  975600    294.26418   -29139.662     140.3433   -29280.005    26303.878 
  975800    288.15161   -29165.421    137.42803   -29302.849    29340.669 
  976000    305.32453   -29140.321    145.61831   -29285.939    17764.844 
  976200    304.55988   -29141.531    145.25362   -29286.785   -26881.271 
  976400    301.25012   -29157.479     143.6751   -29301.155   -34170.907 
  976600    314.53449   -29142.463    150.01081   -29292.474    7607.1006 
  976800     313.6623    -29127.01    149.59484   -29276.605    5519.0202 
  977000    316.51428   -29159.405    150.95503    -29310.36   -30777.248 
  977200    296.67627   -29159.071     141.4937   -29300.565    12289.054 
  977400    321.24385   -29131.239    153.21071    -29284.45    13359.117 
  977600    317.20019   -29162.138    151.28216    -29313.42   -16255.609 
  977800    292.52336   -29156.181    139.51305   -29295.694   -45308.499 
  978000    351.90968   -29134.292    167.83615   -29302.128     3059.497 
  978200    318.03566   -29141.076    151.68062   -29292.756    17417.116 
  978400    283.22463   -29163.379    135.07821   -29298.457   -28879.969 
  978600    309.64421   -29138.575    147.67849   -29286.253   -7351.1852 
  978800    305.82607   -29151.564    145.85751   -29297.422   -4283.9869 
  979000    286.20616   -29165.623    136.50019   -29302.123   -2505.1301 
  979200    301.56735   -29147.783     143.8264   -29291.609    -11237.46 
  979400    260.52605   -29161.108    124.25259   -29285.361    22537.004 
  979600    276.71979   -29173.824    131.97586     -29305.8   -3015.0872 
  979800    311.78658    -29144.61    148.70025    -29293.31   -23647.848 
  980000    288.25958   -29156.891    137.47953   -29294.371   -12559.292 
  980200    293.60291   -29163.627    140.02792   -29303.655   -888.89347 
  980400    307.61441   -29154.338    146.71042   -29301.049   -4946.0319 
  980600    318.00746   -29141.517    151.66718   -29293.184    -31735.09 
  980800    286.30727   -29171.306    136.54842   -29307.855   -21365.967 
  981000    272.02018   -29159.288    129.73448   -29289.023    34258.022 
  981200    279.26116   -29145.972    133.18792    -29279.16   -13164.183 
  981400    285.37664   -29164.145    136.10457    -29300.25   -3909.6039 
  981600    274.99918   -29171.721    131.15525   -29302.876   -470.16094 
  981800    292.64814   -29148.231    139.57256   -29287.804    36188.697 
  982000    313.42828   -29148.825    149.48323   -29298.308     3983.548 
  982200    295.42976   -29174.072     140.8992   -29314.972    3120.6156 
  982400    313.45742   -29152.227    149.49712   -29301.724    7229.4183 
  982600    313.89678   -29153.159    149.70667   -29302.866   -15828.119 
  982800    307.91759   -29158.393    146.85502   -29305.249    14049.991 
  983000    333.59734   -29157.419    159.10245   -29316.522    10692.895 
  983200    313.58893   -29138.845    149.55984   -29288.405   -914.49879 
  983400    267.71846   -29160.886    127.68286   -29288.569   -18575.939 
  983600    303.12125   -29158.772     144.5675    -29303.34    22978.542 
  983800    307.50897   -29148.833    146.66013   -29295.493    39585.133 
  984000    300.97956   -29155.446    143.54607   -29298.992    26249.269 
  984200    278.67807   -29171.775    132.90982   -29304.685    9518.2582 
  984400    257.00194   -29168.905    122.57184   -29291.477   -3128.5458 
  984600    314.75749   -29148.465    150.11717   -29298.582     -3096.67 
  984800    263.89037   -29175.007    125.85713   -29300.864   -16205.847 
  985000    279.69242   -29172.292     133.3936   -29305.686     25998.41 
  985200    310.11701   -29157.316    147.90399    -29305.22    7245.1798 
  985400    313.32404   -29144.822    149.43351   -29294.256    29253.378 
  985600    302.21599   -29160.865    144.13575   -29305.001   -11969.978 
  985800    291.67635   -29167.739    139.10909   -29306.848   -24628.027 
  986000    315.60643   -29147.311    150.52205   -29297.833    31217.583 
  986200    279.38212   -29164.886     133.2456   -29298.132   -21304.331 
  986400    287.34169   -29176.963    137.04176   -29314.005   -42024.061 
  986600     308.7495   -29147.134    147.25178   -29294.386   -32084.977 
  986800     293.7015   -29159.593    140.07494   -29299.668    8875.4976 
  987000    279.72594   -29172.434    133.40958   -29305.844   -5113.4974 
  987200    273.69184    -29155.95    130.53174   -29286.481    18114.783 
  987400    314.70532   -29148.694    150.09228   -29298.786   -27609.584 
  987600    303.71011   -29154.186    144.84835   -29299.034   -18240.443 
  987800    290.73432   -29170.483    138.65981   -29309.142   -25200.628 
  988000    317.61152   -29143.914    151.47834   -29295.392   -16614.364 
  988200    305.65222   -29155.638    145.77459   -29301.412    23375.946 
  988400    316.68161   -29168.808    151.03483   -29319.843    12810.147 
  988600    325.66482   -29150.379    155.31919   -29305.698    38250.027 
  988800    314.16029   -29124.289    149.83234   -29274.121    36752.668 
  989000    279.69127   -29156.127    133.39305    -29289.52    15041.641 
  989200     266.6877   -29164.393    127.19126   -29291.585   -31984.128 
  989400    328.29891   -29134.696    156.57547   -29291.272   -32908.472 
  989600    328.38417   -29153.956    156.61613   -29310.572    6602.5834 
  989800    270.15465   -29156.155    128.84475       -29285   -113.72693 
  990000    317.86819   -29149.634    151.60075   -29301.235   -8839.7682 
  990200    291.80569   -29164.457    139.17077   -29303.628    3745.8192 
  990400     283.6695   -29160.517    135.29038   -29295.808   -15584.683 
  990600     261.1342   -29139.007    124.54263   -29263.549   -30286.082 
  990800    255.58122   -29165.871    121.89425   -29287.765   -4330.2754 
  991000    285.27453    -29161.46    136.05587   -29297.516     3278.865 
  991200    277.94659   -29153.757    132.56096   -29286.318   -42646.817 
  991400    294.98959   -29131.178    140.68927   -29271.867   -15464.169 
  991600      278.896   -29159.521    133.01376   -29292.534    14512.586 
  991800    288.46065   -29167.476    137.57543   -29305.052   -16853.554 
  992000    322.14963   -29140.065     153.6427   -29293.707   -3141.9165 
  992200    277.89564   -29176.701    132.53666   -29309.238    3942.7802 
  992400    305.53846   -29158.523    145.72034   -29304.244   -17176.615 
  992600     314.4795    -29143.59    149.98458   -29293.575    47640.474 
  992800    273.48765   -29173.228    130.43436   -29303.662   -23707.269 
  993000     286.7844   -29163.303    136.77597   -29300.079   -22321.404 
  993200     312.9278   -29145.365    149.24453    -29294.61    39408.036 
  993400    273.54369   -29161.605    130.46109   -29292.066    26824.801 
  993600    323.55801   -29167.684     154.3144   -29321.998   -2316.1735 
  993800    277.93346    -29179.91     132.5547   -29312.464   -646.01479 
  994000    301.99897   -29147.364    144.03225   -29291.396    13277.013 
  994200    299.50235   -29157.311    142.84154   -29300.152    9365.9472 
  994400    281.47706   -29179.996    134.24474    -29314.24   -18130.161 
  994600    313.18095   -29143.239    149.36527   -29292.604    30981.508 
  994800    300.02717   -29159.999    143.09184   -29303.091    17655.198 
  995000      297.249     -29155.7    141.76685   -29297.467     3352.778 
  995200    335.30395       -29137    159.91638   -29296.917   -33493.406 
  995400     298.6113   -29164.808    142.41657   -29307.225   -27090.703 
  995600    303.18191   -29153.707    144.59643   -29298.304    13415.274 
  995800    338.13515   -29130.053    161.26667    -29291.32    13146.444 
  996000    308.32699   -29166.258    147.05027   -29313.309   -9396.7582 
  996200    298.92537   -29161.581    142.56636   -29304.148   -20249.146 
  996400    315.25222   -29131.163    150.35312   -29281.516   -8118.5365 
  996600    312.10234   -29166.411    148.85085   -29315.262    24099.949 
  996800    296.27857   -29168.973    141.30402   -29310.277    11422.789 
  997000    327.91544   -29138.853    156.39258   -29295.245   -19762.855 
  997200    304.18507   -29155.314    145.07487   -29300.389   -36129.372 
  997400     263.2531   -29161.041     125.5532   -29286.595   -13985.978 
  997600    310.03404   -29153.369    147.86441   -29301.234    30311.697 
  997800     301.5307   -29131.292    143.80892   -29275.101   -11877.899 
  998000    302.81979   -29164.686    144.42373    -29309.11   -3981.6603 
  998200    284.98463   -29158.198    135.91761   -29294.116   -33138.758 
  998400    312.89626   -29128.572    149.22949   -29277.802    4683.4704 
  998600    279.45945   -29166.292    133.28248   -29299.575    10581.207 
  998800    307.44149   -29154.278    146.62795   -29300.906   -13869.633 
  999000    303.17051   -29133.141    144.59099   -29277.731   -13988.575 
  999200     317.7843   -29159.748    151.56074   -29311.309   -17506.173 
  999400    281.36365    -29167.49    134.19066   -29301.681   -6455.1566 
  999600    334.40014   -29133.273    159.48533   -29292.759    40116.659 
  999800    289.29932     -29150.8    137.97541   -29288.775    7112.6739 
 1000000    304.54839   -29158.003    145.24814   -29303.251    9200.9265 
Loop time of 6158.34 on 8 procs for 1000000 steps with 161 atoms

Performance: 3.507 ns/day, 6.843 hours/ns, 162.381 timesteps/s
99.2% CPU use with 8 MPI tasks x no OpenMP threads

MPI task timing breakdown:
Section |  min time  |  avg time  |  max time  |%varavg| %total
---------------------------------------------------------------
Pair    | 4914.4     | 5111.4     | 5287.8     | 181.8 | 83.00
Neigh   | 0.83792    | 0.85936    | 0.87482    |   1.4 |  0.01
Comm    | 73.888     | 249.84     | 446.04     | 822.4 |  4.06
Output  | 0.14021    | 0.16076    | 0.29479    |  12.6 |  0.00
Modify  | 790.77     | 791.76     | 792.96     |   2.3 | 12.86
Other   |            | 4.316      |            |       |  0.07

Nlocal:    20.125 ave 50 max 4 min
Histogram: 2 2 1 0 0 1 1 0 0 1
Nghost:    757.875 ave 778 max 731 min
Histogram: 1 0 2 0 0 1 1 0 0 3
Neighs:    2100.88 ave 4892 max 445 min
Histogram: 2 2 1 0 0 0 1 1 0 1

Total # of neighbors = 16807
Ave neighs/atom = 104.391
Neighbor list builds = 867
Dangerous builds = 0

unfix 1
unfix output
undump 1

Please see the log.cite file for references relevant to this simulation

Total wall time: 1:43:17
