
     Program PWSCF v.7.1 starts on 25May2025 at  1:46:30 

     This program is part of the open-source Quantum ESPRESSO suite
     for quantum simulation of materials; please cite
         "P. Giannozzi et al., J. Phys.:Condens. Matter 21 395502 (2009);
         "P. Giannozzi et al., J. Phys.:Condens. Matter 29 465901 (2017);
         "P. Giannozzi et al., J. Chem. Phys. 152 154105 (2020);
          URL http://www.quantum-espresso.org", 
     in publications or presentations arising from this work. More details at
     http://www.quantum-espresso.org/quote

     Parallel version (MPI), running on    16 processors

     MPI processes distributed on     1 nodes
     246952 MiB available memory on the printing compute node when the environment starts

     Reading input from input.pwi
Warning: card &CELL ignored
Warning: card / ignored
Warning: card &FCP ignored
Warning: card / ignored
Warning: card &RISM ignored
Warning: card / ignored

     Current dimensions of program PWSCF are:
     Max number of different atomic species (ntypx) = 10
     Max number of k-points (npk) =  40000
     Max angular momentum in pseudopotentials (lmaxx) =  4
     file C.pbe-n-kjpaw_psl.1.0.0.UPF: wavefunction(s)  2S 2P renormalized
     file O.pbe-n-kjpaw_psl.0.1.UPF: wavefunction(s)  2P renormalized

     IMPORTANT: XC functional enforced from input :
     Exchange-correlation= PBE
                           (   1   4   3   4   0   0   0)
     Any further DFT definition will be discarded
     Please, verify this is what you really want


     gamma-point specific algorithms are used
     Message from routine  set_nelup_neldw :
     BEWARE: non-integer number of up and down electrons!

     R & G space division:  proc/nbgrp/npool/nimage =      16
     Subspace diagonalization in iterative solution of the eigenvalue problem:
     a serial algorithm will be used


     Parallelization info
     --------------------
     sticks:   dense  smooth     PW     G-vecs:    dense   smooth      PW
     Min         858     428    106                75870    26832    3354
     Max         860     430    108                75880    26846    3360
     Sum       13753    6869   1725              1214029   429409   53715

     Using Slab Decomposition



     bravais-lattice index     =            0
     lattice parameter (alat)  =      20.7870  a.u.
     unit-cell volume          =    8983.6663 (a.u.)^3
     number of atoms/cell      =           50
     number of atomic types    =            3
     number of electrons       =       199.00 (up:  99.50, down:  99.50)
     number of Kohn-Sham states=          119
     kinetic-energy cutoff     =      50.0000  Ry
     charge density cutoff     =     400.0000  Ry
     scf convergence threshold =      1.0E-06
     mixing beta               =       0.3000
     number of iterations used =            8  plain     mixing
     energy convergence thresh.=      1.0E-04
     force convergence thresh. =      1.0E-03
     Exchange-correlation= PBE
                           (   1   4   3   4   0   0   0)
     nstep                     =         1000


     celldm(1)=  20.786987  celldm(2)=   0.000000  celldm(3)=   0.000000
     celldm(4)=   0.000000  celldm(5)=   0.000000  celldm(6)=   0.000000

     crystal axes: (cart. coord. in units of alat)
               a(1) = (   1.000000   0.000000   0.000000 )  
               a(2) = (   0.000000   1.000182   0.000000 )  
               a(3) = (   0.000000   0.000000   1.000000 )  

     reciprocal axes: (cart. coord. in units 2 pi/alat)
               b(1) = (  1.000000  0.000000  0.000000 )  
               b(2) = (  0.000000  0.999818  0.000000 )  
               b(3) = (  0.000000  0.000000  1.000000 )  


     PseudoPot. # 1 for C  read from file:
     /home/ana.bisette/espresso/pseudo/C.pbe-n-kjpaw_psl.1.0.0.UPF
     MD5 check sum: 5d2aebdfa2cae82b50a7e79e9516da0f
     Pseudo is Projector augmented-wave + core cor, Zval =  4.0
     Generated using "atomic" code by A. Dal Corso  v.5.1
     Shape of augmentation charge: PSQ
     Using radial grid of 1073 points,  4 beta functions with: 
                l(1) =   0
                l(2) =   0
                l(3) =   1
                l(4) =   1
     Q(r) pseudized with 0 coefficients 


     PseudoPot. # 2 for O  read from file:
     /home/ana.bisette/espresso/pseudo/O.pbe-n-kjpaw_psl.0.1.UPF
     MD5 check sum: 0234752ac141de4415c5fc33072bef88
     Pseudo is Projector augmented-wave + core cor, Zval =  6.0
     Generated using "atomic" code by A. Dal Corso  v.5.0.99 svn rev. 10869
     Shape of augmentation charge: BESSEL
     Using radial grid of 1095 points,  4 beta functions with: 
                l(1) =   0
                l(2) =   0
                l(3) =   1
                l(4) =   1
     Q(r) pseudized with 0 coefficients 


     PseudoPot. # 3 for H  read from file:
     /home/ana.bisette/espresso/pseudo/H.pbe-rrkjus_psl.1.0.0.UPF
     MD5 check sum: f52b6d4d1c606e5624b1dc7b2218f220
     Pseudo is Ultrasoft, Zval =  1.0
     Generated using "atomic" code by A. Dal Corso  v.5.1
     Using radial grid of  929 points,  2 beta functions with: 
                l(1) =   0
                l(2) =   0
     Q(r) pseudized with 0 coefficients 


     atomic species   valence    mass     pseudopotential
        C              4.00    12.01100     C ( 1.00)
        O              6.00    15.99900     O ( 1.00)
        H              1.00     1.00800     H ( 1.00)

     Starting magnetic structure 
     atomic species   magnetization
        C            0.000
        O            0.000
        H            0.000

     No symmetry found



   Cartesian axes

     site n.     atom                  positions (alat units)
         1           C   tau(   1) = (   0.5607273   0.4189091   0.5608182  )
         2           C   tau(   2) = (   0.6985455   0.2805455   0.6985455  )
         3           C   tau(   3) = (   0.6340000   0.3453636   0.6340000  )
         4           C   tau(   4) = (   0.4189091   0.5608182   0.5608182  )
         5           C   tau(   5) = (   0.2805455   0.6985455   0.6985455  )
         6           C   tau(   6) = (   0.3453636   0.6340000   0.6340000  )
         7           C   tau(   7) = (   0.5608182   0.5608182   0.4189091  )
         8           C   tau(   8) = (   0.6985455   0.6985455   0.2805455  )
         9           C   tau(   9) = (   0.6340000   0.6340000   0.3453636  )
        10           C   tau(  10) = (   0.4184545   0.4184545   0.4184545  )
        11           C   tau(  11) = (   0.2804545   0.2804545   0.2804545  )
        12           C   tau(  12) = (   0.3450909   0.3450909   0.3450909  )
        13           C   tau(  13) = (   0.5659091   0.4132727   0.4132727  )
        14           C   tau(  14) = (   0.7058182   0.2739091   0.2739091  )
        15           C   tau(  15) = (   0.6411818   0.3382727   0.3383636  )
        16           C   tau(  16) = (   0.4132727   0.5659091   0.4132727  )
        17           C   tau(  17) = (   0.2739091   0.7059091   0.2739091  )
        18           C   tau(  18) = (   0.3382727   0.6411818   0.3383636  )
        19           C   tau(  19) = (   0.4132727   0.4131818   0.5660000  )
        20           C   tau(  20) = (   0.2739091   0.2739091   0.7058182  )
        21           C   tau(  21) = (   0.3382727   0.3382727   0.6411818  )
        22           C   tau(  22) = (   0.5662727   0.5662727   0.5662727  )
        23           C   tau(  23) = (   0.7058182   0.7059091   0.7059091  )
        24           C   tau(  24) = (   0.6413636   0.6414545   0.6413636  )
        25           C   tau(  25) = (   0.0607273   0.9184545   0.0607273  )
        26           C   tau(  26) = (   0.1989091   0.7808182   0.1989091  )
        27           C   tau(  27) = (   0.1341818   0.8452727   0.1341818  )
        28           C   tau(  28) = (   0.9183636   0.0606364   0.0607273  )
        29           C   tau(  29) = (   0.7808182   0.1988182   0.1989091  )
        30           C   tau(  30) = (   0.8452727   0.1340909   0.1341818  )
        31           C   tau(  31) = (   0.0607273   0.0606364   0.9184545  )
        32           C   tau(  32) = (   0.1988182   0.1988182   0.7808182  )
        33           C   tau(  33) = (   0.1341818   0.1340909   0.8452727  )
        34           C   tau(  34) = (   0.9189091   0.9189091   0.9188182  )
        35           C   tau(  35) = (   0.7809091   0.7809091   0.7809091  )
        36           C   tau(  36) = (   0.8455455   0.8455455   0.8454545  )
        37           C   tau(  37) = (   0.0662727   0.9132727   0.9132727  )
        38           C   tau(  38) = (   0.2053636   0.7735455   0.7734545  )
        39           C   tau(  39) = (   0.1410909   0.8380909   0.8380909  )
        40           C   tau(  40) = (   0.9131818   0.0661818   0.9132727  )
        41           C   tau(  41) = (   0.7734545   0.2053636   0.7734545  )
        42           C   tau(  42) = (   0.8380000   0.1410000   0.8380000  )
        43           C   tau(  43) = (   0.9132727   0.9133636   0.0662727  )
        44           C   tau(  44) = (   0.7734545   0.7735455   0.2053636  )
        45           C   tau(  45) = (   0.8380909   0.8380909   0.1410909  )
        46           C   tau(  46) = (   0.0660000   0.0659091   0.0659091  )
        47           C   tau(  47) = (   0.2054545   0.2053636   0.2054545  )
        48           C   tau(  48) = (   0.1410000   0.1409091   0.1409091  )
        49           O   tau(  49) = (   0.8076364   0.7877273   0.9481818  )
        50           H   tau(  50) = (   0.7189091   0.7877273   0.9481818  )

     number of k points=     1  Gaussian smearing, width (Ry)=  0.0001
                       cart. coord. in units 2pi/alat
        k(    1) = (   0.0000000   0.0000000   0.0000000), wk =   1.0000000

     Dense  grid:   607015 G-vectors     FFT dimensions: ( 135, 135, 135)

     Smooth grid:   214705 G-vectors     FFT dimensions: (  96,  96,  96)

     Estimated max dynamical RAM per process >     175.34 MB

     Estimated total dynamical RAM >       2.74 GB

     Check: negative core charge=   -0.000004
     Generating pointlists ...
     new r_m :   0.0461 (alat units)  0.9573 (a.u.) for type    1
     new r_m :   0.0366 (alat units)  0.7608 (a.u.) for type    2
     new r_m :   0.0366 (alat units)  0.7608 (a.u.) for type    3

     Initial potential from superposition of free atoms

     starting charge     198.9980, renormalised to     199.0000
     Starting wfcs are  197 randomized atomic wfcs
     Checking if some PAW data can be deallocated... 

     total cpu time spent up to now is        3.2 secs

     Self-consistent Calculation

     iteration #  1     ecut=    50.00 Ry     beta= 0.30
     Davidson diagonalization with overlap
     ethr =  1.00E-02,  avg # of iterations =  2.0

     total cpu time spent up to now is        5.7 secs

     total energy              =    -924.61564835 Ry
     estimated scf accuracy    <       5.43803003 Ry

     total magnetization       =     0.00 Bohr mag/cell
     absolute magnetization    =     0.06 Bohr mag/cell

     iteration #  2     ecut=    50.00 Ry     beta= 0.30
     Davidson diagonalization with overlap
     ethr =  2.73E-03,  avg # of iterations =  1.0

     negative rho (up, down):  1.443E-06 1.450E-06

     total cpu time spent up to now is        7.6 secs

     total energy              =    -923.69368205 Ry
     estimated scf accuracy    <       1.80622829 Ry

     total magnetization       =     0.00 Bohr mag/cell
     absolute magnetization    =     0.05 Bohr mag/cell

     iteration #  3     ecut=    50.00 Ry     beta= 0.30
     Davidson diagonalization with overlap
     ethr =  9.08E-04,  avg # of iterations =  2.0

     negative rho (up, down):  7.434E-07 7.468E-07

     total cpu time spent up to now is       10.0 secs

     total energy              =    -924.08335776 Ry
     estimated scf accuracy    <       0.10335626 Ry

     total magnetization       =     0.00 Bohr mag/cell
     absolute magnetization    =     0.03 Bohr mag/cell

     iteration #  4     ecut=    50.00 Ry     beta= 0.30
     Davidson diagonalization with overlap
     ethr =  5.19E-05,  avg # of iterations = 10.0

     negative rho (up, down):  6.813E-07 6.833E-07

     total cpu time spent up to now is       12.5 secs

     total energy              =    -924.07962805 Ry
     estimated scf accuracy    <       0.04124725 Ry

     total magnetization       =    -0.00 Bohr mag/cell
     absolute magnetization    =     0.02 Bohr mag/cell

     iteration #  5     ecut=    50.00 Ry     beta= 0.30
     Davidson diagonalization with overlap
     ethr =  2.07E-05,  avg # of iterations =  2.0

     negative rho (up, down):  9.579E-07 9.588E-07

     total cpu time spent up to now is       14.8 secs

     total energy              =    -924.08303171 Ry
     estimated scf accuracy    <       0.02418664 Ry

     total magnetization       =    -0.00 Bohr mag/cell
     absolute magnetization    =     0.02 Bohr mag/cell

     iteration #  6     ecut=    50.00 Ry     beta= 0.30
     Davidson diagonalization with overlap
     ethr =  1.22E-05,  avg # of iterations =  1.0

     negative rho (up, down):  1.247E-06 1.249E-06

     total cpu time spent up to now is       16.7 secs

     total energy              =    -924.08365987 Ry
     estimated scf accuracy    <       0.00541394 Ry

     total magnetization       =    -0.00 Bohr mag/cell
     absolute magnetization    =     0.01 Bohr mag/cell

     iteration #  7     ecut=    50.00 Ry     beta= 0.30
     Davidson diagonalization with overlap
     ethr =  2.72E-06,  avg # of iterations =  2.0

     negative rho (up, down):  1.294E-06 1.294E-06

     total cpu time spent up to now is       18.9 secs

     total energy              =    -924.08448566 Ry
     estimated scf accuracy    <       0.00077546 Ry

     total magnetization       =    -0.00 Bohr mag/cell
     absolute magnetization    =     0.01 Bohr mag/cell

     iteration #  8     ecut=    50.00 Ry     beta= 0.30
     Davidson diagonalization with overlap
     ethr =  3.90E-07,  avg # of iterations =  2.0

     negative rho (up, down):  1.290E-06 1.291E-06

     total cpu time spent up to now is       20.9 secs

     total energy              =    -924.08451397 Ry
     estimated scf accuracy    <       0.00017031 Ry

     total magnetization       =    -0.00 Bohr mag/cell
     absolute magnetization    =     0.01 Bohr mag/cell

     iteration #  9     ecut=    50.00 Ry     beta= 0.30
     Davidson diagonalization with overlap
     ethr =  8.56E-08,  avg # of iterations =  2.0

     negative rho (up, down):  1.310E-06 1.310E-06

     total cpu time spent up to now is       23.2 secs

     total energy              =    -924.08453164 Ry
     estimated scf accuracy    <       0.00003005 Ry

     total magnetization       =     0.00 Bohr mag/cell
     absolute magnetization    =     0.01 Bohr mag/cell

     iteration # 10     ecut=    50.00 Ry     beta= 0.30
     Davidson diagonalization with overlap
     ethr =  1.51E-08,  avg # of iterations =  3.0

     negative rho (up, down):  1.296E-06 1.296E-06

     total cpu time spent up to now is       25.6 secs

     total energy              =    -924.08453700 Ry
     estimated scf accuracy    <       0.00000461 Ry

     total magnetization       =    -0.00 Bohr mag/cell
     absolute magnetization    =     0.00 Bohr mag/cell

     iteration # 11     ecut=    50.00 Ry     beta= 0.30
     Davidson diagonalization with overlap
     ethr =  2.32E-09,  avg # of iterations =  4.0

     negative rho (up, down):  1.282E-06 1.282E-06

     Magnetic moment per site  (integrated on atomic sphere of radius R)
     atom   1 (R=0.046)  charge=  1.1280  magn= -0.0000
     atom   2 (R=0.046)  charge=  1.1724  magn= -0.0001
     atom   3 (R=0.046)  charge=  1.1945  magn=  0.0001
     atom   4 (R=0.046)  charge=  1.1278  magn=  0.0000
     atom   5 (R=0.046)  charge=  1.1723  magn=  0.0001
     atom   6 (R=0.046)  charge=  1.1947  magn= -0.0001
     atom   7 (R=0.046)  charge=  1.1284  magn= -0.0000
     atom   8 (R=0.046)  charge=  1.1716  magn= -0.0000
     atom   9 (R=0.046)  charge=  1.1961  magn=  0.0000
     atom  10 (R=0.046)  charge=  1.1271  magn= -0.0000
     atom  11 (R=0.046)  charge=  1.1719  magn=  0.0000
     atom  12 (R=0.046)  charge=  1.1947  magn= -0.0000
     atom  13 (R=0.046)  charge=  1.1186  magn=  0.0000
     atom  14 (R=0.046)  charge=  1.1723  magn= -0.0001
     atom  15 (R=0.046)  charge=  1.1836  magn=  0.0001
     atom  16 (R=0.046)  charge=  1.1185  magn= -0.0000
     atom  17 (R=0.046)  charge=  1.1722  magn= -0.0000
     atom  18 (R=0.046)  charge=  1.1833  magn=  0.0000
     atom  19 (R=0.046)  charge=  1.1185  magn=  0.0000
     atom  20 (R=0.046)  charge=  1.1724  magn=  0.0000
     atom  21 (R=0.046)  charge=  1.1843  magn= -0.0000
     atom  22 (R=0.046)  charge=  1.1160  magn=  0.0000
     atom  23 (R=0.046)  charge=  1.1693  magn=  0.0000
     atom  24 (R=0.046)  charge=  1.1847  magn= -0.0000
     atom  25 (R=0.046)  charge=  1.1286  magn=  0.0000
     atom  26 (R=0.046)  charge=  1.1724  magn=  0.0000
     atom  27 (R=0.046)  charge=  1.1963  magn= -0.0000
     atom  28 (R=0.046)  charge=  1.1289  magn=  0.0000
     atom  29 (R=0.046)  charge=  1.1720  magn=  0.0000
     atom  30 (R=0.046)  charge=  1.1967  magn= -0.0000
     atom  31 (R=0.046)  charge=  1.1271  magn= -0.0000
     atom  32 (R=0.046)  charge=  1.1722  magn=  0.0000
     atom  33 (R=0.046)  charge=  1.1969  magn= -0.0000
     atom  34 (R=0.046)  charge=  1.1418  magn= -0.0000
     atom  35 (R=0.046)  charge=  1.1902  magn= -0.0000
     atom  36 (R=0.046)  charge=  1.2407  magn= -0.0000
     atom  37 (R=0.046)  charge=  1.1205  magn=  0.0000
     atom  38 (R=0.046)  charge=  1.1705  magn= -0.0000
     atom  39 (R=0.046)  charge=  1.1856  magn=  0.0000
     atom  40 (R=0.046)  charge=  1.1201  magn= -0.0000
     atom  41 (R=0.046)  charge=  1.1706  magn=  0.0000
     atom  42 (R=0.046)  charge=  1.1856  magn= -0.0000
     atom  43 (R=0.046)  charge=  1.1211  magn= -0.0000
     atom  44 (R=0.046)  charge=  1.1742  magn=  0.0000
     atom  45 (R=0.046)  charge=  1.1869  magn= -0.0000
     atom  46 (R=0.046)  charge=  1.1192  magn= -0.0000
     atom  47 (R=0.046)  charge=  1.1712  magn= -0.0000
     atom  48 (R=0.046)  charge=  1.1856  magn=  0.0000
     atom  49 (R=0.037)  charge=  1.9662  magn=  0.0000
     atom  50 (R=0.037)  charge=  0.3987  magn= -0.0000

     total cpu time spent up to now is       27.9 secs

     End of self-consistent calculation

 ------ SPIN UP ------------


          k = 0.0000 0.0000 0.0000 ( 26858 PWs)   bands (ev):

   -25.4802 -21.4881 -21.4177 -17.5877 -17.5256 -17.4421 -17.3576 -17.3453
   -17.3353 -16.8865 -16.7496 -16.7086 -16.6313 -16.5639 -16.1431 -16.0806
   -15.9717 -15.9071 -15.8377 -15.8065 -15.6563 -15.5724 -14.8568 -14.5841
   -14.5718 -14.4116 -14.0445 -14.0247 -13.5874 -13.1960 -13.0197 -12.8500
   -12.8363 -12.3080 -12.0478 -11.7921 -11.7577 -11.6358 -11.0215 -10.9039
   -10.7950 -10.7123 -10.5411 -10.2439  -9.9687  -9.9312  -9.8727  -9.6287
    -9.4632  -9.4073  -9.4009  -9.3624  -9.3587  -9.1436  -8.3492  -7.4207
    -6.8791  -6.7752  -6.6967  -6.5518  -6.4891  -6.2489  -6.1992  -6.1623
    -5.9145  -5.8547  -5.8306  -5.5337  -5.4666  -5.4332  -5.3688  -5.3270
    -5.2966  -5.2645  -5.1460  -5.1266  -4.9138  -4.7973  -4.6627  -4.6105
    -4.4853  -4.2636  -4.2154  -3.9287  -3.7574  -3.7173  -3.6047  -3.5069
    -3.3911  -3.3622  -3.2642  -3.0464  -2.9728  -2.9518  -2.9101  -2.7917
    -2.1205  -2.0305  -1.9856  -0.6515  -0.1822  -0.1127   0.0046   0.5630
     0.6539   0.8554   1.1498   1.2916   1.3049   1.3957   1.5890   1.6656
     2.1472   2.2714   2.3193   2.3577   2.4256   2.5609   2.6450

 ------ SPIN DOWN ----------


          k = 0.0000 0.0000 0.0000 ( 26858 PWs)   bands (ev):

   -25.4802 -21.4881 -21.4177 -17.5877 -17.5256 -17.4421 -17.3576 -17.3452
   -17.3354 -16.8866 -16.7495 -16.7086 -16.6313 -16.5638 -16.1431 -16.0806
   -15.9717 -15.9071 -15.8377 -15.8065 -15.6563 -15.5724 -14.8567 -14.5841
   -14.5718 -14.4116 -14.0445 -14.0247 -13.5874 -13.1960 -13.0197 -12.8500
   -12.8363 -12.3080 -12.0478 -11.7921 -11.7577 -11.6358 -11.0215 -10.9039
   -10.7950 -10.7123 -10.5411 -10.2439  -9.9687  -9.9312  -9.8727  -9.6287
    -9.4632  -9.4073  -9.4009  -9.3624  -9.3587  -9.1436  -8.3492  -7.4207
    -6.8791  -6.7751  -6.6967  -6.5518  -6.4891  -6.2489  -6.1992  -6.1623
    -5.9145  -5.8547  -5.8306  -5.5337  -5.4666  -5.4331  -5.3688  -5.3269
    -5.2966  -5.2645  -5.1460  -5.1266  -4.9138  -4.7973  -4.6627  -4.6105
    -4.4852  -4.2636  -4.2154  -3.9287  -3.7574  -3.7174  -3.6047  -3.5069
    -3.3911  -3.3622  -3.2643  -3.0464  -2.9728  -2.9519  -2.9101  -2.7918
    -2.1205  -2.0305  -1.9856  -0.6516  -0.1822  -0.1127   0.0047   0.5629
     0.6539   0.8553   1.1498   1.2916   1.3049   1.3957   1.5890   1.6656
     2.1471   2.2714   2.3193   2.3577   2.4256   2.5609   2.6450

     the spin up/dw Fermi energies are    -0.6515   -0.6516 ev

!    total energy              =    -924.08453782 Ry
     estimated scf accuracy    <       0.00000054 Ry
     smearing contrib. (-TS)   =      -0.00005642 Ry
     internal energy E=F+TS    =    -924.08448141 Ry

     The total energy is F=E-TS. E is the sum of the following terms:
     one-electron contribution =   -1302.96942005 Ry
     hartree contribution      =     698.24098914 Ry
     xc contribution           =    -226.67219595 Ry
     ewald contribution        =     212.88297946 Ry
     one-center paw contrib.   =    -305.56683400 Ry

     total magnetization       =     0.00 Bohr mag/cell
     absolute magnetization    =     0.00 Bohr mag/cell

     convergence has been achieved in  11 iterations

     negative rho (up, down):  1.282E-06 1.282E-06

     Forces acting on atoms (cartesian axes, Ry/au):

     atom    1 type  1   force =     0.01844415   -0.02310122    0.01793991
     atom    2 type  1   force =     0.04826823   -0.04805317    0.04753427
     atom    3 type  1   force =     0.03751957   -0.03866235    0.03860620
     atom    4 type  1   force =    -0.02107836    0.01775355    0.01952666
     atom    5 type  1   force =    -0.04905688    0.04931173    0.04848533
     atom    6 type  1   force =    -0.03810232    0.03729757    0.03841348
     atom    7 type  1   force =     0.01862768    0.01678118   -0.04340487
     atom    8 type  1   force =     0.05546512    0.05554660   -0.05354258
     atom    9 type  1   force =     0.02869336    0.02884687   -0.03660834
     atom   10 type  1   force =    -0.01396731   -0.01430002   -0.01682700
     atom   11 type  1   force =    -0.04633571   -0.04651628   -0.04609017
     atom   12 type  1   force =    -0.03977617   -0.03982711   -0.04016887
     atom   13 type  1   force =    -0.05089971    0.05353449    0.05056190
     atom   14 type  1   force =     0.05114565   -0.05130565   -0.05114367
     atom   15 type  1   force =    -0.00582053    0.00531318    0.00530017
     atom   16 type  1   force =     0.05410534   -0.05099076    0.05120501
     atom   17 type  1   force =    -0.04938700    0.04904048   -0.04936364
     atom   18 type  1   force =     0.00430563   -0.00440492    0.00421629
     atom   19 type  1   force =     0.05390115    0.05552530   -0.04970540
     atom   20 type  1   force =    -0.05217446   -0.05218078    0.05184832
     atom   21 type  1   force =     0.00589654    0.00569778   -0.00542299
     atom   22 type  1   force =    -0.03938973   -0.03593524   -0.02103847
     atom   23 type  1   force =     0.12720759    0.12651923    0.10819464
     atom   24 type  1   force =    -0.05566104   -0.05551798   -0.04292016
     atom   25 type  1   force =     0.02277651   -0.01417387    0.01850855
     atom   26 type  1   force =     0.04659345   -0.04668325    0.04644314
     atom   27 type  1   force =     0.03821314   -0.03803749    0.03872091
     atom   28 type  1   force =    -0.01346249    0.02179240    0.01884558
     atom   29 type  1   force =    -0.04771851    0.04756709    0.04722347
     atom   30 type  1   force =    -0.03856101    0.03870352    0.03922072
     atom   31 type  1   force =     0.02041284    0.02048039   -0.01732630
     atom   32 type  1   force =     0.04842683    0.04827246   -0.04852156
     atom   33 type  1   force =     0.03783846    0.03795065   -0.03684595
     atom   34 type  1   force =     0.13097040    0.14700276   -0.04668688
     atom   35 type  1   force =    -0.19476257   -0.17471018   -0.40562388
     atom   36 type  1   force =     0.04273196    0.04419336    0.06926532
     atom   37 type  1   force =    -0.04678505    0.05809654    0.05111732
     atom   38 type  1   force =     0.05283116   -0.05247716   -0.05247705
     atom   39 type  1   force =    -0.00733411    0.00758241    0.00718015
     atom   40 type  1   force =     0.05828725   -0.04688898    0.05131441
     atom   41 type  1   force =    -0.05192852    0.05217834   -0.05200691
     atom   42 type  1   force =     0.00782203   -0.00768900    0.00773661
     atom   43 type  1   force =     0.07562149    0.07888994   -0.05973083
     atom   44 type  1   force =    -0.05422429   -0.05275097    0.07109749
     atom   45 type  1   force =     0.00699507    0.01062762    0.01980814
     atom   46 type  1   force =    -0.05209246   -0.05173876   -0.05070383
     atom   47 type  1   force =     0.05020329    0.05034075    0.05028245
     atom   48 type  1   force =    -0.00422600   -0.00425761   -0.00506982
     atom   49 type  2   force =    -0.16546359   -0.19558427    0.19224651
     atom   50 type  3   force =    -0.00509605   -0.01905916    0.02038621

     Total force =     0.808155     Total SCF correction =     0.001016

     BFGS Geometry Optimization
     Energy error            =      0.0E+00 Ry
     Gradient error          =      4.1E-01 Ry/Bohr

     number of scf cycles    =   1
     number of bfgs steps    =   0

     energy             new  =    -924.0845378241 Ry

     new trust radius        =       0.4826871021 bohr
     new conv_thr            =       0.0000010000 Ry


ATOMIC_POSITIONS (angstrom)
C             6.1777602213        4.5957753599        6.1784933929
C             7.7095424452        3.0605713581        7.7091540511
C             6.9938544999        3.7785407666        6.9944295190
C             4.5968458139        6.1783947744        6.1793330636
C             3.0600402184        7.7100946461        7.7096573342
C             3.7788371200        6.9937370232        6.9943275396
C             6.1788573462        6.1778802191        4.5850311297
C             7.7133508765        7.7133939923        3.0576664873
C             6.9891838718        6.9892651051        3.7796276999
C             4.5956088154        4.5954327558        4.5940955368
C             3.0604801994        3.0603846434        3.0606101337
C             3.7749513565        3.7749244001        3.7747435486
C             6.1980650318        4.5743292298        4.5727562034
C             7.7910651126        2.9858502211        2.9859359345
C             7.0499199105        3.7238116156        3.7248047276
C             4.5746313113        6.1980168508        4.5730965238
C             2.9868655246        7.7909511031        2.9868778872
C             3.7232784397        7.0506690185        3.7242311651
C             4.5745232598        4.5743827219        6.1996970353
C             2.9853904670        2.9853871185        7.7914369474
C             3.7241203126        3.7240151367        7.0501302755
C             6.2081558524        6.2099838895        6.2178669206
C             7.8313153593        7.8319510946        7.8222541392
C             7.0255454470        7.0266211526        7.0322876299
C             0.6800528102       10.0954995134        0.6777943043
C             2.2126561896        8.5642962863        2.2125766535
C             1.4962215214        9.2778714248        1.4964902231
C            10.0948759585        0.6785320428        0.6779726492
C             8.5637484496        2.2121714226        2.2129895836
C             9.2775943910        1.4954810183        1.4967547126
C             0.6788020088        0.6778377545       10.0938313172
C             2.2126263763        2.2125446833        8.5633234966
C             1.4960232504        1.4950826193        9.2785019644
C            10.1773065490       10.1857905131       10.0822943684
C             8.4869360854        8.4975473557        8.3753530858
C             9.3236127814        9.3243861165        9.3366536315
C             0.7042424186       10.0767433646       10.0730501201
C             2.2869570445        8.4812302824        8.4802303392
C             1.5481189550        9.2230124396        9.2227995736
C            10.0758442857        0.7031874184       10.0731544140
C             8.4805206091        2.2866115859        8.4804791267
C             9.2221392399        1.5469311549        9.2220940389
C            10.0860171689       10.0887467597        0.6973918079
C             8.4793057427        8.4810853899        2.2966231720
C             9.2227016337        9.2246238969        1.5624820153
C             0.6984338595        0.6976210263        0.6981686902
C             2.2865664353        2.2856391773        2.2866083284
C             1.5487636955        1.5477469710        1.5473171652
O             8.7964404394        8.5615012592       10.5317324741
H             7.9053032879        8.6549143264       10.4407879183



     Writing config-only to output data dir ./pwscf.save/
     NEW-OLD atomic charge density approx. for the potential

     Check: negative core charge=   -0.000004

     negative rho (up, down):  1.366E-06 1.366E-06
     Generating pointlists ...
     new r_m :   0.0407 (alat units)  0.8463 (a.u.) for type    1
     new r_m :   0.0338 (alat units)  0.7020 (a.u.) for type    2
     new r_m :   0.0338 (alat units)  0.7020 (a.u.) for type    3

     total cpu time spent up to now is       32.5 secs

     Self-consistent Calculation

     iteration #  1     ecut=    50.00 Ry     beta= 0.30
     Davidson diagonalization with overlap
     c_bands:  1 eigenvalues not converged
     c_bands:  1 eigenvalues not converged
     ethr =  1.00E-06,  avg # of iterations = 20.0

     negative rho (up, down):  1.305E-06 1.305E-06

     total cpu time spent up to now is       39.0 secs

     total energy              =    -923.90378373 Ry
     estimated scf accuracy    <       0.82168594 Ry

     total magnetization       =     0.00 Bohr mag/cell
     absolute magnetization    =     0.00 Bohr mag/cell

     iteration #  2     ecut=    50.00 Ry     beta= 0.30
     Davidson diagonalization with overlap
     ethr =  4.13E-04,  avg # of iterations =  3.0

     negative rho (up, down):  1.347E-06 1.347E-06

     total cpu time spent up to now is       41.3 secs

     total energy              =    -924.01084070 Ry
     estimated scf accuracy    <       0.12663579 Ry

     total magnetization       =    -0.00 Bohr mag/cell
     absolute magnetization    =     0.00 Bohr mag/cell

     iteration #  3     ecut=    50.00 Ry     beta= 0.30
     Davidson diagonalization with overlap
     ethr =  6.36E-05,  avg # of iterations =  2.0

     negative rho (up, down):  1.323E-06 1.323E-06

     total cpu time spent up to now is       43.4 secs

     total energy              =    -924.01148153 Ry
     estimated scf accuracy    <       0.03245510 Ry

     total magnetization       =    -0.00 Bohr mag/cell
     absolute magnetization    =     0.00 Bohr mag/cell

     iteration #  4     ecut=    50.00 Ry     beta= 0.30
     Davidson diagonalization with overlap
     ethr =  1.63E-05,  avg # of iterations =  3.0

     negative rho (up, down):  1.404E-06 1.404E-06

     total cpu time spent up to now is       45.5 secs

     total energy              =    -924.00978232 Ry
     estimated scf accuracy    <       0.00871757 Ry

     total magnetization       =    -0.00 Bohr mag/cell
     absolute magnetization    =     0.00 Bohr mag/cell

     iteration #  5     ecut=    50.00 Ry     beta= 0.30
     Davidson diagonalization with overlap
     ethr =  4.38E-06,  avg # of iterations =  5.0

     negative rho (up, down):  1.377E-06 1.377E-06

     total cpu time spent up to now is       47.8 secs

     total energy              =    -924.01033160 Ry
     estimated scf accuracy    <       0.00616716 Ry

     total magnetization       =     0.00 Bohr mag/cell
     absolute magnetization    =     0.00 Bohr mag/cell

     iteration #  6     ecut=    50.00 Ry     beta= 0.30
     Davidson diagonalization with overlap
     ethr =  3.10E-06,  avg # of iterations =  7.0

     negative rho (up, down):  1.350E-06 1.350E-06

     total cpu time spent up to now is       50.1 secs

     total energy              =    -924.01079864 Ry
     estimated scf accuracy    <       0.00133830 Ry

     total magnetization       =     0.00 Bohr mag/cell
     absolute magnetization    =     0.00 Bohr mag/cell

     iteration #  7     ecut=    50.00 Ry     beta= 0.30
     Davidson diagonalization with overlap
     ethr =  6.73E-07,  avg # of iterations =  2.0

     negative rho (up, down):  1.363E-06 1.363E-06

     total cpu time spent up to now is       52.1 secs

     total energy              =    -924.01087132 Ry
     estimated scf accuracy    <       0.00065230 Ry

     total magnetization       =    -0.00 Bohr mag/cell
     absolute magnetization    =     0.00 Bohr mag/cell

     iteration #  8     ecut=    50.00 Ry     beta= 0.30
     Davidson diagonalization with overlap
     ethr =  3.28E-07,  avg # of iterations =  2.0

     negative rho (up, down):  1.374E-06 1.374E-06

     total cpu time spent up to now is       54.1 secs

     total energy              =    -924.01090502 Ry
     estimated scf accuracy    <       0.00005739 Ry

     total magnetization       =    -0.00 Bohr mag/cell
     absolute magnetization    =     0.00 Bohr mag/cell

     iteration #  9     ecut=    50.00 Ry     beta= 0.30
     Davidson diagonalization with overlap
     ethr =  2.88E-08,  avg # of iterations =  4.0

     negative rho (up, down):  1.372E-06 1.372E-06

     total cpu time spent up to now is       56.4 secs

     total energy              =    -924.01091162 Ry
     estimated scf accuracy    <       0.00001181 Ry

     total magnetization       =    -0.00 Bohr mag/cell
     absolute magnetization    =     0.00 Bohr mag/cell

     iteration # 10     ecut=    50.00 Ry     beta= 0.30
     Davidson diagonalization with overlap
     ethr =  5.93E-09,  avg # of iterations =  2.0

     negative rho (up, down):  1.370E-06 1.370E-06

     total cpu time spent up to now is       58.5 secs

     total energy              =    -924.01091286 Ry
     estimated scf accuracy    <       0.00000280 Ry

     total magnetization       =     0.00 Bohr mag/cell
     absolute magnetization    =     0.00 Bohr mag/cell

     iteration # 11     ecut=    50.00 Ry     beta= 0.30
     Davidson diagonalization with overlap
     ethr =  1.41E-09,  avg # of iterations =  4.0

     negative rho (up, down):  1.381E-06 1.381E-06

     Magnetic moment per site  (integrated on atomic sphere of radius R)
     atom   1 (R=0.041)  charge=  0.8117  magn= -0.0000
     atom   2 (R=0.041)  charge=  0.8576  magn= -0.0000
     atom   3 (R=0.041)  charge=  0.8512  magn=  0.0000
     atom   4 (R=0.041)  charge=  0.8122  magn=  0.0000
     atom   5 (R=0.041)  charge=  0.8573  magn=  0.0000
     atom   6 (R=0.041)  charge=  0.8507  magn= -0.0000
     atom   7 (R=0.041)  charge=  0.8119  magn= -0.0000
     atom   8 (R=0.041)  charge=  0.8550  magn= -0.0000
     atom   9 (R=0.041)  charge=  0.8508  magn=  0.0000
     atom  10 (R=0.041)  charge=  0.8089  magn=  0.0000
     atom  11 (R=0.041)  charge=  0.8566  magn=  0.0000
     atom  12 (R=0.041)  charge=  0.8509  magn= -0.0000
     atom  13 (R=0.041)  charge=  0.8002  magn=  0.0000
     atom  14 (R=0.041)  charge=  0.8402  magn= -0.0000
     atom  15 (R=0.041)  charge=  0.8210  magn=  0.0000
     atom  16 (R=0.041)  charge=  0.7997  magn= -0.0000
     atom  17 (R=0.041)  charge=  0.8409  magn= -0.0000
     atom  18 (R=0.041)  charge=  0.8216  magn=  0.0000
     atom  19 (R=0.041)  charge=  0.7998  magn= -0.0000
     atom  20 (R=0.041)  charge=  0.8400  magn=  0.0000
     atom  21 (R=0.041)  charge=  0.8210  magn= -0.0000
     atom  22 (R=0.041)  charge=  0.8051  magn=  0.0000
     atom  23 (R=0.041)  charge=  0.9336  magn=  0.0000
     atom  24 (R=0.041)  charge=  0.8060  magn= -0.0000
     atom  25 (R=0.041)  charge=  0.8140  magn=  0.0000
     atom  26 (R=0.041)  charge=  0.8584  magn=  0.0000
     atom  27 (R=0.041)  charge=  0.8513  magn= -0.0000
     atom  28 (R=0.041)  charge=  0.8143  magn=  0.0000
     atom  29 (R=0.041)  charge=  0.8586  magn=  0.0000
     atom  30 (R=0.041)  charge=  0.8513  magn= -0.0000
     atom  31 (R=0.041)  charge=  0.8136  magn=  0.0000
     atom  32 (R=0.041)  charge=  0.8585  magn=  0.0000
     atom  33 (R=0.041)  charge=  0.8510  magn= -0.0000
     atom  34 (R=0.041)  charge=  0.8339  magn= -0.0000
     atom  35 (R=0.041)  charge=  0.9176  magn= -0.0000
     atom  36 (R=0.041)  charge=  0.7807  magn=  0.0000
     atom  37 (R=0.041)  charge=  0.8113  magn= -0.0000
     atom  38 (R=0.041)  charge=  0.8401  magn= -0.0000
     atom  39 (R=0.041)  charge=  0.8204  magn=  0.0000
     atom  40 (R=0.041)  charge=  0.8122  magn=  0.0000
     atom  41 (R=0.041)  charge=  0.8398  magn=  0.0000
     atom  42 (R=0.041)  charge=  0.8206  magn= -0.0000
     atom  43 (R=0.041)  charge=  0.7999  magn= -0.0000
     atom  44 (R=0.041)  charge=  0.8484  magn=  0.0000
     atom  45 (R=0.041)  charge=  0.8153  magn= -0.0000
     atom  46 (R=0.041)  charge=  0.7982  magn= -0.0000
     atom  47 (R=0.041)  charge=  0.8411  magn= -0.0000
     atom  48 (R=0.041)  charge=  0.8225  magn=  0.0000
     atom  49 (R=0.034)  charge=  1.6206  magn=  0.0000
     atom  50 (R=0.034)  charge=  0.3987  magn=  0.0000

     total cpu time spent up to now is       60.7 secs

     End of self-consistent calculation

 ------ SPIN UP ------------


          k = 0.0000 0.0000 0.0000 ( 26858 PWs)   bands (ev):

   -23.5637 -22.1714 -21.7504 -17.7262 -17.6147 -17.5161 -17.4671 -17.3967
   -17.3551 -17.2171 -16.8633 -16.8431 -16.8122 -16.7116 -16.4346 -16.2159
   -16.1660 -15.7329 -15.6970 -15.6613 -15.4395 -15.2682 -14.6255 -14.5084
   -14.4610 -14.2167 -14.1786 -14.1157 -13.8391 -13.2939 -12.7218 -12.6487
   -12.5094 -12.3931 -12.2351 -12.1725 -12.0950 -11.2638 -11.1274 -11.1007
   -11.0395 -10.7315 -10.4456 -10.2516  -9.9916  -9.9183  -9.8169  -9.7769
    -9.5463  -9.5383  -9.4656  -9.4268  -9.4093  -9.0021  -7.4405  -7.0421
    -6.8952  -6.7891  -6.6877  -6.5968  -6.5541  -6.3508  -6.2170  -6.1759
    -6.0041  -5.9719  -5.8337  -5.7145  -5.6091  -5.5852  -5.5843  -5.5018
    -5.4898  -5.4356  -5.3810  -5.3724  -5.2449  -5.0240  -4.9254  -4.8425
    -4.6329  -4.6267  -4.5103  -4.0627  -3.5585  -3.5228  -3.4780  -3.2652
    -3.1684  -3.1392  -3.0311  -2.8898  -2.8431  -2.8167  -2.5492  -2.4273
    -2.0239  -1.9218  -1.6876  -1.1761  -0.7348  -0.3342  -0.1664   0.1021
     0.4605   0.6419   0.7443   0.9877   0.9964   1.1005   1.2016   1.2588
     1.7794   2.0101   2.1613   2.3292   2.4188   2.5755   2.6960

 ------ SPIN DOWN ----------


          k = 0.0000 0.0000 0.0000 ( 26858 PWs)   bands (ev):

   -23.5637 -22.1714 -21.7504 -17.7262 -17.6147 -17.5161 -17.4671 -17.3967
   -17.3551 -17.2171 -16.8633 -16.8431 -16.8122 -16.7116 -16.4346 -16.2159
   -16.1660 -15.7329 -15.6970 -15.6613 -15.4395 -15.2682 -14.6255 -14.5085
   -14.4610 -14.2167 -14.1786 -14.1157 -13.8391 -13.2939 -12.7218 -12.6487
   -12.5094 -12.3931 -12.2351 -12.1725 -12.0950 -11.2638 -11.1274 -11.1007
   -11.0395 -10.7315 -10.4456 -10.2516  -9.9916  -9.9183  -9.8169  -9.7769
    -9.5463  -9.5383  -9.4656  -9.4268  -9.4093  -9.0021  -7.4405  -7.0421
    -6.8952  -6.7891  -6.6877  -6.5968  -6.5541  -6.3508  -6.2170  -6.1759
    -6.0041  -5.9719  -5.8337  -5.7145  -5.6091  -5.5852  -5.5843  -5.5018
    -5.4898  -5.4356  -5.3810  -5.3724  -5.2449  -5.0240  -4.9254  -4.8425
    -4.6329  -4.6267  -4.5103  -4.0627  -3.5585  -3.5228  -3.4780  -3.2652
    -3.1684  -3.1392  -3.0311  -2.8898  -2.8431  -2.8167  -2.5492  -2.4273
    -2.0239  -1.9218  -1.6876  -1.1761  -0.7348  -0.3342  -0.1664   0.1021
     0.4605   0.6419   0.7443   0.9877   0.9964   1.1005   1.2016   1.2588
     1.7794   2.0101   2.1613   2.3292   2.4188   2.5755   2.6960

     the spin up/dw Fermi energies are    -1.1761   -1.1761 ev

!    total energy              =    -924.01091320 Ry
     estimated scf accuracy    <       0.00000069 Ry
     smearing contrib. (-TS)   =      -0.00005642 Ry
     internal energy E=F+TS    =    -924.01085679 Ry

     The total energy is F=E-TS. E is the sum of the following terms:
     one-electron contribution =   -1290.54513759 Ry
     hartree contribution      =     691.84352369 Ry
     xc contribution           =    -226.48201631 Ry
     ewald contribution        =     206.73125657 Ry
     one-center paw contrib.   =    -305.55848315 Ry

     total magnetization       =     0.00 Bohr mag/cell
     absolute magnetization    =     0.00 Bohr mag/cell

     convergence has been achieved in  11 iterations

     negative rho (up, down):  1.381E-06 1.381E-06

     Forces acting on atoms (cartesian axes, Ry/au):

     atom    1 type  1   force =     0.01813318   -0.03151135    0.01185482
     atom    2 type  1   force =    -0.03555557    0.03704746   -0.03643730
     atom    3 type  1   force =     0.02284670   -0.02615402    0.02348582
     atom    4 type  1   force =    -0.02818395    0.01804667    0.01439011
     atom    5 type  1   force =     0.03949330   -0.03814580   -0.03882185
     atom    6 type  1   force =    -0.02769485    0.02524233    0.02605450
     atom    7 type  1   force =     0.01041309    0.00840077   -0.03749347
     atom    8 type  1   force =    -0.06013809   -0.06020843    0.06382880
     atom    9 type  1   force =     0.04179015    0.04149218   -0.05024321
     atom   10 type  1   force =    -0.01572894   -0.01699461   -0.01966438
     atom   11 type  1   force =     0.03087708    0.03081975    0.03100365
     atom   12 type  1   force =    -0.01945952   -0.01955753   -0.01949570
     atom   13 type  1   force =     0.01457627   -0.01257939   -0.01069833
     atom   14 type  1   force =    -0.10864204    0.10817784    0.10799462
     atom   15 type  1   force =     0.05273730   -0.05372454   -0.05270922
     atom   16 type  1   force =    -0.01175005    0.01517075   -0.01006325
     atom   17 type  1   force =     0.10376044   -0.10432954    0.10354193
     atom   18 type  1   force =    -0.04959429    0.04950188   -0.04870598
     atom   19 type  1   force =    -0.00831913   -0.00761177    0.01464662
     atom   20 type  1   force =     0.11025720    0.11013967   -0.11070769
     atom   21 type  1   force =    -0.05358677   -0.05371780    0.05515693
     atom   22 type  1   force =     0.01732105    0.02413044    0.03699835
     atom   23 type  1   force =    -0.63884575   -0.64461424   -0.57442961
     atom   24 type  1   force =     0.05653554    0.05624955    0.06809774
     atom   25 type  1   force =     0.02735908   -0.01526830    0.02072833
     atom   26 type  1   force =    -0.03325649    0.03325485   -0.03356519
     atom   27 type  1   force =     0.02467801   -0.02382585    0.02565297
     atom   28 type  1   force =    -0.01456825    0.02958884    0.02370184
     atom   29 type  1   force =     0.03482736   -0.03471762   -0.03522280
     atom   30 type  1   force =    -0.02393565    0.02509226    0.02592231
     atom   31 type  1   force =     0.04469867    0.04499579   -0.01260632
     atom   32 type  1   force =    -0.03848615   -0.03867826    0.03791743
     atom   33 type  1   force =     0.02938683    0.02962792   -0.02616647
     atom   34 type  1   force =    -0.02427252   -0.03073740   -0.03722253
     atom   35 type  1   force =     0.69424760    0.71139070    0.52702694
     atom   36 type  1   force =    -0.23540411   -0.26356271   -0.03564719
     atom   37 type  1   force =     0.05696989    0.00706361   -0.01002912
     atom   38 type  1   force =    -0.11301430    0.11430974    0.11465858
     atom   39 type  1   force =     0.05387632   -0.05898658   -0.06157442
     atom   40 type  1   force =     0.00581713    0.06139985   -0.01028943
     atom   41 type  1   force =     0.11354620   -0.11251003    0.11396787
     atom   42 type  1   force =    -0.05906440    0.05506597   -0.06116371
     atom   43 type  1   force =    -0.00042580    0.00107529    0.01963420
     atom   44 type  1   force =     0.11986022    0.12201641   -0.09627799
     atom   45 type  1   force =    -0.04233638   -0.03782150    0.05648670
     atom   46 type  1   force =     0.01764263    0.01870793    0.01735488
     atom   47 type  1   force =    -0.10480362   -0.10477390   -0.10487466
     atom   48 type  1   force =     0.05141979    0.05152108    0.05048269
     atom   49 type  2   force =     0.13543553   -0.03510202   -0.05207254
     atom   50 type  3   force =    -0.18143993   -0.00439634   -0.00440625

     Total force =     1.732915     Total SCF correction =     0.001105
     Energy error            =      7.4E-02 Ry
     Gradient error          =      7.1E-01 Ry/Bohr

     number of scf cycles    =   2
     number of bfgs steps    =   1

     energy             old  =    -924.0845378241 Ry
     energy             new  =    -924.0109132040 Ry

     CASE: energy            _new > energy            _old

     new trust radius        =       0.2168934547 bohr
     new conv_thr            =       0.0000010000 Ry


ATOMIC_POSITIONS (angstrom)
C             6.1723857151        4.6025069085        6.1732658169
C             7.6954773922        3.0745737449        7.6953028689
C             6.9829215375        3.7898067280        6.9831799199
C             4.6029879126        6.1732215031        6.1736431194
C             3.0743350794        7.6957255214        7.6955290171
C             3.7899398932        6.9828687498        6.9831340959
C             6.1734293578        6.1729902898        4.5976790331
C             7.6971886951        7.6972080690        3.0732684532
C             6.9808228100        6.9808593119        3.7902951370
C             4.5996788017        4.5995996901        4.5989988163
C             3.0739821289        3.0739391912        3.0740405144
C             3.7865418790        3.7865297663        3.7864485014
C             6.2128968833        4.5587296224        4.5580227894
C             7.7761615965        3.0008003590        3.0008388740
C             7.0516159745        3.7222633878        3.7232602927
C             4.5588653614        6.2128752334        4.5581757110
C             3.0012565815        7.7766610210        3.0012621365
C             3.7220238075        7.0519525831        3.7230025648
C             4.5588168089        4.5582030047        6.2141808715
C             3.0005937704        3.0005922658        7.7763286789
C             3.7224020996        3.7223548392        7.0517105012
C             6.2196337684        6.2204551893        6.2239973968
C             7.7942478785        7.7950841977        7.7907269109
C             7.0417647183        7.0427987363        7.0447942903
C             0.6734158804       10.0996296873        0.6724010301
C             2.1990791569        8.5778994883        2.1990434177
C             1.4850864571        9.2889553079        1.4852071971
C            10.0987988414        0.6721818758        0.6724811687
C             8.5776533202        2.1983106747        2.1992289661
C             9.2888308239        1.4842030609        1.4853260443
C             0.6728538380        0.6718699002       10.0988800903
C             2.1985151063        2.1984783979        8.5774623693
C             1.4849973648        1.4840240420        9.2892386383
C            10.1391426114       10.1429548456       10.0958986265
C             8.5436886559        8.5484567863        8.4935492961
C             9.3111609599        9.3115084548        9.3164701578
C             0.7178752831       10.0598144038       10.0581548597
C             2.2715623824        8.4965217922        8.4955218177
C             1.5502560685        9.2208029732        9.2207073227
C            10.0588597523        0.7168505690       10.0582017237
C             8.4956522492        2.2714071520        8.4956336093
C             9.2198599503        1.5491716813        9.2198396395
C            10.0639815495       10.0657587339        0.7147969895
C             8.4951063540        8.4964566853        2.2759058168
C             9.2206633138        9.2215270748        1.5567100503
C             0.7136132687        0.7126973713        0.7129434618
C             2.2719375179        2.2709702042        2.2719563424
C             1.5499951258        1.5489876107        1.5487944793
O             8.8446554733        8.6184932685       10.4757130668
H             7.9067882436        8.6604680443       10.4348475065



     Writing config-only to output data dir ./pwscf.save/
     NEW-OLD atomic charge density approx. for the potential

     Check: negative core charge=   -0.000004

     negative rho (up, down):  1.268E-06 1.268E-06
     Generating pointlists ...

     total cpu time spent up to now is       65.5 secs

     Self-consistent Calculation

     iteration #  1     ecut=    50.00 Ry     beta= 0.30
     Davidson diagonalization with overlap
     ethr =  1.00E-06,  avg # of iterations = 18.0

     negative rho (up, down):  1.243E-06 1.243E-06

     total cpu time spent up to now is       71.4 secs

     total energy              =    -924.19795242 Ry
     estimated scf accuracy    <       0.26404886 Ry

     total magnetization       =     0.00 Bohr mag/cell
     absolute magnetization    =     0.00 Bohr mag/cell

     iteration #  2     ecut=    50.00 Ry     beta= 0.30
     Davidson diagonalization with overlap
     ethr =  1.33E-04,  avg # of iterations =  3.0

     negative rho (up, down):  1.218E-06 1.218E-06

     total cpu time spent up to now is       73.6 secs

     total energy              =    -924.23433437 Ry
     estimated scf accuracy    <       0.05374911 Ry

     total magnetization       =     0.00 Bohr mag/cell
     absolute magnetization    =     0.00 Bohr mag/cell

     iteration #  3     ecut=    50.00 Ry     beta= 0.30
     Davidson diagonalization with overlap
     ethr =  2.70E-05,  avg # of iterations =  4.0

     negative rho (up, down):  1.207E-06 1.207E-06

     total cpu time spent up to now is       75.8 secs

     total energy              =    -924.23498770 Ry
     estimated scf accuracy    <       0.01510722 Ry

     total magnetization       =    -0.00 Bohr mag/cell
     absolute magnetization    =     0.00 Bohr mag/cell

     iteration #  4     ecut=    50.00 Ry     beta= 0.30
     Davidson diagonalization with overlap
     ethr =  7.59E-06,  avg # of iterations =  2.0

     negative rho (up, down):  1.211E-06 1.211E-06

     total cpu time spent up to now is       77.9 secs

     total energy              =    -924.23450824 Ry
     estimated scf accuracy    <       0.01268445 Ry

     total magnetization       =    -0.00 Bohr mag/cell
     absolute magnetization    =     0.00 Bohr mag/cell

     iteration #  5     ecut=    50.00 Ry     beta= 0.30
     Davidson diagonalization with overlap
     ethr =  6.37E-06,  avg # of iterations =  2.0

     negative rho (up, down):  1.257E-06 1.257E-06

     total cpu time spent up to now is       80.0 secs

     total energy              =    -924.23568869 Ry
     estimated scf accuracy    <       0.00165919 Ry

     total magnetization       =    -0.00 Bohr mag/cell
     absolute magnetization    =     0.00 Bohr mag/cell

     iteration #  6     ecut=    50.00 Ry     beta= 0.30
     Davidson diagonalization with overlap
     ethr =  8.34E-07,  avg # of iterations =  4.0

     negative rho (up, down):  1.242E-06 1.242E-06

     total cpu time spent up to now is       82.2 secs

     total energy              =    -924.23590074 Ry
     estimated scf accuracy    <       0.00014879 Ry

     total magnetization       =    -0.00 Bohr mag/cell
     absolute magnetization    =     0.00 Bohr mag/cell

     iteration #  7     ecut=    50.00 Ry     beta= 0.30
     Davidson diagonalization with overlap
     ethr =  7.48E-08,  avg # of iterations =  4.0

     negative rho (up, down):  1.240E-06 1.240E-06

     total cpu time spent up to now is       84.4 secs

     total energy              =    -924.23592017 Ry
     estimated scf accuracy    <       0.00005804 Ry

     total magnetization       =     0.00 Bohr mag/cell
     absolute magnetization    =     0.00 Bohr mag/cell

     iteration #  8     ecut=    50.00 Ry     beta= 0.30
     Davidson diagonalization with overlap
     ethr =  2.92E-08,  avg # of iterations =  2.0

     negative rho (up, down):  1.243E-06 1.243E-06

     total cpu time spent up to now is       86.4 secs

     total energy              =    -924.23592487 Ry
     estimated scf accuracy    <       0.00001135 Ry

     total magnetization       =     0.00 Bohr mag/cell
     absolute magnetization    =     0.00 Bohr mag/cell

     iteration #  9     ecut=    50.00 Ry     beta= 0.30
     Davidson diagonalization with overlap
     ethr =  5.71E-09,  avg # of iterations =  2.0

     negative rho (up, down):  1.235E-06 1.235E-06

     total cpu time spent up to now is       88.6 secs

     total energy              =    -924.23592637 Ry
     estimated scf accuracy    <       0.00000197 Ry

     total magnetization       =    -0.00 Bohr mag/cell
     absolute magnetization    =     0.00 Bohr mag/cell

     iteration # 10     ecut=    50.00 Ry     beta= 0.30
     Davidson diagonalization with overlap
     ethr =  9.91E-10,  avg # of iterations =  4.0

     negative rho (up, down):  1.217E-06 1.217E-06

     Magnetic moment per site  (integrated on atomic sphere of radius R)
     atom   1 (R=0.041)  charge=  0.8106  magn= -0.0000
     atom   2 (R=0.041)  charge=  0.8482  magn= -0.0000
     atom   3 (R=0.041)  charge=  0.8543  magn=  0.0000
     atom   4 (R=0.041)  charge=  0.8108  magn=  0.0000
     atom   5 (R=0.041)  charge=  0.8481  magn=  0.0000
     atom   6 (R=0.041)  charge=  0.8540  magn= -0.0000
     atom   7 (R=0.041)  charge=  0.8112  magn= -0.0000
     atom   8 (R=0.041)  charge=  0.8457  magn= -0.0000
     atom   9 (R=0.041)  charge=  0.8540  magn=  0.0000
     atom  10 (R=0.041)  charge=  0.8066  magn=  0.0000
     atom  11 (R=0.041)  charge=  0.8491  magn=  0.0000
     atom  12 (R=0.041)  charge=  0.8515  magn= -0.0000
     atom  13 (R=0.041)  charge=  0.8020  magn= -0.0000
     atom  14 (R=0.041)  charge=  0.8407  magn= -0.0000
     atom  15 (R=0.041)  charge=  0.8359  magn=  0.0000
     atom  16 (R=0.041)  charge=  0.8017  magn= -0.0000
     atom  17 (R=0.041)  charge=  0.8410  magn= -0.0000
     atom  18 (R=0.041)  charge=  0.8362  magn=  0.0000
     atom  19 (R=0.041)  charge=  0.8020  magn= -0.0000
     atom  20 (R=0.041)  charge=  0.8406  magn= -0.0000
     atom  21 (R=0.041)  charge=  0.8361  magn=  0.0000
     atom  22 (R=0.041)  charge=  0.8028  magn=  0.0000
     atom  23 (R=0.041)  charge=  0.8541  magn=  0.0000
     atom  24 (R=0.041)  charge=  0.8236  magn= -0.0000
     atom  25 (R=0.041)  charge=  0.8118  magn=  0.0000
     atom  26 (R=0.041)  charge=  0.8484  magn=  0.0000
     atom  27 (R=0.041)  charge=  0.8553  magn= -0.0000
     atom  28 (R=0.041)  charge=  0.8120  magn=  0.0000
     atom  29 (R=0.041)  charge=  0.8484  magn=  0.0000
     atom  30 (R=0.041)  charge=  0.8553  magn= -0.0000
     atom  31 (R=0.041)  charge=  0.8110  magn=  0.0000
     atom  32 (R=0.041)  charge=  0.8484  magn=  0.0000
     atom  33 (R=0.041)  charge=  0.8552  magn= -0.0000
     atom  34 (R=0.041)  charge=  0.8248  magn= -0.0000
     atom  35 (R=0.041)  charge=  0.8495  magn= -0.0000
     atom  36 (R=0.041)  charge=  0.8281  magn=  0.0000
     atom  37 (R=0.041)  charge=  0.8071  magn= -0.0000
     atom  38 (R=0.041)  charge=  0.8395  magn= -0.0000
     atom  39 (R=0.041)  charge=  0.8362  magn=  0.0000
     atom  40 (R=0.041)  charge=  0.8072  magn=  0.0000
     atom  41 (R=0.041)  charge=  0.8395  magn=  0.0000
     atom  42 (R=0.041)  charge=  0.8362  magn= -0.0000
     atom  43 (R=0.041)  charge=  0.8013  magn=  0.0000
     atom  44 (R=0.041)  charge=  0.8445  magn=  0.0000
     atom  45 (R=0.041)  charge=  0.8342  magn= -0.0000
     atom  46 (R=0.041)  charge=  0.8025  magn= -0.0000
     atom  47 (R=0.041)  charge=  0.8392  magn= -0.0000
     atom  48 (R=0.041)  charge=  0.8377  magn=  0.0000
     atom  49 (R=0.034)  charge=  1.6274  magn=  0.0000
     atom  50 (R=0.034)  charge=  0.3615  magn=  0.0000

     total cpu time spent up to now is       90.8 secs

     End of self-consistent calculation

 ------ SPIN UP ------------


          k = 0.0000 0.0000 0.0000 ( 26858 PWs)   bands (ev):

   -24.4432 -21.7862 -21.5621 -17.6237 -17.5604 -17.4593 -17.4006 -17.3635
   -17.3266 -16.8922 -16.7872 -16.7572 -16.6923 -16.6305 -16.2244 -16.0216
   -15.9957 -15.8811 -15.8460 -15.7809 -15.5448 -15.4656 -14.5847 -14.5491
   -14.5109 -14.4504 -14.1256 -14.0887 -13.6968 -13.1989 -12.9608 -12.7929
   -12.7462 -12.2615 -12.2513 -12.0024 -11.9619 -11.5061 -11.1602 -10.9564
   -10.9280 -10.7130 -10.5923 -10.2732  -9.9630  -9.9172  -9.8580  -9.6907
    -9.4852  -9.4476  -9.4402  -9.4141  -9.4064  -9.1199  -7.8827  -7.1722
    -6.8859  -6.7899  -6.6922  -6.5588  -6.5281  -6.2713  -6.2068  -6.1775
    -5.9322  -5.8913  -5.8314  -5.5775  -5.5266  -5.4980  -5.4273  -5.3932
    -5.3769  -5.3448  -5.2520  -5.1942  -5.0094  -4.8480  -4.8227  -4.7259
    -4.5736  -4.4282  -4.3455  -3.9744  -3.6681  -3.6320  -3.5535  -3.4020
    -3.2931  -3.2617  -3.1564  -2.9680  -2.9107  -2.8963  -2.7478  -2.6108
    -2.0905  -1.9631  -1.9063  -0.9668  -0.3906  -0.2149  -0.0778   0.3375
     0.5658   0.7599   0.9334   1.1485   1.1651   1.2750   1.4312   1.4463
     1.9916   2.2804   2.3622   2.3969   2.4226   2.4503   2.4959

 ------ SPIN DOWN ----------


          k = 0.0000 0.0000 0.0000 ( 26858 PWs)   bands (ev):

   -24.4432 -21.7862 -21.5621 -17.6237 -17.5604 -17.4593 -17.4006 -17.3635
   -17.3266 -16.8922 -16.7872 -16.7572 -16.6923 -16.6305 -16.2244 -16.0216
   -15.9957 -15.8811 -15.8460 -15.7809 -15.5448 -15.4656 -14.5847 -14.5491
   -14.5109 -14.4504 -14.1256 -14.0887 -13.6968 -13.1989 -12.9608 -12.7929
   -12.7462 -12.2615 -12.2513 -12.0024 -11.9619 -11.5061 -11.1602 -10.9564
   -10.9280 -10.7130 -10.5923 -10.2732  -9.9630  -9.9172  -9.8580  -9.6907
    -9.4852  -9.4476  -9.4402  -9.4141  -9.4064  -9.1199  -7.8827  -7.1722
    -6.8859  -6.7899  -6.6922  -6.5588  -6.5281  -6.2713  -6.2068  -6.1775
    -5.9322  -5.8913  -5.8314  -5.5775  -5.5266  -5.4980  -5.4273  -5.3932
    -5.3769  -5.3448  -5.2520  -5.1942  -5.0094  -4.8480  -4.8227  -4.7259
    -4.5736  -4.4282  -4.3455  -3.9744  -3.6681  -3.6320  -3.5535  -3.4020
    -3.2931  -3.2617  -3.1564  -2.9680  -2.9107  -2.8963  -2.7478  -2.6108
    -2.0905  -1.9631  -1.9063  -0.9668  -0.3906  -0.2149  -0.0778   0.3375
     0.5658   0.7599   0.9334   1.1485   1.1651   1.2750   1.4312   1.4463
     1.9916   2.2804   2.3622   2.3969   2.4226   2.4503   2.4959

     the spin up/dw Fermi energies are    -0.9668   -0.9668 ev

!    total energy              =    -924.23592669 Ry
     estimated scf accuracy    <       0.00000032 Ry
     smearing contrib. (-TS)   =      -0.00005642 Ry
     internal energy E=F+TS    =    -924.23587028 Ry

     The total energy is F=E-TS. E is the sum of the following terms:
     one-electron contribution =   -1296.07080815 Ry
     hartree contribution      =     694.65363755 Ry
     xc contribution           =    -226.46940620 Ry
     ewald contribution        =     209.19790158 Ry
     one-center paw contrib.   =    -305.54719506 Ry

     total magnetization       =     0.00 Bohr mag/cell
     absolute magnetization    =     0.00 Bohr mag/cell

     convergence has been achieved in  10 iterations

     negative rho (up, down):  1.217E-06 1.217E-06

     Forces acting on atoms (cartesian axes, Ry/au):

     atom    1 type  1   force =     0.01812116   -0.02623430    0.01483229
     atom    2 type  1   force =     0.01465037   -0.01392190    0.01389709
     atom    3 type  1   force =     0.03191397   -0.03393235    0.03264790
     atom    4 type  1   force =    -0.02310569    0.01781995    0.01669336
     atom    5 type  1   force =    -0.01347674    0.01414099    0.01340864
     atom    6 type  1   force =    -0.03437325    0.03298426    0.03384990
     atom    7 type  1   force =     0.01347240    0.01162081   -0.03664419
     atom    8 type  1   force =     0.00718253    0.00720921   -0.00452209
     atom    9 type  1   force =     0.03815805    0.03815452   -0.04560917
     atom   10 type  1   force =    -0.01498490   -0.01559273   -0.01785250
     atom   11 type  1   force =    -0.01565395   -0.01577847   -0.01547760
     atom   12 type  1   force =    -0.03109365   -0.03118162   -0.03125146
     atom   13 type  1   force =    -0.02117125    0.02328243    0.02269711
     atom   14 type  1   force =    -0.01991652    0.01955405    0.01959142
     atom   15 type  1   force =     0.02367158   -0.02438741   -0.02400312
     atom   16 type  1   force =     0.02399137   -0.02086161    0.02312988
     atom   17 type  1   force =     0.01852718   -0.01904938    0.01846772
     atom   18 type  1   force =    -0.02266045    0.02255081   -0.02238941
     atom   19 type  1   force =     0.02532835    0.02644817   -0.02071841
     atom   20 type  1   force =     0.01997267    0.01992135   -0.02047244
     atom   21 type  1   force =    -0.02406637   -0.02425344    0.02502799
     atom   22 type  1   force =    -0.01648734   -0.01129600    0.00070926
     atom   23 type  1   force =    -0.09315843   -0.09333947   -0.10541613
     atom   24 type  1   force =     0.02453999    0.02480293    0.03521999
     atom   25 type  1   force =     0.02418075   -0.01418724    0.01941976
     atom   26 type  1   force =     0.01451207   -0.01447698    0.01430552
     atom   27 type  1   force =     0.03287338   -0.03249948    0.03345143
     atom   28 type  1   force =    -0.01350778    0.02453954    0.02101375
     atom   29 type  1   force =    -0.01457632    0.01461640    0.01421091
     atom   30 type  1   force =    -0.03281640    0.03336377    0.03390094
     atom   31 type  1   force =     0.03086915    0.03111388   -0.01473929
     atom   32 type  1   force =     0.01358000    0.01340590   -0.01381306
     atom   33 type  1   force =     0.03484313    0.03500366   -0.03276078
     atom   34 type  1   force =     0.05966937    0.06711436   -0.04265014
     atom   35 type  1   force =     0.11842275    0.13419623   -0.03813091
     atom   36 type  1   force =    -0.15155228   -0.16839910   -0.01505347
     atom   37 type  1   force =    -0.00330340    0.03514724    0.02280191
     atom   38 type  1   force =    -0.02114612    0.02198360    0.02214972
     atom   39 type  1   force =     0.02396486   -0.02593059   -0.02724280
     atom   40 type  1   force =     0.03496061   -0.00281515    0.02305762
     atom   41 type  1   force =     0.02208340   -0.02138090    0.02222411
     atom   42 type  1   force =    -0.02585908    0.02420759   -0.02681834
     atom   43 type  1   force =     0.03995642    0.04262306   -0.02388059
     atom   44 type  1   force =     0.02310030    0.02487598   -0.00376176
     atom   45 type  1   force =    -0.01778241   -0.01368099    0.04040228
     atom   46 type  1   force =    -0.02024861   -0.01957278   -0.01999432
     atom   47 type  1   force =    -0.01858058   -0.01849806   -0.01856718
     atom   48 type  1   force =     0.02359757    0.02361204    0.02267967
     atom   49 type  2   force =    -0.02968376   -0.10574297    0.04868278
     atom   50 type  3   force =    -0.07693809   -0.01727983    0.01329619

     Total force =     0.468756     Total SCF correction =     0.000744
     Energy error            =      1.5E-01 Ry
     Gradient error          =      1.7E-01 Ry/Bohr

     number of scf cycles    =   3
     number of bfgs steps    =   1

     energy             old  =    -924.0845378241 Ry
     energy             new  =    -924.2359266948 Ry

     CASE: energy            _new < energy            _old

     new trust radius        =       0.2285628537 bohr
     new conv_thr            =       0.0000010000 Ry


ATOMIC_POSITIONS (angstrom)
C             6.1856820933        4.5839058960        6.1846609747
C             7.7122335947        3.0582572722        7.7115122498
C             7.0072453368        3.7641660889        7.0081033960
C             4.5864733579        6.1862277194        6.1863484613
C             3.0580829165        7.7123892264        7.7116407758
C             3.7641573994        7.0077417387        7.0086845357
C             6.1841997789        6.1824089704        4.5696916263
C             7.7111300115        7.7111787397        3.0611378240
C             7.0069944628        7.0070566660        3.7585966214
C             4.5889149787        4.5884413694        4.5861415280
C             3.0570214718        3.0568774735        3.0572211461
C             3.7622632961        3.7621935866        3.7620123341
C             6.1920772849        4.5811858079        4.5796215029
C             7.7744078883        3.0023257294        3.0024139833
C             7.0635983801        3.7097955823        3.7110016850
C             4.5818145877        6.1922096830        4.5801284542
C             3.0025621759        7.7750055685        3.0025392082
C             3.7103252117        7.0635729462        3.7114370833
C             4.5824652351        4.5827603169        6.1938256037
C             3.0021931300        3.0021622364        7.7743954833
C             3.7102160606        3.7100300339        7.0645111514
C             6.2034651109        6.2077662579        6.2205994470
C             7.7658730672        7.7664857797        7.7521809618
C             7.0452504279        7.0464549507        7.0564532604
C             0.6908280081       10.0892677630        0.6864238464
C             2.2154576533        8.5615241355        2.2152811497
C             1.5100632758        9.2642159412        1.5105936450
C            10.0889390319        0.6896142951        0.6874421174
C             8.5610368657        2.2149219235        2.2155551275
C             9.2638227311        1.5095381257        1.5110499382
C             0.6935221036        0.6926850502       10.0876466191
C             2.2147106624        2.2145503179        8.5611214665
C             1.5109910049        1.5101262464        9.2645699923
C            10.1955725241       10.2063699362       10.0640141356
C             8.5738061671        8.5908679429        8.3995191066
C             9.2354306369        9.2267676092        9.3206562060
C             0.7076323280       10.0896232951       10.0799112757
C             2.2694353242        8.4991736044        8.4982650905
C             1.5621273665        9.2078943121        9.2070038943
C            10.0886002491        0.7068576654       10.0801343882
C             8.4984577914        2.2690332985        8.4985024888
C             9.2070337986        1.5611126877        9.2064700620
C            10.0995934500       10.1034270883        0.6908957702
C             8.4980582741        8.5006513617        2.2866375289
C             9.2121342202        9.2159098039        1.5825171359
C             0.6930867765        0.6926065962        0.6928070017
C             2.2707495130        2.2698523763        2.2707899718
C             1.5622239151        1.5612186750        1.5603660466
O             8.7985205955        8.5250662585       10.5371291124
H             7.8635184745        8.6475240501       10.4458375848



     Writing config-only to output data dir ./pwscf.save/
     NEW-OLD atomic charge density approx. for the potential

     Check: negative core charge=   -0.000004

     negative rho (up, down):  1.191E-06 1.191E-06
     Generating pointlists ...

     total cpu time spent up to now is       95.6 secs

     Self-consistent Calculation

     iteration #  1     ecut=    50.00 Ry     beta= 0.30
     Davidson diagonalization with overlap
     ethr =  1.00E-06,  avg # of iterations = 13.0

     negative rho (up, down):  1.414E-06 1.414E-06

     total cpu time spent up to now is      101.4 secs

     total energy              =    -924.30893574 Ry
     estimated scf accuracy    <       0.13071663 Ry

     total magnetization       =    -0.00 Bohr mag/cell
     absolute magnetization    =     0.00 Bohr mag/cell

     iteration #  2     ecut=    50.00 Ry     beta= 0.30
     Davidson diagonalization with overlap
     ethr =  6.57E-05,  avg # of iterations =  2.0

     negative rho (up, down):  1.575E-06 1.575E-06

     total cpu time spent up to now is      103.5 secs

     total energy              =    -924.32520755 Ry
     estimated scf accuracy    <       0.03021684 Ry

     total magnetization       =     0.00 Bohr mag/cell
     absolute magnetization    =     0.00 Bohr mag/cell

     iteration #  3     ecut=    50.00 Ry     beta= 0.30
     Davidson diagonalization with overlap
     ethr =  1.52E-05,  avg # of iterations =  2.0

     negative rho (up, down):  1.712E-06 1.712E-06

     total cpu time spent up to now is      105.6 secs

     total energy              =    -924.32435426 Ry
     estimated scf accuracy    <       0.00813961 Ry

     total magnetization       =     0.00 Bohr mag/cell
     absolute magnetization    =     0.00 Bohr mag/cell

     iteration #  4     ecut=    50.00 Ry     beta= 0.30
     Davidson diagonalization with overlap
     ethr =  4.09E-06,  avg # of iterations =  5.0

     negative rho (up, down):  1.781E-06 1.781E-06

     total cpu time spent up to now is      107.8 secs

     total energy              =    -924.32421519 Ry
     estimated scf accuracy    <       0.00576182 Ry

     total magnetization       =     0.00 Bohr mag/cell
     absolute magnetization    =     0.00 Bohr mag/cell

     iteration #  5     ecut=    50.00 Ry     beta= 0.30
     Davidson diagonalization with overlap
     ethr =  2.90E-06,  avg # of iterations =  2.0

     negative rho (up, down):  1.848E-06 1.848E-06

     total cpu time spent up to now is      109.9 secs

     total energy              =    -924.32463321 Ry
     estimated scf accuracy    <       0.00080485 Ry

     total magnetization       =    -0.00 Bohr mag/cell
     absolute magnetization    =     0.00 Bohr mag/cell

     iteration #  6     ecut=    50.00 Ry     beta= 0.30
     Davidson diagonalization with overlap
     ethr =  4.04E-07,  avg # of iterations =  2.0

     negative rho (up, down):  1.829E-06 1.829E-06

     total cpu time spent up to now is      112.0 secs

     total energy              =    -924.32471359 Ry
     estimated scf accuracy    <       0.00011702 Ry

     total magnetization       =     0.00 Bohr mag/cell
     absolute magnetization    =     0.00 Bohr mag/cell

     iteration #  7     ecut=    50.00 Ry     beta= 0.30
     Davidson diagonalization with overlap
     ethr =  5.88E-08,  avg # of iterations =  2.0

     negative rho (up, down):  1.784E-06 1.784E-06

     total cpu time spent up to now is      114.2 secs

     total energy              =    -924.32471916 Ry
     estimated scf accuracy    <       0.00003236 Ry

     total magnetization       =    -0.00 Bohr mag/cell
     absolute magnetization    =     0.00 Bohr mag/cell

     iteration #  8     ecut=    50.00 Ry     beta= 0.30
     Davidson diagonalization with overlap
     ethr =  1.63E-08,  avg # of iterations =  5.0

     negative rho (up, down):  1.752E-06 1.752E-06

     total cpu time spent up to now is      116.4 secs

     total energy              =    -924.32472268 Ry
     estimated scf accuracy    <       0.00000477 Ry

     total magnetization       =    -0.00 Bohr mag/cell
     absolute magnetization    =     0.00 Bohr mag/cell

     iteration #  9     ecut=    50.00 Ry     beta= 0.30
     Davidson diagonalization with overlap
     ethr =  2.40E-09,  avg # of iterations =  4.0

     negative rho (up, down):  1.732E-06 1.732E-06

     total cpu time spent up to now is      118.8 secs

     total energy              =    -924.32472351 Ry
     estimated scf accuracy    <       0.00000156 Ry

     total magnetization       =    -0.00 Bohr mag/cell
     absolute magnetization    =     0.00 Bohr mag/cell

     iteration # 10     ecut=    50.00 Ry     beta= 0.30
     Davidson diagonalization with overlap
     ethr =  7.86E-10,  avg # of iterations =  2.0

     negative rho (up, down):  1.713E-06 1.713E-06

     Magnetic moment per site  (integrated on atomic sphere of radius R)
     atom   1 (R=0.041)  charge=  0.8078  magn= -0.0000
     atom   2 (R=0.041)  charge=  0.8603  magn= -0.0000
     atom   3 (R=0.041)  charge=  0.8569  magn=  0.0000
     atom   4 (R=0.041)  charge=  0.8086  magn=  0.0000
     atom   5 (R=0.041)  charge=  0.8604  magn=  0.0000
     atom   6 (R=0.041)  charge=  0.8569  magn= -0.0000
     atom   7 (R=0.041)  charge=  0.8060  magn= -0.0000
     atom   8 (R=0.041)  charge=  0.8629  magn= -0.0000
     atom   9 (R=0.041)  charge=  0.8619  magn=  0.0000
     atom  10 (R=0.041)  charge=  0.8086  magn=  0.0000
     atom  11 (R=0.041)  charge=  0.8584  magn=  0.0000
     atom  12 (R=0.041)  charge=  0.8559  magn= -0.0000
     atom  13 (R=0.041)  charge=  0.7949  magn= -0.0000
     atom  14 (R=0.041)  charge=  0.8588  magn= -0.0000
     atom  15 (R=0.041)  charge=  0.8363  magn=  0.0000
     atom  16 (R=0.041)  charge=  0.7947  magn= -0.0000
     atom  17 (R=0.041)  charge=  0.8584  magn= -0.0000
     atom  18 (R=0.041)  charge=  0.8358  magn=  0.0000
     atom  19 (R=0.041)  charge=  0.7943  magn= -0.0000
     atom  20 (R=0.041)  charge=  0.8588  magn= -0.0000
     atom  21 (R=0.041)  charge=  0.8365  magn=  0.0000
     atom  22 (R=0.041)  charge=  0.7967  magn=  0.0000
     atom  23 (R=0.041)  charge=  0.8651  magn=  0.0000
     atom  24 (R=0.041)  charge=  0.8433  magn= -0.0000
     atom  25 (R=0.041)  charge=  0.8111  magn=  0.0000
     atom  26 (R=0.041)  charge=  0.8617  magn=  0.0000
     atom  27 (R=0.041)  charge=  0.8557  magn= -0.0000
     atom  28 (R=0.041)  charge=  0.8118  magn=  0.0000
     atom  29 (R=0.041)  charge=  0.8616  magn=  0.0000
     atom  30 (R=0.041)  charge=  0.8561  magn= -0.0000
     atom  31 (R=0.041)  charge=  0.8114  magn=  0.0000
     atom  32 (R=0.041)  charge=  0.8619  magn=  0.0000
     atom  33 (R=0.041)  charge=  0.8580  magn= -0.0000
     atom  34 (R=0.041)  charge=  0.8166  magn= -0.0000
     atom  35 (R=0.041)  charge=  0.8531  magn= -0.0000
     atom  36 (R=0.041)  charge=  0.8132  magn=  0.0000
     atom  37 (R=0.041)  charge=  0.8077  magn= -0.0000
     atom  38 (R=0.041)  charge=  0.8583  magn= -0.0000
     atom  39 (R=0.041)  charge=  0.8387  magn=  0.0000
     atom  40 (R=0.041)  charge=  0.8092  magn=  0.0000
     atom  41 (R=0.041)  charge=  0.8583  magn=  0.0000
     atom  42 (R=0.041)  charge=  0.8389  magn= -0.0000
     atom  43 (R=0.041)  charge=  0.7943  magn=  0.0000
     atom  44 (R=0.041)  charge=  0.8616  magn=  0.0000
     atom  45 (R=0.041)  charge=  0.8313  magn= -0.0000
     atom  46 (R=0.041)  charge=  0.7925  magn= -0.0000
     atom  47 (R=0.041)  charge=  0.8572  magn= -0.0000
     atom  48 (R=0.041)  charge=  0.8388  magn=  0.0000
     atom  49 (R=0.034)  charge=  1.6132  magn=  0.0000
     atom  50 (R=0.034)  charge=  0.3566  magn=  0.0000

     total cpu time spent up to now is      120.9 secs

     End of self-consistent calculation

 ------ SPIN UP ------------


          k = 0.0000 0.0000 0.0000 ( 26858 PWs)   bands (ev):

   -23.5317 -22.1257 -21.6337 -17.6009 -17.5342 -17.3921 -17.3136 -17.2939
   -17.1501 -16.9350 -16.8630 -16.8492 -16.7863 -16.7034 -16.2404 -16.1611
   -16.0914 -15.7965 -15.7766 -15.7095 -15.5328 -15.4675 -14.7719 -14.7081
   -14.6175 -13.9864 -13.9623 -13.8657 -13.5470 -13.0180 -12.7328 -12.7100
   -12.6182 -12.2302 -12.1027 -12.0948 -12.0284 -11.1855 -11.1151 -11.0754
   -11.0014 -10.7033 -10.3712 -10.1819  -9.8575  -9.7918  -9.6650  -9.6430
    -9.4525  -9.4419  -9.3644  -9.3226  -9.3158  -8.9000  -7.7607  -6.9413
    -6.8510  -6.7381  -6.5778  -6.4900  -6.4859  -6.3140  -6.1717  -6.1283
    -5.9297  -5.8661  -5.7023  -5.6608  -5.6095  -5.5917  -5.5373  -5.5201
    -5.4853  -5.4663  -5.4151  -5.2869  -5.0252  -4.9782  -4.9312  -4.7463
    -4.6501  -4.5462  -4.4983  -4.0363  -3.6566  -3.6083  -3.5665  -3.3796
    -3.2874  -3.2568  -3.1817  -3.0670  -3.0090  -2.9947  -2.9260  -2.6483
    -2.1952  -2.1388  -2.1340  -1.1655  -0.0851  -0.0596   0.0498   0.6914
     0.8022   0.9448   1.1398   1.2749   1.3125   1.3605   1.4964   1.5506
     2.0593   2.2355   2.3027   2.3685   2.3853   2.5274   2.6214

 ------ SPIN DOWN ----------


          k = 0.0000 0.0000 0.0000 ( 26858 PWs)   bands (ev):

   -23.5317 -22.1257 -21.6337 -17.6009 -17.5342 -17.3921 -17.3136 -17.2939
   -17.1501 -16.9350 -16.8630 -16.8492 -16.7863 -16.7034 -16.2404 -16.1611
   -16.0914 -15.7965 -15.7766 -15.7095 -15.5328 -15.4675 -14.7719 -14.7081
   -14.6175 -13.9864 -13.9623 -13.8657 -13.5470 -13.0180 -12.7328 -12.7100
   -12.6182 -12.2302 -12.1027 -12.0948 -12.0284 -11.1855 -11.1151 -11.0754
   -11.0014 -10.7033 -10.3712 -10.1819  -9.8575  -9.7918  -9.6650  -9.6430
    -9.4525  -9.4419  -9.3644  -9.3226  -9.3158  -8.9000  -7.7607  -6.9413
    -6.8510  -6.7381  -6.5778  -6.4900  -6.4859  -6.3140  -6.1717  -6.1283
    -5.9297  -5.8661  -5.7023  -5.6608  -5.6095  -5.5917  -5.5373  -5.5201
    -5.4853  -5.4663  -5.4151  -5.2869  -5.0252  -4.9782  -4.9312  -4.7463
    -4.6501  -4.5462  -4.4983  -4.0363  -3.6566  -3.6083  -3.5665  -3.3796
    -3.2874  -3.2568  -3.1817  -3.0670  -3.0090  -2.9947  -2.9260  -2.6483
    -2.1952  -2.1388  -2.1340  -1.1655  -0.0851  -0.0596   0.0498   0.6914
     0.8022   0.9448   1.1398   1.2749   1.3125   1.3605   1.4964   1.5506
     2.0593   2.2355   2.3027   2.3685   2.3853   2.5274   2.6214

     the spin up/dw Fermi energies are    -1.1655   -1.1655 ev

!    total energy              =    -924.32472388 Ry
     estimated scf accuracy    <       0.00000023 Ry
     smearing contrib. (-TS)   =      -0.00005642 Ry
     internal energy E=F+TS    =    -924.32466746 Ry

     The total energy is F=E-TS. E is the sum of the following terms:
     one-electron contribution =   -1283.31368998 Ry
     hartree contribution      =     688.55463539 Ry
     xc contribution           =    -226.74283642 Ry
     ewald contribution        =     202.75754369 Ry
     one-center paw contrib.   =    -305.58032015 Ry

     total magnetization       =     0.00 Bohr mag/cell
     absolute magnetization    =     0.00 Bohr mag/cell

     convergence has been achieved in  10 iterations

     negative rho (up, down):  1.713E-06 1.713E-06

     Forces acting on atoms (cartesian axes, Ry/au):

     atom    1 type  1   force =     0.01001121   -0.00470373    0.00842884
     atom    2 type  1   force =     0.01574149   -0.01544348    0.01571500
     atom    3 type  1   force =    -0.01529583    0.01099180   -0.01541697
     atom    4 type  1   force =    -0.00571248    0.01052112    0.00928615
     atom    5 type  1   force =    -0.01617414    0.01644498    0.01645333
     atom    6 type  1   force =     0.01273316   -0.01645156   -0.01633033
     atom    7 type  1   force =     0.00936942    0.00959904   -0.00148546
     atom    8 type  1   force =     0.02801807    0.02807103   -0.02452515
     atom    9 type  1   force =    -0.03168008   -0.03198887    0.02462477
     atom   10 type  1   force =    -0.01151453   -0.01134464   -0.00931424
     atom   11 type  1   force =    -0.01108816   -0.01115761   -0.01100130
[...]
     absolute magnetization    =     0.01 Bohr mag/cell

     iteration #  7     ecut=    50.00 Ry     beta= 0.30
     Davidson diagonalization with overlap
     ethr =  3.10E-07,  avg # of iterations =  2.0

     negative rho (up, down):  1.571E-06 1.571E-06

     total cpu time spent up to now is     2605.6 secs

     total energy              =    -924.53653696 Ry
     estimated scf accuracy    <       0.00010114 Ry

     total magnetization       =     0.00 Bohr mag/cell
     absolute magnetization    =     0.01 Bohr mag/cell

     iteration #  8     ecut=    50.00 Ry     beta= 0.30
     Davidson diagonalization with overlap
     ethr =  5.08E-08,  avg # of iterations =  4.0

     negative rho (up, down):  1.512E-06 1.512E-06

     total cpu time spent up to now is     2607.9 secs

     total energy              =    -924.53656133 Ry
     estimated scf accuracy    <       0.00003601 Ry

     total magnetization       =     0.00 Bohr mag/cell
     absolute magnetization    =     0.01 Bohr mag/cell

     iteration #  9     ecut=    50.00 Ry     beta= 0.30
     Davidson diagonalization with overlap
     ethr =  1.81E-08,  avg # of iterations =  4.0

     negative rho (up, down):  1.460E-06 1.460E-06

     total cpu time spent up to now is     2610.3 secs

     total energy              =    -924.53657281 Ry
     estimated scf accuracy    <       0.00000307 Ry

     total magnetization       =    -0.00 Bohr mag/cell
     absolute magnetization    =     0.01 Bohr mag/cell

     iteration # 10     ecut=    50.00 Ry     beta= 0.30
     Davidson diagonalization with overlap
     ethr =  1.54E-09,  avg # of iterations =  4.0

     negative rho (up, down):  1.429E-06 1.429E-06

     total cpu time spent up to now is     2612.7 secs

     total energy              =    -924.53657479 Ry
     estimated scf accuracy    <       0.00000257 Ry

     total magnetization       =     0.00 Bohr mag/cell
     absolute magnetization    =     0.00 Bohr mag/cell

     iteration # 11     ecut=    50.00 Ry     beta= 0.30
     Davidson diagonalization with overlap
     ethr =  1.29E-09,  avg # of iterations =  2.0

     negative rho (up, down):  1.413E-06 1.413E-06

     total cpu time spent up to now is     2614.8 secs

     total energy              =    -924.53657678 Ry
     estimated scf accuracy    <       0.00000051 Ry

     total magnetization       =     0.00 Bohr mag/cell
     absolute magnetization    =     0.00 Bohr mag/cell

     iteration # 12     ecut=    50.00 Ry     beta= 0.30
     Davidson diagonalization with overlap
     ethr =  2.58E-10,  avg # of iterations =  3.5

     negative rho (up, down):  1.405E-06 1.405E-06

     total cpu time spent up to now is     2617.0 secs

     total energy              =    -924.53657832 Ry
     estimated scf accuracy    <       0.00000011 Ry

     total magnetization       =     0.00 Bohr mag/cell
     absolute magnetization    =     0.00 Bohr mag/cell

     iteration # 13     ecut=    50.00 Ry     beta= 0.30
     Davidson diagonalization with overlap
     ethr =  5.30E-11,  avg # of iterations =  2.0

     negative rho (up, down):  1.399E-06 1.399E-06

     total cpu time spent up to now is     2619.2 secs

     total energy              =    -924.53657888 Ry
     estimated scf accuracy    <       0.00000001 Ry

     total magnetization       =     0.00 Bohr mag/cell
     absolute magnetization    =     0.00 Bohr mag/cell

     iteration # 14     ecut=    50.00 Ry     beta= 0.30
     Davidson diagonalization with overlap
     ethr =  7.49E-12,  avg # of iterations =  3.5

     negative rho (up, down):  1.386E-06 1.386E-06

     Magnetic moment per site  (integrated on atomic sphere of radius R)
     atom   1 (R=0.041)  charge=  0.7977  magn=  0.0000
     atom   2 (R=0.041)  charge=  0.8517  magn= -0.0000
     atom   3 (R=0.041)  charge=  0.8488  magn=  0.0000
     atom   4 (R=0.041)  charge=  0.8002  magn=  0.0000
     atom   5 (R=0.041)  charge=  0.8527  magn= -0.0000
     atom   6 (R=0.041)  charge=  0.8488  magn=  0.0000
     atom   7 (R=0.041)  charge=  0.8012  magn= -0.0000
     atom   8 (R=0.041)  charge=  0.8535  magn= -0.0000
     atom   9 (R=0.041)  charge=  0.8487  magn=  0.0000
     atom  10 (R=0.041)  charge=  0.7998  magn=  0.0000
     atom  11 (R=0.041)  charge=  0.8515  magn= -0.0000
     atom  12 (R=0.041)  charge=  0.8460  magn=  0.0000
     atom  13 (R=0.041)  charge=  0.8008  magn=  0.0000
     atom  14 (R=0.041)  charge=  0.8510  magn=  0.0000
     atom  15 (R=0.041)  charge=  0.8464  magn= -0.0000
     atom  16 (R=0.041)  charge=  0.8012  magn=  0.0000
     atom  17 (R=0.041)  charge=  0.8524  magn=  0.0000
     atom  18 (R=0.041)  charge=  0.8468  magn= -0.0000
     atom  19 (R=0.041)  charge=  0.8007  magn= -0.0000
     atom  20 (R=0.041)  charge=  0.8514  magn= -0.0000
     atom  21 (R=0.041)  charge=  0.8459  magn=  0.0000
     atom  22 (R=0.041)  charge=  0.7929  magn= -0.0000
     atom  23 (R=0.041)  charge=  0.8452  magn= -0.0000
     atom  24 (R=0.041)  charge=  0.8429  magn=  0.0000
     atom  25 (R=0.041)  charge=  0.8016  magn= -0.0000
     atom  26 (R=0.041)  charge=  0.8526  magn= -0.0000
     atom  27 (R=0.041)  charge=  0.8476  magn=  0.0000
     atom  28 (R=0.041)  charge=  0.8002  magn= -0.0000
     atom  29 (R=0.041)  charge=  0.8518  magn=  0.0000
     atom  30 (R=0.041)  charge=  0.8456  magn= -0.0000
     atom  31 (R=0.041)  charge=  0.8001  magn=  0.0000
     atom  32 (R=0.041)  charge=  0.8515  magn=  0.0000
     atom  33 (R=0.041)  charge=  0.8464  magn= -0.0000
     atom  34 (R=0.041)  charge=  0.7955  magn=  0.0000
     atom  35 (R=0.041)  charge=  0.8383  magn=  0.0000
     atom  36 (R=0.041)  charge=  0.8087  magn= -0.0000
     atom  37 (R=0.041)  charge=  0.8036  magn= -0.0000
     atom  38 (R=0.041)  charge=  0.8522  magn=  0.0000
     atom  39 (R=0.041)  charge=  0.8483  magn= -0.0000
     atom  40 (R=0.041)  charge=  0.7969  magn= -0.0000
     atom  41 (R=0.041)  charge=  0.8530  magn=  0.0000
     atom  42 (R=0.041)  charge=  0.8467  magn= -0.0000
     atom  43 (R=0.041)  charge=  0.8035  magn=  0.0000
     atom  44 (R=0.041)  charge=  0.8519  magn=  0.0000
     atom  45 (R=0.041)  charge=  0.8483  magn= -0.0000
     atom  46 (R=0.041)  charge=  0.7991  magn=  0.0000
     atom  47 (R=0.041)  charge=  0.8512  magn=  0.0000
     atom  48 (R=0.041)  charge=  0.8450  magn= -0.0000
     atom  49 (R=0.034)  charge=  1.6101  magn= -0.0000
     atom  50 (R=0.034)  charge=  0.3323  magn=  0.0000

     total cpu time spent up to now is     2621.6 secs

     End of self-consistent calculation

 ------ SPIN UP ------------


          k = 0.0000 0.0000 0.0000 ( 26858 PWs)   bands (ev):

   -23.5215 -21.4409 -21.3519 -17.5035 -17.4655 -17.3849 -17.2654 -17.2365
   -17.1312 -16.8876 -16.8465 -16.8243 -16.7602 -16.6876 -16.0662 -16.0223
   -15.9888 -15.8681 -15.8281 -15.7693 -15.5767 -15.4343 -14.5866 -14.5604
   -14.4716 -14.1749 -14.0517 -14.0348 -13.5673 -13.1319 -12.8010 -12.7342
   -12.6558 -12.2010 -12.0462 -12.0218 -12.0093 -11.4386 -11.0257 -10.9930
   -10.9196 -10.7181 -10.6229 -10.2416  -9.8249  -9.7643  -9.5777  -9.4120
    -9.4006  -9.3731  -9.3437  -9.2794  -9.1839  -8.9305  -7.1985  -6.8858
    -6.7975  -6.7252  -6.6887  -6.5211  -6.3537  -6.3492  -6.2264  -6.1410
    -6.0046  -5.8040  -5.7348  -5.6974  -5.6359  -5.5931  -5.5721  -5.5162
    -5.4848  -5.4794  -5.3713  -5.3546  -5.0444  -4.9548  -4.8267  -4.7335
    -4.6841  -4.4229  -4.3916  -4.2431  -3.7591  -3.6853  -3.6598  -3.4244
    -3.3567  -3.3339  -3.1370  -3.1276  -2.9954  -2.9658  -2.9052  -2.5498
    -2.2961  -2.0387  -1.8129  -1.3190  -0.2377  -0.1995  -0.0453   0.6118
     0.6277   0.7479   1.1542   1.1689   1.1920   1.1992   1.4076   1.4887
     1.9831   2.2416   2.3521   2.3786   2.3911   2.4173   2.4840

 ------ SPIN DOWN ----------


          k = 0.0000 0.0000 0.0000 ( 26858 PWs)   bands (ev):

   -23.5215 -21.4409 -21.3519 -17.5035 -17.4655 -17.3849 -17.2654 -17.2365
   -17.1312 -16.8876 -16.8465 -16.8243 -16.7602 -16.6876 -16.0662 -16.0223
   -15.9888 -15.8681 -15.8281 -15.7692 -15.5767 -15.4343 -14.5866 -14.5604
   -14.4716 -14.1749 -14.0517 -14.0348 -13.5673 -13.1319 -12.8011 -12.7342
   -12.6558 -12.2010 -12.0462 -12.0218 -12.0093 -11.4386 -11.0257 -10.9930
   -10.9196 -10.7181 -10.6229 -10.2416  -9.8249  -9.7643  -9.5777  -9.4120
    -9.4006  -9.3731  -9.3437  -9.2794  -9.1839  -8.9305  -7.1986  -6.8858
    -6.7975  -6.7252  -6.6886  -6.5211  -6.3537  -6.3492  -6.2264  -6.1410
    -6.0046  -5.8040  -5.7348  -5.6974  -5.6359  -5.5931  -5.5721  -5.5162
    -5.4848  -5.4794  -5.3713  -5.3546  -5.0444  -4.9549  -4.8267  -4.7335
    -4.6841  -4.4229  -4.3916  -4.2431  -3.7591  -3.6853  -3.6598  -3.4244
    -3.3567  -3.3339  -3.1369  -3.1276  -2.9954  -2.9658  -2.9052  -2.5498
    -2.2961  -2.0387  -1.8129  -1.3188  -0.2377  -0.1995  -0.0453   0.6118
     0.6277   0.7479   1.1542   1.1689   1.1920   1.1992   1.4076   1.4887
     1.9831   2.2416   2.3521   2.3786   2.3911   2.4173   2.4840

     the spin up/dw Fermi energies are    -1.3190   -1.3188 ev

!    total energy              =    -924.53657896 Ry
     estimated scf accuracy    <          3.2E-09 Ry
     smearing contrib. (-TS)   =      -0.00005642 Ry
     internal energy E=F+TS    =    -924.53652255 Ry

     The total energy is F=E-TS. E is the sum of the following terms:
     one-electron contribution =   -1257.17931914 Ry
     hartree contribution      =     675.31201407 Ry
     xc contribution           =    -226.22916789 Ry
     ewald contribution        =     189.10588381 Ry
     one-center paw contrib.   =    -305.54593340 Ry

     total magnetization       =     0.00 Bohr mag/cell
     absolute magnetization    =     0.00 Bohr mag/cell

     convergence has been achieved in  14 iterations

     negative rho (up, down):  1.386E-06 1.386E-06

     Forces acting on atoms (cartesian axes, Ry/au):

     atom    1 type  1   force =     0.00005453    0.00009629   -0.00018396
     atom    2 type  1   force =    -0.00023721   -0.00004567    0.00046644
     atom    3 type  1   force =    -0.00012524   -0.00035097    0.00005355
     atom    4 type  1   force =     0.00004720    0.00018514    0.00005985
     atom    5 type  1   force =    -0.00031587   -0.00005006    0.00039594
     atom    6 type  1   force =     0.00011822    0.00005502   -0.00002177
     atom    7 type  1   force =    -0.00014255   -0.00009381   -0.00027295
     atom    8 type  1   force =    -0.00025904   -0.00033101   -0.00004370
     atom    9 type  1   force =     0.00025460    0.00029054   -0.00047093
     atom   10 type  1   force =    -0.00003813    0.00020605    0.00008010
     atom   11 type  1   force =     0.00016612    0.00004101    0.00020883
     atom   12 type  1   force =     0.00000264    0.00004605    0.00008240
     atom   13 type  1   force =    -0.00015790    0.00002128   -0.00014768
     atom   14 type  1   force =     0.00018061    0.00009025    0.00039876
     atom   15 type  1   force =     0.00015349    0.00002334   -0.00006989
     atom   16 type  1   force =    -0.00005217    0.00023360   -0.00005795
     atom   17 type  1   force =    -0.00018201    0.00034092   -0.00009801
     atom   18 type  1   force =     0.00017837   -0.00003343    0.00027815
     atom   19 type  1   force =    -0.00001771    0.00021410   -0.00007892
     atom   20 type  1   force =    -0.00003090   -0.00003281   -0.00005130
     atom   21 type  1   force =     0.00014226    0.00044249    0.00025409
     atom   22 type  1   force =    -0.00004410   -0.00023921    0.00013322
     atom   23 type  1   force =     0.00008296   -0.00001325    0.00029085
     atom   24 type  1   force =    -0.00036740    0.00062639   -0.00019547
     atom   25 type  1   force =    -0.00003279   -0.00039468   -0.00006713
     atom   26 type  1   force =     0.00026070   -0.00004104   -0.00004880
     atom   27 type  1   force =     0.00006630    0.00023724    0.00025544
     atom   28 type  1   force =    -0.00025827   -0.00037401   -0.00010583
     atom   29 type  1   force =    -0.00002846    0.00000510   -0.00002142
     atom   30 type  1   force =    -0.00041823   -0.00037674    0.00003419
     atom   31 type  1   force =    -0.00001857   -0.00039015   -0.00003647
     atom   32 type  1   force =     0.00003256   -0.00016190   -0.00028396
     atom   33 type  1   force =    -0.00012479   -0.00012711   -0.00016712
     atom   34 type  1   force =     0.00007426    0.00022601   -0.00011609
     atom   35 type  1   force =     0.00012279    0.00009262   -0.00014253
     atom   36 type  1   force =    -0.00003351    0.00057207    0.00019953
     atom   37 type  1   force =     0.00004833   -0.00028479    0.00005526
     atom   38 type  1   force =     0.00011799    0.00008510   -0.00007821
     atom   39 type  1   force =    -0.00010718   -0.00002226    0.00032955
     atom   40 type  1   force =    -0.00003275   -0.00034089    0.00002536
     atom   41 type  1   force =     0.00016821    0.00014707    0.00015364
     atom   42 type  1   force =    -0.00003457   -0.00007490    0.00019735
     atom   43 type  1   force =     0.00013891   -0.00018095   -0.00021297
     atom   44 type  1   force =     0.00037571    0.00016140   -0.00062178
     atom   45 type  1   force =     0.00010383   -0.00023397    0.00008947
     atom   46 type  1   force =    -0.00005168   -0.00024371   -0.00004778
     atom   47 type  1   force =     0.00018475   -0.00004134   -0.00001877
     atom   48 type  1   force =     0.00005589    0.00027962   -0.00042012
     atom   49 type  2   force =    -0.00026554   -0.00048665    0.00018554
     atom   50 type  3   force =     0.00024534    0.00024661   -0.00014600

     Total force =     0.002642     Total SCF correction =     0.000067
     Energy error            =      1.1E-05 Ry
     Gradient error          =      6.3E-04 Ry/Bohr

     bfgs converged in 106 scf cycles and  98 bfgs steps
     (criteria: energy <  1.0E-04 Ry, force <  1.0E-03 Ry/Bohr)

     End of BFGS Geometry Optimization

     Final energy             =    -924.5365789642 Ry

     File ./pwscf.bfgs deleted, as requested
Begin final coordinates

ATOMIC_POSITIONS (angstrom)
C             6.1326072705        4.5912182912        6.2092034405
C             7.6613466623        3.0218119349        7.7239266921
C             6.9464197556        3.7398724206        7.0152933601
C             4.5236784355        6.2514529608        6.2323718187
C             2.9987412694        7.7981420282        7.7867673800
C             3.6905639024        7.0767534515        7.0637983252
C             6.1486390219        6.2570221787        4.6075187617
C             7.7035139335        7.8087787608        3.0885760788
C             6.9792945041        7.0867079822        3.7784933201
C             4.5171987848        4.6416909746        4.5962578224
C             2.9520821309        3.1324516906        3.0334523098
C             3.6758273774        3.8257862060        3.7546576144
C             6.1409102485        4.6385906898        4.6002370979
C             7.6630481940        3.0938339236        3.0276387415
C             6.9660334977        3.8069382192        3.7554444486
C             4.5288538381        6.2649099799        4.6127580738
C             3.0005803849        7.8403997843        3.0878919310
C             3.7052160536        7.1116725209        3.7910555803
C             4.5229692625        4.6327452522        6.2201567806
C             2.9571752910        3.0844671355        7.7458554584
C             3.6819563993        3.7969175923        7.0450990134
C             6.1473638390        6.3126837862        6.2303860030
C             7.6733456821        7.8964919098        7.7575488565
C             6.9413439246        7.1642567268        7.0250989540
C             0.6648851131       10.1704112554        0.7495378932
C             2.2139409239        8.6460736880        2.3023936646
C             1.5075910287        9.3680811825        1.5941294642
C             9.9922165013        0.7411792087        0.6884758843
C             8.4453354466        2.2970588227        2.2230322925
C             9.1486541566        1.5798046257        1.5052852233
C             0.6109111351        0.7369909675       10.0731371297
C             2.1514882120        2.2889535371        8.5283926531
C             1.4316159429        1.5717732927        9.2295715733
C            10.0496575121       10.0576945057       10.1321972019
C             8.4297892732        8.6872213871        8.5149312058
C             9.3693165319        8.8752560138        9.4527802443
C             0.6648876737       10.1255552419       10.1313022637
C             2.2226858588        8.5981009716        8.5880532880
C             1.5173184368        9.3086296046        9.3078420273
C             9.9793789584        0.6692843691       10.0566005548
C             8.4423535596        2.2139453178        8.5078594308
C             9.1426691322        1.4813742045        9.2132060259
C            10.0464524748       10.1296379764        0.7474936737
C             8.5035991064        8.6088366108        2.3120099653
C             9.2220531718        9.3166810467        1.6024267388
C             0.6113379177        0.7931458820        0.6927696540
C             2.1483264064        2.3539375706        2.2318305830
C             1.4292005532        1.6533275859        1.5129884231
O             9.9684779971        7.7697815933       10.0525078648
H             9.5711473122        6.9626671376        9.6757572140
End final coordinates



     Writing all to output data dir ./pwscf.save/

     init_run     :      2.92s CPU      3.02s WALL (       1 calls)
     electrons    :   2049.07s CPU   2139.42s WALL (     107 calls)
     update_pot   :    193.96s CPU    195.97s WALL (     105 calls)
     forces       :    184.11s CPU    190.99s WALL (     107 calls)

     Called by init_run:
     wfcinit      :      0.68s CPU      0.71s WALL (       1 calls)
     potinit      :      2.38s CPU      2.42s WALL (       2 calls)
     hinit0       :      0.72s CPU      0.73s WALL (       1 calls)

     Called by electrons:
     c_bands      :   1126.62s CPU   1160.52s WALL (     936 calls)
     sum_band     :    286.67s CPU    296.12s WALL (     936 calls)
     v_of_rho     :    235.56s CPU    242.73s WALL (    1022 calls)
     newd         :    110.38s CPU    112.82s WALL (    1022 calls)
     PAW_pot      :    346.11s CPU    348.12s WALL (    1127 calls)
     mix_rho      :     23.35s CPU     24.89s WALL (     936 calls)

     Called by c_bands:
     init_us_2    :     17.52s CPU     17.90s WALL (    4170 calls)
     init_us_2:cp :     17.48s CPU     17.89s WALL (    4170 calls)
     regterg      :   1099.23s CPU   1132.38s WALL (    1872 calls)

     Called by *egterg:
     rdiaghg      :     70.24s CPU     70.68s WALL (    6828 calls)
     h_psi        :    624.34s CPU    653.36s WALL (    7084 calls)
     s_psi        :    102.85s CPU    103.57s WALL (    7084 calls)
     g_psi        :      2.16s CPU      2.18s WALL (    5210 calls)

     Called by h_psi:
     h_psi:calbec :    105.40s CPU    107.16s WALL (    7084 calls)
     vloc_psi     :    408.57s CPU    435.03s WALL (    7084 calls)
     add_vuspsi   :    104.66s CPU    105.41s WALL (    7084 calls)

     General routines
     calbec       :    168.50s CPU    171.25s WALL (   10022 calls)
     fft          :    103.70s CPU    114.66s WALL (   22463 calls)
     ffts         :      4.71s CPU      5.33s WALL (    3916 calls)
     fftw         :    422.86s CPU    450.99s WALL (  664188 calls)
     interpolate  :     13.35s CPU     14.71s WALL (    2044 calls)

     Parallel routines

     PWSCF        :  41m48.71s CPU  43m45.60s WALL


   This run was terminated on:   2:30:16  25May2025            

=------------------------------------------------------------------------------=
   JOB DONE.
=------------------------------------------------------------------------------=
