LAMMPS (3 Mar 2020)
# Alpha
clear
units		real
dimension 3
boundary        p p p
atom_style	charge
newton on
read_data       H_6.lmp
  orthogonal box = (0 0 0) to (16.114 16.113 16.112)
  2 by 2 by 2 MPI processor grid
  reading atoms ...
  201 atoms
  read_data CPU = 0.0610139 secs

timestep 0.25

# ---------- Define Interatomic Potential ---------------------
pair_style      reax/c NULL checkqeq no
pair_coeff      * * ffield.reax C H
fix             2 all qeq/reax 1 0.0 10.0 1.0e-6 reax/c

#------------ Equilibration of the system -------------------------
reset_timestep 0

dump 1 all custom 10 min.lammpstrj id type x y z

minimize 1.0e-8 1.0e-8 100000 100000
WARNING: Using 'neigh_modify every 1 delay 0 check yes' setting during minimization (../min.cpp:190)
WARNING: Total cutoff < 2*bond cutoff. May need to use an increased neighbor list skin. (../pair_reaxc.cpp:413)
Neighbor list info ...
  update every 1 steps, delay 0 steps, check yes
  max neighbors/atom: 2000, page size: 100000
  master list distance cutoff = 9.5
  ghost atom cutoff = 9.5
  binsize = 4.75, bins = 4 4 4
  2 neighbor lists, perpetual/occasional/extra = 2 0 0
  (1) pair reax/c, perpetual
      attributes: half, newton off, ghost
      pair build: half/bin/newtoff/ghost
      stencil: half/ghost/bin/3d/newtoff
      bin: standard
  (2) fix qeq/reax, perpetual, copy from (1)
      attributes: half, newton off, ghost
      pair build: copy
      stencil: none
      bin: none
Per MPI rank memory allocation (min/avg/max) = 25.25 | 25.52 | 25.79 Mbytes
Step Temp E_pair E_mol TotEng Press 
       0            0   -38966.237            0   -38966.237    36037.567 
      96            0   -39040.125            0   -39040.125    18512.884 
Loop time of 3.92309 on 8 procs for 96 steps with 201 atoms

99.2% CPU use with 8 MPI tasks x no OpenMP threads

Minimization stats:
  Stopping criterion = energy tolerance
  Energy initial, next-to-last, final = 
        -38966.2374942       -39040.12473     -39040.1248239
  Force two-norm initial, final = 472.648 23.9965
  Force max component initial, final = 146.57 7.07695
  Final line search alpha, max atom move = 0.00541852 0.0383466
  Iterations, force evaluations = 96 451

MPI task timing breakdown:
Section |  min time  |  avg time  |  max time  |%varavg| %total
---------------------------------------------------------------
Pair    | 3.0431     | 3.1069     | 3.1957     |   2.6 | 79.19
Neigh   | 0          | 0          | 0          |   0.0 |  0.00
Comm    | 0.023161   | 0.11205    | 0.17563    |  13.5 |  2.86
Output  | 0.00040177 | 0.00047803 | 0.00069599 |   0.0 |  0.01
Modify  | 0.69744    | 0.69761    | 0.69775    |   0.0 | 17.78
Other   |            | 0.006062   |            |       |  0.15

Nlocal:    25.125 ave 28 max 22 min
Histogram: 1 0 0 3 0 0 2 0 1 1
Nghost:    966.375 ave 979 max 954 min
Histogram: 1 0 2 0 1 1 0 2 0 1
Neighs:    4308.75 ave 4697 max 3878 min
Histogram: 1 0 0 3 0 0 2 0 1 1

Total # of neighbors = 34470
Ave neighs/atom = 171.493
Neighbor list builds = 0
Dangerous builds = 0

###
min_style cg
minimize 1.0e-8 1.0e-8 100000 100000
WARNING: Using 'neigh_modify every 1 delay 0 check yes' setting during minimization (../min.cpp:190)
WARNING: Total cutoff < 2*bond cutoff. May need to use an increased neighbor list skin. (../pair_reaxc.cpp:413)
Per MPI rank memory allocation (min/avg/max) = 25.25 | 25.52 | 25.79 Mbytes
Step Temp E_pair E_mol TotEng Press 
      96            0   -39040.125            0   -39040.125    18512.884 
     103            0   -39040.167            0   -39040.167     18335.44 
Loop time of 0.351898 on 8 procs for 7 steps with 201 atoms

99.1% CPU use with 8 MPI tasks x no OpenMP threads

Minimization stats:
  Stopping criterion = energy tolerance
  Energy initial, next-to-last, final = 
        -39040.1248239      -39040.166482     -39040.1665953
  Force two-norm initial, final = 23.9965 37.6417
  Force max component initial, final = 7.07695 12.5808
  Final line search alpha, max atom move = 0.00126534 0.015919
  Iterations, force evaluations = 7 40

MPI task timing breakdown:
Section |  min time  |  avg time  |  max time  |%varavg| %total
---------------------------------------------------------------
Pair    | 0.27449    | 0.28052    | 0.28857    |   0.8 | 79.72
Neigh   | 0          | 0          | 0          |   0.0 |  0.00
Comm    | 0.0017411  | 0.0097951  | 0.015811   |   4.2 |  2.78
Output  | 4.2409e-05 | 5.092e-05  | 7.5932e-05 |   0.0 |  0.01
Modify  | 0.060916   | 0.060929   | 0.060937   |   0.0 | 17.31
Other   |            | 0.0006074  |            |       |  0.17

Nlocal:    25.125 ave 28 max 22 min
Histogram: 1 0 0 3 0 0 2 0 1 1
Nghost:    963.375 ave 972 max 954 min
Histogram: 1 1 0 1 0 2 1 0 0 2
Neighs:    4302.75 ave 4691 max 3871 min
Histogram: 1 0 0 3 0 0 2 0 1 1

Total # of neighbors = 34422
Ave neighs/atom = 171.254
Neighbor list builds = 0
Dangerous builds = 0

###
fix 1 all box/relax aniso 0.0
min_style cg
minimize 1.0e-8 1.0e-8 100000 100000
WARNING: Using 'neigh_modify every 1 delay 0 check yes' setting during minimization (../min.cpp:190)
WARNING: Total cutoff < 2*bond cutoff. May need to use an increased neighbor list skin. (../pair_reaxc.cpp:413)
Per MPI rank memory allocation (min/avg/max) = 25.25 | 25.52 | 25.79 Mbytes
Step Temp E_pair E_mol TotEng Press Volume 
     103            0   -39040.167            0   -39040.167     18335.44    4183.3983 
     189            0   -39042.003            0   -39042.003    733.13811    4191.2934 
Loop time of 1.15995 on 8 procs for 86 steps with 201 atoms

99.4% CPU use with 8 MPI tasks x no OpenMP threads

Minimization stats:
  Stopping criterion = energy tolerance
  Energy initial, next-to-last, final = 
        -39040.1665953     -39042.0025675     -39042.0029291
  Force two-norm initial, final = 1938.25 82.9557
  Force max component initial, final = 1146.95 45.9527
  Final line search alpha, max atom move = 5.97299e-06 0.000274475
  Iterations, force evaluations = 86 147

MPI task timing breakdown:
Section |  min time  |  avg time  |  max time  |%varavg| %total
---------------------------------------------------------------
Pair    | 0.99248    | 1.0099     | 1.0208     |   0.8 | 87.07
Neigh   | 0          | 0          | 0          |   0.0 |  0.00
Comm    | 0.012032   | 0.022907   | 0.040312   |   5.6 |  1.97
Output  | 0.00031939 | 0.00041505 | 0.00061524 |   0.0 |  0.04
Modify  | 0.12175    | 0.1218     | 0.12184    |   0.0 | 10.50
Other   |            | 0.004898   |            |       |  0.42

Nlocal:    25.125 ave 28 max 22 min
Histogram: 1 0 0 3 0 0 2 0 1 1
Nghost:    963.375 ave 972 max 954 min
Histogram: 1 1 0 1 0 2 1 0 0 2
Neighs:    4303 ave 4692 max 3871 min
Histogram: 1 0 0 3 0 0 2 0 1 1

Total # of neighbors = 34424
Ave neighs/atom = 171.264
Neighbor list builds = 0
Dangerous builds = 0

unfix 1
###
min_style cg
minimize 1.0e-8 1.0e-8 100000 100000
WARNING: Using 'neigh_modify every 1 delay 0 check yes' setting during minimization (../min.cpp:190)
WARNING: Total cutoff < 2*bond cutoff. May need to use an increased neighbor list skin. (../pair_reaxc.cpp:413)
Per MPI rank memory allocation (min/avg/max) = 25.25 | 25.52 | 25.79 Mbytes
Step Temp E_pair E_mol TotEng Press 
     189            0   -39042.003            0   -39042.003    733.13811 
     212            0   -39042.221            0   -39042.221     6357.437 
Loop time of 1.3834 on 8 procs for 23 steps with 201 atoms

99.3% CPU use with 8 MPI tasks x no OpenMP threads

Minimization stats:
  Stopping criterion = energy tolerance
  Energy initial, next-to-last, final = 
        -39042.0029291     -39042.2207451     -39042.2208732
  Force two-norm initial, final = 29.3394 31.0743
  Force max component initial, final = 3.80351 12.6848
  Final line search alpha, max atom move = 0.00204082 0.0258874
  Iterations, force evaluations = 23 163

MPI task timing breakdown:
Section |  min time  |  avg time  |  max time  |%varavg| %total
---------------------------------------------------------------
Pair    | 1.1038     | 1.121      | 1.1343     |   1.0 | 81.03
Neigh   | 0          | 0          | 0          |   0.0 |  0.00
Comm    | 0.01055    | 0.023852   | 0.041016   |   7.1 |  1.72
Output  | 0.00012978 | 0.00015415 | 0.00022568 |   0.0 |  0.01
Modify  | 0.23581    | 0.23583    | 0.23587    |   0.0 | 17.05
Other   |            | 0.002554   |            |       |  0.18

Nlocal:    25.125 ave 28 max 22 min
Histogram: 1 0 0 3 0 0 2 0 1 1
Nghost:    963.375 ave 972 max 954 min
Histogram: 1 1 0 1 0 2 1 0 0 2
Neighs:    4300.25 ave 4690 max 3869 min
Histogram: 1 0 0 3 0 0 2 0 1 1

Total # of neighbors = 34402
Ave neighs/atom = 171.154
Neighbor list builds = 0
Dangerous builds = 0

###
fix 1 all box/relax aniso 0.0
min_style cg
minimize 1.0e-8 1.0e-8 100000 100000
WARNING: Using 'neigh_modify every 1 delay 0 check yes' setting during minimization (../min.cpp:190)
WARNING: Total cutoff < 2*bond cutoff. May need to use an increased neighbor list skin. (../pair_reaxc.cpp:413)
Per MPI rank memory allocation (min/avg/max) = 25.25 | 25.52 | 25.79 Mbytes
Step Temp E_pair E_mol TotEng Press Volume 
     212            0   -39042.221            0   -39042.221     6357.437    4191.2934 
     265            0   -39043.176            0   -39043.176    -340.7436    4196.6459 
Loop time of 0.744533 on 8 procs for 53 steps with 201 atoms

99.1% CPU use with 8 MPI tasks x no OpenMP threads

Minimization stats:
  Stopping criterion = energy tolerance
  Energy initial, next-to-last, final = 
        -39042.2208732     -39043.1755548     -39043.1757399
  Force two-norm initial, final = 673.828 49.2054
  Force max component initial, final = 391.443 24.3999
  Final line search alpha, max atom move = 3.47319e-06 8.47456e-05
  Iterations, force evaluations = 53 94

MPI task timing breakdown:
Section |  min time  |  avg time  |  max time  |%varavg| %total
---------------------------------------------------------------
Pair    | 0.6363     | 0.64776    | 0.65804    |   0.8 | 87.00
Neigh   | 0          | 0          | 0          |   0.0 |  0.00
Comm    | 0.0052558  | 0.015514   | 0.026928   |   4.8 |  2.08
Output  | 0.00019616 | 0.00023138 | 0.00033439 |   0.0 |  0.03
Modify  | 0.077761   | 0.077808   | 0.077843   |   0.0 | 10.45
Other   |            | 0.003221   |            |       |  0.43

Nlocal:    25.125 ave 28 max 22 min
Histogram: 1 0 0 3 0 0 2 0 1 1
Nghost:    963.375 ave 972 max 954 min
Histogram: 1 1 0 1 0 2 1 0 0 2
Neighs:    4301.75 ave 4691 max 3870 min
Histogram: 1 0 0 3 0 0 2 0 1 1

Total # of neighbors = 34414
Ave neighs/atom = 171.214
Neighbor list builds = 0
Dangerous builds = 0

unfix 1
###
min_style cg
minimize 1.0e-8 1.0e-8 100000 100000
WARNING: Using 'neigh_modify every 1 delay 0 check yes' setting during minimization (../min.cpp:190)
WARNING: Total cutoff < 2*bond cutoff. May need to use an increased neighbor list skin. (../pair_reaxc.cpp:413)
Per MPI rank memory allocation (min/avg/max) = 25.25 | 25.52 | 25.79 Mbytes
Step Temp E_pair E_mol TotEng Press 
     265            0   -39043.176            0   -39043.176    -340.7436 
     286            0   -39043.349            0   -39043.349    13375.049 
Loop time of 1.27803 on 8 procs for 21 steps with 201 atoms

99.1% CPU use with 8 MPI tasks x no OpenMP threads

Minimization stats:
  Stopping criterion = energy tolerance
  Energy initial, next-to-last, final = 
        -39043.1757399     -39043.3483493     -39043.3486757
  Force two-norm initial, final = 32.8181 12.1112
  Force max component initial, final = 5.16306 3.49412
  Final line search alpha, max atom move = 0.0119382 0.0417135
  Iterations, force evaluations = 21 150

MPI task timing breakdown:
Section |  min time  |  avg time  |  max time  |%varavg| %total
---------------------------------------------------------------
Pair    | 1.0135     | 1.0314     | 1.051      |   1.2 | 80.70
Neigh   | 0          | 0          | 0          |   0.0 |  0.00
Comm    | 0.010091   | 0.029769   | 0.047594   |   7.0 |  2.33
Output  | 8.9707e-05 | 0.00010539 | 0.00015202 |   0.0 |  0.01
Modify  | 0.2147     | 0.21473    | 0.21476    |   0.0 | 16.80
Other   |            | 0.002027   |            |       |  0.16

Nlocal:    25.125 ave 28 max 22 min
Histogram: 1 0 0 3 0 0 2 0 1 1
Nghost:    963.375 ave 972 max 954 min
Histogram: 1 1 0 1 0 2 1 0 0 2
Neighs:    4298.25 ave 4686 max 3866 min
Histogram: 1 0 0 3 0 0 2 0 1 1

Total # of neighbors = 34386
Ave neighs/atom = 171.075
Neighbor list builds = 0
Dangerous builds = 0

undump 1
#############
#----------- Thermo ------------
reset_timestep 0
thermo  200

thermo_style    custom step temp etotal ke pe press
velocity all create 300 12345 mom yes rot yes
fix 1 all npt temp 300 300 25.0 iso 0.0 0.0 250.0

variable vpe equal pe
variable vtemp equal temp
variable vstep equal step

fix output all print 2500 "${vstep} ${vtemp} ${vpe}" file temp-tpdh-Pt.dat screen no

dump 1 all custom 2500 thermo-tpdh-Pt.lammpstrj id type x y z

run 1000000
WARNING: Total cutoff < 2*bond cutoff. May need to use an increased neighbor list skin. (../pair_reaxc.cpp:413)
Per MPI rank memory allocation (min/avg/max) = 24.12 | 24.39 | 24.67 Mbytes
Step Temp TotEng KinEng PotEng Press 
       0          300     -38864.5     178.8486   -39043.349    15323.171 
     200    195.87637   -38806.278    116.77405   -38923.052    -10673.51 
     400    263.46877   -38712.849    157.07007   -38869.919   -2894.7978 
     600    338.12659   -38640.415    201.57823   -38841.993   -1854.3581 
     800    318.58225   -38668.063    189.92663   -38857.989    13405.472 
    1000    254.31941   -38697.181    151.61557   -38848.796    25922.378 
    1200    314.51248   -38657.454    187.50039   -38844.954    2148.7752 
    1400    313.70931   -38657.197    187.02157   -38844.218    35827.329 
    1600    335.86835   -38686.454    200.23195   -38886.685     8171.724 
    1800    311.68384   -38670.022    185.81406   -38855.836    6890.5546 
    2000    308.45282   -38653.811    183.88785   -38837.699   -23266.285 
    2200    318.59459   -38667.391    189.93399   -38857.325    11601.469 
    2400    270.63324   -38681.246    161.34126   -38842.588   -786.42994 
    2600    276.78903   -38685.078    165.01111   -38850.089    64362.165 
    2800     338.0919   -38651.397    201.55755   -38852.955    36489.113 
    3000    282.93647   -38677.093    168.67598   -38845.769     16052.93 
    3200    268.50615   -38678.203    160.07317   -38838.276    28057.162 
    3400    327.77774   -38654.909    195.40864   -38850.318    15414.447 
    3600    298.20618     -38688.4    177.77919    -38866.18   -21998.449 
    3800    302.22569   -38679.093    180.17547   -38859.268    6814.6551 
    4000    292.64943   -38665.456    174.46647   -38839.923    22700.649 
    4200    292.98397   -38667.739    174.66591   -38842.405    24432.243 
    4400    286.86723   -38690.256    171.01934   -38861.275    49085.191 
    4600    281.23025   -38686.251    167.65879    -38853.91   -13462.127 
    4800     303.3808   -38658.607    180.86411   -38839.471   -26918.706 
    5000    294.30192   -38680.004    175.45162   -38855.456   -19421.716 
    5200    265.29602   -38689.887    158.15941   -38848.046    13259.711 
    5400      300.134   -38666.486    178.92849   -38845.415    -20608.16 
    5600    304.65633   -38656.439    181.62453   -38838.063    9021.0796 
    5800    305.20285   -38682.625    181.95034   -38864.575   -9903.0448 
    6000    313.71661   -38671.933    187.02593   -38858.959    24946.711 
    6200    294.30974   -38661.079    175.45629   -38836.535    1400.0806 
    6400    287.58606   -38671.635    171.44789   -38843.083    8452.2006 
    6600    305.62415   -38675.276    182.20151   -38857.477   -23355.091 
    6800    305.56336   -38661.578    182.16527   -38843.744     2217.448 
    7000    311.10119   -38665.383    185.46671    -38850.85    16379.163 
    7200    294.85618   -38684.295    175.78205   -38860.077    25528.123 
    7400    316.21985   -38638.291    188.51826   -38826.809    668.25362 
    7600    308.39734   -38668.215    183.85478   -38852.069   -13981.294 
    7800    300.35477   -38684.015    179.06011   -38863.075   -23990.105 
    8000    326.32142   -38642.455    194.54044   -38836.996   -3118.7833 
    8200    298.46422   -38675.472    177.93303   -38853.405   -5789.0619 
    8400    292.59954   -38671.381    174.43673   -38845.818    215.34039 
    8600    345.11359   -38634.151    205.74361   -38839.894   -34701.575 
    8800    305.44898   -38665.132    182.09708   -38847.229   -20409.612 
    9000    307.27911   -38672.928    183.18813   -38856.116   -8479.0129 
    9200    304.08875   -38653.074    181.28616    -38834.36     8699.247 
    9400    314.50399   -38650.969    187.49533   -38838.464    16840.009 
    9600    305.00848    -38679.79    181.83447   -38861.625   -12759.471 
    9800    310.39363   -38651.213    185.04489   -38836.257    1450.7496 
   10000    294.33628   -38655.583    175.47211   -38831.055    9721.4711 
   10200    294.15431   -38666.917    175.36362   -38842.281    947.20317 
   10400    283.53772   -38681.385    169.03442   -38850.419    29769.861 
   10600    288.67251   -38673.583    172.09559   -38845.678    30800.362 
   10800    314.47997   -38654.119    187.48101     -38841.6    35898.556 
   11000    302.81808   -38680.466    180.52864   -38860.995    19676.902 
   11200    332.84382   -38645.053    198.42884   -38843.482    903.56424 
   11400    296.57202   -38657.663    176.80497   -38834.468   -22612.793 
   11600    301.44327   -38682.595    179.70903   -38862.305   -30759.272 
   11800    310.10402   -38652.675    184.87224   -38837.547   -2191.7033 
   12000    308.11204   -38661.379    183.68469   -38845.064    22692.527 
   12200    308.01819   -38672.919    183.62874   -38856.548   -24203.389 
   12400     292.4924   -38667.369    174.37286   -38841.742    19416.995 
   12600    301.59947   -38680.272    179.80215   -38860.074   -8868.4562 
   12800    285.30149   -38675.869    170.08591   -38845.955    87.027581 
   13000    316.97153   -38649.995    188.96639   -38838.962    15317.178 
   13200    313.86422   -38669.286    187.11393     -38856.4   -33569.962 
   13400    320.83008   -38671.564     191.2667   -38862.831    8800.0799 
   13600    338.74697   -38651.564    201.94808   -38853.512    4478.8304 
   13800    326.96088   -38638.504    194.92165   -38833.426    14817.702 
   14000     267.9611   -38672.095    159.74823   -38831.843     3723.436 
   14200    279.88769   -38677.371    166.85841   -38844.229    -13121.77 
   14400    283.19478   -38687.531    168.82997   -38856.361   -9263.1934 
   14600    315.41656   -38653.417    188.03937   -38841.456    4372.5724 
   14800    291.98655   -38678.324    174.07129   -38852.395   -3948.8418 
   15000    282.30275    -38682.11    168.29817   -38850.408    10119.275 
   15200    320.29204    -38661.75    190.94594   -38852.696    33473.404 
   15400    282.18254   -38673.584    168.22651   -38841.811    31543.073 
   15600    296.41862   -38693.884    176.71352   -38870.598    24117.666 
   15800     296.4107   -38665.781     176.7088    -38842.49     13087.29 
   16000    317.13483   -38672.487    189.06374   -38861.551    20908.113 
   16200    283.17699   -38678.374    168.81936   -38847.193    20044.536 
   16400    301.99026   -38662.114    180.03512   -38842.149    11814.893 
   16600    324.16499   -38657.415    193.25485   -38850.669     14520.48 
   16800    273.06562   -38690.317    162.79135   -38853.108   -13842.545 
   17000    290.69269   -38662.917    173.29994   -38836.217    24818.692 
   17200    303.82093   -38660.919     181.1265   -38842.046    12451.668 
   17400    320.51873   -38680.369    191.08109    -38871.45   -10244.267 
   17600    300.57211   -38651.694    179.18968   -38830.884    40697.377 
   17800    294.04479    -38662.79    175.29834   -38838.088    -18865.58 
   18000    288.72017   -38678.776      172.124     -38850.9   -18230.153 
   18200    303.09328   -38660.556     180.6927   -38841.248   -27245.133 
   18400    332.15095   -38635.585    198.01578     -38833.6    11232.856 
   18600    322.58281   -38670.255    192.31162   -38862.567   -1913.3808 
   18800     288.2288   -38683.425    171.83106   -38855.256    17741.627 
   19000    292.39349    -38665.21    174.31389   -38839.524   -44271.996 
   19200    316.23395   -38655.183    188.52667    -38843.71    982.55112 
   19400    272.28511   -38687.651    162.32604   -38849.977    21833.238 
   19600    314.80602   -38665.603    187.67539   -38853.278    2993.4972 
   19800    297.58888   -38663.465    177.41118   -38840.876    -25511.56 
   20000    297.06281   -38695.441    177.09756   -38872.538    5589.9787 
   20200    280.93573   -38664.494    167.48321   -38831.977    38674.082 
   20400    326.08875   -38664.771    194.40173   -38859.173   -13213.564 
   20600    286.42695   -38703.849    170.75686   -38874.606    5256.6784 
   20800    291.47771   -38681.243    173.76794   -38855.011    31106.021 
   21000    308.00542   -38660.194    183.62113   -38843.815    22148.812 
   21200    267.83383   -38683.268    159.67236   -38842.941   -10551.437 
   21400    284.82674   -38684.078    169.80288   -38853.881     16549.45 
   21600    312.16125   -38660.849    186.09868   -38846.948    7796.5453 
   21800     297.3836   -38677.194    177.28881   -38854.483    17347.512 
   22000    273.68892   -38699.594    163.16294   -38862.757   -7461.7553 
   22200    312.07886   -38664.114    186.04956   -38850.164   -34337.098 
   22400    285.25024   -38678.029    170.05535   -38848.084    4122.8428 
   22600    290.25657   -38676.561    173.03994   -38849.601    29418.922 
   22800    319.39769   -38651.067    190.41277   -38841.479    25276.268 
   23000    303.63506     -38685.2    181.01569   -38866.215    33320.873 
   23200    292.33046   -38684.938    174.27631   -38859.214    16462.441 
   23400    298.18808   -38655.746    177.76841   -38833.514   -14354.382 
   23600    274.52328   -38680.202    163.66035   -38843.862   -4980.7686 
   23800    268.24705   -38683.829     159.9187   -38843.748    17539.362 
   24000    290.63543   -38668.903     173.2658   -38842.169    28213.016 
   24200    297.21644   -38656.625    177.18915   -38833.814    17940.235 
   24400    311.04032   -38661.129    185.43042   -38846.559    33920.655 
   24600    300.54604   -38686.551    179.17413   -38865.725    3668.1849 
   24800     308.6913   -38646.882    184.03003   -38830.912    997.68131 
   25000    287.64777   -38658.734    171.48468   -38830.219   -27114.576 
   25200    294.85587   -38680.897    175.78187   -38856.679    12261.261 
   25400    295.31623   -38674.902    176.05632   -38850.958   -1228.3215 
   25600    325.51178   -38669.149    194.05776   -38863.207   -24861.771 
   25800    308.93581   -38671.571    184.17579   -38855.747    4250.7584 
   26000    257.48965   -38686.837    153.50555   -38840.343    1291.5555 
   26200     322.9311   -38660.029    192.51925   -38852.549    -5938.439 
   26400    303.48742   -38655.035    180.92767   -38835.963    12511.963 
   26600    300.87151   -38692.007    179.36816   -38871.375   -12484.478 
   26800    330.87468   -38662.498    197.25492   -38859.753   -19012.706 
   27000    300.49811    -38670.17    179.14556   -38849.316     -95.8086 
   27200    278.64452   -38694.125    166.11728   -38860.242    27038.221 
   27400    286.83389   -38670.007    170.99947   -38841.007    7195.6136 
   27600    297.63413   -38665.253    177.43816   -38842.691    28512.393 
   27800    315.92822   -38648.098     188.3444   -38836.442   -10198.087 
   28000    281.61683   -38682.268    167.88925   -38850.158    -3842.939 
   28200    290.89384   -38673.056    173.41985   -38846.476    4561.8927 
   28400    307.89622   -38634.306    183.55603   -38817.862   -18874.621 
   28600    289.41084   -38665.302    172.53575   -38837.837   -14256.554 
   28800    277.48952   -38677.461    165.42871   -38842.889    4451.1216 
   29000     296.4782    -38651.66    176.74904   -38828.409    48750.068 
   29200    281.26804   -38660.747    167.68132   -38828.428   -25926.294 
   29400     276.6455   -38679.087    164.92554   -38844.013    10268.376 
   29600    302.69682   -38672.418    180.45634   -38852.874    1887.5512 
   29800    354.34818   -38629.854    211.24892   -38841.103   -28937.066 
   30000    299.45898   -38664.217    178.52607   -38842.743    22798.017 
   30200    303.50692   -38671.343    180.93929   -38852.283   -15952.053 
   30400     288.8538   -38676.636    172.20366    -38848.84   -18273.848 
   30600    295.53573   -38669.799    176.18717   -38845.986   -8345.5849 
   30800    312.23089   -38645.562     186.1402   -38831.702   -29640.912 
   31000    299.73619   -38680.174    178.69133   -38858.865    -39142.26 
   31200    320.31317   -38666.564    190.95854   -38857.523    2606.0499 
   31400    314.70741   -38644.539     187.6166   -38832.156    2187.3954 
   31600    319.08871   -38671.498    190.22857   -38861.727     39344.57 
   31800    278.38493   -38682.872    165.96252   -38848.835    14236.253 
   32000    325.89711    -38651.58    194.28748   -38845.868    -7022.559 
   32200     328.5476   -38660.272     195.8676    -38856.14    8808.2348 
   32400     296.4418   -38680.254    176.72734   -38856.981    3914.0926 
   32600    279.79902   -38686.203    166.80555   -38853.008    3703.5571 
   32800    330.12374    -38650.71    196.80723   -38847.517   -9738.6893 
   33000    264.35426   -38679.593    157.59797   -38837.191   -20586.973 
   33200    302.69605   -38684.031    180.45588   -38864.487   -13890.974 
   33400    295.37408   -38671.094    176.09081   -38847.185   -19517.078 
   33600    334.66671   -38647.459    199.51558   -38846.975   -13931.018 
   33800    294.84667   -38665.103    175.77638   -38840.879    2675.1479 
   34000    305.46069   -38678.107    182.10406   -38860.211   -19945.728 
   34200    324.97166   -38647.622    193.73576   -38841.358   -32424.259 
   34400    291.52033    -38664.52    173.79335   -38838.313   -12748.564 
   34600    262.37111   -38679.472    156.41569   -38835.888   -14263.771 
   34800    312.54775   -38659.099    186.32909   -38845.428   -9728.2466 
   35000    317.53046   -38647.905     189.2996   -38837.205   -17126.126 
   35200    267.33698   -38687.022    159.37615   -38846.398   -15584.633 
   35400     314.2124    -38662.08    187.32149   -38849.401   -14935.032 
   35600    269.66243    -38681.64    160.76249   -38842.403   -4347.8287 
   35800    286.49232    -38690.07    170.79584   -38860.866   -22985.348 
   36000    297.31881   -38667.436    177.25018   -38844.687    792.82048 
   36200    303.65291   -38667.365    181.02633   -38848.391    2865.4221 
   36400    293.23092   -38689.861    174.81313   -38864.674   -17158.046 
   36600    316.19714   -38656.135    188.50472   -38844.639    953.12299 
   36800    308.13889   -38665.918     183.7007   -38849.619    819.61216 
   37000     299.1103   -38674.282     178.3182   -38852.601    9410.7433 
   37200    292.13082   -38670.577     174.1573   -38844.734    15533.848 
   37400    307.26505   -38669.865    183.17975   -38853.044    25392.359 
   37600    307.21537   -38669.279    183.15013   -38852.429   -24480.733 
   37800    299.64457   -38667.262    178.63671   -38845.898     13072.76 
   38000     335.3767   -38636.457    199.93885   -38836.396    27425.154 
   38200    286.79693   -38675.573    170.97744    -38846.55    3283.1143 
   38400    307.28755   -38665.796    183.19316   -38848.989   -26430.438 
   38600    329.84064   -38636.904    196.63846   -38833.543   -8811.3147 
   38800    295.74355   -38679.791    176.31107   -38856.102   -33710.124 
   39000    287.23074   -38676.757    171.23606   -38847.993   -6432.2898 
   39200    352.94724   -38642.028    210.41373   -38852.442   -9806.4974 
   39400     288.8288    -38665.54    172.18876   -38837.729    3147.4686 
   39600    298.16599   -38671.683    177.75524   -38849.438    6724.3314 
   39800    296.00552    -38684.38    176.46725   -38860.847    17547.391 
   40000    318.61697   -38659.452    189.94733   -38849.399    11810.561 
   40200    279.86652   -38662.786    166.84579   -38829.632    12294.679 
   40400    288.63032   -38683.615    172.07043   -38855.685    28378.346 
   40600    292.13624   -38675.136    174.16053   -38849.296    25321.045 
   40800    306.83287   -38672.196     182.9221   -38855.118   -8894.9165 
   41000    307.69559   -38659.698    183.43642   -38843.134   -12009.166 
   41200    295.08425   -38690.483    175.91802   -38866.401    3069.4039 
   41400     313.8265   -38669.228    187.09143    -38856.32     16175.21 
   41600    298.45037   -38661.666    177.92477   -38839.591   -1759.5896 
   41800    275.53716   -38686.281    164.26479   -38850.546    4913.2289 
   42000    266.56547   -38699.181     158.9162   -38858.097   -13640.445 
   42200     297.3676   -38661.133    177.27926   -38838.413    10992.384 
   42400    300.03878   -38668.457    178.87172   -38847.329   -10682.323 
   42600    285.33045   -38687.493    170.10317   -38857.596    53356.892 
   42800    300.30892   -38668.035    179.03277   -38847.068   -14173.751 
   43000    321.50192   -38665.408    191.66723   -38857.075    5069.6044 
   43200    283.35531   -38677.132    168.92567   -38846.058   -13943.366 
   43400    275.23829   -38689.274    164.08661    -38853.36   -4402.8517 
   43600    319.41813   -38659.737    190.42496   -38850.162    12823.055 
   43800    290.34172   -38673.418     173.0907   -38846.508    6596.1584 
   44000    276.57228   -38694.644    164.88188   -38859.526   -8942.2363 
   44200    287.08531    -38669.02    171.14935    -38840.17    2922.8431 
   44400    291.19743   -38666.759    173.60085    -38840.36    2993.8827 
   44600    295.40532     -38699.5    176.10943   -38875.609   -14251.723 
   44800    304.31635   -38669.603    181.42185   -38851.025    11578.256 
   45000    279.42758   -38667.445    166.58411   -38834.029    -28548.25 
   45200    292.93445   -38685.388    174.63639   -38860.025   -6679.4937 
   45400    271.29355   -38683.996    161.73491    -38845.73   -18354.145 
   45600    281.33991   -38660.771    167.72417   -38828.495   -14658.007 
   45800    295.77554   -38681.013    176.33014   -38857.343     10080.36 
   46000    294.87973    -38684.04    175.79609   -38859.836    20651.575 
   46200    306.26627   -38667.586    182.58432    -38850.17   -7510.6563 
   46400    292.92209   -38670.432    174.62902   -38845.061    -1289.151 
   46600    288.78422    -38674.12    172.16218   -38846.282    18526.513 
   46800    293.60089   -38656.124     175.0337   -38831.158    28098.144 
   47000    291.33924    -38658.77    173.68539   -38832.456   -8007.9498 
   47200    300.57045   -38676.927    179.18868   -38856.116   -20872.413 
   47400    300.42374   -38651.698    179.10122   -38830.799     46099.96 
   47600     282.7563   -38652.296    168.56856   -38820.865   -48105.959 
   47800    274.53939   -38682.849    163.66995   -38846.519   -1721.6292 
   48000    308.84325   -38652.137    184.12061   -38836.258   -54346.934 
   48200     309.7472   -38654.084    184.65951   -38838.743    7218.3552 
   48400    298.45183   -38675.306    177.92565   -38853.231   -5721.9481 
   48600    288.41914   -38671.919    171.94453   -38843.864    20342.879 
   48800     308.6315   -38666.227    183.99438   -38850.222   -32022.647 
   49000    292.14851   -38678.301    174.16785   -38852.469     -17218.1 
   49200    286.33658   -38666.729    170.70299   -38837.432    33730.922 
   49400    323.40239   -38643.579    192.80022   -38836.379    22265.807 
   49600    285.22952   -38684.057      170.043     -38854.1    7890.9363 
   49800    322.00543   -38668.344    191.96741   -38860.311    11041.066 
   50000    319.89026   -38647.471    190.70642   -38838.178   -1998.6632 
   50200      297.573   -38686.121    177.40172   -38863.523    11311.549 
   50400    311.76685   -38664.485    185.86355   -38850.349    24473.234 
   50600    304.20393   -38655.956    181.35482   -38837.311   -11999.863 
   50800    269.20629   -38689.696    160.49056   -38850.186    5579.6096 
   51000    302.58045    -38659.26    180.38697   -38839.647   -3549.9687 
   51200    316.83277   -38665.969    188.88366   -38854.853   -37610.522 
   51400    307.26549   -38670.841    183.18001   -38854.021    13938.531 
   51600    289.22283   -38668.827    172.42367   -38841.251     22764.85 
   51800    309.25417    -38667.22    184.36559   -38851.585   -29851.005 
   52000    300.99237   -38667.988    179.44022   -38847.428   -5130.4383 
   52200    320.10358   -38649.545     190.8336   -38840.378   -32819.906 
   52400    294.86423   -38669.214    175.78685   -38845.001    -6917.011 
   52600    285.95316   -38683.115    170.47441   -38853.589    2330.6099 
   52800    305.39275   -38661.998    182.06356   -38844.062   -29986.764 
   53000    325.35952   -38661.655    193.96698   -38855.622    5638.5578 
   53200    306.98232   -38681.938    183.01119    -38864.95   -11871.247 
   53400    308.26456    -38666.67    183.77562   -38850.445   -22984.939 
   53600    300.26859   -38648.434    179.00873   -38827.443    -5191.098 
   53800    298.16458    -38683.29    177.75439   -38861.044    3971.6425 
   54000    317.93678   -38666.993    189.54183   -38856.535   -24073.618 
   54200    331.83084   -38633.829    197.82494   -38831.654   -6210.6512 
   54400    311.29821   -38674.021    185.58417   -38859.606    12792.562 
   54600    294.71917   -38677.848    175.70037   -38853.548   -14544.372 
   54800    319.60486   -38645.814    190.53628    -38836.35   -2586.8762 
   55000    299.87457   -38677.902    178.77383   -38856.676    -27639.57 
   55200    281.69095   -38678.948    167.93344   -38846.881    9139.9999 
   55400    317.45721   -38658.789    189.25593   -38848.045    19502.349 
   55600    310.03002   -38700.675    184.82812   -38885.503    7182.8774 
   55800    291.87745   -38681.691    174.00625   -38855.697    30355.393 
   56000    302.45213   -38660.857    180.31047   -38841.167    13581.488 
   56200    288.42307   -38689.372    171.94688   -38861.319    5077.6865 
   56400    297.74312   -38680.612    177.50314   -38858.115   -14480.277 
   56600    280.76388   -38669.528    167.38076   -38836.909    4472.9888 
   56800    312.97156   -38649.174    186.58175   -38835.756    31504.805 
   57000     303.8723   -38652.019    181.15712   -38833.177    28900.298 
   57200    294.10198   -38679.517    175.33243   -38854.849    -8717.567 
   57400    307.34645   -38657.728    183.22828   -38840.956    16576.075 
   57600    327.00421   -38637.954    194.94749   -38832.902   -6474.0893 
   57800    312.76248   -38667.887    186.45711   -38854.344     8436.114 
   58000    289.08914   -38675.329    172.34396   -38847.673    44868.299 
   58200    303.95481   -38691.189    181.20631   -38872.395    19797.009 
   58400    291.94073   -38656.766    174.04397    -38830.81    48883.449 
   58600    312.23184   -38662.014    186.14076   -38848.155    -15688.36 
   58800    268.31991   -38705.275    159.96214   -38865.237    20971.628 
   59000    292.94217   -38676.832    174.64099   -38851.473    -37074.47 
   59200    300.28086   -38657.603    179.01604   -38836.619   -15040.337 
   59400    291.39582    -38684.94    173.71912   -38858.659    23245.362 
   59600    276.88852   -38688.143    165.07041   -38853.214    6519.0344 
   59800    297.10162   -38662.953     177.1207   -38840.073    23926.032 
   60000    282.30449    -38674.32    168.29921   -38842.619    8943.0483 
   60200    280.42822   -38695.703    167.18065   -38862.884    24998.916 
   60400    328.49014   -38654.746    195.83334   -38850.579   -6460.0569 
   60600    295.13807   -38666.139    175.95011    -38842.09    35001.012 
   60800    273.29453    -38696.81    162.92781   -38859.738   -17877.982 
   61000    327.33434   -38652.212     195.1443   -38847.356   -19310.074 
   61200    282.02952   -38673.201    168.13529   -38841.337   -11532.442 
   61400    295.67933   -38679.863    176.27279   -38856.136    -8190.884 
   61600    311.72206   -38647.893    185.83685    -38833.73   -16875.091 
   61800    279.33849   -38677.324      166.531   -38843.855     40899.34 
   62000    292.86348   -38674.694    174.59408   -38849.288    34395.484 
   62200    323.61697   -38664.453    192.92814   -38857.381    11525.645 
   62400    295.33144   -38671.753    176.06539   -38847.818   -13500.383 
   62600    284.22311   -38688.078    169.44302   -38857.521    16066.053 
   62800    309.32883   -38651.708     184.4101   -38836.118    7114.6732 
   63000    308.57352   -38666.342    183.95981   -38850.302   -17190.906 
   63200    283.91505   -38675.504    169.25937   -38844.763   -30288.767 
   63400    347.37648   -38643.306    207.09266   -38850.398   -18624.145 
   63600    309.32903    -38645.35    184.41022   -38829.761    11447.959 
   63800    328.25004   -38673.229    195.69021   -38868.919   -12986.273 
   64000    301.91497   -38679.381    179.99023   -38859.371    31621.665 
   64200    321.37765    -38645.23    191.59315   -38836.823   -21878.353 
   64400    304.64666   -38667.434    181.61876   -38849.053    13390.112 
   64600     282.6965   -38682.302    168.53291   -38850.835   -16141.205 
   64800    301.30185   -38667.971    179.62472   -38847.596    33965.673 
   65000    314.85281   -38657.515    187.70329   -38845.219   -2732.6413 
   65200     288.6412   -38689.195    172.07692   -38861.272    19338.723 
   65400     305.8506   -38672.342    182.33651   -38854.679     25901.16 
   65600    313.11826   -38667.575    186.66921   -38854.244    27649.265 
   65800      269.997   -38668.858    160.96195    -38829.82    24706.722 
   66000    306.52122   -38678.404     182.7363   -38861.141    18410.067 
   66200     275.5236   -38678.103     164.2567    -38842.36   -649.29151 
   66400    321.50612   -38650.039    191.66973   -38841.709    19957.808 
   66600    305.55619   -38676.849    182.16099    -38859.01   -21883.488 
   66800    305.97997   -38670.037    182.41363    -38852.45    302.76541 
   67000    305.14548   -38663.291    181.91615   -38845.207   -13940.113 
   67200     302.3214   -38664.255    180.23253   -38844.488   -29861.751 
   67400    294.25603   -38684.417    175.42426   -38859.841    43313.861 
   67600    303.43092   -38664.537    180.89399   -38845.431    -31828.58 
   67800    314.51586   -38656.067    187.50241   -38843.569   -16228.349 
   68000    289.48708   -38684.476     172.5812   -38857.057    12160.616 
   68200    297.60251   -38674.399    177.41931   -38851.819    12360.885 
   68400     305.3538   -38659.139    182.04034   -38841.179   -10505.683 
   68600    296.61021   -38675.986    176.82774   -38852.814    2036.9027 
   68800    291.05392   -38682.018    173.51529   -38855.533   -18493.932 
   69000    308.08914   -38649.863    183.67104   -38833.534   -7904.8379 
   69200     307.4483   -38668.189      183.289   -38851.478    3468.7553 
   69400    298.18125    -38672.88    177.76433   -38850.644   -12175.679 
   69600    318.27152   -38664.576    189.74139   -38854.317    6277.1487 
   69800     310.6761    -38645.36    185.21329   -38830.574    10367.403 
   70000    308.99602   -38668.296    184.21169   -38852.507   -21605.262 
   70200    274.24254   -38679.005    163.49298   -38842.498   -12825.094 
   70400    322.63048   -38656.943    192.34004   -38849.283    13014.642 
   70600    325.46755   -38663.988    194.03139   -38858.019   -23838.942 
   70800    297.83413   -38670.298    177.55739   -38847.855   -8044.7211 
   71000    281.12221   -38672.638    167.59438   -38840.233    39592.685 
   71200    313.35521   -38647.251    186.81047   -38834.061    18716.507 
   71400    284.35714   -38684.716    169.52293   -38854.239    -14393.79 
   71600    307.20626   -38675.242     183.1447   -38858.386   -25173.889 
   71800     310.7504   -38655.629    185.25758   -38840.887      11319.6 
   72000    270.03866   -38696.629    160.98679   -38857.616   -39047.116 
   72200    312.98892   -38666.473     186.5921   -38853.065   -26541.782 
   72400    322.97555   -38657.097    192.54575   -38849.643   -9863.1305 
   72600     295.7372   -38693.952    176.30728   -38870.259    72.290118 
   72800    283.83199   -38667.105    169.20985   -38836.315    7129.0045 
   73000    273.81841   -38666.575    163.24013   -38829.815   -4922.2019 
   73200    261.73997   -38699.533    156.03943   -38855.572   -36021.111 
   73400    276.44494   -38686.683    164.80597   -38851.489    31386.573 
   73600    314.02777   -38663.113    187.21142   -38850.324   -26998.236 
   73800     315.5261   -38672.457    188.10468   -38860.562   -488.11283 
   74000    276.49042   -38692.195    164.83308   -38857.028    4056.0039 
   74200    317.42175   -38655.782    189.23479   -38845.016   -24052.467 
   74400    309.51711   -38671.815    184.52235   -38856.337   -1129.9825 
   74600    283.05844   -38705.474    168.74869   -38874.222    38847.529 
   74800    276.24808   -38681.339    164.68861   -38846.028    24355.498 
   75000    323.62855   -38658.588    192.93505   -38851.523    27631.113 
   75200     293.9485   -38679.009    175.24093    -38854.25     2209.914 
   75400    262.24877   -38701.168    156.34275   -38857.511    33928.517 
   75600    320.28488   -38657.172    190.94168   -38848.113    3176.1405 
   75800    288.74397   -38675.567    172.13818   -38847.705    26180.487 
   76000     278.0898    -38697.81    165.78657   -38863.597    13707.934 
   76200    299.80389   -38665.895    178.73169   -38844.626     36081.03 
   76400    340.87158    -38656.86    203.21469   -38860.074    8663.6018 
   76600    292.07822   -38684.949    174.12594   -38859.075   -2648.6615 
   76800    289.31596   -38673.277    172.47918   -38845.756    29402.412 
   77000    292.85575   -38665.277    174.58947   -38839.867   -22173.902 
   77200    325.06713   -38643.772    193.79268   -38837.565    2636.1351 
   77400    325.80191   -38668.085    194.23072   -38862.316    24368.846 
   77600    305.90272   -38681.459    182.36758   -38863.827    4200.3275 
   77800    347.63939   -38645.114     207.2494   -38852.364    6926.4605 
   78000    296.47117   -38654.796    176.74485   -38831.541    23764.957 
   78200    311.29055   -38677.391     185.5796   -38862.971   -15217.786 
   78400    283.28156   -38682.705     168.8817   -38851.586   -9789.9272 
   78600    316.07796   -38652.137    188.43367   -38840.571   -12090.687 
   78800    311.99822   -38676.252    186.00149   -38862.253   -14647.088 
   79000    261.15276   -38683.427    155.68935   -38839.117    2341.9139 
   79200     272.3144   -38663.269     162.3435   -38825.613    1477.0796 
   79400    320.42951   -38665.707     191.0279   -38856.735   -28935.007 
   79600      285.739   -38702.208    170.34673   -38872.555   -4547.6974 
   79800    303.22431   -38674.262    180.77081   -38855.033    17766.011 
   80000    301.04571   -38662.396    179.47202   -38841.868    14162.916 
   80200    310.62803   -38657.203    185.18463   -38842.388   -10883.422 
   80400      304.792   -38680.669    181.70541   -38862.374   -25573.308 
   80600    292.23899   -38669.042    174.22178   -38843.264   -4563.9001 
   80800    326.21772    -38646.13    194.47861   -38840.608    9888.7718 
   81000    273.37965   -38676.255    162.97856   -38839.234    -10003.35 
   81200    313.66986    -38664.05    186.99805   -38851.048    26154.384 
   81400    322.83738   -38645.783    192.46338   -38838.247   -26295.034 
   81600    286.80561   -38669.859    170.98261   -38840.841    823.50071 
   81800    299.73156   -38682.062    178.68857   -38860.751    5307.3744 
   82000    332.33547   -38643.737    198.12578   -38841.863   -21310.036 
   82200    270.30923   -38667.693     161.1481   -38828.841    2287.8322 
   82400    302.43277    -38673.13    180.29893   -38853.429   -11794.126 
   82600    332.70683   -38645.538    198.34717   -38843.885    34688.366 
   82800    311.65137   -38649.603    185.79471   -38835.398   -9488.2598 
   83000    288.93571   -38674.454    172.25249   -38846.706    36357.457 
   83200    329.14949   -38659.009    196.22642   -38855.236    9885.9217 
   83400    320.06742    -38639.11    190.81203   -38829.922    16160.108 
   83600    305.81125   -38671.179    182.31305   -38853.492   -13143.338 
   83800    284.71346    -38668.46    169.73535   -38838.195   -25299.998 
   84000    344.17945   -38644.823    205.18672    -38850.01    9881.9798 
   84200    295.54291     -38678.4    176.19145   -38854.591   -9408.4786 
   84400    291.22999   -38673.762    173.62026   -38847.382    581.44611 
   84600    329.56399    -38638.34    196.47353   -38834.814    3713.7972 
   84800    311.69547   -38667.372      185.821   -38853.193   -14444.293 
   85000     277.2112   -38674.356    165.26278   -38839.619    16759.672 
   85200    342.10456   -38634.927    203.94974   -38838.876   -3010.3408 
   85400    322.55185   -38668.551    192.29316   -38860.844   -9717.7629 
   85600    297.04002   -38676.136    177.08397    -38853.22     3569.792 
   85800     307.2383   -38653.435     183.1638   -38836.599    13998.673 
   86000    325.05524   -38655.277    193.78559   -38849.062    15863.231 
   86200    327.59554   -38678.713    195.30001   -38874.013    20906.049 
   86400     318.1023    -38652.73     189.6405    -38842.37    -2063.086 
   86600    300.35918   -38656.409    179.06273   -38835.472     17332.85 
   86800    288.16662   -38672.711    171.79399   -38844.505   -18097.962 
   87000    305.21654   -38665.669    181.95851   -38847.627    12237.559 
   87200    308.99926   -38645.123    184.21362   -38829.336    26884.861 
   87400    312.32834   -38662.706    186.19829   -38848.904    4627.6754 
   87600    283.50134   -38680.799    169.01273   -38849.811     17041.61 
   87800    288.96776   -38642.714     172.2716   -38814.986   -38608.262 
   88000    282.83716   -38659.971    168.61677   -38828.587    -51647.92 
   88200    303.91868   -38672.647    181.18477   -38853.832    11126.915 
   88400    285.58772   -38674.956    170.25655   -38845.212    20764.896 
   88600    309.82396   -38654.739    184.70527   -38839.444   -34731.255 
   88800    285.96036   -38673.904     170.4787   -38844.382   -8044.1224 
   89000    294.23629   -38680.398     175.4125    -38855.81   -21917.803 
   89200    337.21882   -38640.925    201.03705   -38841.962    2659.4042 
   89400    293.71668   -38673.015    175.10273   -38848.117    22006.043 
   89600    270.50733   -38677.448    161.26619   -38838.714   -4095.5837 
   89800    315.96663   -38643.029     188.3673   -38831.397    9084.4122 
   90000    288.63566   -38675.395    172.07362   -38847.468    3709.8601 
   90200    295.00354   -38675.947     175.8699   -38851.817   -15694.002 
   90400    310.79071   -38647.727    185.28161   -38833.009    5387.9424 
   90600    333.18817   -38659.236    198.63413    -38857.87   -60257.802 
   90800    309.83938   -38670.209    184.71447   -38854.923   -22558.264 
   91000    296.09007   -38658.523    176.51765    -38835.04   -9701.7671 
   91200    321.18658    -38647.98    191.47924   -38839.459    1120.8426 
   91400    263.04491   -38683.777    156.81738   -38840.594    39293.096 
   91600      299.546   -38660.834    178.57795   -38839.412    39177.135 
   91800    317.93967   -38657.145    189.54356   -38846.689    1725.5779 
   92000    307.29916   -38667.902    183.20009   -38851.102    33802.115 
   92200    247.91402   -38698.081    147.79692   -38845.878    10535.178 
   92400    301.51936   -38660.876    179.75439    -38840.63    1790.9002 
   92600    297.96993   -38657.929    177.63835   -38835.568   -2626.8811 
   92800    275.77391   -38689.888    164.40593   -38854.294    14913.228 
   93000    299.22003   -38659.603    178.38361   -38837.987   -13805.585 
   93200    306.38681   -38665.593    182.65618   -38848.249   -24225.782 
   93400    282.19718   -38682.734    168.23524   -38850.969    16938.774 
   93600    315.50806   -38652.974    188.09392   -38841.068    12820.429 
   93800    296.58876   -38657.393    176.81495   -38834.208   -9662.0323 
   94000    302.04986     -38681.6    180.07065    -38861.67    -27556.79 
   94200    307.72497   -38660.091    183.45393   -38843.545    92.873812 
   94400    295.35804   -38660.403    176.08124   -38836.484    10145.191 
   94600    257.41898   -38687.662    153.46342   -38841.125   -5474.5469 
   94800    305.08076   -38657.613    181.87756    -38839.49    2510.5207 
   95000    318.62327   -38668.312    189.95109   -38858.263   -5443.6561 
   95200    289.98243   -38699.714    172.87651   -38872.591   -43215.246 
   95400    295.50189   -38667.891      176.167   -38844.058    38306.623 
   95600     281.3435   -38666.856    167.72631   -38834.582   -13287.528 
   95800    248.99578   -38704.765    148.44182   -38853.207   -7104.8452 
   96000     298.8878   -38675.972    178.18555   -38854.157   -33378.218 
   96200    295.14898   -38667.253    175.95661    -38843.21   -21136.971 
   96400    280.82896   -38689.047    167.41956   -38856.467    3995.3498 
   96600     310.3522   -38682.004    185.02019   -38867.024   -25145.211 
   96800    278.71357   -38661.165    166.15844   -38827.323   -9552.9519 
   97000    284.47316    -38686.85    169.59209   -38856.442    -5082.169 
   97200     308.1254    -38680.34    183.69266   -38864.033    6638.6795 
   97400     293.2786   -38668.607    174.84156   -38843.449    26023.698 
   97600    297.30108   -38671.466    177.23961   -38848.706   -5210.7563 
   97800    313.72619   -38676.416    187.03164   -38863.448    19453.323 
   98000    311.40346   -38651.454    185.64691   -38837.101   -10822.336 
   98200    279.64392   -38671.546    166.71308   -38838.259   -14994.606 
   98400    267.28787    -38683.96    159.34687   -38843.307    19132.224 
   98600    295.11284   -38659.494    175.93507   -38835.429    20066.085 
   98800    299.99364   -38668.316    178.84481    -38847.16    15010.861 
   99000    307.48694   -38670.084    183.31203   -38853.396    28985.029 
   99200    300.89287   -38670.944     179.3809   -38850.324   -93.418807 
   99400    310.55996   -38654.035    185.14405   -38839.179   -22421.312 
   99600    319.57804   -38667.705    190.52029   -38858.225    4660.6001 
   99800    288.68802    -38685.41    172.10483   -38857.514   -7097.9577 
  100000    310.72443    -38648.51     185.2421   -38833.752   -35722.295 
  100200    285.18468   -38667.737    170.01627   -38837.753   -2235.3834 
  100400    291.79735   -38690.229    173.95849   -38864.187    7252.4182 
  100600    285.50306   -38666.645    170.20608   -38836.851   -21477.109 
  100800    313.76035    -38654.77      187.052   -38841.822   -21340.223 
  101000    276.70258   -38686.481    164.95957    -38851.44    35753.956 
  101200    293.77003   -38673.097    175.13453   -38848.232    1884.9783 
  101400    322.42722   -38660.932    192.21886   -38853.151   -15624.658 
  101600    282.41081   -38673.175     168.3626   -38841.538    7570.8804 
  101800    284.01977   -38693.249    169.32179   -38862.571    9549.2836 
  102000    311.82014   -38670.315    185.89532    -38856.21   -9595.9691 
  102200    308.43236   -38659.149    183.87565   -38843.024    29324.602 
  102400    304.04001   -38683.257     181.2571   -38864.514    30330.114 
  102600    289.98194   -38687.655    172.87621   -38860.532    29132.251 
  102800    321.70416   -38655.063     191.7878   -38846.851   -7629.2159 
  103000    284.74673   -38676.687    169.75518   -38846.442   -6888.6738 
  103200    298.44449    -38694.27    177.92127   -38872.192   -11654.584 
  103400    321.58165   -38659.223    191.71476   -38850.938    477.52578 
  103600    296.22899   -38681.304    176.60047   -38857.904    3508.0976 
  103800    292.82544   -38672.498     174.5714    -38847.07    6597.8414 
  104000    292.00286   -38656.852    174.08101   -38830.933   -10519.925 
  104200    286.90893    -38687.62     171.0442   -38858.664    28876.613 
  104400    271.91511   -38681.626    162.10546   -38843.731    37827.564 
  104600    302.20392   -38666.674     180.1625   -38846.836    34977.709 
  104800    318.48515   -38658.159    189.86875   -38848.028    4188.2377 
  105000    288.01133   -38688.129    171.70141    -38859.83   -6861.9055 
  105200    330.94081   -38653.545    197.29434   -38850.839    26633.815 
  105400    279.50917   -38665.459    166.63275   -38832.092     33.73512 
  105600    301.33088   -38683.723    179.64203   -38863.365    28173.204 
  105800    336.64198   -38642.903    200.69316   -38843.596   -591.79933 
  106000    300.50634   -38667.786    179.15047   -38846.936   -19266.008 
  106200    315.14204   -38676.181    187.87571   -38864.056   -400.72394 
  106400    307.68638   -38642.181    183.43093   -38825.612   -4919.2823 
  106600     297.9367   -38659.673    177.61854   -38837.291   -7727.2425 
  106800    290.13449   -38675.119    172.96716   -38848.086   -20018.099 
  107000    294.65754   -38682.932    175.66363   -38858.595    34149.079 
  107200    319.23518   -38649.127    190.31589   -38839.443   -40131.502 
  107400    312.24254   -38681.959    186.14714   -38868.107    53268.223 
  107600    293.56368   -38677.399    175.01151   -38852.411    36310.776 
  107800    328.47925   -38657.924    195.82685   -38853.751    40143.837 
  108000    309.64988   -38640.189     184.6015    -38824.79    5662.3344 
  108200    289.38498   -38678.344    172.52033   -38850.864    49027.062 
  108400    293.27991   -38671.878    174.84234    -38846.72   -25721.922 
  108600    293.48402   -38649.143    174.96403   -38824.107    -26814.43 
  108800      283.152   -38691.315    168.80447   -38860.119   -7979.1843 
  109000    313.07033   -38662.601    186.64064   -38849.241    18338.812 
  109200    311.14042   -38666.083     185.4901   -38851.573    9432.3756 
  109400    275.19411   -38705.374    164.06028   -38869.434    2874.7312 
  109600    314.98995    -38678.15    187.78504   -38865.935   -34288.385 
  109800    310.14102   -38659.411     184.8943   -38844.305   -14895.725 
  110000    291.99067   -38688.446    174.07374    -38862.52    -4172.198 
  110200    303.49735   -38680.661    180.93359   -38861.595    7606.3356 
  110400    295.44172   -38666.139    176.13113    -38842.27   -20347.597 
  110600    318.07636   -38668.689    189.62504   -38858.314   -31542.773 
  110800    281.10685   -38701.795    167.58522   -38869.381   -5379.9343 
  111000    302.81811    -38673.96    180.52865   -38854.489   -21708.001 
  111200    294.14519   -38662.656    175.35819   -38838.014    7598.9408 
  111400    319.50299   -38666.584    190.47555    -38857.06     15363.25 
  111600    295.01853   -38689.924    175.87884   -38865.802    32894.332 
  111800    298.00753   -38655.649    177.66077    -38833.31   -9237.2316 
  112000    312.23217   -38666.665    186.14096   -38852.806   -11022.278 
  112200    304.08562    -38675.86    181.28429   -38857.145   -16650.786 
  112400    315.75232     -38668.3    188.23954   -38856.539    16708.051 
  112600    295.89857   -38664.023    176.40349   -38840.427    43833.367 
  112800    309.26014   -38675.656    184.36914   -38860.025    8888.3294 
  113000    250.10107   -38688.338    149.10075   -38837.439   -15841.789 
  113200    316.85747   -38663.065    188.89839   -38851.963   -11851.041 
  113400    306.83892   -38662.941    182.92571   -38845.867   -13984.099 
  113600    274.55397   -38696.503    163.67865   -38860.181    10511.286 
  113800    281.08147   -38676.906     167.5701   -38844.476    24576.357 
  114000    315.57756    -38663.43    188.13535   -38851.566    17110.873 
  114200    300.56338   -38670.116    179.18447     -38849.3    3191.4708 
  114400    281.60656   -38665.328    167.88313   -38833.211   -8347.1449 
  114600    303.08263   -38695.029    180.68635   -38875.715   -6669.2043 
  114800    310.24807   -38677.989    184.95811   -38862.947   -2427.1061 
  115000    320.59929   -38663.472    191.12912   -38854.601    10125.574 
  115200    333.18618   -38651.385    198.63295   -38850.018   -16609.876 
  115400    295.90575   -38681.965    176.40777   -38858.373    2803.1315 
  115600    332.67276   -38671.762    198.32686   -38870.089   -17250.616 
  115800    302.46198   -38647.152    180.31634   -38827.469   -272.74169 
  116000    307.95245   -38670.783    183.58955   -38854.372     34184.19 
  116200    288.61212   -38685.177    172.05958   -38857.236     20784.32 
  116400     308.8458   -38650.786    184.12214   -38834.908   -10712.134 
  116600     301.7668   -38682.183     179.9019   -38862.085   -7699.7238 
  116800    292.79322   -38676.583    174.55219   -38851.135    -10557.16 
  117000    294.41873   -38668.731    175.52126   -38844.252   -6975.8765 
  117200    310.94193   -38668.874    185.37177   -38854.246   -25920.512 
  117400    294.55389    -38692.57    175.60184   -38868.172   -10221.773 
  117600    299.89798   -38659.609    178.78778   -38838.397   -7191.8854 
  117800    296.43497   -38663.382    176.72327   -38840.105   -621.65428 
  118000    276.05245   -38685.449    164.57198   -38850.021    8941.6043 
  118200    278.67954   -38691.536    166.13816   -38857.674   -22310.262 
  118400    301.06792   -38663.646    179.48526   -38843.131   -22211.349 
  118600    309.15796   -38665.056    184.30823   -38849.364   -5402.8228 
  118800    283.45831   -38691.376    168.98708   -38860.363   -2752.1556 
  119000    309.09979    -38653.43    184.27355   -38837.704    12297.743 
  119200    306.85846   -38666.275    182.93736   -38849.212    12271.661 
  119400    298.87175   -38686.819    178.17598   -38864.995   -28123.067 
  119600    299.87037   -38692.964    178.77132   -38871.735    26569.222 
  119800    327.15015   -38659.206    195.03449    -38854.24    33818.356 
  120000    295.70495   -38673.015    176.28806   -38849.303    6538.7589 
  120200    265.58703   -38698.107     158.3329    -38856.44   -18725.263 
  120400    307.77533   -38670.173    183.48396   -38853.657   -13551.844 
  120600    282.34756   -38661.025    168.32489    -38829.35    7655.8435 
  120800    286.12306   -38688.398     170.5757   -38858.973   -11428.933 
  121000    303.69216   -38672.804    181.04973   -38853.854    5053.5927 
  121200    313.68383    -38654.57    187.00638   -38841.576    22045.501 
  121400    267.61848   -38685.286    159.54397    -38844.83   -14328.971 
  121600    287.85808   -38670.623    171.61005   -38842.233   -13617.722 
  121800     307.2415   -38657.336    183.16571   -38840.502   -35304.283 
  122000    285.50696   -38681.632    170.20841    -38851.84     17507.65 
  122200    304.03702   -38660.719    181.25532   -38841.974    21853.548 
  122400    308.40719   -38656.932    183.86065   -38840.793    6801.8042 
  122600    279.38515   -38681.138    166.55881   -38847.696    24942.031 
  122800    308.94449   -38662.394    184.18097   -38846.575   -11676.485 
  123000    349.90845   -38621.915    208.60213   -38830.517   -3885.6027 
  123200    310.67071   -38659.062    185.21008   -38844.272    19682.978 
  123400    294.06193   -38679.346    175.30855   -38854.655   -15611.941 
  123600    319.75197   -38665.511    190.62398   -38856.135    17219.487 
  123800     299.8752   -38657.193     178.7742   -38835.967   -23868.164 
  124000    285.81614   -38688.217    170.39273    -38858.61    -17460.44 
  124200    294.95579   -38671.523    175.84144   -38847.364   -6891.4296 
  124400     319.8507   -38665.308    190.68284   -38855.991    20572.313 
  124600     286.2971   -38670.182    170.67945   -38840.861    -4455.483 
  124800    315.33624    -38664.32    187.99148   -38852.312    56347.827 
  125000    304.38257   -38663.128    181.46132   -38844.589    1986.1779 
  125200    291.26178   -38691.458    173.63921   -38865.098     20330.94 
  125400    295.41715   -38662.534    176.11648   -38838.651     15591.84 
  125600    293.77517   -38660.964     175.1376   -38836.101   -27659.585 
  125800    286.02584   -38685.522    170.51774    -38856.04    8038.3012 
  126000    280.66971   -38660.509    167.32462   -38827.834      4325.41 
  126200    301.35329   -38658.497    179.65538   -38838.153    22169.725 
  126400    298.35234   -38688.436    177.86633   -38866.303    3675.4934 
  126600    262.78028   -38676.951    156.65962   -38833.611    23863.396 
  126800    295.47979   -38661.805    176.15382   -38837.959    20332.814 
  127000    306.47033   -38663.165    182.70597   -38845.871   -19886.223 
  127200    251.05286    -38691.59    149.66818   -38841.258   -19247.445 
  127400    288.93569   -38657.462    172.25248   -38829.715    20630.698 
  127600     307.0728   -38667.171    183.06514   -38850.236   -22555.554 
  127800    293.12732   -38685.086    174.75137   -38859.837    24794.383 
  128000    307.97166   -38695.165      183.601   -38878.766    31200.133 
  128200    291.51895   -38659.917    173.79252   -38833.709   -19860.365 
  128400    275.36895   -38674.902    164.16451   -38839.067    16420.605 
  128600    256.53739   -38700.083    152.93785   -38853.021    -6864.614 
  128800    323.75136   -38655.332    193.00826    -38848.34    27128.466 
  129000    301.06234   -38669.002    179.48193   -38848.484   -6501.9386 
  129200     295.9852    -38686.37    176.45513   -38862.825    15873.278 
  129400    320.33804   -38646.724    190.97337   -38837.698   -35662.538 
  129600    273.05348   -38678.661    162.78411   -38841.446   -21309.688 
  129800    290.77157    -38672.05    173.34696   -38845.397    -4474.768 
  130000    322.00869    -38642.64    191.96935    -38834.61   -20737.849 
  130200    273.68194   -38671.995    163.15877   -38835.154    10624.536 
  130400     293.8284   -38672.634    175.16933   -38847.803   -19609.301 
  130600    322.85048   -38640.219    192.47119    -38832.69   -29437.788 
  130800    310.02152   -38672.055    184.82305   -38856.878    17288.269 
  131000    289.85026   -38678.298    172.79771   -38851.096    5181.4476 
  131200    310.58309   -38644.615    185.15784   -38829.773   -12153.498 
  131400    280.02616   -38673.793    166.94096   -38840.734    8988.4538 
  131600    318.62722   -38673.914    189.95345   -38863.868   -8836.0771 
  131800    318.93298   -38648.186    190.13572   -38838.322    37783.964 
  132000    305.90622   -38651.619    182.36967   -38833.988   -15166.094 
  132200    266.91459   -38681.207    159.12434   -38840.332    910.37181 
  132400    304.84552   -38655.835    181.73732   -38837.572   -8610.5321 
  132600    302.34236   -38648.306    180.24503   -38828.551    13899.093 
  132800    282.85319   -38687.026    168.62633   -38855.652    6198.5636 
  133000    285.72906    -38658.86    170.34081   -38829.201    22049.895 
  133200    297.02859   -38662.554    177.07716   -38839.631   -13024.213 
  133400      264.359   -38687.602    157.60079   -38845.202    23920.184 
  133600     303.7638   -38662.529    181.09244   -38843.622   -48635.014 
  133800    292.16417   -38664.292    174.17718    -38838.47     6057.367 
  134000    276.17928   -38690.587    164.64759   -38855.235    5279.2524 
  134200    297.48903    -38657.41    177.35166   -38834.762   -262.17335 
  134400    274.54537   -38674.075    163.67352   -38837.748   -18789.269 
  134600    282.23692   -38684.245    168.25893   -38852.503   -28084.841 
  134800    312.85462   -38655.821    186.51204   -38842.333    16087.867 
  135000    293.84797   -38661.934      175.181   -38837.115    10923.134 
  135200    314.37868   -38681.717    187.42063   -38869.138    1848.8992 
  135400    334.70853   -38656.287    199.54051   -38855.828    17905.645 
  135600    286.45896   -38689.727    170.77595   -38860.503   -23698.844 
  135800     280.7895   -38680.882    167.39603   -38848.278   -8583.0618 
  136000    311.77872    -38658.78    185.87063   -38844.651   -1394.1396 
  136200    299.12583   -38691.104    178.32746   -38869.431   -3755.6854 
  136400    291.02173   -38686.848     173.4961   -38860.344    14131.487 
  136600    319.08358   -38662.316    190.22551   -38852.541    6665.2019 
  136800    285.49941   -38682.795     170.2039   -38852.998    12141.796 
  137000    297.94704   -38706.595    177.62471   -38884.219   -7588.3592 
  137200    275.40901   -38673.306    164.18839   -38837.495   -30613.672 
  137400    285.58796   -38663.893    170.25669    -38834.15    -35257.52 
  137600    284.87084   -38692.219    169.82917   -38862.048    15656.126 
  137800    326.64063   -38671.018    194.73073   -38865.749   -4154.0228 
  138000    314.79015   -38657.862    187.66593   -38845.528   -31333.979 
  138200     282.9014   -38688.553    168.65507   -38857.208   -8793.7396 
  138400    315.86209   -38674.876    188.30498   -38863.181   -2023.4329 
  138600     306.9187   -38671.788    182.97327   -38854.761   -19487.951 
  138800    269.40552   -38695.473    160.60933   -38856.082    -19787.27 
  139000    289.40686   -38688.821    172.53337   -38861.354    13224.167 
  139200    291.60341   -38662.723    173.84288   -38836.566    -9640.797 
  139400    303.22492   -38687.506    180.77118   -38868.277    363.49618 
  139600    275.85301   -38713.465    164.45309   -38877.918    7054.1748 
  139800    310.35216   -38672.986    185.02017   -38858.007    -14792.31 
  140000    312.73911   -38660.811    186.44318   -38847.254   -16600.024 
  140200      296.311   -38694.722    176.64936   -38871.371    6593.6631 
  140400    328.58611   -38671.975    195.89056   -38867.866    4317.7609 
  140600    308.13393   -38672.647    183.69774   -38856.345     14459.12 
  140800    304.41009   -38671.989    181.47773   -38853.466    3618.0683 
  141000    314.01254   -38642.266    187.20235   -38829.468    11784.706 
  141200    310.45784   -38676.987    185.08317    -38862.07    59357.022 
  141400    305.29519   -38681.656    182.00539   -38863.661    10170.039 
  141600    305.90817   -38652.321    182.37083   -38834.692     -16438.8 
  141800    294.24709   -38665.405    175.41893   -38840.824   -39036.138 
  142000    292.51748   -38679.649    174.38781   -38854.037   -21411.095 
  142200    274.00571   -38708.156     163.3518   -38871.508    21912.149 
  142400    286.82673   -38670.405     170.9952     -38841.4   -7832.9885 
  142600    320.92301    -38658.81     191.3221   -38850.132   -1411.0276 
  142800    271.71681   -38694.118    161.98724   -38856.105    3581.7939 
  143000    289.04589   -38672.717    172.31818   -38845.035    5458.5085 
  143200    323.56081    -38667.92    192.89466   -38860.814    15371.096 
  143400    287.03407   -38686.764    171.11881   -38857.883   -18770.361 
  143600    293.41125   -38698.492    174.92064   -38873.412   -18598.127 
  143800    295.42887   -38663.142    176.12347   -38839.265   -5053.0312 
  144000    301.18874   -38682.993    179.55729    -38862.55   -24015.301 
  144200    296.57547   -38691.841    176.80703   -38868.648   -25187.371 
  144400    276.78716   -38673.946    165.00999   -38838.956   -4400.4537 
  144600    323.99927   -38655.533    193.15605   -38848.689    6980.3058 
  144800    293.70267   -38691.705    175.09438     -38866.8   -5382.9109 
  145000    299.68134   -38668.322    178.65863    -38846.98   -11863.743 
  145200    310.57778     -38660.7    185.15467   -38845.854    23983.255 
  145400    309.62708   -38699.158     184.5879   -38883.745    21185.688 
  145600     301.8351   -38670.708    179.94262   -38850.651     14501.16 
  145800    317.74139   -38663.573    189.42534   -38852.998    18685.149 
  146000    264.49454   -38700.148    157.68159   -38857.829   -9132.5414 
  146200    299.21625   -38667.457    178.38136   -38845.838    12518.899 
  146400    306.83715   -38669.676    182.92465     -38852.6   -4996.4598 
  146600    279.16734   -38686.134    166.42896   -38852.563   -13814.832 
  146800    297.17528    -38669.51    177.16461   -38846.675    3024.6204 
  147000    295.28947    -38663.91    176.04036    -38839.95    4999.4248 
  147200    282.64772    -38689.79    168.50383   -38858.294   -8324.2195 
  147400     270.4254   -38713.449    161.21735   -38874.667    8977.8706 
  147600    296.52594   -38675.471     176.7775   -38852.248   -91.635277 
  147800    301.73062   -38665.312    179.88033   -38845.192   -5134.6387 
  148000    311.73029   -38674.437    185.84176   -38860.279    12306.168 
  148200    293.97318   -38693.176    175.25564   -38868.432   -22602.317 
  148400    317.13109   -38653.638    189.06151   -38842.699     15618.72 
  148600    298.97506    -38668.23    178.23757   -38846.468    15531.079 
  148800     289.7891   -38684.211    172.76125   -38856.972   -24413.289 
  149000     288.9546   -38697.797    172.26375    -38870.06   -11126.133 
  149200    331.81265    -38663.75     197.8141   -38861.564    19325.851 
  149400    296.19721   -38674.743    176.58152   -38851.325    40597.237 
  149600    284.50543   -38696.121    169.61133   -38865.733    -13704.12 
  149800    310.50874   -38660.905    185.11352   -38846.019   -15550.734 
  150000     315.3294   -38664.855    187.98741   -38852.843    8083.4443 
  150200    291.26659   -38687.482    173.64208   -38861.124   -3782.5391 
  150400    312.61014   -38672.412    186.36629   -38858.779   -85.044208 
  150600    335.95931   -38666.112    200.28618   -38866.398   -4728.2617 
  150800    301.68026   -38655.457    179.85031   -38835.308    3777.3822 
  151000    281.18351   -38686.611    167.63092   -38854.242    1046.7129 
  151200    309.51054   -38670.328    184.51843   -38854.846    3260.6012 
  151400    328.26041   -38647.417    195.69639   -38843.113    34287.902 
  151600    312.81847    -38670.56    186.49049    -38857.05   -13217.889 
  151800    290.10946   -38679.838    172.95224    -38852.79   -3146.4899 
  152000    306.92591   -38672.184    182.97757   -38855.162   -5615.7949 
  152200    300.55751   -38651.334    179.18097   -38830.515    34555.974 
  152400    311.83084   -38650.103     185.9017   -38836.004   -2926.3346 
  152600    292.27496   -38672.876    174.24323   -38847.119     2414.563 
  152800    292.70202   -38682.127    174.49782   -38856.625    11661.778 
  153000    295.35311   -38651.447    176.07831   -38827.526   -3792.4801 
  153200    290.13284   -38676.676    172.96618   -38849.642    -994.8488 
  153400    307.24637   -38678.887    183.16862   -38862.056     18685.21 
  153600     310.6625   -38652.684    185.20518    -38837.89   -15298.302 
  153800    315.25087   -38647.523    187.94059   -38835.464    8689.7008 
  154000    294.34352   -38685.192    175.47642   -38860.668    3442.1707 
  154200    291.60077   -38666.433     173.8413   -38840.274    3856.8775 
  154400    322.73272   -38661.029    192.40099    -38853.43    19801.125 
  154600     297.0138   -38677.295    177.06834   -38854.363    21760.741 
  154800     294.9789   -38667.353    175.85522   -38843.209    20889.386 
  155000    312.25369   -38640.062    186.15378   -38826.216   -34555.054 
  155200    296.44944    -38675.39    176.73189   -38852.121   -20614.131 
  155400    283.58384   -38678.423    169.06191   -38847.485    -11144.35 
  155600    327.21088   -38646.138    195.07069   -38841.209   -23139.201 
  155800     285.6952   -38673.853    170.32063   -38844.173     14844.29 
  156000    286.61395   -38679.114    170.86835   -38849.982   -12010.627 
  156200    315.87027   -38651.859    188.30985   -38840.169     20882.42 
  156400    319.41923   -38652.644    190.42561    -38843.07    11167.086 
  156600    294.05796   -38684.611    175.30618   -38859.917   -7109.9649 
  156800    342.40744    -38653.87    204.13031   -38858.001   -22778.368 
  157000    326.77113   -38662.515    194.80853   -38857.324     18160.74 
  157200     297.1652   -38674.863    177.15861   -38852.021   -25484.986 
  157400    304.12619   -38675.813    181.30848   -38857.122   -11822.263 
  157600    338.16164   -38649.817    201.59913   -38851.416    23845.226 
  157800    307.17128   -38679.727    183.12385    -38862.85    693.90672 
  158000    314.42746   -38681.685    187.44971   -38869.135    27403.522 
  158200    308.22755   -38665.817    183.75356    -38849.57      5719.07 
  158400    304.52286   -38661.628    181.54496   -38843.172    36960.774 
  158600    265.86651   -38693.654    158.49951   -38852.153    38698.056 
  158800    311.01782   -38672.815    185.41701   -38858.232    4333.5826 
  159000    315.63826   -38657.964    188.17154   -38846.135    28457.301 
  159200    287.40086   -38693.893    171.33747   -38865.231   -32548.355 
  159400    286.48529   -38694.124    170.79164   -38864.915     13679.92 
  159600    289.48278   -38672.427    172.57864   -38845.006    30092.706 
  159800    300.66582   -38648.075    179.24554   -38827.321   -20805.607 
  160000    283.07994   -38680.826     168.7615   -38849.587   -21122.588 
  160200    288.48394   -38673.835    171.98317   -38845.818    40432.506 
  160400    296.70313   -38652.702    176.88314   -38829.585    19531.575 
  160600    285.87376    -38693.45    170.42708   -38863.877    15276.799 
  160800    305.77091   -38667.318      182.289   -38849.607   -20127.749 
  161000    299.31698   -38662.759    178.44141     -38841.2    7273.8481 
  161200    265.31977   -38701.045    158.17357   -38859.218    29693.305 
  161400    324.52697   -38673.215    193.47065   -38866.685     9739.983 
  161600    305.99697   -38668.049    182.42377   -38850.473   -14001.397 
  161800    268.94739   -38703.177    160.33622   -38863.514    30072.259 
  162000    294.23631   -38674.578    175.41251   -38849.991    21571.027 
  162200    301.30366   -38670.417     179.6258   -38850.043   -3574.0794 
  162400    277.96474   -38697.026    165.71202   -38862.738    20157.995 
  162600    310.21635   -38674.179     184.9392   -38859.118   -15043.601 
  162800    334.58137   -38662.197     199.4647   -38861.662    11653.447 
  163000    317.54561   -38686.151    189.30863    -38875.46    26377.981 
  163200    307.99943   -38686.268    183.61756   -38869.886   -257.53573 
  163400    297.94648   -38656.875    177.62437   -38834.499    5365.8527 
  163600    281.24626   -38683.177    167.66834   -38850.845    15486.568 
  163800    302.83301   -38678.185    180.53753   -38858.723   -9261.2738 
  164000    316.16915   -38652.499    188.48804   -38840.987   -2432.8654 
  164200     299.5597    -38681.47    178.58611   -38860.056    174.48028 
  164400    284.23619   -38656.733    169.45082   -38826.184      14906.6 
  164600    314.72825   -38654.075    187.62903   -38841.704   -37082.689 
  164800     275.8682       -38683    164.46214   -38847.462    33238.897 
  165000    308.19184   -38653.914    183.73226   -38837.646    38371.846 
  165200    306.90475   -38654.435    182.96495     -38837.4   -5109.3742 
  165400    294.58471   -38673.206    175.62021   -38848.827    11033.608 
  165600    287.68894   -38664.552    171.50922   -38836.062   -25866.453 
  165800    315.25466   -38644.924    187.94285   -38832.867   -21528.852 
  166000    265.95918   -38678.125    158.55476   -38836.679    14578.098 
  166200    324.95667   -38659.073    193.72682     -38852.8    37934.115 
  166400    346.81893   -38640.076    206.76027   -38846.837   -1417.5704 
  166600    302.02936   -38682.071    180.05843    -38862.13   -27509.042 
  166800    317.54123   -38665.417    189.30602   -38854.723   -15721.796 
  167000    315.53729   -38647.094    188.11135   -38835.205    22552.786 
  167200    291.02118   -38686.246    173.49577   -38859.742    14907.916 
  167400     324.1528    -38659.18    193.24758   -38852.427   -12345.539 
  167600    302.09538   -38672.245    180.09779   -38852.343   -19864.873 
  167800    261.22843    -38691.15    155.73447   -38846.884    3372.3103 
  168000    303.52136   -38663.799     180.9479   -38844.747   -1679.5428 
  168200     313.8315   -38665.447    187.09442   -38852.541    18766.071 
  168400    295.46237   -38699.633    176.14344   -38875.776   -15183.241 
  168600    312.38927   -38675.216    186.23461   -38861.451     26643.53 
  168800    307.06381   -38663.509    183.05978   -38846.568    29399.402 
  169000    292.50458   -38670.367    174.38012   -38844.747    6672.6673 
  169200    296.91008   -38685.469    177.00651   -38862.475    1394.7364 
  169400    300.68153   -38652.673     179.2549   -38831.928    19179.368 
  169600    297.18595   -38668.662    177.17098   -38845.833   -6533.5329 
  169800    303.83635   -38678.096    181.13569   -38859.232   -5003.1582 
  170000    303.08679    -38660.85    180.68883   -38841.539   -21587.356 
  170200    320.45873   -38644.738    191.04532   -38835.783    17060.953 
  170400    299.16936    -38681.67    178.35341   -38860.023   -9405.2722 
  170600    287.40189   -38662.514    171.33809   -38833.852    225.68728 
  170800    293.46788   -38642.226     174.9544   -38817.181   -10375.346 
  171000    271.77864   -38685.885     162.0241   -38847.909   -4837.7199 
  171200    323.41421   -38657.958    192.80727   -38850.766     24812.65 
  171400     282.2239   -38671.002    168.25117   -38839.253    11385.498 
  171600    293.18037   -38687.148      174.783   -38861.931   -2270.0936 
  171800    312.04542   -38667.005    186.02962   -38853.034    6920.8303 
  172000    316.54028   -38662.242    188.70929   -38850.951    25715.412 
  172200    299.94455   -38671.219    178.81554   -38850.035    7198.7789 
  172400    288.73638   -38673.401    172.13366   -38845.535   -13002.476 
  172600    302.30327   -38687.602    180.22173   -38867.823   -12841.358 
  172800    305.21135   -38656.006    181.95541   -38837.961    19535.896 
  173000    332.06514   -38664.884    197.96462   -38862.848    31815.479 
  173200    286.64839   -38688.198    170.88888   -38859.087   -8127.6151 
  173400    310.33985   -38660.309    185.01283   -38845.322   -4944.6516 
  173600    288.82818   -38686.292    172.18839   -38858.481   -19906.059 
  173800     276.2965   -38687.798    164.71748   -38852.516   -5253.7895 
  174000    318.05432   -38657.957     189.6119   -38847.569   -5039.7965 
  174200    280.29547   -38681.577    167.10151   -38848.679    28871.657 
  174400    277.00562   -38692.685    165.14023   -38857.825    8110.1675 
  174600    295.87609    -38665.72    176.39009    -38842.11    12994.329 
  174800    294.50915   -38664.554    175.57517    -38840.13    7521.4869 
  175000    295.75338   -38691.462    176.31693   -38867.779    -9501.195 
  175200    294.88234    -38689.97    175.79765   -38865.768   -17091.924 
  175400    291.35716    -38660.26    173.69607   -38833.956   -8666.6564 
  175600    289.80753   -38678.789    172.77224   -38851.561    12825.738 
  175800    285.01674   -38695.046    169.91615   -38864.962   -19233.842 
  176000    311.14659   -38659.855    185.49378   -38845.349    4547.7819 
  176200    293.97935   -38682.565    175.25932   -38857.824    -29159.15 
  176400     296.4493   -38671.472    176.73181   -38848.204    -1272.431 
  176600    353.71971   -38646.871    210.87425   -38857.746   -5766.5277 
  176800    296.19129   -38667.493    176.57799   -38844.071    11730.638 
  177000    278.64285    -38685.12    166.11628   -38851.236   -24189.049 
  177200    292.41269    -38678.36    174.32534   -38852.685   -31953.765 
  177400    297.23708   -38652.733    177.20145   -38829.935    8255.9607 
  177600    265.89497   -38688.234    158.51648   -38846.751   -20874.259 
  177800    312.65652   -38672.059    186.39394   -38858.453   -8046.4934 
[...]
  950000    321.88465   -38650.065     191.8954    -38841.96    13414.694 
  950200    323.12769   -38673.987    192.63646   -38866.624   -17800.145 
  950400    276.16532   -38691.631    164.63927   -38856.271   -2354.4915 
  950600    293.08142   -38675.081    174.72401   -38849.805   -12592.299 
  950800    295.98056   -38662.922    176.45237   -38839.375   -1192.6025 
  951000    282.95123   -38678.561    168.68477   -38847.246   -4100.5111 
  951200    302.39485   -38688.995    180.27632   -38869.271   -19363.285 
  951400     298.4744   -38656.198     177.9391   -38834.137    18555.323 
  951600    289.11277   -38677.867    172.35805   -38850.225   -13170.031 
  951800    321.90527   -38671.821    191.90769   -38863.728    10296.238 
  952000    308.68781   -38646.467    184.02795   -38830.495   -12075.432 
  952200    299.97385   -38681.293    178.83301   -38860.126    24292.264 
  952400    323.57638   -38670.701    192.90394   -38863.605    3463.8327 
  952600    309.21051   -38630.845    184.33956   -38815.185    56764.273 
  952800    289.17647   -38663.095    172.39602   -38835.492   -15234.034 
  953000    311.09414   -38677.446    185.46251   -38862.908    28504.763 
  953200    288.70173   -38680.881    172.11301   -38852.994    40338.487 
  953400    314.50358   -38651.328    187.49509   -38838.823    5325.7168 
  953600    294.51547    -38673.63    175.57893   -38849.209    27002.545 
  953800    299.35893   -38675.644    178.46642   -38854.111   -442.16933 
  954000    319.54267   -38664.059     190.4992   -38854.559    13121.098 
  954200    311.35012   -38661.417    185.61511   -38847.032    4423.3583 
  954400    284.88147   -38689.845    169.83551   -38859.681    9272.9371 
  954600    323.71539   -38665.199    192.98681   -38858.186    6906.8005 
  954800    283.61497   -38659.029    169.08047   -38828.109   -26271.403 
  955000    287.21869   -38693.936    171.22887   -38865.165   -28965.629 
  955200    287.81677   -38681.935    171.58542    -38853.52    12401.636 
  955400    288.77699   -38665.086    172.15787   -38837.244   -6483.8641 
  955600    303.81235   -38654.268    181.12138   -38835.389   -2719.3868 
  955800    271.42813   -38687.099    161.81514   -38848.914   -8965.8686 
  956000    292.38265   -38668.803    174.30743   -38843.111    38896.839 
  956200     286.6272   -38658.609    170.87625   -38829.485    1083.2873 
  956400    294.51035   -38682.706    175.57588   -38858.282    2123.7293 
  956600      266.613   -38711.418    158.94454   -38870.363   -27794.023 
  956800    291.63374   -38668.952    173.86096   -38842.813   -9017.5757 
  957000    315.35415   -38652.458    188.00216    -38840.46   -5347.3011 
  957200    300.40259   -38685.184    179.08861   -38864.272    7274.9915 
  957400    311.23738   -38677.521     185.5479   -38863.069   -18187.584 
  957600     299.3826   -38662.743    178.48053   -38841.224    4132.2043 
  957800    275.28726   -38672.305    164.11581   -38836.421    42016.399 
  958000    299.31094   -38646.919    178.43781   -38825.357    2266.9271 
  958200    293.08829    -38670.15     174.7281   -38844.878    723.58883 
  958400    291.26716   -38675.593    173.64242   -38849.235    -17742.99 
  958600    312.59226   -38639.703    186.35563   -38826.058   -6096.9501 
  958800    299.31826   -38657.845    178.44217   -38836.287   -14029.391 
  959000    292.91928   -38676.543    174.62735    -38851.17   -30378.542 
  959200    318.67501   -38672.233    189.98193   -38862.215   -26872.308 
  959400    299.73302   -38646.891    178.68944   -38825.581   -20874.575 
  959600    277.04635   -38681.701    165.16451   -38846.866   -626.39849 
  959800    301.42264   -38668.863    179.69673    -38848.56   -19900.341 
  960000    317.66427     -38635.7    189.37937   -38825.079   -11323.497 
  960200    306.80341   -38649.419    182.90454   -38832.323   -26675.566 
  960400    281.91306   -38679.064    168.06586   -38847.129   -21001.586 
  960600    311.47231   -38670.424    185.68796   -38856.112   -1224.1182 
  960800    312.79539   -38650.366    186.47673   -38836.842    7589.5778 
  961000     296.9349   -38671.118    177.02131   -38848.139    25530.553 
  961200    290.26565   -38672.067    173.04535   -38845.112   -24878.242 
  961400    319.98102   -38630.011    190.76053   -38820.771   -46965.362 
  961600     293.7386   -38658.629    175.11579   -38833.745    16877.968 
  961800    283.56724   -38678.349    169.05202   -38847.401    31389.865 
  962000    301.41518   -38671.294    179.69228   -38850.986   -10214.919 
  962200    325.66408   -38648.168    194.14855   -38842.317    31099.217 
  962400    280.11705   -38685.166    166.99514   -38852.161    23131.981 
  962600    319.72874   -38671.771    190.61013   -38862.382    30942.795 
  962800     312.4763   -38633.758     186.2865   -38820.045   -25445.233 
  963000    291.61472   -38673.751    173.84962     -38847.6   -11630.817 
  963200    305.84259   -38678.247    182.33174   -38860.579    4535.8672 
  963400    293.98305     -38653.1    175.26152   -38828.361    8513.9678 
  963600    266.00436   -38673.036    158.58169   -38831.618   -9083.9322 
  963800    281.60927   -38687.101    167.88475   -38854.986    14062.051 
  964000    299.64796   -38653.275    178.63873   -38831.914    2824.2605 
  964200    298.34336   -38670.388    177.86098   -38848.249   -37793.219 
  964400    282.85842   -38685.076    168.62944   -38853.705   -26254.954 
  964600    277.32062   -38689.066    165.32802   -38854.394    24270.252 
  964800     304.2784   -38656.651    181.39922    -38838.05   -26076.955 
  965000    301.81927   -38681.098    179.93318   -38861.031   -20610.388 
  965200    266.51208   -38689.406    158.88437   -38848.291   -1437.3711 
  965400    301.34774   -38669.252    179.65207   -38848.904   -5530.0496 
  965600    312.25634    -38652.15    186.15537   -38838.305   -18170.317 
  965800    297.21222   -38670.836    177.18663   -38848.022    3920.3244 
  966000    295.81621   -38686.154    176.35439   -38862.508    15253.842 
  966200    323.46847   -38645.371    192.83961    -38838.21    6323.3151 
  966400    279.30373   -38664.737    166.51027   -38831.247   -18943.482 
  966600    295.64843   -38676.038    176.25436   -38852.292   -17326.043 
  966800    280.56958   -38670.283    167.26492   -38837.548    7002.1051 
  967000    303.92086   -38668.742    181.18607   -38849.928    21346.017 
  967200    315.91346   -38640.775     188.3356   -38829.111   -7823.8077 
  967400    299.98075   -38665.035    178.83713   -38843.872   -16882.644 
  967600    282.27086   -38681.129    168.27916   -38849.408    -25138.05 
  967800    326.43524   -38652.191    194.60829   -38846.799   -18240.804 
  968000    333.13274   -38638.207    198.60108   -38836.808    22109.116 
  968200     305.7956    -38671.14    182.30372   -38853.444   -25570.415 
  968400     299.8413    -38684.96    178.75399   -38863.714    4032.2532 
  968600    292.14136   -38645.609    174.16358   -38819.773    11869.728 
  968800    322.78087   -38670.714    192.42969   -38863.144   -7480.0875 
  969000    265.78498    -38676.22    158.45091   -38834.671     25866.24 
  969200    303.48219   -38670.241    180.92455   -38851.166    -17173.85 
  969400    351.31818   -38631.843    209.44255   -38841.286   -27002.275 
  969600    301.57997   -38663.315    179.79052   -38843.106     13670.75 
  969800    273.51221   -38674.936    163.05759   -38837.994    9494.8675 
  970000    309.39957   -38662.365    184.45227   -38846.817   -444.77845 
  970200     315.4362   -38649.421    188.05108   -38837.472    6.8722598 
  970400    253.33279   -38681.985    151.02738   -38833.013    23494.935 
  970600      289.175   -38665.198    172.39515   -38837.593    24703.094 
  970800    308.99077   -38630.154    184.20856   -38814.363    -6550.227 
  971000    292.65359   -38674.236    174.46895   -38848.705    10776.104 
  971200    315.35591    -38674.97    188.00321   -38862.973    25478.239 
  971400    295.18852   -38652.594    175.98018   -38828.574      4081.47 
  971600    301.60591    -38668.28    179.80598   -38848.086   -43399.333 
  971800    315.30218   -38683.158    187.97118   -38871.129    3633.9043 
  972000    338.19106   -38647.974    201.61666   -38849.591   -29577.565 
  972200    303.04048   -38662.802    180.66122   -38843.463   -829.78117 
  972400    312.21592   -38678.325    186.13127   -38864.456    18474.871 
  972600    287.68917   -38659.801    171.50936    -38831.31    2052.5835 
  972800    320.70371   -38656.411    191.19137   -38847.602    10009.252 
  973000    298.58691    -38685.83    178.00617   -38863.837    4805.7999 
  973200    317.88685   -38668.879    189.51206   -38858.391   -1803.7618 
  973400    289.52674   -38666.495    172.60484     -38839.1     8178.645 
  973600    271.22358   -38679.988    161.69319   -38841.682    62911.624 
  973800    284.42174   -38679.316    169.56144   -38848.877     13012.42 
  974000    332.08017   -38651.832    197.97358   -38849.805   -5334.4605 
  974200    293.25122   -38687.286    174.82524   -38862.111   -10291.759 
  974400    285.35927   -38676.983    170.12035   -38847.104    966.35511 
  974600     309.0508   -38657.881    184.24435   -38842.125    2397.4538 
  974800    268.69882   -38692.123    160.18803   -38852.311   -12792.134 
  975000    280.24489   -38676.211    167.07135   -38843.283    -5946.485 
  975200    303.58194   -38664.423    180.98402   -38845.407    29488.236 
  975400    304.31783   -38671.571    181.42273   -38852.994    6127.5872 
  975600    253.02267   -38698.571    150.84251   -38849.413    11507.332 
  975800    306.88589   -38661.612    182.95371   -38844.566   -25990.329 
  976000    312.50145   -38666.138    186.30149   -38852.439   -11278.432 
  976200     287.0047   -38696.839     171.1013   -38867.941    23705.495 
  976400    322.20463   -38652.951    192.08616   -38845.037    26861.607 
  976600    286.09684   -38672.137    170.56007   -38842.697   -23199.662 
  976800    301.99911   -38681.529    180.04039    -38861.57   -21726.338 
  977000    325.69635   -38643.733    194.16779   -38837.901    19760.738 
  977200    324.78718   -38669.567    193.62578   -38863.193    30531.997 
  977400    276.09736   -38676.433    164.59876   -38841.032   -29799.944 
  977600    328.70217   -38638.101    195.95975   -38834.061    19688.877 
  977800    297.07882   -38665.839    177.10711   -38842.946    10734.986 
  978000    313.74241   -38674.893     187.0413   -38861.934     13119.57 
  978200    293.49279   -38677.075    174.96925   -38852.045   -10002.429 
  978400    285.97261   -38659.423    170.48601   -38829.909   -13931.432 
  978600    300.71599   -38680.437    179.27545   -38859.713    5683.1467 
  978800    291.50568   -38684.381    173.78461   -38858.165   -10757.893 
  979000    304.60548   -38660.396    181.59422   -38841.991    -16804.93 
  979200    269.08348   -38690.543    160.41735   -38850.961   -10534.396 
  979400     299.3662   -38680.001    178.47075   -38858.472   -26570.605 
  979600    311.27751   -38658.881    185.57183   -38844.453   -12177.419 
  979800    256.48276   -38695.544    152.90528    -38848.45   -7840.2651 
  980000       288.89    -38680.74    172.22525   -38852.966     30755.35 
  980200    307.68534   -38669.595    183.43031   -38853.025   -13373.173 
  980400    318.91087   -38658.517    190.12254    -38848.64    20838.289 
  980600    262.86379   -38690.308    156.70941   -38847.017   -8128.1345 
  980800    299.59863   -38674.171    178.60932    -38852.78   -23150.206 
  981000    312.35509    -38666.83    186.21424   -38853.044    2397.2748 
  981200    297.38481   -38681.553    177.28952   -38858.843   -20636.687 
  981400    276.56392   -38687.178     164.8769   -38852.054    24389.821 
  981600     327.8239   -38655.768    195.43615   -38851.205     -38784.2 
  981800    295.90213    -38680.09    176.40561   -38856.495   -3526.1756 
  982000    248.83484   -38693.362    148.34588   -38841.708   -6955.5872 
  982200    295.70574   -38666.089    176.28853   -38842.378    3502.6368 
  982400    286.82921   -38668.974    170.99668   -38839.971    20022.698 
  982600    265.87249   -38698.215    158.50308   -38856.718   -1506.8726 
  982800    281.99443    -38670.31    168.11437   -38838.424   -31860.336 
  983000    333.56128   -38663.586    198.85656   -38862.443    5730.6017 
  983200    280.49583    -38691.46    167.22096   -38858.681   -28625.005 
  983400    326.01191   -38653.543    194.35592   -38847.899    18724.179 
  983600    308.90939   -38669.912    184.16004   -38854.073   -21430.633 
  983800    297.69538   -38679.772    177.47468   -38857.247   -9522.0511 
  984000    363.29657   -38631.375    216.58361   -38847.958    3717.7667 
  984200    294.27753   -38666.147    175.43708   -38841.584    215.52044 
  984400    265.62613   -38679.895    158.35621   -38838.252    21092.004 
  984600    332.93732   -38662.047    198.48458   -38860.532    20109.928 
  984800    297.56913   -38660.803    177.39941   -38838.203    22418.321 
  985000    294.92129   -38692.754    175.82087   -38868.575    -24191.74 
  985200    288.32398    -38661.03     171.8878   -38832.918   -29136.778 
  985400    301.76225   -38663.691    179.89919    -38843.59   -10904.236 
  985600    293.12765   -38688.937    174.75157   -38863.688   -14966.133 
  985800    302.31697   -38652.332    180.22989   -38832.562   -8890.5406 
  986000    291.87054   -38664.228    174.00213    -38838.23   -6822.2525 
  986200     297.2251   -38685.302    177.19431   -38862.496   -9575.4843 
  986400     328.5767   -38642.281    195.88495   -38838.166    3940.1242 
  986600    304.16005   -38671.323    181.32867   -38852.652   -32257.617 
  986800    297.42343   -38678.403    177.31255   -38855.716    10571.117 
  987000    333.21754   -38643.847    198.65164   -38842.499   -4672.0569 
  987200    323.28291   -38673.261    192.72899    -38865.99    15086.848 
  987400    318.29815   -38673.014    189.75727   -38862.771    25008.676 
  987600    309.09726   -38656.935    184.27205   -38841.207    23380.738 
  987800    305.16888    -38666.79    181.93009    -38848.72    5866.5196 
  988000    271.03063   -38683.767    161.57817   -38845.345    20363.953 
  988200    305.73799   -38643.274    182.26937   -38825.543   -19921.742 
  988400    313.85678   -38666.586    187.10949   -38853.696   -13943.199 
  988600    278.66939   -38687.807     166.1321   -38853.939    13205.065 
  988800    316.21988    -38658.89    188.51828   -38847.408    2922.6384 
  989000    296.57097   -38670.338    176.80434   -38847.143    6975.9757 
  989200    321.54369   -38675.145    191.69213   -38866.837   -13076.712 
  989400    288.97953   -38665.049    172.27862   -38837.328    962.55679 
  989600    315.18341   -38641.722    187.90038   -38829.622    19495.206 
  989800    287.58229   -38681.752    171.44564   -38853.198    -8916.082 
  990000    317.52138   -38662.368    189.29418   -38851.662   -10526.542 
  990200    287.70405   -38657.142    171.51823    -38828.66   -28929.843 
  990400    273.75731   -38689.058    163.20371   -38852.262   -2966.4259 
  990600    293.31304   -38669.908    174.86209    -38844.77   -17841.323 
  990800    304.73257   -38662.207    181.66998   -38843.877    -29069.05 
  991000    296.67866    -38686.37    176.86855   -38863.239    36965.782 
  991200      272.868   -38705.811    162.67354   -38868.484   -10130.613 
  991400    298.14201   -38665.424    177.74094   -38843.165    -3388.293 
  991600    313.21652   -38670.755    186.72779   -38857.483   -14077.252 
  991800    254.85721   -38688.456    151.93619   -38840.392   -7176.4292 
  992000    326.61886   -38647.771    194.71776   -38842.488    14106.595 
  992200    272.76677   -38676.845    162.61319   -38839.458     323.6393 
  992400    282.41522   -38684.874    168.36523   -38853.239    35457.672 
  992600    326.74573   -38653.517    194.79339    -38848.31   -4317.3429 
  992800    284.50232   -38675.727    169.60948   -38845.336    25257.546 
  993000    305.57746   -38678.586    182.17367    -38860.76    21371.622 
  993200    301.33165    -38648.29    179.64248   -38827.932    25648.009 
  993400    298.78748    -38680.62    178.12574   -38858.745    10181.434 
  993600    282.96725   -38679.447    168.69432   -38848.142   -19753.231 
  993800    311.47836   -38651.249    185.69157    -38836.94   -6194.5625 
  994000    280.07341    -38682.59    166.96913   -38849.559   -13838.401 
  994200    290.04691   -38674.897    172.91495   -38847.812    1552.5905 
  994400    317.14079   -38647.375    189.06729   -38836.442   -6378.2781 
  994600    315.42666   -38684.362    188.04539   -38872.408    29257.101 
  994800    306.85171   -38668.384    182.93333   -38851.317    4876.0944 
  995000    315.23994   -38658.985    187.93408   -38846.919   -7957.1291 
  995200     269.9723   -38707.106    160.94723   -38868.054   -5840.8029 
  995400    289.73396   -38668.848    172.72838   -38841.576   -20669.138 
  995600    301.08492   -38656.148    179.49539   -38835.644   -16047.414 
  995800    310.43429    -38690.57    185.06913   -38875.639    11637.415 
  996000    308.07497   -38676.585     183.6626   -38860.247   -4167.0663 
  996200    292.47582   -38670.031    174.36297   -38844.394    19347.763 
  996400    293.97099   -38667.943    175.25434   -38843.198   -4332.3856 
  996600    288.15106   -38656.039    171.78472   -38827.824    14089.302 
  996800    292.85847   -38682.825     174.5911   -38857.416    20201.995 
  997000    292.38095   -38670.698    174.30642   -38845.004    -31241.22 
  997200    311.89046   -38635.881    185.93725   -38821.818    5164.8703 
  997400     303.3999    -38674.26    180.87549   -38855.136   -30572.326 
  997600    306.98425   -38675.503    183.01235   -38858.515    7637.2602 
  997800    308.54546   -38638.672    183.94308   -38822.615   -6044.2836 
  998000    312.29139   -38669.687    186.17626   -38855.864    9314.8924 
  998200    295.85565   -38671.576     176.3779   -38847.954   -11188.606 
  998400    321.78315   -38650.937    191.83489   -38842.772   -4917.0135 
  998600    295.27005    -38677.35    176.02878   -38853.379   -550.54353 
  998800    301.36255   -38678.885     179.6609   -38858.546   -1628.6985 
  999000    337.33743   -38643.744    201.10776   -38844.852    8626.3999 
  999200    309.13898   -38672.937    184.29692   -38857.234   -36870.633 
  999400    284.39691    -38687.81    169.54664   -38857.357    22884.147 
  999600    294.75072   -38658.189    175.71918   -38833.908   -39910.592 
  999800    270.10542   -38683.263    161.02659   -38844.289    4118.0748 
 1000000    264.68154   -38689.603    157.79308   -38847.396   -3292.0937 
Loop time of 7885.56 on 8 procs for 1000000 steps with 201 atoms

Performance: 2.739 ns/day, 8.762 hours/ns, 126.814 timesteps/s
99.2% CPU use with 8 MPI tasks x no OpenMP threads

MPI task timing breakdown:
Section |  min time  |  avg time  |  max time  |%varavg| %total
---------------------------------------------------------------
Pair    | 6740.2     | 6879.8     | 7055.9     | 100.6 | 87.25
Neigh   | 0          | 0          | 0          |   0.0 |  0.00
Comm    | 43.127     | 219.01     | 358.19     | 562.4 |  2.78
Output  | 0.13116    | 0.14246    | 0.21514    |   7.3 |  0.00
Modify  | 780.61     | 781.36     | 781.92     |   1.4 |  9.91
Other   |            | 5.251      |            |       |  0.07

Nlocal:    25.125 ave 28 max 22 min
Histogram: 1 0 0 3 0 0 2 0 1 1
Nghost:    963.375 ave 972 max 954 min
Histogram: 1 1 0 1 0 2 1 0 0 2
Neighs:    4300.25 ave 4688 max 3868 min
Histogram: 1 0 0 3 0 0 2 0 1 1

Total # of neighbors = 34402
Ave neighs/atom = 171.154
Neighbor list builds = 0
Dangerous builds = 0

unfix 1
unfix output
undump 1

Please see the log.cite file for references relevant to this simulation

Total wall time: 2:11:34
