ITEM: TIMESTEP
0
ITEM: NUMBER OF ATOMS
146
ITEM: BOX BOUNDS pp pp pp
0.0000000000000000e+00 2.1884000000000000e+01
0.0000000000000000e+00 2.1885999999999999e+01
0.0000000000000000e+00 2.1885000000000002e+01
ITEM: ATOMS id type x y z 
145 2 10.603 9.33 8.575 
146 3 9.627 9.33 8.575 
16 1 1.605 12.547 12.547 
32 1 0.024 10.965 10.965 
64 1 4.318 12.218 12.218 
68 1 1.276 15.26 12.218 
78 1 1.276 12.218 15.26 
112 1 3.118 12.317 12.317 
116 1 1.375 14.061 12.317 
126 1 1.375 12.317 14.061 
144 1 0.722 11.664 11.663 
9 1 8.524 12.547 12.547 
25 1 10.105 10.965 10.965 
57 1 5.811 12.218 12.218 
65 1 8.853 15.26 12.218 
73 1 8.853 12.219 15.26 
105 1 7.01 12.317 12.317 
113 1 8.754 14.061 12.317 
121 1 8.754 12.317 14.061 
137 1 9.407 11.664 11.664 
11 1 1.605 19.466 12.547 
27 1 0.023 21.047 10.964 
59 1 4.318 19.795 12.218 
69 1 1.276 16.754 12.218 
79 1 1.276 19.795 15.26 
107 1 3.119 19.696 12.317 
117 1 1.375 17.953 12.317 
127 1 1.375 19.696 14.061 
139 1 0.721 20.349 11.663 
14 1 8.524 19.467 12.547 
30 1 10.106 21.049 10.966 
62 1 5.811 19.795 12.218 
72 1 8.853 16.753 12.218 
76 1 8.853 19.796 15.26 
110 1 7.01 19.696 12.317 
120 1 8.754 17.953 12.317 
124 1 8.754 19.697 14.061 
142 1 9.407 20.35 11.664 
13 1 1.605 12.547 19.466 
29 1 0.023 10.966 21.048 
61 1 4.318 12.218 19.795 
71 1 1.276 15.26 19.795 
75 1 1.276 12.218 16.754 
109 1 3.119 12.317 19.696 
119 1 1.375 14.061 19.696 
123 1 1.375 12.317 17.953 
141 1 0.721 11.664 20.35 
12 1 8.524 12.547 19.466 
28 1 10.106 10.965 21.047 
60 1 5.811 12.219 19.795 
70 1 8.853 15.26 19.796 
80 1 8.853 12.219 16.754 
108 1 7.011 12.317 19.696 
118 1 8.754 14.061 19.696 
128 1 8.754 12.318 17.953 
140 1 9.408 11.664 20.349 
10 1 1.604 19.466 19.466 
26 1 0.023 21.047 21.049 
58 1 4.317 19.796 19.795 
66 1 1.276 16.754 19.795 
74 1 1.276 19.795 16.753 
106 1 3.118 19.696 19.696 
114 1 1.375 17.953 19.696 
122 1 1.375 19.696 17.952 
138 1 0.721 20.349 20.35 
15 1 8.524 19.467 19.466 
31 1 10.106 21.048 21.049 
63 1 5.811 19.796 19.795 
67 1 8.853 16.754 19.795 
77 1 8.853 19.796 16.753 
111 1 7.01 19.697 19.696 
115 1 8.754 17.953 19.696 
125 1 8.754 19.697 17.952 
143 1 9.407 20.35 20.35 
8 1 12.547 1.604 1.605 
24 1 10.965 0.023 0.022 
40 1 15.26 1.275 1.276 
44 1 12.218 4.317 1.276 
54 1 12.218 1.275 4.318 
88 1 14.061 1.374 1.375 
92 1 12.317 3.118 1.375 
102 1 12.317 1.374 3.119 
136 1 11.664 0.721 0.721 
1 1 19.466 1.604 1.604 
17 1 21.048 0.023 0.022 
33 1 16.753 1.275 1.276 
41 1 19.795 4.317 1.276 
49 1 19.795 1.275 4.317 
81 1 17.952 1.374 1.375 
89 1 19.696 3.118 1.375 
97 1 19.696 1.374 3.118 
129 1 20.35 0.722 0.721 
3 1 12.546 8.524 1.604 
19 1 10.965 10.106 0.024 
35 1 15.26 8.852 1.276 
45 1 12.218 5.811 1.275 
55 1 12.218 8.852 4.317 
83 1 14.06 8.753 1.375 
93 1 12.317 7.01 1.374 
103 1 12.317 8.753 3.118 
131 1 11.663 9.407 0.722 
6 1 19.466 8.524 1.605 
22 1 21.048 10.105 0.023 
38 1 16.753 8.852 1.276 
48 1 19.795 5.811 1.276 
52 1 19.795 8.853 4.318 
86 1 17.952 8.754 1.375 
96 1 19.696 7.01 1.375 
100 1 19.696 8.754 3.118 
134 1 20.35 9.407 0.721 
5 1 12.547 1.604 8.524 
21 1 10.965 0.022 10.105 
37 1 15.26 1.275 8.853 
47 1 12.218 4.317 8.853 
51 1 12.218 1.276 5.811 
85 1 14.06 1.374 8.754 
95 1 12.317 3.118 8.754 
99 1 12.317 1.375 7.01 
133 1 11.663 0.72 9.407 
4 1 19.466 1.605 8.524 
20 1 21.048 0.024 10.107 
36 1 16.753 1.275 8.853 
46 1 19.795 4.317 8.853 
56 1 19.795 1.275 5.811 
84 1 17.952 1.374 8.754 
94 1 19.695 3.118 8.754 
104 1 19.696 1.374 7.01 
132 1 20.35 0.722 9.408 
2 1 12.547 8.524 8.524 
18 1 10.965 10.106 10.106 
34 1 15.26 8.853 8.853 
42 1 12.218 5.811 8.853 
50 1 12.218 8.852 5.811 
82 1 14.061 8.754 8.754 
90 1 12.317 7.01 8.754 
98 1 12.317 8.754 7.01 
130 1 11.664 9.407 9.407 
7 1 19.466 8.524 8.524 
23 1 21.047 10.106 10.106 
39 1 16.753 8.853 8.853 
43 1 19.795 5.811 8.853 
53 1 19.795 8.853 5.811 
87 1 17.952 8.754 8.754 
91 1 19.696 7.01 8.754 
101 1 19.696 8.754 7.01 
135 1 20.349 9.407 9.407 
ITEM: TIMESTEP
10
ITEM: NUMBER OF ATOMS
146
ITEM: BOX BOUNDS pp pp pp
0.0000000000000000e+00 2.1884000000000000e+01
0.0000000000000000e+00 2.1885999999999999e+01
0.0000000000000000e+00 2.1885000000000002e+01
ITEM: ATOMS id type x y z 
145 2 10.6227 9.33454 8.62151 
146 3 9.61758 9.3265 8.55594 
16 1 1.60487 12.5469 12.5472 
32 1 0.0238835 10.9652 10.9652 
64 1 4.31983 12.2181 12.2181 
68 1 1.2764 15.2598 12.2184 
78 1 1.27643 12.2184 15.2598 
112 1 3.11549 12.3175 12.3175 
116 1 1.37528 14.0611 12.3172 
126 1 1.37529 12.3173 14.0611 
144 1 0.72193 11.6638 11.6632 
9 1 8.53381 12.5373 12.5365 
25 1 10.1162 10.9566 10.9605 
57 1 5.80961 12.2185 12.2185 
65 1 8.85252 15.2615 12.2185 
73 1 8.85254 12.2192 15.262 
105 1 7.00991 12.3161 12.3161 
113 1 8.75495 14.0612 12.3161 
121 1 8.75496 12.3164 14.0609 
137 1 9.40658 11.6627 11.6642 
11 1 1.60488 19.4664 12.5466 
27 1 0.0231755 21.0476 10.9643 
59 1 4.31724 19.7946 12.2184 
69 1 1.27636 16.7536 12.2184 
79 1 1.27641 19.7946 15.2593 
107 1 3.11962 19.6959 12.3172 
117 1 1.37514 17.9524 12.3172 
127 1 1.37513 19.6959 14.0615 
139 1 0.720895 20.3494 11.663 
14 1 8.52419 19.4666 12.5471 
30 1 10.1068 21.0499 10.9648 
62 1 5.8119 19.7945 12.2184 
72 1 8.85283 16.7514 12.2182 
76 1 8.85254 19.7956 15.2592 
110 1 7.00916 19.696 12.3171 
120 1 8.75354 17.9554 12.3175 
124 1 8.75382 19.6967 14.0619 
142 1 9.40641 20.3491 11.6648 
13 1 1.60491 12.5469 19.4666 
29 1 0.02377 10.9663 21.0476 
61 1 4.31683 12.2186 19.7945 
71 1 1.27641 15.2599 19.7946 
75 1 1.27639 12.2184 16.7537 
109 1 3.1197 12.3172 19.6959 
119 1 1.37523 14.0613 19.6958 
123 1 1.37514 12.3172 17.9523 
141 1 0.71998 11.663 20.3508 
12 1 8.52416 12.5472 19.4663 
28 1 10.1061 10.9648 21.0478 
60 1 5.80927 12.2188 19.7948 
70 1 8.85265 15.2606 19.7953 
80 1 8.8527 12.2194 16.7535 
108 1 7.01315 12.3178 19.6956 
118 1 8.75373 14.0609 19.6961 
128 1 8.75377 12.3181 17.953 
140 1 9.40767 11.6641 20.3489 
10 1 1.60424 19.4662 19.4663 
26 1 0.0229681 21.0473 21.0488 
58 1 4.31764 19.7954 19.7947 
66 1 1.27638 16.7535 19.7947 
74 1 1.27642 19.7946 16.7536 
106 1 3.11798 19.6961 19.6957 
114 1 1.37505 17.9526 19.6958 
122 1 1.37502 19.6959 17.9517 
138 1 0.72128 20.3494 20.3499 
15 1 8.52405 19.4668 19.4663 
31 1 10.1063 21.0485 21.0492 
63 1 5.8112 19.7956 19.7945 
67 1 8.85255 16.7543 19.7947 
77 1 8.85254 19.7955 16.754 
111 1 7.00977 19.6968 19.6958 
115 1 8.75369 17.9528 19.6957 
125 1 8.75378 19.6968 17.9514 
143 1 9.40643 20.3494 20.3491 
8 1 12.5468 1.60414 1.60466 
24 1 10.9647 0.0223954 0.0217078 
40 1 15.2592 1.27543 1.27646 
44 1 12.2185 4.31693 1.27629 
54 1 12.2184 1.27561 4.31717 
88 1 14.0616 1.37419 1.37517 
92 1 12.3173 3.11836 1.37528 
102 1 12.3172 1.37413 3.11966 
136 1 11.6645 0.721553 0.721865 
1 1 19.4661 1.60396 1.60435 
17 1 21.0488 0.0217618 0.0216079 
33 1 16.7537 1.2754 1.27648 
41 1 19.7946 4.31716 1.27645 
49 1 19.7946 1.27537 4.31721 
81 1 17.9515 1.37427 1.37503 
89 1 19.6958 3.11841 1.37508 
97 1 19.6959 1.37425 3.11837 
129 1 20.3487 0.722902 0.721595 
3 1 12.5464 8.52391 1.60487 
19 1 10.9649 10.1061 0.0232256 
35 1 15.262 8.85177 1.27619 
45 1 12.2184 5.81066 1.2755 
55 1 12.2183 8.85157 4.31877 
83 1 14.0574 8.75266 1.37539 
93 1 12.317 7.00983 1.37428 
103 1 12.317 8.75292 3.12062 
131 1 11.6633 9.40694 0.722169 
6 1 19.4661 8.52368 1.60432 
22 1 21.0472 10.1041 0.0231188 
38 1 16.7544 8.85171 1.27655 
48 1 19.7946 5.81115 1.27644 
52 1 19.7948 8.85286 4.31997 
86 1 17.9509 8.75358 1.37509 
96 1 19.6958 7.00949 1.37523 
100 1 19.6956 8.75355 3.11593 
134 1 20.3509 9.40881 0.720977 
5 1 12.5468 1.60496 8.52465 
21 1 10.9662 0.0229729 10.1045 
37 1 15.2621 1.27514 8.85282 
47 1 12.2184 4.31899 8.85255 
51 1 12.2184 1.27633 5.81161 
85 1 14.0578 1.3745 8.75359 
95 1 12.3172 3.12079 8.75384 
99 1 12.3172 1.37512 7.00946 
133 1 11.6618 0.719427 9.40724 
4 1 19.4659 1.60444 8.52419 
20 1 21.0477 0.0236566 10.1065 
36 1 16.7543 1.27548 8.85246 
46 1 19.7943 4.31752 8.85266 
56 1 19.7945 1.2754 5.81115 
84 1 17.9511 1.37432 8.75381 
94 1 19.6952 3.11828 8.75366 
104 1 19.6958 1.3744 7.00974 
132 1 20.3499 0.721674 9.40775 
2 1 12.6114 8.4694 8.4782 
18 1 10.9461 10.1482 10.1636 
34 1 15.2621 8.85431 8.85414 
42 1 12.2163 5.80997 8.85379 
50 1 12.2172 8.85312 5.81114 
82 1 14.0677 8.74836 8.74995 
90 1 12.3241 7.00405 8.74875 
98 1 12.3281 8.74598 7.00404 
130 1 11.5707 9.44798 9.38897 
7 1 19.4651 8.52424 8.52439 
23 1 21.0482 10.1068 10.1067 
39 1 16.7514 8.85256 8.85253 
43 1 19.7946 5.81091 8.85258 
53 1 19.7945 8.8525 5.8121 
87 1 17.9489 8.75376 8.75377 
91 1 19.6957 7.00973 8.75376 
101 1 19.6958 8.75382 7.00925 
135 1 20.3478 9.40613 9.40608 
ITEM: TIMESTEP
20
ITEM: NUMBER OF ATOMS
146
ITEM: BOX BOUNDS pp pp pp
0.0000000000000000e+00 2.1884000000000000e+01
0.0000000000000000e+00 2.1885999999999999e+01
0.0000000000000000e+00 2.1885000000000002e+01
ITEM: ATOMS id type x y z 
145 2 10.6237 9.33708 8.65554 
146 3 9.62252 9.32293 8.53978 
16 1 1.60485 12.5469 12.5468 
32 1 0.0235855 10.9651 10.9646 
64 1 4.31564 12.2186 12.2186 
68 1 1.27664 15.2602 12.2186 
78 1 1.27667 12.2187 15.2601 
112 1 3.11678 12.3176 12.3175 
116 1 1.37538 14.0611 12.3174 
126 1 1.3754 12.3174 14.0611 
144 1 0.721587 11.6634 11.6636 
9 1 8.53388 12.5365 12.5354 
25 1 10.122 10.9592 10.9713 
57 1 5.80763 12.2186 12.2186 
65 1 8.85244 15.2634 12.2187 
73 1 8.85236 12.2194 15.263 
105 1 7.00864 12.3141 12.3139 
113 1 8.75696 14.0624 12.3138 
121 1 8.75693 12.3144 14.0623 
137 1 9.40077 11.6689 11.6731 
11 1 1.60468 19.4664 12.5466 
27 1 0.0229364 21.0479 10.9646 
59 1 4.31756 19.7943 12.2186 
69 1 1.27661 16.7535 12.2186 
79 1 1.27666 19.7944 15.2597 
107 1 3.11843 19.6956 12.3174 
117 1 1.37533 17.9527 12.3173 
127 1 1.37536 19.6957 14.0605 
139 1 0.721474 20.3497 11.663 
14 1 8.52418 19.4665 12.5469 
30 1 10.1056 21.0485 10.9656 
62 1 5.81104 19.7944 12.2186 
72 1 8.8524 16.7555 12.2186 
76 1 8.85235 19.7954 15.26 
110 1 7.0102 19.6958 12.3174 
120 1 8.75348 17.9544 12.3176 
124 1 8.75361 19.6965 14.0609 
142 1 9.40797 20.3507 11.6641 
13 1 1.60479 12.5471 19.4664 
29 1 0.0228592 10.9656 21.0481 
61 1 4.31788 12.2188 19.7943 
71 1 1.27669 15.2601 19.7943 
75 1 1.27665 12.2186 16.7536 
109 1 3.11818 12.3175 19.6956 
119 1 1.37544 14.0608 19.6956 
123 1 1.37535 12.3174 17.9528 
141 1 0.721708 11.6637 20.3499 
12 1 8.52422 12.5472 19.4666 
28 1 10.1062 10.9651 21.0477 
60 1 5.81177 12.2191 19.7943 
70 1 8.85234 15.2605 19.7949 
80 1 8.85249 12.2195 16.7548 
108 1 7.01031 12.3178 19.6958 
118 1 8.75369 14.0615 19.6961 
128 1 8.75359 12.3183 17.9542 
140 1 9.40775 11.6635 20.3498 
10 1 1.60439 19.4665 19.4662 
26 1 0.0230085 21.0479 21.0486 
58 1 4.31738 19.795 19.7943 
66 1 1.27663 16.7535 19.7944 
74 1 1.27664 19.7944 16.7532 
106 1 3.11835 19.696 19.6956 
114 1 1.37521 17.9527 19.6956 
122 1 1.3752 19.6957 17.9524 
138 1 0.72095 20.3488 20.3503 
15 1 8.52399 19.4671 19.4662 
31 1 10.1056 21.0483 21.0484 
63 1 5.81089 19.7953 19.7943 
67 1 8.85229 16.754 19.7945 
77 1 8.85232 19.7953 16.7536 
111 1 7.01012 19.6966 19.6956 
115 1 8.75345 17.9532 19.6956 
125 1 8.75352 19.6966 17.9526 
143 1 9.40753 20.3497 20.3501 
8 1 12.5469 1.60392 1.6048 
24 1 10.9654 0.022531 0.0225791 
40 1 15.2597 1.27566 1.27671 
44 1 12.2187 4.31713 1.27651 
54 1 12.2187 1.27589 4.31772 
88 1 14.0606 1.37445 1.37542 
92 1 12.3175 3.11791 1.37548 
102 1 12.3174 1.37443 3.11848 
136 1 11.6633 0.721352 0.720821 
1 1 19.4663 1.60434 1.60422 
17 1 21.0479 0.0230363 0.0225842 
33 1 16.7532 1.27565 1.2767 
41 1 19.7943 4.31729 1.27673 
49 1 19.7943 1.27566 4.31742 
81 1 17.9524 1.3745 1.37522 
89 1 19.6956 3.11811 1.37526 
97 1 19.6957 1.37444 3.11827 
129 1 20.3496 0.721015 0.720771 
3 1 12.5464 8.52398 1.60554 
19 1 10.965 10.1056 0.0233534 
35 1 15.2589 8.8512 1.27672 
45 1 12.2187 5.81052 1.27579 
55 1 12.2173 8.85235 4.31918 
83 1 14.0604 8.7528 1.37545 
93 1 12.3171 7.00973 1.37463 
103 1 12.3174 8.75248 3.11878 
131 1 11.6635 9.40758 0.721697 
6 1 19.4663 8.52402 1.60509 
22 1 21.048 10.1053 0.0229458 
38 1 16.7529 8.85161 1.27671 
48 1 19.7943 5.81074 1.27674 
52 1 19.7943 8.8523 4.31693 
86 1 17.9527 8.75315 1.37537 
96 1 19.6956 7.01001 1.37539 
100 1 19.6956 8.7535 3.11838 
134 1 20.3493 9.40726 0.721335 
5 1 12.5465 1.60546 8.52419 
21 1 10.9649 0.0218935 10.1049 
37 1 15.2591 1.27562 8.85222 
47 1 12.2174 4.31893 8.85323 
51 1 12.2187 1.27645 5.81114 
85 1 14.0606 1.37468 8.75374 
95 1 12.3178 3.11789 8.75329 
99 1 12.3174 1.37548 7.01033 
133 1 11.6636 0.72118 9.40716 
4 1 19.466 1.60444 8.52408 
20 1 21.0479 0.0234276 10.1062 
36 1 16.7531 1.27564 8.85229 
46 1 19.794 4.31731 8.85234 
56 1 19.7942 1.27571 5.81096 
84 1 17.9528 1.37467 8.75347 
94 1 19.6951 3.11821 8.75347 
104 1 19.6955 1.37465 7.01013 
132 1 20.3492 0.721404 9.40776 
2 1 12.6206 8.46242 8.47347 
18 1 10.9548 10.1533 10.1725 
34 1 15.268 8.85638 8.85623 
42 1 12.2146 5.80604 8.85498 
50 1 12.2169 8.85391 5.80843 
82 1 14.0675 8.74234 8.74579 
90 1 12.3332 7.00482 8.74286 
98 1 12.34 8.73656 7.00542 
130 1 11.5231 9.45562 9.35352 
7 1 19.4644 8.52426 8.52432 
23 1 21.0475 10.1054 10.1053 
39 1 16.7521 8.85361 8.85343 
43 1 19.7944 5.81067 8.8523 
53 1 19.7944 8.85232 5.81079 
87 1 17.954 8.7529 8.75293 
91 1 19.6954 7.00991 8.75368 
101 1 19.6953 8.75363 7.01048 
135 1 20.3484 9.40788 9.4078 
ITEM: TIMESTEP
30
ITEM: NUMBER OF ATOMS
146
ITEM: BOX BOUNDS pp pp pp
0.0000000000000000e+00 2.1884000000000000e+01
0.0000000000000000e+00 2.1885999999999999e+01
0.0000000000000000e+00 2.1885000000000002e+01
ITEM: ATOMS id type x y z 
145 2 10.5528 9.33369 8.70161 
146 3 9.59226 9.30281 8.46075 
16 1 1.60298 12.5482 12.5456 
32 1 0.0242636 10.9667 10.9633 
64 1 4.31093 12.2187 12.2188 
68 1 1.27741 15.2617 12.2191 
78 1 1.27742 12.2191 15.2615 
112 1 3.1128 12.3181 12.3182 
116 1 1.37447 14.0625 12.3178 
126 1 1.37452 12.3178 14.0622 
144 1 0.719556 11.661 11.6672 
9 1 8.52976 12.538 12.5375 
25 1 10.155 10.9633 11.0092 
57 1 5.80715 12.2162 12.2161 
65 1 8.85458 15.2633 12.2165 
73 1 8.85417 12.2178 15.2639 
105 1 7.00668 12.312 12.3113 
113 1 8.75781 14.0634 12.3118 
121 1 8.75699 12.3138 14.0638 
137 1 9.41318 11.6745 11.6964 
11 1 1.60314 19.4667 12.5478 
27 1 0.0213151 21.0482 10.9658 
59 1 4.31682 19.7935 12.2194 
69 1 1.27747 16.7541 12.2194 
79 1 1.2777 19.7934 15.26 
107 1 3.11762 19.6953 12.3177 
117 1 1.37554 17.9534 12.3176 
127 1 1.37568 19.6952 14.0608 
139 1 0.723913 20.3512 11.662 
14 1 8.52264 19.4683 12.5449 
30 1 10.1053 21.0477 10.9637 
62 1 5.81074 19.7935 12.2192 
72 1 8.85212 16.7594 12.2191 
76 1 8.85171 19.7945 15.2607 
110 1 7.00995 19.6963 12.3181 
120 1 8.7531 17.958 12.3183 
124 1 8.75333 19.697 14.0619 
142 1 9.40879 20.3534 11.6677 
13 1 1.60285 12.548 19.4664 
29 1 0.0207641 10.9667 21.0473 
61 1 4.31578 12.2196 19.7936 
71 1 1.2776 15.2605 19.7934 
75 1 1.27747 12.2194 16.7545 
109 1 3.11665 12.3182 19.6952 
119 1 1.37585 14.0609 19.6954 
123 1 1.37581 12.318 17.9539 
141 1 0.725509 11.6611 20.351 
12 1 8.52383 12.5503 19.471 
28 1 10.1075 10.9666 21.0506 
60 1 5.81236 12.2196 19.7937 
70 1 8.85145 15.2607 19.7938 
80 1 8.85206 12.22 16.7574 
108 1 7.01106 12.3181 19.6958 
118 1 8.75302 14.0619 19.696 
128 1 8.75328 12.3184 17.9562 
140 1 9.40873 11.6614 20.3496 
10 1 1.60531 19.4686 19.4653 
26 1 0.0242757 21.0506 21.0465 
58 1 4.31734 19.794 19.7932 
66 1 1.27756 16.7535 19.7933 
74 1 1.27765 19.7934 16.7536 
106 1 3.1184 19.6954 19.6952 
114 1 1.37569 17.9531 19.6953 
122 1 1.37569 19.6951 17.9527 
138 1 0.719133 20.3458 20.3517 
15 1 8.52289 19.4694 19.4657 
31 1 10.1039 21.0515 21.0471 
63 1 5.81038 19.7943 19.7932 
67 1 8.8514 16.7541 19.7935 
77 1 8.85149 19.7945 16.7549 
111 1 7.00954 19.696 19.6955 
115 1 8.75298 17.9533 19.6955 
125 1 8.7529 19.696 17.9537 
143 1 9.41061 20.3461 20.3511 
8 1 12.5481 1.60196 1.60532 
24 1 10.9667 0.0198611 0.0243653 
40 1 15.2596 1.27663 1.27784 
44 1 12.2198 4.31776 1.27736 
54 1 12.2197 1.27678 4.31724 
88 1 14.0607 1.37515 1.37577 
92 1 12.3179 3.11826 1.37557 
102 1 12.3178 1.37521 3.11819 
136 1 11.6614 0.724838 0.719392 
1 1 19.4675 1.60393 1.60554 
17 1 21.0485 0.022047 0.0244576 
33 1 16.7534 1.27674 1.27766 
41 1 19.7933 4.31743 1.27766 
49 1 19.7933 1.27683 4.31748 
81 1 17.9523 1.37507 1.37562 
89 1 19.695 3.11786 1.37569 
97 1 19.6949 1.37516 3.11815 
129 1 20.348 0.721002 0.71957 
3 1 12.5454 8.52354 1.60834 
19 1 10.9633 10.1025 0.0243375 
35 1 15.2572 8.85054 1.27764 
45 1 12.2197 5.81035 1.27707 
55 1 12.2146 8.85512 4.32156 
83 1 14.0586 8.7521 1.37677 
93 1 12.3175 7.00965 1.37594 
103 1 12.3151 8.75372 3.1192 
131 1 11.6675 9.40846 0.720498 
6 1 19.4674 8.52392 1.6057 
22 1 21.0495 10.1049 0.0240728 
38 1 16.7544 8.85084 1.27762 
48 1 19.7934 5.81015 1.27789 
52 1 19.7938 8.85166 4.31449 
86 1 17.9532 8.75223 1.37562 
96 1 19.695 7.00964 1.37548 
100 1 19.6948 8.75261 3.11567 
134 1 20.3463 9.4084 0.719977 
5 1 12.5456 1.60454 8.5207 
21 1 10.9654 0.0225174 10.1026 
37 1 15.2579 1.27637 8.85149 
47 1 12.2131 4.31913 8.85591 
51 1 12.2196 1.27744 5.81187 
85 1 14.0596 1.37574 8.75361 
95 1 12.3161 3.11634 8.75443 
99 1 12.3182 1.37647 7.01084 
133 1 11.6652 0.72279 9.40799 
4 1 19.4676 1.60433 8.52313 
20 1 21.0501 0.023255 10.1044 
36 1 16.7553 1.27636 8.85152 
46 1 19.7934 4.31626 8.85151 
56 1 19.7932 1.27676 5.81006 
84 1 17.9539 1.37517 8.75276 
94 1 19.6949 3.11717 8.75293 
104 1 19.6951 1.37501 7.00936 
132 1 20.3456 0.71967 9.40979 
2 1 12.6256 8.46104 8.47272 
18 1 10.9725 10.1681 10.173 
34 1 15.2701 8.85386 8.85686 
42 1 12.2233 5.80709 8.85058 
50 1 12.2329 8.84267 5.81054 
82 1 14.0694 8.73264 8.73985 
90 1 12.3523 7.00435 8.73085 
98 1 12.3675 8.71432 7.00538 
130 1 11.4987 9.479 9.31952 
7 1 19.469 8.5228 8.52177 
23 1 21.0491 10.1039 10.1042 
39 1 16.7569 8.85798 8.85739 
43 1 19.7934 5.80983 8.85185 
53 1 19.7935 8.85196 5.81216 
87 1 17.9578 8.75434 8.75388 
91 1 19.6955 7.0084 8.75353 
101 1 19.6952 8.75297 7.01019 
135 1 20.3454 9.41 9.4086 
ITEM: TIMESTEP
40
ITEM: NUMBER OF ATOMS
146
ITEM: BOX BOUNDS pp pp pp
0.0000000000000000e+00 2.1884000000000000e+01
0.0000000000000000e+00 2.1885999999999999e+01
0.0000000000000000e+00 2.1885000000000002e+01
ITEM: ATOMS id type x y z 
145 2 10.4968 9.33775 8.73454 
146 3 9.57428 9.28075 8.39723 
16 1 1.6006 12.5485 12.5483 
32 1 0.0223516 10.9658 10.9663 
64 1 4.31189 12.2185 12.2179 
68 1 1.27755 15.2615 12.2192 
78 1 1.27762 12.2197 15.2618 
112 1 3.11338 12.3181 12.3189 
116 1 1.37378 14.0623 12.3186 
126 1 1.37413 12.3184 14.0626 
144 1 0.722063 11.6625 11.6641 
9 1 8.5303 12.5385 12.5417 
25 1 10.1799 10.9689 11.0295 
57 1 5.80679 12.2156 12.215 
65 1 8.85375 15.264 12.2164 
73 1 8.85286 12.2183 15.2667 
105 1 7.00705 12.3098 12.3097 
113 1 8.75771 14.0638 12.312 
121 1 8.75576 12.3147 14.066 
137 1 9.43641 11.6752 11.7085 
11 1 1.60411 19.4678 12.5474 
27 1 0.0240059 21.0505 10.9653 
59 1 4.31729 19.7929 12.2198 
69 1 1.27758 16.7548 12.2197 
79 1 1.2777 19.7927 15.2602 
107 1 3.11827 19.6955 12.3181 
117 1 1.37598 17.954 12.3179 
127 1 1.37611 19.6957 14.0609 
139 1 0.720518 20.3483 11.6617 
14 1 8.52412 19.4695 12.5479 
30 1 10.1075 21.0487 10.966 
62 1 5.81128 19.7932 12.2196 
72 1 8.85224 16.7585 12.2185 
76 1 8.85084 19.794 15.2608 
110 1 7.01031 19.6967 12.3189 
120 1 8.75323 17.957 12.319 
124 1 8.75271 19.697 14.0617 
142 1 9.40528 20.3542 11.6635 
13 1 1.60467 12.548 19.4674 
29 1 0.0241042 10.9657 21.05 
61 1 4.31714 12.2201 19.7926 
71 1 1.27788 15.2604 19.7928 
75 1 1.27778 12.2199 16.7552 
109 1 3.11809 12.3186 19.6952 
119 1 1.37618 14.0611 19.6955 
123 1 1.37623 12.3181 17.9543 
141 1 0.721252 11.6619 20.3484 
12 1 8.524 12.5477 19.4694 
28 1 10.1064 10.9635 21.0486 
60 1 5.81143 12.2205 19.7935 
70 1 8.85063 15.261 19.7935 
80 1 8.85238 12.2198 16.7583 
108 1 7.01036 12.3186 19.6962 
118 1 8.7529 14.0618 19.6964 
128 1 8.75289 12.3192 17.9575 
140 1 9.40877 11.6648 20.353 
10 1 1.6039 19.4665 19.4664 
26 1 0.0214388 21.0475 21.0477 
58 1 4.31726 19.7936 19.7926 
66 1 1.27835 16.7531 19.7928 
74 1 1.27828 19.7932 16.7537 
106 1 3.11809 19.6951 19.695 
114 1 1.37587 17.9525 19.6948 
122 1 1.37559 19.6948 17.9529 
138 1 0.723394 20.3507 20.3516 
15 1 8.52379 19.4673 19.4667 
31 1 10.1063 21.0473 21.0496 
63 1 5.81084 19.7939 19.7927 
67 1 8.8507 16.7543 19.7927 
77 1 8.85078 19.794 16.7545 
111 1 7.01003 19.6955 19.6954 
115 1 8.75251 17.9534 19.6951 
125 1 8.75286 19.6954 17.9535 
143 1 9.40886 20.3505 20.3487 
8 1 12.5475 1.60442 1.60383 
24 1 10.9655 0.0239293 0.0210462 
40 1 15.26 1.27701 1.27839 
44 1 12.2206 4.31757 1.27782 
54 1 12.2203 1.27716 4.31599 
88 1 14.0608 1.37569 1.37586 
92 1 12.3186 3.11846 1.3759 
102 1 12.3182 1.37593 3.11744 
136 1 11.6612 0.720714 0.723606 
1 1 19.4663 1.60427 1.60411 
17 1 21.0473 0.0227778 0.0219759 
33 1 16.753 1.27738 1.27828 
41 1 19.7929 4.31698 1.27835 
49 1 19.7928 1.27743 4.31708 
81 1 17.9523 1.37541 1.37585 
89 1 19.6945 3.11788 1.37575 
97 1 19.6945 1.37533 3.1179 
129 1 20.3504 0.720219 0.722517 
3 1 12.5453 8.52306 1.60671 
19 1 10.9672 10.1046 0.0225527 
35 1 15.2584 8.84983 1.27876 
45 1 12.2201 5.81092 1.27824 
55 1 12.2188 8.85171 4.3232 
83 1 14.0595 8.75189 1.37838 
93 1 12.3181 7.01013 1.37761 
103 1 12.3127 8.75665 3.12093 
131 1 11.6625 9.40764 0.724876 
6 1 19.4652 8.52383 1.60398 
22 1 21.0464 10.1075 0.0233902 
38 1 16.7531 8.84988 1.27796 
48 1 19.7929 5.81114 1.27828 
52 1 19.7933 8.85118 4.31442 
86 1 17.952 8.75215 1.37596 
96 1 19.6943 7.01011 1.37589 
100 1 19.6945 8.75298 3.11605 
134 1 20.35 9.40467 0.719067 
5 1 12.5461 1.60577 8.52427 
21 1 10.966 0.0228608 10.1048 
37 1 15.2592 1.27714 8.85099 
47 1 12.2149 4.32039 8.85487 
51 1 12.2201 1.27797 5.81167 
85 1 14.0604 1.37673 8.75285 
95 1 12.3132 3.11848 8.75618 
99 1 12.3184 1.37705 7.01044 
133 1 11.6629 0.720354 9.4048 
4 1 19.4655 1.60267 8.52329 
20 1 21.0468 0.0212481 10.1053 
36 1 16.7539 1.27717 8.85101 
46 1 19.7931 4.31492 8.85125 
56 1 19.793 1.27745 5.81029 
84 1 17.9527 1.37498 8.75231 
94 1 19.6947 3.11628 8.7528 
104 1 19.6947 1.37476 7.00948 
132 1 20.3495 0.722456 9.40895 
2 1 12.6231 8.46688 8.48003 
18 1 10.9815 10.1783 10.1766 
34 1 15.2796 8.85188 8.85716 
42 1 12.2307 5.80122 8.84675 
50 1 12.246 8.83229 5.80503 
82 1 14.0782 8.73338 8.74298 
90 1 12.3582 7.00085 8.73047 
98 1 12.3789 8.707 7.00265 
130 1 11.4663 9.49252 9.29309 
7 1 19.4681 8.52264 8.52281 
23 1 21.0471 10.1061 10.106 
39 1 16.7559 8.85826 8.85864 
43 1 19.7936 5.80971 8.8514 
53 1 19.7938 8.85125 5.81046 
87 1 17.9584 8.75677 8.75603 
91 1 19.6953 7.00841 8.75307 
101 1 19.6952 8.75292 7.00894 
135 1 20.3513 9.40825 9.4054 
ITEM: TIMESTEP
50
ITEM: NUMBER OF ATOMS
146
ITEM: BOX BOUNDS pp pp pp
0.0000000000000000e+00 2.1884000000000000e+01
0.0000000000000000e+00 2.1885999999999999e+01
0.0000000000000000e+00 2.1885000000000002e+01
ITEM: ATOMS id type x y z 
145 2 10.4538 9.34022 8.74784 
146 3 9.55268 9.26053 8.34583 
16 1 1.60224 12.5482 12.5485 
32 1 0.0231154 10.9655 10.9661 
64 1 4.31436 12.2186 12.2182 
68 1 1.27719 15.2619 12.22 
78 1 1.27745 12.2203 15.2621 
112 1 3.1154 12.3185 12.3188 
116 1 1.37373 14.0625 12.3189 
126 1 1.37393 12.3188 14.0626 
144 1 0.719888 11.6646 11.6659 
9 1 8.53252 12.5386 12.5425 
25 1 10.2036 10.9744 11.0439 
57 1 5.80764 12.215 12.2139 
65 1 8.85278 15.2638 12.2161 
73 1 8.8518 12.2189 15.2675 
105 1 7.00833 12.3082 12.3089 
113 1 8.7573 14.0632 12.3131 
121 1 8.7543 12.3158 14.0665 
137 1 9.45328 11.6762 11.7213 
11 1 1.60428 19.4667 12.5467 
27 1 0.0224713 21.048 10.9649 
59 1 4.31785 19.7926 12.2202 
69 1 1.27815 16.7548 12.2198 
79 1 1.27837 19.7929 15.2604 
107 1 3.11842 19.6953 12.3182 
117 1 1.3762 17.9542 12.3182 
127 1 1.37598 19.6955 14.061 
139 1 0.722198 20.3504 11.6625 
14 1 8.52293 19.4701 12.5475 
30 1 10.1059 21.0503 10.9653 
62 1 5.81089 19.7931 12.2204 
72 1 8.85212 16.7565 12.2188 
76 1 8.85028 19.794 15.2614 
110 1 7.01036 19.6966 12.3192 
120 1 8.75328 17.9558 12.3188 
124 1 8.75246 19.6972 14.0618 
142 1 9.40701 20.3532 11.6643 
13 1 1.60438 12.5469 19.4665 
29 1 0.0228085 10.9657 21.0485 
61 1 4.31753 12.2207 19.7925 
71 1 1.27835 15.2604 19.7927 
75 1 1.27823 12.2201 16.755 
109 1 3.11833 12.3187 19.695 
119 1 1.37624 14.0611 19.6953 
123 1 1.37647 12.3185 17.9543 
141 1 0.721992 11.6632 20.3508 
12 1 8.52407 12.5487 19.4715 
28 1 10.107 10.9643 21.0499 
60 1 5.81086 12.2208 19.7932 
70 1 8.8503 15.2614 19.7933 
80 1 8.8523 12.2198 16.7589 
108 1 7.01012 12.3188 19.6968 
118 1 8.75254 14.0618 19.6968 
128 1 8.7533 12.3189 17.9585 
140 1 9.40918 11.6633 20.3515 
10 1 1.60561 19.4671 19.4671 
26 1 0.0233073 21.0489 21.0481 
58 1 4.31741 19.7931 19.7921 
66 1 1.27847 16.7538 19.7922 
74 1 1.27825 19.7925 16.7537 
106 1 3.11808 19.6948 19.6946 
114 1 1.37626 17.953 19.6948 
122 1 1.37597 19.6948 17.953 
138 1 0.721156 20.3494 20.3506 
15 1 8.52409 19.4677 19.4659 
31 1 10.1064 21.049 21.0478 
63 1 5.81036 19.7933 19.7925 
67 1 8.85009 16.7544 19.7925 
77 1 8.85041 19.7933 16.7543 
111 1 7.00973 19.6955 19.695 
115 1 8.75241 17.9538 19.6947 
125 1 8.75245 19.6952 17.9538 
143 1 9.40898 20.3493 20.3501 
8 1 12.5466 1.60426 1.60485 
24 1 10.9647 0.022455 0.0237518 
40 1 15.2598 1.27764 1.27865 
44 1 12.2211 4.31787 1.27828 
54 1 12.2208 1.27796 4.31788 
88 1 14.0604 1.3759 1.37606 
92 1 12.319 3.11839 1.37583 
102 1 12.3186 1.37612 3.11831 
136 1 11.6625 0.722089 0.721077 
1 1 19.4666 1.60448 1.60462 
17 1 21.0477 0.0221124 0.0229885 
33 1 16.7532 1.2777 1.27868 
41 1 19.7924 4.31749 1.27863 
49 1 19.7924 1.27788 4.317 
81 1 17.9526 1.37571 1.37609 
89 1 19.6945 3.11822 1.37608 
97 1 19.6943 1.37576 3.11766 
129 1 20.3486 0.719966 0.720916 
3 1 12.5436 8.52478 1.60979 
19 1 10.9657 10.1045 0.0241422 
35 1 15.258 8.84927 1.27996 
45 1 12.2208 5.81102 1.27927 
55 1 12.2232 8.84877 4.32437 
83 1 14.0589 8.75158 1.37922 
93 1 12.3179 7.0105 1.3787 
103 1 12.3125 8.75651 3.12167 
131 1 11.6644 9.40728 0.723627 
6 1 19.4658 8.52241 1.60268 
22 1 21.0483 10.105 0.0231385 
38 1 16.752 8.8496 1.27855 
48 1 19.7924 5.81028 1.27876 
52 1 19.793 8.85112 4.31574 
86 1 17.9512 8.75172 1.37547 
96 1 19.6939 7.00956 1.37589 
100 1 19.6944 8.75285 3.11617 
134 1 20.3478 9.40729 0.719377 
5 1 12.5448 1.60656 8.52328 
21 1 10.9657 0.0221835 10.1043 
37 1 15.259 1.27827 8.85043 
47 1 12.2167 4.32091 8.85388 
51 1 12.2209 1.2787 5.81046 
85 1 14.0597 1.37747 8.75261 
95 1 12.3123 3.11912 8.75675 
99 1 12.3185 1.37776 7.01011 
133 1 11.664 0.72099 9.40629 
4 1 19.4662 1.60344 8.52359 
20 1 21.0481 0.0232521 10.1061 
36 1 16.7527 1.27738 8.85046 
46 1 19.7929 4.31561 8.85096 
56 1 19.7927 1.27764 5.81 
84 1 17.952 1.37482 8.75229 
94 1 19.6943 3.11606 8.75259 
104 1 19.6945 1.37481 7.0094 
132 1 20.3485 0.720405 9.40806 
2 1 12.6221 8.4705 8.48236 
18 1 10.9871 10.1851 10.1727 
34 1 15.2755 8.85008 8.85761 
42 1 12.2378 5.80658 8.84352 
50 1 12.2581 8.82307 5.80945 
82 1 14.0749 8.73349 8.74458 
90 1 12.3636 7.00525 8.72928 
98 1 12.3884 8.70017 7.00704 
130 1 11.4478 9.49691 9.28081 
7 1 19.47 8.52324 8.52234 
23 1 21.0488 10.1065 10.1055 
39 1 16.7585 8.85878 8.85997 
43 1 19.7932 5.80824 8.85108 
53 1 19.7934 8.85091 5.80843 
87 1 17.9603 8.75765 8.75723 
91 1 19.6956 7.00798 8.75251 
101 1 19.6957 8.75232 7.00821 
135 1 20.3509 9.4076 9.40677 
ITEM: TIMESTEP
60
ITEM: NUMBER OF ATOMS
146
ITEM: BOX BOUNDS pp pp pp
0.0000000000000000e+00 2.1884000000000000e+01
0.0000000000000000e+00 2.1885999999999999e+01
0.0000000000000000e+00 2.1885000000000002e+01
ITEM: ATOMS id type x y z 
145 2 10.4448 9.33926 8.73891 
146 3 9.54525 9.25246 8.33254 
16 1 1.60308 12.5481 12.5486 
32 1 0.0226989 10.9657 10.9664 
64 1 4.31615 12.2189 12.2184 
68 1 1.27716 15.2613 12.2204 
78 1 1.27735 12.2206 15.2614 
112 1 3.11694 12.3188 12.3188 
116 1 1.37436 14.0619 12.3191 
126 1 1.37452 12.3191 14.0621 
144 1 0.720907 11.6652 11.6654 
9 1 8.53472 12.5377 12.5427 
25 1 10.2115 10.9783 11.0466 
57 1 5.80949 12.2147 12.2138 
65 1 8.85221 15.2638 12.2167 
73 1 8.85092 12.2194 15.2684 
105 1 7.01019 12.3073 12.3082 
113 1 8.75748 14.0628 12.3134 
121 1 8.75434 12.316 14.0674 
137 1 9.45907 11.678 11.7245 
11 1 1.60432 19.4675 12.5472 
27 1 0.0227632 21.0486 10.9652 
59 1 4.31768 19.7927 12.2204 
69 1 1.27811 16.7545 12.2201 
79 1 1.27842 19.7927 15.2602 
107 1 3.11831 19.695 12.3183 
117 1 1.37624 17.9537 12.318 
127 1 1.37625 19.6952 14.0609 
139 1 0.722053 20.3506 11.6628 
14 1 8.52433 19.4692 12.5476 
30 1 10.1059 21.0502 10.9649 
62 1 5.81096 19.7932 12.2208 
72 1 8.85154 16.7561 12.2191 
76 1 8.85015 19.794 15.2608 
110 1 7.01026 19.6965 12.319 
120 1 8.75294 17.9555 12.3185 
124 1 8.7522 19.697 14.0613 
142 1 9.40755 20.3522 11.664 
13 1 1.6042 12.5471 19.4672 
29 1 0.0229396 10.9651 21.0484 
61 1 4.31754 12.2208 19.7925 
71 1 1.27847 15.2605 19.7926 
75 1 1.27826 12.2203 16.7546 
109 1 3.11826 12.3187 19.695 
119 1 1.37623 14.0612 19.6952 
123 1 1.37628 12.3183 17.9538 
141 1 0.721924 11.6636 20.3512 
12 1 8.52413 12.5475 19.4713 
28 1 10.1072 10.964 21.05 
60 1 5.81079 12.2208 19.7933 
70 1 8.85024 15.2616 19.7934 
80 1 8.85196 12.2198 16.7592 
108 1 7.0101 12.319 19.6971 
118 1 8.75271 14.0622 19.6973 
128 1 8.75354 12.3189 17.9591 
140 1 9.40874 11.6633 20.352 
10 1 1.60476 19.4671 19.4669 
26 1 0.023385 21.0487 21.0486 
58 1 4.3176 19.7929 19.7922 
66 1 1.27857 16.7538 19.7923 
74 1 1.27839 19.7925 16.7534 
106 1 3.11825 19.695 19.6946 
114 1 1.37633 17.953 19.6947 
122 1 1.37612 19.6948 17.9528 
138 1 0.721036 20.3495 20.3504 
15 1 8.52387 19.4678 19.4671 
31 1 10.1063 21.049 21.0484 
63 1 5.81079 19.7932 19.7924 
67 1 8.85013 16.7547 19.7925 
77 1 8.85032 19.7932 16.7539 
111 1 7.01014 19.6956 19.6948 
115 1 8.75229 17.9541 19.6946 
125 1 8.75256 19.6955 17.9531 
143 1 9.40849 20.3498 20.3503 
8 1 12.5465 1.60437 1.60474 
24 1 10.965 0.0224548 0.0233779 
40 1 15.2597 1.27792 1.27871 
44 1 12.2214 4.31798 1.27844 
54 1 12.221 1.27831 4.31775 
88 1 14.0604 1.37587 1.37633 
92 1 12.3189 3.11859 1.37607 
102 1 12.3186 1.3761 3.1184 
136 1 11.663 0.722231 0.721042 
1 1 19.4664 1.60429 1.60396 