LAMMPS (3 Mar 2020)
# Alpha
clear
units		real
dimension 3
boundary        p p p
atom_style	charge
newton on
read_data       H_2.lmp
  orthogonal box = (0 0 0) to (9.898 9.898 9.898)
  2 by 2 by 2 MPI processor grid
  reading atoms ...
  41 atoms
  read_data CPU = 0.0023756 secs

timestep 0.25

# ---------- Define Interatomic Potential ---------------------
pair_style      reax/c NULL checkqeq no
pair_coeff      * * ffield.reax C H
WARNING: Changed valency_val to valency_boc for X (../reaxc_ffield.cpp:315)
fix             2 all qeq/reax 1 0.0 10.0 1.0e-6 reax/c

#------------ Equilibration of the system -------------------------
reset_timestep 0

dump 1 all custom 10 min.lammpstrj id type x y z

minimize 1.0e-8 1.0e-8 100000 100000
WARNING: Using 'neigh_modify every 1 delay 0 check yes' setting during minimization (../min.cpp:190)
Neighbor list info ...
  update every 1 steps, delay 0 steps, check yes
  max neighbors/atom: 2000, page size: 100000
  master list distance cutoff = 12
  ghost atom cutoff = 12
  binsize = 6, bins = 2 2 2
  2 neighbor lists, perpetual/occasional/extra = 2 0 0
  (1) pair reax/c, perpetual
      attributes: half, newton off, ghost
      pair build: half/bin/newtoff/ghost
      stencil: half/ghost/bin/3d/newtoff
      bin: standard
  (2) fix qeq/reax, perpetual, copy from (1)
      attributes: half, newton off, ghost
      pair build: copy
      stencil: none
      bin: none
Per MPI rank memory allocation (min/avg/max) = 25.8 | 25.8 | 25.8 Mbytes
Step Temp E_pair E_mol TotEng Press 
       0            0   -7163.9991            0   -7163.9991   -110087.83 
      23            0   -7252.6794            0   -7252.6794    15643.941 
Loop time of 0.786636 on 8 procs for 23 steps with 41 atoms

98.8% CPU use with 8 MPI tasks x no OpenMP threads

Minimization stats:
  Stopping criterion = linesearch alpha is zero
  Energy initial, next-to-last, final = 
        -7163.99911617     -7252.67940826     -7252.67940842
  Force two-norm initial, final = 1633.57 137.339
  Force max component initial, final = 511.755 46.6637
  Final line search alpha, max atom move = 4.43685e-13 2.0704e-11
  Iterations, force evaluations = 23 190

MPI task timing breakdown:
Section |  min time  |  avg time  |  max time  |%varavg| %total
---------------------------------------------------------------
Pair    | 0.61161    | 0.63151    | 0.66159    |   2.0 | 80.28
Neigh   | 0          | 0          | 0          |   0.0 |  0.00
Comm    | 0.010963   | 0.04108    | 0.060927   |   7.8 |  5.22
Output  | 5.896e-05  | 7.3503e-05 | 0.00010576 |   0.0 |  0.01
Modify  | 0.1119     | 0.11208    | 0.11222    |   0.0 | 14.25
Other   |            | 0.00189    |            |       |  0.24

Nlocal:    5.125 ave 6 max 5 min
Histogram: 7 0 0 0 0 0 0 0 0 1
Nghost:    1002.88 ave 1003 max 1002 min
Histogram: 1 0 0 0 0 0 0 0 0 7
Neighs:    1460.38 ave 1714 max 1422 min
Histogram: 7 0 0 0 0 0 0 0 0 1

Total # of neighbors = 11683
Ave neighs/atom = 284.951
Neighbor list builds = 0
Dangerous builds = 0

###
min_style cg
minimize 1.0e-8 1.0e-8 100000 100000
WARNING: Using 'neigh_modify every 1 delay 0 check yes' setting during minimization (../min.cpp:190)
Per MPI rank memory allocation (min/avg/max) = 25.8 | 25.8 | 25.8 Mbytes
Step Temp E_pair E_mol TotEng Press 
      23            0   -7252.6794            0   -7252.6794    15643.942 
      24            0   -7252.6794            0   -7252.6794    15643.945 
Loop time of 0.229621 on 8 procs for 1 steps with 41 atoms

99.0% CPU use with 8 MPI tasks x no OpenMP threads

Minimization stats:
  Stopping criterion = linesearch alpha is zero
  Energy initial, next-to-last, final = 
        -7252.67940827     -7252.67940827      -7252.6794078
  Force two-norm initial, final = 137.339 137.339
  Force max component initial, final = 46.6638 46.6637
  Final line search alpha, max atom move = 4.98954e-13 2.3283e-11
  Iterations, force evaluations = 1 58

MPI task timing breakdown:
Section |  min time  |  avg time  |  max time  |%varavg| %total
---------------------------------------------------------------
Pair    | 0.18603    | 0.19172    | 0.2014     |   1.1 | 83.50
Neigh   | 0          | 0          | 0          |   0.0 |  0.00
Comm    | 0.0028791  | 0.012552   | 0.018228   |   4.3 |  5.47
Output  | 0          | 0          | 0          |   0.0 |  0.00
Modify  | 0.024661   | 0.024713   | 0.024753   |   0.0 | 10.76
Other   |            | 0.0006335  |            |       |  0.28

Nlocal:    5.125 ave 6 max 5 min
Histogram: 7 0 0 0 0 0 0 0 0 1
Nghost:    1002.88 ave 1003 max 1002 min
Histogram: 1 0 0 0 0 0 0 0 0 7
Neighs:    1462.38 ave 1718 max 1423 min
Histogram: 7 0 0 0 0 0 0 0 0 1

Total # of neighbors = 11699
Ave neighs/atom = 285.341
Neighbor list builds = 0
Dangerous builds = 0

###
fix 1 all box/relax aniso 0.0
min_style cg
minimize 1.0e-8 1.0e-8 100000 100000
WARNING: Using 'neigh_modify every 1 delay 0 check yes' setting during minimization (../min.cpp:190)
Per MPI rank memory allocation (min/avg/max) = 25.8 | 25.8 | 25.8 Mbytes
Step Temp E_pair E_mol TotEng Press Volume 
      24            0   -7252.6794            0   -7252.6794    15643.941    969.71106 
      40            0    -7253.456            0    -7253.456   -4835.5499     971.9756 
Loop time of 0.320427 on 8 procs for 16 steps with 41 atoms

99.0% CPU use with 8 MPI tasks x no OpenMP threads

Minimization stats:
  Stopping criterion = energy tolerance
  Energy initial, next-to-last, final = 
        -7252.67940787     -7253.45592813     -7253.45596861
  Force two-norm initial, final = 408.363 254.081
  Force max component initial, final = 247.718 75.4908
  Final line search alpha, max atom move = 6.46045e-10 4.87705e-08
  Iterations, force evaluations = 16 84

MPI task timing breakdown:
Section |  min time  |  avg time  |  max time  |%varavg| %total
---------------------------------------------------------------
Pair    | 0.26823    | 0.27539    | 0.28814    |   1.2 | 85.94
Neigh   | 0          | 0          | 0          |   0.0 |  0.00
Comm    | 0.0037064  | 0.016472   | 0.023628   |   4.9 |  5.14
Output  | 2.8673e-05 | 3.7177e-05 | 5.9792e-05 |   0.0 |  0.01
Modify  | 0.026354   | 0.026446   | 0.02652    |   0.0 |  8.25
Other   |            | 0.002081   |            |       |  0.65

Nlocal:    5.125 ave 6 max 5 min
Histogram: 7 0 0 0 0 0 0 0 0 1
Nghost:    1002.88 ave 1003 max 1002 min
Histogram: 1 0 0 0 0 0 0 0 0 7
Neighs:    1462.38 ave 1718 max 1423 min
Histogram: 7 0 0 0 0 0 0 0 0 1

Total # of neighbors = 11699
Ave neighs/atom = 285.341
Neighbor list builds = 0
Dangerous builds = 0

unfix 1
###
min_style cg
minimize 1.0e-8 1.0e-8 100000 100000
WARNING: Using 'neigh_modify every 1 delay 0 check yes' setting during minimization (../min.cpp:190)
Per MPI rank memory allocation (min/avg/max) = 25.8 | 25.8 | 25.8 Mbytes
Step Temp E_pair E_mol TotEng Press 
      40            0    -7253.456            0    -7253.456   -4835.5478 
      41            0    -7253.456            0    -7253.456   -4835.5522 
Loop time of 0.238703 on 8 procs for 1 steps with 41 atoms

98.9% CPU use with 8 MPI tasks x no OpenMP threads

Minimization stats:
  Stopping criterion = linesearch alpha is zero
  Energy initial, next-to-last, final = 
        -7253.45596808     -7253.45596808     -7253.45596916
  Force two-norm initial, final = 224.079 224.079
  Force max component initial, final = 70.1297 70.1299
  Final line search alpha, max atom move = 1.66e-13 1.16416e-11
  Iterations, force evaluations = 1 61

MPI task timing breakdown:
Section |  min time  |  avg time  |  max time  |%varavg| %total
---------------------------------------------------------------
Pair    | 0.1955     | 0.20073    | 0.21012    |   1.0 | 84.09
Neigh   | 0          | 0          | 0          |   0.0 |  0.00
Comm    | 0.0028662  | 0.012235   | 0.01745    |   4.2 |  5.13
Output  | 0          | 0          | 0          |   0.0 |  0.00
Modify  | 0.02513    | 0.02518    | 0.025222   |   0.0 | 10.55
Other   |            | 0.0005526  |            |       |  0.23

Nlocal:    5.125 ave 6 max 5 min
Histogram: 7 0 0 0 0 0 0 0 0 1
Nghost:    1002.88 ave 1003 max 1002 min
Histogram: 1 0 0 0 0 0 0 0 0 7
Neighs:    1460.88 ave 1716 max 1423 min
Histogram: 7 0 0 0 0 0 0 0 0 1

Total # of neighbors = 11687
Ave neighs/atom = 285.049
Neighbor list builds = 0
Dangerous builds = 0

###
fix 1 all box/relax aniso 0.0
min_style cg
minimize 1.0e-8 1.0e-8 100000 100000
WARNING: Using 'neigh_modify every 1 delay 0 check yes' setting during minimization (../min.cpp:190)
Per MPI rank memory allocation (min/avg/max) = 25.8 | 25.8 | 25.8 Mbytes
Step Temp E_pair E_mol TotEng Press Volume 
      41            0    -7253.456            0    -7253.456    -4835.554     971.9756 
      42            0    -7253.456            0    -7253.456    -4832.217    971.97553 
Loop time of 0.0904754 on 8 procs for 1 steps with 41 atoms

98.6% CPU use with 8 MPI tasks x no OpenMP threads

Minimization stats:
  Stopping criterion = energy tolerance
  Energy initial, next-to-last, final = 
        -7253.45596946     -7253.45596946     -7253.45598987
  Force two-norm initial, final = 254.122 254.06
  Force max component initial, final = 75.5352 75.4902
  Final line search alpha, max atom move = 3.23215e-10 2.43995e-08
  Iterations, force evaluations = 1 23

MPI task timing breakdown:
Section |  min time  |  avg time  |  max time  |%varavg| %total
---------------------------------------------------------------
Pair    | 0.075735   | 0.077759   | 0.081421   |   0.6 | 85.94
Neigh   | 0          | 0          | 0          |   0.0 |  0.00
Comm    | 0.001095   | 0.0047635  | 0.0067921  |   2.6 |  5.26
Output  | 0          | 0          | 0          |   0.0 |  0.00
Modify  | 0.0073215  | 0.0073462  | 0.0073691  |   0.0 |  8.12
Other   |            | 0.0006067  |            |       |  0.67

Nlocal:    5.125 ave 6 max 5 min
Histogram: 7 0 0 0 0 0 0 0 0 1
Nghost:    1002.88 ave 1003 max 1002 min
Histogram: 1 0 0 0 0 0 0 0 0 7
Neighs:    1460.88 ave 1716 max 1423 min
Histogram: 7 0 0 0 0 0 0 0 0 1

Total # of neighbors = 11687
Ave neighs/atom = 285.049
Neighbor list builds = 0
Dangerous builds = 0

unfix 1
###
min_style cg
minimize 1.0e-8 1.0e-8 100000 100000
WARNING: Using 'neigh_modify every 1 delay 0 check yes' setting during minimization (../min.cpp:190)
Per MPI rank memory allocation (min/avg/max) = 25.8 | 25.8 | 25.8 Mbytes
Step Temp E_pair E_mol TotEng Press 
      42            0    -7253.456            0    -7253.456   -4832.2172 
      43            0    -7253.456            0    -7253.456   -4832.2164 
Loop time of 0.239149 on 8 procs for 1 steps with 41 atoms

98.4% CPU use with 8 MPI tasks x no OpenMP threads

Minimization stats:
  Stopping criterion = linesearch alpha is zero
  Energy initial, next-to-last, final = 
        -7253.45598992     -7253.45598992     -7253.45598991
  Force two-norm initial, final = 224.052 224.052
  Force max component initial, final = 70.1227 70.1227
  Final line search alpha, max atom move = 1.66017e-13 1.16415e-11
  Iterations, force evaluations = 1 61

MPI task timing breakdown:
Section |  min time  |  avg time  |  max time  |%varavg| %total
---------------------------------------------------------------
Pair    | 0.19401    | 0.20039    | 0.21048    |   1.1 | 83.79
Neigh   | 0          | 0          | 0          |   0.0 |  0.00
Comm    | 0.0029083  | 0.012985   | 0.019328   |   4.5 |  5.43
Output  | 0          | 0          | 0          |   0.0 |  0.00
Modify  | 0.02513    | 0.025207   | 0.025263   |   0.0 | 10.54
Other   |            | 0.0005638  |            |       |  0.24

Nlocal:    5.125 ave 6 max 5 min
Histogram: 7 0 0 0 0 0 0 0 0 1
Nghost:    1002.88 ave 1003 max 1002 min
Histogram: 1 0 0 0 0 0 0 0 0 7
Neighs:    1460.88 ave 1716 max 1423 min
Histogram: 7 0 0 0 0 0 0 0 0 1

Total # of neighbors = 11687
Ave neighs/atom = 285.049
Neighbor list builds = 0
Dangerous builds = 0

undump 1
#############
#----------- Thermo ------------
reset_timestep 0
thermo  200

thermo_style    custom step temp etotal ke pe press
velocity all create 300 12345 mom yes rot yes
fix 1 all npt temp 300 300 25.0 iso 0.0 0.0 250.0

variable vpe equal pe
variable vtemp equal temp
variable vstep equal step

fix output all print 2500 "${vstep} ${vtemp} ${vpe}" file temp-tpdh-Pt.dat screen no

dump 1 all custom 2500 thermo-tpdh-Pt.lammpstrj id type x y z

run 1000000
Per MPI rank memory allocation (min/avg/max) = 24.68 | 24.68 | 24.68 Mbytes
Step Temp TotEng KinEng PotEng Press 
       0          300   -7217.6863    35.769721    -7253.456   -3149.9603 
     200    258.05766   -7202.7318    30.768835   -7233.5006   -25249.925 
     400    246.12782   -7192.1173    29.346411   -7221.4637    11090.378 
     600    312.54536   -7194.9897    37.265534   -7232.2552   -3868.1651 
     800    304.68159   -7205.1104    36.327918   -7241.4383    -34636.04 
    1000    311.05394   -7196.6871    37.087708   -7233.7748   -10226.434 
    1200    276.06922   -7198.3495    32.916396   -7231.2659   -8292.2411 
    1400     313.5978   -7185.9657    37.391019   -7223.3567    3754.9884 
    1600    307.74284   -7195.5426    36.692918   -7232.2355    4659.9719 
    1800    308.04372   -7200.3729    36.728793   -7237.1017    13381.313 
    2000    243.74797   -7202.3699    29.062655   -7231.4326   -12061.075 
    2200    320.83118   -7191.1993    38.253472   -7229.4528    26887.383 
    2400     295.0618   -7202.0528    35.180927   -7237.2337    9292.4396 
    2600    290.26296   -7201.3859     34.60875   -7235.9946   -11535.202 
    2800    374.87353   -7184.1665    44.697071   -7228.8636    36321.022 
    3000    319.25128   -7190.8885    38.065097   -7228.9536    12743.803 
    3200    329.05705   -7198.5527    39.234263    -7237.787   -658.78969 
    3400    373.06338   -7193.2692    44.481243   -7237.7504    1369.8943 
    3600    246.55055   -7211.2387    29.396814   -7240.6355    13936.117 
    3800    330.06051   -7200.5551    39.353908    -7239.909   -9712.4648 
    4000    259.31917   -7193.5129    30.919247   -7224.4322    16861.418 
    4200    292.95049   -7187.1309     34.92919   -7222.0601   -7675.0758 
    4400    286.07674   -7199.5611    34.109617   -7233.6707   -572.47848 
    4600    278.17211   -7205.4349    33.167129   -7238.6021   -16420.192 
    4800    363.99872    -7188.965    43.400441   -7232.3655    7388.6055 
    5000    285.30362   -7196.2282    34.017436   -7230.2456    2295.8713 
    5200    307.68604   -7199.1634    36.686146   -7235.8496    30248.401 
    5400    375.57051   -7190.6079    44.780174   -7235.3881    15828.483 
    5600    305.96029   -7204.9935     36.48038   -7241.4739   -8174.4108 
    5800    312.27373    -7201.797    37.233147   -7239.0301    6765.2572 
    6000    293.51783   -7193.2399    34.996836   -7228.2368     14842.54 
    6200    248.93546   -7201.8089    29.681172     -7231.49   -14730.612 
    6400    268.63994   -7206.9756    32.030585   -7239.0062    2990.9055 
    6600    277.46237   -7199.4724    33.082504   -7232.5549    -18214.27 
    6800    297.68123   -7196.2383    35.493248   -7231.7316    1604.3639 
    7000    396.94081   -7182.3057    47.328206   -7229.6339    11355.775 
    7200    295.52761   -7200.3824    35.236467   -7235.6189   -11113.654 
    7400    265.89769   -7200.4245    31.703621   -7232.1282    11956.583 
    7600    354.38467   -7186.7929    42.254135    -7229.047    455.44276 
    7800    311.03051   -7190.5087    37.084915   -7227.5936   -2608.4749 
    8000    307.26836   -7200.5971    36.636345   -7237.2335    13402.333 
    8200    296.78591   -7197.1219    35.386497   -7232.5084    22623.329 
    8400    281.42705    -7203.286    33.555223   -7236.8412    13763.531 
    8600    298.58953   -7198.4238    35.601547   -7234.0254   -15684.775 
    8800    315.73002   -7189.3634    37.645248   -7227.0087   -688.44186 
    9000    280.63075   -7206.3321    33.460279   -7239.7924    12510.081 
    9200    341.00446   -7196.0455    40.658781   -7236.7043   -7872.6301 
    9400    287.50219   -7198.9692    34.279576   -7233.2488    11070.559 
    9600    259.12827   -7205.3099    30.896487   -7236.2064   -28905.473 
    9800     326.1433   -7191.1667    38.886849   -7230.0535    26395.634 
   10000    310.03241   -7201.0035    36.965909   -7237.9694    2968.9843 
   10200    250.89582   -7204.2188    29.914911   -7234.1337    13944.298 
   10400    342.70536   -7194.0987    40.861584   -7234.9603   -12117.935 
   10600    345.94612   -7190.9123    41.247987   -7232.1602   -29048.319 
   10800    280.30429   -7204.7255    33.421354   -7238.1469   -1283.2758 
   11000    294.08656   -7200.3475    35.064648   -7235.4121    13483.478 
   11200    394.55804   -7186.0938    47.044102   -7233.1379   -19123.291 
   11400    264.71168   -7200.1993    31.562209   -7231.7615    5162.3342 
   11600    334.61448   -7192.6003    39.896888   -7232.4972   -55686.898 
   11800    327.41739    -7194.775    39.038762   -7233.8137    6633.9809 
   12000    289.42583   -7207.4876    34.508937   -7241.9965    15701.118 
   12200    371.66263   -7193.5647    44.314228   -7237.8789    36548.835 
   12400    315.71364   -7194.3418    37.643296   -7231.9851   -10927.869 
   12600    219.98402   -7206.1285    26.229223   -7232.3577    3054.1538 
   12800    308.06328   -7187.6659    36.731125    -7224.397   -19698.883 
   13000    304.85436   -7196.4813    36.348517   -7232.8298    1574.6599 
   13200    340.46135    -7197.846    40.594024     -7238.44   -21159.135 
   13400    295.60838   -7201.2821    35.246097   -7236.5282    -2397.127 
   13600      276.326   -7201.0845    32.947013   -7234.0316    23138.672 
   13800    313.27955   -7191.1017    37.353073   -7228.4548   -1025.5391 
   14000    279.22507   -7197.5074    33.292676   -7230.8001    20143.453 
   14200    229.81139   -7207.6986    27.400965   -7235.0996    10152.423 
   14400    323.18855    -7192.421    38.534547   -7230.9555   -20001.543 
   14600    311.76178   -7197.6281    37.172106   -7234.8002    46410.219 
   14800    296.77333   -7202.0304    35.384997   -7237.4154   -21114.305 
   15000    352.84881   -7190.4812    42.071011   -7232.5522    22035.519 
   15200    316.54466   -7197.5991    37.742381   -7235.3414   -14431.951 
   15400    220.91236   -7203.0365    26.339912   -7229.3764    1604.5709 
   15600    331.21247   -7197.9233    39.491259   -7237.4145   -1950.6222 
   15800    280.18012    -7207.219    33.406548   -7240.6255   -2730.3958 
   16000    271.78416   -7202.9417    32.405478   -7235.3472   -5672.5439 
   16200    319.72156    -7194.795    38.121169   -7232.9162   -1329.4349 
   16400    235.67239   -7202.2434    28.099785   -7230.3432    8737.6426 
   16600    299.94873   -7194.8184    35.763608    -7230.582    2197.8302 
   16800    284.81476   -7195.7944    33.959148   -7229.7536    15191.974 
   17000    306.90686   -7206.3168    36.593242   -7242.9101    15214.203 
   17200    332.65755   -7185.7419    39.663559   -7225.4055    11746.384 
   17400    333.77438   -7189.1707     39.79672   -7228.9674    1840.9744 
   17600    319.70517   -7199.4282    38.119216   -7237.5474   -5336.5554 
   17800     239.1835   -7209.5632    28.518423   -7238.0817    14833.108 
   18000    261.13168   -7198.0437    31.135358   -7229.1791   -16510.182 
   18200    273.73529   -7193.3973    32.638117   -7226.0354   -20561.331 
   18400      321.814   -7199.2142    38.370656   -7237.5849    809.52682 
   18600    341.00162   -7195.4915    40.658442   -7236.1499    6577.5845 
   18800    290.13889   -7201.1287    34.593956   -7235.7226    4448.6482 
   19000    220.50009   -7213.8263    26.290755    -7240.117    6548.4573 
   19200    290.88321   -7200.6337    34.682704   -7235.3164    7565.6488 
   19400    300.86242   -7191.7996    35.872549   -7227.6722    21822.486 
   19600    298.26376   -7204.5464    35.562705   -7240.1091   -24578.646 
   19800    296.64162   -7209.5474    35.369293   -7244.9167   -2604.4054 
   20000    304.31769   -7199.4776     36.28453   -7235.7621    24087.939 
   20200    283.77657   -7192.5596    33.835363   -7226.3949   -21733.401 
   20400    360.23302   -7181.8443    42.951449   -7224.7958   -32484.003 
   20600    270.13935   -7201.4107    32.209364     -7233.62    19385.679 
   20800     305.9114    -7198.849    36.474552   -7235.3236   -7594.4846 
   21000    375.88997   -7188.6686    44.818263   -7233.4869     10621.23 
   21200    251.05848   -7203.1316    29.934305   -7233.0659   -8580.9953 
   21400    311.05823   -7195.7797     37.08822    -7232.868    11453.236 
   21600    372.21312   -7178.8545    44.379865   -7223.2344   -51463.708 
   21800    333.22512   -7199.3822    39.731232   -7239.1135    6918.8308 
   22000    294.51921   -7197.6467    35.116232   -7232.7629    12776.788 
   22200     338.3028   -7190.6043    40.336655    -7230.941    5102.1221 
   22400    310.19862    -7196.115    36.985727   -7233.1007   -8851.8196 
   22600    281.39778   -7207.2696    33.551734   -7240.8213     12708.85 
   22800    233.59421     -7218.87    27.851999    -7246.722    862.80233 
   23000    259.07892   -7204.1894    30.890602     -7235.08    4909.9608 
   23200    367.99961   -7189.6115    43.877477   -7233.4889    10157.048 
   23400    279.75587     -7201.08    33.355965    -7234.436   -20045.148 
   23600    312.61114   -7201.2153    37.273377   -7238.4887    8640.9063 
   23800    287.92832   -7197.2132    34.330385   -7231.5436    13967.999 
   24000    284.64634   -7196.8574    33.939067   -7230.7965    18141.349 
   24200     348.9372   -7187.4943    41.604621    -7229.099    18913.879 
   24400    355.57634    -7195.091    42.396221   -7237.4873   -4392.9824 
   24600    240.99284    -7202.961    28.734155   -7231.6951    23724.118 
   24800    319.37348   -7188.2654    38.079667    -7226.345    -17259.01 
   25000    432.20634   -7188.8589       51.533   -7240.3919   -9442.4574 
   25200    308.06909     -7196.99    36.731818   -7233.7218    5143.7664 
   25400    233.32476   -7206.4593    27.819872   -7234.2792    23545.573 
   25600    302.35123   -7202.7974    36.050063   -7238.8475   -7257.2187 
   25800    339.97184   -7190.2001    40.535659   -7230.7358    3682.4285 
   26000    240.69036   -7203.8828     28.69809   -7232.5809    -35777.93 
   26200    310.85624   -7199.6562    37.064136   -7236.7204   -8318.6412 
   26400    325.70963   -7189.5345    38.835142   -7228.3697    8704.1374 
   26600    325.96578   -7201.8814    38.865682    -7240.747    -1369.522 
   26800    234.63503   -7205.9418    27.976098   -7233.9179    2679.2323 
   27000    299.10314   -7192.8183    35.662786   -7228.4811   -2958.5927 
   27200    284.68169   -7196.8728    33.943281   -7230.8161   -6505.6761 
   27400    239.62095   -7213.1607    28.570582   -7241.7313   -1458.3138 
   27600    281.36235   -7202.2732    33.547509   -7235.8207    2863.4248 
   27800    289.19216   -7195.6586    34.481076   -7230.1396   -25016.958 
   28000     302.2541     -7202.39    36.038482   -7238.4285     1578.819 
   28200    325.24871   -7201.5952    38.780185   -7240.3754    36252.582 
   28400    269.50996   -7191.9557     32.13432     -7224.09   -15496.252 
   28600    324.61477   -7195.6927    38.704599   -7234.3973    39141.466 
   28800     278.4547   -7198.1145    33.200822   -7231.3154   -40502.432 
   29000    344.43371   -7194.6187    41.067658   -7235.6863    30280.646 
   29200    232.00145   -7209.2953     27.66209   -7236.9574   -50935.107 
   29400    285.74555   -7196.9778    34.070128   -7231.0479    849.61886 
   29600     335.5723   -7193.2367    40.011091   -7233.2477   -20551.422 
   29800    269.70007   -7200.4841    32.156987   -7232.6411    18636.249 
   30000    301.09754   -7188.3052    35.900583   -7224.2057   -47899.342 
   30200    309.58721    -7198.267    36.912827   -7235.1799    24855.553 
   30400    271.40786   -7198.5152    32.360611   -7230.8758   -31622.454 
   30600     296.5661   -7184.1228    35.360288   -7219.4831   -994.56098 
   30800    324.54047   -7196.4839     38.69574   -7235.1797   -9824.8042 
   31000    255.70145   -7202.0553    30.487899   -7232.5432   -18638.922 
   31200    328.86742   -7193.7343    39.211653    -7232.946    29873.494 
   31400    290.94898   -7195.0083    34.690546   -7229.6988   -9371.4688 
   31600     276.2229   -7203.0785     32.93472   -7236.0132    12696.837 
   31800    369.23943   -7188.0242    44.025305   -7232.0496    13478.032 
   32000    304.48318   -7195.9444    36.304261   -7232.2486    55044.838 
   32200    251.60027   -7205.4075    29.998905   -7235.4064   -14239.129 
   32400    319.81286   -7195.3821    38.132056   -7233.5141    20861.711 
   32600    358.35082   -7186.5454    42.727029   -7229.2724   -12685.293 
   32800    258.59307   -7204.3693    30.832673   -7235.2019   -55809.565 
   33000    300.56709   -7196.4743    35.837336   -7232.3116   -6930.5798 
   33200    357.90059    -7192.351    42.673347   -7235.0244   -22233.894 
   33400    280.70599   -7197.5546     33.46925   -7231.0238   -8536.6287 
   33600    283.05217   -7202.4652     33.74899   -7236.2141    6636.4893 
   33800    270.12383   -7208.1227    32.207513   -7240.3302    9374.8054 
   34000    288.52765   -7194.4668    34.401845   -7228.8686    -6467.878 
   34200    288.40873   -7198.1435    34.387666   -7232.5312   -33449.849 
   34400    308.21778   -7207.1789    36.749546   -7243.9284    5118.0775 
   34600    322.30467   -7191.8951     38.42916   -7230.3243    13489.312 
   34800    256.38089   -7200.8954     30.56891   -7231.4643   -7807.5948 
   35000    265.47094    -7208.729    31.652738   -7240.3817    15301.173 
   35200    397.48623   -7191.7666    47.393238   -7239.1599   -5102.1474 
   35400    290.92933   -7196.7157    34.688203   -7231.4039   -14744.014 
   35600    255.25606     -7207.76    30.434793   -7238.1948    25901.013 
   35800    347.38816   -7197.5826    41.419925   -7239.0025   -20560.078 
   36000    322.15681   -7196.5875     38.41153   -7234.9991    13079.631 
   36200    324.87875   -7189.1714    38.736073   -7227.9075   -16541.199 
   36400    276.99686   -7198.1934    33.027001   -7231.2204      13293.9 
   36600    260.16456   -7204.3784    31.020045   -7235.3984    5052.6609 
   36800    276.49188   -7194.2775    32.966791   -7227.2443   -25090.019 
   37000    393.12038   -7176.1743    46.872687    -7223.047    32666.885 
   37200    331.94245   -7195.1468    39.578296   -7234.7251   -10401.392 
   37400    286.64549   -7201.9623     34.17743   -7236.1398   -12180.777 
   37600    339.14383   -7185.7602    40.436934   -7226.1971   -177.05631 
   37800    313.35708   -7196.4322    37.362317   -7233.7946   -21136.244 
   38000    289.43977   -7198.5272    34.510599   -7233.0378    22106.533 
   38200    358.97355   -7190.4826    42.801279   -7233.2839   -15251.801 
   38400    360.45468    -7197.313    42.977878   -7240.2909   -19243.693 
   38600    309.63478   -7201.5069    36.918498   -7238.4254    11800.379 
   38800    315.59194   -7191.0657    37.628785   -7228.6945   -9974.1684 
   39000    319.43897   -7188.5506    38.087476   -7226.6381    -16045.93 
   39200     275.6172   -7198.4501    32.862501   -7231.3126   -17267.601 
   39400     295.7992   -7201.3539    35.268849   -7236.6227   -3375.6837 
   39600    318.20747   -7186.4825    37.940641   -7224.4231    -5965.469 
   39800    298.96414   -7199.8251    35.646212   -7235.4713   -1881.4722 
   40000    355.24709   -7198.2044    42.356963   -7240.5614    1364.5859 
   40200    390.92245   -7184.9453    46.610623   -7231.5559   -24159.447 
   40400     274.4309   -7198.6475    32.721055   -7231.3686    36297.492 
   40600    280.85523   -7197.8877    33.487043   -7231.3748   -65059.309 
   40800    361.82664   -7183.7902     43.14146   -7226.9316    2013.8451 
   41000    278.13021   -7201.3063    33.162133   -7234.4684   -2248.5594 
   41200    317.29685   -7196.1267    37.832066   -7233.9587    13876.313 
   41400    258.21592   -7194.0254    30.787705   -7224.8131   -22485.693 
   41600     316.7736   -7203.9942    37.769677   -7241.7639    16301.698 
   41800    274.65518   -7197.5051    32.747797   -7230.2529    7505.2211 
   42000    310.22548   -7192.9569     36.98893   -7229.9458    27831.568 
   42200    350.72112   -7199.7602    41.817322   -7241.5775   -5005.0125 
   42400    249.73507   -7199.4554    29.776513   -7229.2319   -8964.6823 
   42600    297.47212   -7195.1288    35.468316   -7230.5971   -47932.752 
   42800    245.08272    -7207.056    29.221801   -7236.2778    16025.353 
   43000    320.35188   -7200.2799    38.196324   -7238.4762   -17294.885 
   43200    289.02894   -7193.9063    34.461615   -7228.3679      953.954 
   43400    252.89992   -7204.0399    30.153865   -7234.1938   -10446.242 
   43600    304.21291   -7201.8204    36.272036   -7238.0924   -24243.606 
   43800    352.00788   -7189.4852    41.970745    -7231.456    26283.407 
   44000    285.81405   -7204.9106    34.078296   -7238.9889   -30618.577 
   44200    245.55885   -7201.1826    29.278571   -7230.4611    21832.487 
   44400    284.41329   -7195.3893     33.91128   -7229.3006   -50931.461 
   44600    256.48746   -7197.2442    30.581615   -7227.8258   -2842.5999 
   44800     301.3257   -7205.4421    35.927788   -7241.3699    22029.953 
   45000    364.32694   -7193.6365    43.439576    -7237.076   -246.78422 
   45200    351.21275   -7195.7568     41.87594   -7237.6328   -13943.695 
   45400    262.06384    -7207.313    31.246502   -7238.5596   -5178.3827 
   45600    380.36876   -7191.2652    45.352281   -7236.6175   -8819.5884 
   45800    268.65267   -7202.6314    32.032103   -7234.6635    25025.677 
   46000     329.4161   -7194.9018    39.277073   -7234.1789     13654.24 
   46200    328.69619   -7188.5122    39.191236   -7227.7034   -4803.0642 
   46400    316.78543   -7201.0654    37.771088   -7238.8365   -8309.7708 
   46600    346.72344   -7192.1787    41.340668   -7233.5194    14772.686 
   46800    354.36373   -7184.2607    42.251638   -7226.5123    13218.603 
   47000    304.08838   -7195.0563    36.257188   -7231.3134   -30584.059 
   47200    297.26401   -7204.0106    35.443502   -7239.4541   -14658.432 
   47400    293.28183   -7187.7728    34.968697   -7222.7415    38099.737 
   47600     305.5342   -7194.8121    36.429577   -7231.2417   -404.71309 
   47800    292.44983   -7197.7613    34.869496   -7232.6308     33705.08 
   48000    357.22937   -7184.8639    42.593316   -7227.4572    24838.441 
   48200    319.78359   -7191.0786    38.128566   -7229.2072   -303.28865 
   48400    271.38388   -7198.3334    32.357752   -7230.6912   -20873.434 
   48600    323.97106   -7205.1923    38.627847   -7243.8202   -10109.471 
   48800     334.3573   -7196.5058    39.866224    -7236.372    1476.8139 
   49000     400.7196   -7190.4092    47.778761   -7238.1879   -16977.575 
   49200    277.34702   -7202.7143    33.068752   -7235.7831    1303.0501 
   49400    317.77361    -7194.428    37.888911   -7232.3169    18609.019 
   49600    362.34059   -7191.1832    43.202739    -7234.386    4987.0964 
   49800    289.92918   -7201.4136    34.568953   -7235.9825    9471.5175 
   50000    282.83594   -7193.5241    33.723208   -7227.2473   -4995.8445 
   50200    312.41393   -7190.0262    37.249863   -7227.2761   -16185.183 
   50400    315.37177   -7203.2781    37.602534   -7240.8806   -6292.6466 
   50600    321.24979   -7193.1134    38.303385   -7231.4168    6710.3962 
   50800    335.83937   -7187.6413    40.042935   -7227.6843    56.564695 
   51000     256.2784   -7205.8042    30.556689   -7236.3609   -11012.145 
   51200    329.04094   -7193.4256    39.232342   -7232.6579    -137.5291 
   51400    295.12019   -7194.2723    35.187889   -7229.4602    5666.0389 
   51600    298.19311    -7198.916    35.554281   -7234.4702    22563.315 
   51800    298.04846   -7197.2239    35.537034    -7232.761   -8922.7803 
   52000     279.2093   -7188.3571    33.290795   -7221.6479   -26525.748 
   52200    313.40568   -7203.3238    37.368112   -7240.6919    3320.7631 
   52400    278.76418   -7202.7351    33.237723   -7235.9728   -7409.9305 
   52600    286.83542   -7196.1098    34.200076   -7230.3098    40908.459 
   52800    320.22965    -7185.189    38.181751   -7223.3708   -49564.489 
   53000    260.84306     -7202.92    31.100945    -7234.021   -20373.071 
   53200     267.9893   -7192.4115    31.953007   -7224.3645    16977.416 
   53400    312.20224   -7195.8629    37.224623   -7233.0875    24895.544 
   53600    275.65027   -7200.2678    32.866444   -7233.1343    41101.366 
   53800    348.86946   -7191.9804    41.596544   -7233.5769   -4200.1489 
   54000    326.96648    -7190.978    38.984999    -7229.963   -118.55013 
   54200    267.13783   -7205.8716    31.851485   -7237.7231    11558.055 
   54400     290.0375   -7198.2959    34.581868   -7232.8778    37429.789 
   54600    307.22957   -7190.2461    36.631719   -7226.8778   -15603.717 
   54800    303.61769   -7193.6585    36.201067   -7229.8596   -24887.021 
   55000    282.83726   -7200.5715    33.723366   -7234.2948   -16475.932 
   55200    325.14921   -7200.1055    38.768321   -7238.8739   -31231.063 
   55400    321.12157    -7192.077    38.288096    -7230.365   -39008.473 
   55600    269.97419   -7204.1399    32.189671   -7236.3296   -19821.666 
   55800     272.2307   -7198.0511    32.458721   -7230.5098    7887.2707 
   56000     315.3247    -7189.598    37.596922   -7227.1949    6339.0324 
   56200    255.46468   -7204.8378    30.459667   -7235.2975   -2447.7291 
   56400    287.16487    -7197.759    34.239358   -7231.9983   -1348.8293 
   56600    359.08884   -7178.5564    42.815024   -7221.3714    4708.4263 
   56800    331.73947   -7192.3805    39.554094   -7231.9346    -21978.97 
   57000    255.22617   -7202.8261    30.431229   -7233.2573    29658.598 
   57200    310.55011   -7194.7752    37.027635   -7231.8028   -13883.702 
   57400    347.37675   -7188.9503    41.418564   -7230.3689    9521.8865 
   57600    322.20273   -7196.7304    38.417005   -7235.1474    10699.784 
   57800    312.04851   -7196.9119    37.206293   -7234.1182    10081.371 
   58000    245.90814    -7203.131    29.320219   -7232.4512   -8216.6846 
   58200     275.2523   -7199.6571    32.818993    -7232.476   -2019.8545 
   58400    304.40581   -7189.4701    36.295036   -7225.7652    13583.568 
   58600    371.20794   -7189.6929    44.260015   -7233.9529    8339.7545 
   58800    288.96503   -7198.7786    34.453995   -7233.2326   -23969.428 
   59000    253.42791   -7210.1058    30.216818   -7240.3227   -10910.912 
   59200    303.55741   -7194.6511    36.193879    -7230.845   -43517.796 
   59400    282.97517   -7194.7054    33.739809   -7228.4452    9410.6807 
   59600    275.91662   -7196.1005    32.898201   -7228.9987   -1810.6958 
   59800    342.44205   -7193.3979    40.830188   -7234.2281   -14840.831 
   60000    277.68897   -7199.2063    33.109523   -7232.3159   -12756.244 
   60200    259.81208   -7204.9609    30.978019   -7235.9389   -8026.0333 
   60400    259.92129   -7196.5975    30.991039   -7227.5886    26711.872 
   60600    314.49189   -7197.0209    37.497623   -7234.5185   -18060.616 
   60800    274.69403   -7211.2023    32.752429   -7243.9548    6411.9312 
   61000    270.84083   -7202.7314    32.293003   -7235.0244   -24516.122 
   61200    339.70143   -7189.2045    40.503417   -7229.7079    10572.913 
   61400    262.81776   -7197.3417    31.336393   -7228.6781    2373.5704 
   61600    273.61658   -7210.9331    32.623962   -7243.5571    30428.033 
   61800    286.75305   -7192.0322    34.190255   -7226.2225    20422.674 
   62000    289.66033   -7200.1103    34.536897   -7234.6472   -10852.024 
   62200    285.93198   -7198.4134    34.092357   -7232.5058    -35924.59 
   62400    372.07037   -7190.1576    44.362844   -7234.5205    3694.3801 
   62600    289.29263   -7195.3802    34.493056   -7229.8732   -24628.912 
   62800    267.65284   -7202.3506    31.912891   -7234.2635    14302.365 
   63000    237.37895   -7211.7466    28.303263   -7240.0498   -6832.2205 
   63200    293.42894   -7198.8819    34.986237   -7233.8681    29126.836 
   63400    310.00215   -7190.9505    36.962301   -7227.9128   -1858.2405 
   63600     264.5126   -7206.8214    31.538473   -7238.3598    21422.881 
   63800    298.06558   -7200.7192    35.539075   -7236.2583   -19021.157 
   64000    324.87987   -7195.7351    38.736207   -7234.4713     36719.45 
   64200    220.41477   -7212.3853    26.280582   -7238.6658   -26368.486 
   64400    257.62079   -7206.9597    30.716746   -7237.6764    13564.171 
   64600    362.30659   -7194.9568    43.198685   -7238.1555   -1495.2941 
   64800    345.55272   -7192.5263    41.201081   -7233.7274   -7599.7612 
   65000    253.89467   -7194.8089    30.272471   -7225.0813    23240.594 
   65200    204.44257   -7210.4245    24.376179   -7234.8007   -13360.006 
   65400    291.98955   -7201.5971    34.814615   -7236.4117   -18907.574 
   65600    362.68139   -7194.3135    43.243374   -7237.5569    -34591.85 
   65800    316.45512   -7196.6512    37.731704   -7234.3829    -17135.52 
   66000    308.39563   -7195.3304    36.770752   -7232.1012    22807.421 
   66200    289.46123   -7192.4857    34.513157   -7226.9989   -26263.664 
   66400     272.3057   -7205.1662    32.467663   -7237.6338    1218.0257 
   66600    345.55785   -7192.7022    41.201692   -7233.9039    3218.6511 
   66800    282.95384   -7193.6796    33.737266   -7227.4169    26234.855 
   67000    265.32241   -7208.2777    31.635028   -7239.9127   -516.23422 
   67200    335.30981   -7201.3833    39.979795   -7241.3631    45635.765 
   67400    288.49074   -7195.8868    34.397444   -7230.2842    5015.8907 
   67600    262.33045   -7199.0449     31.27829   -7230.3232    18390.461 
   67800    283.97231   -7197.9603      33.8587    -7231.819   -8124.1745 
   68000    356.33698   -7185.9743    42.486914   -7228.4612    33416.309 
   68200    293.83345   -7203.1561    35.034469   -7238.1906   -10167.461 
   68400    283.31252   -7204.2787    33.780032   -7238.0587    14919.248 
   68600    322.23612    -7193.822    38.420987    -7232.243   -983.36451 
   68800    303.45016   -7201.8182    36.181091   -7237.9992   -11056.322 
   69000    201.64157   -7214.1347    24.042209   -7238.1769   -27575.973 
   69200    248.50429   -7198.6222    29.629763   -7228.2519   -23264.605 
   69400    309.95098   -7191.5695      36.9562   -7228.5257    24874.365 
   69600    320.93252   -7205.5078    38.265555   -7243.7734    22162.388 
   69800    233.74734   -7215.0711    27.870257   -7242.9413    15659.183 
   70000    241.19812   -7199.4222    28.758631   -7228.1809   -12444.481 
   70200    308.33132   -7190.2855    36.763084   -7227.0485   -1264.0536 
   70400    261.29511   -7202.1054    31.154844   -7233.2603   -24717.834 
   70600      186.521   -7215.4198    22.239347   -7237.6591   -24836.924 
   70800    242.46726    -7202.143    28.909953    -7231.053   -10262.836 
   71000    409.74992    -7190.401    48.855467   -7239.2564     1366.866 
   71200    318.18682   -7199.1637    37.938179   -7237.1018   -6978.9904 
   71400    266.56967   -7196.7862    31.783742     -7228.57     25373.06 
   71600    269.61136   -7199.4633     32.14641   -7231.6098    4112.6463 
   71800    345.73346   -7198.6862    41.222631   -7239.9088   -34424.977 
   72000    373.63133   -7198.0811    44.548961   -7242.6301   -7258.1195 
   72200    297.40641   -7196.0174    35.460481   -7231.4778   -21642.857 
   72400    302.05519   -7191.2295    36.014766   -7227.2443    6289.6031 
   72600    232.01126   -7205.7026     27.66326   -7233.3658    5297.3691 
   72800     284.0202   -7199.9071     33.86441   -7233.7715    22126.187 
   73000    356.82432   -7189.6029     42.54502   -7232.1479   -3341.8555 
   73200     302.9247   -7199.0767     36.11844   -7235.1951    12946.483 
   73400    296.77811   -7196.1441    35.385566   -7231.5296    10303.873 
   73600    356.90707   -7182.6665    42.554887   -7225.2213   -2188.0864 
   73800    284.73591   -7199.7624    33.949746   -7233.7121    36611.888 
   74000    276.21604    -7200.889    32.933902   -7233.8229   -46222.164 
   74200    357.61938   -7188.1804    42.639818   -7230.8202    15940.595 
   74400    295.72491   -7196.1314    35.259992   -7231.3914    15498.712 
   74600    285.86835   -7204.1508     34.08477   -7238.2356    21441.465 
   74800    372.21095   -7187.7575    44.379605   -7232.1371    16555.495 
   75000    341.06704   -7192.4319    40.666242   -7233.0981    17404.001 
   75200     269.4655   -7203.5283    32.129019   -7235.6573     33226.62 
   75400    325.35686   -7189.6388     38.79308   -7228.4318    16568.547 
   75600    306.43871   -7196.2856    36.537424    -7232.823    13849.883 
   75800    268.80209   -7202.4278    32.049919   -7234.4777   -291.29865 
   76000     307.9047   -7187.2989    36.712217   -7224.0112   -61408.619 
   76200    302.95902   -7200.6009    36.122532   -7236.7235   -24287.576 
   76400    357.33938    -7197.695    42.606433   -7240.3014    3664.4059 
   76600    349.54597   -7193.3872    41.677206   -7235.0644    6579.9241 
   76800    367.94488   -7184.1049    43.870952   -7227.9759   -19218.932 
   77000     248.4481   -7200.2633    29.623063   -7229.8864    19014.716 
   77200    331.88248   -7192.7062    39.571146   -7232.2774   -45671.099 
   77400    308.45922   -7194.1355    36.778334   -7230.9139   -33974.647 
   77600    224.08716   -7204.3362    26.718451   -7231.0546    -487.3373 
   77800    296.99732    -7192.107    35.411704   -7227.5187   -26064.817 
   78000    316.37106   -7199.6799    37.721682   -7237.4016    31333.643 
   78200    258.85034   -7207.8627    30.863348    -7238.726   -8739.2296 
   78400    308.82181   -7194.8284    36.821566     -7231.65   -14528.691 
   78600    266.27508   -7198.4847    31.748617   -7230.2333   -9055.1263 
   78800    254.17729   -7205.9405    30.306168   -7236.2467   -22823.614 
   79000    325.16459   -7190.3803    38.770156   -7229.1505   -22779.945 
   79200    286.82805   -7204.4817    34.199197   -7238.6809    36034.591 
   79400    291.29945   -7201.6479    34.732333   -7236.3802    29045.979 
   79600    355.79386   -7188.3291    42.422156   -7230.7512    21168.645 
   79800     268.9523   -7198.0174    32.067829   -7230.0852   -27793.178 
   80000    322.40749    -7200.512    38.441419   -7238.9534    4058.4878 
   80200    312.33328   -7200.6816    37.240247   -7237.9219   -31229.193 
   80400    318.81666   -7191.6091    38.013276   -7229.6224    679.82161 
   80600    257.30044   -7197.2013    30.678549   -7227.8798    831.24449 
   80800    289.49293   -7202.5458    34.516938   -7237.0627   -721.49169 
   81000    295.02354    -7183.026    35.176365   -7218.2023    19399.231 
   81200    278.43659    -7199.711    33.198663   -7232.9096   -8602.7039 
   81400    256.02698   -7201.3264    30.526711   -7231.8531    10093.719 
   81600    334.49136   -7189.6909    39.882209   -7229.5731   -3408.5809 
   81800    235.85389   -7206.1445    28.121426   -7234.2659     35317.06 
   82000    236.79798   -7203.6338    28.233992   -7231.8678   -5450.0505 
   82200    332.22465   -7192.3238    39.611943   -7231.9357    18823.077 
   82400    293.19859   -7198.4442    34.958772   -7233.4029   -6541.6337 
   82600    269.59997   -7206.1138    32.145052   -7238.2588    16535.166 
   82800    335.62825   -7192.7772    40.017763    -7232.795    7994.7025 
   83000    255.66826   -7207.6923     30.48394   -7238.1762   -22773.715 
   83200    290.66619   -7201.0323    34.656828   -7235.6892    6171.6705 
   83400    308.15761   -7192.2487    36.742372   -7228.9911   -2077.9142 
   83600    251.79458   -7204.9814    30.022072   -7235.0035   -23230.136 
   83800    235.93186     -7201.69    28.130722   -7229.8207    13226.532 
   84000    255.37802   -7193.1316    30.449335   -7223.5809     17102.07 
   84200    317.25711     -7199.17    37.827327   -7236.9973    30834.848 
   84400    205.50476   -7217.0636    24.502827   -7241.5664   -14.868593 
   84600    260.61301   -7207.8117    31.073515   -7238.8853    12209.153 
   84800    299.26184   -7195.1795    35.681708   -7230.8613    15292.542 
   85000     285.0022     -7189.63    33.981496   -7223.6115   -62160.501 
   85200     294.6177   -7204.6046    35.127976   -7239.7325    21004.082 
   85400    313.06904   -7196.3083    37.327974   -7233.6363   -38374.112 
   85600    338.27378   -7189.3882    40.333195   -7229.7214    13579.894 
   85800    293.10274   -7198.1062    34.947344   -7233.0535    9.5965142 
   86000    344.76919   -7189.3123    41.107659     -7230.42   -5792.5662 
   86200    322.54894   -7188.3131    38.458285   -7226.7714     34040.56 
   86400    280.56352   -7201.9873    33.452262   -7235.4396   -178.64164 
   86600    303.26438   -7201.3625     36.15894   -7237.5214   -35189.655 
   86800    314.36107    -7183.788    37.482025   -7221.2701    14907.958 
   87000    320.98514   -7195.0852    38.271829    -7233.357    12364.253 
   87200    232.94755   -7202.7044    27.774896   -7230.4793   -2562.2002 
   87400    343.50685   -7193.5857    40.957147   -7234.5428    4194.7492 
   87600    370.55898   -7183.9154    44.182637    -7228.098   -17083.422 
   87800    287.68763   -7197.5466    34.301687   -7231.8483    4403.0114 
   88000    336.70651   -7195.7931    40.146326   -7235.9394    22845.515 
   88200    323.75003   -7195.3768    38.601494   -7233.9783     13315.28 
   88400    262.57843   -7204.5157    31.307856   -7235.8236    3563.1339 
   88600    307.57233    -7188.126    36.672588   -7224.7985    5368.8696 
   88800    318.17572   -7194.9636    37.936855   -7232.9005    8288.8153 
   89000    323.13672   -7197.6795    38.528367   -7236.2079    11704.885 
   89200    267.15509   -7209.0851    31.853543   -7240.9386    10000.777 
   89400     297.4927   -7195.2561    35.470769   -7230.7269    22166.313 
   89600     312.8637   -7196.3137    37.303491   -7233.6172   -1278.4004 
   89800    258.49071    -7203.457    30.820468   -7234.2775    2314.1967 
   90000    390.03585   -7185.3545    46.504911   -7231.8594    28828.417 
   90200    301.65323   -7198.9629    35.966839   -7234.9298   -8527.7224 
   90400    281.31793   -7198.4319    33.542213   -7231.9741   -38170.429 
   90600    362.73921    -7183.163    43.250267   -7226.4133    32354.926 
   90800    316.10844   -7200.9174    37.690369   -7238.6078   -21258.084 
   91000    312.22368    -7197.342    37.227179   -7234.5692    2631.8809 
   91200    276.78621   -7191.7553    33.001885   -7224.7572   -35386.566 
   91400    333.83229   -7194.4354    39.803626    -7234.239   -23181.844 
   91600    274.68654   -7203.6399    32.751536   -7236.3914    30343.214 
   91800    374.30548   -7185.8555    44.629341   -7230.4848   -26564.448 
   92000    295.25274   -7196.0579    35.203693   -7231.2616    43925.526 
   92200    300.51631   -7201.4841    35.831281   -7237.3153   -23620.632 
   92400    309.29426   -7193.1944    36.877898   -7230.0723   -26652.154 
   92600    281.88062   -7195.0525    33.609304   -7228.6618   -29019.707 
   92800    218.76089   -7210.9639    26.083386   -7237.0473    19723.645 
   93000    278.83819    -7204.077    33.246547   -7237.3235    24026.411 
   93200    258.17445   -7199.2783     30.78276    -7230.061   -7296.3732 
   93400    360.95165   -7188.3007    43.037132   -7231.3378    30015.899 
   93600    270.97275   -7195.0831    32.308731   -7227.3918    22942.995 
   93800    259.06423   -7196.0368    30.888851   -7226.9256    6286.5485 
   94000    340.06627   -7183.2998    40.546918   -7223.8467   -25797.605 
   94200    278.87983   -7201.3702    33.251512   -7234.6218    10699.331 
   94400    290.02618   -7198.8433    34.580518   -7233.4238   -56071.857 
   94600    337.92774   -7185.9268    40.291936   -7226.2187   -9148.1921 
   94800    312.19311   -7196.8514    37.223534   -7234.0749    -5170.142 
   95000    359.84637   -7193.9072    42.905346   -7236.8125    7530.4601 
   95200    263.56613   -7206.1158    31.425623   -7237.5414    16025.109 
   95400    330.58926   -7186.6568    39.416952   -7226.0737    15830.554 
   95600    293.37891   -7191.9001    34.980272   -7226.8803    24543.519 
   95800    256.86175   -7204.3387    30.626243   -7234.9649     -25829.8 
   96000    378.53807   -7188.8723    45.134004   -7234.0063   -5767.7062 
   96200    342.95151   -7193.0288    40.890933   -7233.9197    -20380.98 
   96400    321.55289   -7198.4649    38.339523   -7236.8045   -6778.0044 
   96600    317.94531    -7191.426    37.909383   -7229.3354   -6127.6052 
   96800    249.31984   -7194.1642    29.727003   -7223.8912   -49215.885 
   97000    268.05794    -7204.884    31.961192   -7236.8452   -16089.978 
   97200    270.46892   -7196.4864    32.248658    -7228.735    16799.364 
   97400    344.64594   -7194.8158    41.092963   -7235.9087   -12389.838 
   97600    244.48715   -7208.3803    29.150791   -7237.5311    4323.2042 
   97800    262.57993    -7206.625    31.308036   -7237.9331      14134.9 
   98000    323.44926   -7195.3857    38.565632   -7233.9513   -23911.969 
   98200    284.99243   -7197.0188    33.980332   -7230.9991   -9228.6967 
   98400    306.42579   -7196.9855    36.535882   -7233.5214   -16047.381 
   98600    260.83828   -7197.1922    31.100375   -7228.2925    2650.0439 
   98800    275.38126   -7206.5846    32.834369   -7239.4189     11214.83 
   99000    332.99131   -7198.1576    39.703354   -7237.8609    2864.3439 
   99200    381.91618   -7188.9743    45.536784   -7234.5111    11811.594 
   99400    240.59158   -7204.3525    28.686312   -7233.0388    -4476.771 
   99600    305.17829   -7199.9172     36.38714   -7236.3043    8222.6622 
   99800    291.82719   -7194.1493    34.795257   -7228.9446    13055.586 
  100000    263.66347   -7204.0463    31.437228   -7235.4836   -5786.2808 
  100200    290.82937   -7196.8032    34.676285   -7231.4795   -3491.2567 
  100400    352.24888   -7189.1194     41.99948   -7231.1188   -465.94056 
  100600    280.12976   -7197.7186    33.400544   -7231.1191    9678.4997 
  100800    265.31896   -7199.5947    31.634617   -7231.2293    32243.003 
  101000    369.63701   -7186.5142    44.072708   -7230.5869    -33459.96 
  101200    285.56228   -7200.6513    34.048276   -7234.6996    12564.605 
  101400    279.14596   -7201.6344    33.283243   -7234.9176   -15421.028 
  101600    355.12703   -7187.6875    42.342649   -7230.0301   -16267.448 
  101800    405.37477   -7179.6844    48.333807   -7228.0182   -3143.8567 
  102000    290.91056   -7198.9258    34.685964   -7233.6118    46467.536 
  102200    272.52262   -7201.1465    32.493526     -7233.64   -31917.109 
  102400    332.68183   -7193.7347    39.666454   -7233.4011    625.85955 
  102600    275.45322   -7196.1219    32.842949   -7228.9649   -8770.2187 
  102800    305.03521     -7202.21    36.370081   -7238.5801   -7705.5267 
  103000    356.91069   -7183.9556    42.555319   -7226.5109    13204.863 
  103200    280.99818   -7198.6696    33.504088   -7232.1737    21830.645 
  103400    281.31059   -7202.1602    33.541337   -7235.7016   -5089.8223 
  103600     405.7521   -7186.3938    48.378797   -7234.7726   -43464.084 
  103800    306.95744   -7196.8547    36.599273   -7233.4539   -10238.963 
  104000    259.37059   -7204.6631    30.925379   -7235.5885    9253.6812 
  104200    307.18524    -7188.602    36.626434   -7225.2284    9230.4099 
  104400    250.38504   -7197.9694     29.85401   -7227.8234    -19576.49 
  104600    224.77237   -7207.6703    26.800149   -7234.4705    16806.155 
  104800    327.21202   -7195.5982    39.014275   -7234.6125   -47645.117 
  105000    304.01774   -7194.8201    36.248765   -7231.0688   -30558.183 
  105200     277.9684   -7201.7571     33.14284      -7234.9   -12673.865 
  105400    288.55715   -7197.1108    34.405362   -7231.5162   -17184.254 
  105600    311.74658   -7195.8375    37.170294   -7233.0077    4100.2257 
  105800     231.5774   -7203.6647     27.61153   -7231.2762   -45764.262 
  106000    264.87432   -7200.9946    31.581601   -7232.5762   -6533.9124 
  106200    358.46208   -7189.7751    42.740295   -7232.5154   -13530.557 
  106400    311.48307   -7204.0402    37.138875    -7241.179   -10839.838 
  106600    244.58159   -7205.9446     29.16205   -7235.1067    26134.205 
  106800    254.56456   -7196.0513    30.352344   -7226.4036   -7039.2063 
  107000    272.26414   -7193.6025    32.462707   -7226.0652   -2829.0795 
  107200    236.17962   -7205.3792    28.160264   -7233.5394    9504.4942 
  107400       377.85   -7189.5235    45.051963   -7234.5755   -13664.018 
  107600    321.78725   -7197.4845    38.367467   -7235.8519    15402.552 
  107800    249.96158   -7203.5065     29.80352     -7233.31   -25971.664 
  108000     324.1964   -7187.6462    38.654716   -7226.3009    13514.709 
  108200     290.2149   -7200.0371    34.603019   -7234.6402    -2314.475 
  108400     276.0536   -7203.2254    32.914534     -7236.14   -22478.931 
  108600    288.04314   -7197.3981    34.344075   -7231.7422   -44060.851 
  108800    310.19343   -7198.1562    36.985107   -7235.1413    21130.399 
  109000    323.98768   -7198.3356     38.62983   -7236.9654    12290.242 
  109200    336.05674   -7196.2048    40.068853   -7236.2737    2703.7736 
  109400    304.86815   -7195.6216    36.350161   -7231.9718   -1158.7208 
  109600    292.17951   -7206.5809    34.837265   -7241.4182   -2608.0396 
  109800    273.49751   -7195.2672    32.609765    -7227.877   -18542.537 
  110000     283.5074   -7193.2092    33.803268   -7227.0124    17787.844 
  110200    235.75897   -7206.5942    28.110109   -7234.7043   -19645.874 
  110400    299.04297   -7200.3139    35.655611   -7235.9696   -15848.149 
  110600      325.008   -7195.7882    38.751484   -7234.5397    18460.153 
  110800    237.80516   -7207.7524     28.35408   -7236.1065   -9739.8995 
  111000    268.03364   -7201.0633    31.958294   -7233.0216   -14202.245 
  111200    353.98254   -7192.3985    42.206188   -7234.6047    25966.601 
  111400    288.31171   -7203.7942    34.376098   -7238.1703   -7578.5637 
  111600    285.43208   -7199.8468    34.032753   -7233.8796   -17969.411 
  111800     315.6782   -7192.0139     37.63907   -7229.6529    367.62622 
  112000    298.67985   -7203.1082    35.612316   -7238.7205   -5595.6034 
  112200    242.80219   -7201.8672    28.949888   -7230.8171   -16433.522 
  112400    295.07873    -7195.998    35.182945   -7231.1809   -3257.1295 
  112600    279.59452   -7196.4796    33.336727   -7229.8163    -22118.95 
  112800    299.53732   -7207.4568    35.714555   -7243.1713    6144.6423 
  113000    319.78813    -7192.853    38.129106   -7230.9821    13907.609 
  113200    284.15258   -7197.3693    33.880195   -7231.2495   -43774.691 
  113400    294.33077    -7203.569    35.093765   -7238.6628     13352.42 
  113600    322.10104   -7189.2445     38.40488   -7227.6494     436.8297 
  113800    300.02167   -7198.0166    35.772304   -7233.7889   -11601.161 
  114000    315.87061    -7203.441    37.662012    -7241.103   -7057.5542 
  114200    315.34958   -7198.4779    37.599888   -7236.0778   -22554.535 
  114400    341.70277   -7190.1942    40.742042   -7230.9362   -6595.9245 
  114600    384.98052   -7184.9697    45.902152   -7230.8718   -30126.454 
  114800    230.16653   -7202.2303    27.443308   -7229.6736    4272.7406 
  115000     306.5625   -7192.3613    36.552184   -7228.9135   -45506.027 
  115200    333.29861   -7181.5249    39.739994   -7221.2649   -6739.6041 
  115400    296.29096   -7198.8637    35.327483   -7234.1912   -24614.381 
  115600    256.67342   -7202.2067    30.603788   -7232.8105    21134.727 
  115800    376.94721   -7187.8679    44.944321   -7232.8122    -5605.094 
  116000    341.99991   -7199.6909    40.777471   -7240.4684   -15676.401 
  116200    278.37384   -7198.2601    33.191181   -7231.4513    16304.167 
  116400    316.72679   -7190.9726    37.764096   -7228.7367   -28290.035 
  116600    326.91479   -7185.3827    38.978835   -7224.3616   -9983.9495 
  116800    305.39728   -7200.3131    36.413252   -7236.7263   -11334.346 
  117000    277.01783   -7200.8829    33.029502   -7233.9124   -4156.1024 
  117200    343.87614    -7188.282    41.001178   -7229.2832   -6353.4583 
  117400    269.11042   -7201.4612    32.086681   -7233.5479    20556.478 
  117600    274.99182   -7202.0942    32.787936   -7234.8821   -10627.876 
  117800     316.6207   -7193.2845    37.751446   -7231.0359    7861.4226 
  118000    342.90805   -7186.5936     40.88575   -7227.4793    18627.738 
  118200    280.89427   -7202.1679    33.491698   -7235.6596    21841.304 
  118400    288.54084   -7195.5468    34.403418   -7229.9502    -25288.03 
  118600    339.31597   -7190.5388    40.457458   -7230.9963   -6198.0155 
  118800    303.34893   -7202.6269    36.169022   -7238.7959   -2660.6623 
  119000     252.9682   -7201.9422    30.162006   -7232.1042   -13579.749 
  119200    332.34506   -7190.6894      39.6263   -7230.3157   -6451.0961 
  119400    295.70232   -7204.4534    35.257298   -7239.7107    15493.088 
  119600    336.75569   -7198.8446    40.152189   -7238.9968    -239.7555 
  119800    264.17478   -7197.1456    31.498193   -7228.6438   -38815.921 
  120000    308.02588   -7186.0319    36.726665   -7222.7586    24499.356 
  120200    304.23063   -7197.3139    36.274148    -7233.588    16395.486 
  120400    308.62043   -7206.5817    36.797556   -7243.3792   -21999.402 
  120600    324.81165   -7190.9513    38.728073   -7229.6794    30709.438 
  120800    332.59953   -7192.0894    39.656641    -7231.746   -16604.699 
  121000    314.82168    -7201.848    37.536946    -7239.385    14103.716 
  121200    282.15445   -7191.7077    33.641952   -7225.3497   -16800.116 
  121400    339.26056   -7190.0025    40.450851   -7230.4533    18182.783 
  121600    312.58798   -7204.7599    37.270615   -7242.0305    38399.567 
  121800    349.43513   -7192.0705     41.66399   -7233.7345    17220.825 
  122000    307.56502   -7195.6583    36.671716     -7232.33   -13329.183 
  122200    279.21622   -7203.7672     33.29162   -7237.0588   -11695.577 
  122400    372.51737    -7191.307    44.416141   -7235.7231   -3515.7048 
  122600    261.46632   -7196.1703    31.175257   -7227.3456    56199.843 
  122800    297.37046   -7207.7737    35.456194   -7243.2299    2399.5234 
  123000    318.33866   -7190.1261    37.956283   -7228.0824   -15235.115 
  123200    362.43382   -7196.1527    43.213855   -7239.3665    15823.101 
  123400    235.76888   -7206.6742     28.11129   -7234.7855    13559.988 
  123600    254.97057   -7198.8664    30.400753   -7229.2671    13997.203 
  123800    350.61779   -7196.3006    41.805001   -7238.1056   -11927.713 
  124000    320.70316    -7199.574    38.238208   -7237.8122   -14733.188 
  124200    296.17216   -7195.2163    35.313317   -7230.5296   -24068.127 
  124400    259.99581   -7202.3583    30.999924   -7233.3582    29332.001 
  124600    240.26886   -7210.5097    28.647834   -7239.1575    15551.612 
  124800    344.55115   -7194.4244    41.081661   -7235.5061    -7306.543 
  125000    286.03771    -7199.837    34.104963    -7233.942   -7684.4877 
  125200    292.96351   -7196.8121    34.930743   -7231.7428    18657.901 
  125400    305.04813   -7193.3705    36.371621   -7229.7422    319.45559 
  125600    248.27342    -7208.913    29.602236   -7238.5152    23558.101 
  125800    286.84728   -7200.6596     34.20149   -7234.8611    7845.8549 
  126000    244.44523   -7197.6114    29.145792   -7226.7572   -15550.419 
  126200    361.28111   -7186.4071    43.076415   -7229.4835   -15405.236 
  126400    331.73203   -7198.8428    39.553207    -7238.396    17118.765 
  126600    306.81191   -7200.5981    36.581921     -7237.18    28808.963 
  126800    276.67803   -7196.0113    32.988987   -7229.0003   -29964.642 
  127000    283.35445   -7200.7663    33.785031   -7234.5514    13473.829 
  127200    310.46441   -7203.8781    37.017417   -7240.8955    20116.468 
  127400    296.00166   -7187.7282    35.292988   -7223.0212    12824.093 
  127600    251.18461   -7192.5549    29.949345   -7222.5042   -9588.1305 
  127800    261.56479   -7201.5844    31.186999   -7232.7714    67.464961 
  128000    295.68012   -7200.0991    35.254651   -7235.3538   -26596.832 
  128200    274.83542   -7196.4419    32.769287   -7229.2112    12278.804 
  128400    323.47722   -7192.1162    38.568966   -7230.6852    12411.998 
  128600    258.46053   -7199.5722    30.816869   -7230.3891    14287.352 
  128800    301.11303   -7207.8428    35.902429   -7243.7453    14151.584 
  129000    320.22665   -7198.8116    38.181393    -7236.993   -1474.1415 
  129200    372.26393   -7190.4195    44.385923   -7234.8054   -25419.768 
  129400    282.38092   -7203.3498    33.668955   -7237.0187    20145.323 
  129600    275.29173   -7198.1541    32.823694   -7230.9778   -26300.465 
  129800    302.09193   -7198.6059    36.019146    -7234.625   -4065.3741 
  130000    284.45306   -7205.5745    33.916021   -7239.4905   -459.05237 
  130200    249.20457   -7200.1151     29.71326   -7229.8284   -11790.192 
  130400    323.70729   -7194.8455    38.596398   -7233.4419    23736.969 
  130600    327.36712   -7196.1847    39.032768   -7235.2175    1569.2841 
  130800    285.62946   -7208.5188    34.056286   -7242.5751   -11930.893 
  131000     321.8841   -7194.2712    38.379015   -7232.6502   -9351.6241 
  131200    303.49662   -7194.2021    36.186631   -7230.3888    22084.459 
  131400    245.00077   -7209.3084     29.21203   -7238.5204    2871.7512 
  131600    253.32341   -7201.8533    30.204358   -7232.0576     4859.624 
  131800    306.56459     -7194.03    36.552433   -7230.5825    799.24777 
  132000    272.46295   -7198.7077    32.486412   -7231.1942   -11371.077 
  132200    291.13502   -7194.9564    34.712727   -7229.6692   -12643.835 
  132400    314.90452   -7202.4634    37.546822   -7240.0102    4920.0481 
  132600    330.35438   -7204.2014    39.388946   -7243.5903    13565.459 
  132800    379.70398   -7186.9525    45.273018   -7232.2255    14630.551 
  133000     275.0903   -7197.7795    32.799677   -7230.5792    16756.305 
  133200    277.24595    -7202.952    33.056701   -7236.0087    -4369.146 
  133400    270.06743   -7202.6036    32.200788   -7234.8043    1828.9517 
  133600    339.21725   -7190.9607    40.445688   -7231.4064    7674.5092 
  133800    264.49461   -7204.8836    31.536327     -7236.42    3345.9173 
  134000    295.60024    -7200.222    35.245126   -7235.4671    6218.8079 
  134200    284.15084   -7195.2852    33.879987   -7229.1652    19787.841 
  134400    312.92274   -7206.1569     37.31053   -7243.4674    4709.9148 
  134600    352.70906   -7192.9129    42.054349   -7234.9673   -26557.453 
  134800    315.90263   -7189.6807    37.665829   -7227.3465    -39511.55 
  135000    219.71462   -7203.8619    26.197102    -7230.059    7306.9744 
  135200    293.99962   -7195.9573    35.054281   -7231.0116    3606.2692 
  135400    289.59601   -7203.7119    34.529228   -7238.2412    15479.465 
  135600    296.96428   -7202.6674    35.407765   -7238.0752    6236.2707 
  135800    347.76565   -7193.5853    41.464934   -7235.0502    -6752.641 
  136000    246.05567   -7201.0272    29.337808    -7230.365   -24408.378 
  136200    286.49267   -7207.3963    34.159209   -7241.5556    5953.0495 
  136400    338.35056    -7199.033     40.34235   -7239.3753   -40991.841 
  136600    310.72306   -7191.5379    37.048257   -7228.5861    27386.229 
  136800    270.42085   -7207.2063    32.242928   -7239.4492    841.02377 
  137000    219.14249   -7203.1301    26.128886    -7229.259   -27731.659 
  137200    283.78367   -7195.4203    33.836209   -7229.2565    11303.694 
  137400     243.0703   -7201.1958    28.981856   -7230.1776   -3784.8607 
  137600    331.49438   -7200.5328    39.524871   -7240.0577    5188.5258 
  137800    401.97527   -7182.1071    47.928476   -7230.0356    16723.016 
  138000    305.67312   -7198.0203    36.446141   -7234.4665    13270.243 
  138200     243.5671   -7200.7276     29.04109   -7229.7687    23363.116 
  138400    330.03778   -7189.5102    39.351197   -7228.8614    8949.8441 
  138600    302.10446    -7198.461    36.020641   -7234.4817    -14986.96 
  138800    393.60282   -7190.1704     46.93021   -7237.1006    1204.1671 
  139000    409.10112   -7180.7427    48.778109   -7229.5208     4668.811 
  139200    297.71307   -7197.8054    35.497044   -7233.3024   -30356.737 
  139400    228.02425   -7198.3719    27.187879   -7225.5598   -22374.396 
  139600     317.2767   -7193.8042    37.829663   -7231.6339   -8510.8281 
  139800    324.53356    -7205.389    38.694916   -7244.0839   -28617.543 
  140000     352.8418   -7192.8197    42.070176   -7234.8898    3679.8508 
  140200    288.57717   -7193.9228    34.407749   -7228.3306   -26818.845 
  140400    275.82126   -7204.4724    32.886831   -7237.3592   -11144.416 
  140600    301.89418   -7200.3815    35.995569   -7236.3771   -5074.5365 
  140800    311.59096    -7191.596    37.151739   -7228.7477   -18589.704 
  141000    280.77132   -7198.2212    33.477039   -7231.6983    28780.087 
  141200    252.15999   -7210.1251    30.065641   -7240.1907   -31800.386 
  141400     284.8183   -7193.0699     33.95957   -7227.0295    4860.2258 
  141600    248.78807   -7205.6177    29.663599   -7235.2813   -729.03486 
  141800    311.21414   -7199.6226    37.106809   -7236.7294      -1741.3 
  142000    338.36961   -7192.6097    40.344622   -7232.9543   -33750.342 
  142200    291.41241   -7201.5015    34.745801   -7236.2473   -3103.8332 
  142400    274.55498   -7209.1296     32.73585   -7241.8654    8843.1718 
  142600    300.52931   -7194.1165    35.832832   -7229.9494   -5916.5412 
  142800    277.88004   -7199.8365    33.132305   -7232.9688    50242.436 
  143000    335.38565   -7190.5011    39.988837     -7230.49   -31174.577 
  143200    418.73655   -7186.1741    49.926965   -7236.1011    129.82859 
  143400    259.36085   -7201.2069    30.924217   -7232.1311   -33902.712 
  143600    302.23951    -7194.043    36.036742   -7230.0797    339.11441 
  143800     374.9733    -7188.817    44.708967    -7233.526   -22341.021 
  144000    305.48905     -7200.57    36.424193   -7236.9942    4903.1121 
  144200    328.29356   -7196.9241     39.14323   -7236.0673   -9382.8615 
  144400    276.64451    -7192.334    32.984989    -7225.319   -11815.202 
  144600    274.44088   -7207.2962    32.722245   -7240.0185    11306.211 
  144800    334.39529   -7196.0765    39.870754   -7235.9473    6843.7213 
  145000    245.42197   -7200.8722    29.262251   -7230.1344   -17890.078 
  145200    292.11527   -7204.0269    34.829605   -7238.8565    30202.553 
  145400    336.75119   -7192.7834    40.151654    -7232.935   -9961.2501 
  145600    369.17102   -7185.6627    44.017147   -7229.6798   -27290.287 
  145800    282.74226   -7203.1312    33.712039   -7236.8432   -20894.042 
  146000    317.49797   -7198.9277    37.856045   -7236.7837   -30064.573 
  146200    344.65707     -7191.61     41.09429   -7232.7043   -19649.114 
  146400    234.50413    -7204.771    27.960491   -7232.7315    12359.896 
  146600    274.61474    -7194.868    32.742975    -7227.611    2744.4301 
  146800    278.59749   -7198.0912    33.217847   -7231.3091    4703.1249 
  147000    321.38412   -7196.7733      38.3194   -7235.0927    21113.752 
  147200    257.37372   -7204.1489    30.687287   -7234.8362   -48822.879 
  147400    300.53706    -7195.561    35.833755   -7231.3948   -5580.4098 
  147600    275.03707   -7191.0923     32.79333   -7223.8856   -19541.068 
  147800    305.94775   -7203.1989    36.478886   -7239.6777    18749.321 
  148000    351.24837   -7192.7947    41.880187   -7234.6749   -17844.735 
  148200     274.8921   -7195.5625    32.776045   -7228.3386   -8.8050463 
  148400    236.74742   -7213.2235    28.227963   -7241.4514   -28536.468 
  148600    284.38171   -7204.1845    33.907514    -7238.092    1665.6905 
  148800    370.29402   -7194.2285    44.151046   -7238.3796   -5605.7313 
  149000    343.22988   -7195.1719    40.924123   -7236.0961    25357.562 
  149200    313.91924    -7202.494    37.429345   -7239.9234    5650.7256 
  149400    381.99319   -7190.2433    45.545965   -7235.7892    8349.9474 
  149600    265.57943   -7198.1177    31.665673   -7229.7834    9784.5747 
  149800     267.5917   -7200.3126    31.905601   -7232.2182   -21362.166 
  150000    342.86211   -7185.8815    40.880272   -7226.7617   -12345.555 
  150200    316.85156   -7205.3242    37.778972   -7243.1032   -2499.8874 
  150400    263.02741   -7198.7327     31.36139   -7230.0941    -12691.26 
  150600    288.96336   -7192.7369    34.453796   -7227.1907    17143.146 
  150800    225.68961   -7208.3941    26.909514   -7235.3036   -31149.229 
  151000    320.65548   -7198.5671    38.232524   -7236.7996   -25495.634 
  151200    281.32741   -7198.1474    33.543343   -7231.6908     26681.69 
  151400    254.45804    -7206.542    30.339643   -7236.8816   -6358.7302 
  151600    331.63296   -7197.8334    39.541394   -7237.3748   -13156.187 
  151800    286.71104   -7191.9358    34.185246    -7226.121    20738.561 
  152000    259.94144   -7206.5724    30.993443   -7237.5658    7225.5122 
  152200    320.19853   -7201.6797     38.17804   -7239.8577     30.94493 
  152400    345.44847   -7192.0602    41.188651   -7233.2489    1111.1202 
  152600    230.88694   -7208.8345    27.529205   -7236.3637   -858.44411 
  152800    314.44494   -7202.3925    37.492026   -7239.8845    13285.137 
  153000    371.93267   -7194.7613    44.346426   -7239.1077    18629.567 
  153200    282.69372   -7198.3655    33.706252   -7232.0717   -25101.354 
  153400    268.85639   -7198.6071    32.056394   -7230.6635    27717.841 
  153600    336.15806   -7192.5873    40.080934   -7232.6683   -24540.933 
  153800    308.21027   -7198.9774    36.748651    -7235.726    2123.9447 
  154000    266.92088   -7208.0495    31.825618   -7239.8751    4317.1073 
  154200    380.02698   -7188.5807     45.31153   -7233.8922    6903.1128 
  154400    298.00204   -7201.0238    35.531498   -7236.5553   -7256.3538 
  154600    246.49496   -7201.7726    29.390186   -7231.1628     21094.87 
  154800    317.78083   -7189.5979    37.889771   -7227.4876    30046.898 
  155000    294.86851   -7204.1937    35.157881   -7239.3516    21169.287 
  155200    325.65507    -7201.962    38.828636   -7240.7907    8172.2635 
  155400    274.88527   -7195.0746    32.775231   -7227.8498    7427.9028 
  155600    282.56905   -7193.6064    33.691386   -7227.2978   -2567.6454 
  155800    245.40489   -7206.1251    29.260215   -7235.3853    15596.167 
  156000    325.53442    -7193.177    38.814251   -7231.9913   -18744.837 
  156200     354.2263   -7195.9054    42.235253   -7238.1406   -28043.197 
  156400    357.54133   -7197.5793    42.630512   -7240.2098   -12382.889 
  156600    296.47782   -7196.6922    35.349763   -7232.0419   -26599.915 
  156800    305.75864   -7184.4246    36.456337    -7220.881    7986.1166 
  157000    249.48518   -7201.7002    29.746718   -7231.4469    9781.1299 
  157200    324.57497   -7196.7176    38.699853   -7235.4175   -47130.716 
  157400     272.5502   -7204.2263    32.496815   -7236.7231    4329.6911 
  157600     322.6776    -7198.235    38.473625   -7236.7086    -11507.32 
  157800    412.04865   -7184.7075     49.12955    -7233.837    22887.407 
  158000    294.88889   -7202.3069    35.160311   -7237.4673   -17875.356 
  158200    328.45006    -7193.094     39.16189   -7232.2559    33132.687 
  158400    263.16628   -7200.3351    31.377948    -7231.713   -5056.1949 
  158600    201.04599   -7211.3086    23.971197   -7235.2798    24177.596 
  158800    304.81435   -7197.8664    36.343747   -7234.2101   -10581.901 
  159000    327.10486   -7189.7469    39.001498   -7228.7484    5746.1215 
  159200    255.35227   -7205.0109    30.446265   -7235.4572    8426.9443 
  159400    288.97663   -7197.5285    34.455378   -7231.9839   -9982.7982 
  159600    368.20672    -7183.156    43.902172   -7227.0581   -28643.992 
  159800    294.51893   -7204.4897      35.1162   -7239.6059    9039.4259 
  160000    322.72575   -7196.0495    38.479366   -7234.5289    4463.5229 
  160200    341.68089   -7186.9743    40.739434   -7227.7137   -2449.5185 
  160400    285.62836   -7203.7223    34.056155   -7237.7784   -12362.576 
  160600    287.16911   -7190.9669    34.239863   -7225.2067   -63865.243 
  160800    312.00244   -7202.2527      37.2008   -7239.4535   -32607.933 
  161000    260.12091   -7200.0464    31.014841   -7231.0612   -4014.4156 
  161200    322.36282   -7193.8251    38.436093   -7232.2612    28221.835 
  161400    269.22018   -7211.5001    32.099769   -7243.5999   -10768.848 
  161600    281.92599   -7206.7464    33.614713   -7240.3611     27698.21 
  161800    300.79528   -7195.2836    35.864544   -7231.1481   -22459.799 
  162000    357.65044    -7186.453    42.643521   -7229.0965    48929.731 
  162200    244.03907   -7203.3746    29.097365    -7232.472     4057.544 
  162400    334.89326   -7196.2257    39.930128   -7236.1558   -27598.432 
  162600    307.00124   -7192.2685    36.604495    -7228.873   -19749.374 
  162800    239.66559   -7200.8608    28.575904   -7229.4367    -16272.98 
  163000    291.53988   -7193.0631       34.761   -7227.8241   -21206.557 
  163200    264.59416     -7196.65    31.548197   -7228.1982    12869.407 
  163400    296.12477   -7204.5428    35.307668   -7239.8505    7047.8021 
  163600    321.32138   -7192.7508     38.31192   -7231.0627    19905.214 
  163800    256.33675   -7207.2108    30.563647   -7237.7745    12143.453 
  164000    242.44204   -7203.7627    28.906947   -7232.6696    30707.247 
  164200     297.4941   -7197.0251    35.470936    -7232.496    8486.7285 
  164400    335.82477   -7198.3584    40.041193   -7238.3995   -2390.0908 
  164600    317.83378   -7199.1345    37.896085   -7237.0306    4581.5425 
  164800    292.12676   -7192.0216    34.830975   -7226.8525   -38972.196 
  165000    292.06169   -7193.6189    34.823217   -7228.4422   -28064.741 
  165200     265.7733    -7201.828    31.688789   -7233.5168    -24160.09 
  165400    344.24145   -7190.2387    41.044736   -7231.2834     7838.215 
  165600    309.33903   -7193.7669    36.883235   -7230.6501   -12632.392 
  165800    306.39829   -7201.1263    36.532604   -7237.6589   -7148.0973 
  166000    301.71964   -7197.0092    35.974758   -7232.9839   -50313.557 
  166200    322.14812   -7190.3025    38.410494   -7228.7129    24021.971 
  166400    264.53556   -7204.4443     31.54121   -7235.9855    28155.829 
  166600    289.52762   -7196.0162    34.521073   -7230.5372    18847.345 
  166800      334.915   -7195.3754    39.932719   -7235.3081   -21670.315 
  167000    265.87569   -7201.1188    31.700997   -7232.8198    13374.325 
  167200    223.14827    -7210.732    26.606504   -7237.3385    21552.614 
  167400     282.0183   -7193.6142     33.62572   -7227.2399    22255.949 
  167600    329.58099   -7195.3114    39.296734   -7234.6082   -33749.112 
  167800    275.88275   -7206.2129    32.894163   -7239.1071   -19728.219 
  168000    304.99758   -7195.0981    36.365594   -7231.4637    22345.725 
  168200    229.41448   -7201.2027     27.35364   -7228.5563     23123.87 
  168400    351.95156   -7199.9001     41.96403   -7241.8642    4587.3173 
  168600    348.74911   -7187.0022    41.582194   -7228.5844   -18525.054 
  168800    279.40068    -7200.947    33.313614   -7234.2606   -22665.558 
  169000    171.60066   -7214.7498    20.460359   -7235.2101   -18014.421 
  169200    286.88857    -7203.751    34.206414   -7237.9574   -327.12434 
  169400    288.86481   -7194.3421    34.442045   -7228.7842   -8579.8492 
  169600    341.66603   -7194.8232    40.737661   -7235.5608    32343.209 
  169800     273.9746    -7201.801    32.666649   -7234.4677   -17514.896 
  170000    346.92551   -7186.4665    41.364762   -7227.8312    35382.971 
  170200    305.46277   -7198.8397    36.421059   -7235.2608   -6552.2518 
  170400    291.63581   -7196.3745    34.772438   -7231.1469    18905.802 
  170600    340.85709   -7185.0158    40.641209    -7225.657    17658.683 
  170800    330.76731   -7196.3501    39.438181   -7235.7883    19435.332 
  171000    273.74811   -7203.9543    32.639645    -7236.594    -4081.701 
  171200    331.68998   -7190.7689    39.548193   -7230.3171   -820.47784 
  171400    353.64625   -7182.9241    42.166092   -7225.0902   -13584.439 
  171600    311.17599   -7196.4926    37.102261   -7233.5949   -7512.8746 
  171800    294.82345   -7199.7675    35.152508     -7234.92    11996.265 
  172000    332.23426   -7187.9503    39.613088   -7227.5634    24619.683 
  172200    256.87007   -7193.9817    30.627235   -7224.6089     396.9972 
  172400    309.10908   -7197.2968    36.855818   -7234.1526   -28484.369 
  172600    307.52947    -7207.608    36.667478   -7244.2754    7549.9285 
  172800    303.59198   -7206.9811       36.198   -7243.1791    -22759.04 
  173000     338.0354   -7195.0905    40.304773   -7235.3953    19011.138 
  173200    260.20653   -7195.0541    31.025049   -7226.0792   -12318.436 
  173400    281.22518   -7184.8087    33.531153   -7218.3399   -12334.627 
  173600    274.51523    -7202.785    32.731111   -7235.5161   -4392.0755 
  173800    341.26814    -7200.808     40.69022   -7241.4982     12218.33 
  174000    341.93431   -7187.1594    40.769649   -7227.9291   -13152.564 
  174200    324.37833    -7197.414    38.676407   -7236.0904    20318.603 
  174400    279.66489   -7198.6752    33.345117   -7232.0204    14604.021 
  174600    281.92457   -7198.1376    33.614544   -7231.7522    44037.268 
  174800    246.60452   -7212.0007    29.403249   -7241.4039   -81.825765 
  175000     255.7272   -7197.0702    30.490968   -7227.5611   -39497.741 
  175200    317.44053   -7187.6036    37.849197   -7225.4528   -19986.981 
  175400     289.5408   -7199.9593    34.522645    -7234.482    2018.6173 
  175600    311.34021   -7201.3857    37.121841   -7238.5075    21703.581 
  175800    389.24889   -7185.8294     46.41108   -7232.2405    5930.3346 
  176000    268.37723   -7200.0042    31.999261   -7232.0035    15054.041 
  176200    227.34016   -7202.3451    27.106313   -7229.4514   -14546.155 
  176400    354.68432   -7197.0742    42.289864    -7239.364    21489.914 
  176600    342.26203   -7199.6391    40.808724   -7240.4479   -20630.547 
  176800    257.34726   -7210.2486    30.684132   -7240.9327   -9508.4749 
  177000     302.1334   -7194.4556    36.024091   -7230.4797    14449.988 
  177200    337.05178   -7194.0009    40.187494   -7234.1884    13035.066 
  177400    246.80804    -7210.084    29.427516   -7239.5115   -4134.4854 
  177600    237.17542   -7197.8473    28.278995   -7226.1263    24126.412 
  177800    277.15216   -7196.4121    33.045518   -7229.4576   -930.62377 
  178000    323.54575   -7195.3585    38.577137   -7233.9356    40070.574 
  178200    341.98828   -7200.7659    40.776085    -7241.542   -5548.8067 
  178400    268.71367    -7207.644    32.039376   -7239.6834   -13546.685 
  178600    290.91116   -7199.4752    34.686037   -7234.1612    36119.044 
  178800    334.95497   -7190.2965    39.937486    -7230.234    35530.049 
  179000    313.37593   -7203.7844    37.364565   -7241.1489   -20690.137 
  179200    288.92227    -7201.689    34.448896   -7236.1379    7397.2971 
  179400    287.76183   -7196.9405    34.310534    -7231.251    32227.303 
  179600    321.07989   -7193.2775    38.283127   -7231.5606   -28006.504 
[...]
  950000    274.49769   -7192.2108    32.729019   -7224.9398   -40496.791 
  950200    283.62437   -7198.7329    33.817215   -7232.5502   -6947.2201 
  950400    293.89808   -7193.4066    35.042174   -7228.4488   -17027.852 
  950600     339.0106   -7192.0494    40.421048   -7232.4704   -7124.3084 
  950800    284.97254   -7205.7122     33.97796   -7239.6902   -16548.369 
  951000    373.55454   -7192.4765    44.539805   -7237.0163   -12114.342 
  951200    309.66457   -7193.0185     36.92205   -7229.9405    12186.845 
  951400    246.70109   -7202.7609    29.414763   -7232.1757    28440.686 
  951600    270.74291   -7213.4668    32.281328   -7245.7481    -6848.261 
  951800    315.74227    -7201.361    37.646709   -7239.0077    12190.137 
  952000    278.03847   -7194.9565    33.151195   -7228.1077   -31629.846 
  952200    351.15164   -7187.4242    41.868653   -7229.2929    35330.957 
  952400    291.43788    -7203.361    34.748839   -7238.1098    20746.859 
  952600    297.82181   -7193.8505    35.510009   -7229.3605   -6461.8915 
  952800    307.35796   -7198.3297    36.647028   -7234.9767    38068.088 
  953000    314.53861   -7203.1922    37.503194   -7240.6954    -12589.09 
  953200    317.82374   -7190.7874    37.894887   -7228.6823    18120.142 
  953400    237.37177   -7205.9745    28.302406   -7234.2769    11665.391 
  953600    295.27073   -7200.0343    35.205838   -7235.2401   -6116.0915 
  953800    398.32219   -7190.3119    47.492912   -7237.8048   -22792.718 
  954000    289.60977   -7204.5169    34.530869   -7239.0478   -28206.615 
  954200    248.07543   -7202.3532    29.578629   -7231.9319     800.1387 
  954400    315.40211   -7200.6337    37.606151   -7238.2399   -7504.2124 
  954600    384.73848   -7189.7628    45.873293   -7235.6361   -7103.3634 
  954800    325.94775   -7192.2923    38.863533   -7231.1559   -5232.8748 
  955000    248.13376   -7199.7768    29.585584   -7229.3624   -37602.354 
  955200    325.07551   -7190.3655    38.759534    -7229.125    11882.349 
  955400    298.94909   -7206.5261    35.644418   -7242.1705    -6120.008 
  955600    336.73342   -7200.0808    40.149535   -7240.2303   -14747.897 
  955800    330.42116    -7195.783    39.396908   -7235.1799   -440.61532 
  956000    247.38106   -7207.3998    29.495838   -7236.8956    28009.447 
  956200    342.16955   -7197.2322    40.797698   -7238.0299    22754.084 
  956400     323.7618   -7194.7031    38.602897    -7233.306    16086.876 
  956600    300.01654   -7199.5439    35.771692   -7235.3156    13105.367 
  956800    296.22514   -7195.3049    35.319635   -7230.6246   -5259.1111 
  957000    326.04506   -7195.2993    38.875136   -7234.1744    24534.538 
  957200    276.23661    -7208.322    32.936354   -7241.2584    14383.612 
  957400     296.0889   -7190.9132    35.303391   -7226.2166    15294.762 
  957600    331.34448   -7194.4357    39.506998   -7233.9427   -7452.9292 
  957800    322.40758   -7199.6451     38.44143   -7238.0865    20552.727 
  958000    224.01031   -7214.4362    26.709287   -7241.1455    19689.811 
  958200     271.3722   -7198.5371    32.356359   -7230.8935    15324.429 
  958400    269.69018   -7199.0803    32.155808   -7231.2361    33256.568 
  958600    366.24878   -7186.9317    43.668722   -7230.6004    7650.3678 
  958800     357.0602   -7192.5124    42.573146   -7235.0855    22064.798 
  959000    280.87804    -7201.469    33.489764   -7234.9587   -9374.4996 
  959200    317.11524   -7192.0231    37.810412   -7229.8336    14219.121 
  959400    320.15961   -7196.5199      38.1734   -7234.6933    2799.7787 
  959600    267.34439   -7204.6815    31.876114   -7236.5576   -23141.511 
  959800    277.92275   -7195.9895    33.137397   -7229.1269    3938.6409 
  960000    302.32343   -7199.4671    36.046749   -7235.5138    16290.562 
  960200    240.85518   -7207.6649    28.717741   -7236.3827    862.67514 
  960400    302.96902   -7195.2478    36.123724   -7231.3715    1869.3485 
  960600    373.54665   -7197.4696    44.538865   -7242.0084   -15091.344 
  960800    300.61248   -7208.4089    35.842748   -7244.2516   -13027.997 
  961000    293.53325   -7187.5129    34.998674   -7222.5116    25015.275 
  961200    231.51722   -7201.4116    27.604355    -7229.016   -18733.745 
  961400    301.02457   -7197.7953    35.891882   -7233.6872   -13382.449 
  961600    366.60751   -7181.2679    43.711494   -7224.9794   -22896.728 
  961800    405.77452   -7194.3077     48.38147   -7242.6892   -8435.8685 
  962000     210.9431   -7201.6183    25.151253   -7226.7696    24936.625 
  962200     296.8172   -7188.2658    35.390227    -7223.656    2012.1789 
  962400    309.94176   -7192.0192    36.955101   -7228.9743   -39777.307 
  962600    268.10925   -7205.0884     31.96731   -7237.0557    21520.468 
  962800    318.16467   -7191.8879    37.935538   -7229.8234     -23801.7 
  963000     253.0643   -7199.8474    30.173464   -7230.0209   -44297.394 
  963200    261.01099   -7204.2479    31.120967   -7235.3689    6202.6459 
  963400     318.1503   -7192.8242    37.933825   -7230.7581   -19055.403 
  963600    264.19041   -7205.1578    31.500058   -7236.6579    14804.842 
  963800     258.1516   -7207.3115    30.780036   -7238.0915   -5487.1751 
  964000    284.32836   -7196.3159    33.901153   -7230.2171    17894.463 
  964200    302.70509   -7198.3072    36.092255   -7234.3994    4770.5194 
  964400    298.18348   -7200.3725    35.553133   -7235.9256    24381.717 
  964600    297.36339   -7189.5889    35.455351   -7225.0442   -25421.376 
  964800    355.10848   -7199.8154    42.340437   -7242.1559    2602.6758 
  965000    293.03916   -7201.5167    34.939763   -7236.4565   -31914.721 
  965200    340.05098   -7182.6091    40.545095   -7223.1542   -4202.5601 
  965400    315.13258   -7192.5702    37.574015   -7230.1442   -25164.114 
  965600    320.72396   -7201.2719    38.240689   -7239.5126    3397.5436 
  965800    281.50371    -7198.917    33.564364   -7232.4813   -2255.9692 
  966000    344.62062   -7191.3232    41.089944   -7232.4131   -4354.0192 
  966200    270.00077   -7206.3068     32.19284   -7238.4996    15696.443 
  966400     308.9916   -7196.7043     36.84181   -7233.5461   -40739.316 
  966600    277.06247    -7194.389    33.034823   -7227.4238   -14923.527 
  966800      230.946   -7210.5144    27.536246   -7238.0507    22831.434 
  967000    280.20012   -7203.9903    33.408933   -7237.3992    1434.3651 
  967200    337.41851    -7194.725     40.23122   -7234.9562    11783.926 
  967400      319.329   -7198.7785    38.074364   -7236.8529   -27512.369 
  967600    261.94711   -7203.3241    31.232583   -7234.5567     31659.75 
  967800     349.7441   -7192.3928    41.700829   -7234.0936   -317.64915 
  968000    298.69647   -7195.1305    35.614298   -7230.7448   -17072.833 
  968200    253.36392   -7205.3596    30.209188   -7235.5688   -5926.1227 
  968400    290.87224   -7191.3812    34.681396   -7226.0626   -21794.603 
  968600    340.71688   -7195.2149    40.624492   -7235.8393    5563.6973 
  968800    267.03679   -7206.8137    31.839438   -7238.6532    9400.9001 
  969000    214.06681   -7214.9242      25.5237   -7240.4479    22711.043 
  969200    280.83161   -7199.8738    33.484227   -7233.3581   -4142.9362 
  969400    322.18978   -7194.8188    38.415462   -7233.2342   -35516.282 
  969600    242.20765   -7208.0538    28.878999   -7236.9328   -10367.764 
  969800    302.99588   -7196.8695    36.126927   -7232.9964   -18558.575 
  970000    297.77906   -7196.2461    35.504913    -7231.751   -34024.469 
  970200    252.65591   -7204.3447    30.124772   -7234.4695   -11453.086 
  970400    294.68797   -7203.3835    35.136354   -7238.5198   -5859.5138 
  970600    322.51018   -7190.2299    38.453663   -7228.6835   -55826.685 
  970800    269.99603   -7206.2398    32.192276   -7238.4321    -15696.41 
  971000    305.83354   -7200.5696    36.465268   -7237.0349    8796.1657 
  971200    316.84039    -7190.954    37.777641   -7228.7316    30627.601 
  971400    231.65289   -7208.3399     27.62053   -7235.9604    -58374.18 
  971600    292.66168   -7207.0346    34.894756   -7241.9294    12739.674 
  971800    311.98249   -7194.0335    37.198421   -7231.2319   -19403.805 
  972000    291.90269   -7197.8415    34.804259   -7232.6458   -27928.009 
  972200    254.05097   -7207.5719    30.291108    -7237.863   -17535.873 
  972400    335.35037   -7189.1965    39.984631   -7229.1811   -3966.9054 
  972600    313.17779   -7197.0351    37.340941    -7234.376    4001.5077 
  972800    269.18886   -7199.5594    32.096034   -7231.6555   -19985.245 
  973000    366.40305   -7182.5125    43.687116   -7226.1996    -17947.73 
  973200    318.69246   -7187.0622    37.998467   -7225.0607    17576.251 
  973400    329.43639   -7198.4691    39.279493   -7237.7486      33145.4 
  973600    286.70243   -7204.3403    34.184219   -7238.5245    8091.3283 
  973800    282.93797   -7188.3091    33.735374   -7222.0445   -2841.4878 
  974000    262.18229   -7197.1532    31.260624   -7228.4138   -16973.142 
  974200    344.40469    -7197.418    41.064199   -7238.4822   -2244.8721 
  974400     316.9331   -7202.2236    37.788695   -7240.0123   -5900.5671 
  974600    271.24234   -7205.7108    32.340876   -7238.0516   -1362.6294 
  974800     293.9157   -7193.1843    35.044275   -7228.2286    63166.492 
  975000    302.26129   -7200.5531     36.03934   -7236.5925    1732.0575 
  975200    251.16019   -7208.8669    29.946433   -7238.8133    7061.6613 
  975400    279.11296   -7197.1461    33.279309   -7230.4254   -10071.069 
  975600    318.24749   -7198.4518    37.945413   -7236.3972    27595.176 
  975800    247.65663   -7210.1415    29.528695   -7239.6702    8697.5232 
  976000    269.84452   -7194.8245     32.17421   -7226.9987    28568.351 
  976200    280.03709   -7195.7759    33.389495   -7229.1654    29935.877 
  976400    261.38779   -7203.2108    31.165895   -7234.3767    21003.338 
  976600    283.51122   -7202.7853    33.803724   -7236.5891    21754.968 
  976800    354.17423   -7191.1076    42.229044   -7233.3366    18276.733 
  977000     252.8558    -7205.191    30.148604   -7235.3396   -8330.3907 
  977200    263.93111   -7203.7754     31.46914   -7235.2446    7632.7471 
  977400    319.74618   -7195.8483    38.124106   -7233.9724    39671.673 
  977600    291.72579   -7202.5396    34.783166   -7237.3228    15676.933 
  977800    281.12103   -7210.0965    33.518736   -7243.6153    10220.728 
  978000    335.76034   -7196.2686    40.033512   -7236.3021    11686.816 
  978200    282.89794   -7196.8466    33.730601   -7230.5772    -21980.26 
  978400    253.60893   -7210.5359    30.238402   -7240.7743     17758.74 
  978600    264.10255   -7205.3534    31.489581   -7236.8429   -7976.8007 
  978800    333.26309   -7195.3419    39.735759   -7235.0777    9374.2765 
  979000    288.78802   -7198.9048    34.432889   -7233.3377    18552.661 
  979200    217.85727   -7209.0178    25.975645   -7234.9934   -47388.556 
  979400    299.57106   -7196.2686    35.718577   -7231.9871    7112.5221 
  979600    351.58136    -7196.985     41.91989   -7238.9049    16703.231 
  979800    262.36931   -7210.0527    31.282923   -7241.3357   -4696.6818 
  980000    317.93921   -7195.0408    37.908656   -7232.9494    13888.959 
  980200    308.25594   -7198.9158    36.754097   -7235.6699   -8805.8437 
  980400    275.84492    -7210.193    32.889652   -7243.0826   -26950.352 
  980600    269.50889   -7199.3202    32.134193   -7231.4544    16891.571 
  980800    287.77289   -7193.2832    34.311853    -7227.595    28916.454 
  981000    285.84434   -7205.9227    34.081907   -7240.0046     9001.946 
  981200    278.92684   -7197.5247    33.257117   -7230.7818   -15075.848 
  981400    310.00766   -7192.6994    36.962958   -7229.6624    18910.584 
  981600    305.12323   -7205.3056    36.380576   -7241.6862   -17609.182 
  981800    319.10805   -7191.4835     38.04802   -7229.5316    14516.258 
  982000    309.21821   -7193.3327     36.86883   -7230.2015    3641.9611 
  982200    308.22818   -7200.5567    36.750786   -7237.3075     4102.296 
  982400    402.76857   -7186.0345    48.023063   -7234.0576   -9116.8046 
  982600    319.32284   -7186.9197    38.073629   -7224.9933    6283.6713 
  982800    235.60577   -7200.7889    28.091842   -7228.8807    12237.183 
  983000    311.19048   -7196.7561    37.103988   -7233.8601   -16504.964 
  983200    353.91053    -7185.579    42.197603   -7227.7766    29001.871 
  983400    347.99428   -7202.3073    41.492194   -7243.7995    3836.0639 
  983600    275.78622   -7198.2658    32.882654   -7231.1485   -8079.0915 
  983800    245.48694    -7197.328    29.269998    -7226.598    3251.2265 
  984000    250.60886   -7209.8206    29.880696   -7239.7013   -7195.0734 
  984200    363.83911   -7200.3103    43.381412   -7243.6917   -18628.702 
  984400    348.14316   -7193.8633    41.509946   -7235.3733   -8703.6717 
  984600    227.09914   -7205.8126    27.077576   -7232.8902    27597.499 
  984800    275.12115   -7201.7054    32.803356   -7234.5088    20767.643 
  985000    293.42855   -7193.8406    34.986191   -7228.8268    14122.664 
  985200    241.79769   -7202.9308     28.83012   -7231.7609   -11533.118 
  985400     337.3087   -7201.8134    40.218126   -7242.0316     3710.142 
  985600    384.85408   -7187.4602    45.887076   -7233.3473    6208.1261 
  985800    233.43665   -7202.1852    27.833213   -7230.0184    24909.374 
  986000    284.66669   -7200.1556    33.941493   -7234.0971    13011.999 
  986200    389.72826   -7187.1517    46.468237   -7233.6199   -44080.434 
  986400    252.40935   -7203.5677    30.095373   -7233.6631    6759.4558 
  986600    276.89883   -7200.9934    33.015312   -7234.0087   -28147.241 
  986800    293.04002    -7194.993    34.939865   -7229.9329    12217.455 
  987000    305.14243   -7201.6888    36.382865   -7238.0717   -19396.075 
  987200    265.18201    -7209.825    31.618288   -7241.4433   -29045.091 
  987400     281.8109   -7199.2211    33.600991   -7232.8221    22326.558 
  987600    327.35841   -7194.5179    39.031729   -7233.5497    6035.4629 
  987800    263.93373   -7210.2401    31.469452   -7241.7095   -22889.978 
  988000    323.50105    -7200.245    38.571807   -7238.8168   -10829.971 
  988200    305.92844   -7198.0978    36.476583   -7234.5744    771.01525 
  988400    340.06068   -7184.6635    40.546251   -7225.2097    5025.0808 
  988600    296.08114   -7201.5572    35.302466   -7236.8597    4994.6858 
  988800    274.40123   -7199.4056    32.717518   -7232.1231   -22215.382 
  989000    383.49197   -7177.9632    45.724669   -7223.6879    40142.584 
  989200     280.9913   -7198.1426    33.503268   -7231.6459   -29132.391 
  989400    279.07536   -7200.2825    33.274825   -7233.5574   -36640.378 
  989600    270.86112   -7194.1155    32.295422    -7226.411     17882.47 
  989800    277.07724   -7207.2296    33.036585   -7240.2662   -9183.6982 
  990000     325.8078   -7202.5191    38.846847    -7241.366    8517.8741 
  990200    342.91785   -7191.7985    40.886919   -7232.6854    3582.9101 
  990400    284.26633   -7199.4228    33.893758   -7233.3165    15229.817 
  990600    346.44593   -7196.6495    41.307581   -7237.9571   -6419.9642 
  990800    345.67165   -7181.6487    41.215262    -7222.864    13423.024 
  991000    289.01063   -7198.4305    34.459431   -7232.8899   -3240.4532 
  991200    310.86532    -7200.379    37.065219   -7237.4442    28252.525 
  991400    404.30009   -7185.3167    48.205671   -7233.5223   -22281.009 
  991600    337.44269   -7200.4107    40.234102   -7240.6448   -15401.869 
  991800    286.36555   -7198.8403    34.144052   -7232.9843    18532.429 
  992000    278.24844   -7196.8161     33.17623   -7229.9923    432.07418 
  992200    335.45367   -7189.8746    39.996947   -7229.8715   -21334.031 
  992400    306.64165    -7203.654     36.56162   -7240.2157     28652.18 
  992600     345.3781   -7195.7484    41.180261   -7236.9287   -3436.8815 
  992800    332.75041   -7193.2233     39.67463   -7232.8979   -7536.4119 
  993000    323.11408   -7204.9681    38.525668   -7243.4937   -10777.568 
  993200    289.56644   -7196.1141    34.525702   -7230.6398   -11228.861 
  993400    337.75196   -7185.9153    40.270977   -7226.1863    -24513.62 
  993600    312.09374   -7199.7971    37.211687   -7237.0087    15593.917 
  993800    261.98874    -7198.925    31.237547   -7230.1626   -10663.011 
  994000    239.71491   -7211.1826    28.581784   -7239.7644    12413.437 
  994200    309.92911   -7198.1196    36.953593   -7235.0732    32008.147 
  994400    358.28901   -7193.4584    42.719659    -7236.178    18105.193 
  994600    283.68612   -7199.8684    33.824578    -7233.693    2058.1168 
  994800    270.08811   -7206.5206    32.203254   -7238.7239    23191.596 
  995000    356.51948   -7189.3958    42.508674   -7231.9045    23539.154 
  995200    236.37552   -7200.8503     28.18362   -7229.0339    2956.3645 
  995400     303.6279   -7197.3119    36.202284   -7233.5142   -40245.302 
  995600    317.21414   -7187.9297    37.822204   -7225.7519    22399.557 
  995800    274.92335   -7200.5547    32.779771   -7233.3345   -4958.6285 
  996000     248.2321   -7199.7107    29.597309    -7229.308   -40686.378 
  996200    349.42752   -7180.9331    41.663082   -7222.5962   -33149.611 
  996400    309.51781    -7197.411    36.904552   -7234.3155   -69.358151 
  996600    283.59187   -7197.5643    33.813339   -7231.3776   -5630.4811 
  996800    286.90544   -7195.1291    34.208425   -7229.3375    29430.504 
  997000    317.05508   -7201.9612    37.803238   -7239.7644   -10745.179 
  997200    296.04961   -7199.3935    35.298707   -7234.6922    6809.9214 
  997400    330.35916   -7187.3982    39.389516   -7226.7877    6081.2846 
  997600     206.0106   -7206.2156    24.563139   -7230.7788   -19782.952 
  997800    275.44901   -7194.3356    32.842447    -7227.178     22571.51 
  998000    302.51852   -7194.7223    36.070009   -7230.7923   -606.67486 
  998200    252.48588    -7206.492    30.104498   -7236.5965    8651.0514 
  998400    314.71402   -7195.2131    37.524108   -7232.7372   -5314.7957 
  998600    281.97766   -7197.7822    33.620874   -7231.4031   -19130.817 
  998800    288.54697   -7208.1849    34.404148    -7242.589   -2025.9659 
  999000    317.52041   -7192.0576    37.858721   -7229.9163    -2807.185 
  999200    282.82986   -7199.3395    33.722483    -7233.062    16890.879 
  999400    246.54901   -7206.2661    29.396631   -7235.6627    6750.7869 
  999600    332.08069   -7193.3642    39.594779    -7232.959   -17521.818 
  999800    302.25253   -7191.2366    36.038295   -7227.2749    7436.7814 
 1000000    281.41608   -7205.3629    33.553915   -7238.9168    259.36933 
Loop time of 3868.89 on 8 procs for 1000000 steps with 41 atoms

Performance: 5.583 ns/day, 4.299 hours/ns, 258.472 timesteps/s
99.2% CPU use with 8 MPI tasks x no OpenMP threads

MPI task timing breakdown:
Section |  min time  |  avg time  |  max time  |%varavg| %total
---------------------------------------------------------------
Pair    | 3330.3     | 3407.8     | 3490.8     | 103.0 | 88.08
Neigh   | 1.5537     | 1.5831     | 1.6072     |   1.5 |  0.04
Comm    | 61.115     | 144.19     | 221.81     | 499.9 |  3.73
Output  | 0.12028    | 0.13173    | 0.19684    |   6.8 |  0.00
Modify  | 310.79     | 311.14     | 311.75     |   1.6 |  8.04
Other   |            | 4.077      |            |       |  0.11

Nlocal:    5.125 ave 7 max 4 min
Histogram: 1 0 0 6 0 0 0 0 0 1
Nghost:    1014.12 ave 1030 max 1003 min
Histogram: 2 1 1 0 1 1 0 0 1 1
Neighs:    1522.88 ave 2081 max 1192 min
Histogram: 1 0 0 6 0 0 0 0 0 1

Total # of neighbors = 12183
Ave neighs/atom = 297.146
Neighbor list builds = 623
Dangerous builds = 0

unfix 1
unfix output
undump 1

Please see the log.cite file for references relevant to this simulation

Total wall time: 1:04:30
