ITEM: TIMESTEP
0
ITEM: NUMBER OF ATOMS
41
ITEM: BOX BOUNDS pp pp pp
0.0000000000000000e+00 9.8979999999999997e+00
0.0000000000000000e+00 9.8979999999999997e+00
0.0000000000000000e+00 9.8979999999999997e+00
ITEM: ATOMS id type x y z 
1 1 1.091 1.091 1.091 
2 1 0.2 0.2 0.2 
3 1 1.982 1.982 0.2 
4 1 0.2 1.982 1.982 
5 1 1.982 0.2 1.982 
11 1 3.566 3.566 8.515 
12 1 2.675 2.675 9.406 
13 1 4.456 4.456 9.405 
14 1 4.457 2.675 7.624 
15 1 2.675 4.457 7.624 
16 1 3.566 8.515 3.566 
17 1 2.675 9.406 2.675 
18 1 4.457 7.624 2.675 
19 1 4.456 9.405 4.456 
20 1 2.675 7.624 4.457 
31 1 1.091 6.04 6.04 
32 1 0.2 5.149 5.149 
33 1 1.982 6.931 5.149 
34 1 0.2 6.931 6.931 
35 1 1.982 5.149 6.931 
26 1 8.515 3.566 3.566 
27 1 9.406 2.675 2.675 
28 1 7.624 4.457 2.675 
29 1 7.624 2.675 4.457 
30 1 9.405 4.456 4.456 
36 1 6.04 1.091 6.04 
37 1 6.931 0.2 6.931 
38 1 5.149 0.2 5.149 
39 1 5.149 1.982 6.931 
40 1 6.931 1.982 5.149 
21 1 6.04 6.04 1.091 
22 1 5.149 6.931 1.982 
23 1 6.931 5.149 1.982 
24 1 5.149 5.149 0.2 
25 1 6.931 6.931 0.2 
41 2 9.723 9.868 1.22 
6 1 8.515 8.515 8.515 
7 1 9.405 9.405 9.405 
8 1 7.624 7.624 9.406 
9 1 7.624 9.406 7.624 
10 1 9.406 7.624 7.624 
ITEM: TIMESTEP
10
ITEM: NUMBER OF ATOMS
41
ITEM: BOX BOUNDS pp pp pp
0.0000000000000000e+00 9.8979999999999997e+00
0.0000000000000000e+00 9.8979999999999997e+00
0.0000000000000000e+00 9.8979999999999997e+00
ITEM: ATOMS id type x y z 
1 1 1.16728 1.16232 1.13621 
2 1 0.154307 0.160188 0.210178 
3 1 2.00153 2.00106 0.190195 
4 1 0.208677 1.98676 1.98285 
5 1 1.99282 0.204238 1.98738 
11 1 3.56437 3.56453 8.51515 
12 1 2.69026 2.69014 9.38542 
13 1 4.45866 4.45868 9.408 
14 1 4.45922 2.67218 7.62178 
15 1 2.6722 4.45924 7.62179 
16 1 3.56448 8.5156 3.56478 
17 1 2.67287 9.40399 2.67388 
18 1 4.45758 7.62305 2.67346 
19 1 4.45725 9.4065 4.45733 
20 1 2.67357 7.62302 4.4578 
31 1 1.09265 6.03795 6.03604 
32 1 0.198558 5.14772 5.14763 
33 1 1.98483 6.93346 5.14623 
34 1 0.200409 6.93071 6.92992 
35 1 1.98282 5.14865 6.93064 
26 1 8.51467 3.56549 3.56583 
27 1 9.40448 2.67217 2.67297 
28 1 7.6235 4.45725 2.67379 
29 1 7.62342 2.67394 4.45749 
30 1 9.40625 4.45683 4.45699 
36 1 6.03821 1.093 6.03596 
37 1 6.93101 0.200032 6.93031 
38 1 5.14652 0.197346 5.14646 
39 1 5.14868 1.98286 6.93065 
40 1 6.93213 1.98343 5.14751 
21 1 6.03851 6.03823 1.09483 
22 1 5.14634 6.9335 1.98506 
23 1 6.93216 5.14761 1.98368 
24 1 5.14891 5.14889 0.199487 
25 1 6.93038 6.93032 0.20121 
41 2 9.65112 9.81315 1.29842 
6 1 8.5241 8.52352 8.51723 
7 1 9.39711 9.3893 9.31639 
8 1 7.61736 7.61745 9.41269 
9 1 7.61669 9.41299 7.61625 
10 1 9.4131 7.61673 7.61615 
ITEM: TIMESTEP
20
ITEM: NUMBER OF ATOMS
41
ITEM: BOX BOUNDS pp pp pp
0.0000000000000000e+00 9.8979999999999997e+00
0.0000000000000000e+00 9.8979999999999997e+00
0.0000000000000000e+00 9.8979999999999997e+00
ITEM: ATOMS id type x y z 
1 1 1.17379 1.16775 1.13173 
2 1 0.124169 0.137429 0.245287 
3 1 1.99838 1.99728 0.200962 
4 1 0.215719 1.99288 1.9864 
5 1 1.9942 0.214916 1.98662 
11 1 3.56962 3.56968 8.50959 
12 1 2.68492 2.68496 9.39004 
13 1 4.46075 4.46077 9.40795 
14 1 4.46062 2.67172 7.61995 
15 1 2.67169 4.46069 7.61989 
16 1 3.56333 8.51509 3.56348 
17 1 2.67311 9.40272 2.67339 
18 1 4.45671 7.62303 2.67356 
19 1 4.45673 9.40665 4.457 
20 1 2.6736 7.62348 4.45705 
31 1 1.09355 6.0372 6.03482 
32 1 0.198201 5.14658 5.14598 
33 1 1.98426 6.93187 5.14654 
34 1 0.205289 6.92584 6.92425 
35 1 1.9819 5.14902 6.92921 
26 1 8.51683 3.56257 3.56284 
27 1 9.40345 2.67179 2.67226 
28 1 7.62365 4.45632 2.67402 
29 1 7.62414 2.67416 4.45656 
30 1 9.40585 4.45616 4.45644 
36 1 6.0371 1.09326 6.03476 
37 1 6.92621 0.204868 6.92471 
38 1 5.14759 0.199063 5.14695 
39 1 5.14907 1.982 6.92919 
40 1 6.93232 1.98484 5.14602 
21 1 6.03753 6.03747 1.09586 
22 1 5.14737 6.93206 1.9849 
23 1 6.93245 5.14694 1.98533 
24 1 5.14918 5.14915 0.201997 
25 1 6.92855 6.92858 0.203609 
41 2 9.65965 9.81952 1.29327 
6 1 8.52688 8.52562 8.51774 
7 1 9.40331 9.39299 9.3033 
8 1 7.61766 7.61779 9.41439 
9 1 7.61502 9.41448 7.6143 
10 1 9.41463 7.61484 7.61387 
ITEM: TIMESTEP
23
ITEM: NUMBER OF ATOMS
41
ITEM: BOX BOUNDS pp pp pp
0.0000000000000000e+00 9.8979999999999997e+00
0.0000000000000000e+00 9.8979999999999997e+00
0.0000000000000000e+00 9.8979999999999997e+00
ITEM: ATOMS id type x y z 
1 1 1.17338 1.16754 1.13191 
2 1 0.123628 0.137056 0.2462 
3 1 1.99877 1.99765 0.200821 
4 1 0.216136 1.99298 1.98635 
5 1 1.99438 0.2152 1.98666 
11 1 3.56951 3.56957 8.50969 
12 1 2.68497 2.68501 9.38995 
13 1 4.4609 4.46091 9.40799 
14 1 4.46076 2.67165 7.6198 
15 1 2.67161 4.46082 7.61975 
16 1 3.56329 8.51522 3.56345 
17 1 2.67311 9.40269 2.67341 
18 1 4.45665 7.62307 2.67361 
19 1 4.45698 9.40688 4.45722 
20 1 2.67359 7.62346 4.45704 
31 1 1.09361 6.03712 6.03471 
32 1 0.198209 5.14655 5.14595 
33 1 1.98432 6.93192 5.14644 
34 1 0.205221 6.92587 6.92427 
35 1 1.98214 5.14879 6.9294 
26 1 8.51679 3.56256 3.56283 
27 1 9.40354 2.67169 2.67217 
28 1 7.62365 4.45633 2.67396 
29 1 7.62412 2.67411 4.45658 
30 1 9.40588 4.45615 4.45643 
36 1 6.03706 1.09335 6.03462 
37 1 6.92616 0.204837 6.92472 
38 1 5.14721 0.198733 5.14657 
39 1 5.14882 1.98224 6.92939 
40 1 6.93233 1.98488 5.14595 
21 1 6.03753 6.03743 1.09596 
22 1 5.14737 6.93201 1.98489 
23 1 6.9324 5.14692 1.98535 
24 1 5.14895 5.14893 0.201865 
25 1 6.92853 6.92857 0.203656 
41 2 9.65976 9.81969 1.29418 
6 1 8.52673 8.52545 8.51737 
7 1 9.40348 9.39304 9.30254 
8 1 7.61775 7.61787 9.41439 
9 1 7.61502 9.41454 7.61423 
10 1 9.41475 7.61473 7.61374 
ITEM: TIMESTEP
24
ITEM: NUMBER OF ATOMS
41
ITEM: BOX BOUNDS pp pp pp
0.0000000000000000e+00 9.8979999999999997e+00
0.0000000000000000e+00 9.8979999999999997e+00
0.0000000000000000e+00 9.8979999999999997e+00
ITEM: ATOMS id type x y z 
1 1 1.17338 1.16754 1.13191 
2 1 0.123628 0.137056 0.2462 
3 1 1.99877 1.99765 0.200821 
4 1 0.216136 1.99298 1.98635 
5 1 1.99438 0.2152 1.98666 
11 1 3.56951 3.56957 8.50969 
12 1 2.68497 2.68501 9.38995 
13 1 4.4609 4.46091 9.40799 
14 1 4.46076 2.67165 7.6198 
15 1 2.67161 4.46082 7.61975 
16 1 3.56329 8.51522 3.56345 
17 1 2.67311 9.40269 2.67341 
18 1 4.45665 7.62307 2.67361 
19 1 4.45698 9.40688 4.45722 
20 1 2.67359 7.62346 4.45704 
31 1 1.09361 6.03712 6.03471 
32 1 0.198209 5.14655 5.14595 
33 1 1.98432 6.93192 5.14644 
34 1 0.205221 6.92587 6.92427 
35 1 1.98214 5.14879 6.9294 
26 1 8.51679 3.56256 3.56283 
27 1 9.40354 2.67169 2.67217 
28 1 7.62365 4.45633 2.67396 
29 1 7.62412 2.67411 4.45658 
30 1 9.40588 4.45615 4.45643 
36 1 6.03706 1.09335 6.03462 
37 1 6.92616 0.204837 6.92472 
38 1 5.14721 0.198733 5.14657 
39 1 5.14882 1.98224 6.92939 
40 1 6.93233 1.98488 5.14595 
21 1 6.03753 6.03743 1.09596 
22 1 5.14737 6.93201 1.98489 
23 1 6.9324 5.14692 1.98535 
24 1 5.14895 5.14893 0.201865 
25 1 6.92853 6.92857 0.203656 
41 2 9.65976 9.81969 1.29418 
6 1 8.52673 8.52545 8.51737 
7 1 9.40348 9.39304 9.30254 
8 1 7.61775 7.61787 9.41439 
9 1 7.61502 9.41454 7.61423 
10 1 9.41475 7.61473 7.61374 
ITEM: TIMESTEP
30
ITEM: NUMBER OF ATOMS
41
ITEM: BOX BOUNDS pp pp pp
-2.1376918663368449e-03 9.9001376918663357e+00
-2.1756303133530107e-03 9.9001756303133543e+00
-2.9694000000000005e-03 9.9009693999999975e+00
ITEM: ATOMS id type x y z 
1 1 1.1717 1.16585 1.12964 
2 1 0.121104 0.134517 0.243071 
3 1 1.99771 1.99656 0.197795 
4 1 0.214003 1.99185 1.98472 
5 1 1.99331 0.212985 1.98506 
11 1 3.56887 3.56892 8.51187 
12 1 2.68387 2.68389 9.39273 
13 1 4.46071 4.46072 9.41066 
14 1 4.46056 2.67064 7.62139 
15 1 2.67063 4.46061 7.62133 
16 1 3.56266 8.51682 3.56258 
17 1 2.67198 9.4048 2.6719 
18 1 4.45648 7.6242 2.67221 
19 1 4.45679 9.40886 4.45694 
20 1 2.67257 7.6246 4.45678 
31 1 1.09194 6.03758 6.03534 
32 1 0.196115 5.14659 5.14602 
33 1 1.9831 6.93285 5.1465 
34 1 0.202974 6.92694 6.92566 
35 1 1.9809 5.14883 6.93062 
26 1 8.51835 3.56192 3.56197 
27 1 9.4056 2.67056 2.67067 
28 1 7.62477 4.45615 2.67255 
29 1 7.62524 2.67307 4.45631 
30 1 9.40783 4.45596 4.45616 
36 1 6.03753 1.09166 6.03525 
37 1 6.9272 0.202565 6.92608 
38 1 5.14724 0.196595 5.14663 
39 1 5.14886 1.98098 6.93062 
40 1 6.93323 1.98363 5.14602 
21 1 6.038 6.03791 1.09366 
22 1 5.14739 6.93295 1.98318 
23 1 6.9333 5.14695 1.98363 
24 1 5.149 5.14897 0.198987 
25 1 6.9295 6.92956 0.200699 
41 2 9.66181 9.82185 1.2921 
6 1 8.52832 8.52705 8.51945 
7 1 9.40567 9.39527 9.30543 
8 1 7.61883 7.61897 9.41717 
9 1 7.61603 9.41665 7.61569 
10 1 9.41684 7.61575 7.61517 
ITEM: TIMESTEP
40
ITEM: NUMBER OF ATOMS
41
ITEM: BOX BOUNDS pp pp pp
-2.9089813060358028e-03 9.9009089813060349e+00
-3.0762095151103184e-03 9.9010762095151090e+00
-5.5635283580172407e-03 9.9035635283580117e+00
ITEM: ATOMS id type x y z 
1 1 1.17106 1.16514 1.12767 
2 1 0.120029 0.133347 0.240536 
3 1 1.99755 1.99633 0.195049 
4 1 0.21309 1.99159 1.98341 
5 1 1.99314 0.211928 1.98377 
11 1 3.5686 3.56861 8.5138 
12 1 2.68333 2.68329 9.39524 
13 1 4.46066 4.46066 9.41301 
14 1 4.46052 2.67021 7.62275 
15 1 2.67026 4.46055 7.6227 
16 1 3.5624 8.51753 3.5618 
17 1 2.67143 9.40582 2.6705 
18 1 4.45647 7.62461 2.67095 
19 1 4.45676 9.40972 4.45673 
20 1 2.67217 7.62503 4.45658 
31 1 1.09135 6.03777 6.03588 
32 1 0.19526 5.14651 5.146 
33 1 1.98273 6.9333 5.1465 
34 1 0.20202 6.92752 6.9269 
35 1 1.98051 5.1488 6.93172 
26 1 8.51895 3.56163 3.5612 
27 1 9.40651 2.66994 2.66927 
28 1 7.62512 4.45614 2.67128 
29 1 7.62558 2.67258 4.45613 
30 1 9.40861 4.45595 4.45598 
36 1 6.03769 1.09098 6.0358 
37 1 6.92771 0.201509 6.9273 
38 1 5.14716 0.195637 5.14663 
39 1 5.14882 1.98051 6.93172 
40 1 6.93364 1.9832 5.14601 
21 1 6.03818 6.03811 1.09166 
22 1 5.14731 6.93341 1.98173 
23 1 6.93371 5.14688 1.98219 
24 1 5.14896 5.14894 0.196444 
25 1 6.92996 6.93007 0.19807 
41 2 9.66256 9.82276 1.29035 
6 1 8.52889 8.52769 8.52122 
7 1 9.40651 9.39622 9.30777 
8 1 7.61915 7.61935 9.41964 
9 1 7.6163 9.41762 7.61693 
10 1 9.41771 7.61607 7.6164 
ITEM: TIMESTEP
41
ITEM: NUMBER OF ATOMS
41
ITEM: BOX BOUNDS pp pp pp
-2.9089813060358028e-03 9.9009089813060349e+00
-3.0762095151103184e-03 9.9010762095151090e+00
-5.5635283580172407e-03 9.9035635283580117e+00
ITEM: ATOMS id type x y z 
1 1 1.17106 1.16514 1.12767 
2 1 0.120029 0.133347 0.240536 
3 1 1.99755 1.99633 0.195049 
4 1 0.21309 1.99159 1.98341 
5 1 1.99314 0.211928 1.98377 
11 1 3.5686 3.56861 8.5138 
12 1 2.68333 2.68329 9.39524 
13 1 4.46066 4.46066 9.41301 
14 1 4.46052 2.67021 7.62275 
15 1 2.67026 4.46055 7.6227 
16 1 3.5624 8.51753 3.5618 
17 1 2.67143 9.40582 2.6705 
18 1 4.45647 7.62461 2.67095 
19 1 4.45676 9.40972 4.45673 
20 1 2.67217 7.62503 4.45658 
31 1 1.09135 6.03777 6.03588 
32 1 0.19526 5.14651 5.146 
33 1 1.98273 6.9333 5.1465 
34 1 0.20202 6.92752 6.9269 
35 1 1.98051 5.1488 6.93172 
26 1 8.51895 3.56163 3.5612 
27 1 9.40651 2.66994 2.66927 
28 1 7.62512 4.45614 2.67128 
29 1 7.62558 2.67258 4.45613 
30 1 9.40861 4.45595 4.45598 
36 1 6.03769 1.09098 6.0358 
37 1 6.92771 0.201509 6.9273 
38 1 5.14716 0.195637 5.14663 
39 1 5.14882 1.98051 6.93172 
40 1 6.93364 1.9832 5.14601 
21 1 6.03818 6.03811 1.09166 
22 1 5.14731 6.93341 1.98173 
23 1 6.93371 5.14688 1.98219 
24 1 5.14896 5.14894 0.196444 
25 1 6.92996 6.93007 0.19807 
41 2 9.66256 9.82276 1.29035 
6 1 8.52889 8.52769 8.52122 
7 1 9.40651 9.39622 9.30777 
8 1 7.61915 7.61935 9.41964 
9 1 7.6163 9.41762 7.61693 
10 1 9.41771 7.61607 7.6164 
ITEM: TIMESTEP
42
ITEM: NUMBER OF ATOMS
41
ITEM: BOX BOUNDS pp pp pp
-2.9088604098204390e-03 9.9009088604098192e+00
-3.0760894759380313e-03 9.9010760894759375e+00
-5.5634401159549559e-03 9.9035634401159491e+00
ITEM: ATOMS id type x y z 
1 1 1.17106 1.16514 1.12767 
2 1 0.120029 0.133347 0.240536 
3 1 1.99755 1.99633 0.195049 
4 1 0.213091 1.99159 1.98341 
5 1 1.99314 0.211928 1.98377 
11 1 3.5686 3.56861 8.5138 
12 1 2.68333 2.68329 9.39524 
13 1 4.46066 4.46066 9.41301 
14 1 4.46052 2.67021 7.62275 
15 1 2.67026 4.46055 7.6227 
16 1 3.5624 8.51753 3.5618 
17 1 2.67143 9.40582 2.6705 
18 1 4.45647 7.62461 2.67095 
19 1 4.45676 9.40972 4.45673 
20 1 2.67217 7.62503 4.45658 
31 1 1.09135 6.03777 6.03588 
32 1 0.19526 5.14651 5.146 
33 1 1.98273 6.9333 5.1465 
34 1 0.20202 6.92752 6.9269 
35 1 1.98051 5.1488 6.93172 
26 1 8.51895 3.56163 3.5612 
27 1 9.40651 2.66994 2.66927 
28 1 7.62512 4.45614 2.67128 
29 1 7.62558 2.67258 4.45613 
30 1 9.40861 4.45595 4.45598 
36 1 6.03769 1.09098 6.0358 
37 1 6.92771 0.201509 6.9273 
38 1 5.14716 0.195637 5.14663 
39 1 5.14882 1.98051 6.93172 
40 1 6.93364 1.9832 5.14601 
21 1 6.03818 6.03811 1.09166 
22 1 5.14731 6.93341 1.98173 
23 1 6.93371 5.14688 1.98219 
24 1 5.14896 5.14894 0.196444 
25 1 6.92996 6.93007 0.19807 
41 2 9.66256 9.82276 1.29035 
6 1 8.52889 8.52769 8.52122 
7 1 9.40651 9.39622 9.30777 
8 1 7.61915 7.61935 9.41964 
9 1 7.6163 9.41762 7.61693 
10 1 9.41771 7.61607 7.6164 
ITEM: TIMESTEP
43
ITEM: NUMBER OF ATOMS
41
ITEM: BOX BOUNDS pp pp pp
-2.9088604098204390e-03 9.9009088604098192e+00
-3.0760894759380313e-03 9.9010760894759375e+00
-5.5634401159549559e-03 9.9035634401159491e+00
ITEM: ATOMS id type x y z 
1 1 1.17106 1.16514 1.12767 
2 1 0.120029 0.133347 0.240536 
3 1 1.99755 1.99633 0.195049 
4 1 0.213091 1.99159 1.98341 
5 1 1.99314 0.211928 1.98377 
11 1 3.5686 3.56861 8.5138 
12 1 2.68333 2.68329 9.39524 
13 1 4.46066 4.46066 9.41301 
14 1 4.46052 2.67021 7.62275 
15 1 2.67026 4.46055 7.6227 
16 1 3.5624 8.51753 3.5618 
17 1 2.67143 9.40582 2.6705 
18 1 4.45647 7.62461 2.67095 
19 1 4.45676 9.40972 4.45673 
20 1 2.67217 7.62503 4.45658 
31 1 1.09135 6.03777 6.03588 
32 1 0.19526 5.14651 5.146 
33 1 1.98273 6.9333 5.1465 
34 1 0.20202 6.92752 6.9269 
35 1 1.98051 5.1488 6.93172 
26 1 8.51895 3.56163 3.5612 
27 1 9.40651 2.66994 2.66927 
28 1 7.62512 4.45614 2.67128 
29 1 7.62558 2.67258 4.45613 
30 1 9.40861 4.45595 4.45598 
36 1 6.03769 1.09098 6.0358 
37 1 6.92771 0.201509 6.9273 
38 1 5.14716 0.195637 5.14663 
39 1 5.14882 1.98051 6.93172 
40 1 6.93364 1.9832 5.14601 
21 1 6.03818 6.03811 1.09166 
22 1 5.14731 6.93341 1.98173 
23 1 6.93371 5.14688 1.98219 
24 1 5.14896 5.14894 0.196444 
25 1 6.92996 6.93007 0.19807 
41 2 9.66256 9.82276 1.29035 
6 1 8.52889 8.52769 8.52122 
7 1 9.40651 9.39622 9.30777 
8 1 7.61915 7.61935 9.41964 
9 1 7.6163 9.41762 7.61693 
10 1 9.41771 7.61607 7.6164 
