ITEM: TIMESTEP
0
ITEM: NUMBER OF ATOMS
146
ITEM: BOX BOUNDS pp pp pp
0.0000000000000000e+00 2.1884000000000000e+01
0.0000000000000000e+00 2.1885999999999999e+01
0.0000000000000000e+00 2.1885000000000002e+01
ITEM: ATOMS id type x y z 
16 1 1.605 12.547 12.547 
32 1 0.024 10.965 10.965 
64 1 4.318 12.218 12.218 
68 1 1.276 15.26 12.218 
78 1 1.276 12.218 15.26 
112 1 3.118 12.317 12.317 
116 1 1.375 14.061 12.317 
126 1 1.375 12.317 14.061 
144 1 0.722 11.664 11.663 
9 1 8.524 12.547 12.547 
25 1 10.105 10.965 10.965 
57 1 5.811 12.218 12.218 
65 1 8.853 15.26 12.218 
73 1 8.853 12.219 15.26 
105 1 7.01 12.317 12.317 
113 1 8.754 14.061 12.317 
121 1 8.754 12.317 14.061 
137 1 9.407 11.664 11.664 
11 1 1.605 19.466 12.547 
27 1 0.023 21.047 10.964 
59 1 4.318 19.795 12.218 
69 1 1.276 16.754 12.218 
79 1 1.276 19.795 15.26 
107 1 3.119 19.696 12.317 
117 1 1.375 17.953 12.317 
127 1 1.375 19.696 14.061 
139 1 0.721 20.349 11.663 
14 1 8.524 19.467 12.547 
30 1 10.106 21.049 10.966 
62 1 5.811 19.795 12.218 
72 1 8.853 16.753 12.218 
76 1 8.853 19.796 15.26 
110 1 7.01 19.696 12.317 
120 1 8.754 17.953 12.317 
124 1 8.754 19.697 14.061 
142 1 9.407 20.35 11.664 
13 1 1.605 12.547 19.466 
29 1 0.023 10.966 21.048 
61 1 4.318 12.218 19.795 
71 1 1.276 15.26 19.795 
75 1 1.276 12.218 16.754 
109 1 3.119 12.317 19.696 
119 1 1.375 14.061 19.696 
123 1 1.375 12.317 17.953 
141 1 0.721 11.664 20.35 
12 1 8.524 12.547 19.466 
28 1 10.106 10.965 21.047 
60 1 5.811 12.219 19.795 
70 1 8.853 15.26 19.796 
80 1 8.853 12.219 16.754 
108 1 7.011 12.317 19.696 
118 1 8.754 14.061 19.696 
128 1 8.754 12.318 17.953 
140 1 9.408 11.664 20.349 
10 1 1.604 19.466 19.466 
26 1 0.023 21.047 21.049 
58 1 4.317 19.796 19.795 
66 1 1.276 16.754 19.795 
74 1 1.276 19.795 16.753 
106 1 3.118 19.696 19.696 
114 1 1.375 17.953 19.696 
122 1 1.375 19.696 17.952 
138 1 0.721 20.349 20.35 
15 1 8.524 19.467 19.466 
31 1 10.106 21.048 21.049 
63 1 5.811 19.796 19.795 
67 1 8.853 16.754 19.795 
77 1 8.853 19.796 16.753 
111 1 7.01 19.697 19.696 
115 1 8.754 17.953 19.696 
125 1 8.754 19.697 17.952 
143 1 9.407 20.35 20.35 
8 1 12.547 1.604 1.605 
24 1 10.965 0.023 0.022 
40 1 15.26 1.275 1.276 
44 1 12.218 4.317 1.276 
54 1 12.218 1.275 4.318 
88 1 14.061 1.374 1.375 
92 1 12.317 3.118 1.375 
102 1 12.317 1.374 3.119 
136 1 11.664 0.721 0.721 
1 1 19.466 1.604 1.604 
17 1 21.048 0.023 0.022 
33 1 16.753 1.275 1.276 
41 1 19.795 4.317 1.276 
49 1 19.795 1.275 4.317 
81 1 17.952 1.374 1.375 
89 1 19.696 3.118 1.375 
97 1 19.696 1.374 3.118 
129 1 20.35 0.722 0.721 
3 1 12.546 8.524 1.604 
19 1 10.965 10.106 0.024 
35 1 15.26 8.852 1.276 
45 1 12.218 5.811 1.275 
55 1 12.218 8.852 4.317 
83 1 14.06 8.753 1.375 
93 1 12.317 7.01 1.374 
103 1 12.317 8.753 3.118 
131 1 11.663 9.407 0.722 
6 1 19.466 8.524 1.605 
22 1 21.048 10.105 0.023 
38 1 16.753 8.852 1.276 
48 1 19.795 5.811 1.276 
52 1 19.795 8.853 4.318 
86 1 17.952 8.754 1.375 
96 1 19.696 7.01 1.375 
100 1 19.696 8.754 3.118 
134 1 20.35 9.407 0.721 
5 1 12.547 1.604 8.524 
21 1 10.965 0.022 10.105 
37 1 15.26 1.275 8.853 
47 1 12.218 4.317 8.853 
51 1 12.218 1.276 5.811 
85 1 14.06 1.374 8.754 
95 1 12.317 3.118 8.754 
99 1 12.317 1.375 7.01 
133 1 11.663 0.72 9.407 
4 1 19.466 1.605 8.524 
20 1 21.048 0.024 10.107 
36 1 16.753 1.275 8.853 
46 1 19.795 4.317 8.853 
56 1 19.795 1.275 5.811 
84 1 17.952 1.374 8.754 
94 1 19.695 3.118 8.754 
104 1 19.696 1.374 7.01 
132 1 20.35 0.722 9.408 
2 1 12.547 8.524 8.524 
18 1 10.965 10.106 10.106 
34 1 15.26 8.853 8.853 
42 1 12.218 5.811 8.853 
50 1 12.218 8.852 5.811 
82 1 14.061 8.754 8.754 
90 1 12.317 7.01 8.754 
98 1 12.317 8.754 7.01 
130 1 11.664 9.407 9.407 
7 1 19.466 8.524 8.524 
23 1 21.047 10.106 10.106 
39 1 16.753 8.853 8.853 
43 1 19.795 5.811 8.853 
53 1 19.795 8.853 5.811 
87 1 17.952 8.754 8.754 
91 1 19.696 7.01 8.754 
101 1 19.696 8.754 7.01 
135 1 20.349 9.407 9.407 
145 2 17.952 8.754 10.104 
146 3 17.952 8.754 11.08 
ITEM: TIMESTEP
10
ITEM: NUMBER OF ATOMS
146
ITEM: BOX BOUNDS pp pp pp
0.0000000000000000e+00 2.1884000000000000e+01
0.0000000000000000e+00 2.1885999999999999e+01
0.0000000000000000e+00 2.1885000000000002e+01
ITEM: ATOMS id type x y z 
16 1 1.60387 12.5461 12.5464 
32 1 0.0195502 10.9623 10.9625 
64 1 4.31758 12.2186 12.2187 
68 1 1.27671 15.2593 12.2187 
78 1 1.27677 12.2187 15.2593 
112 1 3.11722 12.3176 12.3175 
116 1 1.37552 14.0601 12.3175 
126 1 1.37555 12.3176 14.0601 
144 1 0.718436 11.6601 11.6602 
9 1 8.52381 12.5468 12.5469 
25 1 10.105 10.9653 10.9649 
57 1 5.81063 12.2186 12.2186 
65 1 8.8524 15.2601 12.2186 
73 1 8.85239 12.2193 15.2597 
105 1 7.01039 12.3175 12.3175 
113 1 8.75361 14.0605 12.3174 
121 1 8.75364 12.3178 14.0607 
137 1 9.40575 11.6648 11.6648 
11 1 1.60486 19.4663 12.5463 
27 1 0.0229763 21.0479 10.9641 
59 1 4.31752 19.7944 12.2186 
69 1 1.27656 16.7532 12.2186 
79 1 1.2766 19.7944 15.2597 
107 1 3.11898 19.6957 12.3173 
117 1 1.37523 17.9523 12.3173 
127 1 1.37525 19.6957 14.0609 
139 1 0.721053 20.3501 11.6632 
14 1 8.52437 19.4666 12.5473 
30 1 10.1058 21.0487 10.9657 
62 1 5.81127 19.7944 12.2186 
72 1 8.85245 16.7531 12.2186 
76 1 8.85237 19.7954 15.2598 
110 1 7.00979 19.6958 12.3173 
120 1 8.75363 17.953 12.3174 
124 1 8.75362 19.6965 14.0612 
142 1 9.40731 20.3505 11.6639 
13 1 1.60457 12.5471 19.4664 
29 1 0.0228394 10.9658 21.048 
61 1 4.31816 12.2188 19.7944 
71 1 1.27659 15.2599 19.7944 
75 1 1.2766 12.2186 16.7532 
109 1 3.11842 12.3175 19.6957 
119 1 1.37542 14.0608 19.6957 
123 1 1.37529 12.3173 17.9523 
141 1 0.721237 11.6631 20.3506 
12 1 8.52424 12.547 19.4663 
28 1 10.1057 10.965 21.0474 
60 1 5.81112 12.219 19.7944 
70 1 8.85241 15.2604 19.7949 
80 1 8.85247 12.2196 16.7535 
108 1 7.01087 12.3178 19.6957 
118 1 8.75369 14.0613 19.6961 
128 1 8.75377 12.3182 17.9527 
140 1 9.40753 11.6643 20.3497 
10 1 1.60435 19.4664 19.4663 
26 1 0.0229494 21.0479 21.0488 
58 1 4.31739 19.7951 19.7944 
66 1 1.27655 16.7536 19.7945 
74 1 1.2766 19.7944 16.7533 
106 1 3.11822 19.6961 19.6956 
114 1 1.37516 17.9526 19.6957 
122 1 1.37513 19.6958 17.952 
138 1 0.721221 20.3489 20.3499 
15 1 8.52394 19.4668 19.4665 
31 1 10.1058 21.0483 21.0489 
63 1 5.81097 19.7954 19.7944 
67 1 8.85236 16.7541 19.7946 
77 1 8.85236 19.7954 16.7536 
111 1 7.01012 19.6966 19.6956 
115 1 8.75347 17.9532 19.6956 
125 1 8.75362 19.6967 17.952 
143 1 9.40735 20.3497 20.3493 
8 1 12.5469 1.60425 1.60447 
24 1 10.9651 0.0225388 0.0218929 
40 1 15.2598 1.27559 1.27664 
44 1 12.2186 4.31691 1.27643 
54 1 12.2186 1.27582 4.31752 
88 1 14.0611 1.37434 1.3753 
92 1 12.3175 3.11792 1.37545 
102 1 12.3173 1.37429 3.11894 
136 1 11.6635 0.721197 0.721682 
1 1 19.4659 1.60407 1.60414 
17 1 21.0478 0.0226002 0.0221546 
33 1 16.7534 1.27558 1.27667 
41 1 19.7944 4.31761 1.27665 
49 1 19.7943 1.27555 4.31762 
81 1 17.9521 1.37448 1.37517 
89 1 19.6957 3.1185 1.37519 
97 1 19.6958 1.37443 3.11845 
129 1 20.3498 0.721584 0.721387 
3 1 12.5465 8.52404 1.6047 
19 1 10.9652 10.1062 0.0234041 
35 1 15.2603 8.85137 1.27661 
45 1 12.2186 5.81057 1.27571 
55 1 12.2184 8.85157 4.31632 
83 1 14.0604 8.75281 1.3752 
93 1 12.3171 7.00965 1.37437 
103 1 12.3173 8.75265 3.11737 
131 1 11.6632 9.40673 0.7212 
6 1 19.4669 8.52444 1.60673 
22 1 21.0474 10.1046 0.0230996 
38 1 16.7528 8.85163 1.27667 
48 1 19.7943 5.81088 1.27668 
52 1 19.7931 8.85227 4.32504 
86 1 17.9529 8.75323 1.37554 
96 1 19.6956 7.01034 1.3756 
100 1 19.6959 8.75341 3.12318 
134 1 20.3498 9.4076 0.721833 
5 1 12.5467 1.60424 8.52417 
21 1 10.965 0.0216758 10.105 
37 1 15.2605 1.27553 8.85242 
47 1 12.2184 4.31622 8.85261 
51 1 12.2186 1.27644 5.81116 
85 1 14.0605 1.37439 8.75368 
95 1 12.3175 3.11721 8.75353 
99 1 12.3173 1.37515 7.00984 
133 1 11.6631 0.720792 9.40744 
4 1 19.4664 1.60637 8.52464 
20 1 21.0473 0.02338 10.1059 
36 1 16.7531 1.27561 8.85229 
46 1 19.7925 4.32381 8.85229 
56 1 19.7943 1.27565 5.81113 
84 1 17.9531 1.37485 8.75349 
94 1 19.6955 3.12373 8.75343 
104 1 19.6956 1.37483 7.01051 
132 1 20.3493 0.72234 9.40771 
2 1 12.5666 8.52869 8.52973 
18 1 10.9627 10.1065 10.1069 
34 1 15.2658 8.84861 8.8394 
42 1 12.2174 5.80819 8.85204 
50 1 12.2174 8.85135 5.80845 
82 1 14.0409 8.75175 8.74641 
90 1 12.32 7.0081 8.75578 
98 1 12.3198 8.7555 7.0084 
130 1 11.6666 9.40923 9.40944 
7 1 19.5515 8.49367 8.48387 
23 1 21.0394 10.1048 10.1043 
39 1 16.6798 8.82181 8.81312 
43 1 19.7851 5.81239 8.8549 
53 1 19.785 8.85459 5.80915 
87 1 17.9213 8.81683 8.92076 
91 1 19.7128 7.01417 8.74251 
101 1 19.7105 8.74495 7.01316 
135 1 20.366 9.39574 9.39122 
145 2 17.9486 8.76118 10.0496 
146 3 17.9552 8.75192 11.078 
ITEM: TIMESTEP
20
ITEM: NUMBER OF ATOMS
146
ITEM: BOX BOUNDS pp pp pp
0.0000000000000000e+00 2.1884000000000000e+01
0.0000000000000000e+00 2.1885999999999999e+01
0.0000000000000000e+00 2.1885000000000002e+01
ITEM: ATOMS id type x y z 
16 1 1.6027 12.544 12.544 
32 1 0.0138623 10.9613 10.9618 
64 1 4.31521 12.2197 12.2197 
68 1 1.27774 15.2581 12.2198 
78 1 1.27778 12.2198 15.2582 
112 1 3.11594 12.3177 12.3178 
116 1 1.37578 14.0587 12.3178 
126 1 1.37582 12.3178 14.0587 
144 1 0.715199 11.6596 11.6598 
9 1 8.52236 12.548 12.5468 
25 1 10.1009 10.9679 10.9666 
57 1 5.80849 12.2192 12.2192 
65 1 8.85207 15.2609 12.219 
73 1 8.85211 12.2196 15.2605 
105 1 7.00765 12.3175 12.3175 
113 1 8.75345 14.062 12.3174 
121 1 8.75349 12.3178 14.062 
137 1 9.40349 11.6668 11.6691 
11 1 1.60396 19.4656 12.5461 
27 1 0.0224102 21.0484 10.9642 
59 1 4.31734 19.7938 12.2192 
69 1 1.27734 16.7522 12.2194 
79 1 1.27719 19.7938 15.2594 
107 1 3.11822 19.6953 12.3176 
117 1 1.37557 17.9516 12.3176 
127 1 1.37563 19.6954 14.0603 
139 1 0.721574 20.3506 11.6628 
14 1 8.52435 19.4661 12.5464 
30 1 10.1055 21.0478 10.9652 
62 1 5.8108 19.7939 12.219 
72 1 8.85191 16.754 12.2191 
76 1 8.85188 19.7949 15.26 
110 1 7.00993 19.6956 12.3177 
120 1 8.75337 17.9529 12.3178 
124 1 8.75337 19.6962 14.0611 
142 1 9.40707 20.3509 11.6652 
13 1 1.60384 12.5471 19.4658 
29 1 0.0218693 10.9656 21.0483 
61 1 4.31768 12.2194 19.7938 
71 1 1.2772 15.2597 19.7938 
75 1 1.27737 12.2194 16.7522 
109 1 3.11806 12.3178 19.6953 
119 1 1.37575 14.0604 19.6953 
123 1 1.37564 12.3177 17.9516 
141 1 0.722419 11.6626 20.3503 
12 1 8.52488 12.5474 19.4662 
28 1 10.106 10.9658 21.0472 
60 1 5.81086 12.2194 19.7939 
70 1 8.85191 15.2605 19.7943 
80 1 8.852 12.22 16.7541 
108 1 7.01031 12.3181 19.6955 
118 1 8.75345 14.0615 19.6959 
128 1 8.7535 12.3185 17.9526 
140 1 9.40639 11.6638 20.35 
10 1 1.60473 19.4664 19.4669 
26 1 0.0233009 21.0479 21.0492 
58 1 4.31727 19.7946 19.7938 
66 1 1.27705 16.7532 19.7939 
74 1 1.2771 19.7939 16.7529 
106 1 3.11832 19.6958 19.6954 
114 1 1.37538 17.9524 19.6955 
122 1 1.37533 19.6955 17.952 
138 1 0.720564 20.3499 20.349 
15 1 8.52335 19.4673 19.4669 
31 1 10.1052 21.0487 21.0488 
63 1 5.81108 19.7948 19.7938 
67 1 8.8518 16.7539 19.7941 
77 1 8.85185 19.7949 16.7534 
111 1 7.01005 19.6963 19.6953 
115 1 8.75329 17.9529 19.6954 
125 1 8.75339 19.6963 17.9523 
143 1 9.40828 20.3496 20.3491 
8 1 12.5471 1.60337 1.60451 
24 1 10.9655 0.0217264 0.0226127 
40 1 15.2598 1.27607 1.27716 
44 1 12.2192 4.31663 1.27681 
54 1 12.2191 1.2763 4.31725 
88 1 14.061 1.37467 1.37558 
92 1 12.3177 3.11761 1.37563 
102 1 12.3175 1.37472 3.11826 
136 1 11.6629 0.721903 0.720758 
1 1 19.466 1.60414 1.60447 
17 1 21.0471 0.0221945 0.0224318 
33 1 16.7537 1.27614 1.27715 
41 1 19.7937 4.31778 1.27714 
49 1 19.7937 1.27615 4.3182 
81 1 17.9525 1.37487 1.37552 
89 1 19.6954 3.11853 1.37558 
97 1 19.6954 1.37484 3.11884 
129 1 20.3505 0.721854 0.721668 
3 1 12.5465 8.52438 1.60427 
19 1 10.9643 10.107 0.0234368 
35 1 15.2611 8.85106 1.27693 
45 1 12.2188 5.8097 1.27614 
55 1 12.217 8.85194 4.31273 
83 1 14.0618 8.75276 1.37514 
93 1 12.3172 7.00875 1.37441 
103 1 12.3179 8.75212 3.11164 
131 1 11.6631 9.40664 0.718851 
6 1 19.4679 8.52378 1.60813 
22 1 21.0477 10.1044 0.022611 
38 1 16.7541 8.8509 1.27703 
48 1 19.7935 5.81137 1.27715 
52 1 19.7886 8.85346 4.32435 
86 1 17.9537 8.75317 1.37692 
96 1 19.6956 7.01062 1.37693 
100 1 19.6944 8.75281 3.12113 
134 1 20.3493 9.40834 0.723569 
5 1 12.5467 1.6033 8.524 
21 1 10.9639 0.0215985 10.1056 
37 1 15.2615 1.2759 8.85193 
47 1 12.2171 4.31242 8.85284 
51 1 12.2189 1.27668 5.81027 
85 1 14.0622 1.37439 8.75368 
95 1 12.3181 3.11131 8.75307 
99 1 12.3174 1.37504 7.00918 
133 1 11.6637 0.719752 9.40845 
4 1 19.4666 1.60864 8.5252 
20 1 21.0462 0.0230705 10.1058 
36 1 16.7546 1.27611 8.85148 
46 1 19.7875 4.32538 8.85354 
56 1 19.7934 1.27617 5.81153 
84 1 17.9541 1.37641 8.75326 
94 1 19.694 3.12265 8.75291 
104 1 19.6955 1.3763 7.011 
132 1 20.3505 0.723626 9.40679 
2 1 12.5509 8.5345 8.53514 
18 1 10.9575 10.1115 10.1114 
34 1 15.2646 8.83312 8.80749 
42 1 12.2166 5.79651 8.85353 
50 1 12.2165 8.85283 5.79673 
82 1 14.0358 8.74906 8.74136 
90 1 12.3204 7.00061 8.75959 
98 1 12.3201 8.75891 7.00091 
130 1 11.6661 9.41584 9.41634 
7 1 19.5661 8.49284 8.47887 
23 1 21.0431 10.1024 10.1007 
39 1 16.6837 8.83343 8.80685 
43 1 19.7871 5.81096 8.85246 
53 1 19.7856 8.85348 5.80632 
87 1 17.9174 8.83421 8.95996 
91 1 19.7194 7.01527 8.73426 
101 1 19.7135 8.74055 7.01184 
135 1 20.3823 9.38659 9.37875 
145 2 17.9632 8.77023 10.0964 
146 3 17.9575 8.7483 11.0733 
ITEM: TIMESTEP
30
ITEM: NUMBER OF ATOMS
146
ITEM: BOX BOUNDS pp pp pp
0.0000000000000000e+00 2.1884000000000000e+01
0.0000000000000000e+00 2.1885999999999999e+01
0.0000000000000000e+00 2.1885000000000002e+01
ITEM: ATOMS id type x y z 
16 1 1.60108 12.5432 12.5433 
32 1 0.0119818 10.9612 10.9617 
64 1 4.31406 12.22 12.22 
68 1 1.27827 15.2578 12.2203 
78 1 1.2783 12.2203 15.2578 
112 1 3.11438 12.3175 12.3176 
116 1 1.37565 14.0583 12.3176 
126 1 1.37569 12.3176 14.0583 
144 1 0.712872 11.659 11.6593 
9 1 8.52134 12.5485 12.5488 
25 1 10.1001 10.9689 10.9691 
57 1 5.8074 12.2193 12.2194 
65 1 8.85214 15.2614 12.2189 
73 1 8.85217 12.2196 15.2613 
105 1 7.0067 12.3178 12.3177 
113 1 8.75307 14.0621 12.3176 
121 1 8.75305 12.3181 14.0619 
137 1 9.40169 11.6674 11.6673 
11 1 1.60414 19.4657 12.5461 
27 1 0.0228416 21.0487 10.9646 
59 1 4.31698 19.7935 12.2195 
69 1 1.27787 16.7518 12.2199 
79 1 1.27755 19.7935 15.2594 
107 1 3.11761 19.695 12.3178 
117 1 1.37572 17.9511 12.3177 
127 1 1.37572 19.6951 14.06 
139 1 0.720828 20.3496 11.6624 
14 1 8.5239 19.4669 12.5473 
30 1 10.105 21.0482 10.9661 
62 1 5.81036 19.7937 12.2193 
72 1 8.85189 16.7544 12.2192 
76 1 8.85169 19.7947 15.2603 
110 1 7.00964 19.6955 12.3177 
120 1 8.75321 17.9538 12.3179 
124 1 8.75319 19.6961 14.0609 
142 1 9.40692 20.3496 11.6643 
13 1 1.6044 12.5465 19.4657 
29 1 0.0229819 10.9654 21.0482 
61 1 4.31718 12.2197 19.7935 
71 1 1.27754 15.2596 19.7936 
75 1 1.27788 12.2199 16.7517 
109 1 3.11803 12.318 19.695 
119 1 1.37578 14.0604 19.6951 
123 1 1.37575 12.3178 17.951 
141 1 0.721289 11.6632 20.3494 
12 1 8.52395 12.5475 19.4666 
28 1 10.1052 10.966 21.0474 
60 1 5.81063 12.2197 19.7936 
70 1 8.85172 15.2607 19.7941 
80 1 8.85198 12.22 16.7541 
108 1 7.00973 12.3182 19.6954 
118 1 8.75335 14.0615 19.6958 
128 1 8.75335 12.3186 17.9536 
140 1 9.4068 11.6645 20.3493 
10 1 1.60428 19.4666 19.4661 
26 1 0.0230134 21.0482 21.0483 
58 1 4.31733 19.7943 19.7936 
66 1 1.27736 16.7531 19.7936 
74 1 1.27741 19.7936 16.7528 
106 1 3.118 19.6956 19.6952 
114 1 1.37555 17.9524 19.6953 
122 1 1.37557 19.6953 17.9522 
138 1 0.721071 20.3497 20.3501 
15 1 8.52399 19.467 19.4664 
31 1 10.1056 21.0482 21.0481 
63 1 5.81076 19.7946 19.7936 
67 1 8.85159 16.754 19.7938 
77 1 8.85165 19.7947 16.7535 
111 1 7.01008 19.6961 19.6953 
115 1 8.75306 17.9533 19.6953 
125 1 8.75315 19.6961 17.9528 
143 1 9.40725 20.3503 20.3498 
8 1 12.547 1.60367 1.6041 
24 1 10.9652 0.0223072 0.0224733 
40 1 15.2603 1.27629 1.27736 
44 1 12.2192 4.31625 1.27696 
54 1 12.2191 1.27647 4.31679 
88 1 14.0609 1.37471 1.37562 
92 1 12.3179 3.11698 1.37563 
102 1 12.3177 1.3748 3.11748 
136 1 11.663 0.720619 0.720889 
1 1 19.4666 1.60448 1.60492 
17 1 21.0477 0.0224574 0.0230023 
33 1 16.7536 1.2764 1.27737 
41 1 19.7934 4.3176 1.27733 
49 1 19.7933 1.27638 4.31822 
81 1 17.953 1.37508 1.37576 
89 1 19.6952 3.11827 1.37582 
97 1 19.6953 1.37504 3.11892 
129 1 20.3495 0.721055 0.720902 
3 1 12.5472 8.52327 1.60157 
19 1 10.9643 10.1066 0.0220229 
35 1 15.2615 8.85099 1.27698 
45 1 12.2189 5.80932 1.27631 
55 1 12.2167 8.85227 4.31183 
83 1 14.0622 8.7527 1.37474 
93 1 12.3174 7.00864 1.37412 
103 1 12.3173 8.75236 3.11136 
131 1 11.6626 9.40789 0.719903 
6 1 19.4681 8.52453 1.6085 
22 1 21.0475 10.1055 0.0229897 
38 1 16.7546 8.85089 1.27736 
48 1 19.7934 5.81074 1.2775 
52 1 19.7873 8.85371 4.32348 
86 1 17.9538 8.753 1.37709 
96 1 19.6957 7.01012 1.37717 
100 1 19.6931 8.75336 3.1213 
134 1 20.3504 9.40758 0.722801 
5 1 12.5476 1.60152 8.52403 
21 1 10.9639 0.021662 10.1063 
37 1 15.262 1.27601 8.8518 
47 1 12.2168 4.31145 8.85313 
51 1 12.2189 1.27676 5.80998 
85 1 14.0627 1.37403 8.75352 
95 1 12.3175 3.11104 8.75325 
99 1 12.3176 1.37464 7.00933 
133 1 11.6633 0.718623 9.40781 
4 1 19.468 1.60931 8.52479 
20 1 21.0471 0.0234558 10.1055 
36 1 16.7552 1.2765 8.85133 
46 1 19.7862 4.32555 8.8535 
56 1 19.7932 1.27663 5.81154 
84 1 17.9544 1.37681 8.75317 
94 1 19.6924 3.12442 8.75378 
104 1 19.6955 1.37684 7.01081 
132 1 20.3496 0.723064 9.4077 
2 1 12.5489 8.53276 8.53448 
18 1 10.9598 10.1123 10.1121 
34 1 15.2641 8.82876 8.79391 
42 1 12.2183 5.79873 8.85373 
50 1 12.2181 8.85294 5.79896 
82 1 14.0359 8.74478 8.73061 
90 1 12.3198 7.0022 8.75943 
98 1 12.3194 8.75861 7.00264 
130 1 11.663 9.41554 9.41612 
7 1 19.5644 8.49276 8.4787 
23 1 21.0472 10.0989 10.0961 
39 1 16.6829 8.83379 8.80715 
43 1 19.788 5.81342 8.84987 
53 1 19.7852 8.85244 5.80747 
87 1 17.9183 8.84251 8.97093 
91 1 19.7214 7.01615 8.73128 
101 1 19.7144 8.73917 7.012 
135 1 20.3871 9.38356 9.37461 
145 2 17.9695 8.77593 10.1023 
146 3 17.9599 8.74571 11.0938 
ITEM: TIMESTEP
40
ITEM: NUMBER OF ATOMS
146
ITEM: BOX BOUNDS pp pp pp
0.0000000000000000e+00 2.1884000000000000e+01
0.0000000000000000e+00 2.1885999999999999e+01
0.0000000000000000e+00 2.1885000000000002e+01
ITEM: ATOMS id type x y z 
16 1 1.59377 12.5401 12.5387 
32 1 0.00794089 10.9548 10.9567 
64 1 4.30744 12.2213 12.221 
68 1 1.28093 15.2551 12.2223 
78 1 1.28085 12.2224 15.2557 
112 1 3.10751 12.3161 12.3164 
116 1 1.37374 14.055 12.3174 
126 1 1.37368 12.317 14.0553 
144 1 0.700477 11.6568 11.6584 
9 1 8.51279 12.5501 12.5527 
25 1 10.0979 10.9735 10.9747 
57 1 5.80187 12.2207 12.2213 
65 1 8.85194 15.2643 12.2191 
73 1 8.85191 12.2194 15.2617 
105 1 7.00059 12.3211 12.3201 
113 1 8.75057 14.0648 12.319 
121 1 8.75059 12.3204 14.0634 
137 1 9.39386 11.6697 11.6672 
11 1 1.60413 19.4654 12.5462 
27 1 0.0214833 21.0497 10.9662 
59 1 4.31457 19.7921 12.221 
69 1 1.28077 16.7487 12.2224 
79 1 1.27943 19.7922 15.2587 
107 1 3.11541 19.6928 12.3183 
117 1 1.37601 17.9483 12.3187 
127 1 1.37565 19.6929 14.0592 
139 1 0.721347 20.3488 11.6604 
14 1 8.52167 19.4693 12.5499 
30 1 10.1029 21.0493 10.9663 
62 1 5.80832 19.7928 12.2209 
72 1 8.85195 16.7553 12.2195 
76 1 8.85074 19.7938 15.2598 
110 1 7.0077 19.6948 12.3185 
120 1 8.75265 17.9549 12.3181 
124 1 8.75212 19.6954 14.061 
142 1 9.405 20.3496 11.6635 
13 1 1.60518 12.5477 19.4652 
29 1 0.0239561 10.9658 21.048 
61 1 4.31421 12.2212 19.7925 
71 1 1.27942 15.2597 19.7925 
75 1 1.28067 12.2223 16.7473 
109 1 3.11567 12.3186 19.6925 
119 1 1.37564 14.0605 19.6927 
123 1 1.37601 12.3187 17.9472 
141 1 0.722539 11.662 20.3478 
12 1 8.5212 12.5479 19.4678 
28 1 10.1041 10.9666 21.0481 
60 1 5.80956 12.2207 19.7926 
70 1 8.85086 15.2619 19.7932 
80 1 8.85204 12.2199 16.7565 
108 1 7.00818 12.3193 19.6952 
118 1 8.75252 14.0624 19.6955 
128 1 8.75278 12.3193 17.9556 
140 1 9.40626 11.6656 20.3498 
10 1 1.60308 19.465 19.4656 
26 1 0.0218766 21.0471 21.048 
58 1 4.31659 19.7929 19.7922 
66 1 1.27894 16.7534 19.792 
74 1 1.27889 19.792 16.7521 
106 1 3.1172 19.6952 19.6943 
114 1 1.37678 17.9526 19.6941 
122 1 1.37648 19.6949 17.9516 
138 1 0.721038 20.3484 20.3511 
15 1 8.52464 19.4666 19.4656 
31 1 10.1067 21.0463 21.0487 
63 1 5.80956 19.7932 19.7923 
67 1 8.85089 16.7545 19.7926 
77 1 8.85086 19.7934 16.7552 
111 1 7.00909 19.6957 19.6952 
115 1 8.75191 17.9539 19.6954 
125 1 8.75187 19.6957 17.954 
143 1 9.40675 20.3522 20.3485 
8 1 12.5476 1.60493 1.60189 
24 1 10.9645 0.0218658 0.0225166 
40 1 15.2611 1.27772 1.27803 
44 1 12.2199 4.31317 1.27785 
54 1 12.2193 1.27793 4.31613 
88 1 14.0616 1.37411 1.37617 
92 1 12.3189 3.1148 1.37612 
102 1 12.3184 1.37421 3.11676 
136 1 11.6617 0.721814 0.719648 
1 1 19.4685 1.60653 1.605 
17 1 21.0492 0.0227772 0.0226809 
33 1 16.7542 1.27798 1.27844 
41 1 19.792 4.31539 1.2786 
49 1 19.792 1.27807 4.31963 
81 1 17.9536 1.37508 1.37685 
89 1 19.6938 3.11647 1.37699 
97 1 19.6942 1.37472 3.12043 
129 1 20.3506 0.722291 0.719457 
3 1 12.548 8.52082 1.59633 
19 1 10.9651 10.1073 0.0198458 
35 1 15.2633 8.85 1.27708 
45 1 12.2197 5.80993 1.27688 
55 1 12.2172 8.85332 4.30745 
83 1 14.064 8.75259 1.37287 
93 1 12.3183 7.00843 1.37281 
103 1 12.3162 8.75344 3.10818 
131 1 11.6618 9.40655 0.717691 
6 1 19.4681 8.52638 1.6089 
22 1 21.0478 10.1074 0.0230895 
38 1 16.7562 8.85062 1.27936 
48 1 19.7926 5.80984 1.27944 
52 1 19.78 8.85481 4.32235 
86 1 17.9554 8.752 1.37778 
96 1 19.6966 7.00904 1.37834 
100 1 19.6878 8.75524 3.12079 
134 1 20.3517 9.40824 0.722691 
5 1 12.5517 1.59703 8.52491 
21 1 10.9646 0.0203047 10.1073 
37 1 15.2627 1.27696 8.85066 
47 1 12.2178 4.30596 8.85426 
51 1 12.2199 1.2769 5.80902 
85 1 14.0642 1.37238 8.75178 
95 1 12.3159 3.10774 8.75327 
99 1 12.3181 1.37238 7.00852 
133 1 11.6662 0.714686 9.40841 
4 1 19.4711 1.61389 8.52447 
20 1 21.0479 0.0240576 10.1055 
36 1 16.7571 1.27866 8.85014 
46 1 19.7802 4.32995 8.85203 
56 1 19.7918 1.27938 5.81323 
84 1 17.9563 1.37912 8.7533 
94 1 19.6853 3.12872 8.75671 
104 1 19.6953 1.38037 7.01235 
132 1 20.3511 0.723743 9.4068 
2 1 12.5363 8.52764 8.52997 
18 1 10.9641 10.1139 10.1143 
34 1 15.2665 8.8044 8.72874 
42 1 12.2223 5.80243 8.85485 
50 1 12.2212 8.8532 5.80133 
82 1 14.0412 8.72201 8.67299 
90 1 12.3175 7.00384 8.76096 
98 1 12.3158 8.75888 7.0044 
130 1 11.6608 9.41661 9.41807 
7 1 19.5521 8.4976 8.47657 
23 1 21.0699 10.083 10.0762 
39 1 16.6919 8.84227 8.80704 
43 1 19.7946 5.81836 8.83585 
53 1 19.7849 8.84662 5.8102 
87 1 17.9193 8.87808 9.03252 
91 1 19.7239 7.02046 8.72023 
101 1 19.7104 8.73335 7.01427 
135 1 20.4063 9.37412 9.35079 
145 2 17.9978 8.80611 10.1686 
146 3 17.978 8.73415 11.1669 
ITEM: TIMESTEP
50
ITEM: NUMBER OF ATOMS
146
ITEM: BOX BOUNDS pp pp pp
0.0000000000000000e+00 2.1884000000000000e+01
0.0000000000000000e+00 2.1885999999999999e+01
0.0000000000000000e+00 2.1885000000000002e+01
ITEM: ATOMS id type x y z 
16 1 1.59236 12.5401 12.5393 
32 1 0.0080135 10.9544 10.956 
64 1 4.30755 12.2211 12.2211 
68 1 1.28083 15.2551 12.2224 
78 1 1.28075 12.2224 15.2546 
112 1 3.10764 12.3159 12.316 
116 1 1.37358 14.0551 12.3171 
126 1 1.37359 12.3171 14.0546 
144 1 0.70144 11.6556 11.6577 
9 1 8.51314 12.5517 12.5515 
25 1 10.0985 10.9728 10.9727 
57 1 5.8009 12.2212 12.2214 
65 1 8.85187 15.2628 12.2193 
73 1 8.85192 12.2198 15.2627 
105 1 6.99994 12.321 12.3205 
113 1 8.74996 14.0641 12.3193 
121 1 8.7501 12.3201 14.0639 
137 1 9.39505 11.6688 11.6685 
11 1 1.60348 19.4638 12.5452 
27 1 0.0221306 21.049 10.9652 
59 1 4.31498 19.7919 12.2209 
69 1 1.2808 16.749 12.2225 
79 1 1.27924 19.7918 15.2587 
107 1 3.11563 19.693 12.3183 
117 1 1.37639 17.9486 12.3188 
127 1 1.3759 19.6931 14.0593 
139 1 0.720617 20.3496 11.6621 
14 1 8.52172 19.4683 12.5486 
30 1 10.1029 21.0488 10.9659 
62 1 5.808 19.7926 12.2208 
72 1 8.85196 16.7563 12.2194 
76 1 8.85077 19.7936 15.261 
110 1 7.00736 19.6951 12.3189 
120 1 8.75253 17.9553 12.3184 
124 1 8.75205 19.6957 14.0618 
142 1 9.405 20.3503 11.6644 
13 1 1.6043 12.5467 19.4633 
29 1 0.0243509 10.9652 21.0476 
61 1 4.31547 12.2211 19.7922 
71 1 1.27916 15.2599 19.7921 
75 1 1.28065 12.2224 16.7486 
109 1 3.11621 12.3187 19.6929 
119 1 1.37598 14.0606 19.693 
123 1 1.37652 12.3191 17.9481 
141 1 0.721722 11.6633 20.3482 
12 1 8.52198 12.5485 19.4679 
28 1 10.1045 10.967 21.0477 
60 1 5.80841 12.2209 19.7927 
70 1 8.85092 15.2615 19.7931 
80 1 8.85204 12.22 16.7558 
108 1 7.00774 12.3192 19.6952 
118 1 8.75226 14.0622 19.6955 
128 1 8.75273 12.319 17.9549 
140 1 9.40538 11.6653 20.3501 
10 1 1.60353 19.4654 19.466 
26 1 0.0224361 21.0469 21.0485 
58 1 4.3164 19.7929 19.7922 
66 1 1.27913 16.753 19.7921 
74 1 1.27911 19.7921 16.7521 
106 1 3.11718 19.695 19.6943 
114 1 1.37659 17.9523 19.6941 
122 1 1.3763 19.6946 17.9514 
138 1 0.720618 20.3488 20.3499 
15 1 8.52338 19.4676 19.4661 
31 1 10.1059 21.0474 21.0482 
63 1 5.80995 19.7932 19.7924 
67 1 8.85072 16.7547 19.7928 
77 1 8.85067 19.7935 16.7539 
111 1 7.00921 19.6956 19.695 
115 1 8.75215 17.9539 19.6951 
125 1 8.75216 19.6957 17.9532 
143 1 9.40749 20.3502 20.349 
8 1 12.5474 1.60373 1.60273 
24 1 10.9643 0.0219944 0.0226409 
40 1 15.2611 1.27749 1.27825 
44 1 12.2199 4.31536 1.27797 
54 1 12.2195 1.27766 4.31592 
88 1 14.0618 1.37449 1.37581 
92 1 12.3186 3.11605 1.37577 
102 1 12.3182 1.37463 3.11675 
136 1 11.6627 0.721543 0.719584 
1 1 19.4677 1.60528 1.60513 
17 1 21.0485 0.0232282 0.0221883 
33 1 16.7546 1.27785 1.27858 
41 1 19.7918 4.3166 1.2787 
49 1 19.7917 1.27788 4.31961 
81 1 17.9538 1.37549 1.37677 
89 1 19.6941 3.11727 1.37687 
97 1 19.6944 1.3752 3.12021 
129 1 20.3509 0.721785 0.720817 
3 1 12.5479 8.52166 1.59694 
19 1 10.9645 10.1066 0.0204626 
35 1 15.263 8.85022 1.27729 
45 1 12.2198 5.80808 1.27696 
55 1 12.2176 8.85332 4.30982 
83 1 14.0634 8.75209 1.37266 
93 1 12.3183 7.00768 1.37248 
103 1 12.3163 8.75332 3.10879 
131 1 11.6633 9.40703 0.717115 
6 1 19.4689 8.52482 1.60836 
22 1 21.0482 10.1069 0.0231913 
38 1 16.756 8.85035 1.27916 
48 1 19.7926 5.80978 1.2796 
52 1 19.7801 8.8544 4.32429 
86 1 17.9554 8.75232 1.37795 
96 1 19.6964 7.00934 1.37854 
100 1 19.6876 8.75557 3.12175 
134 1 20.351 9.40891 0.722963 
5 1 12.5506 1.59648 8.52374 
21 1 10.965 0.0200711 10.1069 
37 1 15.2639 1.27686 8.85042 
47 1 12.2179 4.30903 8.85386 
51 1 12.2197 1.27703 5.80963 
85 1 14.0644 1.3723 8.75199 
95 1 12.3164 3.10868 8.75378 
99 1 12.3186 1.37228 7.00899 
133 1 11.6661 0.715501 9.40849 
4 1 19.4699 1.61317 8.52523 
20 1 21.0474 0.0238812 10.1051 
36 1 16.757 1.27881 8.8502 
46 1 19.7802 4.33073 8.85168 
56 1 19.7918 1.27955 5.81297 
84 1 17.9563 1.37934 8.7531 
94 1 19.6857 3.12913 8.75635 
104 1 19.6955 1.38064 7.01226 
132 1 20.3515 0.725062 9.40736 
2 1 12.5384 8.52818 8.53117 
18 1 10.9624 10.116 10.1166 
34 1 15.2699 8.80432 8.72637 
42 1 12.222 5.79741 8.85527 
50 1 12.2207 8.85348 5.79567 
82 1 14.0427 8.72099 8.67104 
90 1 12.3164 7.00162 8.76144 
98 1 12.3143 8.7594 7.0014 
130 1 11.6606 9.41679 9.41825 
7 1 19.5499 8.49737 8.47914 
23 1 21.0713 10.0825 10.0749 
39 1 16.6939 8.84229 8.80792 
43 1 19.7942 5.81827 8.83568 
53 1 19.7842 8.84636 5.80785 
87 1 17.9187 8.87848 9.0352 
91 1 19.723 7.02135 8.71951 
101 1 19.7093 8.73394 7.01247 
135 1 20.4053 9.37428 9.35095 
145 2 17.9981 8.8072 10.1723 
146 3 17.9801 8.73419 11.1692 
ITEM: TIMESTEP
54
ITEM: NUMBER OF ATOMS
146
ITEM: BOX BOUNDS pp pp pp
0.0000000000000000e+00 2.1884000000000000e+01
0.0000000000000000e+00 2.1885999999999999e+01
0.0000000000000000e+00 2.1885000000000002e+01
ITEM: ATOMS id type x y z 
16 1 1.58874 12.5399 12.5396 
32 1 0.00973499 10.9525 10.9528 
64 1 4.30566 12.2205 12.2209 
68 1 1.28066 15.2555 12.2225 
78 1 1.28062 12.2223 15.2551 
112 1 3.10583 12.3155 12.3151 
116 1 1.37253 14.055 12.3164 
126 1 1.37254 12.3168 14.0545 
144 1 0.704503 11.6511 11.6556 
9 1 8.51392 12.5508 12.5499 
25 1 10.0972 10.9715 10.9713 
57 1 5.79991 12.2224 12.222 
65 1 8.85133 15.2635 12.2199 
73 1 8.85157 12.2207 15.2623 
105 1 6.99888 12.3214 12.3216 
113 1 8.74843 14.0645 12.3198 
121 1 8.74827 12.3202 14.0636 
137 1 9.39854 11.6705 11.6707 
11 1 1.60193 19.463 12.5448 
27 1 0.0229518 21.0488 10.9636 
59 1 4.31483 19.7916 12.221 
69 1 1.281 16.7482 12.2231 
79 1 1.27902 19.7912 15.2581 
107 1 3.11558 19.693 12.3182 
117 1 1.37722 17.948 12.3189 
127 1 1.37641 19.6931 14.059 
139 1 0.718511 20.3494 11.6636 
14 1 8.52171 19.4675 12.5469 
30 1 10.104 21.0478 10.9653 
62 1 5.80821 19.7922 12.2208 
72 1 8.85193 16.7551 12.2195 
76 1 8.85076 19.7933 15.2606 
110 1 7.00747 19.6955 12.3196 
120 1 8.75247 17.9544 12.3185 
124 1 8.75149 19.6961 14.0614 
142 1 9.40426 20.3525 11.6656 
13 1 1.60163 12.5468 19.462 
29 1 0.0233273 10.9659 21.0475 
61 1 4.31555 12.2209 19.7917 
71 1 1.27876 15.2592 19.7914 
75 1 1.2809 12.2229 16.7474 
109 1 3.11616 12.3189 19.693 
119 1 1.37674 14.0599 19.693 
123 1 1.37739 12.3194 17.9473 
141 1 0.722292 11.6624 20.348 
12 1 8.52151 12.5485 19.4686 
28 1 10.1038 10.9669 21.0487 
60 1 5.80879 12.2212 19.7926 
70 1 8.8508 15.2613 19.7929 
80 1 8.85213 12.2201 16.7557 
108 1 7.00819 12.3196 19.6953 
118 1 8.75176 14.0622 19.6957 
128 1 8.75248 12.3188 17.9546 
140 1 9.40669 11.6649 20.3489 
10 1 1.60348 19.4666 19.4653 
26 1 0.0226024 21.0475 21.0485 
58 1 4.31696 19.793 19.7919 
66 1 1.27941 16.7529 19.7921 
74 1 1.27953 19.7922 16.7523 
106 1 3.11752 19.6945 19.6944 
114 1 1.37635 17.9522 19.6941 
122 1 1.37617 19.694 17.9514 
138 1 0.720498 20.3493 20.3495 
15 1 8.52332 19.468 19.4666 
31 1 10.1058 21.0487 21.0473 
63 1 5.80916 19.793 19.7925 
67 1 8.85043 16.7546 19.7931 
77 1 8.85056 19.7935 16.7539 
111 1 7.00866 19.6958 19.6946 
115 1 8.75242 17.9537 19.6946 
125 1 8.75228 19.6957 17.9531 
143 1 9.40692 20.3486 20.3508 
8 1 12.5474 1.60259 1.60293 
24 1 10.9642 0.0231208 0.0214874 
40 1 15.2615 1.27712 1.27875 
44 1 12.22 4.31587 1.27802 
54 1 12.2201 1.27726 4.31725 
88 1 14.0621 1.37535 1.37513 
92 1 12.3185 3.11623 1.37549 
102 1 12.3178 1.37547 3.11754 
136 1 11.6639 0.719206 0.72139 
1 1 19.4676 1.60268 1.60659 
17 1 21.0484 0.0234668 0.0220489 
33 1 16.7545 1.27763 1.27898 