LAMMPS (3 Mar 2020)
# Alpha
clear
units		real
dimension 3
boundary        p p p
atom_style	charge
newton on
read_data       OOH_2.lmp
  orthogonal box = (0 0 0) to (13.416 13.416 13.415)
  2 by 2 by 2 MPI processor grid
  reading atoms ...
  83 atoms
  read_data CPU = 0.0190173 secs

timestep 0.25

# ---------- Define Interatomic Potential ---------------------
pair_style      reax/c NULL checkqeq no
pair_coeff      * * ffield.reax C H O
fix             2 all qeq/reax 1 0.0 10.0 1.0e-6 reax/c

#------------ Equilibration of the system -------------------------
reset_timestep 0

dump 1 all custom 10 min.lammpstrj id type x y z

minimize 1.0e-8 1.0e-8 100000 100000
WARNING: Using 'neigh_modify every 1 delay 0 check yes' setting during minimization (../min.cpp:190)
WARNING: Total cutoff < 2*bond cutoff. May need to use an increased neighbor list skin. (../pair_reaxc.cpp:413)
Neighbor list info ...
  update every 1 steps, delay 0 steps, check yes
  max neighbors/atom: 2000, page size: 100000
  master list distance cutoff = 9.5
  ghost atom cutoff = 9.5
  binsize = 4.75, bins = 3 3 3
  2 neighbor lists, perpetual/occasional/extra = 2 0 0
  (1) pair reax/c, perpetual
      attributes: half, newton off, ghost
      pair build: half/bin/newtoff/ghost
      stencil: half/ghost/bin/3d/newtoff
      bin: standard
  (2) fix qeq/reax, perpetual, copy from (1)
      attributes: half, newton off, ghost
      pair build: copy
      stencil: none
      bin: none
Per MPI rank memory allocation (min/avg/max) = 18.47 | 18.51 | 18.57 Mbytes
Step Temp E_pair E_mol TotEng Press 
       0            0    -14739.83            0    -14739.83    2566.6654 
      43            0    -14789.79            0    -14789.79    4945.5583 
Loop time of 2.00517 on 8 procs for 43 steps with 83 atoms

98.9% CPU use with 8 MPI tasks x no OpenMP threads

Minimization stats:
  Stopping criterion = energy tolerance
  Energy initial, next-to-last, final = 
        -14739.8296476     -14789.7896729     -14789.7897331
  Force two-norm initial, final = 306.148 70.8509
  Force max component initial, final = 122.901 24.7666
  Final line search alpha, max atom move = 0.0159935 0.396104
  Iterations, force evaluations = 43 167

MPI task timing breakdown:
Section |  min time  |  avg time  |  max time  |%varavg| %total
---------------------------------------------------------------
Pair    | 1.2614     | 1.2799     | 1.2995     |   0.9 | 63.83
Neigh   | 0          | 0          | 0          |   0.0 |  0.00
Comm    | 0.029894   | 0.049313   | 0.067638   |   4.7 |  2.46
Output  | 0.00037454 | 0.00058157 | 0.0008886  |   0.0 |  0.03
Modify  | 0.66868    | 0.66879    | 0.66889    |   0.0 | 33.35
Other   |            | 0.006561   |            |       |  0.33

Nlocal:    10.375 ave 13 max 10 min
Histogram: 7 0 0 0 0 0 0 0 0 1
Nghost:    576.125 ave 580 max 571 min
Histogram: 1 0 0 1 0 4 0 0 0 2
Neighs:    1148.38 ave 1438 max 1090 min
Histogram: 7 0 0 0 0 0 0 0 0 1

Total # of neighbors = 9187
Ave neighs/atom = 110.687
Neighbor list builds = 0
Dangerous builds = 0

###
min_style cg
minimize 1.0e-8 1.0e-8 100000 100000
WARNING: Using 'neigh_modify every 1 delay 0 check yes' setting during minimization (../min.cpp:190)
WARNING: Total cutoff < 2*bond cutoff. May need to use an increased neighbor list skin. (../pair_reaxc.cpp:413)
Per MPI rank memory allocation (min/avg/max) = 18.47 | 18.51 | 18.57 Mbytes
Step Temp E_pair E_mol TotEng Press 
      43            0    -14789.79            0    -14789.79    4945.5583 
     118            0   -14795.834            0   -14795.834   -1222.1107 
Loop time of 4.55637 on 8 procs for 75 steps with 83 atoms

98.9% CPU use with 8 MPI tasks x no OpenMP threads

Minimization stats:
  Stopping criterion = energy tolerance
  Energy initial, next-to-last, final = 
        -14789.7897331      -14795.833562     -14795.8336449
  Force two-norm initial, final = 70.8509 19.7538
  Force max component initial, final = 24.7666 4.12369
  Final line search alpha, max atom move = 0.000378289 0.00155995
  Iterations, force evaluations = 75 382

MPI task timing breakdown:
Section |  min time  |  avg time  |  max time  |%varavg| %total
---------------------------------------------------------------
Pair    | 2.9592     | 3.0068     | 3.0626     |   2.0 | 65.99
Neigh   | 0          | 0          | 0          |   0.0 |  0.00
Comm    | 0.070078   | 0.12539    | 0.17222    |   9.5 |  2.75
Output  | 0.00070346 | 0.0010081  | 0.0014798  |   0.8 |  0.02
Modify  | 1.4099     | 1.4101     | 1.4103     |   0.0 | 30.95
Other   |            | 0.01311    |            |       |  0.29

Nlocal:    10.375 ave 13 max 10 min
Histogram: 7 0 0 0 0 0 0 0 0 1
Nghost:    588.25 ave 592 max 584 min
Histogram: 1 0 3 0 0 0 1 0 1 2
Neighs:    1152.12 ave 1449 max 1094 min
Histogram: 7 0 0 0 0 0 0 0 0 1

Total # of neighbors = 9217
Ave neighs/atom = 111.048
Neighbor list builds = 0
Dangerous builds = 0

###
fix 1 all box/relax aniso 0.0
min_style cg
minimize 1.0e-8 1.0e-8 100000 100000
WARNING: Using 'neigh_modify every 1 delay 0 check yes' setting during minimization (../min.cpp:190)
WARNING: Total cutoff < 2*bond cutoff. May need to use an increased neighbor list skin. (../pair_reaxc.cpp:413)
Per MPI rank memory allocation (min/avg/max) = 18.47 | 18.51 | 18.57 Mbytes
Step Temp E_pair E_mol TotEng Press Volume 
     118            0   -14795.834            0   -14795.834   -1222.1107    2414.5532 
     149            0   -14795.934            0   -14795.934    48.758469    2413.7232 
Loop time of 0.561288 on 8 procs for 31 steps with 83 atoms

98.9% CPU use with 8 MPI tasks x no OpenMP threads

Minimization stats:
  Stopping criterion = energy tolerance
  Energy initial, next-to-last, final = 
        -14795.8336449     -14795.9341341     -14795.9342527
  Force two-norm initial, final = 77.9063 16.6897
  Force max component initial, final = 50.9289 5.07744
  Final line search alpha, max atom move = 1.34065e-05 6.80708e-05
  Iterations, force evaluations = 31 54

MPI task timing breakdown:
Section |  min time  |  avg time  |  max time  |%varavg| %total
---------------------------------------------------------------
Pair    | 0.42222    | 0.42861    | 0.43326    |   0.5 | 76.36
Neigh   | 0          | 0          | 0          |   0.0 |  0.00
Comm    | 0.0093721  | 0.013909   | 0.020228   |   3.0 |  2.48
Output  | 0.00023162 | 0.00038425 | 0.00060835 |   0.0 |  0.07
Modify  | 0.11292    | 0.11298    | 0.11302    |   0.0 | 20.13
Other   |            | 0.005406   |            |       |  0.96

Nlocal:    10.375 ave 13 max 10 min
Histogram: 7 0 0 0 0 0 0 0 0 1
Nghost:    589.25 ave 592 max 585 min
Histogram: 1 0 1 0 1 1 0 1 1 2
Neighs:    1159.62 ave 1464 max 1101 min
Histogram: 7 0 0 0 0 0 0 0 0 1

Total # of neighbors = 9277
Ave neighs/atom = 111.771
Neighbor list builds = 0
Dangerous builds = 0

unfix 1
###
min_style cg
minimize 1.0e-8 1.0e-8 100000 100000
WARNING: Using 'neigh_modify every 1 delay 0 check yes' setting during minimization (../min.cpp:190)
WARNING: Total cutoff < 2*bond cutoff. May need to use an increased neighbor list skin. (../pair_reaxc.cpp:413)
Per MPI rank memory allocation (min/avg/max) = 18.47 | 18.51 | 18.57 Mbytes
Step Temp E_pair E_mol TotEng Press 
     149            0   -14795.934            0   -14795.934    48.758469 
     173            0   -14796.201            0   -14796.201   -2294.3699 
Loop time of 2.03264 on 8 procs for 24 steps with 83 atoms

98.9% CPU use with 8 MPI tasks x no OpenMP threads

Minimization stats:
  Stopping criterion = energy tolerance
  Energy initial, next-to-last, final = 
        -14795.9342527     -14796.2012277     -14796.2012852
  Force two-norm initial, final = 15.8804 20.4642
  Force max component initial, final = 4.87273 4.56027
  Final line search alpha, max atom move = 0.00136788 0.00623791
  Iterations, force evaluations = 24 173

MPI task timing breakdown:
Section |  min time  |  avg time  |  max time  |%varavg| %total
---------------------------------------------------------------
Pair    | 1.3484     | 1.3727     | 1.3898     |   1.1 | 67.53
Neigh   | 0          | 0          | 0          |   0.0 |  0.00
Comm    | 0.034416   | 0.051419   | 0.075744   |   5.7 |  2.53
Output  | 0.00027807 | 0.00041771 | 0.00061203 |   0.0 |  0.02
Modify  | 0.60179    | 0.60187    | 0.60199    |   0.0 | 29.61
Other   |            | 0.00624    |            |       |  0.31

Nlocal:    10.375 ave 13 max 10 min
Histogram: 7 0 0 0 0 0 0 0 0 1
Nghost:    593.375 ave 598 max 588 min
Histogram: 1 0 0 2 0 1 1 1 0 2
Neighs:    1159.62 ave 1465 max 1100 min
Histogram: 7 0 0 0 0 0 0 0 0 1

Total # of neighbors = 9277
Ave neighs/atom = 111.771
Neighbor list builds = 0
Dangerous builds = 0

###
fix 1 all box/relax aniso 0.0
min_style cg
minimize 1.0e-8 1.0e-8 100000 100000
WARNING: Using 'neigh_modify every 1 delay 0 check yes' setting during minimization (../min.cpp:190)
WARNING: Total cutoff < 2*bond cutoff. May need to use an increased neighbor list skin. (../pair_reaxc.cpp:413)
Per MPI rank memory allocation (min/avg/max) = 18.47 | 18.51 | 18.57 Mbytes
Step Temp E_pair E_mol TotEng Press Volume 
     173            0   -14796.201            0   -14796.201   -2294.3699    2413.7232 
     330            0   -14796.667            0   -14796.667   -173.64101    2412.0161 
Loop time of 2.95691 on 8 procs for 157 steps with 83 atoms

98.8% CPU use with 8 MPI tasks x no OpenMP threads

Minimization stats:
  Stopping criterion = energy tolerance
  Energy initial, next-to-last, final = 
        -14796.2012852     -14796.6664368      -14796.666526
  Force two-norm initial, final = 141.921 16.8139
  Force max component initial, final = 88.2304 8.60584
  Final line search alpha, max atom move = 2.8052e-06 2.41411e-05
  Iterations, force evaluations = 157 290

MPI task timing breakdown:
Section |  min time  |  avg time  |  max time  |%varavg| %total
---------------------------------------------------------------
Pair    | 2.2439     | 2.2752     | 2.3069     |   1.4 | 76.94
Neigh   | 0          | 0          | 0          |   0.0 |  0.00
Comm    | 0.042218   | 0.073561   | 0.10509    |   7.5 |  2.49
Output  | 0.0011889  | 0.0017544  | 0.0027199  |   1.1 |  0.06
Modify  | 0.58076    | 0.58091    | 0.58105    |   0.0 | 19.65
Other   |            | 0.02551    |            |       |  0.86

Nlocal:    10.375 ave 13 max 10 min
Histogram: 7 0 0 0 0 0 0 0 0 1
Nghost:    591.875 ave 599 max 584 min
Histogram: 1 0 1 0 3 1 0 0 0 2
Neighs:    1162.38 ave 1466 max 1104 min
Histogram: 7 0 0 0 0 0 0 0 0 1

Total # of neighbors = 9299
Ave neighs/atom = 112.036
Neighbor list builds = 0
Dangerous builds = 0

unfix 1
###
min_style cg
minimize 1.0e-8 1.0e-8 100000 100000
WARNING: Using 'neigh_modify every 1 delay 0 check yes' setting during minimization (../min.cpp:190)
WARNING: Total cutoff < 2*bond cutoff. May need to use an increased neighbor list skin. (../pair_reaxc.cpp:413)
Per MPI rank memory allocation (min/avg/max) = 18.47 | 18.51 | 18.57 Mbytes
Step Temp E_pair E_mol TotEng Press 
     330            0   -14796.667            0   -14796.667   -173.64101 
     370            0   -14797.884            0   -14797.884   -4879.5445 
Loop time of 2.61452 on 8 procs for 40 steps with 83 atoms

98.8% CPU use with 8 MPI tasks x no OpenMP threads

Minimization stats:
  Stopping criterion = energy tolerance
  Energy initial, next-to-last, final = 
        -14796.6665261      -14797.883955      -14797.884012
  Force two-norm initial, final = 11.6129 10.1862
  Force max component initial, final = 4.07595 2.45628
  Final line search alpha, max atom move = 0.00126706 0.00311225
  Iterations, force evaluations = 40 224

MPI task timing breakdown:
Section |  min time  |  avg time  |  max time  |%varavg| %total
---------------------------------------------------------------
Pair    | 1.7802     | 1.7986     | 1.8214     |   1.1 | 68.79
Neigh   | 0          | 0          | 0          |   0.0 |  0.00
Comm    | 0.037537   | 0.060057   | 0.07829    |   5.8 |  2.30
Output  | 0.00026994 | 0.00037716 | 0.00055376 |   0.0 |  0.01
Modify  | 0.74793    | 0.74802    | 0.74809    |   0.0 | 28.61
Other   |            | 0.007445   |            |       |  0.28

Nlocal:    10.375 ave 13 max 10 min
Histogram: 7 0 0 0 0 0 0 0 0 1
Nghost:    598.625 ave 605 max 594 min
Histogram: 1 1 1 2 1 0 0 1 0 1
Neighs:    1162.12 ave 1467 max 1104 min
Histogram: 7 0 0 0 0 0 0 0 0 1

Total # of neighbors = 9297
Ave neighs/atom = 112.012
Neighbor list builds = 0
Dangerous builds = 0

undump 1
#############
#----------- Thermo ------------
reset_timestep 0
thermo  200

thermo_style    custom step temp etotal ke pe press
velocity all create 300 12345 mom yes rot yes
fix 1 all npt temp 300 300 25.0 iso 0.0 0.0 250.0

variable vpe equal pe
variable vtemp equal temp
variable vstep equal step

fix output all print 2500 "${vstep} ${vtemp} ${vpe}" file temp-tpdh-Pt.dat screen no

dump 1 all custom 2500 thermo-tpdh-Pt.lammpstrj id type x y z

run 1000000
WARNING: Total cutoff < 2*bond cutoff. May need to use an increased neighbor list skin. (../pair_reaxc.cpp:413)
Per MPI rank memory allocation (min/avg/max) = 17.34 | 17.39 | 17.45 Mbytes
Step Temp TotEng KinEng PotEng Press 
       0          300   -14724.556    73.327927   -14797.884   -3489.8413 
     200    243.11907   -14696.552    59.424724   -14755.977   -7176.5459 
     400    309.42427   -14655.287    75.631467   -14730.919   -6457.1826 
     600      319.794    -14648.25    78.166103   -14726.416   -4552.7059 
     800    285.60935   -14667.763    69.810472   -14737.574    442.34233 
    1000    340.93814   -14646.681    83.334292   -14730.015   -9896.0347 
    1200    304.53872   -14654.527     74.43731   -14728.965   -4297.4636 
    1400    239.79415   -14670.317    58.612026   -14728.929   -18712.759 
    1600     309.6672   -14647.438    75.690846   -14723.129   -3202.9385 
    1800    265.67318   -14662.568    64.937545   -14727.505    12204.669 
    2000    306.37329   -14649.031    74.885728   -14723.917    4864.8142 
    2200    279.96119   -14654.876    68.429912   -14723.306    8128.9159 
    2400    270.51946   -14653.582    66.122103   -14719.704    18649.333 
    2600    315.27002    -14640.78    77.060325    -14717.84    13449.055 
    2800    261.52929   -14661.087    63.924669   -14725.012    11878.977 
    3000    305.94364   -14655.157    74.780709   -14729.938   -197.19661 
    3200    294.81144   -14665.722    72.059706   -14737.782   -14686.531 
    3400    282.80661   -14670.721    69.125408   -14739.846    9535.0681 
    3600    294.54856    -14657.08    71.995452   -14729.075   -12141.713 
    3800    316.45903   -14657.992    77.350949   -14735.343   -9314.2598 
    4000    285.90682   -14667.515    69.883181   -14737.398   -8956.9935 
    4200    305.59366   -14649.207    74.695165   -14723.903    22507.442 
    4400    287.92185   -14658.184    70.375709    -14728.56   -326.16484 
    4600    304.94096   -14661.882    74.535628   -14736.417    17227.924 
    4800    294.07017   -14661.538    71.878519   -14733.417    622.90686 
    5000    210.84818   -14673.803    51.536867    -14725.34   -565.53871 
    5200    288.51001   -14655.538    70.519471   -14726.058    4031.9196 
    5400    273.64863   -14659.376    66.886957   -14726.263    17426.511 
    5600    244.30022   -14664.683    59.713429   -14724.396    8479.9695 
    5800    361.82344   -14643.051     88.43921    -14731.49    2823.1573 
    6000    327.37676   -14661.138    80.019531   -14741.157    5575.3015 
    6200    349.26378   -14651.029    85.369296   -14736.398     12989.75 
    6400    339.30941    -14632.92    82.936185   -14715.856    17365.964 
    6600    287.08103   -14653.614    70.170189   -14723.784    9777.3223 
    6800    310.87722   -14654.895    75.986608   -14730.882    17429.389 
    7000    260.05386   -14671.119    63.564034   -14734.683   -1868.0131 
    7200    296.77162   -14650.945    72.538827   -14723.484   -18064.726 
    7400    316.21107    -14655.92    77.290342   -14733.211   -10405.163 
    7600    268.24298   -14673.962    65.565673   -14739.527    9227.5837 
    7800    328.77084   -14646.698    80.360281   -14727.058    80.664376 
    8000    247.83036   -14661.066     60.57629   -14721.642    18803.659 
    8200    268.54203   -14653.408    65.638768   -14719.046    4774.7487 
    8400    345.85847   -14642.244    84.536948   -14726.781   -7639.0867 
    8600    278.41905   -14656.256    68.052973   -14724.309   -8817.1218 
    8800    330.52053   -14643.297    80.787952   -14724.085   -5100.8369 
    9000     283.7709   -14665.686    69.361106   -14735.047   -7499.3017 
    9200    281.75184     -14655.8    68.867594   -14724.668   -3873.2593 
    9400    279.30675   -14652.256    68.269949   -14720.526   -2934.7077 
    9600    250.48137   -14664.532    61.224266   -14725.756   -19462.784 
    9800     287.4919   -14657.203    70.270617   -14727.474   -14232.529 
   10000    317.35728   -14643.808    77.570504   -14721.379   -12228.824 
   10200    246.55507   -14664.624    60.264574   -14724.889   -2137.7756 
   10400    280.22221   -14663.206    68.493713     -14731.7    436.31245 
   10600    289.60394   -14657.276    70.786856   -14728.063    8178.3707 
   10800    306.14525    -14634.88    74.829988    -14709.71    941.87819 
   11000    303.09744   -14650.803    74.085023   -14724.888   -5562.9529 
   11200    304.56692   -14662.307    74.444203   -14736.751    12873.056 
   11400    302.64155   -14639.726    73.973591     -14713.7    9898.7083 
   11600    304.38126   -14650.995    74.398822   -14725.393   -297.90558 
   11800    341.21661   -14657.745    83.402357   -14741.147    10021.286 
   12000    259.73372   -14672.726    63.485784   -14736.212     9579.456 
   12200    294.96216   -14654.974    72.096547   -14727.071   -2219.8737 
   12400    318.68701   -14646.339    77.895526   -14724.234    720.17879 
   12600    288.14349   -14671.997    70.429884   -14742.426    5991.8502 
   12800    271.12575   -14659.461    66.270298   -14725.731     8727.058 
   13000    317.18418   -14643.806    77.528196   -14721.334    4996.0426 
   13200    251.58944    -14665.78    61.495107   -14727.275   -8582.8451 
   13400    261.96446   -14663.111    64.031037   -14727.142    -3812.608 
   13600    295.54507    -14646.33    72.239025   -14718.569    6604.6851 
   13800    313.68972   -14643.037    76.674056   -14719.711    10627.647 
   14000    261.13226   -14661.367    63.827624   -14725.194    7104.3316 
   14200    358.32709   -14640.387    87.584609   -14727.972   -10027.027 
   14400    288.33033   -14652.766    70.475551   -14723.241   -3370.6309 
   14600     283.3427   -14656.319    69.256443   -14725.575   -8398.6136 
   14800    278.18246   -14666.492    67.995144   -14734.487   -10509.946 
   15000    317.06286   -14648.889    77.498542   -14726.388    6881.2734 
   15200    301.89243   -14656.637    73.790487   -14730.427    12726.767 
   15400    257.97549   -14667.866    63.056025   -14730.922   -10823.943 
   15600    299.11394   -14651.527     73.11135   -14724.639    3329.4718 
   15800    342.45724   -14638.219    83.705598   -14721.924    -7443.507 
   16000    309.60531   -14643.045     75.67572   -14718.721    4084.5183 
   16200    285.68824   -14654.714    69.829755   -14724.544   -2171.6024 
   16400    301.46722   -14663.486    73.686555   -14737.173    7223.6332 
   16600    261.92409   -14673.598    64.021169   -14737.619    2887.3279 
   16800    291.16985   -14652.037    71.169606   -14723.206   -6793.8125 
   17000    288.64678   -14652.977    70.552901    -14723.53    8593.1318 
   17200    240.45583    -14668.86    58.773759   -14727.634    13959.563 
   17400    273.44602   -14646.776    66.837434   -14713.613    6030.9363 
   17600    311.45636   -14645.824    76.128164   -14721.952    29047.343 
   17800    271.73878   -14662.374    66.420137   -14728.794    1270.0962 
   18000    344.24833   -14640.471    84.143389   -14724.615    4153.8674 
   18200    307.71028    -14650.64    75.212524   -14725.852    3106.0133 
   18400    295.12434   -14669.216    72.136186   -14741.352    10548.214 
   18600    338.01025   -14648.511    82.618638    -14731.13    18026.299 
   18800    325.52079   -14656.655    79.565884   -14736.221      425.786 
   19000    318.65483   -14652.307    77.887661   -14730.195    6362.2277 
   19200      294.686   -14643.775    72.029045   -14715.804    6637.9793 
   19400    308.10324   -14663.632    75.308573    -14738.94    3401.7628 
   19600    285.07669   -14651.518    69.680275   -14721.198    121.67623 
   19800    290.77609   -14652.926     71.07336       -14724   -4951.5698 
   20000    350.00789   -14632.898    85.551177   -14718.449   -497.01814 
   20200    306.60551   -14649.864     74.94249   -14724.807   -3051.8912 
   20400    276.50084   -14654.886    67.584113    -14722.47   -2408.0596 
   20600    333.44286   -14641.027    81.502246   -14722.529    16065.465 
   20800      269.219   -14657.641    65.804237   -14723.445    10816.669 
   21000    308.95266     -14654.9    75.516195   -14730.416   -181.11441 
   21200    276.57446   -14655.572    67.602107   -14723.174   -928.55135 
   21400    277.07983   -14658.075    67.725631   -14725.801    920.28287 
   21600     309.6568   -14640.661    75.688304   -14716.349    -4743.469 
   21800     297.4236       -14649    72.698186   -14721.698    3223.6344 
   22000    274.23932   -14655.483    67.031336   -14722.515   -9968.1556 
   22200    343.82148   -14643.797    84.039054   -14727.836    4212.8571 
   22400    265.41376   -14667.716    64.874135    -14732.59    9700.2604 
   22600    333.13443   -14655.701    81.426858   -14737.128   -2964.7737 
   22800    304.38222    -14655.64    74.399059   -14730.039    249.59676 
   23000    257.45659   -14671.234    62.929194   -14734.163    18894.639 
   23200    273.06789   -14650.817    66.745008   -14717.562   -12132.948 
   23400    272.11978   -14660.832    66.513266   -14727.346    5132.2494 
   23600    315.02431   -14654.915    77.000265   -14731.915    3475.7895 
   23800     300.7962   -14647.981     73.52254   -14721.503    1837.9086 
   24000    260.88023   -14657.001    63.766021   -14720.767   -1449.3259 
   24200    310.96616   -14631.217    76.008346   -14707.226    897.50249 
   24400    315.43948   -14652.472    77.101744   -14729.573     17776.09 
   24600    311.58698    -14647.44     76.16009     -14723.6     1414.013 
   24800    287.54339     -14654.9    70.283203   -14725.184    14726.141 
   25000     281.5772   -14653.325    68.824907    -14722.15    21705.972 
   25200    316.07988   -14640.469    77.258275   -14717.728    8662.0136 
   25400    292.14498   -14663.837    71.407954   -14735.245    12521.368 
   25600    298.61429   -14650.016    72.989224   -14723.005    6553.2485 
   25800    341.76935   -14645.015    83.537459   -14728.552    11421.828 
   26000    282.05888   -14652.096    68.942643   -14721.039    1622.2005 
   26200    269.15779   -14656.838    65.789276   -14722.627    17124.768 
   26400    280.82505     -14668.1    68.641063   -14736.741   -2325.7916 
   26600    315.65301   -14644.058    77.153937   -14721.212    9309.8599 
   26800    293.30385   -14651.956     71.69121   -14723.648    9338.1178 
   27000    264.52726   -14665.084    64.657452   -14729.742    6651.9044 
   27200    314.01298   -14643.212     76.75307   -14719.965    6888.8293 
   27400    327.64923    -14650.19     80.08613   -14730.276    1636.3026 
   27600    308.39064   -14658.248    75.378822   -14733.627   -12328.614 
   27800    343.24275   -14638.935    83.897597   -14722.833    2455.0143 
   28000    325.82107   -14651.444    79.639279   -14731.083   -2592.5014 
   28200    297.16455   -14659.683    72.634869   -14732.318    926.34158 
   28400    348.07713   -14642.574    85.079249   -14727.654    -68.44589 
   28600    308.79554   -14653.708     75.47779   -14729.186   -3787.2019 
   28800    294.91686   -14653.413    72.085474   -14725.498   -3566.0171 
   29000    258.47309   -14655.841    63.177653   -14719.019   -4555.5615 
   29200    238.45641    -14675.24    58.285046   -14733.525   -6509.6908 
   29400    313.70793   -14654.242    76.678507    -14730.92   -7144.7088 
   29600    341.18287   -14649.983    83.394108   -14733.377    11699.163 
   29800    295.33211   -14658.609    72.186971   -14730.796    7156.6126 
   30000    247.54786   -14661.486    60.507237   -14721.993     41297.73 
   30200    315.58405   -14645.613     77.13708    -14722.75    23751.803 
   30400    276.67301   -14661.582    67.626193   -14729.208   -10068.575 
   30600    271.11332   -14660.598    66.267259   -14726.865   -5639.1478 
   30800    316.35237    -14646.53    77.324879   -14723.855    16235.997 
   31000    260.85393     -14660.1    63.759594    -14723.86    9473.1316 
   31200    322.61657   -14635.689    78.856016   -14714.545    8172.3662 
   31400    311.79935    -14647.85       76.212   -14724.062    1443.8428 
   31600    296.41179   -14655.298    72.450874   -14727.748    6189.2959 
   31800    303.08421   -14646.819    74.081791   -14720.901   -10100.261 
   32000     283.6202   -14652.937    69.324271   -14722.262   -1273.8857 
   32200    282.06884   -14663.193    68.945079   -14732.138   -11.770043 
   32400     331.4728    -14640.01    81.020712   -14721.031   -2493.2274 
   32600    292.10809   -14654.142    71.398937   -14725.541   -5494.3214 
   32800    310.98927   -14664.476    76.013994    -14740.49     8904.183 
   33000     345.8755   -14649.521    84.541112   -14734.062   -5793.2822 
   33200    323.97374   -14642.373    79.187744   -14721.561   -23347.273 
   33400    290.58898   -14659.696    71.027624   -14730.724    919.57671 
   33600    338.42475   -14643.885    82.719953   -14726.605    7192.2003 
   33800    289.20778   -14653.345    70.690024   -14724.035    -484.4836 
   34000    280.86439   -14659.779    68.650678    -14728.43    2469.7007 
   34200    319.58456   -14641.473    78.114912   -14719.588    15847.555 
   34400    306.26607   -14657.387    74.859519   -14732.247   -2920.9226 
   34600    303.88799   -14655.294    74.278256   -14729.572    609.56315 
   34800    368.22179   -14640.355    90.003135   -14730.358    16866.115 
   35000    304.85426    -14658.85    74.514438   -14733.365   -5801.0186 
   35200    295.78795    -14652.12     72.29839   -14724.418   -66.950583 
   35400    369.37841   -14636.263    90.285845   -14726.549   -2362.1956 
   35600    279.25095   -14664.439    68.256311   -14732.695    -355.5503 
   35800    298.08971   -14653.942    72.861002   -14726.803   -5590.2788 
   36000    313.43528   -14647.195    76.611864   -14723.807   -2955.8038 
   36200    294.61648   -14661.022    72.012052   -14733.034    14721.051 
   36400    271.90922   -14654.938    66.461798     -14721.4    3271.9026 
   36600    323.32989   -14632.941    79.030368   -14711.971    6106.7984 
   36800    338.52743   -14648.083    82.745049   -14730.828    4517.1957 
   37000    300.00671   -14659.795    73.329568   -14733.124    1386.1864 
   37200    313.69868   -14641.734    76.676247    -14718.41   -4035.1343 
   37400    300.23598   -14649.011    73.385606   -14722.397   -8475.0379 
   37600    309.26549   -14657.696    75.592657   -14733.289    1274.6227 
   37800    340.10111   -14647.381    83.129697    -14730.51    4094.5656 
   38000    292.70755   -14655.994    71.545459   -14727.539    7154.0231 
   38200    311.72793   -14657.213    76.194544   -14733.407    3650.0399 
   38400    354.74738   -14639.202    86.709634   -14725.912    15673.642 
   38600    273.87384   -14658.635    66.942004   -14725.577    9102.7383 
   38800    301.24801   -14652.708    73.632975   -14726.341   -6950.5608 
   39000     329.8422    -14640.85    80.622149   -14721.472      -511.21 
   39200    269.08769   -14660.353    65.772141   -14726.125   -18610.367 
   39400    282.68429   -14652.952     69.09551   -14722.048   -5940.0005 
   39600    308.46654   -14644.033    75.397374    -14719.43   -5425.0932 
   39800    323.29496   -14658.924    79.021832   -14737.946   -8540.8679 
   40000    304.67967   -14655.587    74.471763   -14730.059    12643.295 
   40200    309.47645   -14655.334    75.644222   -14730.978    7459.1192 
   40400    279.72774   -14671.597    68.372851    -14739.97    825.26692 
   40600    300.31099   -14652.001     73.40394   -14725.405   -3239.5321 
   40800    302.65416   -14651.026    73.976674   -14725.002   -7600.9142 
   41000    278.24711   -14669.004    68.010947   -14737.015    867.02106 
   41200    297.13128   -14661.713    72.626736    -14734.34    7673.2532 
   41400    359.14172   -14643.447    87.783726   -14731.231    776.56331 
   41600    267.83409   -14661.943    65.465728   -14727.409   -15233.045 
   41800    279.72151    -14647.98    68.371329   -14716.351   -13812.605 
   42000    347.86676   -14636.673    85.027828   -14721.701   -18672.574 
   42200    301.54927   -14656.076    73.706609   -14729.783   -15410.043 
   42400    297.56625   -14660.236    72.733054   -14732.969   -16199.932 
   42600    333.37969   -14640.155    81.486805   -14721.642    5201.3295 
   42800    288.83717   -14654.588    70.599437   -14725.187    11445.618 
   43000    239.23874   -14671.159    58.476271   -14729.636   -22103.171 
   43200    313.78497   -14649.658    76.697339   -14726.355   -1473.5731 
   43400    296.12312    -14649.37    72.380314   -14721.751    9218.7378 
   43600    295.91665   -14665.767    72.329849   -14738.097    5644.6074 
   43800    304.53595   -14643.576    74.436634   -14718.013    1833.7801 
   44000    278.10286     -14652.6    67.975688   -14720.575     3069.534 
   44200    320.81081   -14661.309    78.414638   -14739.724    7744.0086 
   44400     336.5848   -14635.976    82.270218   -14718.247   -3253.8056 
   44600    302.83669   -14656.785    74.021289   -14730.806   -5652.3291 
   44800    319.08038    -14651.83    77.991676   -14729.822   -3762.4047 
   45000    302.82764   -14666.585    74.019076   -14740.604   -197.05686 
   45200     280.4056   -14664.305    68.538538   -14732.843   -20343.431 
   45400    325.63241   -14650.541    79.593165   -14730.134    6593.9995 
   45600    273.58361   -14662.104    66.871063   -14728.975    4943.2546 
   45800    289.34143   -14664.052    70.722692   -14734.775    13684.601 
   46000    328.91394   -14647.704    80.395259     -14728.1    3571.7711 
   46200    288.37869   -14663.009    70.487373   -14733.496   -3544.2808 
   46400    262.42966   -14664.621    64.144743   -14728.766    7705.9013 
   46600    292.32716   -14648.349    71.452482   -14719.802   -2604.1549 
   46800    312.19794   -14656.878    76.309426   -14733.188    4716.1937 
   47000    274.07853   -14660.557    66.992035   -14727.549    2999.2641 
   47200    291.13213   -14655.205    71.160386   -14726.365   -9889.0662 
   47400    328.00026   -14642.376     80.17193   -14722.548   -5687.5288 
   47600    266.57899   -14663.288     65.15895   -14728.447   -856.64539 
   47800    308.55776   -14654.418    75.419669   -14729.837   -3070.9855 
   48000    315.99175   -14642.945    77.236734   -14720.182   -11505.818 
   48200    303.44422   -14659.756    74.169785   -14733.926    9213.2285 
   48400    311.32907     -14639.8    76.097051   -14715.897    11206.113 
   48600    290.61605   -14647.812    71.034241   -14718.847    2409.8791 
   48800    273.94522   -14660.753     66.95945   -14727.713    17123.931 
   49000    351.93817   -14640.059    86.022988   -14726.082    6250.1538 
   49200    274.89731   -14657.566    67.192165   -14724.758    15486.874 
   49400    273.12614   -14657.783    66.759245   -14724.543    17462.228 
   49600    326.28816   -14636.732    79.753447   -14716.485   -2681.9372 
   49800    316.72057   -14656.046    77.414877    -14733.46    7112.5637 
   50000    299.34937   -14658.715    73.168897   -14731.883    13480.136 
   50200    308.99534   -14641.015    75.526625   -14716.542   -16499.299 
   50400    315.78922   -14647.354     77.18723   -14724.541    6817.2786 
   50600    282.95948   -14660.782    69.162775   -14729.944   -5580.0395 
   50800    314.75352    -14651.23    76.934078   -14728.164   -674.37229 
   51000    344.43872   -14627.473    84.189924   -14711.663    3615.1051 
   51200    302.26298   -14652.813    73.881059   -14726.694   -15808.147 
   51400    244.34469   -14662.905    59.724298   -14722.629    5769.4205 
   51600    291.67381   -14638.953    71.292785   -14710.246   -9063.0059 
   51800    276.84726   -14650.008    67.668785   -14717.677    6428.7932 
   52000    306.34042   -14655.533    74.877694   -14730.411    17529.893 
   52200    323.61395   -14642.218    79.099801   -14721.318   -5490.7339 
   52400    312.07938     -14644.2    76.280446    -14720.48    6346.1309 
   52600    273.40975   -14654.725    66.828568   -14721.553   -7982.7768 
   52800    398.58726   -14637.232    97.425258   -14734.657   -9281.9412 
   53000    338.17448   -14651.005     82.65878   -14733.664    541.80075 
   53200    276.48515   -14653.472    67.580275   -14721.052    3160.9641 
   53400    376.30331   -14633.075    91.978472   -14725.054    238.15294 
   53600       304.39   -14653.527    74.400959   -14727.928    -15303.57 
   53800    292.11154   -14651.153    71.399779   -14722.553   -16577.778 
   54000    325.72589   -14630.935    79.616013   -14710.551   -15543.767 
   54200     307.6504   -14656.153    75.197887   -14731.351   -157.48255 
   54400    305.65669   -14651.169    74.710572    -14725.88    8779.2393 
   54600    332.84353   -14636.205    81.355753   -14717.561     313.4055 
   54800    264.84735    -14657.75    64.735692   -14722.485    -4607.451 
   55000    268.73008   -14660.044    65.684733   -14725.729   -10348.783 
   55200     311.6811   -14640.613    76.183096   -14716.796   -6311.4418 
   55400    316.14133   -14649.879    77.273296   -14727.153   -2660.5303 
   55600    290.20194   -14658.316    70.933022   -14729.249   -7025.6541 
   55800    311.05028   -14665.197    76.028907   -14741.226    3877.8507 
   56000      365.089   -14642.962    89.237398   -14732.199    8657.7712 
   56200    301.98081   -14659.455     73.81209   -14733.268    7964.6485 
   56400    275.46211   -14672.503    67.330218   -14739.833    5692.8529 
   56600    307.09711   -14649.697    75.062649    -14724.76   -3128.1511 
   56800    283.78682   -14653.754    69.364998   -14723.119    3643.3538 
   57000    280.37679   -14665.862    68.531495   -14734.394    71.819077 
   57200    301.92081   -14661.926    73.797424   -14735.723    -4261.906 
   57400    300.24613   -14644.082    73.388089    -14717.47   -3034.5536 
   57600    312.40187   -14653.433    76.359271   -14729.792    4694.5033 
   57800    273.78675   -14664.287    66.920716   -14731.208    29000.606 
   58000    325.79914   -14647.278     79.63392   -14726.912   -3631.1439 
   58200    313.13865     -14653.6    76.539361   -14730.139    7655.6045 
   58400    326.01135   -14643.423     79.68579   -14723.109    3286.4812 
   58600    325.10192   -14659.159      79.4635   -14738.622   -5966.8521 
   58800    274.92559   -14668.134     67.19908   -14735.333    8538.6663 
   59000    286.69925   -14652.049    70.076873   -14722.126    159.53545 
   59200    324.70545   -14648.263    79.366593   -14727.629   -6534.6321 
   59400    287.18155   -14666.065     70.19476   -14736.259   -1754.1852 
   59600    321.23954   -14655.721    78.519432   -14734.241   -7800.7585 
   59800    302.92814   -14652.381    74.043641   -14726.425   -2583.1621 
   60000    248.58725   -14675.116    60.761292   -14735.877    442.59231 
   60200    264.05699   -14662.656    64.542506   -14727.198    13057.938 
   60400    347.90444   -14644.937    85.037038   -14729.974    1673.0221 
   60600    277.33393   -14658.317    67.787741   -14726.105     17731.04 
   60800    259.60673   -14674.471    63.454744   -14737.926    14141.782 
   61000    297.39484   -14656.024    72.691157   -14728.715    12933.572 
   61200    329.65119   -14645.029    80.575463   -14725.605    20484.609 
   61400    288.16147    -14662.98    70.434278   -14733.414    1992.8221 
   61600    253.94721   -14664.428    62.071408   -14726.499    10641.121 
   61800    312.25384   -14644.317    76.323089    -14720.64    18306.167 
   62000    327.72499   -14655.152    80.104647   -14735.257   -15254.938 
   62200    285.33898   -14666.132    69.744388   -14735.876   -6082.7378 
   62400    347.96598   -14641.862    85.052081   -14726.914   -13872.147 
   62600    291.25019   -14661.376    71.189243   -14732.565    1841.7501 
   62800    249.16786   -14654.644    60.903209   -14715.547   -8818.0667 
   63000    358.11252   -14644.975    87.532163   -14732.507   -14363.569 
   63200    281.42472   -14658.304    68.787639   -14727.092    1171.9238 
   63400    340.36557   -14639.645     83.19434    -14722.84    7765.7074 
   63600    291.21979   -14648.403    71.181811   -14719.585    5559.7586 
   63800    300.27417   -14653.275    73.394942    -14726.67    3514.2371 
   64000    336.62724    -14636.81    82.280593   -14719.091    6576.1212 
   64200    332.90835   -14636.837    81.371596   -14718.209    3181.9442 
   64400    302.18044   -14658.015    73.860884   -14731.876   -308.58546 
   64600    313.36245    -14641.84    76.594062   -14718.435      8142.04 
   64800    287.29044    -14648.76    70.221375   -14718.981   -3411.7029 
   65000    333.50244   -14657.212    81.516809   -14738.729   -17310.352 
   65200    307.24231   -14653.908     75.09814   -14729.006   -14924.133 
   65400    328.07692   -14645.832     80.19067   -14726.022   -11697.272 
   65600    355.41163   -14632.181    86.871993   -14719.053   -10800.846 
   65800    289.92987   -14657.967    70.866522   -14728.834    -7460.566 
   66000    329.87054   -14654.217    80.629077   -14734.846   -3926.7235 
   66200    371.22167   -14637.101    90.736386   -14727.838   -3153.6866 
   66400    297.53038   -14656.287    72.724287   -14729.012    6232.5998 
   66600    270.87116   -14654.779    66.208068   -14720.987   -3271.8751 
   66800    300.91612   -14646.949    73.551851   -14720.501    -451.2613 
   67000     301.6818   -14653.003    73.739002   -14726.742     2270.505 
   67200    309.53835   -14651.255    75.659353   -14726.914    9396.1763 
   67400    292.54137    -14645.28     71.50484   -14716.785    11535.297 
   67600    252.26131   -14666.738    61.659329   -14728.398    673.21219 
   67800    263.52057   -14655.288     64.41139     -14719.7    6048.8321 
   68000    318.70215   -14649.162    77.899227   -14727.061    15340.851 
   68200    286.37177   -14658.526    69.996828   -14728.523     2616.192 
   68400    285.28629   -14666.748    69.731507    -14736.48    1254.3105 
   68600    301.79893   -14648.869    73.767634   -14722.636   -5784.2321 
   68800    285.56257   -14657.082    69.799039   -14726.881   -1364.0242 
   69000    284.91884   -14672.648    69.641692    -14742.29   -1111.2016 
   69200    306.50013   -14659.892     74.91673   -14734.809   -5705.3983 
   69400    286.85915   -14651.212    70.115957   -14721.328   -3486.1677 
   69600    346.64447   -14642.118    84.729068   -14726.847    3384.9426 
   69800    279.48101   -14653.486    68.312543   -14721.799    -14440.04 
   70000    256.28068   -14665.489    62.641771   -14728.131    1313.3867 
   70200     266.8417   -14671.234    65.223163   -14736.457      10231.8 
   70400    326.93037   -14648.064    79.910421   -14727.974   -3677.8517 
   70600     318.7374   -14656.721    77.907844   -14734.629   -11468.892 
   70800    285.40431   -14655.706    69.760356   -14725.467    925.68751 
   71000    314.63105   -14643.345    76.904142   -14720.249   -8329.2479 
   71200     284.9827   -14660.151    69.657302   -14729.809    1192.9827 
   71400    262.09249    -14670.49    64.062331   -14734.553   -8627.7263 
   71600    319.62777   -14647.265    78.125472    -14725.39   -10160.384 
   71800     305.3613   -14656.727     74.63837   -14731.365   -1975.9124 
   72000     276.7169   -14670.613    67.636923    -14738.25    1032.5758 
   72200    306.73985   -14645.827    74.975324   -14720.803   -7007.5304 
   72400    295.42306   -14659.345    72.209202   -14731.554   -16008.974 
   72600    300.03125   -14658.459    73.335565   -14731.795    -4168.906 
   72800    335.23373   -14640.016    81.939981   -14721.956   -5055.9695 
   73000    297.57054   -14663.811    72.734102   -14736.545    4043.0883 
   73200    293.29477   -14653.554    71.688992   -14725.243    16683.441 
   73400    305.71287   -14653.503    74.724304   -14728.228    3727.6095 
   73600    320.66847   -14652.366    78.379848   -14730.746   -3717.5162 
   73800    329.34356   -14624.522    80.500268   -14705.023    6468.8232 
   74000    304.55124   -14649.845    74.440372   -14724.285   -653.45271 
   74200    307.52732   -14659.907    75.167802   -14735.075    571.46506 
   74400    281.89199   -14667.842    68.901851   -14736.744   -3525.8981 
   74600    319.94809   -14646.414    78.203767   -14724.618    179.31336 
   74800    309.52272   -14658.929    75.655531   -14734.584   -22774.229 
   75000    276.74859   -14666.845    67.644669    -14734.49   -8500.5339 
   75200     352.1616   -14647.053    86.077599   -14733.131   -2066.6954 
   75400    313.82934    -14658.43    76.708183   -14735.138   -7403.4109 
   75600    259.41207   -14666.671    63.407165   -14730.078   -11098.041 
   75800    316.91926   -14645.079     77.46344   -14722.542    6798.1947 
   76000    272.19891   -14660.014    66.532606   -14726.546     5288.966 
   76200    274.16623    -14667.08    67.013471   -14734.094    10217.763 
   76400    311.25236   -14646.235    76.078302   -14722.313    -4255.078 
   76600    287.79981   -14653.527    70.345878   -14723.873   -26065.698 
   76800    312.09882     -14664.4    76.285198   -14740.685   -2932.8865 
   77000     350.8864   -14653.468    85.765909   -14739.234    141.09189 
   77200    361.34275   -14639.276    88.321717   -14727.597    5563.6482 
   77400    341.60182   -14648.239    83.496511   -14731.736   -1183.4943 
   77600    319.10454   -14662.485    77.997582   -14740.482   -2329.9379 
   77800    358.99481   -14650.007    87.747818   -14737.755   -1788.5367 
   78000    336.81699   -14645.396    82.326972   -14727.723    17933.118 
   78200    279.36627   -14662.549    68.284499   -14730.834    25959.496 
   78400    297.73359   -14652.913    72.773957   -14725.687    15295.916 
   78600    326.26525   -14632.972    79.747849   -14712.719   -13644.549 
   78800    303.66469   -14647.092    74.223674   -14721.316   -7911.6661 
   79000    328.60046   -14655.066    80.318636   -14735.385   -8675.5323 
   79200    305.57749   -14652.988    74.691214   -14727.679   -10900.269 
   79400    305.99596   -14644.167    74.793497   -14718.961     3464.023 
   79600    297.51581   -14667.039    72.720725    -14739.76    13462.215 
   79800    290.92144   -14658.124    71.108887   -14729.233    16028.394 
   80000    321.39933   -14643.941     78.55849   -14722.499    12322.117 
   80200    310.11491   -14649.865    75.800278   -14725.665     16159.66 
   80400    344.21586   -14650.291    84.135453   -14734.426    15042.192 
   80600    279.69917   -14656.029    68.365867   -14724.395   -2104.0964 
   80800    380.14331   -14635.969    92.917069   -14728.886   -2824.2295 
   81000    347.92307   -14651.131    85.041591   -14736.173    4043.8981 
   81200    287.15721   -14661.788    70.188811   -14731.977   -9163.1391 
   81400    353.88777   -14649.811    86.499523    -14736.31   -6356.3538 
   81600    263.24173   -14662.472    64.343236   -14726.816    2631.2488 
   81800    285.64779   -14661.902    69.819868   -14731.722    2397.9822 
   82000    345.75777   -14641.267    84.512334   -14725.779    -1277.934 
   82200    295.93935   -14655.175    72.335398   -14727.511    6518.5446 
   82400    320.08685   -14654.505    78.237684   -14732.743   -5835.7829 
   82600    258.09385    -14660.91    63.084957   -14723.995   -7418.3033 
   82800    262.36607   -14672.769    64.129201   -14736.898    5188.1086 
   83000    302.45549   -14649.329    73.928115   -14723.258    2501.2174 
   83200    304.95333    -14650.65    74.538651   -14725.189    3518.4459 
   83400    262.44574    -14671.25    64.148673   -14735.399    3827.2549 
   83600     265.3429   -14669.012    64.856816   -14733.869    4540.1316 
   83800     290.8164   -14651.603    71.083213   -14722.686    465.43389 
   84000    311.03325   -14652.637    76.024744   -14728.662    3322.9872 
   84200     312.0048   -14664.626    76.262218   -14740.888    18758.928 
   84400    324.38544   -14651.288    79.288372   -14730.577    9842.7488 
   84600    336.95662   -14645.376    82.361102   -14727.737    10221.087 
   84800    328.40037   -14658.071    80.269729   -14738.341    3350.7785 
   85000    338.15569   -14654.553    82.654187   -14737.207    526.27207 
   85200    336.75033   -14654.122    82.310679   -14736.433    5060.0206 
   85400    259.72446   -14667.996    63.483522    -14731.48    9028.2284 
   85600    302.64839   -14644.761    73.975264   -14718.737    2887.8397 
   85800    312.67683   -14648.944    76.426479    -14725.37    866.63914 
   86000    273.64675   -14669.055    66.886497   -14735.942   -5950.8401 
   86200    328.70324   -14646.009    80.343757   -14726.353    -2557.801 
   86400    302.90413   -14653.765    74.037774   -14727.803   -4515.9576 
   86600    283.75768   -14663.636    69.357874   -14732.994   -3296.9473 
   86800     341.0117   -14646.655     83.35227   -14730.007   -10581.244 
   87000    263.94934   -14652.942    64.516194   -14717.459    6569.2578 
   87200    273.41369    -14659.05     66.82953   -14725.879    3546.3124 
   87400    305.74054   -14641.202    74.731066   -14715.933   -14481.506 
   87600    262.28511   -14655.076    64.109412   -14719.186   -3253.2366 
   87800    318.85142   -14653.396    77.935713   -14731.332   -8021.4986 
   88000     322.1135   -14651.047    78.733052    -14729.78   -22128.728 
   88200    296.41564   -14649.831    72.451814   -14722.282   -10627.091 
   88400    284.65036   -14654.908    69.576069   -14724.484     7994.874 
   88600    275.31767   -14664.171    67.294914   -14731.465    8204.7785 
   88800    327.30331   -14640.653    80.001579   -14720.654    6075.3758 
   89000    285.29429   -14655.505    69.733464   -14725.239    14627.002 
   89200    262.97353   -14657.184    64.277681   -14721.462   -8019.0671 
   89400    302.74121   -14653.089    73.997952   -14727.087   -3473.9644 
   89600    313.46012   -14651.335    76.617937   -14727.953   -6462.8855 
   89800    309.86473   -14634.456    75.739128   -14710.195   -16243.412 
   90000    287.45927   -14653.194    70.262641   -14723.457   -11912.787 
   90200    273.85637   -14657.859    66.937734   -14724.797   -20991.162 
   90400    261.84989   -14666.885    64.003033   -14730.888   -8172.1369 
   90600    283.47358   -14648.795    69.288433   -14718.083   -8742.1474 
   90800    310.16137    -14640.85    75.811635   -14716.661   -7357.5478 
   91000    306.34111   -14663.931    74.877863   -14738.809    4793.1218 
   91200    319.27713   -14656.404    78.039766   -14734.444    49.880645 
   91400    341.61361   -14642.778    83.499394   -14726.277    14307.624 
   91600    306.86644   -14657.849    75.006266   -14732.855    9752.9002 
   91800    279.09068    -14662.51    68.217138   -14730.727    12834.166 
   92000    369.78843   -14634.967    90.386063   -14725.353    464.79008 
   92200    285.31952   -14650.476     69.73963   -14720.216    10069.609 
   92400    295.81766   -14661.373    72.305652   -14733.678   -1535.4762 
   92600    371.75877   -14638.101    90.867667   -14728.969   -3947.2549 
   92800    316.40109   -14653.499    77.336787   -14730.836   -4195.2912 
   93000     283.4021   -14662.902    69.270962   -14732.173   -5961.5399 
   93200    326.98823   -14647.945    79.924565    -14727.87        -4010 
   93400    319.17285   -14640.612    78.014279   -14718.626    20400.814 
   93600    320.61827   -14655.307    78.367578   -14733.675    4801.9386 
   93800    331.67796   -14654.512    81.070857   -14735.582    9533.7333 
   94000    239.72239   -14674.589    58.594487   -14733.184   -3037.5134 
   94200     271.6766   -14658.806    66.404939   -14725.211    3741.9446 
   94400    282.09833   -14652.553    68.952287   -14721.505    9902.9599 
   94600     289.5548    -14667.23    70.774845   -14738.005    10236.674 
   94800    295.67367   -14654.654    72.270457   -14726.925   -5346.3212 
   95000     313.5081   -14647.491    76.629665   -14724.121    3339.6993 
   95200     306.5743   -14667.186    74.934861   -14742.121   -8923.7429 
   95400     308.6793   -14651.616    75.449377   -14727.066    11925.439 
   95600    303.10878   -14650.826    74.087795   -14724.914   -9460.8668 
   95800    274.26446   -14665.464    67.037482   -14732.502   -2340.7735 
   96000    273.67271   -14671.616    66.892841   -14738.509    -19162.51 
   96200     328.0736   -14646.065    80.189857   -14726.255    4348.3799 
   96400    274.47872   -14660.327    67.089851   -14727.417    7120.0246 
   96600    257.97944   -14659.658    63.056991   -14722.715   -1900.4552 
   96800    292.83291    -14655.02    71.576101   -14726.596    2488.1447 
   97000    307.84433   -14651.163    75.245289   -14726.408   -5349.7995 
   97200    352.53649   -14639.588    86.169233   -14725.757    6279.9362 
   97400    321.90404   -14654.242    78.681853   -14732.924    5383.8098 
   97600    267.27893   -14661.937    65.330033   -14727.267    3442.6361 
   97800    338.50245   -14645.843    82.738945   -14728.582    6900.5021 
   98000    337.68932   -14648.999    82.540194    -14731.54    9393.9268 
   98200    285.20803   -14665.063     69.71238   -14734.776    5617.1361 
   98400    301.86241   -14645.786    73.783149   -14719.569    6548.1673 
   98600    302.92469   -14648.401      74.0428   -14722.444    8098.6997 
   98800    302.68117   -14653.265    73.983277   -14727.248   -421.65541 
   99000    317.10674   -14651.804    77.509266   -14729.313   -193.30626 
   99200    319.86067   -14637.823      78.1824   -14716.005    -3898.705 
   99400     267.8015   -14660.122    65.457763   -14725.579    2521.8858 
   99600    302.73621   -14654.065    73.996729   -14728.062    17015.585 
   99800    319.67739   -14649.958    78.137601   -14728.096    16535.695 
  100000    320.99122   -14647.785    78.458737   -14726.243    5508.5336 
  100200    330.65834   -14648.401    80.821635   -14729.223    7911.0355 
  100400    286.80652   -14661.769    70.103091   -14731.872    8839.2817 
  100600    315.80923   -14639.178    77.192122    -14716.37    506.58828 
  100800    322.40849   -14653.592    78.805155   -14732.397    3567.5876 
  101000    303.83593   -14656.994    74.265529    -14731.26   -9730.4508 
  101200     341.8219   -14644.367    83.550304   -14727.917   -5642.7042 
  101400    258.32817   -14649.271    63.142231   -14712.413   -15667.298 
  101600    276.14179   -14658.568    67.496349   -14726.065   -7976.4734 
  101800     337.0345    -14633.97    82.380139    -14716.35   -16994.759 
  102000    313.32652   -14653.544     76.58528   -14730.129    3925.4343 
  102200    266.84146   -14657.845    65.223104   -14723.068    12306.485 
  102400    348.23527   -14634.879    85.117901   -14719.997    13754.024 
  102600    330.76395   -14656.322    80.847449    -14737.17    2010.9422 
  102800    292.38439   -14657.729    71.466471   -14729.195    -1461.086 
  103000    332.52709   -14636.382    81.278408   -14717.661    -5840.847 
  103200    287.97962   -14660.645    70.389829   -14731.035    8117.2954 
  103400    322.86724   -14659.315    78.917285   -14738.233    3869.2157 
  103600    367.78848   -14641.986    89.897223   -14731.884   -9070.4608 
  103800    302.94673   -14660.183    74.048186   -14734.231    2923.5356 
  104000    322.84515   -14664.724    78.911886   -14743.636   -8973.2405 
  104200    298.92854    -14647.66    73.066035   -14720.726    12826.733 
  104400    321.59605   -14649.471    78.606573   -14728.078   -11709.705 
  104600    285.50251   -14655.768    69.784357   -14725.553   -1539.1252 
  104800    336.90029   -14654.654    82.347333   -14737.001    444.76794 
  105000    266.60205   -14674.361    65.164587   -14739.526     11200.04 
  105200    283.17835   -14654.511     69.21627   -14723.727    4444.8357 
  105400    289.62036   -14652.381    70.790869   -14723.172   -6411.0438 
  105600    267.14393   -14671.527    65.297035   -14736.824   -4585.5272 
  105800    301.25664   -14651.089    73.635083   -14724.724    10189.372 
  106000     309.6665   -14648.128    75.690676   -14723.819    5367.9106 
  106200    235.88299   -14666.573    57.656037   -14724.229    5730.5601 
  106400    307.89846   -14651.415     75.25852   -14726.674    12430.881 
  106600    284.23314   -14648.237     69.47409   -14717.711     8207.419 
  106800    278.35241   -14667.575    68.036683   -14735.612    21134.441 
  107000    327.74377   -14645.787    80.109238   -14725.896    2816.5449 
  107200    305.67167   -14651.843    74.714234   -14726.558    2689.8086 
  107400    269.02894   -14662.596    65.757782   -14728.353     8429.831 
  107600    336.69936    -14642.55     82.29822   -14724.848    16381.973 
  107800    278.22011   -14663.346    68.004347    -14731.35    19554.897 
  108000     270.0269    -14655.79    66.001709   -14721.792    6907.2377 
  108200     287.6407   -14647.437    70.306987   -14717.744    6144.7602 
  108400    312.81112   -14661.192    76.459304   -14737.652    3155.4362 
  108600    363.26928   -14629.706     88.79261   -14718.499   -6350.3835 
  108800    336.20273   -14638.897    82.176831   -14721.074    7904.0989 
  109000    251.54178   -14657.041    61.483457   -14718.524    5428.5798 
  109200     333.2714   -14643.747    81.460337   -14725.207   -6231.2864 
  109400     357.3009   -14639.403    87.333781   -14726.737   -76.919629 
  109600    298.49801   -14659.331    72.960801   -14732.292    2930.2058 
  109800    247.87536   -14664.927    60.587288   -14725.515    9812.1711 
  110000    320.97266   -14643.329    78.454201   -14721.783    5815.4797 
  110200    313.14972   -14644.728    76.542066    -14721.27   -1749.9293 
  110400    267.03927   -14670.797    65.271453   -14736.068     6840.058 
  110600    268.45751   -14654.616    65.618108   -14720.234    3726.0351 
  110800    274.35496    -14648.37    67.059601    -14715.43    14679.779 
  111000    285.36666   -14651.087    69.751152   -14720.839    -8120.266 
  111200     224.5795   -14661.812    54.893163   -14716.706    8956.2855 
  111400    325.60739   -14644.751    79.587051   -14724.338    6714.3644 
  111600    347.79871   -14633.222    85.011195   -14718.233     6435.713 
  111800    282.37369   -14656.376     69.01959   -14725.396   -6541.4238 
  112000    304.42205   -14656.832    74.408792   -14731.241   -2734.6258 
  112200    328.22129   -14646.209    80.225957   -14726.435   -7966.5888 
  112400    312.76373   -14652.338    76.447719   -14728.786    4906.0632 
  112600    284.82277   -14663.975    69.618211   -14733.593    9317.7738 
  112800    301.93136   -14645.138    73.800002   -14718.938   -2702.9253 
  113000    290.99917   -14656.243    71.127888   -14727.371    15045.455 
  113200      276.927     -14662.8    67.688276   -14730.488    6977.4432 
  113400    352.28341   -14644.042    86.107374    -14730.15    13792.487 
  113600    294.69099    -14662.21    72.030264    -14734.24   -7578.8287 
  113800    269.21017   -14656.153     65.80208   -14721.955    5452.9485 
  114000     334.1373   -14650.599    81.671985   -14732.271    1993.4408 
  114200    254.92439   -14673.675    62.310258   -14735.985    15548.975 
  114400    304.97737   -14657.635    74.544528   -14732.179   -21237.623 
  114600    280.71438   -14647.442    68.614011   -14716.056   -6980.1858 
  114800    221.85118   -14663.887     54.22629   -14718.113   -5958.2092 
  115000    287.74118   -14652.954    70.331547   -14723.285   -20422.602 
  115200    306.35416    -14643.11    74.881052   -14717.991   -10300.155 
  115400    317.03677   -14655.998    77.492163    -14733.49    2645.0049 
  115600    279.32423   -14652.667    68.274224   -14720.942    9528.3267 
  115800    337.07187   -14635.179    82.389272   -14717.568    6496.3316 
  116000    276.73611   -14660.394    67.641618   -14728.036    7106.5623 
  116200    290.52061   -14649.101    71.010915   -14720.112    3221.4746 
  116400    274.53382   -14647.758     67.10332   -14714.861    19244.832 
  116600    269.45499   -14672.657    65.861921   -14738.519    20472.896 
  116800    311.60587   -14651.696    76.164708   -14727.861   -2068.3294 
  117000    294.46712   -14657.294    71.975544   -14729.269    7943.4082 
  117200    299.35934   -14663.143    73.171334   -14736.314    1322.7157 
  117400     303.9394   -14658.925    74.290821   -14733.216     6055.887 
  117600    318.19304   -14645.655    77.774786    -14723.43    5095.1966 
  117800    300.02486   -14653.544    73.334004   -14726.878   -2672.8734 
  118000    273.62378   -14660.466    66.880883   -14727.347    2697.5075 
  118200    299.26496   -14649.985    73.148263   -14723.133    -5177.239 
  118400    274.68971   -14666.323    67.141423   -14733.465   -4924.8626 
  118600     283.5354   -14655.372    69.303545   -14724.676   -7264.2439 
  118800    328.18838   -14647.793    80.217911   -14728.011    1894.8573 
  119000    281.49407   -14660.233    68.804589   -14729.038    9832.6483 
  119200    282.41577   -14656.535    69.029876   -14725.565     7031.405 
  119400    330.25296   -14647.121     80.72255   -14727.843   -14855.836 
  119600    307.20371    -14665.11    75.088704   -14740.199   -4831.2577 
  119800    349.91229   -14644.718     85.52781   -14730.246   -14576.697 
  120000    299.92149     -14652.7    73.308737   -14726.008    186.81307 
  120200    286.54116   -14655.678    70.038232   -14725.716    3201.6378 
  120400      346.969   -14645.835    84.808393   -14730.644    1760.0764 
  120600    288.14218    -14657.83    70.429563    -14728.26    -6327.068 
  120800    289.17454   -14660.361    70.681899   -14731.043    399.56139 
  121000    294.53478   -14645.484    71.992084   -14717.476   -7373.0409 
  121200    334.20105   -14624.968    81.687568   -14706.655    7677.4888 
  121400    273.23527   -14651.165     66.78592   -14717.951   -6656.9147 
  121600    299.15068   -14663.182    73.120331   -14736.302   -12408.054 
  121800    337.78466   -14645.169    82.563497   -14727.733       -10072 
  122000    324.87235   -14651.139    79.407388   -14730.546   -587.45877 
  122200    300.75714   -14656.886    73.512991   -14730.399    8580.4636 
  122400    312.99856   -14646.847    76.505119   -14723.352    10448.199 
  122600    334.55793   -14634.746    81.774799   -14716.521    6741.4858 
  122800    302.39209   -14655.535    73.912616   -14729.448   -1094.0264 
  123000    288.66725   -14659.358    70.557903   -14729.916   -9040.4586 
  123200    293.49743   -14650.962    71.738528   -14722.701   -6049.1908 
  123400    307.36329   -14641.716    75.127711   -14716.844    2403.1818 
  123600    254.76143   -14666.013    62.270426   -14728.284   -11406.431 
  123800    270.10648   -14656.763     66.02116   -14722.785    4908.1958 
  124000     280.8005   -14646.474    68.635063   -14715.109      3092.68 
  124200    300.37503   -14655.863    73.419593   -14729.282   -9129.4199 
  124400    265.96815   -14666.961    65.009643    -14731.97    5299.6295 
  124600    317.40736   -14646.775    77.582745   -14724.358    17698.842 
  124800     313.3255    -14642.25    76.585032   -14718.835   -12501.295 
  125000    263.07026   -14665.116    64.301322   -14729.418   -13671.527 
  125200    336.02854   -14652.879    82.134254   -14735.013      3346.15 
  125400    315.96892    -14632.51    77.231153   -14709.741   -674.00119 
  125600    271.91434   -14652.254     66.46305   -14718.717    2493.6359 
  125800    292.21986   -14655.749    71.426254   -14727.175   -1342.5851 
  126000    308.21108   -14654.042    75.334933   -14729.377    7939.6281 
  126200    283.06803   -14644.198    69.189306   -14713.387    9624.7877 
  126400    324.70619   -14649.436    79.366772   -14728.803   -2005.9916 
  126600    297.33817   -14661.369    72.677306   -14734.046   -3837.5304 
  126800    297.96774    -14649.36     72.83119   -14722.192     4702.507 
  127000    359.74152   -14632.555    87.930333   -14720.485    9434.9831 
  127200     291.1273   -14652.407    71.159206   -14723.566    18314.163 
  127400    261.72093   -14666.616     63.97151   -14730.588     7325.519 
  127600    318.79851   -14652.167    77.922779    -14730.09   -12117.476 
  127800    307.33519   -14642.526    75.120842   -14717.647    9076.4147 
  128000     292.0641   -14664.573    71.388184   -14735.961   -5066.7331 
  128200    276.51669   -14658.376    67.587985   -14725.964   -16836.104 
  128400    304.62302   -14649.385    74.457915   -14723.843    -5443.591 
  128600     283.5701   -14649.224    69.312025   -14718.536    5882.4129 
  128800    278.38011   -14670.521    68.043454   -14738.564    9320.0127 
  129000    305.30157   -14650.378    74.623771   -14725.001   -9143.6881 
  129200    347.88152   -14646.735    85.031435   -14731.766   -3754.7692 
  129400    270.73115    -14667.58    66.173848   -14733.754    1216.4513 
  129600    263.20662   -14664.613    64.334652   -14728.948   -826.96171 
  129800    292.50206   -14649.622    71.495233   -14721.117    -1823.708 
  130000    303.00029   -14656.744    74.061277   -14730.805    -11829.88 
  130200    280.51643   -14665.425    68.565628    -14733.99   -14658.366 
  130400    324.42607   -14644.425    79.298305   -14723.723    2673.9277 
  130600    286.88713   -14652.666    70.122796   -14722.789    25512.893 
  130800    240.70507   -14669.341    58.834679   -14728.176   -6459.5653 
  131000    322.81379   -14642.561    78.904219   -14721.465   -10374.559 
  131200    292.69638    -14653.68    71.542729   -14725.222   -23246.796 
  131400    304.42174    -14653.67    74.408718   -14728.079    -11529.45 
  131600    332.36599   -14640.784    81.239029   -14722.023   -3560.7095 
  131800     286.8841   -14658.375    70.122055   -14728.497   -14992.782 
  132000     304.6834   -14649.572    74.472674   -14724.045   -8580.6947 
  132200    279.65264   -14651.108    68.354494   -14719.463   -5010.4708 
  132400    304.24087   -14656.185    74.364509    -14730.55    5280.7579 
  132600    287.84115   -14671.256    70.355982   -14741.612    8191.5869 
  132800    282.26765   -14653.732    68.993673   -14722.726   -11401.275 
  133000    315.19758   -14648.707    77.042617   -14725.749    14452.698 
  133200    289.91005   -14661.293    70.861676   -14732.154   -3290.1138 
  133400    266.47899   -14650.103    65.134508   -14715.237     8184.414 
  133600    282.70096   -14657.642    69.099584   -14726.741   -7853.9104 
  133800    286.52417   -14663.083    70.034077   -14733.117     1103.706 
  134000     326.6548   -14636.165    79.843064   -14716.008    6621.9749 
  134200    307.60502   -14657.496    75.186796   -14732.683    632.84559 
  134400    293.00456   -14656.418    71.618056   -14728.037   -6936.0235 
  134600    340.72544   -14631.422    83.282302   -14714.704   -8807.7371 
  134800    312.54033   -14645.704    76.393115   -14722.097    16162.312 
  135000    304.04483   -14653.811    74.316592   -14728.128    24755.978 
  135200    245.98322   -14668.124    60.124799   -14728.248    4590.7358 
  135400    303.21129   -14648.352    74.112852   -14722.465   -190.59873 
  135600    323.92941   -14646.046    79.176907   -14725.223    728.81378 
  135800    280.87561   -14670.982     68.65342   -14739.636    5195.2945 
  136000    277.79124   -14655.974     67.89952   -14723.874    5397.9903 
  136200    283.16644   -14645.469     69.21336   -14714.682   -2287.7984 
  136400    254.77544   -14657.798    62.273849   -14720.072   -2310.4647 
  136600    292.41284    -14659.78    71.473426   -14731.253    2709.8193 
  136800    308.13768   -14643.898    75.316992   -14719.215    12192.074 
  137000    380.43212    -14623.17    92.987662   -14716.158    14916.181 
  137200    323.39907   -14651.385    79.047278   -14730.432   -511.34237 
  137400    264.41929   -14664.934    64.631061   -14729.565     5413.139 
  137600     364.5719   -14642.219    89.111007    -14731.33    11381.839 
  137800    292.94551   -14661.878    71.603624   -14733.481    6515.9097 
  138000    275.98129   -14666.224    67.457119   -14733.681    7169.4674 
  138200     301.4699   -14648.327     73.68721   -14722.014    16637.256 
  138400     247.2296   -14661.364    60.429447   -14721.794    14664.577 
  138600    239.96849   -14676.486     58.65464    -14735.14    3182.5656 
  138800    258.95692    -14656.25    63.295914   -14719.546    14996.321 
  139000    276.77695   -14648.835      67.6516   -14716.487    4643.5791 
  139200    303.47362   -14644.643    74.176971    -14718.82   -9379.4592 
  139400    280.31511   -14663.664     68.51642    -14732.18   -11195.098 
  139600    299.42242    -14650.86    73.186751   -14724.046   -10312.387 
  139800    329.73832   -14646.391     80.59676   -14726.988   -1109.7073 
  140000    280.21159   -14662.219    68.491116    -14730.71   -22518.337 
  140200    289.20141   -14654.218    70.688466   -14724.907   -21284.881 
  140400    293.28937   -14653.437    71.687672   -14725.125   -5626.2739 
  140600    305.57407   -14648.719    74.690377    -14723.41    11316.303 
  140800    305.00725   -14659.334    74.551832   -14733.885   -2561.4018 
  141000    303.76697   -14666.599    74.248675   -14740.848    3213.0684 
  141200    281.62211   -14643.441    68.835886   -14712.277    6283.6589 
  141400    282.83632       -14658    69.132671   -14727.133    10230.556 
  141600    297.61677   -14649.045    72.745404   -14721.791   -10765.938 
  141800    330.03998   -14636.913    80.670491   -14717.583    -2674.981 
  142000    254.30624   -14656.396    62.159164   -14718.555    1566.0531 
  142200    358.47528   -14646.432    87.620831   -14734.053   -970.38553 
  142400    339.78326   -14643.223    83.052007   -14726.275    957.63245 
  142600    271.78587   -14664.894    66.431649   -14731.326   -1081.8198 
  142800    316.11697   -14651.238     77.26734   -14728.506   -6230.1098 
  143000     314.4022   -14650.749    76.848206   -14727.597   -16498.535 
  143200    283.06851   -14663.841    69.189423    -14733.03   -16542.634 
  143400      252.769   -14677.029    61.783422   -14738.812    3963.6219 
  143600    301.56963    -14652.19    73.711586   -14725.902    766.55348 
  143800    290.78571   -14654.296    71.075711   -14725.371   -2742.3265 
  144000    270.30571   -14673.308    66.069857   -14739.378   -6209.0947 
  144200    315.20324   -14649.132       77.044   -14726.176    1994.8831 
  144400    301.88964   -14653.392    73.789805   -14727.182    5020.4033 
  144600    312.81237   -14665.752     76.45961   -14742.212    2216.7369 
  144800    315.06528   -14642.568    77.010279   -14719.578    -9826.712 
  145000    308.84109   -14658.204    75.488924   -14733.692   -3455.1315 
  145200    286.76659   -14657.198    70.093333   -14727.291   -10077.614 
  145400    336.74652   -14645.842    82.309748   -14728.152    3955.6695 
  145600    337.88379   -14637.934    82.587726   -14720.521   -4326.1299 
  145800     287.1003   -14657.295      70.1749    -14727.47    12390.713 
  146000    324.20612   -14645.945    79.244542   -14725.189    9707.4152 
  146200    351.32775   -14635.364    85.873786   -14721.238    4375.8067 
  146400    293.46777   -14657.927    71.731278   -14729.658   -6245.2795 
  146600    279.73043     -14649.9    68.373509   -14718.274    484.99766 
  146800     363.0469   -14641.076    88.738256   -14729.815   -79.797753 
  147000    290.38362   -14655.901     70.97743   -14726.879    7321.0758 
  147200    327.59887   -14651.784    80.073821   -14731.857    1917.5432 
  147400    345.73306   -14643.941    84.506296   -14728.448   -8588.2931 
  147600    290.50874   -14663.469    71.008013   -14734.477    1679.5311 
  147800    305.55413   -14650.916    74.685503   -14725.602   -5981.3577 
  148000    322.79335   -14646.044    78.899224   -14724.944    14295.078 
  148200    326.27923   -14662.218    79.751266   -14741.969    18422.265 
  148400    334.02711   -14637.382    81.645051   -14719.027    7983.7091 
  148600    240.60741   -14651.898    58.810808   -14710.709    16454.216 
  148800    229.65064   -14664.286    56.132685   -14720.419   -6586.9084 
  149000     274.3648   -14644.482    67.062006   -14711.544   -2271.6903 
  149200    310.24929   -14649.767    75.833125     -14725.6   -6838.3082 
  149400    259.85464    -14665.03    63.515341   -14728.545    4838.1135 
  149600    316.53473   -14641.165    77.369453   -14718.535   -2086.1978 
  149800     314.0024   -14651.891    76.750483   -14728.642   -9632.2761 
  150000    322.30127   -14657.217    78.778948   -14735.996   -3240.6239 
  150200    295.68502   -14649.831    72.273231   -14722.105    8881.2746 
  150400     240.2179   -14667.837    58.715602   -14726.552    11288.491 
  150600    257.59749    -14660.67    62.963634   -14723.634   -1829.3046 
  150800    299.21541   -14648.455    73.136152   -14721.592   -6328.9478 
  151000    280.87581   -14659.934    68.653469   -14728.587   -15167.893 
  151200    249.95537    -14670.99    61.095698   -14732.085    4159.7223 
  151400    303.19261   -14644.588    74.108286   -14718.697    2273.5337 
  151600    287.29714   -14655.052    70.223013   -14725.275    4376.6499 
  151800    263.84124   -14672.302    64.489771   -14736.792   -3242.4515 
  152000     317.3107   -14648.533     77.55912   -14726.093    1760.0981 
  152200    305.41365   -14644.589    74.651167   -14719.241    2029.6912 
  152400    276.19069   -14662.709    67.508303   -14730.217   -4706.7226 
  152600    268.08616   -14652.578    65.527342   -14718.106    5478.9429 
  152800    291.05805   -14650.958    71.142279     -14722.1   -12614.607 
  153000    228.94304   -14667.954    55.959728   -14723.914   -5081.0382 
  153200    322.28443   -14650.033     78.77483   -14728.808   -9303.3281 
  153400    358.11743   -14645.395    87.533362   -14732.929   -3566.7129 
  153600    266.41994   -14659.973    65.120073   -14725.093   -11267.404 
  153800    303.03064   -14634.267    74.068695   -14708.335   -532.90133 
  154000    305.41186   -14654.994    74.650729   -14729.645    10868.176 
  154200     315.8771   -14655.085     77.20871   -14732.294    6457.5569 
  154400    378.87959   -14635.051    92.608183   -14727.659   -3588.8252 
  154600     294.3554   -14649.245    71.948238   -14721.193    1019.7971 
  154800    246.22622   -14661.187    60.184194   -14721.371   -4309.5168 
  155000     328.8572   -14633.632    80.381389   -14714.014   -8809.1101 
  155200      311.797   -14654.405    76.211425   -14730.616   -2923.1329 
  155400    264.82227   -14657.053     64.72956   -14721.783    4813.8129 
  155600    327.33946   -14649.669    80.010414   -14729.679   -5925.6754 
  155800    343.97105   -14640.079    84.075613   -14724.155   -9505.5181 
  156000      307.686   -14656.099     75.20659   -14731.306    -13284.27 
  156200    310.08968   -14656.938    75.794113   -14732.732     -15795.3 
  156400    355.22006    -14634.06    86.825168   -14720.885   -26062.308 
  156600    283.28533   -14653.064     69.24242   -14722.306   -31249.437 
  156800    293.69897   -14648.736    71.787788   -14720.523   -4198.4274 
  157000    411.29505   -14629.894    100.53138   -14730.425   -10991.322 
  157200    328.95973    -14652.11    80.406451   -14732.516   -9985.4439 
  157400    319.09922   -14649.185    77.996281   -14727.182   -22637.187 
  157600    333.16923   -14632.573    81.435364   -14714.008   -25125.293 
  157800    262.95881   -14659.244    64.274082   -14723.518   -5577.7156 
  158000    335.88081   -14642.441    82.098146   -14724.539    4660.5938 
  158200     277.9543   -14655.276    67.939375   -14723.216   -2965.5443 
  158400     250.4032   -14665.167    61.205159   -14726.372   -3668.9312 
  158600    252.18343   -14651.896    61.640294   -14713.537   -17314.773 
  158800    317.09242   -14643.376    77.505766   -14720.882   -11344.722 
  159000    312.69128   -14645.845     76.43001   -14722.275   -680.71928 
  159200    283.64431   -14663.388    69.330163   -14732.718   -2116.9515 
  159400    292.28695   -14640.572    71.442653   -14712.014    410.00238 
  159600    252.61621   -14651.146    61.746077   -14712.892   -18710.252 
  159800    282.03468   -14659.449    68.936727   -14728.385    3298.1763 
  160000    298.38028   -14662.625    72.932025   -14735.557    2356.2558 
  160200    291.61565   -14645.323    71.278571   -14716.601   -17132.556 
  160400    287.01849   -14647.474    70.154903   -14717.629   -5842.7392 
  160600    317.69562   -14664.426    77.653205   -14742.079    11273.739 
  160800    355.40391   -14644.948    86.870108   -14731.818    11472.606 
  161000     365.8463   -14641.083    89.422503   -14730.506   -2231.0663 
  161200    302.47441   -14652.886    73.932738   -14726.818     13552.71 
  161400    311.53266    -14653.79    76.146814   -14729.937    6147.9088 
  161600    318.51358   -14645.103    77.853136   -14722.956    24416.994 
  161800    334.73716   -14646.062    81.818606    -14727.88    7481.3703 
  162000    295.04541    -14660.22    72.116895   -14732.337    2240.6765 
  162200     327.0195   -14644.989    79.932206   -14724.921      16439.6 
  162400    345.79401   -14622.538    84.521193   -14707.059   -1969.7727 
  162600    295.67772    -14649.09    72.271447   -14721.361   -92.566619 
  162800    279.45274   -14660.326    68.305634   -14728.632   -758.89459 
  163000    242.97094   -14671.009    59.388518   -14730.398    9073.4456 
  163200    281.08204    -14645.03    68.703878   -14713.734    23117.425 
  163400    293.28827   -14654.778    71.687404   -14726.465   -7477.6507 
  163600    274.00856   -14670.616    66.974932   -14737.591    4611.7392 
  163800    327.81918   -14648.627     80.12767   -14728.755    19291.356 
  164000    296.03578   -14652.688    72.358967   -14725.047    5877.1648 
  164200    276.50917   -14658.528    67.586147   -14726.114    718.95843 
  164400    312.91108   -14659.313    76.483736   -14735.797    6778.2674 
  164600     302.2756   -14642.147    73.884145   -14716.031   -9453.0566 
  164800    321.58415   -14636.961    78.603663   -14715.565   -7777.6253 
  165000    270.44839   -14661.187    66.104733   -14727.292   -7161.9188 
  165200    338.14399   -14646.178    82.651325    -14728.83    12398.994 
  165400    319.15846   -14644.366    78.010762   -14722.377    14725.383 
  165600    257.98241   -14657.549    63.057717   -14720.607    932.76836 
  165800    308.03073   -14646.606    75.290849   -14721.897   -8315.7113 
  166000    279.34789   -14661.915    68.280005   -14730.195    -3768.877 
  166200    298.92931    -14656.94    73.066223   -14730.006    7472.1179 
  166400    295.15117   -14649.884    72.142745   -14722.027    10069.995 
  166600    267.24677   -14662.281    65.322173   -14727.603     13700.62 
  166800    283.61756   -14662.976    69.323627     -14732.3   -1807.8038 
  167000    336.68283   -14641.724    82.294181   -14724.018    1377.9286 
  167200    304.90202   -14660.733    74.526111   -14735.259    2237.8895 
  167400    264.95284    -14660.25    64.761476   -14725.011    1939.1065 
  167600    312.49303   -14650.651    76.381553   -14727.033   -5024.2369 
  167800    324.44574   -14637.459    79.303111   -14716.762    -4199.917 
  168000    316.78414    -14647.14    77.430415   -14724.571    9747.8602 
  168200     255.6708   -14658.443    62.492701   -14720.935    830.09671 
  168400    295.58514   -14648.141    72.248819   -14720.389    13142.494 
  168600    279.19392   -14651.469    68.242373   -14719.711    1043.9303 
  168800    275.59304   -14652.596    67.362221   -14719.958   -3452.5854 
  169000    299.75587   -14641.694    73.268256   -14714.962   -8942.8738 
  169200    284.30511   -14662.064    69.491683   -14731.555    2863.8035 
  169400    278.07751   -14654.789    67.969493   -14722.759   -2996.8007 
  169600    318.00431   -14651.441    77.728657    -14729.17   -3177.5503 
  169800     338.0423   -14648.059    82.626471   -14730.686     3642.334 
  170000    346.61326   -14636.018     84.72144   -14720.739    11719.695 
  170200    272.34863       -14661    66.569201   -14727.569     9422.431 
  170400    336.22917   -14647.341    82.183294   -14729.524   -322.45481 
  170600    315.38406   -14650.338    77.088198   -14727.426   -1326.2203 
  170800    302.07126   -14666.312    73.834198   -14740.146    10996.059 
  171000    333.41826   -14646.134    81.496233    -14727.63    5853.6304 
  171200    299.89971   -14652.658    73.303413   -14725.961   -5641.1909 
  171400    282.18456   -14675.891    68.973364   -14744.864   -19027.209 
  171600    298.31834   -14650.046    72.916884   -14722.963   -25503.401 
  171800    295.98218   -14649.706    72.345865   -14722.052   -17871.027 
  172000    264.15264   -14661.173    64.565886   -14725.739   -11761.455 
  172200    343.07936   -14642.023    83.857662   -14725.881   -7952.4242 
  172400    304.95103   -14653.924    74.538091   -14728.462    4136.3564 
  172600    252.93903   -14661.942    61.824984   -14723.767   -14129.405 
  172800    295.97569   -14650.856    72.344279     -14723.2   -27010.617 
  173000    330.45855    -14631.19    80.772801   -14711.963   -15824.355 
  173200    331.59601   -14641.986    81.050827   -14723.037   -2917.8655 
  173400    273.82393   -14659.769    66.929804   -14726.699    15095.225 
  173600    331.68252   -14641.475    81.071972   -14722.547   -8172.1165 
  173800    319.69344    -14642.87    78.141524   -14721.011    7990.4465 
  174000    281.99381   -14651.005     68.92674   -14719.932   -3548.2927 
  174200    313.61078   -14655.614    76.654761   -14732.269    -14926.05 
  174400    276.91451   -14663.509    67.685224   -14731.195    6672.6619 
  174600    329.80268   -14640.963     80.61249   -14721.575   -652.64384 
  174800    334.54788   -14646.774    81.772342   -14728.546   -5630.6853 
  175000    314.87625   -14655.229    76.964077   -14732.193   -15106.356 
  175200    301.05365   -14656.155    73.585468   -14729.741    8122.6845 
  175400    315.79416    -14640.26    77.188438   -14717.449    7858.7254 
  175600    281.77813   -14661.957     68.87402   -14730.831    4338.3158 
  175800    288.87743   -14658.029    70.609277   -14728.638    5269.2249 
  176000    284.27424   -14653.477    69.484137   -14722.961   -648.47476 
  176200    249.51259     -14671.6     60.98747   -14732.587   -14122.176 
  176400    311.57508   -14652.225    76.157183   -14728.382    5120.7672 
  176600    304.26806   -14655.002    74.371155   -14729.374   -2636.3869 
  176800    261.44593   -14673.335    63.904294    -14737.24   -4143.4004 
  177000     319.5552   -14657.647    78.107736   -14735.755    2181.1689 
  177200    305.85416   -14650.263    74.758838   -14725.021    2225.6294 
  177400    317.11925   -14649.585    77.512325   -14727.097   -1291.9266 
  177600    304.25513   -14662.284    74.367994   -14736.652     14255.42 
  177800    341.01288   -14650.252    83.352559   -14733.605    793.44277 
[...]
  950000    358.05136   -14631.005    87.517214   -14718.522   -1922.0073 
  950200    304.40821    -14652.72     74.40541   -14727.125    8237.3322 
  950400    303.23468   -14658.991    74.118569    -14733.11    7002.5733 
  950600    344.99026   -14643.754    84.324736   -14728.079    3170.2947 
  950800    289.77115   -14665.063    70.827727    -14735.89    3136.7718 
  951000    271.47176   -14658.607    66.354872   -14724.962   -9426.6655 
  951200     306.5019   -14650.526    74.917163   -14725.443   -11106.448 
  951400    259.96949   -14662.521    63.543414   -14726.064   -7781.3276 
  951600    289.21929   -14657.935    70.692836   -14728.628   -8285.5499 
  951800    314.17065   -14643.112    76.791608   -14719.904   -6300.7458 
  952000     278.1933   -14661.861    67.997794   -14729.858   -10839.572 
  952200    307.47635   -14654.857    75.155346   -14730.012      5421.63 
  952400    281.59071    -14653.34    68.828211   -14722.168   -895.55005 
  952600    279.94456   -14663.292    68.425848   -14731.718    12407.704 
  952800    311.85235   -14660.776    76.224955   -14737.001     4502.881 
  953000    315.64224   -14644.418    77.151305    -14721.57   -6639.1898 
  953200     304.9159   -14664.338    74.529503   -14738.867   -303.85505 
  953400    319.89716    -14663.55     78.19132   -14741.742    20284.283 
  953600    310.26968    -14643.88     75.83811   -14719.718    13002.178 
  953800    316.66358   -14647.957    77.400947   -14725.358   -1683.8418 
  954000    261.11643   -14665.666    63.823756    -14729.49    -13138.59 
  954200    291.89793   -14647.112    71.347568   -14718.459   -7583.9987 
  954400    313.00552   -14650.476    76.506819   -14726.983    7936.2393 
  954600    296.61422   -14667.503    72.500354   -14740.004    6017.6208 
  954800    298.28087   -14656.073    72.907727   -14728.981   -2494.4384 
  955000    290.89982   -14655.576    71.103602    -14726.68    17437.289 
  955200    271.16503   -14672.833      66.2799   -14739.113    14747.947 
  955400    277.51578   -14654.178     67.83219    -14722.01    7275.6243 
  955600    327.18738   -14649.308    79.973241   -14729.281    11693.536 
  955800    267.04991   -14668.826    65.274053     -14734.1    1542.4648 
  956000    331.94483   -14646.589    81.136089   -14727.725    14761.059 
  956200     303.3804   -14653.411    74.154187   -14727.565    21009.274 
  956400    307.56103   -14659.035    75.176043   -14734.211    12265.907 
  956600    314.12786   -14641.297    76.781151   -14718.078    1965.0301 
  956800    308.96889   -14658.954    75.520161   -14734.474    2678.4838 
  957000    311.58765   -14656.293    76.160255   -14732.454   -1698.4061 
  957200     331.4331   -14628.939    81.011007    -14709.95   -9811.7553 
  957400    288.96545   -14647.516    70.630792   -14718.147   -3043.0324 
  957600    278.30016    -14659.39    68.023912   -14727.414    5820.9332 
  957800    299.03083   -14640.809    73.091037     -14713.9    3071.7432 
  958000     332.5523   -14644.625    81.284569    -14725.91    4303.1085 
  958200     266.5701   -14662.527    65.156777   -14727.684    20485.097 
  958400    303.67696   -14652.012    74.226674   -14726.239     16263.13 
  958600    364.67934   -14627.064    89.137268   -14716.202    5830.1108 
  958800    310.93589   -14646.764    76.000948   -14722.765    2996.2609 
  959000    311.92674   -14661.718    76.243138   -14737.961     5045.936 
  959200     282.6146   -14664.699    69.078477   -14733.778    3943.3703 
  959400    325.83391   -14650.061    79.642418   -14729.703     11692.33 
  959600    320.18801   -14646.084     78.26241   -14724.347   -14432.405 
  959800    318.95074   -14667.342    77.959989   -14745.302   -8724.9112 
  960000    310.05579    -14650.12    75.785829   -14725.906    526.76816 
  960200    294.60821   -14650.544    72.010031   -14722.555   -9946.8054 
  960400    282.71217   -14659.662    69.102325   -14728.764   -15179.075 
  960600    268.88938   -14669.207    65.723669   -14734.931   -17612.374 
  960800    332.73883   -14648.671    81.330161   -14730.001    -4428.855 
  961000    286.41569   -14655.951    70.007563   -14725.958   -11557.426 
  961200     243.0003   -14675.805    59.395693     -14735.2    -5638.128 
  961400    289.85403   -14654.785    70.847983   -14725.633    2159.8163 
  961600    308.66923   -14652.859    75.446917   -14728.306   -9317.2846 
  961800    294.93545   -14663.119    72.090017   -14735.209    -18923.64 
  962000    271.04562   -14668.737    66.250712   -14734.988   -24272.778 
  962200    302.77118   -14645.816    74.005277   -14719.821    -5549.703 
  962400    305.27198   -14656.896    74.616539   -14731.513    10474.719 
  962600    268.33782   -14670.772    65.588853   -14736.361    9185.0221 
  962800    320.55608   -14651.526    78.352376   -14729.878     13411.33 
  963000    278.53801   -14650.501    68.082051   -14718.584   -17287.759 
  963200    251.18234   -14669.788    61.395602   -14731.184   -3772.1624 
  963400    332.61035   -14650.691    81.298759    -14731.99      11487.7 
  963600    302.93809   -14658.387    74.046073   -14732.433   -2181.3146 
  963800    303.43633   -14658.174    74.167856   -14732.342   -2910.4767 
  964000    324.81198   -14639.355     79.39263   -14718.747    10158.524 
  964200    268.91613   -14658.309    65.730207   -14724.039    1802.3043 
  964400    333.64152   -14652.975    81.550805   -14734.526   -4328.1034 
  964600     304.6734   -14649.699     74.47023   -14724.169    2952.1892 
  964800    290.15402   -14664.398    70.921311   -14735.319   -17503.152 
  965000    320.09341   -14651.854    78.239289   -14730.093   -10867.298 
  965200    329.63333   -14646.155    80.571097   -14726.726   -5166.0148 
  965400    280.39415   -14671.753    68.535739   -14740.289    1092.9442 
  965600    270.93716   -14657.983    66.224202   -14724.207   -6197.9923 
  965800    345.77699   -14648.913    84.517033    -14733.43    -7182.079 
  966000    266.29789   -14671.417    65.090242   -14736.507    335.37799 
  966200    292.57596    -14658.19    71.513297   -14729.703   -9557.7804 
  966400    329.51655   -14647.813    80.542552   -14728.356    4907.0746 
  966600    299.17786   -14650.845    73.126975   -14723.972     2022.137 
  966800    282.23717   -14657.635    68.986223   -14726.621    7080.8226 
  967000    233.08087   -14674.757    56.971125   -14731.728     8181.755 
  967200    302.46424   -14652.009    73.930253   -14725.939   -13005.165 
  967400      308.343   -14653.335    75.367178   -14728.702   -16452.205 
  967600    250.85573   -14671.186    61.315769   -14732.502   -2308.9647 
  967800    317.57377   -14651.517    77.623422    -14729.14    9891.9611 
  968000    300.84588   -14653.494    73.534684   -14727.028     11328.59 
  968200    303.91329   -14653.576    74.284438    -14727.86    7203.4457 
  968400    299.05609   -14649.759     73.09721   -14722.857    4438.7132 
  968600    265.20941   -14668.902    64.824187   -14733.726    7651.1714 
  968800    294.40242   -14644.671    71.959731    -14716.63    1006.3651 
  969000    311.95038   -14658.081    76.248917    -14734.33    62.235534 
  969200    293.87634   -14660.543    71.831144   -14732.375    4957.3151 
  969400    324.16718   -14644.003    79.235024   -14723.238    4805.3944 
  969600    299.92254   -14669.722    73.308994   -14743.031    7435.7832 
  969800    310.03025   -14652.895    75.779586   -14728.675    -799.8569 
  970000    340.32194   -14648.552    83.183676   -14731.736   -3425.3656 
  970200    272.42358   -14661.988    66.587522   -14728.575     19465.68 
  970400    315.58095   -14640.389    77.136322   -14717.525     14049.55 
  970600    320.24003   -14656.863    78.275127   -14735.138   -8922.2776 
  970800    318.86952   -14658.626    77.940138   -14736.567    4203.8159 
  971000    331.99086    -14651.23     81.14734   -14732.378   -15981.507 
  971200    364.20053   -14629.123    89.020232   -14718.144   -11018.589 
  971400    324.31691   -14652.027    79.271622   -14731.299   -2197.6454 
  971600    310.95147   -14659.438    76.004755   -14735.443   -18113.201 
  971800    338.38456   -14640.384    82.710127   -14723.094     -14401.1 
  972000    268.66011   -14650.213    65.667629    -14715.88   -18478.864 
  972200     262.6226   -14659.282    64.191902   -14723.474    1057.4739 
  972400    285.91242   -14646.744    69.884551   -14716.628   -4958.8691 
  972600    272.92821   -14668.885    66.710866   -14735.596    6608.6947 
  972800    287.81374   -14655.677    70.349284   -14726.026    10579.477 
  973000    314.74692    -14645.12    76.932465   -14722.052    1823.8301 
  973200    281.51863   -14663.613    68.810593   -14732.423     16173.48 
  973400    285.71778   -14654.827    69.836975   -14724.664   -2530.8144 
  973600    342.40689   -14642.563    83.693291   -14726.256   -303.63384 
  973800    291.27423   -14656.133    71.195119   -14727.328    5678.9033 
  974000    294.49867   -14660.411    71.983257   -14732.394    3547.7277 
  974200    333.62794   -14639.058    81.547484   -14720.605   -2194.0588 
  974400    260.16548   -14659.912    63.591317   -14723.504   -2366.2198 
  974600    277.78296   -14655.649    67.897495   -14723.546    5221.6754 
  974800    315.54397   -14632.001    77.127283   -14709.129    2613.7609 
  975000    273.51038   -14639.633    66.853164   -14706.486    7803.6785 
  975200    257.31435   -14656.978    62.894427   -14719.872     2857.725 
  975400    281.64183    -14653.36    68.840706     -14722.2   -6369.0912 
  975600    341.21713   -14634.804    83.402483   -14718.207    1207.2419 
  975800    286.20845   -14656.417    69.956909   -14726.374   -6516.6008 
  976000    267.57431   -14654.449    65.402233   -14719.851    8254.1817 
  976200    298.90285   -14643.754    73.059755   -14716.814    9381.4683 
  976400    257.72576   -14667.467    62.994986   -14730.462   -3397.5566 
  976600    307.89615   -14652.827    75.257955   -14728.085    19446.408 
  976800    257.89908   -14652.533     63.03735    -14715.57    6253.4613 
  977000    324.94225   -14650.795    79.424473   -14730.219    9030.6257 
  977200    281.20817   -14651.556    68.734706   -14720.291   -21458.274 
  977400    335.99862   -14649.032    82.126941   -14731.159    3013.9857 
  977600    350.45975   -14635.084    85.661625   -14720.746   -6219.5168 
  977800    290.65435   -14655.896    71.043603    -14726.94    15656.841 
  978000    278.97099   -14656.813    68.187881   -14725.001    3856.8526 
  978200    347.50428   -14628.996    84.939229   -14713.935   -9957.4953 
  978400    295.21118   -14653.125    72.157414   -14725.282   -7355.8738 
  978600    325.29438   -14657.607    79.510543   -14737.117   -11758.024 
  978800    316.03516   -14646.134    77.247345   -14723.381   -6774.0793 
  979000    259.51424   -14655.077    63.432139   -14718.509    14863.025 
  979200    268.46317   -14658.839    65.619492   -14724.459   -17180.304 
  979400    335.77223   -14634.721    82.071605   -14716.792   -13179.138 
  979600    288.34968   -14653.356     70.48028   -14723.836    618.00027 
  979800    307.83723   -14653.782    75.243554   -14729.026   -3176.1471 
  980000    300.86961   -14638.569    73.540484    -14712.11    5039.7512 
  980200    279.55958   -14666.169    68.331749   -14734.501    2193.0523 
  980400    304.58503   -14648.442    74.448631   -14722.891   -324.11419 
  980600    323.94685    -14652.46    79.181169   -14731.641   -16290.095 
  980800    293.58498   -14658.112    71.759926   -14729.872   -9301.7845 
  981000    288.17318   -14657.059    70.437139   -14727.496   -4564.5208 
  981200     336.9632   -14637.057     82.36271   -14719.419    6575.5155 
  981400    288.25615   -14661.707    70.457421   -14732.164    12086.272 
  981600    326.42903   -14654.666     79.78788   -14734.454   -15107.258 
  981800    303.98021   -14647.453    74.300795   -14721.754    457.63967 
  982000    266.22324   -14670.651    65.071995   -14735.723    19242.736 
  982200    317.15076   -14661.517    77.520027   -14739.037   -3497.3237 
  982400    307.48242   -14649.845    75.156828   -14725.002   -11136.346 
  982600    291.10754   -14652.769    71.154375   -14723.923   -1483.6991 
  982800    316.96908   -14636.322     77.47562   -14713.798    1619.8676 
  983000    275.51717   -14654.138    67.343677   -14721.482   -6603.0192 
  983200    335.10812   -14653.879    81.909278   -14735.788   -5521.1004 
  983400    352.94861   -14639.376    86.269967   -14725.646   -3110.7749 
  983600    296.87773   -14646.897    72.564761   -14719.462   -85.203857 
  983800     263.5573   -14661.129    64.420369   -14725.549    32.766514 
  984000    315.35832   -14641.542    77.081908   -14718.624    6887.6366 
  984200    334.09682   -14644.206    81.662092   -14725.868    678.47558 
  984400    280.71269   -14659.267    68.613599   -14727.881   -9616.0251 
  984600    319.99618   -14641.702    78.215522   -14719.918    -5156.718 
  984800    305.29554   -14651.465    74.622297   -14726.088   -5845.8786 
  985000    235.50591   -14660.437    57.563867       -14718   -4513.8536 
  985200    331.74545   -14644.215    81.087354   -14725.302      685.132 
  985400    279.89682   -14666.512    68.414179   -14734.927   -5291.9333 
  985600    311.16102   -14664.443    76.055976   -14740.499   -1200.1823 
  985800    310.38986   -14651.085    75.867485   -14726.952   -6902.2396 
  986000    267.58658   -14663.638    65.405231   -14729.043   -3359.8981 
  986200    295.29894    -14665.42    72.178864   -14737.598   -2563.3839 
  986400    351.07238   -14643.167    85.811368   -14728.979    8860.7714 
  986600    287.69611   -14656.501    70.320532   -14726.822    11855.378 
  986800    316.50415   -14644.888    77.361977    -14722.25    7159.8539 
  987000    296.75616   -14641.444    72.535047   -14713.979    19751.283 
  987200    261.32578   -14662.911    63.874927   -14726.786    3986.0502 
  987400    291.09057   -14649.435    71.150226   -14720.585    -12831.51 
  987600    276.76115   -14656.954    67.647737   -14724.602   -7486.7591 
  987800    291.37515   -14665.716    71.219787   -14736.936    8795.6985 
  988000    328.35295   -14646.614    80.258138   -14726.872    1705.7848 
  988200    288.97345   -14646.224    70.632747   -14716.857    11879.594 
  988400    283.90787   -14660.895    69.394586   -14730.289   -2195.7524 
  988600    296.82222   -14658.942    72.551193   -14731.494    1828.8757 
  988800    288.41223   -14644.594    70.495571    -14715.09    4129.8211 
  989000    297.89431   -14661.038    72.813241   -14733.851   -8899.1409 
  989200    260.43275   -14675.591    63.656646   -14739.248   -6410.0825 
  989400    297.96222    -14654.35     72.82984    -14727.18   -6094.1849 
  989600    330.40438   -14640.657     80.75956   -14721.417   -170.44507 
  989800    281.49025   -14661.283    68.803656   -14730.087   -14384.031 
  990000    301.45526    -14657.87    73.683632   -14731.553   -7317.9982 
  990200     273.4227   -14654.611    66.831733   -14721.443    -4234.555 
  990400    299.81592   -14651.183    73.282932   -14724.466   -21617.344 
  990600    330.96789   -14645.359    80.897299   -14726.256   -19611.801 
  990800    293.63338   -14652.589    71.771756   -14724.361    4024.7746 
  991000     288.4351   -14661.199    70.501161   -14731.701    13391.632 
  991200    333.74513   -14642.944    81.576128   -14724.521     9224.493 
  991400    282.58706   -14663.077    69.071743   -14732.149    -5270.307 
  991600    320.25616   -14659.497    78.279068   -14737.776   -2695.5975 
  991800    321.07999   -14648.071    78.480435   -14726.551   -5778.4645 
  992000    255.15686   -14664.428    62.367079   -14726.795   -6996.8967 
  992200    259.66964   -14659.305     63.47012   -14722.775   -12268.035 
  992400    307.40674   -14647.684     75.13833   -14722.823    2570.7033 
  992600    299.92616   -14662.937     73.30988   -14736.247    5058.4741 
  992800    245.81127   -14678.857    60.082771    -14738.94    609.55946 
  993000    272.02675    -14652.06    66.490526    -14718.55   -10006.368 
  993200    345.34697   -14642.932    84.411925   -14727.344    11712.714 
  993400    279.71343   -14663.751    68.369353   -14732.121    758.49897 
  993600    291.65658   -14653.168    71.288574   -14724.457     701.2699 
  993800    321.99599   -14653.063    78.704328   -14731.767   -18998.651 
  994000    269.23578   -14662.775    65.808339   -14728.584   -19741.446 
  994200     317.2279   -14638.484    77.538881   -14716.023   -3978.8815 
  994400    281.57066    -14657.67     68.82331   -14726.493    8638.5816 
  994600    292.29221   -14654.163     71.44394   -14725.607    3985.5378 
  994800    334.13538   -14649.458    81.671517    -14731.13     3523.819 
  995000    347.87902   -14647.075    85.030825   -14732.106   -4032.1148 
  995200     272.5822   -14666.142    66.626292   -14732.768     -1473.21 
  995400     313.0115   -14646.761    76.508282   -14723.269    14418.078 
  995600    308.43725   -14652.465    75.390215   -14727.855   -1589.5543 
  995800    269.38864   -14664.813    65.845702   -14730.659    7380.2478 
  996000    288.00759   -14647.936    70.396665   -14718.333    10066.887 
  996200    339.28541   -14648.541    82.930319   -14731.471    1569.0227 
  996400     287.6176   -14662.666     70.30134   -14732.967   -8962.0847 
  996600    335.14886   -14642.062    81.919238   -14723.982   -988.71677 
  996800    304.94635    -14654.34    74.536946   -14728.877   -15542.853 
  997000    304.96599   -14662.274    74.541747   -14736.816   -4462.3143 
  997200    303.86939   -14647.319    74.273708   -14721.593    10622.791 
  997400    291.81197   -14664.144    71.326556   -14735.471    10445.523 
  997600    257.23211   -14667.709    62.874324   -14730.584   -22.392679 
  997800    302.82225   -14651.754    74.017759   -14725.771   -3061.4648 
  998000    258.04351   -14661.413    63.072652   -14724.485    2748.6728 
  998200    236.00891   -14670.548    57.686814   -14728.234     2868.674 
  998400    318.85203   -14645.044    77.935861    -14722.98    -1842.012 
  998600    278.85927   -14656.139    68.160573   -14724.299    5715.4224 
  998800    253.00286   -14671.245    61.840584   -14733.086    6824.4573 
  999000    310.24793   -14652.066    75.832792   -14727.899      8640.29 
  999200    295.55987    -14649.42    72.242643   -14721.663   -785.58376 
  999400    271.62146   -14652.683    66.391462   -14719.075   -9952.7042 
  999600    286.37394   -14659.009    69.997357   -14729.007   -232.14956 
  999800    274.29754   -14660.357    67.045566   -14727.402   -6249.7013 
 1000000    318.66369   -14646.513    77.889827   -14724.403   -6316.3031 
Loop time of 9826.05 on 8 procs for 1000000 steps with 83 atoms

Performance: 2.198 ns/day, 10.918 hours/ns, 101.770 timesteps/s
98.9% CPU use with 8 MPI tasks x no OpenMP threads

MPI task timing breakdown:
Section |  min time  |  avg time  |  max time  |%varavg| %total
---------------------------------------------------------------
Pair    | 7477.1     | 7578.2     | 7658.4     |  62.4 | 77.12
Neigh   | 12.718     | 12.789     | 12.887     |   1.7 |  0.13
Comm    | 199.26     | 279.17     | 380.06     | 324.4 |  2.84
Output  | 0.27317    | 0.30532    | 0.45923    |  10.6 |  0.00
Modify  | 1945.8     | 1946.2     | 1946.6     |   0.5 | 19.81
Other   |            | 9.4        |            |       |  0.10

Nlocal:    10.375 ave 14 max 8 min
Histogram: 1 0 0 5 0 1 0 0 0 1
Nghost:    596.125 ave 600 max 592 min
Histogram: 1 0 1 0 0 3 1 1 0 1
Neighs:    1230.62 ave 1628 max 962 min
Histogram: 1 0 0 5 1 0 0 0 0 1

Total # of neighbors = 9845
Ave neighs/atom = 118.614
Neighbor list builds = 4204
Dangerous builds = 0

unfix 1
unfix output
undump 1

Please see the log.cite file for references relevant to this simulation

Total wall time: 2:44:01
