LAMMPS (3 Mar 2020)
# Alpha
clear
units		real
dimension 3
boundary        p p p
atom_style	charge
newton on
read_data       O_5.lmp
  triclinic box = (0 0 0) to (15.77 13.6581 25.747) with tilt (7.8845 0 0)
  2 by 2 by 2 MPI processor grid
  reading atoms ...
  129 atoms
  read_data CPU = 0.00917366 secs

timestep 0.25

# ---------- Define Interatomic Potential ---------------------
pair_style      reax/c NULL checkqeq no
pair_coeff      * * ffield.reax C O
fix             2 all qeq/reax 1 0.0 10.0 1.0e-6 reax/c

#------------ Equilibration of the system -------------------------
reset_timestep 0

dump 1 all custom 10 min.lammpstrj id type x y z

minimize 1.0e-8 1.0e-8 100000 100000
WARNING: Using 'neigh_modify every 1 delay 0 check yes' setting during minimization (../min.cpp:190)
WARNING: Total cutoff < 2*bond cutoff. May need to use an increased neighbor list skin. (../pair_reaxc.cpp:413)
Neighbor list info ...
  update every 1 steps, delay 0 steps, check yes
  max neighbors/atom: 2000, page size: 100000
  master list distance cutoff = 9.5
  ghost atom cutoff = 9.5
  binsize = 4.75, bins = 5 3 6
  2 neighbor lists, perpetual/occasional/extra = 2 0 0
  (1) pair reax/c, perpetual
      attributes: half, newton off, ghost
      pair build: half/bin/newtoff/ghost
      stencil: half/ghost/bin/3d/newtoff
      bin: standard
  (2) fix qeq/reax, perpetual, copy from (1)
      attributes: half, newton off, ghost
      pair build: copy
      stencil: none
      bin: none
Per MPI rank memory allocation (min/avg/max) = 16.27 | 16.82 | 17.41 Mbytes
Step Temp E_pair E_mol TotEng Press 
       0            0   -19448.614            0   -19448.614    55682.526 
     265            0   -22000.325            0   -22000.325    9392.7701 
Loop time of 27.1295 on 8 procs for 265 steps with 129 atoms

99.7% CPU use with 8 MPI tasks x no OpenMP threads

Minimization stats:
  Stopping criterion = energy tolerance
  Energy initial, next-to-last, final = 
        -19448.6136777     -22000.3247125     -22000.3248436
  Force two-norm initial, final = 5066.94 103.437
  Force max component initial, final = 1201.25 33.8208
  Final line search alpha, max atom move = 6.2481e-06 0.000211316
  Iterations, force evaluations = 265 1761

MPI task timing breakdown:
Section |  min time  |  avg time  |  max time  |%varavg| %total
---------------------------------------------------------------
Pair    | 16.475     | 18.915     | 20.595     |  37.3 | 69.72
Neigh   | 0          | 0          | 0          |   0.0 |  0.00
Comm    | 0.26729    | 1.9455     | 4.3919     | 116.5 |  7.17
Output  | 0.005053   | 0.0062923  | 0.0085772  |   1.4 |  0.02
Modify  | 6.1799     | 6.1827     | 6.1876     |   0.1 | 22.79
Other   |            | 0.07964    |            |       |  0.29

Nlocal:    16.125 ave 37 max 2 min
Histogram: 2 1 1 1 1 0 0 0 0 2
Nghost:    465.5 ave 508 max 415 min
Histogram: 2 0 2 0 0 0 0 0 0 4
Neighs:    1159.62 ave 2453 max 174 min
Histogram: 2 0 1 1 2 0 0 0 0 2

Total # of neighbors = 9277
Ave neighs/atom = 71.9147
Neighbor list builds = 0
Dangerous builds = 0

###
min_style cg
minimize 1.0e-8 1.0e-8 100000 100000
WARNING: Using 'neigh_modify every 1 delay 0 check yes' setting during minimization (../min.cpp:190)
WARNING: Total cutoff < 2*bond cutoff. May need to use an increased neighbor list skin. (../pair_reaxc.cpp:413)
Per MPI rank memory allocation (min/avg/max) = 16.27 | 16.82 | 17.41 Mbytes
Step Temp E_pair E_mol TotEng Press 
     265            0   -22000.325            0   -22000.325    9392.7701 
     342            0   -22015.941            0   -22015.941    5131.5148 
Loop time of 8.59054 on 8 procs for 77 steps with 129 atoms

99.6% CPU use with 8 MPI tasks x no OpenMP threads

Minimization stats:
  Stopping criterion = energy tolerance
  Energy initial, next-to-last, final = 
        -22000.3248436     -22015.9411587     -22015.9412248
  Force two-norm initial, final = 103.437 102.321
  Force max component initial, final = 33.8208 33.1219
  Final line search alpha, max atom move = 9.43251e-05 0.00312423
  Iterations, force evaluations = 77 550

MPI task timing breakdown:
Section |  min time  |  avg time  |  max time  |%varavg| %total
---------------------------------------------------------------
Pair    | 5.4403     | 6.0626     | 6.6109     |  16.3 | 70.57
Neigh   | 0          | 0          | 0          |   0.0 |  0.00
Comm    | 0.060908   | 0.60703    | 1.2328     |  51.5 |  7.07
Output  | 0.0015879  | 0.0019664  | 0.002678   |   0.8 |  0.02
Modify  | 1.8935     | 1.894      | 1.8953     |   0.0 | 22.05
Other   |            | 0.02493    |            |       |  0.29

Nlocal:    16.125 ave 39 max 0 min
Histogram: 1 2 1 0 2 0 0 0 1 1
Nghost:    470.125 ave 512 max 421 min
Histogram: 2 1 1 0 0 0 0 0 0 4
Neighs:    1129.62 ave 2533 max 0 min
Histogram: 1 2 1 0 0 2 0 0 0 2

Total # of neighbors = 9037
Ave neighs/atom = 70.0543
Neighbor list builds = 0
Dangerous builds = 0

###
fix 1 all box/relax aniso 0.0
min_style cg
minimize 1.0e-8 1.0e-8 100000 100000
WARNING: Using 'neigh_modify every 1 delay 0 check yes' setting during minimization (../min.cpp:190)
WARNING: Total cutoff < 2*bond cutoff. May need to use an increased neighbor list skin. (../pair_reaxc.cpp:413)
Per MPI rank memory allocation (min/avg/max) = 16.27 | 16.82 | 17.41 Mbytes
Step Temp E_pair E_mol TotEng Press Volume 
     342            0   -22015.941            0   -22015.941    5131.5148    5545.5955 
     419            0   -22018.458            0   -22018.458    1171.8913    5553.1587 
Loop time of 1.82132 on 8 procs for 77 steps with 129 atoms

99.8% CPU use with 8 MPI tasks x no OpenMP threads

Minimization stats:
  Stopping criterion = energy tolerance
  Energy initial, next-to-last, final = 
        -22015.9412248     -22018.4580418     -22018.4580418
  Force two-norm initial, final = 926.87 191.654
  Force max component initial, final = 662.231 112.682
  Final line search alpha, max atom move = 1.01853e-12 1.1477e-10
  Iterations, force evaluations = 77 128

MPI task timing breakdown:
Section |  min time  |  avg time  |  max time  |%varavg| %total
---------------------------------------------------------------
Pair    | 1.2678     | 1.4134     | 1.5466     |   8.2 | 77.60
Neigh   | 0          | 0          | 0          |   0.0 |  0.00
Comm    | 0.012269   | 0.14488    | 0.29135    |  25.6 |  7.95
Output  | 0.0012197  | 0.0015356  | 0.0021183  |   0.7 |  0.08
Modify  | 0.24817    | 0.24831    | 0.24866    |   0.0 | 13.63
Other   |            | 0.01317    |            |       |  0.72

Nlocal:    16.125 ave 41 max 0 min
Histogram: 1 3 0 1 1 0 0 0 1 1
Nghost:    470.125 ave 512 max 419 min
Histogram: 2 1 1 0 0 0 0 0 0 4
Neighs:    1123.5 ave 2647 max 0 min
Histogram: 1 2 1 0 1 1 0 0 1 1

Total # of neighbors = 8988
Ave neighs/atom = 69.6744
Neighbor list builds = 0
Dangerous builds = 0

unfix 1
###
min_style cg
minimize 1.0e-8 1.0e-8 100000 100000
WARNING: Using 'neigh_modify every 1 delay 0 check yes' setting during minimization (../min.cpp:190)
WARNING: Total cutoff < 2*bond cutoff. May need to use an increased neighbor list skin. (../pair_reaxc.cpp:413)
Per MPI rank memory allocation (min/avg/max) = 16.27 | 16.82 | 17.41 Mbytes
Step Temp E_pair E_mol TotEng Press 
     419            0   -22018.458            0   -22018.458    1171.8913 
     536            0   -22026.758            0   -22026.758    3368.3398 
Loop time of 14.209 on 8 procs for 117 steps with 129 atoms

99.7% CPU use with 8 MPI tasks x no OpenMP threads

Minimization stats:
  Stopping criterion = energy tolerance
  Energy initial, next-to-last, final = 
        -22018.4580418     -22026.7579731     -22026.7580071
  Force two-norm initial, final = 96.1433 53.2947
  Force max component initial, final = 17.7264 14.4575
  Final line search alpha, max atom move = 7.37319e-06 0.000106598
  Iterations, force evaluations = 117 907

MPI task timing breakdown:
Section |  min time  |  avg time  |  max time  |%varavg| %total
---------------------------------------------------------------
Pair    | 9.1225     | 10.061     | 10.917     |  19.3 | 70.81
Neigh   | 0          | 0          | 0          |   0.0 |  0.00
Comm    | 0.097881   | 0.95036    | 1.8947     |  62.9 |  6.69
Output  | 0.0023031  | 0.0027613  | 0.0037032  |   0.8 |  0.02
Modify  | 3.1542     | 3.1551     | 3.1574     |   0.1 | 22.20
Other   |            | 0.0401     |            |       |  0.28

Nlocal:    16.125 ave 41 max 0 min
Histogram: 1 3 0 1 1 0 0 0 1 1
Nghost:    473.375 ave 512 max 425 min
Histogram: 2 0 1 1 0 0 0 0 0 4
Neighs:    1118.25 ave 2635 max 0 min
Histogram: 1 2 1 0 1 1 0 0 1 1

Total # of neighbors = 8946
Ave neighs/atom = 69.3488
Neighbor list builds = 0
Dangerous builds = 0

###
fix 1 all box/relax aniso 0.0
min_style cg
minimize 1.0e-8 1.0e-8 100000 100000
WARNING: Using 'neigh_modify every 1 delay 0 check yes' setting during minimization (../min.cpp:190)
WARNING: Total cutoff < 2*bond cutoff. May need to use an increased neighbor list skin. (../pair_reaxc.cpp:413)
Per MPI rank memory allocation (min/avg/max) = 16.27 | 16.82 | 17.41 Mbytes
Step Temp E_pair E_mol TotEng Press Volume 
     536            0   -22026.758            0   -22026.758    3368.3398    5553.1587 
     553            0   -22026.858            0   -22026.858   -2208.8893    5554.4322 
Loop time of 0.876694 on 8 procs for 17 steps with 129 atoms

99.5% CPU use with 8 MPI tasks x no OpenMP threads

Minimization stats:
  Stopping criterion = linesearch alpha is zero
  Energy initial, next-to-last, final = 
        -22026.7580071     -22026.8584949     -22026.8584949
  Force two-norm initial, final = 555.734 328.381
  Force max component initial, final = 402.638 216.302
  Final line search alpha, max atom move = 9.8673e-14 2.13431e-11
  Iterations, force evaluations = 17 61

MPI task timing breakdown:
Section |  min time  |  avg time  |  max time  |%varavg| %total
---------------------------------------------------------------
Pair    | 0.61576    | 0.68673    | 0.74535    |   5.5 | 78.33
Neigh   | 0          | 0          | 0          |   0.0 |  0.00
Comm    | 0.0067039  | 0.065058   | 0.13635    |  17.8 |  7.42
Output  | 0.00037839 | 0.00044591 | 0.0006414  |   0.0 |  0.05
Modify  | 0.1182     | 0.11831    | 0.11848    |   0.0 | 13.49
Other   |            | 0.006152   |            |       |  0.70

Nlocal:    16.125 ave 42 max 0 min
Histogram: 1 3 0 1 1 0 0 0 1 1
Nghost:    472.625 ave 512 max 422 min
Histogram: 1 1 1 1 0 0 0 0 0 4
Neighs:    1114.5 ave 2687 max 0 min
Histogram: 1 2 1 1 0 1 0 0 1 1

Total # of neighbors = 8916
Ave neighs/atom = 69.1163
Neighbor list builds = 0
Dangerous builds = 0

unfix 1
###
min_style cg
minimize 1.0e-8 1.0e-8 100000 100000
WARNING: Using 'neigh_modify every 1 delay 0 check yes' setting during minimization (../min.cpp:190)
WARNING: Total cutoff < 2*bond cutoff. May need to use an increased neighbor list skin. (../pair_reaxc.cpp:413)
Per MPI rank memory allocation (min/avg/max) = 16.27 | 16.82 | 17.41 Mbytes
Step Temp E_pair E_mol TotEng Press 
     553            0   -22026.858            0   -22026.858   -2208.8893 
     604            0   -22027.463            0   -22027.463    2427.4586 
Loop time of 6.86333 on 8 procs for 51 steps with 129 atoms

99.7% CPU use with 8 MPI tasks x no OpenMP threads

Minimization stats:
  Stopping criterion = energy tolerance
  Energy initial, next-to-last, final = 
        -22026.8584949     -22027.4630992     -22027.4631078
  Force two-norm initial, final = 98.1085 30.6233
  Force max component initial, final = 16.2976 6.99234
  Final line search alpha, max atom move = 3.01941e-05 0.000211127
  Iterations, force evaluations = 51 440

MPI task timing breakdown:
Section |  min time  |  avg time  |  max time  |%varavg| %total
---------------------------------------------------------------
Pair    | 4.3929     | 4.874      | 5.2865     |  14.1 | 71.02
Neigh   | 0          | 0          | 0          |   0.0 |  0.00
Comm    | 0.052319   | 0.46334    | 0.94723    |  45.9 |  6.75
Output  | 0.00091223 | 0.0010669  | 0.0014671  |   0.5 |  0.02
Modify  | 1.505      | 1.5054     | 1.5064     |   0.0 | 21.93
Other   |            | 0.01948    |            |       |  0.28

Nlocal:    16.125 ave 42 max 0 min
Histogram: 1 3 0 1 1 0 0 0 1 1
Nghost:    472.625 ave 512 max 422 min
Histogram: 1 1 1 1 0 0 0 0 0 4
Neighs:    1113.75 ave 2687 max 0 min
Histogram: 1 2 1 1 0 1 0 0 1 1

Total # of neighbors = 8910
Ave neighs/atom = 69.0698
Neighbor list builds = 0
Dangerous builds = 0

undump 1
#############
#----------- Thermo ------------
reset_timestep 0
thermo  200

thermo_style    custom step temp etotal ke pe press
velocity all create 300 12345 mom yes rot yes
fix 1 all npt temp 300 300 25.0 iso 0.0 0.0 250.0

variable vpe equal pe
variable vtemp equal temp
variable vstep equal step

fix output all print 2500 "${vstep} ${vtemp} ${vpe}" file temp-tpdh-Pt.dat screen no

dump 1 all custom 2500 thermo-tpdh-Pt.lammpstrj id type x y z

run 1000000
WARNING: Total cutoff < 2*bond cutoff. May need to use an increased neighbor list skin. (../pair_reaxc.cpp:413)
Per MPI rank memory allocation (min/avg/max) = 15.13 | 15.58 | 16.3 Mbytes
Step Temp TotEng KinEng PotEng Press 
       0          300       -21913    114.46311   -22027.463    3369.4755 
     200    211.87071    -21871.96    80.837931   -21952.798   -9969.1247 
     400    291.53975   -21811.008    111.23515   -21922.243    17626.378 
     600    304.53787   -21790.761     116.1945   -21906.955   -7799.5671 
     800    272.95595   -21812.804    104.14462   -21916.949    9627.5621 
    1000    317.58013   -21791.407     121.1707   -21912.577   -3015.6791 
    1200    309.90829   -21794.691    118.24355   -21912.935    3054.8165 
    1400    304.93385   -21815.317    116.34559   -21931.663    21139.327 
    1600     327.8266   -21787.066    125.08017   -21912.146   -19369.156 
    1800    305.94328   -21791.858    116.73073   -21908.589   -8819.1629 
    2000    258.56683   -21809.386    98.654543   -21908.041    29338.344 
    2200    304.74227   -21808.442    116.27249   -21924.714    -20327.99 
    2400    324.93011   -21791.379    123.97503   -21915.354    8620.9921 
    2600    270.93538   -21818.186    103.37368    -21921.56   -2258.9559 
    2800    271.44802   -21799.291    103.56928    -21902.86   -5641.1635 
    3000    327.42416   -21788.808    124.92662   -21913.735   -3346.5256 
    3200    303.53379   -21807.688     115.8114   -21923.499    748.82458 
    3400    269.17885   -21824.609    102.70349   -21927.312    5377.2015 
    3600    302.24758   -21800.556    115.32066   -21915.877    5710.8135 
    3800    292.86539   -21791.372    111.74094   -21903.113   -24896.834 
    4000    308.02816   -21793.637     117.5262   -21911.163   -4825.6667 
    4200    265.36168   -21811.062    101.24708   -21912.309    2099.6967 
    4400    309.48166   -21782.252    118.08077   -21900.332   -7499.2515 
    4600    313.10881    -21801.76    119.46469   -21921.225    -6294.119 
    4800    309.32379   -21799.539    118.02054    -21917.56   -2423.8155 
    5000    327.72793   -21770.016    125.04252   -21895.059    -1606.618 
    5200    282.02869   -21794.476    107.60627   -21902.082    5349.8221 
    5400    303.28653   -21804.749    115.71706   -21920.466    -1762.862 
    5600    293.24269   -21804.524     111.8849   -21916.409    3888.4776 
    5800    327.79975   -21787.578    125.06992   -21912.647    396.22557 
    6000    270.35308   -21811.096    103.15151   -21914.247   -15505.489 
    6200    282.72905   -21803.385    107.87348   -21911.258   -13443.402 
    6400    312.03323    -21787.34    119.05431   -21906.394    -24035.02 
    6600    293.40966   -21807.018     111.9486   -21918.966    8390.4907 
    6800     267.1765   -21818.281    101.93951    -21920.22   -9529.3837 
    7000    265.56606    -21836.95    101.32505   -21938.275    13572.496 
    7200    290.38762   -21806.801    110.79556   -21917.596   -453.76633 
    7400    307.40733   -21795.319    117.28933   -21912.609    7380.3239 
    7600    305.09274   -21811.298    116.40621   -21927.704    18764.785 
    7800     290.0039   -21807.111    110.64916    -21917.76    11407.649 
    8000    303.03548   -21802.865    115.62127   -21918.486    3572.0316 
    8200     298.6334   -21815.288    113.94169    -21929.23    6947.8855 
    8400     286.4096   -21802.682    109.27778    -21911.96    1755.5646 
    8600    301.06967   -21785.165    114.87123   -21900.036      14057.6 
    8800    317.15906   -21803.988    121.01004   -21924.998    4581.8892 
    9000    297.57897   -21815.148    113.53938   -21928.687    -10027.54 
    9200    298.19389    -21789.74      113.774   -21903.514   -6896.5499 
    9400    296.28969   -21796.028    113.04746   -21909.076    17417.439 
    9600    284.71744   -21807.075    108.63214   -21915.708    17576.248 
    9800    314.23487   -21798.509    119.89433   -21918.403   -569.06683 
   10000    271.58152   -21825.186    103.62022   -21928.806   -7417.6837 
   10200     282.8556   -21813.891    107.92177   -21921.812    18247.448 
   10400     337.4852   -21803.257    128.76535   -21932.022   -3870.9844 
   10600    287.87201   -21809.447    109.83575   -21919.283   -17228.258 
   10800    336.89397   -21783.381    128.53977   -21911.921   -18454.161 
   11000    307.96138   -21808.783    117.50072   -21926.283    5091.9101 
   11200    296.52425    -21811.48    113.13695   -21924.617   -107.19878 
   11400    311.10435   -21789.138     118.6999   -21907.838    7402.8775 
   11600    276.73141   -21796.067    105.58512   -21901.652    12664.197 
   11800    282.37363   -21807.406    107.73787   -21915.144    15498.135 
   12000    321.46446   -21788.332    122.65273   -21910.985    4589.7107 
   12200    283.76409   -21817.925     108.2684   -21926.194   -14493.814 
   12400    318.65375   -21806.919    121.58033   -21928.499    7551.6114 
   12600    307.68745   -21795.332     117.3962   -21912.728    1789.6403 
   12800    307.96166   -21793.102    117.50083   -21910.602   -9353.7025 
   13000    254.92785   -21805.715    97.266111   -21902.982   -12650.575 
   13200    302.84637   -21809.753    115.54912   -21925.302   -766.64639 
   13400    295.84319   -21801.722     112.8771   -21914.599    3958.7861 
   13600    313.35133   -21800.392    119.55722   -21919.949   -12516.712 
   13800    261.18482   -21819.863    99.653417   -21919.517    -17826.24 
   14000    312.20442   -21790.226    119.11962   -21909.345    13158.617 
   14200    306.36554    -21803.76    116.89184   -21920.652   -3320.0927 
   14400    324.74951   -21817.093    123.90613   -21940.999   -12023.715 
   14600    378.00949    -21906.73    144.22713   -22050.958    -2655.736 
   14800     297.7372   -21989.299    113.59975   -22102.898    14610.147 
   15000    290.78922   -21999.057    110.94879   -22110.005   -18981.877 
   15200    313.93561   -21982.105    119.78015   -22101.885   -10433.503 
   15400    270.03517   -21998.633    103.03021   -22101.663     -541.322 
   15600    294.42403    -21990.94    112.33563   -22103.275   -27074.408 
   15800    314.58306    -21978.07    120.02718   -22098.098    19903.911 
   16000    293.55398   -22005.176    112.00367   -22117.179    8089.1859 
   16200    307.86883   -21985.236    117.46541   -22102.702   -15.075183 
   16400    273.95036   -22006.104    104.52403   -22110.628    -2944.741 
   16600    256.26895   -22008.765    97.777801   -22106.543   -8391.6763 
   16800    307.59263     -21982.4    117.36003    -22099.76    7616.1601 
   17000    327.63035   -21995.833    125.00529   -22120.838    14785.167 
   17200    287.24052   -22008.061    109.59481   -22117.655   -6039.5227 
   17400    305.77151   -21990.313    116.66519   -22106.978    20746.398 
   17600    297.36757   -21995.757    113.45872   -22109.216    2160.4824 
   17800    288.22176    -22012.49    109.96919   -22122.459   -6669.6319 
   18000    303.59181   -21984.202    115.83354   -22100.035   -24147.375 
   18200    300.08433   -21992.561    114.49528   -22107.057   -6831.8249 
   18400    280.20521   -22009.747    106.91053   -22116.657   -1127.4364 
   18600    313.77009   -21993.815      119.717   -22113.532    3502.4375 
   18800    296.78015   -21989.495    113.23459    -22102.73    893.23021 
   19000    306.70119   -21972.144     117.0199   -22089.164   -4060.7998 
   19200    325.43075   -21982.509    124.16605   -22106.675    2652.9814 
   19400    284.66869    -21996.58    108.61354   -22105.193    16175.008 
   19600    318.95864   -21982.021    121.69666   -22103.718    7051.4312 
   19800    299.38957   -21996.311     114.2302   -22110.542   -5970.5258 
   20000     280.8559   -22000.626     107.1588   -22107.785   -15111.752 
   20200    304.45859   -21979.514    116.16425   -22095.678   -13441.509 
   20400    282.74192   -21988.663    107.87839   -22096.542   -258.25078 
   20600    268.56304   -22007.418    102.46853   -22109.887    7983.4824 
   20800    284.49168   -22000.872      108.546   -22109.419    2016.4276 
   21000    301.00539   -21991.228    114.84671   -22106.074   -3384.9346 
   21200    265.21477   -22007.734    101.19102   -22108.925   -10281.371 
   21400    257.59078   -21999.559    98.282134   -22097.841    12184.176 
   21600    299.67656   -21982.801     114.3397   -22097.141   -169.43264 
   21800     282.8564   -22010.948    107.92207    -22118.87   -13412.296 
   22000    306.60844   -21999.458    116.98452   -22116.443    6645.0996 
   22200    299.71362   -21993.549    114.35384   -22107.903   -5136.2374 
   22400    281.94168   -21987.257    107.57307    -22094.83   -1687.2409 
   22600    324.33543   -21966.729    123.74813   -22090.477   -11553.642 
   22800    298.93198    -21998.47    114.05561   -22112.525   -6399.2827 
   23000    294.89538   -22003.306    112.51547   -22115.822    613.59784 
   23200    306.78445   -21993.551    117.05167   -22110.603    11732.794 
   23400     318.5163       -21983    121.52788   -22104.528   -22320.845 
   23600     241.9235   -22009.719    92.304385   -22102.023      -9495.4 
   23800    306.31975    -21990.36    116.87437   -22107.235    27254.892 
   24000    305.27895   -21991.622    116.47726     -22108.1   -32699.989 
   24200    304.62077   -22018.666    116.22613   -22134.892    10037.379 
   24400    315.99634   -21994.548    120.56641   -22115.114    1982.6966 
   24600    312.85085   -21994.813    119.36627    -22114.18    10976.907 
   24800    280.88358   -21999.783    107.16935   -22106.952    4189.6593 
   25000    334.76416   -21975.071    127.72715   -22102.798    11732.538 
   25200    285.87829   -21994.183    109.07506   -22103.258   -2174.6054 
   25400    294.95775   -22000.896    112.53927   -22113.435    5643.6172 
   25600    324.99911   -21967.935    124.00136   -22091.936   -302.13782 
   25800    347.98353   -21985.136    132.77092   -22117.907     2585.148 
   26000    279.50018   -21995.561    106.64153   -22102.202   -12302.015 
   26200    310.88689   -22003.743    118.61693    -22122.36     -11395.8 
   26400    269.00997   -22018.142    102.63905   -22120.781    4723.6132 
   26600    291.74027   -21999.782    111.31166   -22111.093    18254.653 
   26800    302.65943    -22026.42    115.47779   -22141.898   -971.10553 
   27000    255.88092   -22047.247    97.629749   -22144.877   -19208.393 
   27200    313.05008   -22046.444    119.44228   -22165.886   -24248.118 
   27400    305.22596   -22033.942    116.45704   -22150.399    -17408.14 
   27600    290.06832   -22061.007    110.67373   -22171.681    -8527.954 
   27800    322.90242   -22042.332    123.20138   -22165.534   -16597.186 
   28000    307.73752    -22029.13    117.41531   -22146.545    694.91138 
   28200    283.94309   -22058.612    108.33669   -22166.949   -7904.9106 
   28400     292.9738   -22052.443    111.78231   -22164.225   -20741.447 
   28600    325.80047   -22037.986    124.30711   -22162.293   -2934.9207 
   28800    311.46547     -22052.9    118.83768   -22171.738    1198.5103 
   29000    315.03577   -22038.623    120.19991   -22158.823    10238.301 
   29200     309.6939   -22026.601    118.16175   -22144.763    22783.972 
   29400     291.6404   -22055.905    111.27355   -22167.179    12910.519 
   29600    321.98292   -22049.964    122.85055   -22172.814    3685.6041 
   29800    322.60645   -22027.762    123.08845   -22150.851    2671.0146 
   30000    276.95508    -22057.34    105.67046    -22163.01   -9949.4965 
   30200    281.45532   -22038.459     107.3875   -22145.847    1208.4474 
   30400    314.54501   -22037.323    120.01266   -22157.336    2435.8791 
   30600    295.59916   -22061.062    112.78399   -22173.846    25474.703 
   30800    304.79059   -22039.301    116.29093   -22155.592   -243.98048 
   31000    302.19464   -22047.936    115.30046   -22163.236   -29467.331 
   31200    256.94654   -22057.867     98.03633   -22155.903    8178.3764 
   31400    311.74279   -22037.444     118.9435   -22156.387   -17768.307 
   31600    317.46191    -22028.26    121.12559   -22149.385    12594.963 
   31800     286.7721    -22055.75    109.41608   -22165.166    -24508.72 
   32000    311.06759   -22048.659    118.68588   -22167.344   -15391.673 
   32200    335.95561   -22035.687    128.18174   -22163.869    -305.0341 
   32400    279.94178   -22070.655    106.81002   -22177.465    19077.636 
   32600    296.65574   -22047.361    113.18713   -22160.548   -6008.8797 
   32800    325.39631   -22044.103    124.15291   -22168.256    12150.955 
   33000    402.91716    -22116.56     153.7305    -22270.29    1300.0435 
   33200    339.74333   -22217.084    129.62692   -22346.711     8311.431 
   33400    270.64512   -22249.008    103.26294   -22352.271     6679.317 
   33600    320.50397   -22218.463    122.28627   -22340.749    10023.788 
   33800    291.87115   -22244.006     111.3616   -22355.367    9681.5143 
   34000    283.71086   -22251.251    108.24809   -22359.499    10797.306 
   34200    311.16105   -22227.689    118.72154    -22346.41     31163.14 
   34400    319.98631   -22235.176    122.08876   -22357.265    15155.914 
   34600     321.4767   -22253.512    122.65741    -22376.17   -27951.249 
   34800    287.21355   -22280.945    109.58452    -22390.53   -20920.644 
   35000    283.72006    -22283.69     108.2516   -22391.942    2155.6552 
   35200    328.31238   -22270.889    125.26552   -22396.154    4020.0531 
   35400     259.3803   -22301.228    98.964917   -22400.193    956.22208 
   35600    326.09736   -22273.122    124.42039   -22397.543   -14819.868 
   35800    336.91391   -22262.608    128.54737   -22391.155    19668.335 
   36000    286.43008    -22282.69    109.28559   -22391.976   -4918.7191 
   36200    301.32949   -22285.497    114.97037   -22400.467    19121.199 
   36400    342.12997    -22258.29    130.53753   -22388.827   -10371.826 
   36600     325.5097    -22277.81    124.19617   -22402.007   -6204.6308 
   36800    292.99298   -22274.746    111.78962   -22386.536    7672.8567 
   37000    332.41206   -22258.837    126.82972   -22385.667   -23760.025 
   37200    323.66873   -22275.441    123.49376   -22398.934   -6280.1571 
   37400    315.44745   -22271.878    120.35698   -22392.235   -4782.1406 
   37600    319.31889   -22256.918    121.83411   -22378.752    11866.279 
   37800     274.3156   -22286.244    104.66339   -22390.908   -7372.4739 
   38000    294.69097   -22288.382    112.43748   -22400.819   -9732.1919 
   38200    317.67239   -22284.278    121.20589   -22405.484   -12771.574 
   38400    335.89621   -22265.593    128.15908   -22393.752   -22522.901 
   38600     296.6578   -22263.976    113.18791   -22377.164    11229.552 
   38800    268.75201   -22279.392    102.54063   -22381.933     26549.23 
   39000    331.12591   -22262.529      126.339   -22388.868    16733.403 
   39200    291.03611   -22279.099    111.04299   -22390.142    1460.6179 
   39400    311.77604   -22280.547    118.95618   -22399.504    3409.7263 
   39600    314.52118   -22256.477    120.00357   -22376.481    19488.188 
   39800      303.821   -22283.563    115.92099   -22399.484    13253.189 
   40000    292.65198   -22280.592    111.65952   -22392.251    18118.793 
   40200       305.53   -22268.461    116.57304   -22385.034   -9252.5514 
   40400    285.98009   -22272.266     109.1139    -22381.38   -6208.9032 
   40600    428.80991   -22276.572    163.60971   -22440.182    3106.8414 
   40800    360.44765   -22330.299    137.52652   -22467.826    7025.9145 
   41000    294.28011   -22368.386    112.28072   -22480.667   -1517.1225 
   41200    299.32207   -22369.405    114.20445    -22483.61   -15198.786 
   41400    296.24969    -22346.54     113.0322   -22459.573   -27927.909 
   41600    280.86228   -22359.226    107.16123   -22466.387    10528.971 
   41800    285.31126   -22371.925    108.85871   -22480.784   -3129.7103 
   42000    322.59378   -22350.719    123.08362   -22473.802   -5830.8782 
   42200     281.7952   -22372.493    107.51718    -22480.01    19242.664 
   42400    262.57331   -22373.221    100.18319   -22473.405    6619.3546 
   42600    334.66254   -22355.756    127.68838   -22483.445    22259.308 
   42800    255.85504   -22380.308    97.619875   -22477.928    21998.478 
   43000    300.69453   -22366.828     114.7281   -22481.556   -1368.0223 
   43200    282.27904   -22360.464    107.70179   -22468.166    3030.9811 
   43400      306.853   -22358.436    117.07782   -22475.513   -1243.0684 
   43600    302.36374   -22341.526    115.36498   -22456.891    3828.0088 
   43800    303.67968   -22366.467    115.86706   -22482.334    9802.9107 
   44000    308.10035   -22348.203    117.55374   -22465.757   -8191.4481 
   44200    332.50031   -22324.071    126.86339   -22450.935   -1927.6684 
   44400    273.60724   -22359.055    104.39312   -22463.448   -8156.8288 
   44600    290.47933   -22366.211    110.83055   -22477.042    14446.714 
   44800    328.10649   -22342.565    125.18696   -22467.752   -9679.4563 
   45000     306.9873   -22361.004    117.12907   -22478.133    7363.2932 
   45200    293.54153   -22370.405    111.99892   -22482.404    -11983.39 
   45400    246.54231    -22393.51    94.066661   -22487.576    1612.0802 
   45600    270.70312   -22363.545    103.28507    -22466.83   -57.111383 
   45800    313.70773   -22349.468     119.6932   -22469.162   -19934.004 
   46000    330.16151   -22349.484    125.97104   -22475.455    2782.9973 
   46200     301.5362   -22370.882    115.04923   -22485.931   -3261.9075 
   46400    331.56957   -22343.796    126.50828   -22470.305    8203.0958 
   46600    309.22786   -22356.773    117.98394   -22474.757    9699.9967 
   46800    295.21123   -22363.654    112.63598    -22476.29    17305.501 
   47000    336.73212   -22334.342    128.47801    -22462.82    12200.009 
   47200    301.47082   -22359.749    115.02429   -22474.773   -16480.003 
   47400    306.62879    -22365.22    116.99228   -22482.213    54940.711 
   47600     342.6386   -22334.606     130.7316   -22465.338   -843.40319 
   47800    316.18534   -22351.297    120.63852   -22471.935    366.23813 
   48000    307.82619   -22358.566    117.44914   -22476.015   -12691.929 
   48200    262.95559   -22389.136    100.32905   -22489.465     26109.09 
   48400    313.60563   -22373.671    119.65425   -22493.326    3751.1233 
   48600    307.01103   -22361.854    117.13812   -22478.992    13407.345 
   48800    359.69844   -22334.801    137.24067   -22472.042    6865.7896 
   49000    309.81702   -22343.214    118.20873   -22461.422    285.81188 
   49200    329.98743   -22354.655    125.90462    -22480.56    7750.7985 
   49400    293.85691   -22361.745    112.11925   -22473.864    16451.881 
   49600    301.56275   -22374.544    115.05936   -22489.604   -20427.879 
   49800    261.37349   -22395.786    99.725405   -22495.512    9208.1754 
   50000     292.8276   -22365.115    111.72652   -22476.842    10970.622 
   50200    305.22133   -22380.421    116.45527   -22496.876   -12723.841 
   50400     259.3759   -22390.756    98.963237   -22489.719    954.33981 
   50600    324.42669   -22373.316    123.78296   -22497.099    1231.2207 
   50800    340.33636   -22352.985    129.85319   -22482.839   -12473.605 
   51000     293.2664   -22378.802    111.89394   -22490.696    1039.8935 
   51200    315.99044   -22377.025    120.56416   -22497.589    6895.6612 
   51400    332.14281   -22361.691    126.72699   -22488.418    1100.7197 
   51600    273.38743   -22388.705    104.30925   -22493.014    -2222.124 
   51800    307.30029   -22375.385    117.24849   -22492.633    18994.621 
   52000     339.2365   -22364.715    129.43354   -22494.148   -6307.1452 
   52200    310.34614   -22384.471    118.41061   -22502.882   -14275.992 
   52400    281.62621   -22392.386     107.4527   -22499.838   -5792.8546 
   52600    311.24091   -22367.073      118.752   -22485.825   -34614.531 
   52800    273.76237   -22388.913    104.45231   -22493.365    26090.976 
   53000    281.72986   -22395.162    107.49225   -22502.655    3191.6157 
   53200    318.56958   -22375.664    121.54821   -22497.213   -21565.225 
   53400    293.47657   -22400.814    111.97413   -22512.788    9907.5416 
   53600    256.77766   -22392.831    97.971895   -22490.803   -5875.4822 
   53800    303.36087   -22376.475    115.74543    -22492.22    5912.9025 
   54000    287.33434   -22364.949     109.6306    -22474.58    5272.9876 
   54200    254.67783   -22392.872     97.17072   -22490.043    16915.635 
   54400    297.59031   -22374.999     113.5437   -22488.543   -3905.0585 
   54600    312.24292   -22368.829    119.13432   -22487.963    1139.0829 
   54800    313.98178     -22376.1    119.79776   -22495.898   -11651.885 
   55000    310.33436   -22385.227    118.40611   -22503.633    4472.1751 
   55200    314.98246   -22372.494    120.17957   -22492.674    13783.315 
   55400    313.09498   -22377.614    119.45941   -22497.073    2678.5503 
   55600    263.83959   -22394.621    100.66633   -22495.288   -12825.879 
   55800    325.82498   -22370.966    124.31646   -22495.283   -21544.951 
   56000    321.12503   -22373.637    122.52323    -22496.16     28543.89 
   56200    305.63658   -22384.508    116.61371   -22501.122    12073.476 
   56400    273.59759   -22409.628    104.38943   -22514.017   -16232.343 
   56600    290.52497   -22380.471    110.84797   -22491.319    -7592.868 
   56800    322.35324   -22364.256    122.99184   -22487.247    11266.592 
   57000     300.4939   -22395.968    114.65155    -22510.62    1297.4491 
   57200    302.49959   -22384.667    115.41681   -22500.084    -34071.98 
   57400    312.07304   -22381.571     119.0695    -22500.64   -22745.861 
   57600    314.47522   -22379.889    119.98604   -22499.875   -12967.291 
   57800    323.34756    -22367.46    123.37122   -22490.831    1434.1419 
   58000    359.60002   -22347.506    137.20312   -22484.709   -19030.544 
   58200    286.88061   -22384.262    109.45749   -22493.719   -3663.1615 
   58400    284.67028   -22387.765    108.61415   -22496.379    16145.138 
   58600    299.62638   -22364.488    114.32055   -22478.809    11338.053 
   58800    288.10164   -22396.144    109.92336   -22506.068    2990.9861 
   59000    276.73887   -22380.578    105.58797   -22486.166    10278.046 
   59200     312.5058   -22365.943    119.23461   -22485.178    20029.732 
   59400    290.79154   -22380.512    110.94968   -22491.461    5858.5292 
   59600    294.75618   -22388.486    112.46236   -22500.948   -15314.772 
   59800    345.27013   -22366.028    131.73564   -22497.764    27724.662 
   60000     276.0997   -22384.077     105.3441   -22489.421   -27559.662 
   60200    286.42218     -22382.6    109.28257   -22491.882    -13136.49 
   60400    347.36336    -22370.08     132.5343   -22502.614    11482.942 
   60600    299.57664   -22396.463    114.30158   -22510.764    18987.589 
   60800    311.55932   -22396.803    118.87349   -22515.677   -10330.681 
   61000    303.15295   -22388.269     115.6661   -22503.935   -3341.5518 
   61200     302.6821   -22380.171    115.48644   -22495.658    1454.1627 
   61400    283.28135   -22404.716    108.08421     -22512.8    -21966.21 
   61600    312.49311   -22383.838    119.22977   -22503.068    18022.766 
   61800    288.73438   -22391.748    110.16478   -22501.913   -100.66941 
   62000    283.45291   -22396.577    108.14967   -22504.726    5845.9645 
   62200    331.72907   -22391.231    126.56913     -22517.8   -7244.5935 
   62400    334.00256   -22380.741    127.43657   -22508.178   -2587.9848 
   62600    300.60535   -22407.327    114.69407   -22522.021     12447.32 
   62800    306.22142   -22394.574    116.83685   -22511.411   -15795.135 
   63000    296.16022   -22392.283    112.99806   -22505.281    18810.396 
   63200    280.43141   -22397.526    106.99684   -22504.523    6493.0928 
   63400    329.60305   -22381.997    125.75796   -22507.755    7055.9643 
   63600    300.14957   -22393.484    114.52017   -22508.004   -9906.0222 
   63800    286.78191   -22407.388    109.41983   -22516.808   -12900.402 
   64000    353.33802   -22382.267    134.81389   -22517.081   -4766.6551 
   64200    292.36194   -22387.919    111.54885   -22499.468    4210.2715 
   64400    284.84965     -22405.1    108.68259   -22513.783    9814.7291 
   64600    326.23717   -22380.332    124.47373   -22504.806    3726.7804 
   64800    275.34486   -22401.259    105.05609   -22506.316     2376.586 
   65000    255.10624   -22402.028    97.334175   -22499.362    4477.2301 
   65200    338.27201   -22379.651    129.06555   -22508.716    2135.6735 
   65400    278.23058   -22401.384    106.15712   -22507.541    2435.5638 
   65600    322.50465    -22405.56    123.04961    -22528.61    17518.506 
   65800    323.31586   -22388.631    123.35912    -22511.99    13219.116 
   66000    295.98635   -22398.274    112.93172   -22511.205    20837.541 
   66200    287.35538   -22404.839    109.63863   -22514.478   -7864.0816 
   66400    333.22159   -22380.255    127.13859   -22507.394   -6540.3083 
   66600    275.03061   -22400.088    104.93619   -22505.024   -4188.6692 
   66800    293.93942   -22394.105    112.15073   -22506.255    1741.9231 
   67000    314.61063   -22373.225     120.0377   -22493.262    2405.6626 
   67200    316.15335   -22401.514    120.62632   -22522.141   -752.92836 
   67400    320.69995   -22399.958    122.36104   -22522.319   -11266.457 
   67600    342.13299   -22374.452    130.53868    -22504.99   -10530.216 
   67800    279.48343   -22399.538    106.63514   -22506.173   -2459.3307 
   68000    311.04901   -22392.405    118.67878   -22511.084   -14958.876 
   68200    321.54932   -22377.503    122.68511   -22500.188    16635.304 
   68400    297.70374   -22404.404    113.58698   -22517.991   -14752.605 
   68600    297.15574   -22407.979     113.3779   -22521.357   -11254.301 
   68800    317.07504   -22381.819    120.97798   -22502.797   -8822.8874 
   69000    308.58095   -22400.132    117.73711    -22517.87    12674.314 
   69200    275.76534   -22402.382    105.21652   -22507.598    6262.6181 
   69400    287.11656   -22398.544    109.54751   -22508.092    11092.087 
   69600    316.35136   -22390.601    120.70186   -22511.303    25752.815 
   69800    319.59078   -22374.383    121.93785   -22496.321    2614.9646 
   70000     264.9896   -22400.897    101.10511   -22502.003   -16453.769 
   70200    289.08271   -22390.573    110.29768   -22500.871    13603.052 
   70400    343.05778   -22369.039    130.89153    -22499.93    4436.3097 
   70600    315.05904   -22391.138    120.20879   -22511.347    -5201.013 
   70800    282.06326   -22399.095    107.61945   -22506.715    5063.2803 
   71000    369.49293   -22373.666    140.97769   -22514.643    4854.3213 
   71200    317.29874   -22397.593    121.06333   -22518.656   -5293.0648 
   71400     301.7265   -22399.633    115.12184   -22514.755   -6127.9846 
   71600     313.1313   -22378.269    119.47327   -22497.742    19145.263 
   71800    276.21614   -22383.292    105.38852   -22488.681    3807.7913 
   72000    287.66746   -22400.071     109.7577   -22509.829    46902.349 
   72200     302.2394    -22378.52    115.31754   -22493.838    42120.098 
   72400     330.3748   -22376.693    126.05242   -22502.746     11104.42 
   72600    278.54074   -22401.358    106.27546   -22507.633    4452.6489 
   72800    302.21117   -22378.362    115.30676   -22493.669    3729.8108 
   73000    316.97271   -22397.057    120.93894   -22517.996   -3927.1084 
   73200     287.9155   -22404.276    109.85234   -22514.128   -24188.201 
   73400    326.65868   -22382.453    124.63456   -22507.088   -13795.597 
   73600    305.09862    -22408.68    116.40845   -22525.088    19445.721 
   73800    290.16093   -22400.364    110.70907   -22511.073   -1953.7713 
   74000    338.51064   -22385.541     129.1566   -22514.697   -1459.2889 
   74200    264.13192   -22419.171    100.77787   -22519.949    26537.098 
   74400    314.16867   -22397.758    119.86907   -22517.627   -10290.881 
   74600    310.16086   -22392.656    118.33992   -22510.996     3053.395 
   74800    310.68855    -22391.56    118.54125   -22510.102    15335.804 
   75000     294.2437   -22393.449    112.26682   -22505.716   -19169.848 
   75200    318.18326   -22368.768    121.40082   -22490.169    29298.878 
   75400    295.12711   -22395.644    112.60388   -22508.248    4114.0701 
   75600    316.63655   -22393.902    120.81068   -22514.713   -11163.705 
   75800    312.45209   -22386.736    119.21412    -22505.95    16661.725 
   76000    296.62808   -22392.952    113.17657   -22506.129    6505.7051 
   76200    251.61235   -22410.709    96.001102    -22506.71    2629.1086 
   76400    286.76555   -22393.302    109.41359   -22502.716    1705.4718 
   76600    302.71442   -22399.495    115.49878   -22514.994   -17555.866 
   76800    305.95844   -22382.708    116.73651   -22499.444    16066.617 
   77000    303.88983    -22377.96    115.94725   -22493.907    3525.4097 
   77200    324.56336   -22391.226     123.8351   -22515.061    2923.9995 
   77400    309.60015   -22398.271    118.12598   -22516.397    29088.739 
   77600      272.632   -22418.387    104.02102   -22522.408      6337.07 
   77800    310.92624    -22388.64    118.63195   -22507.272    17934.644 
   78000    321.24176   -22388.467    122.56777   -22511.035    3407.6707 
   78200    259.28343   -22406.455    98.927957   -22505.383   -1617.7301 
   78400    319.95054   -22392.126    122.07511   -22514.201    11056.275 
   78600    318.73607   -22386.555    121.61173   -22508.167   -21760.995 
   78800    293.70711   -22403.447    112.06209   -22515.509    17079.523 
   79000    273.10372   -22387.408      104.201   -22491.609   -20632.833 
   79200    366.17418   -22374.926    139.71145   -22514.638    7869.6497 
   79400    290.95272   -22409.252    111.01117   -22520.263   -1578.9742 
   79600    307.73441   -22398.333    117.41412   -22515.747   -8041.5942 
   79800    334.99906   -22382.281    127.81677   -22510.098    25553.231 
   80000    261.28556   -22411.142    99.691857   -22510.834   -13317.839 
   80200    286.13581   -22388.757    109.17331   -22497.931    49893.175 
   80400    314.21521   -22388.045    119.88683   -22507.932     -14937.8 
   80600     268.1005   -22413.451    102.29205   -22515.743    31766.258 
   80800    308.60684    -22391.26    117.74699   -22509.007   -5196.9118 
   81000    301.04996   -22383.512    114.86371   -22498.376    5899.4389 
   81200    278.79484   -22407.623    106.37241   -22513.995    3714.6409 
   81400    310.57868   -22395.219    118.49934   -22513.718   -12832.152 
   81600    323.49636   -22388.225      123.428   -22511.653   -4468.5002 
   81800     287.8848   -22403.883    109.84063   -22513.723     10550.03 
   82000    357.69981   -22384.705     136.4781   -22521.183    9290.7473 
   82200    296.76027   -22407.076    113.22701   -22520.303   -8675.9609 
   82400    282.17414   -22404.677    107.66176   -22512.339     9674.963 
   82600    303.13793   -22386.852    115.66036   -22502.512     8490.567 
   82800    308.64219    -22382.95    117.76048    -22500.71   -15502.409 
   83000    290.45343   -22406.874    110.82067   -22517.694   -15990.814 
   83200     301.1053   -22383.273    114.88483   -22498.157    -1213.869 
   83400    312.21173   -22391.477    119.12242     -22510.6    3279.9901 
   83600     297.2586   -22407.839    113.41714   -22521.257   -15114.166 
   83800    290.32589   -22414.995    110.77201   -22525.767   -3446.5648 
   84000    307.77153   -22384.462    117.42828   -22501.891   -10307.033 
   84200    338.77787   -22397.318    129.25856   -22526.576    7199.7921 
   84400    282.12665   -22409.824    107.64364   -22517.468    12293.442 
   84600    296.41023    -22398.32    113.09345   -22511.413    26527.032 
   84800    323.95031   -22381.086    123.60119   -22504.687    2124.3623 
   85000    361.65106   -22379.499    137.98568   -22517.485   -17178.219 
   85200    293.52982   -22411.788    111.99445   -22523.783   -1154.6818 
   85400    298.06313   -22414.077     113.7241   -22527.801    14025.428 
   85600    359.54352   -22389.496    137.18156   -22526.678   -10114.631 
   85800    324.37314   -22409.397    123.76252   -22533.159    17303.542 
   86000    303.79826    -22412.23    115.91231   -22528.143   -10581.523 
   86200    280.02538   -22427.027    106.84191   -22533.869     1713.656 
   86400    295.44421   -22407.248    112.72487   -22519.973   -8764.8333 
   86600    326.46066   -22407.423      124.559   -22531.982    28349.596 
   86800    301.45431   -22429.497    115.01799   -22544.515    11088.424 
   87000    270.75275   -22412.137      103.304   -22515.441    25939.301 
   87200    309.30053   -22397.912    118.01167   -22515.924    5260.4016 
   87400    309.94729   -22424.346    118.25843   -22542.604    12108.667 
   87600    282.35926   -22420.185    107.73239   -22527.917    5753.9292 
   87800     274.8337   -22413.376    104.86106   -22518.237   -18816.894 
   88000    337.96927    -22392.76    128.95004    -22521.71    7985.3337 
   88200      311.082   -22386.101    118.69137   -22504.792    8347.1782 
   88400    293.02346    -22413.75    111.80125   -22525.551    -11369.53 
   88600    307.58399   -22415.204    117.35673   -22532.561   -16077.305 
   88800    316.43011   -22390.101    120.73191   -22510.833    -9102.457 
   89000     325.5034   -22411.242    124.19377   -22535.436   -42.550458 
   89200    324.91718   -22413.907     123.9701   -22537.877    37025.007 
   89400    315.13896   -22416.545    120.23928   -22536.784    301.62356 
   89600    302.87104   -22413.768    115.55853   -22529.326    4362.8788 
   89800    282.78212   -22433.804    107.89373   -22541.698   -370.04793 
   90000    295.09952   -22410.908    112.59336   -22523.501    16945.498 
   90200      313.928   -22410.079    119.77725   -22529.856     23018.24 
   90400    260.08735   -22429.311    99.234687   -22528.546    -16234.02 
   90600    312.50589   -22406.885    119.23465    -22526.12   -11370.029 
   90800    320.84402   -22401.136    122.41601   -22523.552   -22332.508 
   91000    274.23242   -22427.223    104.63165   -22531.855   -39620.885 
   91200    330.03407   -22400.897    125.92242   -22526.819    15212.523 
   91400    282.34095   -22411.592    107.72541   -22519.317     15475.16 
   91600    267.49811   -22421.324    102.06222   -22523.386    -23080.33 
   91800    328.76899   -22392.403    125.43973   -22517.843    -10659.09 
   92000    311.74878   -22410.732    118.94578   -22529.677    25376.618 
   92200    277.39431   -22418.802    105.83805    -22524.64    7694.6878 
   92400    250.21689   -22434.471    95.468674    -22529.94   -5015.1289 
   92600    328.94627   -22405.198    125.50737   -22530.706    21359.639 
   92800     334.7972   -22406.635    127.73976   -22534.375   -14356.786 
   93000    270.43096   -22424.842    103.18123   -22528.023   -34266.883 
   93200     270.3978   -22411.067    103.16857   -22514.235     11988.96 
   93400     296.9727   -22403.524    113.30806   -22516.832   -10057.953 
   93600    264.74388   -22433.323    101.01136   -22534.334   -20228.826 
   93800    310.14384   -22411.647    118.33342    -22529.98    7444.7038 
   94000    326.43063   -22415.418    124.54754   -22539.965    4461.2488 
   94200    289.89612   -22431.923    110.60803   -22542.531    9716.6765 
   94400    317.23426    -22409.33    121.03873   -22530.369    11740.466 
   94600    316.98605   -22406.772    120.94403   -22527.716    20638.101 
   94800    289.77824   -22428.447    110.56306    -22539.01    18547.236 
   95000    303.58097    -22406.77     115.8294     -22522.6    19070.851 
   95200    292.71295   -22404.072    111.68278   -22515.755    17467.411 
   95400     307.7363    -22426.08    117.41484   -22543.495   -6841.2231 
   95600    335.90673   -22392.345    128.16309   -22520.508   -5150.8721 
   95800    314.33118    -22417.01    119.93108   -22536.941   -17723.489 
   96000    299.43767    -22415.88    114.24855   -22530.128    1095.3772 
   96200     338.2848   -22388.188    129.07043   -22517.259    3554.0972 
   96400    257.02552   -22419.463    98.066466   -22517.529    2776.9583 
   96600     305.9032   -22405.426    116.71543   -22522.142   -11041.547 
   96800    326.17881   -22389.978    124.45147   -22514.429      14065.9 
   97000    252.42699   -22420.141    96.311925   -22516.453   -14204.012 
   97200    326.40429   -22402.262     124.5375     -22526.8    18133.504 
   97400    333.44156   -22396.755    127.22252   -22523.978   -15488.332 
   97600    297.63241   -22414.715    113.55977   -22528.275    8694.8674 
   97800     329.7535   -22403.248    125.81537   -22529.064   -21934.825 
   98000    262.19644   -22430.832     100.0394   -22530.871    7743.5888 
   98200    313.46412    -22411.92    119.60026    -22531.52    15622.054 
   98400    293.75218   -22411.625    112.07929   -22523.704   -13939.688 
   98600    240.77913   -22430.697    91.867758   -22522.565   -11830.931 
   98800    310.72693   -22401.905     118.5559   -22520.461      9081.78 
   99000    312.19394   -22411.894    119.11563   -22531.009   -1725.8489 
   99200    238.87068   -22436.918    91.139602   -22528.058    77.600848 
   99400    267.67422   -22412.369    102.12941   -22514.498    1670.3099 
   99600    331.01009   -22407.406    126.29481   -22533.701    3664.4484 
   99800    299.91571   -22431.686    114.43095   -22546.117   -8076.4038 
  100000    301.15243   -22422.857    114.90281    -22537.76   -6967.5506 
  100200    300.20438   -22415.584    114.54108   -22530.125    398.33649 
  100400      335.635   -22390.045    128.05942   -22518.104    10664.346 
  100600     277.9125   -22424.795    106.03576   -22530.831   -28427.959 
  100800    294.72638   -22408.929    112.45099    -22521.38   -3863.5327 
  101000    302.56186   -22398.742    115.44057   -22514.182   -15133.804 
  101200    295.29406   -22426.804    112.66759   -22539.472   -1836.8413 
  101400    290.11754   -22408.383    110.69252   -22519.076   -4386.0907 
  101600    304.82551   -22408.574    116.30425   -22524.879   -27232.024 
  101800    298.43048   -22415.906    113.86427    -22529.77    3342.6677 
  102000    256.64058   -22428.497    97.919594   -22526.417    1448.7687 
  102200    282.95989   -22407.433    107.96156   -22515.394    -7165.652 
  102400    288.84031   -22413.006     110.2052   -22523.212   -7595.6328 
  102600    291.94198    -22425.35    111.38862   -22536.738    29784.635 
  102800    333.73632   -22403.505    127.33498    -22530.84    28498.245 
  103000    294.28293   -22401.048     112.2818    -22513.33    8452.3515 
  103200    270.26337   -22414.675    103.11728   -22517.792    5787.9855 
  103400    274.93252   -22422.276    104.89877   -22527.175   -26480.254 
  103600    314.74331   -22401.664    120.08832   -22521.752   -2288.1736 
  103800    253.46126   -22430.954    96.706545   -22527.661   -8203.1686 
  104000    279.87137    -22421.44    106.78316   -22528.223   -15605.376 
  104200    308.91581   -22412.348    117.86488   -22530.213    8608.8958 
  104400    287.79691   -22436.071    109.80709   -22545.879   -4390.9872 
  104600    297.10936   -22420.017     113.3602   -22533.377   -15938.507 
  104800    290.16546   -22414.312     110.7108   -22525.023    2057.6439 
  105000     317.7314   -22405.928    121.22841   -22527.156    -10418.89 
  105200    322.63093   -22395.106     123.0978   -22518.204   -5671.4947 
  105400    273.21671    -22424.72    104.24411   -22528.964     3650.066 
  105600     315.6996   -22405.599    120.45319   -22526.052    29182.144 
  105800    329.06565   -22390.164    125.55292   -22515.717   -25946.343 
  106000    274.02568   -22421.287    104.55277    -22525.84   -23575.459 
  106200    340.60562   -22403.104    129.95592    -22533.06   -18076.488 
  106400    271.29994    -22426.37    103.51278   -22529.883    5639.1448 
  106600    286.17635   -22418.787    109.18878   -22527.976    15403.982 
  106800    301.34144   -22409.633    114.97492   -22524.608    12893.695 
  107000    263.38237   -22416.109    100.49188   -22516.601   -5406.1536 
  107200    258.77638   -22426.966    98.734492     -22525.7   -6738.0341 
  107400    299.53507   -22401.293    114.28571   -22515.579   -21078.518 
  107600    285.69536   -22411.307    109.00526   -22520.313    -44408.52 
  107800    248.22016   -22432.091    94.706835   -22526.798   -3895.4063 
  108000    329.96402   -22401.851    125.89569   -22527.746    8286.1848 
  108200    279.82271   -22421.461    106.76459   -22528.226    6932.6671 
  108400    291.04707    -22423.24    111.04717   -22534.287    18842.964 
  108600    323.79906   -22400.337    123.54349   -22523.881    16601.388 
  108800     273.3306   -22425.397    104.28757   -22529.685   -379.17886 
  109000    304.94551   -22402.027    116.35003   -22518.377     20212.72 
  109200    292.93719   -22403.997    111.76833   -22515.766   -22611.479 
  109400     256.8133   -22421.283    97.985492   -22519.268   -11364.815 
  109600    327.01066   -22391.731    124.76885     -22516.5    10758.029 
  109800    291.89988   -22396.512    111.37256   -22507.885   -1344.2936 
  110000    298.10406    -22423.84    113.73972   -22537.579    16613.552 
  110200    298.05016   -22425.574    113.71916   -22539.293    542.62075 
  110400    336.24887   -22392.647    128.29363   -22520.941    7847.6856 
  110600    323.55397   -22408.237    123.44997   -22531.687   -26822.282 
  110800    294.43038   -22424.756    112.33805   -22537.094   -6521.7101 
  111000    330.49807   -22400.973    126.09945   -22527.073    14253.295 
  111200    297.54082   -22399.858    113.52482   -22513.383   -19639.238 
  111400    286.06626   -22424.818    109.14678   -22533.965   -22030.437 
  111600    299.71639   -22422.645     114.3549       -22537    6612.1898 
  111800    292.35475   -22405.283    111.54611   -22516.829    9251.9985 
  112000    308.95748   -22400.876    117.88078   -22518.757    21775.691 
  112200    284.90777   -22429.675    108.70476    -22538.38   -10081.465 
  112400    316.14432   -22412.568    120.62287   -22533.191    20094.534 
  112600    295.10879   -22414.386     112.5969   -22526.983    8397.0657 
  112800    296.50019   -22422.573    113.12777   -22535.701    5568.4402 
  113000    331.06153    -22395.45    126.31444   -22521.764   -10652.226 
  113200    290.39463   -22415.911    110.79824   -22526.709    -13364.86 
  113400    271.35269   -22417.776    103.53291   -22521.309    5846.6128 
  113600    288.06046   -22403.462    109.90765   -22513.369    8788.1252 
  113800    291.87742   -22408.098    111.36399   -22519.462   -16510.428 
  114000    288.55203   -22416.967     110.0952   -22527.062    5770.4924 
  114200    335.30674   -22393.438    127.93417   -22521.373    7446.3067 
  114400    320.89848   -22412.038    122.43679   -22534.475    3914.6548 
  114600    309.61034   -22418.183    118.12987   -22536.313    4207.7209 
  114800     269.5131    -22435.15    102.83102   -22537.981   -2356.5197 
  115000    293.45587   -22418.092    111.96624   -22530.059    -5023.544 
  115200    296.74052   -22411.348    113.21947   -22524.568    32973.044 
  115400    265.55028   -22426.673    101.31903   -22527.992    26212.401 
  115600    349.80909   -22402.293    133.46745    -22535.76   -18877.127 
  115800    312.97533   -22413.959    119.41376   -22533.373   -32655.244 
  116000      279.455   -22415.422    106.62429   -22522.047    17058.098 
  116200    307.40657   -22400.684    117.28904   -22517.973    28439.219 
  116400    285.00236   -22425.355    108.74085   -22534.096   -17097.815 
  116600    289.81522   -22421.404    110.57717   -22531.981    9282.9659 
  116800    265.32748   -22415.067    101.23402   -22516.301   -991.85042 
  117000    292.41178   -22411.428    111.56787   -22522.996   -10320.876 
  117200    335.90154   -22401.351    128.16111   -22529.512    24131.448 
  117400    300.00569   -22414.512    114.46528   -22528.977   -1570.7037 
  117600    306.66264   -22418.189    117.00519   -22535.194   -21011.497 
  117800    314.12543   -22395.586    119.85257   -22515.439    4486.5457 
  118000    292.08976   -22416.139      111.445   -22527.584   -24765.577 
  118200    303.93007   -22404.538     115.9626   -22520.501     13381.54 
  118400    323.87838   -22387.324    123.57375   -22510.898   -17930.106 
  118600    308.53386   -22413.969    117.71915   -22531.688   -24989.715 
  118800    288.08558   -22419.757    109.91724   -22529.674    11354.621 
  119000    311.71037   -22391.805    118.93112   -22510.736   -4670.5093 
  119200    290.30892   -22410.992    110.76553   -22521.757    -16258.29 
  119400    280.95454   -22422.231    107.19643   -22529.427   -9911.0078 
  119600    323.34893   -22402.599    123.37174    -22525.97     11368.43 
  119800    325.34298   -22394.734    124.13256   -22518.866   -12729.613 
  120000    262.49312   -22418.215    100.15259   -22518.368   -18652.481 
  120200    286.81448   -22417.123    109.43226   -22526.555    -4587.369 
  120400     325.3846   -22398.108    124.14844   -22522.257    11803.818 
  120600    336.32727   -22416.923    128.32355   -22545.246    17023.815 
  120800     294.0616    -22434.52    112.19735   -22546.717   -14394.146 
  121000    288.63859   -22432.096    110.12823   -22542.225   -20815.867 
  121200    308.77915   -22409.303    117.81273   -22527.116   -17554.736 
  121400    305.84867   -22402.515    116.69463    -22519.21   -1949.1635 
  121600    297.91921   -22413.708    113.66919   -22527.377    2168.8967 
  121800    304.01019   -22413.616    115.99317   -22529.609    12352.364 
  122000     352.2538   -22393.879    134.40021   -22528.279    23302.758 
  122200    302.39865   -22418.996     115.3783   -22534.375   -7652.5273 
  122400    298.98593   -22415.262    114.07619   -22529.338    6799.8997 
  122600    342.67139   -22385.472     130.7441   -22516.216   -3221.3437 
  122800    300.03828   -22412.632    114.47771   -22527.109    5388.2011 
  123000    252.51884   -22419.904    96.346967   -22516.251    35964.177 
  123200    329.46195   -22397.438    125.70413   -22523.142    2370.0974 
  123400    274.94513   -22409.549    104.90358   -22514.453   -10760.957 
  123600    290.26372   -22416.073    110.74829   -22526.821    4044.0319 
  123800    334.50657   -22406.555    127.62887   -22534.184   -9994.9534 
  124000    311.07106   -22399.188     118.6872   -22517.875   -8797.8853 
  124200    293.08126   -22406.153     111.8233   -22517.976   -5871.8805 
  124400    269.36647   -22423.462    102.77508   -22526.238   -9014.9344 
  124600    305.64257   -22391.919    116.61599   -22508.535    9248.2186 
  124800    286.83026   -22413.117    109.43827   -22522.555   -862.01918 
  125000    326.83548   -22417.018    124.70202    -22541.72    3853.6872 
  125200    329.84219   -22390.712     125.8492   -22516.561     14073.91 
  125400     291.5124   -22407.482    111.22471   -22518.706   -7420.6402 
  125600    306.00849   -22417.476    116.75561   -22534.231   -767.10719 
  125800    313.65514   -22398.274    119.67314   -22517.947    -9191.186 
  126000    299.28007   -22402.963    114.18842   -22517.152    1041.8086 
  126200    277.53797   -22416.941    105.89286   -22522.834    11211.399 
  126400    292.48037    -22414.65    111.59404   -22526.244   -22281.713 
  126600    339.00622   -22398.875    129.34568   -22528.221   -12772.044 
  126800    283.87126    -22417.25    108.30929   -22525.559   -667.64365 
  127000    301.26403   -22419.633    114.94539   -22534.579    10879.818 
  127200    323.33086   -22392.172    123.36485   -22515.537    25780.712 
  127400    298.38445   -22408.034     113.8467   -22521.881   -5792.1154 
  127600    308.84325   -22420.748    117.83719   -22538.585   -17402.612 
  127800    330.25217   -22398.379    126.00563   -22524.384   -25462.814 
  128000    313.08377   -22409.086    119.45514   -22528.541    -222.9559 
  128200    271.13226   -22420.141     103.4488    -22523.59   -6208.2069 
  128400    282.87624   -22412.939    107.92964   -22520.869   -12603.519 
  128600    308.81419    -22392.19     117.8261   -22510.016    25005.421 
  128800    272.83402   -22415.384     104.0981   -22519.483   -22356.858 
  129000    311.60812   -22412.272    118.89211   -22531.164   -10179.368 
  129200    283.07664   -22403.057     108.0061   -22511.063    563.07626 
  129400     264.0439   -22427.991    100.74428   -22528.735    123.02578 
  129600    301.60819   -22401.884     115.0767   -22516.961    927.82957 
  129800    283.19643   -22412.126    108.05181   -22520.178    6201.8243 
  130000    284.49623    -22426.45    108.54774   -22534.997   -69.412391 
  130200    320.71135   -22409.358    122.36539   -22531.724    4968.0164 
  130400    316.20304   -22413.157    120.64527   -22533.803   -17463.321 
  130600    304.30228   -22411.152    116.10461   -22527.256    1754.1883 
  130800    306.83773   -22400.542      117.072   -22517.614    11205.629 
  131000    294.53732   -22427.742    112.37885   -22540.121   -8307.4227 
  131200    269.26065   -22405.573     102.7347   -22508.308   -24103.619 
  131400    329.77734   -22407.876    125.82446     -22533.7   -16385.918 
  131600    294.98324    -22415.34    112.54899   -22527.889    14568.568 
  131800    247.45868   -22435.182    94.416295   -22529.598   -17937.802 
  132000    306.15861   -22409.846    116.81288   -22526.659    19276.535 
  132200    323.54094     -22408.5      123.445   -22531.945    21892.992 
  132400    263.35802   -22426.195    100.48259   -22526.677   -9852.9402 
  132600    320.00493   -22399.085    122.09586   -22521.181    12007.292 
  132800     293.3968   -22419.313     111.9437   -22531.256   -7703.9101 
  133000    304.04006   -22424.108    116.00456   -22540.113    16388.758 
  133200    366.99889   -22395.511    140.02611   -22535.537    8261.3592 
  133400    285.80451   -22414.864    109.04691   -22523.911    24623.241 
  133600    305.69205   -22421.073    116.63487   -22537.707   -13177.716 
  133800    272.94357   -22414.772    104.13989   -22518.912    15305.777 
  134000      310.026   -22397.994    118.28846   -22516.283     4544.477 
  134200    324.28458   -22389.689    123.72874   -22513.418   -10989.185 
  134400    318.45655   -22412.246    121.50509   -22533.751    17771.992 
  134600       297.11   -22407.874    113.36044   -22521.235   -25937.666 
  134800    328.60559   -22385.621    125.37739   -22510.998    5590.4982 
  135000    260.22551   -22415.231    99.287401   -22514.519    12731.818 
  135200    287.52859   -22402.164    109.70472   -22511.869    -6886.505 
  135400    293.36065   -22419.679     111.9299   -22531.609    19233.677 
  135600     295.4193   -22422.203    112.71537   -22534.918    2839.6434 
  135800    321.15806   -22402.011    122.53583   -22524.547    13467.614 
  136000    265.81175   -22424.029     101.4188   -22525.448   -18444.393 
  136200    280.85857   -22429.819    107.15981   -22536.979   -17399.352 
  136400    311.29234   -22409.899    118.77163   -22528.671   -12994.605 
  136600    311.26795   -22401.886    118.76232   -22520.649   -9674.8359 
  136800    267.33699   -22427.055    102.00074   -22529.056   -18068.546 
  137000    295.79218    -22406.57    112.85764   -22519.427   -18457.849 
  137200    311.66403   -22412.499    118.91344   -22531.412    40232.967 
  137400     280.2446   -22433.865    106.92556    -22540.79   -87.849022 
  137600    319.84544   -22411.852    122.03501   -22533.887    7930.0066 
  137800     318.7806   -22402.276    121.62873   -22523.905   -18994.806 
  138000    283.29989   -22428.517    108.09129   -22536.609   -39860.658 
  138200     281.9833   -22412.686    107.58895   -22520.275   -11286.197 
  138400    313.44544   -22410.018    119.59313   -22529.611    19734.734 
  138600    287.79796   -22422.876     109.8075   -22532.683   -9054.4578 
  138800    294.42676   -22409.467    112.33667   -22521.804   -2127.0828 
  139000    307.54086   -22403.804    117.34027   -22521.144    8153.2778 
  139200    306.87937    -22421.29    117.08789   -22538.377    8341.3925 
  139400    300.83215   -22413.292    114.78061   -22528.073   -29584.209 
  139600    367.75015   -22383.565    140.31275   -22523.878    2184.1258 
  139800    275.88739   -22400.654    105.26309   -22505.917   -4664.3228 
  140000    300.00629   -22410.729    114.46551   -22525.194   -9723.1643 
  140200    298.25305     -22408.9    113.79657   -22522.696    31397.352 
  140400    320.63878   -22390.571     122.3377   -22512.908    20321.431 
  140600    293.19619   -22416.349    111.86716   -22528.216   -11286.293 
  140800     301.8837   -22416.086    115.18182   -22531.268    7074.4388 
  141000    313.88953   -22402.459    119.76257   -22522.221   -9378.4537 
  141200    256.04687   -22434.886    97.693068   -22532.579   -2661.2802 
  141400    311.88867    -22407.64    118.99915   -22526.639   -910.93463 
  141600    319.80103   -22406.244    122.01806   -22528.262    -3883.688 
  141800    269.59242   -22433.427    102.86129   -22536.288    36090.507 
  142000    288.69153   -22413.892    110.14843   -22524.041     19564.51 
  142200     293.4832   -22408.087    111.97666   -22520.064   -544.47965 
  142400    315.61136   -22402.836    120.41952   -22523.255   -8111.2037 
  142600    267.86345   -22428.249    102.20161    -22530.45    24945.357 
  142800    298.15235   -22408.262    113.75815    -22522.02   -12265.631 
  143000     314.7385   -22415.062    120.08649   -22535.148   -8103.9485 
  143200    280.49088   -22419.345    107.01952   -22526.365    17818.963 
  143400    291.53535   -22416.319    111.23347   -22527.552   -8045.7773 
  143600    324.08199   -22400.378    123.65144   -22524.029   -11201.283 
  143800     261.6431   -22429.457    99.828275   -22529.285   -1805.3351 
  144000     293.8601   -22413.119    112.12047   -22525.239   -8801.4483 
  144200    304.01212   -22409.356     115.9939    -22525.35   -4378.8032 
  144400    306.92399   -22407.719    117.10491   -22524.824   -1047.4967 
  144600    323.17585   -22385.442     123.3057   -22508.747     11037.25 
  144800    312.32802   -22411.153    119.16678   -22530.319     19261.64 
  145000    287.14264   -22417.396    109.55746   -22526.953   -27468.873 
  145200    345.07966   -22385.372    131.66296   -22517.035    3718.4702 
  145400    321.48495   -22405.168    122.66055   -22527.829    4806.9932 
  145600    260.55504   -22410.373    99.413132   -22509.786   -15837.331 
  145800     343.0376   -22383.337    130.88383   -22514.221   -1747.7668 
  146000    325.66993   -22401.585    124.25731   -22525.842    12285.953 
  146200    268.39352   -22416.161    102.40385   -22518.565     42796.31 
  146400    280.42711   -22428.816    106.99519   -22535.811   -862.45033 
  146600    282.47697   -22410.089    107.77731   -22517.866   -12160.549 
  146800    316.92183   -22400.333    120.91952   -22521.253    18543.611 
  147000    290.26803   -22427.983    110.74993   -22538.733    1581.8792 
  147200    285.54625   -22420.874    108.94837   -22529.822    -14565.44 
  147400    320.81199   -22402.872    122.40379   -22525.276    45.687034 
  147600    326.97121   -22387.574     124.7538   -22512.328   -17117.445 
  147800     279.9277   -22414.182    106.80465   -22520.987    26637.528 
  148000    268.16234   -22420.387    102.31565   -22522.703     -42317.2 
  148200    337.53656   -22392.992    128.78494   -22521.776   -21841.862 
  148400    307.71629       -22419    117.40721   -22536.407   -7130.0392 
  148600    299.50039   -22414.504    114.27248   -22528.777    1468.0946 
  148800    340.85523   -22390.777    130.05116   -22520.828    4598.7831 
  149000    280.33038   -22421.971    106.95829    -22528.93   -5745.0062 
  149200     310.0212   -22409.921    118.28663   -22528.207    640.18984 
  149400    307.61895   -22397.391    117.37007   -22514.761    9769.6547 
  149600    296.77338   -22408.895    113.23201   -22522.127   -585.91882 
  149800    287.90958   -22420.795    109.85008   -22530.645   -9571.1497 
  150000    318.87945   -22395.297    121.66644   -22516.963   -21510.318 
  150200    311.70771   -22414.514    118.93011   -22533.444   -18206.195 
  150400    328.12726   -22403.235    125.19489    -22528.43    4168.0353 
  150600    311.98103   -22383.279    119.03439   -22502.314    7320.3492 
  150800    298.06025    -22413.46    113.72301   -22527.183    14487.051 
  151000    301.70743   -22404.505    115.11457    -22519.62   -17353.771 
  151200    343.71954   -22387.301    131.14402   -22518.445    10647.951 
  151400    270.92146   -22419.771    103.36837   -22523.139   -27233.122 
  151600    287.00762   -22406.235    109.50595   -22515.741   -7444.7184 
  151800     333.1131   -22393.289     127.0972   -22520.386    838.20038 
  152000    267.82536   -22422.192    102.18707   -22524.379    11387.603 
  152200    310.52856   -22401.591    118.48021   -22520.071   -9460.8883 
  152400    255.21654   -22424.694    97.376258   -22522.071      17571.4 
  152600    304.04506   -22416.409    116.00647   -22532.416    5778.0617 
  152800    310.60255   -22405.835    118.50844   -22524.344    2539.0631 
  153000    307.05882   -22424.383    117.15635   -22541.539   -14787.687 
  153200    273.41751   -22425.454    104.32073   -22529.775   -7147.3822 
  153400    316.02991   -22411.195    120.57922   -22531.774   -3400.6638 
  153600    278.76472   -22429.464    106.36092   -22535.825   -7243.1284 
  153800     282.6338   -22430.582    107.83714   -22538.419   -16756.634 
  154000    299.91078   -22411.256    114.42906   -22525.685      9377.94 
  154200    293.62452   -22424.418    112.03058   -22536.449    569.72618 
  154400    317.38733   -22410.207    121.09713   -22531.304    -8646.213 
  154600    303.67793   -22399.314     115.8664    -22515.18    9036.9729 
  154800    263.31839   -22425.247    100.46747   -22525.714   -4267.2459 
  155000    303.56577   -22407.547     115.8236   -22523.371    16947.315 
  155200    316.85125   -22404.717    120.89259   -22525.609   -10494.122 
  155400    280.25299   -22426.735    106.92876   -22533.663   -14272.402 
  155600    312.44507   -22404.567    119.21144   -22523.779    18109.135 
  155800    271.81706   -22409.989    103.71008   -22513.699    2030.6562 
  156000    311.08311    -22428.05     118.6918   -22546.741    283.19334 
  156200    272.14305   -22422.021    103.83446   -22525.856   -3810.4089 
  156400    303.29646   -22401.573    115.72085   -22517.293   -23907.834 
  156600    291.14151   -22410.872    111.08321   -22521.955   -21850.428 
  156800    265.23469   -22422.755    101.19862   -22523.954   -9271.4674 
  157000    335.08318   -22401.323    127.84887   -22529.172   -14818.946 
  157200    299.65131   -22415.626    114.33006   -22529.956   -33813.054 
  157400    279.27377   -22429.968    106.55514   -22536.523    8402.3727 
  157600    299.38854   -22415.077    114.22981   -22529.307   -11525.894 
  157800    311.78428   -22405.674    118.95933   -22524.634   -3707.6211 
  158000    284.71953   -22432.684    108.63294   -22541.317    3599.2948 
  158200    272.19621   -22433.379    103.85474   -22537.233   -8981.2852 
  158400    312.75805   -22411.226    119.33086   -22530.557   -30569.307 
  158600     330.6863   -22393.694    126.17127   -22519.865   -12619.086 
  158800    282.39854   -22423.607    107.74738   -22531.354    5515.3172 
  159000    301.36525   -22418.091    114.98401   -22533.075   -5909.5291 
  159200    367.31548   -22392.059     140.1469   -22532.206    1810.1431 
  159400    301.21112    -22422.54     114.9252   -22537.465   -18317.947 
  159600    298.76156   -22419.377    113.99059   -22533.367   -5134.0031 
  159800    308.06107   -22398.416    117.53875   -22515.954    19958.249 
  160000    331.10011   -22409.804    126.32916   -22536.133   -12650.858 
  160200    288.22091   -22415.521    109.96887    -22525.49   -6950.7963 
  160400    349.59444   -22387.317    133.38555   -22520.703   -3986.6905 
  160600    320.22408   -22411.631    122.17947   -22533.811    5969.3743 
  160800    289.36957   -22414.265    110.40713   -22524.672     18813.67 
  161000    327.72788   -22395.126     125.0425   -22520.168    11444.327 
  161200    312.46456   -22415.276    119.21888   -22534.495    12220.192 
  161400    285.82355   -22414.875    109.05417   -22523.929    279.43135 
  161600    333.11952   -22399.143    127.09965   -22526.242     -2215.82 
  161800    299.37664   -22411.068    114.22526   -22525.293   -5555.9472 
  162000    283.07536   -22426.716    108.00562   -22534.722   -9408.6428 
  162200    268.90665   -22425.292    102.59963   -22527.892    13082.888 
  162400    327.92847   -22405.384    125.11904   -22530.503   -1604.0419 
  162600    278.98183   -22412.552    106.44376   -22518.996    6416.6431 
  162800     308.3141   -22420.358     117.6353   -22537.994   -2435.5557 
  163000    348.40881   -22395.673    132.93318   -22528.606    19782.271 
  163200     277.0258   -22418.967    105.69745   -22524.665    24930.604 
  163400    303.60902   -22418.076    115.84011   -22533.917    21448.272 
  163600    272.82823   -22407.049    104.09589   -22511.145   -27845.376 
  163800    280.34026    -22428.41    106.96206   -22535.372   -17623.813 
  164000    299.08667   -22415.469    114.11463   -22529.584    2934.1813 
  164200    281.72269   -22406.266    107.48952   -22513.755   -11116.012 
  164400    282.53815   -22424.564    107.80065   -22532.364    20373.678 
  164600     291.0484   -22416.689    111.04768   -22527.737   -2231.1505 
  164800      290.097   -22413.908    110.68468   -22524.592    5311.4405 
  165000    303.86629   -22394.375    115.93826   -22510.314   -5087.8415 
  165200    291.60056   -22409.933    111.25835   -22521.191   -5575.0974 
  165400    303.15278   -22415.508    115.66603   -22531.174    9555.8352 
  165600    307.71119   -22394.388    117.40526   -22511.793   -23188.685 
  165800    282.16692   -22427.376    107.65901   -22535.035    9154.7818 
  166000    287.63266   -22406.554    109.74442   -22516.298    22390.575 
  166200    324.91498   -22405.213    123.96926   -22529.183   -7436.4459 
  166400    268.60064   -22432.711    102.48288   -22535.194    1663.9745 
  166600    268.56716   -22417.194    102.47011   -22519.665    13629.752 
  166800    322.54755   -22397.849    123.06598   -22520.915   -7555.6959 
  167000    265.61677   -22425.277     101.3444   -22526.622    17075.054 
  167200    322.68041   -22414.979    123.11667   -22538.096   -4170.8282 
  167400    273.88392   -22408.106    104.49868   -22512.605    9319.5072 
  167600     307.1502   -22399.503    117.19122   -22516.695    2963.9408 
  167800    313.58626    -22410.29    119.64686   -22529.937   -3499.4478 
  168000    281.06125   -22426.794    107.23715   -22534.031    4906.2263 
  168200    295.73268   -22396.863    112.83494   -22509.698   -1390.1548 
  168400     256.2592   -22411.823    97.774079   -22509.597   -35203.162 
  168600    267.63847   -22420.314    102.11577    -22522.43    34317.764 
  168800    322.21506   -22408.501    122.93912    -22531.44     17402.01 
  169000     301.6061   -22415.884     115.0759    -22530.96    9941.9193 
  169200     278.2024   -22430.426    106.14637   -22536.573    7202.2735 
  169400    299.39088   -22408.241     114.2307   -22522.472   -20755.542 
  169600    325.64809   -22410.561    124.24897    -22534.81    8573.4978 
  169800    271.57524    -22429.55    103.61782   -22533.167    20185.093 
  170000    273.42219   -22410.224    104.32251   -22514.547   -5868.0743 
  170200    333.49338   -22394.423    127.24229   -22521.666    2948.8215 
  170400    266.47251   -22423.742     101.6709   -22525.413   -27601.406 
  170600    312.40129   -22403.511    119.19474   -22522.706    9040.7905 
  170800    285.26835   -22399.298    108.84234    -22508.14   -5714.7059 
  171000    277.90383   -22407.678    106.03245   -22513.711    19775.215 
  171200    274.54543   -22420.803    104.75108   -22525.554   -6708.6184 
  171400    319.59681   -22402.561    121.94015   -22524.501     -37726.8 
  171600    328.58043   -22397.299    125.36779   -22522.667    8418.7374 
  171800    288.57942   -22422.157    110.10566   -22532.262    13839.964 
  172000    278.72466   -22404.126    106.34564   -22510.472   -27154.418 
  172200    317.37941    -22403.26    121.09411   -22524.354    9.8172957 
  172400    266.57612   -22425.595    101.71044   -22527.306    21363.757 
  172600    336.68095    -22401.98    128.45849   -22530.438   -19355.399 
  172800    282.08308   -22421.194    107.62702   -22528.821    -3303.562 
  173000    280.51032    -22421.39    107.02694   -22528.417   -604.34144 
  173200    287.02889   -22405.659    109.51406   -22515.173    -6065.535 
  173400    278.73973   -22395.739    106.35138   -22502.091    4939.0688 
  173600     284.9995   -22426.558    108.73976   -22535.298    3474.9555 
  173800    310.53124   -22406.609    118.48123   -22525.091    2213.4417 
  174000     309.7899   -22404.499    118.19838   -22522.697   -22229.796 
  174200    285.49643   -22420.528    108.92936   -22529.457    3244.5432 
  174400    293.80584   -22425.943    112.09976   -22538.043   -2764.3313 
  174600    326.90366   -22402.048    124.72803   -22526.776    41798.164 
  174800    274.30389   -22427.318    104.65892   -22531.977   -7616.4628 
  175000     288.0901   -22421.253    109.91896   -22531.172   -2828.7378 
  175200     296.7243   -22413.617    113.21328    -22526.83    10926.118 
  175400    308.91462   -22404.662    117.86442   -22522.526   -29888.623 
  175600    311.31263   -22401.159    118.77937   -22519.939   -39799.007 
  175800    266.39248   -22425.869    101.64037   -22527.509   -14322.946 
  176000    294.12391   -22398.151    112.22112   -22510.372   -12309.244 
  176200    314.89167    -22402.54    120.14493   -22522.685    -5869.246 
  176400    302.55443   -22418.893    115.43773    -22534.33    -15285.53 
  176600    312.43963   -22395.596    119.20937   -22514.805   -14405.517 
  176800    310.91872   -22405.407    118.62907   -22524.036    35427.479 
  177000    251.16217    -22421.64     95.82934   -22517.469   -4167.1413 
  177200    299.61298   -22401.097    114.31544   -22515.413    12006.328 
  177400     336.1873   -22386.393    128.27014   -22514.663   -8515.2788 
  177600    280.88812   -22408.115    107.17109   -22515.286   -39.394042 
  177800    266.57774   -22414.245    101.71105   -22515.956    302.50043 
[...]
  950000    319.93043   -22420.542    122.06743   -22542.609   -1421.3153 
  950200    265.06781   -22452.292    101.13495   -22553.427   -7283.3533 
  950400    301.45686   -22435.229    115.01896   -22550.248   -6038.8152 
  950600    338.90336    -22417.02    129.30644   -22546.326     4795.093 
  950800    292.62026   -22444.911    111.64741   -22556.558    6614.4307 
  951000    277.01723   -22431.456    105.69417    -22537.15   -22838.774 
  951200     319.3512   -22419.107    121.84643   -22540.953   -4025.4272 
  951400    320.02243    -22438.46    122.10254   -22560.563   -4595.7982 
  951600    289.46193   -22446.051    110.44237   -22556.493    6450.5997 
  951800    316.25624   -22420.584    120.66557    -22541.25   -2089.8496 
  952000     305.5953   -22418.422    116.59796    -22535.02   -1008.5619 
  952200    272.63319   -22427.659    104.02147   -22531.681    14464.985 
  952400    289.97574   -22431.064    110.63841   -22541.703   -19832.541 
  952600    329.46643   -22413.021    125.70584   -22538.727   -11217.819 
  952800    272.01924   -22441.892    103.78722   -22545.679    41982.569 
  953000    305.94275     -22432.4    116.73052    -22549.13   -18840.183 
  953200    345.27856   -22401.218    131.73886   -22532.957     20650.75 
  953400    319.36594    -22422.38    121.85206   -22544.232    -26721.34 
  953600    272.59748   -22438.489    104.00785   -22542.497    4765.3764 
  953800    323.67175   -22426.216    123.49491   -22549.711   -14422.623 
  954000    323.59521   -22408.443    123.46571   -22531.909   -1834.8369 
  954200    262.75233   -22438.599    100.25149   -22538.851   -44938.666 
  954400    296.86491   -22419.625    113.26693   -22532.892    10611.796 
  954600    300.05057    -22432.36     114.4824   -22546.842   -5747.5063 
  954800    282.05703     -22443.7    107.61708   -22551.317   -3940.6889 
  955000    293.68013     -22421.9     112.0518   -22533.951   -14271.192 
  955200    279.02961   -22436.568    106.46198    -22543.03    22439.053 
  955400    265.91683   -22441.025    101.45889   -22542.484    4654.9659 
  955600    293.06253   -22426.751    111.81616   -22538.567    5597.0521 
  955800    281.62074   -22432.532    107.45062   -22539.983    9237.9906 
  956000    303.26089   -22429.419    115.70728   -22545.126   -7929.2925 
  956200    323.46906   -22414.022    123.41758    -22537.44    5166.8572 
  956400    294.30681   -22442.625     112.2909   -22554.915    11966.489 
  956600    284.88374    -22428.43    108.69559   -22537.126   -15748.503 
  956800     305.9935   -22428.406    116.74989   -22545.156   -40055.354 
  957000    267.86181   -22446.685    102.20098   -22548.886    27072.012 
  957200     300.2469   -22423.547    114.55731   -22538.104   -22898.473 
  957400    319.77505   -22421.664    122.00815   -22543.672    701.75927 
  957600    273.07745   -22444.107    104.19098   -22548.298   -15749.011 
  957800    283.13486   -22426.849    108.02832   -22534.877    11550.927 
  958000    310.82872   -22425.208    118.59474   -22543.803   -4541.6278 
  958200    277.81228   -22440.785    105.99752   -22546.782    2700.7528 
  958400     313.3981   -22430.166    119.57507   -22549.741      2267.75 
  958600    293.46917   -22430.858    111.97131   -22542.829    6287.3699 
  958800    277.40683   -22452.127    105.84282    -22557.97    7995.7112 
  959000    289.82649    -22434.61    110.58147   -22545.191    4467.2389 
  959200    297.75482   -22416.638    113.60647   -22530.245   -4110.8808 
  959400    325.12791   -22422.867     124.0505   -22546.918     3231.362 
  959600    295.45761   -22437.398    112.72999   -22550.128   -3664.6129 
  959800    285.54566   -22421.106    108.94814   -22530.054    -7166.648 
  960000    276.86901   -22431.278    105.63762   -22536.916   -8250.1145 
  960200    322.51487   -22422.551    123.05351   -22545.604   -10189.426 
  960400    328.06495   -22406.421    125.17111   -22531.592    14559.433 
  960600    293.26037   -22424.431    111.89164   -22536.323    10702.121 
  960800    312.68479   -22427.333    119.30291   -22546.636    21326.576 
  961000    272.31251   -22444.813    103.89912   -22548.712   -5465.4591 
  961200    322.72505   -22416.021    123.13371   -22539.154    9072.4249 
  961400    295.79652    -22425.11    112.85929   -22537.969   -2508.2009 
  961600    287.02333   -22455.557    109.51194   -22565.069   -9941.5317 
  961800      283.364   -22438.819    108.11574   -22546.935    30577.173 
  962000    316.83551   -22426.829    120.88659   -22547.715   -14947.026 
  962200    305.56635   -22415.156    116.58691   -22531.743   -5870.5135 
  962400    345.07406   -22398.128    131.66083   -22529.789   -22473.221 
  962600    329.72036   -22432.637    125.80272    -22558.44   -7225.8623 
  962800       329.01   -22420.461    125.53169   -22545.992    95.694401 
  963000    296.85048   -22415.045    113.26143   -22528.307   -11171.016 
  963200     261.6884   -22438.461    99.845557   -22538.306   -10013.354 
  963400    332.76189   -22417.293     126.9632   -22544.256    30025.695 
  963600    291.49866   -22444.802    111.21947   -22556.021    7901.7181 
  963800    275.25795   -22442.019    105.02293   -22547.042    14107.856 
  964000    285.62287   -22420.022     108.9776   -22528.999   -2377.5149 
  964200    279.26822    -22434.41    106.55303   -22540.963   -7286.4618 
  964400    276.13735   -22440.677    105.35846   -22546.035    11861.271 
  964600    293.34453   -22422.896    111.92375    -22534.82    18157.814 
  964800    279.77106   -22445.149    106.74488   -22551.894   -18136.415 
  965000    283.41566   -22436.392    108.13546   -22544.528   -33638.477 
  965200    312.53718   -22424.282    119.24659   -22543.529    13551.414 
  965400    321.07344   -22412.997    122.50355     -22535.5    6428.9884 
  965600    313.29236   -22428.456    119.53472   -22547.991    14543.509 
  965800     255.1382   -22440.742     97.34637   -22538.088   -14848.039 
  966000    314.71638   -22414.534    120.07805   -22534.612    -6248.018 
  966200    293.80346   -22417.273    112.09886   -22529.372    17328.465 
  966400    280.04828   -22430.727    106.85065   -22537.577    7034.6681 
  966600    292.08257   -22443.624    111.44226   -22555.067   -17304.484 
  966800    317.31482   -22422.733    121.06947   -22543.802   -22911.521 
  967000    307.25194   -22440.282    117.23004   -22557.512    6536.4496 
  967200    332.96505   -22414.578    127.04071   -22541.618    4511.9344 
  967400    319.64957   -22420.576    121.96027   -22542.537    -35948.88 
  967600    273.56209   -22439.696    104.37589   -22544.071    21491.183 
  967800    271.83117   -22431.108    103.71547   -22534.823   -7312.4289 
  968000    315.28758   -22415.569    120.29599   -22535.865    14473.207 
  968200    289.10833   -22417.391    110.30746   -22527.699    14191.598 
  968400    259.91792   -22437.343    99.170043   -22536.513   -14322.564 
  968600    299.90966   -22434.376    114.42864   -22548.804   -7428.5014 
  968800    353.49497   -22414.892    134.87377   -22549.766    13162.005 
  969000    282.06179   -22446.789    107.61889   -22554.408   -3670.0981 
  969200    307.24134   -22430.516    117.22599   -22547.742   -4826.1892 
  969400    334.41111   -22417.792    127.59245   -22545.384   -6175.9041 
  969600    273.38463   -22438.664    104.30818   -22542.972   -4109.9645 
  969800     253.8773   -22461.256     96.86528   -22558.121   -10644.335 
  970000    277.10921   -22437.699    105.72927   -22543.428    10875.464 
  970200    325.33953   -22417.582    124.13124   -22541.713   -2896.6896 
  970400    264.15553   -22444.226    100.78687   -22545.013     3452.208 
  970600    303.44436    -22435.14    115.77728   -22550.917   -6121.2757 
  970800    296.42843   -22428.681     113.1004   -22541.781   -20839.894 
  971000    278.94917   -22426.462     106.4313   -22532.893     7646.325 
  971200     308.4582   -22420.361    117.69028   -22538.051    13253.481 
  971400    297.85373   -22432.234    113.64421   -22545.879   -18422.955 
  971600    338.11862   -22410.087    129.00702   -22539.094   -29022.339 
  971800    306.93808   -22432.658    117.11029   -22549.768   -3766.0413 
  972000    297.98579   -22437.587     113.6946   -22551.282   -7496.8072 
  972200    326.59527   -22410.191    124.61036   -22534.801     7450.979 
  972400    302.96796   -22417.501    115.59551   -22533.097    974.82951 
  972600    297.66079   -22425.523    113.57059   -22539.094    -12748.87 
  972800    287.21999   -22434.459    109.58697   -22544.046     33988.55 
  973000     290.4769   -22448.414    110.82963   -22559.243    6146.5547 
  973200    330.25702     -22422.8    126.00748   -22548.807   -8438.6999 
  973400    305.97288     -22417.1    116.74202   -22533.842    3967.3678 
  973600    297.97799   -22418.283    113.69162   -22531.974    1079.1508 
  973800    278.43025   -22440.901    106.23331   -22547.135    -1469.006 
  974000    373.52164   -22414.351    142.51482   -22556.866      10649.7 
  974200    311.46427   -22417.963    118.83722   -22536.801    -3104.639 
  974400    295.14917   -22426.608     112.6123    -22539.22   -6417.7242 
  974600    308.66428   -22426.388    117.76891   -22544.157     20626.69 
  974800    301.55176   -22435.001    115.05517   -22550.056   -11657.247 
  975000    297.52265   -22431.935    113.51789   -22545.453    6580.2632 
  975200    310.70529   -22417.077    118.54764   -22535.625    6461.7902 
  975400    274.12887    -22443.67    104.59214   -22548.262    14790.844 
  975600    327.47422   -22422.664    124.94572    -22547.61   -7801.8484 
  975800    308.60112   -22430.132    117.74481   -22547.877    16528.074 
  976000    256.86373   -22453.007    98.004736   -22551.012    -6775.611 
  976200    297.08696   -22434.724    113.35165   -22548.076     14883.93 
  976400    315.84505   -22407.907    120.50868   -22528.416    24710.126 
  976600    272.99742   -22426.762    104.16044   -22530.922   -36946.908 
  976800    293.02269   -22433.532    111.80096   -22545.333     33926.64 
  977000    313.53359   -22402.777    119.62676   -22522.403    -3502.891 
  977200    311.76999   -22420.789    118.95387   -22539.743    5920.4755 
  977400    296.12682   -22431.705    112.98532    -22544.69   -10067.409 
  977600    315.41489   -22422.803    120.34456   -22543.148    317.84493 
  977800    307.03257   -22413.689    117.14634   -22530.835    17840.825 
  978000    282.65472   -22435.025    107.84512    -22542.87   -11433.756 
  978200    338.67706   -22415.667    129.22009   -22544.887    22113.881 
  978400    257.89382   -22437.773    98.397759   -22536.171    19842.257 
  978600    300.60849   -22430.357    114.69527   -22545.052   -7995.2468 
  978800    290.25206   -22421.589    110.74384   -22532.333   -1837.5722 
  979000    289.43445   -22443.343    110.43189   -22553.775   -16102.771 
  979200    304.19844   -22437.243    116.06499   -22553.308   -14799.715 
  979400    295.08706       -22421     112.5886   -22533.589    5084.4687 
  979600    365.12354   -22397.385    139.31058   -22536.696    1136.8426 
  979800     313.9627   -22432.076    119.79049   -22551.867    6701.8798 
  980000    301.85329   -22430.149    115.17022   -22545.319    11963.083 
  980200    327.74875   -22409.568    125.05046   -22534.618    -2348.222 
  980400    274.26738   -22443.252    104.64499   -22547.897    7190.4006 
  980600    295.32494     -22429.1    112.67937   -22541.779   -12076.738 
  980800    305.98947       -22423    116.74835   -22539.748     -12142.4 
  981000    274.30366   -22449.095    104.65883   -22553.753    5973.9505 
  981200    315.67055    -22423.81     120.4421   -22544.252   -11662.906 
  981400     319.1362   -22428.285     121.7644    -22550.05   -1122.2861 
  981600    281.89178   -22440.656    107.55403    -22548.21   -12094.219 
  981800     305.8017    -22427.68    116.67671   -22544.357    24266.549 
  982000    308.76852   -22420.918    117.80868   -22538.727   -24008.529 
  982200    257.50113   -22445.393    98.247931   -22543.641    14972.099 
  982400    291.27724   -22428.623    111.13499   -22539.758   -4994.2893 
  982600     326.1402   -22422.604    124.43673   -22547.041    13857.207 
  982800    247.14542    -22451.81    94.296774   -22546.107    21281.987 
  983000    284.43745   -22431.554    108.52531    -22540.08   -11454.379 
  983200    316.36945   -22425.214    120.70877   -22545.923    12129.846 
  983400    318.06747   -22409.464    121.35663   -22530.821     18340.44 
  983600     296.4668   -22412.161    113.11504   -22525.276   -9983.1836 
  983800    274.81428   -22433.103    104.85365   -22537.957    20238.029 
  984000    282.28651   -22433.073    107.70464   -22540.777    23181.462 
  984200    289.89668   -22414.306    110.60825   -22524.914    21859.921 
  984400    291.90722   -22416.792    111.37536   -22528.167     9669.162 
  984600    281.04223   -22437.924    107.22989   -22545.153     16646.28 
  984800    269.95884   -22429.117    103.00109   -22532.118   -12386.153 
  985000    331.13389   -22401.601    126.34204   -22527.943    9762.9426 
  985200    267.36536   -22426.591    102.01157   -22528.602   -24056.494 
  985400    265.60008    -22436.14    101.33803   -22537.479    23026.611 
  985600    353.71927   -22408.178    134.95935   -22543.137    -14181.59 
  985800    294.61736   -22426.632    112.40939   -22539.041    2037.3803 
  986000    293.01705   -22437.722     111.7988   -22549.521   -10345.056 
  986200    261.07703   -22427.708    99.612292    -22527.32    12241.991 
  986400    300.58609   -22414.851    114.68672   -22529.538    -8814.796 
  986600    257.94984   -22445.334    98.419134   -22543.753    5932.1537 
  986800     288.6931   -22434.502    110.14903   -22544.651    1585.3392 
  987000    327.29298   -22420.173    124.87657    -22545.05     5733.609 
  987200    258.40207   -22448.387    98.591677   -22546.978   -7759.9872 
  987400    284.25233   -22426.115    108.45468    -22534.57    17243.169 
  987600    288.42611   -22425.537    110.04716   -22535.584    5734.5038 
  987800    260.21371   -22450.239      99.2829   -22549.522    -34287.67 
  988000    277.02781   -22424.574    105.69821   -22530.272   -32626.462 
  988200    283.44002   -22427.179    108.14475   -22535.323   -7368.7647 
  988400     279.1282   -22435.876     106.4996   -22542.376    6012.4517 
  988600    276.41804    -22409.81    105.46556   -22515.275   -7066.6205 
  988800    310.53332   -22422.852    118.48203   -22541.334   -25143.663 
  989000    308.15631   -22435.207    117.57509   -22552.782    9309.7627 
  989200    323.48171   -22419.656     123.4224   -22543.079    22574.314 
  989400     278.1057   -22418.496    106.10947   -22524.606   -5301.1728 
  989600    305.08655   -22434.534    116.40385   -22550.938    21547.235 
  989800    346.12633       -22406    132.06231   -22538.062   -12713.093 
  990000    277.46805   -22425.247    105.86618   -22531.113    2923.7045 
  990200    259.63817   -22429.997    99.063305    -22529.06    5581.7628 
  990400    258.57583   -22440.232    98.657977    -22538.89    2955.5079 
  990600    297.32169   -22415.688    113.44122   -22529.129   -27881.679 
  990800    277.44773   -22426.299    105.85843   -22532.158   -26072.656 
  991000     300.7236   -22441.327    114.73919   -22556.066   -11241.997 
  991200    312.61099   -22426.625    119.27475     -22545.9    -13402.28 
  991400     321.1625   -22412.755    122.53753   -22535.292   -11111.205 
  991600    292.73807   -22424.247    111.69236   -22535.939    -15096.06 
  991800    271.75501   -22426.702    103.68641   -22530.389    33030.204 
  992000    336.38582   -22401.679    128.34589   -22530.024   -6185.1566 
  992200    277.03254   -22440.674    105.70002   -22546.374    3307.1542 
  992400    322.86279   -22422.819    123.18626   -22546.005   -6602.1705 
  992600     324.2888    -22416.77    123.73035     -22540.5   -16050.251 
  992800    269.88116   -22445.983    102.97145   -22548.955   -13543.089 
  993000    277.39237   -22424.312    105.83731   -22530.149    3302.7209 
  993200    292.15538   -22425.445    111.47004   -22536.915   -5308.7816 
  993400    280.14939   -22434.286    106.88923   -22541.175    4854.8544 
  993600    327.04521   -22411.885    124.78204   -22536.667     2729.251 
  993800    338.99375   -22408.321    129.34093   -22537.661    9269.5037 
  994000    288.08915   -22430.008     109.9186   -22539.926    9012.7808 
  994200    284.49955   -22432.142    108.54901   -22540.691    9462.6544 
  994400    311.78779   -22413.193    118.96066   -22532.153    18792.133 
  994600    309.57915   -22439.019    118.11797   -22557.137    5747.6599 
  994800    302.29099   -22430.897    115.33722   -22546.234   -17111.358 
  995000    305.78921    -22420.23    116.67194   -22536.902   -18535.851 
  995200     287.1648   -22434.047    109.56592   -22543.613    12058.814 
  995400    251.03264   -22459.181    95.779917   -22554.961    23101.069 
  995600    313.35388   -22428.011    119.55819   -22547.569   -12277.307 
  995800    329.60165    -22422.28    125.75743   -22548.038     2467.028 
  996000    269.65789   -22440.382    102.88626   -22543.269    12263.021 
  996200    302.99183   -22423.859    115.60462   -22539.464    7079.9101 
  996400    315.39742   -22426.244    120.33789   -22546.582     9843.018 
  996600    272.16283   -22439.826    103.84201   -22543.668   -20146.331 
  996800     325.9374   -22407.646    124.35936   -22532.006    5673.9696 
  997000    264.50538   -22425.066    100.92036   -22525.986   -4509.1554 
  997200    276.00998   -22437.552    105.30986   -22542.862    525.33189 
  997400    310.55903   -22415.067    118.49184   -22533.559   -11356.565 
  997600    271.65934    -22430.57    103.64991    -22534.22   -11610.615 
  997800     269.4333   -22440.313    102.80057   -22543.114    10458.048 
  998000    315.50675   -22406.618    120.37961   -22526.998    -3449.691 
  998200    299.97384   -22419.905    114.45312   -22534.358    641.55552 
  998400    290.74967   -22437.416     110.9337   -22548.349    12481.298 
  998600    345.71317   -22409.121    131.90468   -22541.026    2020.4317 
  998800    309.07097   -22423.325    117.92408   -22541.249   -5923.3681 
  999000     286.8628     -22433.9    109.45069   -22543.351   -20973.971 
  999200    320.75639   -22399.097    122.38257    -22521.48    -4422.564 
  999400    320.82927   -22428.136    122.41038   -22550.547    6260.7745 
  999600     282.6257   -22432.798    107.83405   -22540.632   -10599.674 
  999800    323.61186   -22407.461    123.47206   -22530.933   -3237.1882 
 1000000    305.03112   -22434.515     116.3827   -22550.898    19577.505 
Loop time of 15254.1 on 8 procs for 1000000 steps with 129 atoms

Performance: 1.416 ns/day, 16.949 hours/ns, 65.556 timesteps/s
99.7% CPU use with 8 MPI tasks x no OpenMP threads

MPI task timing breakdown:
Section |  min time  |  avg time  |  max time  |%varavg| %total
---------------------------------------------------------------
Pair    | 11642      | 12309      | 13188      | 480.4 | 80.69
Neigh   | 1.9519     | 1.9722     | 2.0049     |   1.2 |  0.01
Comm    | 195.44     | 1073       | 1737.3     |1626.9 |  7.03
Output  | 0.48628    | 0.51354    | 0.6769     |   8.6 |  0.00
Modify  | 1847.9     | 1850.3     | 1853.8     |   5.4 | 12.13
Other   |            | 19.56      |            |       |  0.13

Nlocal:    16.125 ave 30 max 1 min
Histogram: 1 1 0 0 0 3 1 0 1 1
Nghost:    575.625 ave 601 max 558 min
Histogram: 2 1 1 1 0 0 1 1 0 1
Neighs:    1023 ave 1789 max 72 min
Histogram: 1 1 0 0 0 3 1 0 1 1

Total # of neighbors = 8184
Ave neighs/atom = 63.4419
Neighbor list builds = 825
Dangerous builds = 0

unfix 1
unfix output
undump 1

Please see the log.cite file for references relevant to this simulation

Total wall time: 4:15:13
