ITEM: TIMESTEP
0
ITEM: NUMBER OF ATOMS
129
ITEM: BOX BOUNDS xy xz yz pp pp pp
0.0000000000000000e+00 2.3654499999999999e+01 7.8845000000000001e+00
0.0000000000000000e+00 1.3658086643083999e+01 0.0000000000000000e+00
0.0000000000000000e+00 2.5747000000000000e+01 0.0000000000000000e+00
ITEM: ATOMS id type x y z 
18 1 10.522 6.683 2.644 
28 1 5.247 4.273 12.803 
31 1 9.65 6.514 0.446 
62 1 9.171 5.15 12.405 
91 1 9.65 6.514 11.889 
92 1 10.81 6.18 11.007 
106 1 10.522 6.683 9.691 
127 1 10.81 6.18 1.328 
4 1 4.402 5.735 13.319 
5 1 3.307 5.568 14.201 
43 1 4.549 6.796 15.517 
52 1 9.172 5.15 25.677 
66 1 4.402 5.735 24.762 
67 1 5.003 6.76 23.881 
88 1 5.247 4.273 25.278 
107 1 3.307 5.568 23.881 
116 1 4.549 6.796 22.565 
117 1 5.003 6.76 14.201 
129 2 3.307 4.216 14.201 
11 1 11.272 7.494 3.321 
12 1 10.477 8.871 4.018 
14 1 9.018 11.397 0.446 
15 1 10.114 11.565 1.328 
16 1 8.412 9.024 0.654 
19 1 10.477 8.871 5.569 
29 1 10.927 10.156 3.321 
32 1 8.77 7.648 1.328 
35 1 12.036 9.594 2.644 
45 1 9.231 8.963 3.321 
47 1 12.762 8.702 0.446 
49 1 11.224 11 0.654 
51 1 8.872 10.337 2.644 
53 1 11.272 7.494 9.014 
54 1 10.477 8.871 8.317 
56 1 9.018 11.397 11.889 
57 1 8.418 10.372 11.007 
58 1 11.224 11 11.681 
60 1 12.255 7.901 9.691 
61 1 10.477 8.871 6.766 
73 1 9.231 8.963 9.014 
75 1 12.762 8.702 11.889 
76 1 12.202 10.061 11.007 
79 1 9.224 7.617 9.691 
80 1 8.174 12.859 12.405 
89 1 10.927 10.156 9.014 
93 1 8.412 9.024 11.681 
95 1 9.951 11.095 9.691 
105 1 10.114 11.565 11.007 
109 1 8.77 7.648 11.007 
110 1 12.036 9.594 9.691 
114 1 8.872 10.337 9.691 
119 1 8.418 10.372 1.328 
120 1 12.255 7.901 2.644 
123 1 12.202 10.061 1.328 
124 1 9.224 7.617 2.644 
128 1 9.951 11.095 2.644 
6 1 5.009 8.108 13.527 
13 1 9.663 10.28 25.128 
17 1 9.204 8.965 25.162 
30 1 10.016 7.556 25.128 
34 1 11.289 7.464 25.162 
36 1 8.174 12.859 25.677 
46 1 11.752 8.777 25.128 
50 1 10.937 10.184 25.162 
55 1 9.663 10.28 12.954 
59 1 10.937 10.184 12.919 
74 1 11.752 8.777 12.954 
78 1 11.289 7.464 12.919 
90 1 10.016 7.556 12.954 
94 1 9.204 8.965 12.919 
101 1 5.009 8.108 24.555 
33 1 11.795 6.589 0.654 
77 1 11.795 6.589 11.681 
41 1 17.967 6.132 13.527 
68 1 17.967 6.132 24.554 
103 1 19.24 6.037 22.565 
126 1 19.24 6.037 15.517 
3 1 19.528 6.852 12.254 
7 1 19.987 8.167 12.289 
10 1 15.106 8.528 12.804 
22 1 19.175 9.576 12.254 
26 1 17.902 9.668 12.289 
38 1 17.439 8.356 12.254 
42 1 18.254 6.949 12.289 
44 1 20.019 11.982 12.804 
48 1 12.546 7.4 1.328 
65 1 19.528 6.852 0.081 
69 1 18.254 6.949 0.046 
82 1 17.439 8.356 0.081 
86 1 17.902 9.668 0.046 
96 1 14.084 8.604 12.405 
98 1 19.175 9.576 0.081 
102 1 19.987 8.167 0.046 
113 1 12.546 7.4 11.007 
1 1 17.919 9.638 16.194 
2 1 18.714 8.261 16.892 
8 1 18.669 10.449 15.517 
9 1 18.714 8.261 18.442 
20 1 14.084 8.604 25.677 
21 1 18.264 6.977 16.194 
23 1 19.541 10.618 13.32 
24 1 20.421 9.484 14.201 
25 1 17.396 10.544 13.527 
27 1 17.155 7.538 15.517 
37 1 19.96 8.169 16.194 
39 1 16.429 8.43 13.319 
40 1 16.644 9.732 14.201 
63 1 17.919 9.638 21.888 
64 1 18.714 8.261 21.19 
70 1 16.936 9.231 22.565 
71 1 18.714 8.261 19.64 
72 1 20.019 11.982 25.278 
81 1 19.96 8.169 21.888 
83 1 16.429 8.43 24.762 
84 1 16.989 7.071 23.881 
85 1 17.396 10.544 24.555 
87 1 19.967 9.515 22.565 
97 1 18.263 6.977 21.888 
99 1 19.541 10.618 24.762 
100 1 18.38 10.953 23.881 
104 1 15.106 8.528 25.278 
108 1 18.669 10.449 22.565 
111 1 20.421 9.484 23.881 
112 1 17.155 7.538 22.565 
115 1 16.644 9.732 23.881 
118 1 16.936 9.231 15.517 
121 1 16.989 7.071 14.201 
122 1 19.967 9.515 15.517 
125 1 18.38 10.953 14.201 
ITEM: TIMESTEP
10
ITEM: NUMBER OF ATOMS
129
ITEM: BOX BOUNDS xy xz yz pp pp pp
0.0000000000000000e+00 2.3654499999999999e+01 7.8845000000000001e+00
0.0000000000000000e+00 1.3658086643083999e+01 0.0000000000000000e+00
0.0000000000000000e+00 2.5747000000000000e+01 0.0000000000000000e+00
ITEM: ATOMS id type x y z 
18 1 10.3805 6.72605 2.64941 
28 1 5.16732 4.47932 12.8448 
31 1 9.43165 6.48284 0.415013 
62 1 9.14781 5.24755 12.3788 
91 1 9.43571 6.47811 11.9192 
92 1 10.8563 6.1917 10.9927 
106 1 10.3864 6.74351 9.69723 
127 1 10.8572 6.17995 1.32776 
4 1 4.56397 5.85837 13.137 
5 1 3.22047 5.42899 14.235 
43 1 4.56802 6.92631 15.5001 
52 1 9.1487 5.25002 25.704 
66 1 4.45936 5.7748 24.8608 
67 1 5.09746 6.89648 23.8914 
88 1 5.15429 4.46438 25.2214 
107 1 3.23463 5.5309 23.8569 
116 1 4.57366 6.93539 22.5717 
117 1 5.09599 6.89417 14.1627 
129 2 3.24763 4.09066 14.2257 
11 1 11.3291 7.57043 3.36378 
12 1 10.4826 8.84409 4.10967 
14 1 8.98956 11.3334 0.404112 
15 1 10.1877 11.5486 1.32644 
16 1 8.44877 8.95109 0.714562 
19 1 10.4735 8.86805 5.548 
29 1 10.9342 10.1563 3.35445 
32 1 8.74063 7.69867 1.29234 
35 1 12.0377 9.58703 2.56834 
45 1 9.22903 8.96085 3.26534 
47 1 12.7563 8.75839 0.536561 
49 1 11.2961 10.9492 0.656307 
51 1 8.847 10.1973 2.60225 
53 1 11.3201 7.55505 8.98355 
54 1 10.4852 8.85019 8.22667 
56 1 8.97678 11.3469 11.9424 
57 1 8.33487 10.2409 11.0268 
58 1 11.3098 10.9416 11.7014 
60 1 12.2619 8.01167 9.63589 
61 1 10.4745 8.87052 6.78706 
73 1 9.24191 8.96612 9.06608 
75 1 12.756 8.75651 11.7894 
76 1 12.2482 10.061 11.022 
79 1 9.23872 7.6525 9.76944 
80 1 8.27479 12.6555 12.3443 
89 1 10.9253 10.1314 8.98448 
93 1 8.42846 8.9456 11.6113 
95 1 10.0224 11.072 9.68023 
105 1 10.2233 11.5688 11.0119 
109 1 8.73444 7.68805 11.0313 
110 1 12.0434 9.58435 9.73028 
114 1 8.83495 10.1861 9.72357 
119 1 8.3545 10.2443 1.30824 
120 1 12.2654 8.01914 2.71056 
123 1 12.2232 10.0553 1.28319 
124 1 9.2213 7.66696 2.5565 
128 1 10.018 11.0573 2.63055 
6 1 4.97227 8.18954 13.5692 
13 1 9.60885 10.3119 25.1344 
17 1 9.18753 8.95608 25.1814 
30 1 9.93985 7.6951 25.0812 
34 1 11.3089 7.48177 25.14 
36 1 8.27236 12.6585 25.7371 
46 1 11.673 8.83352 25.0755 
50 1 10.9984 10.1068 25.2312 
55 1 9.61877 10.3111 12.9736 
59 1 10.9826 10.1163 12.8807 
74 1 11.6789 8.83166 13.0113 
78 1 11.3013 7.50115 12.9246 
90 1 9.94791 7.676 13.0053 
94 1 9.17463 8.94683 12.9244 
101 1 4.97434 8.1929 24.4994 
33 1 11.7208 6.56372 0.684969 
77 1 11.7181 6.57912 11.6569 
41 1 17.8199 6.17809 13.4863 
68 1 17.8647 6.15208 24.555 
103 1 19.1716 6.08183 22.5381 
126 1 19.1987 6.12849 15.6289 
3 1 19.6412 6.83107 12.2804 
7 1 20.0081 8.17763 12.304 
10 1 15.1278 8.4768 12.8292 
22 1 19.2411 9.42474 12.2156 
26 1 17.8996 9.65198 12.2686 
38 1 17.4903 8.36078 12.1993 
42 1 18.126 7.01166 12.3802 
44 1 20.0422 11.8799 12.8318 
48 1 12.5957 7.52239 1.37207 
65 1 19.6206 6.78243 0.0735403 
69 1 18.2167 7.06879 -0.0374626 
82 1 17.5143 8.35193 0.137846 
86 1 17.8938 9.66939 0.0721398 
96 1 14.0462 8.65788 12.3703 
98 1 19.2015 9.45427 0.112357 
102 1 19.9472 8.12892 0.0506967 
113 1 12.5871 7.5267 10.9678 
1 1 17.8534 9.5517 16.2412 
2 1 18.708 8.31688 16.9915 
8 1 18.808 10.4224 15.5358 
9 1 18.7179 8.26586 18.419 
20 1 14.0554 8.65389 25.7061 
21 1 18.23 6.9873 16.2324 
23 1 19.7531 10.6517 13.2826 
24 1 20.4534 9.44271 14.1606 
25 1 17.476 10.5688 13.5593 
27 1 17.1711 7.5774 15.4552 
37 1 19.9485 8.18647 16.1471 
39 1 16.4303 8.4083 13.3891 
40 1 16.5881 9.61793 14.244 
63 1 17.8723 9.56989 21.8616 
64 1 18.7026 8.29402 21.0997 
70 1 16.9384 9.09354 22.4898 
71 1 18.7171 8.26276 19.6671 
72 1 20.0415 11.88 25.2495 
81 1 19.9562 8.17624 21.9429 
83 1 16.434 8.38043 24.6822 
84 1 16.9942 7.09722 23.9428 
85 1 17.4773 10.5779 24.5205 
87 1 19.9512 9.4756 22.6462 
97 1 18.2369 6.99366 21.8644 
99 1 19.7508 10.6457 24.7992 
100 1 18.34 10.9448 23.8657 
104 1 15.1339 8.47909 25.2464 
108 1 18.8059 10.3846 22.5682 
111 1 20.4448 9.4333 23.9213 
112 1 17.1709 7.5508 22.6501 
115 1 16.5808 9.61662 23.8335 
118 1 16.9307 9.07822 15.5849 
121 1 16.9734 7.08117 14.1205 
122 1 19.9804 9.45367 15.4348 
125 1 18.325 10.9572 14.1852 
ITEM: TIMESTEP
20
ITEM: NUMBER OF ATOMS
129
ITEM: BOX BOUNDS xy xz yz pp pp pp
0.0000000000000000e+00 2.3654499999999999e+01 7.8845000000000001e+00
0.0000000000000000e+00 1.3658086643083999e+01 0.0000000000000000e+00
0.0000000000000000e+00 2.5747000000000000e+01 0.0000000000000000e+00
ITEM: ATOMS id type x y z 
18 1 10.3858 6.75737 2.64022 
28 1 5.15224 4.55224 12.8471 
31 1 9.43001 6.51603 0.419352 
62 1 9.12736 5.26506 12.3752 
91 1 9.43279 6.51582 11.9149 
92 1 10.8116 6.18872 10.9812 
106 1 10.3864 6.75259 9.69075 
127 1 10.811 6.18495 1.35919 
4 1 4.57548 5.87759 13.1581 
5 1 3.18981 5.43066 14.2462 
43 1 4.5589 6.93495 15.4839 
52 1 9.12615 5.25802 25.704 
66 1 4.43829 5.78445 24.809 
67 1 5.06942 6.91747 23.8958 
88 1 5.1296 4.52156 25.2085 
107 1 3.21691 5.61799 23.8768 
116 1 4.57183 6.94815 22.5916 
117 1 5.07676 6.90717 14.1607 
129 2 3.22913 4.10019 14.2362 
11 1 11.3284 7.57416 3.35494 
12 1 10.4819 8.85612 4.09244 
14 1 8.99806 11.3513 0.415567 
15 1 10.2029 11.5118 1.31781 
16 1 8.40536 8.92468 0.705046 
19 1 10.4719 8.86764 5.57151 
29 1 10.946 10.1423 3.33508 
32 1 8.72822 7.6708 1.28908 
35 1 12.0314 9.60457 2.58511 
45 1 9.23303 8.93825 3.26576 
47 1 12.7278 8.77689 0.535562 
49 1 11.321 10.9602 0.668665 
51 1 8.84608 10.19 2.60606 
53 1 11.3296 7.57069 8.98227 
54 1 10.4861 8.85686 8.23883 
56 1 8.99354 11.3309 11.9243 
57 1 8.34902 10.2275 11.031 
58 1 11.3395 10.9456 11.6785 
60 1 12.2588 8.01656 9.62021 
61 1 10.4725 8.86921 6.76297 
73 1 9.22284 8.93988 9.07139 
75 1 12.7259 8.79125 11.7925 
76 1 12.2496 10.0557 11.015 
79 1 9.22072 7.66027 9.78048 
80 1 8.30333 12.5917 12.3274 
89 1 10.9446 10.1368 8.99985 
93 1 8.4091 8.92305 11.63 
95 1 10.0321 11.0609 9.69041 
105 1 10.2147 11.5129 11.0198 
109 1 8.72579 7.67513 11.0492 
110 1 12.0417 9.61204 9.73484 
114 1 8.84934 10.186 9.73217 
119 1 8.34334 10.2221 1.30742 
120 1 12.2616 8.02262 2.71407 
123 1 12.2436 10.0593 1.31058 
124 1 9.2206 7.66419 2.55558 
128 1 10.0375 11.0558 2.63354 
6 1 5.00196 8.20593 13.5874 
13 1 9.62505 10.2723 25.104 
17 1 9.17845 8.95063 25.1658 
30 1 9.92345 7.70156 25.0762 
34 1 11.2798 7.50626 25.1359 
36 1 8.30237 12.5944 25.7547 
46 1 11.6826 8.84381 25.0952 
50 1 10.985 10.1164 25.2108 
55 1 9.61682 10.2761 12.9858 
59 1 10.9851 10.1082 12.8875 
74 1 11.6783 8.84803 12.9847 
78 1 11.2697 7.52173 12.9416 
90 1 9.92462 7.70152 13.0042 
94 1 9.17597 8.94213 12.907 
101 1 4.99264 8.19425 24.4996 
33 1 11.7405 6.59704 0.679973 
77 1 11.7355 6.60337 11.6621 
41 1 17.8358 6.18212 13.5053 
68 1 17.8741 6.15561 24.518 
103 1 19.1529 6.0766 22.5626 
126 1 19.1894 6.14733 15.6004 
3 1 19.597 6.84002 12.265 
7 1 20.0315 8.18608 12.285 
10 1 15.1367 8.4668 12.8344 
22 1 19.2599 9.43063 12.2065 
26 1 17.9127 9.64268 12.2531 
38 1 17.471 8.34407 12.2352 
42 1 18.1355 6.99113 12.3828 
44 1 20.0645 11.8714 12.8315 
48 1 12.5713 7.53611 1.39142 
65 1 19.6006 6.79593 0.096292 
69 1 18.2218 7.04944 -0.00178684 
82 1 17.5034 8.33471 0.10324 
86 1 17.8959 9.65558 0.0863729 
96 1 14.0336 8.66908 12.3633 
98 1 19.2398 9.43715 0.117324 
102 1 19.9767 8.16152 0.0506944 
113 1 12.5721 7.53897 10.9503 
1 1 17.8587 9.54876 16.2275 
2 1 18.7056 8.31899 16.9781 
8 1 18.7999 10.3783 15.5212 
9 1 18.7202 8.26993 18.4277 
20 1 14.0363 8.66651 25.716 
21 1 18.2297 6.99119 16.2187 
23 1 19.7588 10.6166 13.2911 
24 1 20.4694 9.4517 14.1556 
25 1 17.4478 10.5405 13.5596 
27 1 17.1775 7.55833 15.4517 
37 1 19.9503 8.19834 16.1425 
39 1 16.4613 8.4055 13.3727 
40 1 16.6132 9.60279 14.2609 
63 1 17.8623 9.55778 21.8606 
64 1 18.6991 8.275 21.1188 
70 1 16.9355 9.11309 22.4936 
71 1 18.7186 8.26308 19.6612 
72 1 20.0631 11.8688 25.2489 
81 1 19.9637 8.19156 21.9449 
83 1 16.4727 8.36195 24.6861 
84 1 16.9834 7.07703 23.9216 
85 1 17.4425 10.5462 24.5183 
87 1 19.9658 9.46897 22.652 
97 1 18.2481 6.99937 21.8766 
99 1 19.7566 10.6114 24.7965 
100 1 18.3822 10.9476 23.8457 
104 1 15.153 8.46657 25.237 
108 1 18.8041 10.3742 22.5627 
111 1 20.4635 9.44433 23.9332 
112 1 17.166 7.51806 22.6424 
115 1 16.6161 9.59952 23.8178 
118 1 16.9432 9.07635 15.5886 
121 1 16.9691 7.06303 14.1296 
122 1 19.974 9.46837 15.4275 
125 1 18.3788 10.9552 14.2292 
ITEM: TIMESTEP
30
ITEM: NUMBER OF ATOMS
129
ITEM: BOX BOUNDS xy xz yz pp pp pp
0.0000000000000000e+00 2.3654499999999999e+01 7.8845000000000001e+00
0.0000000000000000e+00 1.3658086643083999e+01 0.0000000000000000e+00
0.0000000000000000e+00 2.5747000000000000e+01 0.0000000000000000e+00
ITEM: ATOMS id type x y z 
18 1 10.3871 6.77422 2.64676 
28 1 5.14435 4.63088 12.8447 
31 1 9.40696 6.54734 0.419173 
62 1 9.08919 5.26052 12.3811 
91 1 9.40176 6.54969 11.9126 
92 1 10.7996 6.20614 10.9719 
106 1 10.3843 6.77293 9.68948 
127 1 10.797 6.20618 1.36007 
4 1 4.57892 5.90528 13.1485 
5 1 3.16487 5.41713 14.2677 
43 1 4.55667 6.95333 15.479 
52 1 9.09121 5.26763 25.7035 
66 1 4.44445 5.81258 24.8047 
67 1 5.07151 6.95029 23.8938 
88 1 5.11185 4.57166 25.1965 
107 1 3.17313 5.63644 23.8739 
116 1 4.56022 6.95514 22.5985 
117 1 5.08242 6.9388 14.1591 
129 2 3.20409 4.07735 14.2508 
11 1 11.3214 7.58445 3.36226 
12 1 10.4847 8.85706 4.09252 
14 1 8.98262 11.3022 0.403309 
15 1 10.2401 11.4933 1.32397 
16 1 8.35591 8.89398 0.690725 
19 1 10.4692 8.86768 5.56005 
29 1 10.9511 10.1335 3.34021 
32 1 8.69695 7.65627 1.2733 
35 1 12.0534 9.62076 2.60174 
45 1 9.21729 8.94473 3.25682 
47 1 12.695 8.80231 0.547851 
49 1 11.3592 10.9489 0.641294 
51 1 8.86447 10.17 2.61407 
53 1 11.323 7.58557 8.9731 
54 1 10.4782 8.85657 8.24631 
56 1 8.99249 11.2952 11.9312 
57 1 8.35857 10.1992 11.0237 
58 1 11.3609 10.9392 11.6851 
60 1 12.2633 8.03869 9.60327 
61 1 10.4691 8.86786 6.77673 
73 1 9.22748 8.93683 9.07207 
75 1 12.7061 8.81011 11.7896 
76 1 12.2748 10.072 11.0023 
79 1 9.20827 7.65035 9.78212 
80 1 8.32307 12.5399 12.3148 
89 1 10.9452 10.1327 8.99355 
93 1 8.34723 8.89992 11.6368 
95 1 10.0343 11.0488 9.6899 
105 1 10.2437 11.4769 11.0151 
109 1 8.7015 7.65398 11.0499 
110 1 12.0586 9.61959 9.72875 
114 1 8.86001 10.1759 9.72983 
119 1 8.35468 10.2009 1.30963 
120 1 12.2658 8.03616 2.73235 
123 1 12.2703 10.0754 1.32864 
124 1 9.21 7.65076 2.55764 
128 1 10.0209 11.0477 2.65144 
6 1 5.02581 8.2253 13.5684 
13 1 9.6286 10.2572 25.0831 
17 1 9.15648 8.93184 25.1581 
30 1 9.91482 7.7148 25.0603 
34 1 11.2545 7.52488 25.14 
36 1 8.32201 12.5419 25.7676 
46 1 11.6775 8.85212 25.1019 
50 1 11.0027 10.1313 25.2123 
55 1 9.62401 10.249 13.0043 
59 1 10.9941 10.138 12.8815 
74 1 11.678 8.84787 12.976 
78 1 11.2614 7.52805 12.9475 
90 1 9.91312 7.71978 13.0249 
94 1 9.15966 8.94514 12.9275 
101 1 5.02509 8.2133 24.5094 
33 1 11.7211 6.62602 0.682863 
77 1 11.7218 6.62954 11.654 
41 1 17.8266 6.16787 13.5114 
68 1 17.8623 6.19079 24.5391 
103 1 19.1689 6.08826 22.5566 
126 1 19.1868 6.15548 15.5927 
3 1 19.576 6.8748 12.2571 
7 1 20.0553 8.19502 12.2804 
10 1 15.128 8.45646 12.8317 
22 1 19.2664 9.41069 12.1883 
26 1 17.9346 9.64899 12.2374 
38 1 17.4712 8.34933 12.2535 
42 1 18.1289 6.96422 12.3884 
44 1 20.0981 11.8565 12.832 
48 1 12.5583 7.55967 1.39077 
65 1 19.597 6.82095 0.121553 
69 1 18.2295 7.01926 0.0276643 
82 1 17.4896 8.32426 0.0886429 
86 1 17.9135 9.64453 0.0872259 
96 1 14.0422 8.67987 12.3645 
98 1 19.2582 9.43736 0.134238 
102 1 19.9906 8.16191 0.0653714 
113 1 12.5566 7.56602 10.9437 
1 1 17.8708 9.53942 16.2384 
2 1 18.7018 8.32645 16.9811 
8 1 18.8027 10.3553 15.5207 
9 1 18.723 8.27624 18.4376 
20 1 14.0525 8.67116 25.711 
21 1 18.2325 7.00162 16.2237 
23 1 19.7788 10.5906 13.2919 
24 1 20.5052 9.46849 14.1516 
25 1 17.4662 10.5231 13.5744 
27 1 17.1644 7.54193 15.4468 
37 1 19.9484 8.2062 16.1448 
39 1 16.4723 8.39802 13.3723 
40 1 16.6201 9.57534 14.2615 
63 1 17.8669 9.54602 21.8459 
64 1 18.7067 8.28275 21.1147 
70 1 16.926 9.08732 22.4829 
71 1 18.7208 8.26326 19.6603 
72 1 20.0987 11.865 25.2527 
81 1 19.9581 8.19548 21.9387 
83 1 16.5083 8.34324 24.6801 
84 1 16.9415 7.03831 23.8868 
85 1 17.4597 10.5238 24.5135 
87 1 19.9793 9.47759 22.657 
97 1 18.2454 6.99675 21.8698 
99 1 19.7806 10.5819 24.7983 
100 1 18.3951 10.9303 23.8399 
104 1 15.137 8.46099 25.2437 
108 1 18.8104 10.3577 22.5625 
111 1 20.4975 9.45832 23.9341 
112 1 17.1462 7.52392 22.6197 
115 1 16.6288 9.57595 23.8155 
118 1 16.9405 9.05757 15.5945 
121 1 16.9554 7.05431 14.126 
122 1 19.9794 9.4797 15.4236 
125 1 18.4022 10.9368 14.2376 
ITEM: TIMESTEP
40
ITEM: NUMBER OF ATOMS
129
ITEM: BOX BOUNDS xy xz yz pp pp pp
0.0000000000000000e+00 2.3654499999999999e+01 7.8845000000000001e+00
0.0000000000000000e+00 1.3658086643083999e+01 0.0000000000000000e+00
0.0000000000000000e+00 2.5747000000000000e+01 0.0000000000000000e+00
ITEM: ATOMS id type x y z 
18 1 10.3813 6.77783 2.64501 
28 1 5.14579 4.64051 12.8423 
31 1 9.40302 6.54715 0.416835 
62 1 9.08364 5.27325 12.3772 
91 1 9.40342 6.54774 11.9176 
92 1 10.7925 6.2122 10.9747 
106 1 10.3818 6.77605 9.68992 
127 1 10.7922 6.21094 1.36141 
4 1 4.58047 5.91573 13.1483 
5 1 3.15727 5.41087 14.2722 
43 1 4.55732 6.95578 15.4754 
52 1 9.0837 5.27167 25.7041 
66 1 4.43813 5.8171 24.7983 
67 1 5.07111 6.95577 23.8961 
88 1 5.10908 4.58072 25.194 
107 1 3.17855 5.64548 23.8766 
116 1 4.56429 6.96127 22.5995 
117 1 5.08114 6.94514 14.1594 
129 2 3.19853 4.07679 14.2543 
11 1 11.3237 7.58779 3.36503 
12 1 10.484 8.85781 4.09185 
14 1 8.9945 11.2915 0.407654 
15 1 10.2383 11.4761 1.32456 
16 1 8.35327 8.89933 0.686618 
19 1 10.4687 8.86768 5.55893 
29 1 10.9459 10.1302 3.33887 
32 1 8.69044 7.65443 1.27695 
35 1 12.0564 9.62467 2.60405 
45 1 9.22435 8.93417 3.26052 
47 1 12.6952 8.80974 0.550969 
49 1 11.3601 10.956 0.652701 
51 1 8.85825 10.1731 2.60632 
53 1 11.323 7.58651 8.97095 
54 1 10.4814 8.85481 8.2434 
56 1 8.99769 11.2893 11.9318 
57 1 8.35448 10.1833 11.028 
58 1 11.3678 10.9424 11.6845 
60 1 12.2653 8.042 9.60184 
61 1 10.4683 8.86752 6.77591 
73 1 9.22473 8.9339 9.07372 
75 1 12.7075 8.814 11.7885 
76 1 12.2826 10.0719 10.9988 
79 1 9.20788 7.64989 9.77936 
80 1 8.32548 12.5317 12.3132 
89 1 10.9472 10.1313 8.99469 
93 1 8.35111 8.90106 11.6461 
95 1 10.0365 11.0489 9.68946 
105 1 10.2426 11.4725 11.0152 
109 1 8.69019 7.65307 11.0572 
110 1 12.0604 9.62409 9.72538 
114 1 8.8597 10.174 9.73018 
119 1 8.35634 10.1865 1.3057 
120 1 12.2664 8.03966 2.73327 
123 1 12.2752 10.0756 1.33074 
124 1 9.20741 7.65187 2.55446 
128 1 10.0315 11.0516 2.64227 
6 1 5.03297 8.22737 13.5678 
13 1 9.627 10.2486 25.0852 
17 1 9.15089 8.93842 25.162 
30 1 9.91232 7.71755 25.0576 
34 1 11.2542 7.52536 25.1375 
36 1 8.32355 12.5352 25.7688 
46 1 11.6757 8.84927 25.1019 
50 1 10.997 10.1327 25.2049 
55 1 9.62395 10.2472 13.0054 
59 1 10.9945 10.1353 12.8863 
74 1 11.6756 8.84969 12.9763 
78 1 11.2545 7.52882 12.9455 
90 1 9.91213 7.71959 13.0241 
94 1 9.14895 8.94003 12.9181 
101 1 5.02965 8.21717 24.5121 
33 1 11.7175 6.62973 0.683271 
77 1 11.7162 6.63482 11.6538 
41 1 17.8239 6.1669 13.5129 
68 1 17.8551 6.19219 24.5394 
103 1 19.1597 6.08334 22.5556 
126 1 19.1871 6.1577 15.5921 
3 1 19.5734 6.87696 12.2559 
7 1 20.058 8.19575 12.2759 
10 1 15.1268 8.45449 12.8309 
22 1 19.269 9.41446 12.1834 
26 1 17.9351 9.64723 12.2414 
38 1 17.4712 8.34929 12.254 
42 1 18.1272 6.96408 12.3887 
44 1 20.106 11.8542 12.8318 
48 1 12.5561 7.56724 1.39439 
65 1 19.5984 6.81684 0.127732 
69 1 18.2329 7.02601 0.030426 
82 1 17.4953 8.32242 0.0911702 
86 1 17.9186 9.64344 0.0833482 
96 1 14.0404 8.68155 12.3633 
98 1 19.2558 9.43853 0.136027 
102 1 19.9892 8.16406 0.0651305 
113 1 12.5538 7.57243 10.9425 
1 1 17.8698 9.53698 16.24 
2 1 18.7008 8.32746 16.9826 
8 1 18.8052 10.3524 15.521 
9 1 18.7232 8.27729 18.437 
20 1 14.0499 8.67285 25.7127 
21 1 18.2333 7.00277 16.2222 
23 1 19.7842 10.5886 13.2906 
24 1 20.5126 9.47206 14.1526 
25 1 17.4702 10.516 13.5729 
27 1 17.1626 7.53852 15.4472 
37 1 19.949 8.20831 16.1442 
39 1 16.4735 8.39517 13.3733 
40 1 16.6224 9.57134 14.2613 
63 1 17.8655 9.54694 21.8455 
64 1 18.7024 8.28125 21.1158 
70 1 16.9252 9.09099 22.4796 
71 1 18.7215 8.26369 19.6561 
72 1 20.1054 11.8586 25.2514 
81 1 19.9651 8.20034 21.9434 
83 1 16.505 8.33253 24.6726 
84 1 16.9363 7.04483 23.8895 
85 1 17.4649 10.5185 24.5148 
87 1 19.9826 9.47644 22.6574 
97 1 18.2461 6.99905 21.8714 
99 1 19.7841 10.58 24.7997 
100 1 18.3992 10.9251 23.8419 
104 1 15.1434 8.45886 25.2405 
108 1 18.8123 10.3542 22.5619 
111 1 20.503 9.46148 23.9353 
112 1 17.1425 7.50972 22.6151 
115 1 16.6319 9.5684 23.8164 
118 1 16.9408 9.05395 15.5947 
121 1 16.9526 7.05166 14.1269 
122 1 19.9819 9.48063 15.4236 
125 1 18.4056 10.9333 14.2383 
ITEM: TIMESTEP
50
ITEM: NUMBER OF ATOMS
129
ITEM: BOX BOUNDS xy xz yz pp pp pp
0.0000000000000000e+00 2.3654499999999999e+01 7.8845000000000001e+00
0.0000000000000000e+00 1.3658086643083999e+01 0.0000000000000000e+00
0.0000000000000000e+00 2.5747000000000000e+01 0.0000000000000000e+00
ITEM: ATOMS id type x y z 
18 1 10.3474 6.85577 2.64958 
28 1 5.16132 4.8884 12.798 
31 1 9.30111 6.59655 0.381683 
62 1 8.89437 5.32775 12.3786 
91 1 9.29614 6.58813 11.9637 
92 1 10.7082 6.3161 10.969 
106 1 10.3479 6.85029 9.68299 
127 1 10.7088 6.32281 1.36457 
4 1 4.64104 6.10461 13.0814 
5 1 2.94584 5.30955 14.41 
43 1 4.55832 7.00773 15.4546 
52 1 8.89608 5.33461 25.7067 
66 1 4.39475 5.962 24.7999 
67 1 5.09637 7.10086 23.9093 
88 1 5.07908 4.72879 25.1549 
107 1 3.08875 5.75557 23.8836 
116 1 4.56962 6.99245 22.6203 
117 1 5.11796 7.0728 14.1462 
129 2 3.07826 4.04681 14.3315 
11 1 11.3277 7.62408 3.38833 
12 1 10.4827 8.79359 4.11111 
14 1 9.06118 11.1235 0.398766 
15 1 10.3185 11.3832 1.31101 
16 1 8.20485 8.80937 0.631975 
19 1 10.4522 8.86135 5.55264 
29 1 10.9472 10.128 3.34574 
32 1 8.53168 7.59643 1.27019 
35 1 12.1324 9.68977 2.66844 
45 1 9.24513 8.91642 3.25393 
47 1 12.7264 8.9075 0.559038 
49 1 11.4679 10.9077 0.655967 
51 1 8.84452 10.1345 2.57066 
53 1 11.328 7.62212 8.9394 
54 1 10.4988 8.80439 8.22339 
56 1 9.05256 11.113 11.943 
57 1 8.33229 10.034 11.0351 
58 1 11.4608 10.9194 11.6886 
60 1 12.2806 8.12722 9.54273 
61 1 10.4521 8.86024 6.77844 
73 1 9.232 8.91087 9.08978 
75 1 12.7204 8.90189 11.778 
76 1 12.4171 10.1477 10.9461 
79 1 9.12541 7.64632 9.80511 
80 1 8.36459 12.3689 12.2887 
89 1 10.9626 10.1085 8.99458 
93 1 8.20359 8.80785 11.7119 
95 1 10.0441 11.0015 9.69702 
105 1 10.3247 11.3791 11.018 
109 1 8.52143 7.60344 11.0597 
110 1 12.1251 9.69221 9.66714 
114 1 8.85102 10.1336 9.75716 
119 1 8.32111 10.0235 1.30514 
120 1 12.2768 8.1234 2.79051 
123 1 12.4059 10.1656 1.3927 
124 1 9.12918 7.6415 2.52396 
128 1 10.0508 10.9952 2.63734 
6 1 5.16027 8.32796 13.4913 
13 1 9.63194 10.1926 25.0409 
17 1 9.03986 8.90561 25.1389 
30 1 9.86844 7.74332 25.0001 
34 1 11.2073 7.54865 25.1223 
36 1 8.36648 12.3576 25.7976 
46 1 11.6409 8.87092 25.113 
50 1 11.0187 10.1759 25.1634 
55 1 9.63318 10.1899 13.0256 
59 1 11.0254 10.1626 12.9169 
74 1 11.6505 8.86269 12.9741 
78 1 11.2023 7.5664 12.9488 
90 1 9.87452 7.74277 13.0854 
94 1 9.04215 8.90783 12.946 
101 1 5.13192 8.29818 24.5797 
33 1 11.6406 6.75271 0.704645 
77 1 11.6453 6.75481 11.6362 
41 1 17.7961 6.11769 13.5441 
68 1 17.7996 6.28758 24.5747 
103 1 19.1491 6.11838 22.5656 
126 1 19.191 6.17553 15.5489 
3 1 19.5349 6.95104 12.2202 
7 1 20.0988 8.24203 12.2322 
10 1 15.115 8.40918 12.8181 
22 1 19.3042 9.41216 12.0976 
26 1 17.9796 9.63901 12.2508 
38 1 17.5215 8.34671 12.2606 
42 1 18.0923 6.95682 12.4179 
44 1 20.2983 11.7994 12.8288 
48 1 12.4862 7.69595 1.41474 
65 1 19.6439 6.82295 0.207753 
69 1 18.2583 7.03925 0.0870039 
82 1 17.5247 8.31061 0.0788885 
86 1 17.9565 9.61302 0.0811933 
96 1 14.0362 8.71889 12.3519 
98 1 19.2876 9.4268 0.197709 
102 1 20.0146 8.17664 0.0919481 
113 1 12.4946 7.69625 10.9181 
1 1 17.8657 9.49487 16.2655 
2 1 18.6877 8.36469 16.9962 
8 1 18.8396 10.2858 15.5303 
9 1 18.7301 8.30169 18.4326 
20 1 14.0705 8.69242 25.7171 
21 1 18.2462 7.02164 16.2024 
23 1 19.9009 10.5411 13.2633 
24 1 20.6716 9.54306 14.1539 
25 1 17.5648 10.4188 13.5788 
27 1 17.1194 7.47001 15.4661 
37 1 19.95 8.24257 16.1383 
39 1 16.4452 8.30822 13.3586 
40 1 16.647 9.49734 14.2754 
63 1 17.8539 9.51763 21.819 
64 1 18.6929 8.33263 21.1032 
70 1 16.9165 8.99865 22.4225 
71 1 18.7373 8.27737 19.6573 
72 1 20.2898 11.7995 25.2528 
81 1 19.9588 8.2232 21.9605 
83 1 16.4704 8.21348 24.6443 
84 1 16.7838 7.00245 23.8342 
85 1 17.5382 10.4028 24.4989 
87 1 20.0642 9.48343 22.6687 
97 1 18.2328 7.02205 21.8702 
99 1 19.8943 10.5315 24.8337 
100 1 18.4845 10.827 23.8507 
104 1 15.1513 8.42485 25.2299 
108 1 18.8498 10.2792 22.5565 
111 1 20.6568 9.51425 23.9437 
112 1 17.0701 7.44202 22.5235 
115 1 16.6989 9.43068 23.804 
118 1 16.9436 8.96379 15.6278 
121 1 16.8827 6.97748 14.1411 
122 1 20.0552 9.50017 15.4191 
125 1 18.499 10.8469 14.2474 
ITEM: TIMESTEP
60
ITEM: NUMBER OF ATOMS
129
ITEM: BOX BOUNDS xy xz yz pp pp pp
0.0000000000000000e+00 2.3654499999999999e+01 7.8845000000000001e+00
0.0000000000000000e+00 1.3658086643083999e+01 0.0000000000000000e+00
0.0000000000000000e+00 2.5747000000000000e+01 0.0000000000000000e+00
ITEM: ATOMS id type x y z 
18 1 10.339 6.85279 2.64985 
28 1 5.15894 4.8897 12.7987 
31 1 9.30145 6.59622 0.383472 
62 1 8.88413 5.33571 12.3787 
91 1 9.29556 6.59596 11.9504 
92 1 10.7005 6.32059 10.9818 
106 1 10.3388 6.85301 9.68537 
127 1 10.7029 6.32204 1.35467 
4 1 4.65438 6.10717 13.0732 
5 1 2.93301 5.3151 14.4205 
43 1 4.5595 7.00996 15.4425 
52 1 8.8826 5.33134 25.7029 
66 1 4.39789 5.95877 24.7958 
67 1 5.09057 7.08469 23.9058 
88 1 5.085 4.72465 25.1549 
107 1 3.10291 5.76142 23.8892 
116 1 4.56823 6.99713 22.6271 
117 1 5.12148 7.08062 14.1452 
129 2 3.08372 4.03754 14.3293 
11 1 11.3323 7.62091 3.38862 
12 1 10.4931 8.81526 4.10173 
14 1 9.05458 11.1249 0.407499 
15 1 10.3171 11.3772 1.31439 
16 1 8.20618 8.80781 0.631797 
19 1 10.4507 8.85891 5.55992 
29 1 10.9542 10.1075 3.34481 
32 1 8.53067 7.59591 1.27202 
35 1 12.13 9.70001 2.66727 
45 1 9.22613 8.91412 3.2468 
47 1 12.7221 8.91645 0.564613 
49 1 11.459 10.9164 0.649467 
51 1 8.84956 10.1277 2.57287 
53 1 11.3326 7.6197 8.9445 
54 1 10.4944 8.8151 8.2329 
56 1 9.04931 11.1251 11.9287 
57 1 8.32771 10.0386 11.0395 
58 1 11.4594 10.916 11.6883 
60 1 12.2743 8.12448 9.54723 
61 1 10.452 8.85902 6.77412 
73 1 9.22808 8.91136 9.08902 
75 1 12.7177 8.91207 11.7729 
76 1 12.4079 10.1436 10.9486 
79 1 9.12182 7.64539 9.81228 
80 1 8.36053 12.3692 12.2915 
89 1 10.9569 10.106 8.99286 
93 1 8.20803 8.80488 11.704 
95 1 10.0445 10.9977 9.70355 
105 1 10.3189 11.374 11.02 
109 1 8.53293 7.59581 11.0669 
110 1 12.134 9.69556 9.67272 
114 1 8.85207 10.1271 9.75928 
119 1 8.32263 10.0369 1.29934 
120 1 12.274 8.12628 2.78651 
123 1 12.4049 10.1455 1.39583 
124 1 9.12438 7.64504 2.52577 
128 1 10.0446 10.998 2.62844 
6 1 5.15655 8.33467 13.5012 
13 1 9.63426 10.1759 25.0498 
17 1 9.05104 8.90719 25.1297 
30 1 9.86842 7.74757 25.004 
34 1 11.2062 7.5582 25.1231 
36 1 8.36021 12.3621 25.7936 
46 1 11.6385 8.87007 25.1147 
50 1 11.0177 10.1612 25.1649 
55 1 9.63747 10.1756 13.0277 
59 1 11.0224 10.1572 12.9121 
74 1 11.6415 8.86687 12.9746 
78 1 11.2071 7.55874 12.9546 
90 1 9.87005 7.74712 13.0787 
94 1 9.04925 8.90632 12.9531 
101 1 5.1354 8.30288 24.5745 
33 1 11.6427 6.75589 0.702427 
77 1 11.6431 6.75527 11.6261 
41 1 17.788 6.11399 13.5474 
68 1 17.7905 6.28714 24.5644 
103 1 19.1509 6.1271 22.5701 
126 1 19.1903 6.17517 15.5501 
3 1 19.5357 6.95653 12.2234 
7 1 20.1041 8.23977 12.2337 
10 1 15.1149 8.41441 12.8193 
22 1 19.3069 9.41753 12.1033 
26 1 17.9731 9.63947 12.2324 
38 1 17.5156 8.33712 12.2697 
42 1 18.1033 6.95934 12.4285 
44 1 20.3108 11.7963 12.8284 
48 1 12.4891 7.70066 1.41383 
65 1 19.6294 6.83759 0.202157 
69 1 18.2613 7.03866 0.0837509 
82 1 17.5271 8.3069 0.0785176 
86 1 17.9522 9.61839 0.0907164 
96 1 14.0449 8.71601 12.354 
98 1 19.2854 9.42679 0.193591 
102 1 20.0254 8.17498 0.103028 
113 1 12.4919 7.69384 10.916 
1 1 17.8572 9.49281 16.2523 
2 1 18.6923 8.35719 16.9858 
8 1 18.8437 10.29 15.5333 
9 1 18.7309 8.30177 18.4378 
20 1 14.0655 8.69504 25.7199 
21 1 18.2458 7.02417 16.2019 
23 1 19.9003 10.5429 13.2683 
24 1 20.6624 9.5352 14.1529 
25 1 17.5475 10.4174 13.602 
27 1 17.119 7.46809 15.46 
37 1 19.9559 8.23652 16.1324 
39 1 16.4541 8.32002 13.3675 
40 1 16.6684 9.48025 14.2727 
63 1 17.8566 9.51757 21.8219 
64 1 18.6949 8.32305 21.1088 
70 1 16.9205 9.00177 22.4262 
71 1 18.7373 8.28161 19.6558 
72 1 20.3034 11.8016 25.2556 
81 1 19.9646 8.21768 21.9586 
83 1 16.486 8.22022 24.6485 
84 1 16.8015 6.99173 23.8286 
85 1 17.5357 10.4007 24.4901 
87 1 20.0693 9.48585 22.6766 
97 1 18.2366 7.02352 21.8651 
99 1 19.8918 10.529 24.8318 
100 1 18.492 10.8218 23.853 
104 1 15.139 8.42114 25.2349 
108 1 18.8523 10.2796 22.5615 
111 1 20.6508 9.5172 23.9401 
112 1 17.0608 7.43812 22.5388 
115 1 16.6975 9.43647 23.7959 
118 1 16.9432 8.97722 15.6119 
121 1 16.8905 6.98546 14.1351 
122 1 20.0695 9.49563 15.4091 
125 1 18.5012 10.8395 14.2375 
ITEM: TIMESTEP
70
ITEM: NUMBER OF ATOMS
129
ITEM: BOX BOUNDS xy xz yz pp pp pp
0.0000000000000000e+00 2.3654499999999999e+01 7.8845000000000001e+00
0.0000000000000000e+00 1.3658086643083999e+01 0.0000000000000000e+00
0.0000000000000000e+00 2.5747000000000000e+01 0.0000000000000000e+00
ITEM: ATOMS id type x y z 
18 1 10.3367 6.85453 2.64704 
28 1 5.15728 4.88395 12.7983 
31 1 9.29768 6.58955 0.387388 
62 1 8.85287 5.33002 12.3872 
91 1 9.29866 6.59126 11.9484 
92 1 10.6881 6.32616 10.9914 
106 1 10.3349 6.85319 9.6875 
127 1 10.6908 6.32717 1.34287 
4 1 4.68536 6.11325 13.0604 
5 1 2.90849 5.30402 14.4378 
43 1 4.56055 7.0025 15.4261 
52 1 8.8537 5.33279 25.6967 
66 1 4.41117 5.94906 24.8015 
67 1 5.09789 7.07829 23.9188 
88 1 5.09879 4.71572 25.1555 
107 1 3.11502 5.75975 23.8967 
116 1 4.57462 6.99742 22.6289 
117 1 5.13989 7.08146 14.1426 
129 2 3.09401 4.04001 14.3257 
11 1 11.3285 7.61342 3.37989 
12 1 10.4884 8.81871 4.09677 
14 1 9.03992 11.1316 0.408991 
15 1 10.3139 11.3779 1.30948 
16 1 8.21391 8.80845 0.630577 
19 1 10.4491 8.85515 5.55978 
29 1 10.9519 10.1051 3.34119 
32 1 8.52688 7.59875 1.26813 
35 1 12.136 9.69434 2.66693 
45 1 9.22363 8.91315 3.25202 
47 1 12.7142 8.91772 0.565007 
49 1 11.4533 10.918 0.648975 
51 1 8.84387 10.1284 2.5693 
53 1 11.3281 7.61335 8.95312 