
     Program PWSCF v.7.1 starts on 24May2025 at 22:24:28 

     This program is part of the open-source Quantum ESPRESSO suite
     for quantum simulation of materials; please cite
         "P. Giannozzi et al., J. Phys.:Condens. Matter 21 395502 (2009);
         "P. Giannozzi et al., J. Phys.:Condens. Matter 29 465901 (2017);
         "P. Giannozzi et al., J. Chem. Phys. 152 154105 (2020);
          URL http://www.quantum-espresso.org", 
     in publications or presentations arising from this work. More details at
     http://www.quantum-espresso.org/quote

     Parallel version (MPI), running on    16 processors

     MPI processes distributed on     1 nodes
     242963 MiB available memory on the printing compute node when the environment starts

     Reading input from input.pwi
Warning: card &CELL ignored
Warning: card / ignored
Warning: card &FCP ignored
Warning: card / ignored
Warning: card &RISM ignored
Warning: card / ignored

     Current dimensions of program PWSCF are:
     Max number of different atomic species (ntypx) = 10
     Max number of k-points (npk) =  40000
     Max angular momentum in pseudopotentials (lmaxx) =  4
     file C.pbe-n-kjpaw_psl.1.0.0.UPF: wavefunction(s)  2S 2P renormalized
     file O.pbe-n-kjpaw_psl.0.1.UPF: wavefunction(s)  2P renormalized

     IMPORTANT: XC functional enforced from input :
     Exchange-correlation= PBE
                           (   1   4   3   4   0   0   0)
     Any further DFT definition will be discarded
     Please, verify this is what you really want


     gamma-point specific algorithms are used

     R & G space division:  proc/nbgrp/npool/nimage =      16
     Subspace diagonalization in iterative solution of the eigenvalue problem:
     a serial algorithm will be used


     Parallelization info
     --------------------
     sticks:   dense  smooth     PW     G-vecs:    dense   smooth      PW
     Min         858     428    106                75870    26832    3354
     Max         860     430    108                75880    26846    3360
     Sum       13753    6869   1725              1214029   429409   53715

     Using Slab Decomposition



     bravais-lattice index     =            0
     lattice parameter (alat)  =      20.7870  a.u.
     unit-cell volume          =    8983.6663 (a.u.)^3
     number of atoms/cell      =           49
     number of atomic types    =            2
     number of electrons       =       198.00 (up:  99.00, down:  99.00)
     number of Kohn-Sham states=          119
     kinetic-energy cutoff     =      50.0000  Ry
     charge density cutoff     =     400.0000  Ry
     scf convergence threshold =      1.0E-06
     mixing beta               =       0.3000
     number of iterations used =            8  plain     mixing
     energy convergence thresh.=      1.0E-04
     force convergence thresh. =      1.0E-03
     Exchange-correlation= PBE
                           (   1   4   3   4   0   0   0)
     nstep                     =         1000


     celldm(1)=  20.786987  celldm(2)=   0.000000  celldm(3)=   0.000000
     celldm(4)=   0.000000  celldm(5)=   0.000000  celldm(6)=   0.000000

     crystal axes: (cart. coord. in units of alat)
               a(1) = (   1.000000   0.000000   0.000000 )  
               a(2) = (   0.000000   1.000182   0.000000 )  
               a(3) = (   0.000000   0.000000   1.000000 )  

     reciprocal axes: (cart. coord. in units 2 pi/alat)
               b(1) = (  1.000000  0.000000  0.000000 )  
               b(2) = (  0.000000  0.999818  0.000000 )  
               b(3) = (  0.000000  0.000000  1.000000 )  


     PseudoPot. # 1 for C  read from file:
     /home/ana.bisette/espresso/pseudo/C.pbe-n-kjpaw_psl.1.0.0.UPF
     MD5 check sum: 5d2aebdfa2cae82b50a7e79e9516da0f
     Pseudo is Projector augmented-wave + core cor, Zval =  4.0
     Generated using "atomic" code by A. Dal Corso  v.5.1
     Shape of augmentation charge: PSQ
     Using radial grid of 1073 points,  4 beta functions with: 
                l(1) =   0
                l(2) =   0
                l(3) =   1
                l(4) =   1
     Q(r) pseudized with 0 coefficients 


     PseudoPot. # 2 for O  read from file:
     /home/ana.bisette/espresso/pseudo/O.pbe-n-kjpaw_psl.0.1.UPF
     MD5 check sum: 0234752ac141de4415c5fc33072bef88
     Pseudo is Projector augmented-wave + core cor, Zval =  6.0
     Generated using "atomic" code by A. Dal Corso  v.5.0.99 svn rev. 10869
     Shape of augmentation charge: BESSEL
     Using radial grid of 1095 points,  4 beta functions with: 
                l(1) =   0
                l(2) =   0
                l(3) =   1
                l(4) =   1
     Q(r) pseudized with 0 coefficients 


     atomic species   valence    mass     pseudopotential
        C              4.00    12.01100     C ( 1.00)
        O              6.00    15.99900     O ( 1.00)

     Starting magnetic structure 
     atomic species   magnetization
        C            0.000
        O            0.000

     No symmetry found



   Cartesian axes

     site n.     atom                  positions (alat units)
         1           C   tau(   1) = (   0.5607273   0.4189091   0.5608182  )
         2           C   tau(   2) = (   0.6985455   0.2805455   0.6985455  )
         3           C   tau(   3) = (   0.6340000   0.3453636   0.6340000  )
         4           C   tau(   4) = (   0.4189091   0.5608182   0.5608182  )
         5           C   tau(   5) = (   0.2805455   0.6985455   0.6985455  )
         6           C   tau(   6) = (   0.3453636   0.6340000   0.6340000  )
         7           C   tau(   7) = (   0.5608182   0.5608182   0.4189091  )
         8           C   tau(   8) = (   0.6985455   0.6985455   0.2805455  )
         9           C   tau(   9) = (   0.6340000   0.6340000   0.3453636  )
        10           C   tau(  10) = (   0.4184545   0.4184545   0.4184545  )
        11           C   tau(  11) = (   0.2804545   0.2804545   0.2804545  )
        12           C   tau(  12) = (   0.3450909   0.3450909   0.3450909  )
        13           C   tau(  13) = (   0.5659091   0.4132727   0.4132727  )
        14           C   tau(  14) = (   0.7058182   0.2739091   0.2739091  )
        15           C   tau(  15) = (   0.6411818   0.3382727   0.3383636  )
        16           C   tau(  16) = (   0.4132727   0.5659091   0.4132727  )
        17           C   tau(  17) = (   0.2739091   0.7059091   0.2739091  )
        18           C   tau(  18) = (   0.3382727   0.6411818   0.3383636  )
        19           C   tau(  19) = (   0.4132727   0.4131818   0.5660000  )
        20           C   tau(  20) = (   0.2739091   0.2739091   0.7058182  )
        21           C   tau(  21) = (   0.3382727   0.3382727   0.6411818  )
        22           C   tau(  22) = (   0.5662727   0.5662727   0.5662727  )
        23           C   tau(  23) = (   0.7058182   0.7059091   0.7059091  )
        24           C   tau(  24) = (   0.6413636   0.6414545   0.6413636  )
        25           C   tau(  25) = (   0.0607273   0.9184545   0.0607273  )
        26           C   tau(  26) = (   0.1989091   0.7808182   0.1989091  )
        27           C   tau(  27) = (   0.1341818   0.8452727   0.1341818  )
        28           C   tau(  28) = (   0.9183636   0.0606364   0.0607273  )
        29           C   tau(  29) = (   0.7808182   0.1988182   0.1989091  )
        30           C   tau(  30) = (   0.8452727   0.1340909   0.1341818  )
        31           C   tau(  31) = (   0.0607273   0.0606364   0.9184545  )
        32           C   tau(  32) = (   0.1988182   0.1988182   0.7808182  )
        33           C   tau(  33) = (   0.1341818   0.1340909   0.8452727  )
        34           C   tau(  34) = (   0.9189091   0.9189091   0.9188182  )
        35           C   tau(  35) = (   0.7809091   0.7809091   0.7809091  )
        36           C   tau(  36) = (   0.8455455   0.8455455   0.8454545  )
        37           C   tau(  37) = (   0.0662727   0.9132727   0.9132727  )
        38           C   tau(  38) = (   0.2053636   0.7735455   0.7734545  )
        39           C   tau(  39) = (   0.1410909   0.8380909   0.8380909  )
        40           C   tau(  40) = (   0.9131818   0.0661818   0.9132727  )
        41           C   tau(  41) = (   0.7734545   0.2053636   0.7734545  )
        42           C   tau(  42) = (   0.8380000   0.1410000   0.8380000  )
        43           C   tau(  43) = (   0.9132727   0.9133636   0.0662727  )
        44           C   tau(  44) = (   0.7734545   0.7735455   0.2053636  )
        45           C   tau(  45) = (   0.8380909   0.8380909   0.1410909  )
        46           C   tau(  46) = (   0.0660000   0.0659091   0.0659091  )
        47           C   tau(  47) = (   0.2054545   0.2053636   0.2054545  )
        48           C   tau(  48) = (   0.1410000   0.1409091   0.1409091  )
        49           O   tau(  49) = (   0.4480909   0.4399091   0.3018182  )

     number of k points=     1  Gaussian smearing, width (Ry)=  0.0001
                       cart. coord. in units 2pi/alat
        k(    1) = (   0.0000000   0.0000000   0.0000000), wk =   1.0000000

     Dense  grid:   607015 G-vectors     FFT dimensions: ( 135, 135, 135)

     Smooth grid:   214705 G-vectors     FFT dimensions: (  96,  96,  96)

     Estimated max dynamical RAM per process >     173.67 MB

     Estimated total dynamical RAM >       2.71 GB

     Check: negative core charge=   -0.000004
     Generating pointlists ...
     new r_m :   0.0461 (alat units)  0.9573 (a.u.) for type    1
     new r_m :   0.0504 (alat units)  1.0482 (a.u.) for type    2

     Initial potential from superposition of free atoms

     starting charge     197.9980, renormalised to     198.0000
     Starting wfcs are  196 randomized atomic wfcs
     Checking if some PAW data can be deallocated... 

     total cpu time spent up to now is        3.0 secs

     Self-consistent Calculation

     iteration #  1     ecut=    50.00 Ry     beta= 0.30
     Davidson diagonalization with overlap
     ethr =  1.00E-02,  avg # of iterations =  2.0

     total cpu time spent up to now is        5.5 secs

     total energy              =    -923.11662929 Ry
     estimated scf accuracy    <       5.32901957 Ry

     total magnetization       =    -0.00 Bohr mag/cell
     absolute magnetization    =     0.07 Bohr mag/cell

     iteration #  2     ecut=    50.00 Ry     beta= 0.30
     Davidson diagonalization with overlap
     ethr =  2.69E-03,  avg # of iterations =  1.0

     negative rho (up, down):  3.792E-08 3.809E-08

     total cpu time spent up to now is        7.4 secs

     total energy              =    -922.38712954 Ry
     estimated scf accuracy    <       2.23986725 Ry

     total magnetization       =     0.00 Bohr mag/cell
     absolute magnetization    =     0.05 Bohr mag/cell

     iteration #  3     ecut=    50.00 Ry     beta= 0.30
     Davidson diagonalization with overlap
     ethr =  1.13E-03,  avg # of iterations =  2.0

     negative rho (up, down):  6.351E-07 6.365E-07

     total cpu time spent up to now is        9.5 secs

     total energy              =    -922.56497101 Ry
     estimated scf accuracy    <       1.13726732 Ry

     total magnetization       =     0.00 Bohr mag/cell
     absolute magnetization    =     0.03 Bohr mag/cell

     iteration #  4     ecut=    50.00 Ry     beta= 0.30
     Davidson diagonalization with overlap
     ethr =  5.74E-04,  avg # of iterations =  2.0

     negative rho (up, down):  6.278E-07 6.312E-07

     total cpu time spent up to now is       11.6 secs

     total energy              =    -922.63803254 Ry
     estimated scf accuracy    <       0.52109262 Ry

     total magnetization       =    -0.00 Bohr mag/cell
     absolute magnetization    =     0.02 Bohr mag/cell

     iteration #  5     ecut=    50.00 Ry     beta= 0.30
     Davidson diagonalization with overlap
     ethr =  2.63E-04,  avg # of iterations =  1.0

     negative rho (up, down):  6.898E-07 6.909E-07

     total cpu time spent up to now is       13.6 secs

     total energy              =    -922.61856166 Ry
     estimated scf accuracy    <       0.21230630 Ry

     total magnetization       =    -0.00 Bohr mag/cell
     absolute magnetization    =     0.02 Bohr mag/cell

     iteration #  6     ecut=    50.00 Ry     beta= 0.30
     Davidson diagonalization with overlap
     ethr =  1.07E-04,  avg # of iterations =  3.0

     negative rho (up, down):  8.164E-07 8.175E-07

     total cpu time spent up to now is       15.7 secs

     total energy              =    -922.63184626 Ry
     estimated scf accuracy    <       0.02081705 Ry

     total magnetization       =     0.00 Bohr mag/cell
     absolute magnetization    =     0.02 Bohr mag/cell

     iteration #  7     ecut=    50.00 Ry     beta= 0.30
     Davidson diagonalization with overlap
     ethr =  1.05E-05,  avg # of iterations = 12.0

     negative rho (up, down):  9.697E-07 9.702E-07

     total cpu time spent up to now is       18.6 secs

     total energy              =    -922.60873919 Ry
     estimated scf accuracy    <       0.20407952 Ry

     total magnetization       =     0.00 Bohr mag/cell
     absolute magnetization    =     0.02 Bohr mag/cell

     iteration #  8     ecut=    50.00 Ry     beta= 0.30
     Davidson diagonalization with overlap
     ethr =  1.05E-05,  avg # of iterations = 12.0

     negative rho (up, down):  1.244E-06 1.245E-06

     total cpu time spent up to now is       21.2 secs

     total energy              =    -922.63540043 Ry
     estimated scf accuracy    <       0.05926917 Ry

     total magnetization       =     0.00 Bohr mag/cell
     absolute magnetization    =     0.01 Bohr mag/cell

     iteration #  9     ecut=    50.00 Ry     beta= 0.30
     Davidson diagonalization with overlap
     ethr =  1.05E-05,  avg # of iterations =  1.0

     negative rho (up, down):  1.368E-06 1.369E-06

     total cpu time spent up to now is       23.1 secs

     total energy              =    -922.63394215 Ry
     estimated scf accuracy    <       0.03101464 Ry

     total magnetization       =    -0.00 Bohr mag/cell
     absolute magnetization    =     0.02 Bohr mag/cell

     iteration # 10     ecut=    50.00 Ry     beta= 0.30
     Davidson diagonalization with overlap
     ethr =  1.05E-05,  avg # of iterations =  1.0

     negative rho (up, down):  1.425E-06 1.426E-06

     total cpu time spent up to now is       25.1 secs

     total energy              =    -922.63335972 Ry
     estimated scf accuracy    <       0.01316639 Ry

     total magnetization       =    -0.00 Bohr mag/cell
     absolute magnetization    =     0.02 Bohr mag/cell

     iteration # 11     ecut=    50.00 Ry     beta= 0.30
     Davidson diagonalization with overlap
     ethr =  6.65E-06,  avg # of iterations =  2.0

     negative rho (up, down):  1.447E-06 1.448E-06

     total cpu time spent up to now is       27.1 secs

     total energy              =    -922.63351262 Ry
     estimated scf accuracy    <       0.00290730 Ry

     total magnetization       =     0.00 Bohr mag/cell
     absolute magnetization    =     0.02 Bohr mag/cell

     iteration # 12     ecut=    50.00 Ry     beta= 0.30
     Davidson diagonalization with overlap
     ethr =  1.47E-06,  avg # of iterations = 15.0

     negative rho (up, down):  1.481E-06 1.482E-06

     total cpu time spent up to now is       29.7 secs

     total energy              =    -922.63327387 Ry
     estimated scf accuracy    <       0.00265882 Ry

     total magnetization       =     0.00 Bohr mag/cell
     absolute magnetization    =     0.03 Bohr mag/cell

     iteration # 13     ecut=    50.00 Ry     beta= 0.30
     Davidson diagonalization with overlap
     ethr =  1.34E-06,  avg # of iterations =  2.0

     negative rho (up, down):  1.488E-06 1.488E-06

     total cpu time spent up to now is       31.8 secs

     total energy              =    -922.63339391 Ry
     estimated scf accuracy    <       0.00005835 Ry

     total magnetization       =    -0.00 Bohr mag/cell
     absolute magnetization    =     0.07 Bohr mag/cell

     iteration # 14     ecut=    50.00 Ry     beta= 0.30
     Davidson diagonalization with overlap
     ethr =  2.95E-08,  avg # of iterations =  4.0

     negative rho (up, down):  1.491E-06 1.491E-06

     total cpu time spent up to now is       34.0 secs

     total energy              =    -922.63340831 Ry
     estimated scf accuracy    <       0.00014352 Ry

     total magnetization       =    -0.00 Bohr mag/cell
     absolute magnetization    =     0.11 Bohr mag/cell

     iteration # 15     ecut=    50.00 Ry     beta= 0.30
     Davidson diagonalization with overlap
     ethr =  2.95E-08,  avg # of iterations =  1.5

     negative rho (up, down):  1.489E-06 1.490E-06

     total cpu time spent up to now is       36.0 secs

     total energy              =    -922.63341186 Ry
     estimated scf accuracy    <       0.00004229 Ry

     total magnetization       =    -0.00 Bohr mag/cell
     absolute magnetization    =     0.15 Bohr mag/cell

     iteration # 16     ecut=    50.00 Ry     beta= 0.30
     Davidson diagonalization with overlap
     ethr =  2.14E-08,  avg # of iterations =  1.0

     negative rho (up, down):  1.488E-06 1.491E-06

     total cpu time spent up to now is       38.0 secs

     total energy              =    -922.63338815 Ry
     estimated scf accuracy    <       0.00010166 Ry

     total magnetization       =    -0.00 Bohr mag/cell
     absolute magnetization    =     0.13 Bohr mag/cell

     iteration # 17     ecut=    50.00 Ry     beta= 0.30
     Davidson diagonalization with overlap
     ethr =  2.14E-08,  avg # of iterations =  1.5

     negative rho (up, down):  1.491E-06 1.494E-06

     total cpu time spent up to now is       40.0 secs

     total energy              =    -922.63338644 Ry
     estimated scf accuracy    <       0.00001434 Ry

     total magnetization       =    -0.00 Bohr mag/cell
     absolute magnetization    =     0.07 Bohr mag/cell

     iteration # 18     ecut=    50.00 Ry     beta= 0.30
     Davidson diagonalization with overlap
     ethr =  7.24E-09,  avg # of iterations =  2.0

     negative rho (up, down):  1.493E-06 1.494E-06

     total cpu time spent up to now is       42.0 secs

     total energy              =    -922.63339192 Ry
     estimated scf accuracy    <       0.00000607 Ry

     total magnetization       =    -0.00 Bohr mag/cell
     absolute magnetization    =     0.04 Bohr mag/cell

     iteration # 19     ecut=    50.00 Ry     beta= 0.30
     Davidson diagonalization with overlap
     ethr =  3.06E-09,  avg # of iterations =  2.0

     negative rho (up, down):  1.494E-06 1.495E-06

     total cpu time spent up to now is       44.1 secs

     total energy              =    -922.63339307 Ry
     estimated scf accuracy    <       0.00000101 Ry

     total magnetization       =    -0.00 Bohr mag/cell
     absolute magnetization    =     0.04 Bohr mag/cell

     iteration # 20     ecut=    50.00 Ry     beta= 0.30
     Davidson diagonalization with overlap
     ethr =  5.09E-10,  avg # of iterations =  4.0

     negative rho (up, down):  1.493E-06 1.494E-06

     total cpu time spent up to now is       46.3 secs

     total energy              =    -922.63338990 Ry
     estimated scf accuracy    <       0.00000116 Ry

     total magnetization       =    -0.00 Bohr mag/cell
     absolute magnetization    =     0.05 Bohr mag/cell

     iteration # 21     ecut=    50.00 Ry     beta= 0.30
     Davidson diagonalization with overlap
     ethr =  5.09E-10,  avg # of iterations =  3.5

     negative rho (up, down):  1.500E-06 1.499E-06

     Magnetic moment per site  (integrated on atomic sphere of radius R)
     atom   1 (R=0.046)  charge=  1.1282  magn=  0.0004
     atom   2 (R=0.046)  charge=  1.1718  magn=  0.0002
     atom   3 (R=0.046)  charge=  1.1945  magn=  0.0000
     atom   4 (R=0.046)  charge=  1.1300  magn= -0.0001
     atom   5 (R=0.046)  charge=  1.1731  magn= -0.0001
     atom   6 (R=0.046)  charge=  1.1943  magn= -0.0000
     atom   7 (R=0.046)  charge=  1.1298  magn=  0.0000
     atom   8 (R=0.046)  charge=  1.1709  magn= -0.0000
     atom   9 (R=0.046)  charge=  1.1947  magn= -0.0000
     atom  10 (R=0.046)  charge=  1.1743  magn=  0.0005
     atom  11 (R=0.046)  charge=  1.1795  magn=  0.0004
     atom  12 (R=0.046)  charge=  1.1939  magn= -0.0002
     atom  13 (R=0.046)  charge=  1.1144  magn=  0.0003
     atom  14 (R=0.046)  charge=  1.1712  magn= -0.0002
     atom  15 (R=0.046)  charge=  1.1841  magn=  0.0001
     atom  16 (R=0.046)  charge=  1.1204  magn= -0.0007
     atom  17 (R=0.046)  charge=  1.1720  magn= -0.0003
     atom  18 (R=0.046)  charge=  1.1824  magn=  0.0001
     atom  19 (R=0.046)  charge=  1.1215  magn= -0.0006
     atom  20 (R=0.046)  charge=  1.1717  magn= -0.0002
     atom  21 (R=0.046)  charge=  1.1833  magn= -0.0000
     atom  22 (R=0.046)  charge=  1.1181  magn=  0.0000
     atom  23 (R=0.046)  charge=  1.1716  magn=  0.0000
     atom  24 (R=0.046)  charge=  1.1825  magn= -0.0000
     atom  25 (R=0.046)  charge=  1.1278  magn=  0.0000
     atom  26 (R=0.046)  charge=  1.1718  magn=  0.0000
     atom  27 (R=0.046)  charge=  1.1964  magn= -0.0002
     atom  28 (R=0.046)  charge=  1.1280  magn=  0.0001
     atom  29 (R=0.046)  charge=  1.1718  magn=  0.0001
     atom  30 (R=0.046)  charge=  1.1959  magn= -0.0001
     atom  31 (R=0.046)  charge=  1.1282  magn= -0.0000
     atom  32 (R=0.046)  charge=  1.1717  magn=  0.0000
     atom  33 (R=0.046)  charge=  1.1963  magn= -0.0001
     atom  34 (R=0.046)  charge=  1.1279  magn= -0.0000
     atom  35 (R=0.046)  charge=  1.1703  magn= -0.0000
     atom  36 (R=0.046)  charge=  1.1972  magn=  0.0000
     atom  37 (R=0.046)  charge=  1.1182  magn=  0.0000
     atom  38 (R=0.046)  charge=  1.1696  magn= -0.0000
     atom  39 (R=0.046)  charge=  1.1863  magn= -0.0000
     atom  40 (R=0.046)  charge=  1.1184  magn= -0.0000
     atom  41 (R=0.046)  charge=  1.1706  magn=  0.0000
     atom  42 (R=0.046)  charge=  1.1847  magn=  0.0001
     atom  43 (R=0.046)  charge=  1.1185  magn= -0.0001
     atom  44 (R=0.046)  charge=  1.1704  magn= -0.0000
     atom  45 (R=0.046)  charge=  1.1846  magn= -0.0000
     atom  46 (R=0.046)  charge=  1.1156  magn= -0.0002
     atom  47 (R=0.046)  charge=  1.1661  magn= -0.0001
     atom  48 (R=0.046)  charge=  1.1889  magn=  0.0002
     atom  49 (R=0.050)  charge=  3.5529  magn=  0.0018

     total cpu time spent up to now is       48.5 secs

     End of self-consistent calculation

 ------ SPIN UP ------------


          k = 0.0000 0.0000 0.0000 ( 26858 PWs)   bands (ev):

   -25.7201 -21.6452 -21.0208 -17.7821 -17.6984 -17.5820 -17.5675 -17.5231
   -17.0106 -16.9374 -16.8861 -16.7921 -16.7289 -16.5333 -16.1953 -16.1376
   -16.0962 -16.0212 -16.0102 -15.8795 -15.7118 -15.3783 -14.7971 -14.7487
   -14.7346 -14.2484 -14.2034 -13.9648 -13.5149 -13.2358 -13.0818 -13.0110
   -12.9809 -12.4112 -12.0684 -11.9252 -11.9083 -11.7594 -11.0052 -10.9897
   -10.9139 -10.6986 -10.5642 -10.3593 -10.1228 -10.0817 -10.0327  -9.6470
    -9.6251  -9.5762  -9.5713  -9.5433  -9.2496  -8.2357  -7.7785  -7.0317
    -6.9754  -6.8829  -6.8616  -6.7242  -6.4029  -6.3921  -6.1837  -6.0857
    -6.0760  -5.6620  -5.6449  -5.6326  -5.5739  -5.5253  -5.5026  -5.4808
    -5.4207  -5.3956  -5.2632  -5.0370  -4.9106  -4.8040  -4.5814  -4.4969
    -4.3682  -4.2746  -4.0095  -3.9870  -3.8576  -3.6881  -3.6616  -3.6484
    -3.4627  -3.4510  -3.1931  -3.1116  -3.0804  -3.0396  -2.5350  -2.4141
    -2.1481  -1.5894  -1.5052  -1.4001  -0.3373  -0.2489   0.0693   0.4999
     0.5932   0.8583   1.1097   1.1715   1.2340   1.2505   1.5793   1.6021
     2.0037   2.1734   2.2636   2.4711   2.4785   2.5041   2.7285

 ------ SPIN DOWN ----------


          k = 0.0000 0.0000 0.0000 ( 26858 PWs)   bands (ev):

   -25.7191 -21.6453 -21.0207 -17.7823 -17.6983 -17.5821 -17.5676 -17.5231
   -17.0106 -16.9375 -16.8861 -16.7922 -16.7290 -16.5332 -16.1953 -16.1376
   -16.0963 -16.0213 -16.0103 -15.8796 -15.7119 -15.3782 -14.7972 -14.7486
   -14.7347 -14.2484 -14.2034 -13.9646 -13.5149 -13.2356 -13.0817 -13.0110
   -12.9810 -12.4112 -12.0683 -11.9252 -11.9083 -11.7594 -11.0052 -10.9895
   -10.9139 -10.6986 -10.5640 -10.3592 -10.1227 -10.0816 -10.0326  -9.6470
    -9.6252  -9.5763  -9.5714  -9.5433  -9.2493  -8.2346  -7.7786  -7.0318
    -6.9755  -6.8830  -6.8617  -6.7243  -6.4028  -6.3923  -6.1837  -6.0856
    -6.0762  -5.6622  -5.6448  -5.6325  -5.5737  -5.5255  -5.5028  -5.4809
    -5.4209  -5.3956  -5.2632  -5.0371  -4.9106  -4.8039  -4.5815  -4.4967
    -4.3683  -4.2746  -4.0095  -3.9873  -3.8575  -3.6882  -3.6619  -3.6485
    -3.4629  -3.4510  -3.1932  -3.1117  -3.0804  -3.0397  -2.5352  -2.4131
    -2.1482  -1.5881  -1.5046  -1.3988  -0.3372  -0.2490   0.0693   0.4998
     0.5933   0.8583   1.1096   1.1715   1.2338   1.2505   1.5793   1.6020
     2.0036   2.1735   2.2635   2.4711   2.4785   2.5040   2.7283

     the spin up/dw Fermi energies are    -1.4848   -1.4848 ev

!    total energy              =    -922.63339186 Ry
     total all-electron energy =     -3804.156980 Ry
     estimated scf accuracy    <       0.00000076 Ry
     smearing contrib. (-TS)   =      -0.00000000 Ry
     internal energy E=F+TS    =    -922.63339186 Ry

     The total energy is F=E-TS. E is the sum of the following terms:
     one-electron contribution =   -1325.48241004 Ry
     hartree contribution      =     708.86902824 Ry
     xc contribution           =    -225.81838918 Ry
     ewald contribution        =     225.38614823 Ry
     one-center paw contrib.   =    -305.58776912 Ry

     total magnetization       =     0.00 Bohr mag/cell
     absolute magnetization    =     0.03 Bohr mag/cell

     convergence has been achieved in  21 iterations

     negative rho (up, down):  1.500E-06 1.499E-06

     Forces acting on atoms (cartesian axes, Ry/au):

     atom    1 type  1   force =     0.02606591   -0.02153037    0.05444249
     atom    2 type  1   force =     0.05654038   -0.05710999    0.05480527
     atom    3 type  1   force =     0.03139941   -0.02426678    0.02810083
     atom    4 type  1   force =    -0.02908073    0.03789364    0.04756275
     atom    5 type  1   force =    -0.05547110    0.05468601    0.05342404
     atom    6 type  1   force =    -0.02636750    0.03135305    0.03981902
     atom    7 type  1   force =     0.01136054   -0.00103177    0.00012242
     atom    8 type  1   force =     0.04978109    0.04993210   -0.04970144
     atom    9 type  1   force =     0.03370748    0.03365627   -0.04202022
     atom   10 type  1   force =    -0.20123887   -0.02735870    0.09779652
     atom   11 type  1   force =    -0.16005395   -0.15565982   -0.14218529
     atom   12 type  1   force =    -0.01422201   -0.00210248    0.03808016
     atom   13 type  1   force =     0.12554553    0.02206043    0.08456801
     atom   14 type  1   force =     0.06915826   -0.06866974   -0.06540885
     atom   15 type  1   force =    -0.01314191    0.01857035    0.03298887
     atom   16 type  1   force =    -0.01400493    0.05904441    0.16243226
     atom   17 type  1   force =    -0.06275898    0.06283950   -0.06219355
     atom   18 type  1   force =     0.01845627   -0.02072105    0.02606991
     atom   19 type  1   force =     0.08068391    0.07021269    0.05171586
     atom   20 type  1   force =    -0.07268801   -0.07238958    0.06923049
     atom   21 type  1   force =     0.03151129    0.02952434   -0.03427635
     atom   22 type  1   force =    -0.05169854   -0.05702621   -0.04022595
     atom   23 type  1   force =     0.05058027    0.05042013    0.05026235
     atom   24 type  1   force =    -0.00512377   -0.00632315   -0.00620781
     atom   25 type  1   force =     0.03194844   -0.02776650    0.02042054
     atom   26 type  1   force =     0.05680454   -0.05672467    0.05679199
     atom   27 type  1   force =     0.02886837   -0.02981261    0.02851432
     atom   28 type  1   force =    -0.03728714    0.02894772    0.02086474
     atom   29 type  1   force =    -0.06155720    0.06161326    0.06121619
     atom   30 type  1   force =    -0.02778806    0.02456839    0.02537497
     atom   31 type  1   force =     0.02066213    0.01931617   -0.04682502
     atom   32 type  1   force =     0.06306760    0.06320666   -0.06092740
     atom   33 type  1   force =     0.02211895    0.02221889   -0.02853171
     atom   34 type  1   force =    -0.01883938   -0.01464647   -0.02434488
     atom   35 type  1   force =    -0.04826788   -0.04781842   -0.04788626
     atom   36 type  1   force =    -0.03835670   -0.03790809   -0.03744738
     atom   37 type  1   force =    -0.04923998    0.05168342    0.05239110
     atom   38 type  1   force =     0.05454643   -0.05434581   -0.05486816
     atom   39 type  1   force =    -0.00904200    0.00819829    0.00742495
     atom   40 type  1   force =     0.04945861   -0.05181801    0.04953848
     atom   41 type  1   force =    -0.05559088    0.05576929   -0.05541791
     atom   42 type  1   force =     0.00954322   -0.00984093    0.00918958
     atom   43 type  1   force =     0.05081392    0.05285464   -0.04393876
     atom   44 type  1   force =    -0.05330189   -0.05380862    0.05512872
     atom   45 type  1   force =     0.00891321    0.01003165   -0.00894157
     atom   46 type  1   force =    -0.02132424   -0.02804519   -0.00619514
     atom   47 type  1   force =     0.10985869    0.11003672    0.10707319
     atom   48 type  1   force =    -0.05198868   -0.05319946   -0.04670310
     atom   49 type  2   force =     0.08703989   -0.04871357   -0.48110324

     Total force =     0.832097     Total SCF correction =     0.001083

     BFGS Geometry Optimization
     Energy error            =      0.0E+00 Ry
     Gradient error          =      4.8E-01 Ry/Bohr

     number of scf cycles    =   1
     number of bfgs steps    =   0

     energy             new  =    -922.6333918622 Ry

     new trust radius        =       0.4913341895 bohr
     new conv_thr            =       0.0000010000 Ry


ATOMIC_POSITIONS (angstrom)
C             6.1817934869        4.5966066175        6.1978097236
C             7.7139198808        3.0557786926        7.7130016994
C             6.9906158528        3.7861585749        6.9888703185
C             4.5926111389        6.1890524518        6.1941691225
C             3.0566459589        7.7129385903        7.7122707836
C             3.7850469206        6.9905913198        6.9950713170
C             6.1750117384        6.1684540104        4.6080647825
C             7.7103430205        7.7104229315        3.0596991281
C             6.9918372286        6.9918101324        3.7767638580
C             4.4965089739        4.5885224010        4.6547516891
C             3.0003030956        3.0026283680        3.0097587867
C             3.7884740342        3.7948874144        3.8161511503
C             6.2914358325        4.5576738786        4.5907514619
C             7.8005969759        2.9766615366        2.9783871274
C             7.0460455999        3.7308270065        3.7394569556
C             4.5385889127        6.2562449541        4.6319554529
C             2.9797893767        7.7982532300        2.9800885892
C             3.7307666385        7.0420348938        3.7357956016
C             4.5886960884        4.5821549553        6.2533668564
C             2.9745351607        2.9746930822        7.8006351998
C             3.7376750560        3.7366236081        7.0348617360
C             6.2016423123        6.1988230271        6.2077133445
C             7.7907659246        7.7916811834        7.7915976876
C             7.0522886170        7.0526539357        7.0517149661
C             0.6849063852       10.0883065992        0.6788060836
C             2.2180596658        8.5589825965        2.2180530266
C             1.4912764815        9.2822238464        1.4910891267
C            10.0822684959        0.6823184725        0.6790411470
C             8.5564253326        2.2196043350        2.2203942101
C             9.2832951945        1.4880010339        1.4894278552
C             0.6789339281        0.6772216744       10.0782212666
C             2.2203739351        2.2204475217        8.5567586072
C             1.4877048430        1.4867577300        9.2829016669
C            10.0980306275       10.1002494202       10.0941172447
C             8.5644577356        8.5646955820        8.5646596816
C             9.2807025104        9.2809399012        9.2801837024
C             0.7029433248       10.0733496896       10.0737241769
C             2.2878647286        8.4802414360        8.4789650207
C             1.5472151799        9.2233383507        9.2229291143
C            10.0711723709        0.7005790875       10.0722146321
C             8.4785825725        2.2885118371        8.4786741067
C             9.2230500566        1.5457924067        9.2228629188
C            10.0728895689       10.0749694699        0.7057486112
C             8.4797938529        8.4805257050        2.2881728646
C             9.2237166690        9.2243085201        1.5472683256
C             0.7147156976        0.7101591222        0.7217216717
C             2.3181347176        2.3172289232        2.3166606919
C             1.5234887752        1.5218480557        1.5252857816
O             4.9750595252        4.8132218875        3.0654111271



     Writing config-only to output data dir ./pwscf.save/
     NEW-OLD atomic charge density approx. for the potential

     Check: negative core charge=   -0.000004

     negative rho (up, down):  1.680E-06 1.626E-06
     Generating pointlists ...
     new r_m :   0.0446 (alat units)  0.9274 (a.u.) for type    1

     total cpu time spent up to now is       52.9 secs

     Self-consistent Calculation

     iteration #  1     ecut=    50.00 Ry     beta= 0.30
     Davidson diagonalization with overlap
     ethr =  1.00E-06,  avg # of iterations = 19.0

     negative rho (up, down):  1.511E-06 1.513E-06

     total cpu time spent up to now is       59.6 secs

     total energy              =    -922.57304448 Ry
     estimated scf accuracy    <       0.86879056 Ry

     total magnetization       =    -0.00 Bohr mag/cell
     absolute magnetization    =     0.01 Bohr mag/cell

     iteration #  2     ecut=    50.00 Ry     beta= 0.30
     Davidson diagonalization with overlap
     ethr =  4.39E-04,  avg # of iterations =  2.0

     negative rho (up, down):  2.212E-06 2.208E-06

     total cpu time spent up to now is       61.8 secs

     total energy              =    -922.34158482 Ry
     estimated scf accuracy    <       4.94250313 Ry

     total magnetization       =    -0.00 Bohr mag/cell
     absolute magnetization    =     0.01 Bohr mag/cell

     iteration #  3     ecut=    50.00 Ry     beta= 0.30
     Davidson diagonalization with overlap
     ethr =  4.39E-04,  avg # of iterations =  2.0

     negative rho (up, down):  2.126E-06 2.125E-06

     total cpu time spent up to now is       63.8 secs

     total energy              =    -922.74355119 Ry
     estimated scf accuracy    <       0.33568702 Ry

     total magnetization       =     0.00 Bohr mag/cell
     absolute magnetization    =     0.01 Bohr mag/cell

     iteration #  4     ecut=    50.00 Ry     beta= 0.30
     Davidson diagonalization with overlap
     ethr =  1.70E-04,  avg # of iterations =  1.0

     negative rho (up, down):  1.926E-06 1.925E-06

     total cpu time spent up to now is       65.7 secs

     total energy              =    -922.75120217 Ry
     estimated scf accuracy    <       0.05869895 Ry

     total magnetization       =     0.00 Bohr mag/cell
     absolute magnetization    =     0.01 Bohr mag/cell

     iteration #  5     ecut=    50.00 Ry     beta= 0.30
     Davidson diagonalization with overlap
     ethr =  2.96E-05,  avg # of iterations =  2.0

     negative rho (up, down):  1.643E-06 1.643E-06

     total cpu time spent up to now is       67.6 secs

     total energy              =    -922.74930527 Ry
     estimated scf accuracy    <       0.03673545 Ry

     total magnetization       =    -0.00 Bohr mag/cell
     absolute magnetization    =     0.01 Bohr mag/cell

     iteration #  6     ecut=    50.00 Ry     beta= 0.30
     Davidson diagonalization with overlap
     ethr =  1.86E-05,  avg # of iterations =  1.0

     negative rho (up, down):  1.485E-06 1.486E-06

     total cpu time spent up to now is       69.4 secs

     total energy              =    -922.74880916 Ry
     estimated scf accuracy    <       0.01163526 Ry

     total magnetization       =     0.00 Bohr mag/cell
     absolute magnetization    =     0.01 Bohr mag/cell

     iteration #  7     ecut=    50.00 Ry     beta= 0.30
     Davidson diagonalization with overlap
     ethr =  5.88E-06,  avg # of iterations =  2.0

     negative rho (up, down):  1.430E-06 1.430E-06

     total cpu time spent up to now is       71.5 secs

     total energy              =    -922.74877232 Ry
     estimated scf accuracy    <       0.00664815 Ry

     total magnetization       =    -0.00 Bohr mag/cell
     absolute magnetization    =     0.01 Bohr mag/cell

     iteration #  8     ecut=    50.00 Ry     beta= 0.30
     Davidson diagonalization with overlap
     ethr =  3.36E-06,  avg # of iterations =  2.0

     negative rho (up, down):  1.430E-06 1.431E-06

     total cpu time spent up to now is       73.6 secs

     total energy              =    -922.74897141 Ry
     estimated scf accuracy    <       0.00077147 Ry

     total magnetization       =    -0.00 Bohr mag/cell
     absolute magnetization    =     0.01 Bohr mag/cell

     iteration #  9     ecut=    50.00 Ry     beta= 0.30
     Davidson diagonalization with overlap
     ethr =  3.90E-07,  avg # of iterations =  4.0

     negative rho (up, down):  1.434E-06 1.434E-06

     total cpu time spent up to now is       75.8 secs

     total energy              =    -922.74901939 Ry
     estimated scf accuracy    <       0.00010885 Ry

     total magnetization       =     0.00 Bohr mag/cell
     absolute magnetization    =     0.01 Bohr mag/cell

     iteration # 10     ecut=    50.00 Ry     beta= 0.30
     Davidson diagonalization with overlap
     ethr =  5.50E-08,  avg # of iterations =  4.0

     negative rho (up, down):  1.439E-06 1.439E-06

     total cpu time spent up to now is       78.1 secs

     total energy              =    -922.74902080 Ry
     estimated scf accuracy    <       0.00002604 Ry

     total magnetization       =    -0.00 Bohr mag/cell
     absolute magnetization    =     0.01 Bohr mag/cell

     iteration # 11     ecut=    50.00 Ry     beta= 0.30
     Davidson diagonalization with overlap
     ethr =  1.32E-08,  avg # of iterations =  3.0

     negative rho (up, down):  1.441E-06 1.441E-06

     total cpu time spent up to now is       80.3 secs

     total energy              =    -922.74902332 Ry
     estimated scf accuracy    <       0.00000680 Ry

     total magnetization       =     0.00 Bohr mag/cell
     absolute magnetization    =     0.01 Bohr mag/cell

     iteration # 12     ecut=    50.00 Ry     beta= 0.30
     Davidson diagonalization with overlap
     ethr =  3.43E-09,  avg # of iterations =  2.0

     negative rho (up, down):  1.441E-06 1.441E-06

     total cpu time spent up to now is       82.5 secs

     total energy              =    -922.74902419 Ry
     estimated scf accuracy    <       0.00000129 Ry

     total magnetization       =     0.00 Bohr mag/cell
     absolute magnetization    =     0.01 Bohr mag/cell

     iteration # 13     ecut=    50.00 Ry     beta= 0.30
     Davidson diagonalization with overlap
     ethr =  6.52E-10,  avg # of iterations =  4.0

     negative rho (up, down):  1.443E-06 1.443E-06

     Magnetic moment per site  (integrated on atomic sphere of radius R)
     atom   1 (R=0.045)  charge=  1.0475  magn=  0.0000
     atom   2 (R=0.045)  charge=  1.0978  magn=  0.0000
     atom   3 (R=0.045)  charge=  1.0879  magn= -0.0000
     atom   4 (R=0.045)  charge=  1.0529  magn=  0.0000
     atom   5 (R=0.045)  charge=  1.1002  magn= -0.0000
     atom   6 (R=0.045)  charge=  1.0912  magn=  0.0000
     atom   7 (R=0.045)  charge=  1.0317  magn=  0.0000
     atom   8 (R=0.045)  charge=  1.1021  magn= -0.0000
     atom   9 (R=0.045)  charge=  1.0840  magn= -0.0000
     atom  10 (R=0.045)  charge=  1.0307  magn=  0.0001
     atom  11 (R=0.045)  charge=  1.1207  magn=  0.0001
     atom  12 (R=0.045)  charge=  1.0387  magn= -0.0001
     atom  13 (R=0.045)  charge=  1.0196  magn= -0.0000
     atom  14 (R=0.045)  charge=  1.0778  magn= -0.0001
     atom  15 (R=0.045)  charge=  1.0513  magn=  0.0000
     atom  16 (R=0.045)  charge=  1.0269  magn= -0.0001
     atom  17 (R=0.045)  charge=  1.0755  magn= -0.0000
     atom  18 (R=0.045)  charge=  1.0450  magn=  0.0001
     atom  19 (R=0.045)  charge=  1.0395  magn= -0.0000
     atom  20 (R=0.045)  charge=  1.0722  magn= -0.0000
     atom  21 (R=0.045)  charge=  1.0424  magn=  0.0000
     atom  22 (R=0.045)  charge=  1.0262  magn= -0.0000
     atom  23 (R=0.045)  charge=  1.0797  magn=  0.0000
     atom  24 (R=0.045)  charge=  1.0520  magn= -0.0000
     atom  25 (R=0.045)  charge=  1.0410  magn=  0.0000
     atom  26 (R=0.045)  charge=  1.0988  magn=  0.0000
     atom  27 (R=0.045)  charge=  1.0873  magn= -0.0000
     atom  28 (R=0.045)  charge=  1.0408  magn=  0.0000
     atom  29 (R=0.045)  charge=  1.0980  magn=  0.0000
     atom  30 (R=0.045)  charge=  1.0849  magn= -0.0001
     atom  31 (R=0.045)  charge=  1.0420  magn=  0.0000
     atom  32 (R=0.045)  charge=  1.0997  magn=  0.0000
     atom  33 (R=0.045)  charge=  1.0829  magn= -0.0000
     atom  34 (R=0.045)  charge=  1.0378  magn= -0.0000
     atom  35 (R=0.045)  charge=  1.0998  magn= -0.0000
     atom  36 (R=0.045)  charge=  1.0898  magn=  0.0000
     atom  37 (R=0.045)  charge=  1.0254  magn= -0.0000
     atom  38 (R=0.045)  charge=  1.0771  magn=  0.0000
     atom  39 (R=0.045)  charge=  1.0500  magn= -0.0000
     atom  40 (R=0.045)  charge=  1.0259  magn= -0.0000
     atom  41 (R=0.045)  charge=  1.0775  magn= -0.0000
     atom  42 (R=0.045)  charge=  1.0490  magn=  0.0000
     atom  43 (R=0.045)  charge=  1.0241  magn= -0.0000
     atom  44 (R=0.045)  charge=  1.0751  magn= -0.0000
     atom  45 (R=0.045)  charge=  1.0496  magn= -0.0000
     atom  46 (R=0.045)  charge=  1.0305  magn= -0.0000
     atom  47 (R=0.045)  charge=  1.1137  magn= -0.0001
     atom  48 (R=0.045)  charge=  1.0364  magn=  0.0002
     atom  49 (R=0.050)  charge=  3.4195  magn=  0.0001

     total cpu time spent up to now is       84.7 secs

     End of self-consistent calculation

 ------ SPIN UP ------------


          k = 0.0000 0.0000 0.0000 ( 26858 PWs)   bands (ev):

   -22.3164 -21.8428 -20.6035 -17.7840 -17.6979 -17.6478 -17.5741 -17.5041
   -17.1746 -17.0584 -16.9617 -16.9090 -16.8697 -16.7506 -16.4138 -16.2760
   -16.0889 -15.8934 -15.8184 -15.6475 -15.4598 -15.2924 -14.6766 -14.4867
   -14.4554 -14.4265 -14.4159 -14.3045 -13.9364 -13.5125 -12.8383 -12.8095
   -12.7445 -12.4288 -12.3487 -12.2962 -12.1905 -11.5839 -11.2766 -11.2235
   -11.1403 -10.8301 -10.4752 -10.1199 -10.0654 -10.0070  -9.7085  -9.6997
    -9.6847  -9.6351  -9.5951  -9.5117  -9.2179  -7.5515  -7.3259  -7.0691
    -6.8768  -6.8473  -6.7477  -6.5516  -6.4986  -6.3924  -6.1622  -6.1280
    -6.0095  -5.9516  -5.8507  -5.7378  -5.6707  -5.6426  -5.6258  -5.5851
    -5.5626  -5.5063  -5.4439  -5.0947  -5.0720  -5.0353  -4.7967  -4.7268
    -4.6495  -4.4217  -3.7416  -3.7170  -3.6176  -3.4310  -3.3748  -3.3385
    -3.1259  -3.1139  -2.9133  -2.8895  -2.8380  -2.7949  -2.3712  -2.1039
    -1.9330  -1.8193  -1.6815  -1.2746  -0.9800  -0.6355  -0.1767  -0.0254
     0.2139   0.5044   0.6230   0.7476   0.8563   0.8994   1.0529   1.1107
     1.5014   2.0046   2.0293   2.0842   2.2381   2.4250   2.4740

 ------ SPIN DOWN ----------


          k = 0.0000 0.0000 0.0000 ( 26858 PWs)   bands (ev):

   -22.3163 -21.8428 -20.6034 -17.7841 -17.6979 -17.6478 -17.5742 -17.5041
   -17.1745 -17.0584 -16.9618 -16.9090 -16.8698 -16.7506 -16.4139 -16.2761
   -16.0889 -15.8934 -15.8184 -15.6475 -15.4598 -15.2923 -14.6766 -14.4867
   -14.4555 -14.4266 -14.4158 -14.3044 -13.9364 -13.5125 -12.8383 -12.8095
   -12.7445 -12.4287 -12.3487 -12.2962 -12.1905 -11.5839 -11.2766 -11.2235
   -11.1403 -10.8301 -10.4752 -10.1199 -10.0654 -10.0070  -9.7085  -9.6997
    -9.6847  -9.6351  -9.5951  -9.5117  -9.2180  -7.5515  -7.3259  -7.0691
    -6.8768  -6.8473  -6.7477  -6.5516  -6.4985  -6.3924  -6.1622  -6.1280
    -6.0095  -5.9515  -5.8506  -5.7379  -5.6708  -5.6426  -5.6258  -5.5852
    -5.5626  -5.5063  -5.4440  -5.0947  -5.0721  -5.0353  -4.7968  -4.7268
    -4.6495  -4.4215  -3.7416  -3.7170  -3.6177  -3.4311  -3.3748  -3.3385
    -3.1259  -3.1139  -2.9133  -2.8896  -2.8380  -2.7949  -2.3713  -2.1035
    -1.9330  -1.8191  -1.6813  -1.2743  -0.9799  -0.6355  -0.1768  -0.0253
     0.2139   0.5043   0.6230   0.7476   0.8563   0.8994   1.0529   1.1107
     1.5014   2.0046   2.0293   2.0842   2.2381   2.4250   2.4740

     the spin up/dw Fermi energies are    -1.3902   -1.3902 ev

!    total energy              =    -922.74902427 Ry
     total all-electron energy =     -3804.272612 Ry
     estimated scf accuracy    <       0.00000051 Ry
     smearing contrib. (-TS)   =      -0.00000000 Ry
     internal energy E=F+TS    =    -922.74902427 Ry

     The total energy is F=E-TS. E is the sum of the following terms:
     one-electron contribution =   -1294.96989226 Ry
     hartree contribution      =     693.52318701 Ry
     xc contribution           =    -225.16787209 Ry
     ewald contribution        =     209.44377010 Ry
     one-center paw contrib.   =    -305.57821704 Ry

     total magnetization       =     0.00 Bohr mag/cell
     absolute magnetization    =     0.00 Bohr mag/cell

     convergence has been achieved in  13 iterations

     negative rho (up, down):  1.443E-06 1.443E-06

     Forces acting on atoms (cartesian axes, Ry/au):

     atom    1 type  1   force =     0.01185892   -0.00445539    0.01492207
     atom    2 type  1   force =    -0.06856213    0.06976847   -0.07076177
     atom    3 type  1   force =     0.06773612   -0.06469363    0.07551874
     atom    4 type  1   force =    -0.00153720    0.01849929    0.03615739
     atom    5 type  1   force =     0.06038145   -0.06024604   -0.05971456
     atom    6 type  1   force =    -0.05887966    0.06292446    0.07191464
     atom    7 type  1   force =     0.00719149    0.00662548   -0.00827055
     atom    8 type  1   force =    -0.04503567   -0.04484306    0.04297197
     atom    9 type  1   force =     0.01831529    0.02168340   -0.02241927
     atom   10 type  1   force =    -0.01197942    0.07165915   -0.00553774
     atom   11 type  1   force =     0.26702791    0.27756753    0.29767260
     atom   12 type  1   force =    -0.06861129   -0.07154078   -0.21214446
     atom   13 type  1   force =     0.02373826    0.03321927    0.02754233
     atom   14 type  1   force =    -0.13747289    0.13820579    0.14450982
     atom   15 type  1   force =     0.10298852   -0.09400676   -0.07657795
     atom   16 type  1   force =     0.00104924   -0.03086826    0.00684650
     atom   17 type  1   force =     0.14952103   -0.14798033    0.15224910
     atom   18 type  1   force =    -0.09680321    0.10049143   -0.07739297
     atom   19 type  1   force =     0.01138998    0.00222818    0.02578510
     atom   20 type  1   force =     0.16664704    0.16583908   -0.16945721
     atom   21 type  1   force =    -0.09674262   -0.09838597    0.11644082
     atom   22 type  1   force =     0.01802699    0.01276775    0.02552114
     atom   23 type  1   force =    -0.10738831   -0.10764152   -0.10741770
     atom   24 type  1   force =     0.05468036    0.05282799    0.05374563
     atom   25 type  1   force =     0.01317978   -0.00477749    0.00967469
     atom   26 type  1   force =    -0.07134723    0.07093650   -0.07456431
     atom   27 type  1   force =     0.05616650   -0.05581136    0.05516229
     atom   28 type  1   force =    -0.02613574    0.01559403    0.00378496
     atom   29 type  1   force =     0.07383389   -0.07385078   -0.07615591
     atom   30 type  1   force =    -0.05939002    0.05429131    0.05382384
     atom   31 type  1   force =    -0.00145821    0.00440673   -0.03947408
     atom   32 type  1   force =    -0.08649815   -0.08550284    0.08732042
     atom   33 type  1   force =     0.05491902    0.05513284   -0.06856297
     atom   34 type  1   force =    -0.01714908   -0.01015405   -0.01718260
     atom   35 type  1   force =     0.03542338    0.03588767    0.03589580
     atom   36 type  1   force =    -0.02672635   -0.02648217   -0.02783113
     atom   37 type  1   force =     0.01290701   -0.00762794   -0.00898432
     atom   38 type  1   force =    -0.12020407    0.12099478    0.12044102
     atom   39 type  1   force =     0.05832273   -0.05817553   -0.05985529
     atom   40 type  1   force =    -0.00892690    0.01051864   -0.01210459
     atom   41 type  1   force =     0.12429306   -0.12372178    0.12345583
     atom   42 type  1   force =    -0.06069736    0.05971697   -0.06166786
     atom   43 type  1   force =    -0.00392429   -0.00662628    0.01364182
     atom   44 type  1   force =     0.11830546    0.11802126   -0.11623120
     atom   45 type  1   force =    -0.05903149   -0.05851438    0.06095172
     atom   46 type  1   force =     0.02363404   -0.00237328    0.03636208
     atom   47 type  1   force =    -0.30932945   -0.31240505   -0.30871963
     atom   48 type  1   force =     0.08761399    0.08313275    0.09615946
     atom   49 type  2   force =    -0.07532074   -0.11225609   -0.10744369

     Total force =     1.141579     Total SCF correction =     0.001340
     Energy error            =      1.2E-01 Ry
     Gradient error          =      3.1E-01 Ry/Bohr

     number of scf cycles    =   2
     number of bfgs steps    =   1

     energy             old  =    -922.6333918622 Ry
     energy             new  =    -922.7490242738 Ry

     CASE: energy            _new < energy            _old

     new trust radius        =       0.3534220681 bohr
     new conv_thr            =       0.0000010000 Ry


ATOMIC_POSITIONS (angstrom)
C             6.1935075402        4.5886733399        6.2190630851
C             7.7085630873        3.0613577006        7.7064049742
C             7.0221681320        3.7577456128        7.0219694316
C             4.5833578468        6.2064927986        6.2202813035
C             3.0596551320        7.7097373348        7.7088631712
C             3.7578988963        7.0205595654        7.0305209132
C             6.1807772690        6.1703054484        4.6054028821
C             7.7106289115        7.7108171176        3.0587638065
C             7.0079577306        7.0090142643        3.7568025218
C             4.4320382169        4.6036718492        4.6823760338
C             3.0392688557        3.0463556728        3.0641016156
C             3.7618056298        3.7709104030        3.7583868852
C             6.3369640679        4.5751525412        4.6251890241
C             7.7765513845        3.0010932948        3.0058572866
C             7.0756965167        3.7057405642        3.7243968363
C             4.5347165771        6.2639415210        4.6830726557
C             3.0096921946        7.7688773841        3.0110517606
C             3.7047333625        7.0685900909        3.7183873120
C             4.6166941231        4.6040121664        6.2773443397
C             3.0070382318        3.0070223213        7.7661746278
C             3.7155903888        3.7134047434        7.0625419393
C             6.1919662476        6.1858274972        6.2039352910
C             7.7709462021        7.7717306434        7.7716726963
C             7.0685892447        7.0679891786        7.0673843502
C             0.6988217570       10.0783914861        0.6881084600
C             2.2118735712        8.5650587019        2.2108133985
C             1.5182918029        9.2550402421        1.5176702189
C            10.0625188445        0.6961185837        0.6865553429
C             8.5619925550        2.2140484734        2.2139666702
C             9.2555531273        1.5131104138        1.5146274310
C             0.6846762640        0.6844727220       10.0512488411
C             2.2111288207        2.2115690311        8.5669161144
C             1.5122819031        1.5114346358        9.2519425989
C            10.0867651428       10.0925283004       10.0811839727
C             8.5614906773        8.5620152887        8.5619616247
C             9.2604382619        9.2608903353        9.2598326116
C             0.6923364615       10.0864144912       10.0865593554
C             2.2650567243        8.5033678287        8.5017535201
C             1.5635251716        9.2068224836        9.2056323955
C            10.0831437698        0.6884170377       10.0831731594
C             8.5024105212        2.2649239921        8.5022809171
C             9.2061160464        1.5623169165        9.2055058030
C            10.0869012277       10.0887135915        0.6969768972
C             8.5023568630        8.5028434815        2.2668364763
C             9.2071366465        9.2082338226        1.5644663999
C             0.7160102393        0.7009446497        0.7317224867
C             2.2502596559        2.2484038456        2.2481463351
C             1.5364321391        1.5329647791        1.5426082599
O             4.9766760163        4.7619318121        2.8855659664



     Writing config-only to output data dir ./pwscf.save/
     NEW-OLD atomic charge density approx. for the potential

     Check: negative core charge=   -0.000004

     negative rho (up, down):  1.361E-06 1.361E-06
     Generating pointlists ...

     total cpu time spent up to now is       89.1 secs

     Self-consistent Calculation

     iteration #  1     ecut=    50.00 Ry     beta= 0.30
     Davidson diagonalization with overlap
     ethr =  1.00E-06,  avg # of iterations = 20.0

     negative rho (up, down):  1.779E-06 1.780E-06

     total cpu time spent up to now is       95.5 secs

     total energy              =    -922.85503206 Ry
     estimated scf accuracy    <       0.44690699 Ry

     total magnetization       =     0.00 Bohr mag/cell
     absolute magnetization    =     0.00 Bohr mag/cell

     iteration #  2     ecut=    50.00 Ry     beta= 0.30
     Davidson diagonalization with overlap
     ethr =  2.26E-04,  avg # of iterations =  4.0

     negative rho (up, down):  2.096E-06 2.097E-06

     total cpu time spent up to now is       97.8 secs

     total energy              =    -922.87362859 Ry
     estimated scf accuracy    <       0.64026306 Ry

     total magnetization       =     0.00 Bohr mag/cell
     absolute magnetization    =     0.00 Bohr mag/cell

     iteration #  3     ecut=    50.00 Ry     beta= 0.30
     Davidson diagonalization with overlap
     ethr =  2.26E-04,  avg # of iterations =  2.0

     negative rho (up, down):  2.167E-06 2.167E-06

     total cpu time spent up to now is       99.8 secs

     total energy              =    -922.91295541 Ry
     estimated scf accuracy    <       0.04791195 Ry

     total magnetization       =    -0.00 Bohr mag/cell
     absolute magnetization    =     0.01 Bohr mag/cell

     iteration #  4     ecut=    50.00 Ry     beta= 0.30
     Davidson diagonalization with overlap
     ethr =  2.42E-05,  avg # of iterations =  3.5

     negative rho (up, down):  2.251E-06 2.252E-06

     total cpu time spent up to now is      102.0 secs

     total energy              =    -922.91002552 Ry
     estimated scf accuracy    <       0.02757837 Ry

     total magnetization       =    -0.00 Bohr mag/cell
     absolute magnetization    =     0.02 Bohr mag/cell

     iteration #  5     ecut=    50.00 Ry     beta= 0.30
     Davidson diagonalization with overlap
     ethr =  1.39E-05,  avg # of iterations =  2.0

     negative rho (up, down):  2.284E-06 2.284E-06

     total cpu time spent up to now is      104.0 secs

     total energy              =    -922.90648208 Ry
     estimated scf accuracy    <       0.16378397 Ry

     total magnetization       =    -0.00 Bohr mag/cell
     absolute magnetization    =     0.01 Bohr mag/cell

     iteration #  6     ecut=    50.00 Ry     beta= 0.30
     Davidson diagonalization with overlap
     ethr =  1.39E-05,  avg # of iterations =  2.0

     negative rho (up, down):  2.275E-06 2.275E-06

     total cpu time spent up to now is      106.1 secs

     total energy              =    -922.91199529 Ry
     estimated scf accuracy    <       0.01023893 Ry

     total magnetization       =     0.00 Bohr mag/cell
     absolute magnetization    =     0.04 Bohr mag/cell

     iteration #  7     ecut=    50.00 Ry     beta= 0.30
     Davidson diagonalization with overlap
     ethr =  5.17E-06,  avg # of iterations =  1.0

     negative rho (up, down):  2.253E-06 2.254E-06

     total cpu time spent up to now is      108.0 secs

     total energy              =    -922.91242176 Ry
     estimated scf accuracy    <       0.00129452 Ry

     total magnetization       =     0.00 Bohr mag/cell
     absolute magnetization    =     0.08 Bohr mag/cell

     iteration #  8     ecut=    50.00 Ry     beta= 0.30
     Davidson diagonalization with overlap
     ethr =  6.54E-07,  avg # of iterations =  3.5

     negative rho (up, down):  2.211E-06 2.215E-06

     total cpu time spent up to now is      110.2 secs

     total energy              =    -922.91251476 Ry
     estimated scf accuracy    <       0.00078823 Ry

     total magnetization       =     0.00 Bohr mag/cell
     absolute magnetization    =     0.19 Bohr mag/cell

     iteration #  9     ecut=    50.00 Ry     beta= 0.30
     Davidson diagonalization with overlap
     ethr =  3.98E-07,  avg # of iterations =  2.0

     negative rho (up, down):  2.215E-06 2.215E-06

     total cpu time spent up to now is      112.3 secs

     total energy              =    -922.91266910 Ry
     estimated scf accuracy    <       0.00113063 Ry

     total magnetization       =     0.00 Bohr mag/cell
     absolute magnetization    =     0.65 Bohr mag/cell

     iteration # 10     ecut=    50.00 Ry     beta= 0.30
     Davidson diagonalization with overlap
     ethr =  3.98E-07,  avg # of iterations =  1.0

     negative rho (up, down):  2.216E-06 2.209E-06

     total cpu time spent up to now is      114.2 secs

     total energy              =    -922.91195613 Ry
     estimated scf accuracy    <       0.00080242 Ry

     total magnetization       =    -0.00 Bohr mag/cell
     absolute magnetization    =     0.55 Bohr mag/cell

     iteration # 11     ecut=    50.00 Ry     beta= 0.30
     Davidson diagonalization with overlap
     ethr =  3.98E-07,  avg # of iterations =  2.0

     negative rho (up, down):  2.206E-06 2.201E-06

     total cpu time spent up to now is      116.3 secs

     total energy              =    -922.91226313 Ry
     estimated scf accuracy    <       0.00125506 Ry

     total magnetization       =    -0.00 Bohr mag/cell
     absolute magnetization    =     0.02 Bohr mag/cell

     iteration # 12     ecut=    50.00 Ry     beta= 0.30
     Davidson diagonalization with overlap
     ethr =  3.98E-07,  avg # of iterations =  1.0

     negative rho (up, down):  2.204E-06 2.200E-06

     total cpu time spent up to now is      118.2 secs

     total energy              =    -922.91229475 Ry
     estimated scf accuracy    <       0.00030840 Ry

     total magnetization       =    -0.00 Bohr mag/cell
     absolute magnetization    =     0.09 Bohr mag/cell

     iteration # 13     ecut=    50.00 Ry     beta= 0.30
     Davidson diagonalization with overlap
     ethr =  1.56E-07,  avg # of iterations =  1.0

     negative rho (up, down):  2.200E-06 2.198E-06

     total cpu time spent up to now is      120.1 secs

     total energy              =    -922.91228645 Ry
     estimated scf accuracy    <       0.00006738 Ry

     total magnetization       =    -0.00 Bohr mag/cell
     absolute magnetization    =     0.07 Bohr mag/cell

     iteration # 14     ecut=    50.00 Ry     beta= 0.30
     Davidson diagonalization with overlap
     ethr =  3.40E-08,  avg # of iterations =  2.0

     negative rho (up, down):  2.195E-06 2.194E-06

     total cpu time spent up to now is      122.2 secs

     total energy              =    -922.91229404 Ry
     estimated scf accuracy    <       0.00002126 Ry

     total magnetization       =    -0.00 Bohr mag/cell
     absolute magnetization    =     0.01 Bohr mag/cell

     iteration # 15     ecut=    50.00 Ry     beta= 0.30
     Davidson diagonalization with overlap
     ethr =  1.07E-08,  avg # of iterations =  2.0

     negative rho (up, down):  2.193E-06 2.192E-06

     total cpu time spent up to now is      124.3 secs

     total energy              =    -922.91229462 Ry
     estimated scf accuracy    <       0.00000169 Ry

     total magnetization       =     0.00 Bohr mag/cell
     absolute magnetization    =     0.02 Bohr mag/cell

     iteration # 16     ecut=    50.00 Ry     beta= 0.30
     Davidson diagonalization with overlap
     ethr =  8.53E-10,  avg # of iterations =  3.0

     negative rho (up, down):  2.192E-06 2.192E-06

     Magnetic moment per site  (integrated on atomic sphere of radius R)
     atom   1 (R=0.045)  charge=  1.0419  magn= -0.0000
     atom   2 (R=0.045)  charge=  1.1187  magn= -0.0000
     atom   3 (R=0.045)  charge=  1.1172  magn= -0.0000
     atom   4 (R=0.045)  charge=  1.0513  magn= -0.0000
     atom   5 (R=0.045)  charge=  1.1209  magn= -0.0000
     atom   6 (R=0.045)  charge=  1.1204  magn= -0.0000
     atom   7 (R=0.045)  charge=  1.0235  magn= -0.0000
     atom   8 (R=0.045)  charge=  1.1070  magn= -0.0000
     atom   9 (R=0.045)  charge=  1.0931  magn= -0.0000
     atom  10 (R=0.045)  charge=  1.0022  magn=  0.0000
     atom  11 (R=0.045)  charge=  1.0926  magn=  0.0006
     atom  12 (R=0.045)  charge=  1.0751  magn= -0.0000
     atom  13 (R=0.045)  charge=  1.0050  magn= -0.0003
     atom  14 (R=0.045)  charge=  1.1027  magn= -0.0002
     atom  15 (R=0.045)  charge=  1.0807  magn=  0.0000
     atom  16 (R=0.045)  charge=  1.0138  magn= -0.0001
     atom  17 (R=0.045)  charge=  1.1037  magn= -0.0000
     atom  18 (R=0.045)  charge=  1.0796  magn=  0.0000
     atom  19 (R=0.045)  charge=  1.0279  magn= -0.0002
     atom  20 (R=0.045)  charge=  1.0967  magn= -0.0001
     atom  21 (R=0.045)  charge=  1.0803  magn=  0.0000
     atom  22 (R=0.045)  charge=  1.0182  magn= -0.0000
     atom  23 (R=0.045)  charge=  1.1050  magn= -0.0000
     atom  24 (R=0.045)  charge=  1.0787  magn= -0.0000
     atom  25 (R=0.045)  charge=  1.0331  magn=  0.0000
     atom  26 (R=0.045)  charge=  1.1108  magn=  0.0000
     atom  27 (R=0.045)  charge=  1.1137  magn= -0.0000
     atom  28 (R=0.045)  charge=  1.0323  magn=  0.0000
     atom  29 (R=0.045)  charge=  1.1093  magn=  0.0000
     atom  30 (R=0.045)  charge=  1.1101  magn= -0.0001
     atom  31 (R=0.045)  charge=  1.0321  magn=  0.0001
     atom  32 (R=0.045)  charge=  1.1090  magn=  0.0000
     atom  33 (R=0.045)  charge=  1.1121  magn= -0.0000
     atom  34 (R=0.045)  charge=  1.0351  magn= -0.0000
     atom  35 (R=0.045)  charge=  1.1081  magn= -0.0000
     atom  36 (R=0.045)  charge=  1.1048  magn= -0.0000
     atom  37 (R=0.045)  charge=  1.0156  magn= -0.0000
     atom  38 (R=0.045)  charge=  1.1032  magn= -0.0000
     atom  39 (R=0.045)  charge=  1.0772  magn= -0.0000
     atom  40 (R=0.045)  charge=  1.0168  magn= -0.0000
     atom  41 (R=0.045)  charge=  1.1024  magn=  0.0000
     atom  42 (R=0.045)  charge=  1.0767  magn= -0.0000
     atom  43 (R=0.045)  charge=  1.0126  magn= -0.0000
     atom  44 (R=0.045)  charge=  1.1027  magn= -0.0000
     atom  45 (R=0.045)  charge=  1.0757  magn= -0.0000
     atom  46 (R=0.045)  charge=  1.0202  magn= -0.0001
     atom  47 (R=0.045)  charge=  1.0857  magn= -0.0001
     atom  48 (R=0.045)  charge=  1.0911  magn=  0.0003
     atom  49 (R=0.050)  charge=  3.3871  magn=  0.0003

     total cpu time spent up to now is      126.4 secs

     End of self-consistent calculation

 ------ SPIN UP ------------


          k = 0.0000 0.0000 0.0000 ( 26858 PWs)   bands (ev):

   -21.7111 -21.6952 -19.5583 -17.7277 -17.5954 -17.5556 -17.4568 -17.3530
   -17.0518 -17.0189 -16.9810 -16.9466 -16.8618 -16.6141 -16.2660 -16.1791
   -16.0830 -15.9994 -15.9195 -15.7913 -15.6603 -15.6128 -14.9062 -14.8346
   -14.7474 -14.1416 -13.9983 -13.9351 -13.4981 -13.0720 -12.9645 -12.8474
   -12.7742 -12.1915 -12.1824 -12.1017 -12.0500 -11.4045 -11.1996 -11.1823
   -11.1052 -10.7821 -10.3910 -10.0219  -9.9218  -9.8735  -9.6493  -9.6032
    -9.5849  -9.4835  -9.4689  -9.2781  -8.9309  -7.2493  -7.1280  -6.9660
    -6.7816  -6.7344  -6.5626  -6.5039  -6.4597  -6.3281  -6.0878  -6.0735
    -5.9701  -5.8271  -5.7929  -5.7392  -5.7129  -5.6775  -5.6551  -5.6189
    -5.6004  -5.5095  -5.4913  -5.1053  -5.0782  -4.9135  -4.6695  -4.5790
    -4.4588  -4.4373  -3.9773  -3.8865  -3.7755  -3.6079  -3.5890  -3.4694
    -3.4441  -3.3363  -3.2663  -3.1971  -3.1735  -3.1093  -2.5708  -2.3832
    -2.2462  -2.0174  -1.6266  -1.5560  -0.4597  -0.1619   0.1839   0.5472
     0.7939   0.9118   1.1503   1.2807   1.3200   1.3496   1.4798   1.5510
     1.7304   1.8224   2.2757   2.3434   2.4358   2.4637   2.5745

 ------ SPIN DOWN ----------


          k = 0.0000 0.0000 0.0000 ( 26858 PWs)   bands (ev):

   -21.7112 -21.6952 -19.5577 -17.7277 -17.5955 -17.5556 -17.4569 -17.3531
   -17.0518 -17.0189 -16.9811 -16.9466 -16.8618 -16.6140 -16.2660 -16.1791
   -16.0830 -15.9994 -15.9195 -15.7913 -15.6603 -15.6127 -14.9063 -14.8346
   -14.7474 -14.1416 -13.9983 -13.9351 -13.4981 -13.0720 -12.9645 -12.8474
   -12.7742 -12.1915 -12.1824 -12.1017 -12.0500 -11.4045 -11.1996 -11.1824
   -11.1052 -10.7821 -10.3910 -10.0219  -9.9218  -9.8735  -9.6493  -9.6033
    -9.5849  -9.4836  -9.4689  -9.2781  -8.9309  -7.2491  -7.1280  -6.9660
    -6.7816  -6.7344  -6.5627  -6.5039  -6.4597  -6.3281  -6.0878  -6.0735
    -5.9701  -5.8269  -5.7930  -5.7392  -5.7130  -5.6775  -5.6551  -5.6189
    -5.6004  -5.5095  -5.4913  -5.1053  -5.0782  -4.9136  -4.6695  -4.5789
    -4.4586  -4.4371  -3.9774  -3.8866  -3.7754  -3.6080  -3.5891  -3.4695
    -3.4442  -3.3364  -3.2663  -3.1971  -3.1735  -3.1094  -2.5709  -2.3832
    -2.2463  -2.0163  -1.6265  -1.5546  -0.4597  -0.1619   0.1838   0.5471
     0.7939   0.9117   1.1502   1.2807   1.3199   1.3495   1.4798   1.5509
     1.7304   1.8223   2.2757   2.3433   2.4358   2.4637   2.5744

     the spin up/dw Fermi energies are    -1.5906   -1.5906 ev

!    total energy              =    -922.91229503 Ry
     total all-electron energy =     -3804.435883 Ry
     estimated scf accuracy    <       0.00000065 Ry
     smearing contrib. (-TS)   =      -0.00000000 Ry
     internal energy E=F+TS    =    -922.91229503 Ry

     The total energy is F=E-TS. E is the sum of the following terms:
     one-electron contribution =   -1276.28777896 Ry
     hartree contribution      =     684.75235934 Ry
     xc contribution           =    -225.65818952 Ry
     ewald contribution        =     199.91125450 Ry
     one-center paw contrib.   =    -305.62994039 Ry

     total magnetization       =    -0.00 Bohr mag/cell
     absolute magnetization    =     0.01 Bohr mag/cell

     convergence has been achieved in  16 iterations

     negative rho (up, down):  2.192E-06 2.192E-06

     Forces acting on atoms (cartesian axes, Ry/au):

     atom    1 type  1   force =     0.01470352   -0.00801842    0.00435958
     atom    2 type  1   force =     0.08800840   -0.08821575    0.08643946
     atom    3 type  1   force =    -0.07205511    0.07544873   -0.06147126
     atom    4 type  1   force =     0.00640880    0.01469205    0.04732434
     atom    5 type  1   force =    -0.08714496    0.08607790    0.08604197
     atom    6 type  1   force =     0.07358260   -0.06555575   -0.05446375
     atom    7 type  1   force =     0.00732913    0.00829333   -0.00612171
     atom    8 type  1   force =     0.03519549    0.03551188   -0.03744407
     atom    9 type  1   force =    -0.05126557   -0.04494088    0.04661511
     atom   10 type  1   force =     0.00640219    0.04455203   -0.03135995
     atom   11 type  1   force =    -0.13723057   -0.13155603   -0.11961475
     atom   12 type  1   force =     0.11855342    0.13438474    0.00691562
     atom   13 type  1   force =     0.00537186    0.00035894   -0.03865580
     atom   14 type  1   force =     0.02833463   -0.02891340   -0.02189722
     atom   15 type  1   force =    -0.03784285    0.06337904    0.07809138
     atom   16 type  1   force =    -0.02582185   -0.04548472   -0.09361578
     atom   17 type  1   force =    -0.04116710    0.04323714   -0.04021489
     atom   18 type  1   force =     0.07054852   -0.06127020    0.10010199
     atom   19 type  1   force =    -0.05288172   -0.04631877    0.01411712
     atom   20 type  1   force =    -0.03075875   -0.03111028    0.03021703
     atom   21 type  1   force =     0.06843711    0.06384723   -0.03338904
     atom   22 type  1   force =     0.05084944    0.05350367    0.05899676
     atom   23 type  1   force =     0.01909579    0.01890240    0.01895061
     atom   24 type  1   force =    -0.06606757   -0.07005680   -0.06703616
     atom   25 type  1   force =     0.00294657    0.00824019    0.01032594
     atom   26 type  1   force =     0.08100407   -0.08092220    0.07789611
     atom   27 type  1   force =    -0.06564230    0.06342824   -0.06750472
     atom   28 type  1   force =     0.00858256    0.00124914    0.00011351
     atom   29 type  1   force =    -0.06186468    0.06106132    0.05955097
     atom   30 type  1   force =     0.04522203   -0.05106462   -0.05374058
     atom   31 type  1   force =    -0.00138473    0.00323953    0.00944708
     atom   32 type  1   force =     0.07642489    0.07723905   -0.07799825
     atom   33 type  1   force =    -0.06212491   -0.06156527    0.05038748
     atom   34 type  1   force =    -0.00890183   -0.00883697   -0.00149907
     atom   35 type  1   force =    -0.04057491   -0.04009826   -0.04035120
     atom   36 type  1   force =     0.04132447    0.04204974    0.04010713
     atom   37 type  1   force =     0.04551710   -0.04077058   -0.04452005
     atom   38 type  1   force =     0.02432134   -0.02445962   -0.02512973
     atom   39 type  1   force =    -0.07163606    0.07254495    0.07179745
     atom   40 type  1   force =    -0.04090850    0.04776327   -0.04301025
     atom   41 type  1   force =    -0.02623995    0.02653168   -0.02739879
     atom   42 type  1   force =     0.06940662   -0.07029503    0.06905357
     atom   43 type  1   force =    -0.03905978   -0.04175009    0.04135555
     atom   44 type  1   force =    -0.02149577   -0.02184871    0.02262623
     atom   45 type  1   force =     0.07192287    0.07187426   -0.06882765
     atom   46 type  1   force =     0.00758786   -0.00130847    0.00198161
     atom   47 type  1   force =     0.08187707    0.08154685    0.08908000
     atom   48 type  1   force =    -0.04725574   -0.05120933   -0.04297564
     atom   49 type  2   force =    -0.05963315   -0.08338715   -0.02365330

     Total force =     0.678051     Total SCF correction =     0.000900
     Energy error            =      1.6E-01 Ry
     Gradient error          =      1.4E-01 Ry/Bohr

     number of scf cycles    =   3
     number of bfgs steps    =   2

     energy             old  =    -922.7490242738 Ry
     energy             new  =    -922.9122950266 Ry

     CASE: energy            _new < energy            _old

     new trust radius        =       0.1129942588 bohr
     new conv_thr            =       0.0000010000 Ry


ATOMIC_POSITIONS (angstrom)
C             6.1994402054        4.5859280125        6.2205607369
C             7.7310024302        3.0390040658        7.7280647535
C             7.0024906093        3.7787900427        7.0072335666
C             4.5865446110        6.2127987254        6.2403903627
C             3.0365304765        7.7325110775        7.7317299804
C             3.7790141390        7.0027144239        7.0175423696
C             6.1839421042        6.1741864565        4.6021605124
C             7.7165832637        7.7169058572        3.0517324798
C             6.9900332305        6.9938249736        3.7728112276
C             4.4399212402        4.6295370679        4.6667719955
C             3.0256891934        3.0359659030        3.0600335883
C             3.7979558235        3.8121417840        3.7345445369
C             6.3374273390        4.5784525143        4.6112584091
C             7.7683752375        3.0091255666        3.0171130660
C             7.0743541193        3.7173863491        3.7430385302
C             4.5257893347        6.2414628917        4.6437190832
C             3.0143343102        7.7651789659        3.0163485237
C             3.7186995587        7.0585637847        3.7452978849
C             4.5957350550        4.5847538997        6.2838230653
C             3.0178904565        3.0176389383        7.7549092848
C             3.7283342378        3.7243280862        7.0651629340
C             6.2146541630        6.2090571884        6.2301220547
C             7.7635562745        7.7642448919        7.7642366471
C             7.0508375305        7.0485868724        7.0492018549
C             0.7003669396       10.0818260248        0.6923611380
C             2.2313883633        8.5455228244        2.2288007177
C             1.4997013011        9.2728878009        1.4982855385
C            10.0638825804        0.6974259144        0.6863256820
C             8.5500022468        2.2257382360        2.2248399111
C             9.2661856631        1.4998287787        1.5002747025
C             0.6832804661        0.6855241390       10.0516834087
C             2.2269456278        2.2277993345        8.5505418491
C             1.4950752135        1.4944564116        9.2634233771
C            10.0821000351       10.0885697051       10.0794379004
C             8.5523614488        8.5531014557        8.5529576972
C             9.2738580339        9.2745913029        9.2726409526
C             0.7123654585       10.0686779797       10.0672536946
C             2.2579441905        8.5105158830        8.5086066854
C             1.5442831572        9.2264465630        9.2248085271
C            10.0652794284        0.7090818260       10.0641543310
C             8.5093341307        2.2581694950        8.5086717059
C             9.2242368613        1.5437624215        9.2233937042
C            10.0702642552       10.0706934915        0.7153735396
C             8.5102452800        8.5105854440        2.2595477431
C             9.2264051947        9.2275070187        1.5465686929
C             0.7223411882        0.7011474923        0.7369669943
C             2.2401299831        2.2377824637        2.2408442436
C             1.5311353015        1.5257200727        1.5397199531
O             4.9427527077        4.7195495813        2.8807098622



     Writing config-only to output data dir ./pwscf.save/
     NEW-OLD atomic charge density approx. for the potential

     Check: negative core charge=   -0.000004

     negative rho (up, down):  2.394E-06 2.311E-06
     Generating pointlists ...

     total cpu time spent up to now is      130.9 secs

     Self-consistent Calculation

     iteration #  1     ecut=    50.00 Ry     beta= 0.30
     Davidson diagonalization with overlap
     ethr =  1.00E-06,  avg # of iterations = 16.0

     negative rho (up, down):  1.960E-06 1.955E-06

     total cpu time spent up to now is      136.4 secs

     total energy              =    -922.95576177 Ry
     estimated scf accuracy    <       0.15443998 Ry

     total magnetization       =     0.00 Bohr mag/cell
     absolute magnetization    =     0.02 Bohr mag/cell

     iteration #  2     ecut=    50.00 Ry     beta= 0.30
     Davidson diagonalization with overlap
     ethr =  7.80E-05,  avg # of iterations =  4.0

     negative rho (up, down):  2.043E-06 2.045E-06

     total cpu time spent up to now is      138.5 secs

     total energy              =    -922.94678937 Ry
     estimated scf accuracy    <       0.53515685 Ry

     total magnetization       =    -0.00 Bohr mag/cell
     absolute magnetization    =     0.01 Bohr mag/cell

     iteration #  3     ecut=    50.00 Ry     beta= 0.30
     Davidson diagonalization with overlap
     ethr =  7.80E-05,  avg # of iterations =  4.0

     negative rho (up, down):  1.986E-06 1.989E-06

     total cpu time spent up to now is      140.5 secs

     total energy              =    -922.98045333 Ry
     estimated scf accuracy    <       0.06816181 Ry

     total magnetization       =     0.00 Bohr mag/cell
     absolute magnetization    =     0.02 Bohr mag/cell

     iteration #  4     ecut=    50.00 Ry     beta= 0.30
     Davidson diagonalization with overlap
     ethr =  3.44E-05,  avg # of iterations =  2.0

     negative rho (up, down):  1.807E-06 1.809E-06

     total cpu time spent up to now is      142.5 secs

     total energy              =    -922.98415305 Ry
     estimated scf accuracy    <       0.01703279 Ry

     total magnetization       =    -0.00 Bohr mag/cell
     absolute magnetization    =     0.02 Bohr mag/cell

     iteration #  5     ecut=    50.00 Ry     beta= 0.30
     Davidson diagonalization with overlap
     ethr =  8.60E-06,  avg # of iterations =  1.0

     negative rho (up, down):  1.702E-06 1.703E-06

     total cpu time spent up to now is      144.5 secs

     total energy              =    -922.98517891 Ry
     estimated scf accuracy    <       0.00404024 Ry

     total magnetization       =    -0.00 Bohr mag/cell
     absolute magnetization    =     0.03 Bohr mag/cell

     iteration #  6     ecut=    50.00 Ry     beta= 0.30
     Davidson diagonalization with overlap
     ethr =  2.04E-06,  avg # of iterations =  9.0

     negative rho (up, down):  1.698E-06 1.699E-06

     total cpu time spent up to now is      146.9 secs

     total energy              =    -922.98552695 Ry
     estimated scf accuracy    <       0.00168701 Ry

     total magnetization       =    -0.00 Bohr mag/cell
     absolute magnetization    =     0.04 Bohr mag/cell

     iteration #  7     ecut=    50.00 Ry     beta= 0.30
     Davidson diagonalization with overlap
     ethr =  8.52E-07,  avg # of iterations =  2.0

     negative rho (up, down):  1.704E-06 1.704E-06

     total cpu time spent up to now is      148.9 secs

     total energy              =    -922.98567630 Ry
     estimated scf accuracy    <       0.00039499 Ry

     total magnetization       =     0.00 Bohr mag/cell
     absolute magnetization    =     0.05 Bohr mag/cell

     iteration #  8     ecut=    50.00 Ry     beta= 0.30
     Davidson diagonalization with overlap
     ethr =  1.99E-07,  avg # of iterations =  2.0

     negative rho (up, down):  1.727E-06 1.728E-06

     total cpu time spent up to now is      151.0 secs

     total energy              =    -922.98572182 Ry
     estimated scf accuracy    <       0.00006574 Ry

     total magnetization       =    -0.00 Bohr mag/cell
     absolute magnetization    =     0.07 Bohr mag/cell

     iteration #  9     ecut=    50.00 Ry     beta= 0.30
     Davidson diagonalization with overlap
     ethr =  3.32E-08,  avg # of iterations =  3.0

     negative rho (up, down):  1.735E-06 1.735E-06

     total cpu time spent up to now is      153.2 secs

     total energy              =    -922.98574735 Ry
     estimated scf accuracy    <       0.00001854 Ry

     total magnetization       =     0.00 Bohr mag/cell
     absolute magnetization    =     0.11 Bohr mag/cell

     iteration # 10     ecut=    50.00 Ry     beta= 0.30
     Davidson diagonalization with overlap
[...]
     estimated scf accuracy    <       0.00000266 Ry

     total magnetization       =    -0.00 Bohr mag/cell
     absolute magnetization    =     0.01 Bohr mag/cell

     iteration #  4     ecut=    50.00 Ry     beta= 0.30
     Davidson diagonalization with overlap
     ethr =  1.34E-09,  avg # of iterations =  2.0

     negative rho (up, down):  1.582E-06 1.582E-06

     total cpu time spent up to now is     1575.0 secs

     total energy              =    -923.30496031 Ry
     estimated scf accuracy    <       0.00000064 Ry

     total magnetization       =    -0.00 Bohr mag/cell
     absolute magnetization    =     0.01 Bohr mag/cell

     iteration #  5     ecut=    50.00 Ry     beta= 0.30
     Davidson diagonalization with overlap
     ethr =  3.22E-10,  avg # of iterations =  2.0

     negative rho (up, down):  1.582E-06 1.582E-06

     total cpu time spent up to now is     1577.0 secs

     total energy              =    -923.30496049 Ry
     estimated scf accuracy    <       0.00000030 Ry

     total magnetization       =    -0.00 Bohr mag/cell
     absolute magnetization    =     0.01 Bohr mag/cell

     iteration #  6     ecut=    50.00 Ry     beta= 0.30
     Davidson diagonalization with overlap
     ethr =  1.52E-10,  avg # of iterations =  2.0

     negative rho (up, down):  1.582E-06 1.582E-06

     total cpu time spent up to now is     1579.1 secs

     total energy              =    -923.30496072 Ry
     estimated scf accuracy    <       0.00000015 Ry

     total magnetization       =     0.00 Bohr mag/cell
     absolute magnetization    =     0.02 Bohr mag/cell

     iteration #  7     ecut=    50.00 Ry     beta= 0.30
     Davidson diagonalization with overlap
     ethr =  7.43E-11,  avg # of iterations =  3.0

     negative rho (up, down):  1.582E-06 1.582E-06

     total cpu time spent up to now is     1581.3 secs

     total energy              =    -923.30496084 Ry
     estimated scf accuracy    <       0.00000010 Ry

     total magnetization       =     0.00 Bohr mag/cell
     absolute magnetization    =     0.02 Bohr mag/cell

     iteration #  8     ecut=    50.00 Ry     beta= 0.30
     Davidson diagonalization with overlap
     ethr =  4.92E-11,  avg # of iterations =  2.0

     negative rho (up, down):  1.582E-06 1.582E-06

     total cpu time spent up to now is     1583.4 secs

     total energy              =    -923.30495957 Ry
     estimated scf accuracy    <       0.00000010 Ry

     total magnetization       =    -0.00 Bohr mag/cell
     absolute magnetization    =     0.02 Bohr mag/cell

     iteration #  9     ecut=    50.00 Ry     beta= 0.30
     Davidson diagonalization with overlap
     ethr =  4.92E-11,  avg # of iterations =  4.0

     negative rho (up, down):  1.582E-06 1.582E-06

     total cpu time spent up to now is     1585.8 secs

     total energy              =    -923.30496019 Ry
     estimated scf accuracy    <       0.00000007 Ry

     total magnetization       =     0.00 Bohr mag/cell
     absolute magnetization    =     0.01 Bohr mag/cell

     iteration # 10     ecut=    50.00 Ry     beta= 0.30
     Davidson diagonalization with overlap
     ethr =  3.48E-11,  avg # of iterations =  1.0

     negative rho (up, down):  1.582E-06 1.582E-06

     total cpu time spent up to now is     1587.8 secs

     total energy              =    -923.30495927 Ry
     estimated scf accuracy    <       0.00000006 Ry

     total magnetization       =     0.00 Bohr mag/cell
     absolute magnetization    =     0.01 Bohr mag/cell

     iteration # 11     ecut=    50.00 Ry     beta= 0.30
     Davidson diagonalization with overlap
     ethr =  2.81E-11,  avg # of iterations =  5.0

     negative rho (up, down):  1.582E-06 1.582E-06

     Magnetic moment per site  (integrated on atomic sphere of radius R)
     atom   1 (R=0.041)  charge=  0.8274  magn= -0.0000
     atom   2 (R=0.041)  charge=  0.8798  magn= -0.0000
     atom   3 (R=0.041)  charge=  0.8746  magn=  0.0000
     atom   4 (R=0.041)  charge=  0.8272  magn=  0.0000
     atom   5 (R=0.041)  charge=  0.8798  magn= -0.0000
     atom   6 (R=0.041)  charge=  0.8745  magn= -0.0000
     atom   7 (R=0.041)  charge=  0.8280  magn= -0.0000
     atom   8 (R=0.041)  charge=  0.8810  magn=  0.0000
     atom   9 (R=0.041)  charge=  0.8757  magn= -0.0000
     atom  10 (R=0.041)  charge=  0.8226  magn= -0.0000
     atom  11 (R=0.041)  charge=  0.8602  magn=  0.0000
     atom  12 (R=0.041)  charge=  0.8475  magn= -0.0000
     atom  13 (R=0.041)  charge=  0.8273  magn=  0.0000
     atom  14 (R=0.041)  charge=  0.8804  magn= -0.0000
     atom  15 (R=0.041)  charge=  0.8744  magn=  0.0000
     atom  16 (R=0.041)  charge=  0.8280  magn= -0.0000
     atom  17 (R=0.041)  charge=  0.8806  magn=  0.0000
     atom  18 (R=0.041)  charge=  0.8743  magn= -0.0000
     atom  19 (R=0.041)  charge=  0.8234  magn=  0.0000
     atom  20 (R=0.041)  charge=  0.8797  magn=  0.0000
     atom  21 (R=0.041)  charge=  0.8743  magn= -0.0000
     atom  22 (R=0.041)  charge=  0.8275  magn=  0.0000
     atom  23 (R=0.041)  charge=  0.8805  magn= -0.0000
     atom  24 (R=0.041)  charge=  0.8755  magn=  0.0000
     atom  25 (R=0.041)  charge=  0.8279  magn= -0.0000
     atom  26 (R=0.041)  charge=  0.8794  magn= -0.0000
     atom  27 (R=0.041)  charge=  0.8759  magn=  0.0000
     atom  28 (R=0.041)  charge=  0.8280  magn=  0.0000
     atom  29 (R=0.041)  charge=  0.8798  magn=  0.0000
     atom  30 (R=0.041)  charge=  0.8759  magn= -0.0000
     atom  31 (R=0.041)  charge=  0.8204  magn= -0.0000
     atom  32 (R=0.041)  charge=  0.8788  magn= -0.0000
     atom  33 (R=0.041)  charge=  0.8763  magn=  0.0000
     atom  34 (R=0.041)  charge=  0.8272  magn=  0.0000
     atom  35 (R=0.041)  charge=  0.8797  magn=  0.0000
     atom  36 (R=0.041)  charge=  0.8747  magn= -0.0000
     atom  37 (R=0.041)  charge=  0.8275  magn=  0.0000
     atom  38 (R=0.041)  charge=  0.8796  magn=  0.0000
     atom  39 (R=0.041)  charge=  0.8750  magn=  0.0000
     atom  40 (R=0.041)  charge=  0.8274  magn= -0.0000
     atom  41 (R=0.041)  charge=  0.8795  magn=  0.0000
     atom  42 (R=0.041)  charge=  0.8751  magn= -0.0000
     atom  43 (R=0.041)  charge=  0.8277  magn= -0.0000
     atom  44 (R=0.041)  charge=  0.8802  magn= -0.0000
     atom  45 (R=0.041)  charge=  0.8762  magn= -0.0000
     atom  46 (R=0.041)  charge=  0.8245  magn=  0.0000
     atom  47 (R=0.041)  charge=  0.8778  magn= -0.0000
     atom  48 (R=0.041)  charge=  0.8674  magn=  0.0000
     atom  49 (R=0.041)  charge=  2.4628  magn= -0.0000

     total cpu time spent up to now is     1590.5 secs

     End of self-consistent calculation

 ------ SPIN UP ------------


          k = 0.0000 0.0000 0.0000 ( 26858 PWs)   bands (ev):

   -22.6576 -21.5302 -21.4964 -17.6207 -17.5676 -17.5298 -17.3746 -17.3442
   -17.2340 -17.0057 -16.9277 -16.9057 -16.8397 -16.7504 -16.1806 -16.1393
   -16.1185 -15.9809 -15.9147 -15.8023 -15.6336 -15.3308 -14.6954 -14.6518
   -14.5086 -14.2170 -14.1487 -14.0433 -13.6077 -13.1730 -12.9064 -12.8297
   -12.7583 -12.1938 -12.1592 -12.1109 -12.1038 -11.4725 -11.1584 -11.0804
   -11.0775 -10.7947 -10.4018  -9.9905  -9.9319  -9.8813  -9.6217  -9.5387
    -9.5127  -9.4911  -9.4905  -9.4184  -9.1914  -7.4435  -7.2350  -7.0025
    -6.8550  -6.7793  -6.6321  -6.5400  -6.4636  -6.3592  -6.2494  -6.1010
    -6.0614  -5.8548  -5.8366  -5.7354  -5.6757  -5.6546  -5.6188  -5.5605
    -5.5572  -5.4542  -5.4325  -5.2211  -5.0486  -5.0179  -4.8795  -4.6513
    -4.5261  -4.4807  -4.4462  -3.8700  -3.7532  -3.7515  -3.5225  -3.4303
    -3.4198  -3.3291  -3.2343  -3.1905  -3.0887  -3.0474  -2.8729  -2.4304
    -2.3610  -2.1359  -1.5481  -1.1908  -0.3439  -0.2620  -0.1167   0.5117
     0.5817   0.6551   1.0655   1.1126   1.1174   1.1556   1.3253   1.4482
     1.9522   2.2715   2.2974   2.3241   2.3451   2.3799   2.4525

 ------ SPIN DOWN ----------


          k = 0.0000 0.0000 0.0000 ( 26858 PWs)   bands (ev):

   -22.6576 -21.5302 -21.4964 -17.6207 -17.5676 -17.5298 -17.3746 -17.3442
   -17.2340 -17.0057 -16.9277 -16.9057 -16.8397 -16.7504 -16.1806 -16.1393
   -16.1185 -15.9809 -15.9147 -15.8023 -15.6336 -15.3308 -14.6954 -14.6518
   -14.5086 -14.2170 -14.1487 -14.0433 -13.6077 -13.1730 -12.9064 -12.8297
   -12.7583 -12.1938 -12.1592 -12.1109 -12.1038 -11.4725 -11.1584 -11.0804
   -11.0775 -10.7947 -10.4018  -9.9905  -9.9319  -9.8813  -9.6217  -9.5387
    -9.5127  -9.4911  -9.4905  -9.4184  -9.1914  -7.4435  -7.2350  -7.0025
    -6.8550  -6.7793  -6.6321  -6.5400  -6.4636  -6.3592  -6.2494  -6.1010
    -6.0614  -5.8548  -5.8366  -5.7354  -5.6757  -5.6546  -5.6188  -5.5605
    -5.5572  -5.4542  -5.4325  -5.2211  -5.0486  -5.0179  -4.8795  -4.6513
    -4.5261  -4.4807  -4.4462  -3.8700  -3.7532  -3.7515  -3.5225  -3.4303
    -3.4198  -3.3291  -3.2343  -3.1905  -3.0887  -3.0474  -2.8729  -2.4304
    -2.3610  -2.1359  -1.5481  -1.1908  -0.3439  -0.2620  -0.1167   0.5117
     0.5817   0.6551   1.0655   1.1126   1.1174   1.1556   1.3253   1.4482
     1.9522   2.2715   2.2974   2.3241   2.3451   2.3799   2.4525

     the spin up/dw Fermi energies are    -1.4616   -1.4616 ev

!    total energy              =    -923.30495996 Ry
     total all-electron energy =     -3804.828548 Ry
     estimated scf accuracy    <          7.1E-09 Ry
     smearing contrib. (-TS)   =      -0.00000000 Ry
     internal energy E=F+TS    =    -923.30495996 Ry

     The total energy is F=E-TS. E is the sum of the following terms:
     one-electron contribution =   -1254.94833080 Ry
     hartree contribution      =     673.61444602 Ry
     xc contribution           =    -225.45490064 Ry
     ewald contribution        =     189.05265251 Ry
     one-center paw contrib.   =    -305.56882705 Ry

     total magnetization       =    -0.00 Bohr mag/cell
     absolute magnetization    =     0.00 Bohr mag/cell

     convergence has been achieved in  11 iterations

     negative rho (up, down):  1.582E-06 1.582E-06

     Forces acting on atoms (cartesian axes, Ry/au):

     atom    1 type  1   force =     0.00005701   -0.00017309   -0.00006518
     atom    2 type  1   force =    -0.00003510   -0.00057346    0.00022151
     atom    3 type  1   force =    -0.00001790    0.00007762   -0.00049009
     atom    4 type  1   force =     0.00018269    0.00001423    0.00003550
     atom    5 type  1   force =    -0.00047701    0.00007440   -0.00010361
     atom    6 type  1   force =     0.00026048    0.00002941   -0.00027054
     atom    7 type  1   force =    -0.00014364   -0.00009161   -0.00034644
     atom    8 type  1   force =    -0.00011209    0.00032468   -0.00011050
     atom    9 type  1   force =    -0.00031210   -0.00017893   -0.00059465
     atom   10 type  1   force =    -0.00022991    0.00012092   -0.00016656
     atom   11 type  1   force =     0.00004421    0.00008883   -0.00046285
     atom   12 type  1   force =    -0.00000648    0.00004980   -0.00011047
     atom   13 type  1   force =    -0.00022618   -0.00011241   -0.00008551
     atom   14 type  1   force =     0.00029226    0.00035416    0.00008335
     atom   15 type  1   force =    -0.00041381   -0.00015443   -0.00015472
     atom   16 type  1   force =    -0.00009271   -0.00003828   -0.00002626
     atom   17 type  1   force =     0.00013240    0.00026993    0.00016984
     atom   18 type  1   force =     0.00009468   -0.00040336    0.00005249
     atom   19 type  1   force =     0.00011651   -0.00008484    0.00002891
     atom   20 type  1   force =    -0.00015703    0.00013509   -0.00073155
     atom   21 type  1   force =    -0.00021131   -0.00034621    0.00041364
     atom   22 type  1   force =     0.00021446   -0.00006658   -0.00019370
     atom   23 type  1   force =     0.00005873    0.00038785    0.00060858
     atom   24 type  1   force =     0.00019784   -0.00038454   -0.00094259
     atom   25 type  1   force =    -0.00004715    0.00020447    0.00016613
     atom   26 type  1   force =    -0.00048751    0.00075242   -0.00045667
     atom   27 type  1   force =     0.00061182   -0.00058899    0.00086107
     atom   28 type  1   force =    -0.00021867   -0.00001021   -0.00002437
     atom   29 type  1   force =     0.00049037    0.00017455    0.00042901
     atom   30 type  1   force =    -0.00052483   -0.00021543   -0.00016894
     atom   31 type  1   force =    -0.00006897    0.00013051   -0.00002404
     atom   32 type  1   force =     0.00027107    0.00008508   -0.00018661
     atom   33 type  1   force =    -0.00052164   -0.00034520   -0.00002796
     atom   34 type  1   force =     0.00002477    0.00000915    0.00030756
     atom   35 type  1   force =     0.00019807    0.00009361    0.00075800
     atom   36 type  1   force =    -0.00034344   -0.00052981   -0.00008739
     atom   37 type  1   force =     0.00004343    0.00004762    0.00021885
     atom   38 type  1   force =     0.00011701   -0.00044272   -0.00003607
     atom   39 type  1   force =    -0.00013248    0.00002818    0.00035890
     atom   40 type  1   force =    -0.00001452    0.00001640    0.00012967
     atom   41 type  1   force =    -0.00004250   -0.00026265    0.00016538
     atom   42 type  1   force =    -0.00012632    0.00039270    0.00011459
     atom   43 type  1   force =     0.00017971    0.00023419    0.00031449
     atom   44 type  1   force =     0.00046432    0.00021618    0.00026846
     atom   45 type  1   force =     0.00039835    0.00034018    0.00075844
     atom   46 type  1   force =     0.00002569    0.00026108   -0.00010604
     atom   47 type  1   force =     0.00050148   -0.00028658   -0.00008011
     atom   48 type  1   force =    -0.00020658    0.00015323   -0.00016777
     atom   49 type  2   force =     0.00019252    0.00022287   -0.00024320

     Total force =     0.003662     Total SCF correction =     0.000156
     Energy error            =      2.1E-05 Ry
     Gradient error          =      9.4E-04 Ry/Bohr

     bfgs converged in  51 scf cycles and  48 bfgs steps
     (criteria: energy <  1.0E-04 Ry, force <  1.0E-03 Ry/Bohr)

     End of BFGS Geometry Optimization

     Final energy             =    -923.3049599608 Ry

     File ./pwscf.bfgs deleted, as requested
Begin final coordinates

ATOMIC_POSITIONS (angstrom)
C             6.1832425338        4.5673415395        6.2249605608
C             7.7329383612        3.0306921522        7.7725947122
C             7.0102871365        3.7305497660        7.0579482756
C             4.5618215651        6.1812534069        6.2194064048
C             3.0210198602        7.7288407639        7.7647278546
C             3.7205199691        7.0068828267        7.0490797496
C             6.2282122847        6.2275003327        4.6411674857
C             7.7715650039        7.7679236775        3.1021519311
C             7.0686228318        7.0666428054        3.8337909870
C             4.6183948195        4.6110815446        4.5489902868
C             3.0296765166        3.0268915715        3.0127017382
C             3.9879804523        3.9740615726        3.3102313905
C             6.2284598316        4.6092086277        4.6099707550
C             7.7721164143        3.0564805197        3.0755065542
C             7.0745228119        3.7819209414        3.7886664108
C             4.6096938615        6.2213750497        4.6044679484
C             3.0590457272        7.7614811012        3.0646473387
C             3.7825760229        7.0631426157        3.7788765890
C             4.5544582216        4.5526414933        6.1808706140
C             3.0207870768        3.0155939572        7.7385997001
C             3.7235095129        3.7204142891        7.0062976960
C             6.1795877697        6.1854948600        6.2645391371
C             7.7218279169        7.7325369868        7.8045035372
C             6.9973410563        7.0097256551        7.1160771100
C             0.6975690609       10.0606826504        0.7226114705
C             2.2556491595        8.5338507097        2.2633740116
C             1.5273384066        9.2242829383        1.5442241303
C            10.0671134308        0.6953097967        0.7281720123
C             8.5439469236        2.2528864039        2.2735424706
C             9.2360778837        1.5257887313        1.5551954649
C             0.7014945118        0.6983353766       10.0936470585
C             2.2361826960        2.2320576022        8.5436588903
C             1.5257357876        1.5215598267        9.2638968267
C            10.0840384214       10.0887112180       10.0956926145
C             8.5262817823        8.5367065650        8.5753309175
C             9.2490563287        9.2582682151        9.2673681814
C             0.7054306901       10.0861144974       10.1072593311
C             2.2381970013        8.5344524969        8.5572862795
C             1.5351527552        9.2578415367        9.2679613819
C            10.0869655228        0.7077377965       10.1120705380
C             8.5366948554        2.2463054998        8.5657752745
C             9.2585907876        1.5405730745        9.2757020779
C            10.0793301517       10.0787078444        0.7198126491
C             8.5515431420        8.5498308370        2.2889691627
C             9.2520115005        9.2512893587        1.5548462914
C             0.6983961667        0.6903314954        0.7912553478
C             2.2465283461        2.2439262168        2.3141667295
C             1.5103855227        1.5009328427        1.5914238211
O             4.4730816065        4.4438384127        2.2319822992
End final coordinates



     Writing all to output data dir ./pwscf.save/

     init_run     :      2.71s CPU      2.83s WALL (       1 calls)
     electrons    :   1330.39s CPU   1383.40s WALL (      51 calls)
     update_pot   :     80.21s CPU     81.15s WALL (      50 calls)
     forces       :     80.16s CPU     83.44s WALL (      51 calls)

     Called by init_run:
     wfcinit      :      0.69s CPU      0.73s WALL (       1 calls)
     potinit      :      1.11s CPU      1.15s WALL (       1 calls)
     hinit0       :      0.68s CPU      0.69s WALL (       1 calls)

     Called by electrons:
     c_bands      :    728.38s CPU    749.31s WALL (     612 calls)
     sum_band     :    186.29s CPU    192.22s WALL (     612 calls)
     v_of_rho     :    149.10s CPU    153.80s WALL (     640 calls)
     newd         :     68.98s CPU     70.42s WALL (     640 calls)
     PAW_pot      :    217.07s CPU    218.28s WALL (     690 calls)
     mix_rho      :     16.34s CPU     17.48s WALL (     612 calls)

     Called by c_bands:
     init_us_2    :     10.97s CPU     11.20s WALL (    2652 calls)
     init_us_2:cp :     10.95s CPU     11.20s WALL (    2652 calls)
     regterg      :    709.99s CPU    730.44s WALL (    1224 calls)

     Called by *egterg:
     rdiaghg      :     47.31s CPU     47.58s WALL (    4555 calls)
     h_psi        :    401.78s CPU    419.55s WALL (    4703 calls)
     s_psi        :     69.16s CPU     69.62s WALL (    4703 calls)
     g_psi        :      1.38s CPU      1.39s WALL (    3477 calls)

     Called by h_psi:
     h_psi:calbec :     68.00s CPU     69.05s WALL (    4703 calls)
     vloc_psi     :    260.57s CPU    276.75s WALL (    4703 calls)
     add_vuspsi   :     69.55s CPU     70.05s WALL (    4703 calls)

     General routines
     calbec       :    105.20s CPU    106.82s WALL (    6435 calls)
     fft          :     65.62s CPU     72.70s WALL (   13944 calls)
     ffts         :      2.98s CPU      3.41s WALL (    2504 calls)
     fftw         :    270.10s CPU    287.46s WALL (  427858 calls)
     interpolate  :      8.40s CPU      9.37s WALL (    1280 calls)

     Parallel routines

     PWSCF        :  25m28.98s CPU  26m34.12s WALL


   This run was terminated on:  22:51: 2  24May2025            

=------------------------------------------------------------------------------=
   JOB DONE.
=------------------------------------------------------------------------------=
