LAMMPS (3 Mar 2020)
# Alpha
clear
units		real
dimension 3
boundary        p p p
atom_style	charge
newton on
read_data       OH_4.lmp
  orthogonal box = (0 0 0) to (18.762 18.762 18.761)
  2 by 2 by 2 MPI processor grid
  reading atoms ...
  130 atoms
  read_data CPU = 0.0203419 secs

timestep 0.25

# ---------- Define Interatomic Potential ---------------------
pair_style      reax/c NULL checkqeq no
pair_coeff      * * ffield.reax C H O
WARNING: Changed valency_val to valency_boc for X (../reaxc_ffield.cpp:315)
fix             2 all qeq/reax 1 0.0 10.0 1.0e-6 reax/c

#------------ Equilibration of the system -------------------------
reset_timestep 0

dump 1 all custom 10 min.lammpstrj id type x y z

minimize 1.0e-8 1.0e-8 100000 100000
WARNING: Using 'neigh_modify every 1 delay 0 check yes' setting during minimization (../min.cpp:190)
Neighbor list info ...
  update every 1 steps, delay 0 steps, check yes
  max neighbors/atom: 2000, page size: 100000
  master list distance cutoff = 12
  ghost atom cutoff = 12
  binsize = 6, bins = 4 4 4
  2 neighbor lists, perpetual/occasional/extra = 2 0 0
  (1) pair reax/c, perpetual
      attributes: half, newton off, ghost
      pair build: half/bin/newtoff/ghost
      stencil: half/ghost/bin/3d/newtoff
      bin: standard
  (2) fix qeq/reax, perpetual, copy from (1)
      attributes: half, newton off, ghost
      pair build: copy
      stencil: none
      bin: none
Per MPI rank memory allocation (min/avg/max) = 17.78 | 17.87 | 17.99 Mbytes
Step Temp E_pair E_mol TotEng Press 
       0            0   -22800.969            0   -22800.969   -66896.601 
      66            0   -22991.948            0   -22991.948   -4580.7253 
Loop time of 4.14388 on 8 procs for 66 steps with 130 atoms

99.8% CPU use with 8 MPI tasks x no OpenMP threads

Minimization stats:
  Stopping criterion = energy tolerance
  Energy initial, next-to-last, final = 
        -22800.9693894     -22991.9482765     -22991.9482773
  Force two-norm initial, final = 2452.3 31.7952
  Force max component initial, final = 265.366 13.4035
  Final line search alpha, max atom move = 6.9499e-11 9.31528e-10
  Iterations, force evaluations = 66 423

MPI task timing breakdown:
Section |  min time  |  avg time  |  max time  |%varavg| %total
---------------------------------------------------------------
Pair    | 2.5398     | 2.5792     | 2.6582     |   2.7 | 62.24
Neigh   | 0          | 0          | 0          |   0.0 |  0.00
Comm    | 0.06398    | 0.14297    | 0.18277    |  11.4 |  3.45
Output  | 0.00078953 | 0.0010908  | 0.0016397  |   0.8 |  0.03
Modify  | 1.4024     | 1.4027     | 1.4036     |   0.0 | 33.85
Other   |            | 0.01794    |            |       |  0.43

Nlocal:    16.25 ave 18 max 16 min
Histogram: 7 0 0 0 0 0 0 0 0 1
Nghost:    532.75 ave 540 max 526 min
Histogram: 1 1 0 0 4 0 0 0 0 2
Neighs:    2158.38 ave 2380 max 2098 min
Histogram: 3 4 0 0 0 0 0 0 0 1

Total # of neighbors = 17267
Ave neighs/atom = 132.823
Neighbor list builds = 0
Dangerous builds = 0

###
min_style cg
minimize 1.0e-8 1.0e-8 100000 100000
WARNING: Using 'neigh_modify every 1 delay 0 check yes' setting during minimization (../min.cpp:190)
Per MPI rank memory allocation (min/avg/max) = 17.78 | 17.87 | 17.99 Mbytes
Step Temp E_pair E_mol TotEng Press 
      66            0   -22991.948            0   -22991.948   -4580.7268 
     113            0   -22992.922            0   -22992.922   -4129.6768 
Loop time of 3.98963 on 8 procs for 47 steps with 130 atoms

99.5% CPU use with 8 MPI tasks x no OpenMP threads

Minimization stats:
  Stopping criterion = energy tolerance
  Energy initial, next-to-last, final = 
        -22991.9482791     -22992.9224064     -22992.9224985
  Force two-norm initial, final = 31.7951 55.9975
  Force max component initial, final = 13.4035 27.2108
  Final line search alpha, max atom move = 5.72945e-05 0.00155903
  Iterations, force evaluations = 47 421

MPI task timing breakdown:
Section |  min time  |  avg time  |  max time  |%varavg| %total
---------------------------------------------------------------
Pair    | 2.5448     | 2.599      | 2.6882     |   3.1 | 65.14
Neigh   | 0          | 0          | 0          |   0.0 |  0.00
Comm    | 0.062598   | 0.1514     | 0.20551    |  12.8 |  3.79
Output  | 0.00067366 | 0.00086787 | 0.0012608  |   0.0 |  0.02
Modify  | 1.2216     | 1.222      | 1.223      |   0.0 | 30.63
Other   |            | 0.01645    |            |       |  0.41

Nlocal:    16.25 ave 18 max 16 min
Histogram: 7 0 0 0 0 0 0 0 0 1
Nghost:    532.75 ave 540 max 526 min
Histogram: 1 1 0 0 4 0 0 0 0 2
Neighs:    2150.62 ave 2369 max 2093 min
Histogram: 3 4 0 0 0 0 0 0 0 1

Total # of neighbors = 17205
Ave neighs/atom = 132.346
Neighbor list builds = 0
Dangerous builds = 0

###
fix 1 all box/relax aniso 0.0
min_style cg
minimize 1.0e-8 1.0e-8 100000 100000
WARNING: Using 'neigh_modify every 1 delay 0 check yes' setting during minimization (../min.cpp:190)
Per MPI rank memory allocation (min/avg/max) = 17.78 | 17.87 | 17.99 Mbytes
Step Temp E_pair E_mol TotEng Press Volume 
     113            0   -22992.922            0   -22992.922   -4129.6727    6604.1092 
     133            0   -22993.453            0   -22993.453   -346.95009    6587.2555 
Loop time of 0.221292 on 8 procs for 20 steps with 130 atoms

99.8% CPU use with 8 MPI tasks x no OpenMP threads

Minimization stats:
  Stopping criterion = energy tolerance
  Energy initial, next-to-last, final = 
        -22992.9224941     -22993.4526411     -22993.4526745
  Force two-norm initial, final = 691.414 68.8296
  Force max component initial, final = 408.643 43.2087
  Final line search alpha, max atom move = 1.13235e-06 4.89274e-05
  Iterations, force evaluations = 20 26

MPI task timing breakdown:
Section |  min time  |  avg time  |  max time  |%varavg| %total
---------------------------------------------------------------
Pair    | 0.1651     | 0.16933    | 0.17427    |   0.7 | 76.52
Neigh   | 0          | 0          | 0          |   0.0 |  0.00
Comm    | 0.0039075  | 0.0087988  | 0.013003   |   3.2 |  3.98
Output  | 0.00024297 | 0.0003273  | 0.00053434 |   0.0 |  0.15
Modify  | 0.039589   | 0.039612   | 0.039665   |   0.0 | 17.90
Other   |            | 0.003228   |            |       |  1.46

Nlocal:    16.25 ave 18 max 16 min
Histogram: 7 0 0 0 0 0 0 0 0 1
Nghost:    532.75 ave 540 max 526 min
Histogram: 1 1 0 0 4 0 0 0 0 2
Neighs:    2152.88 ave 2372 max 2094 min
Histogram: 3 4 0 0 0 0 0 0 0 1

Total # of neighbors = 17223
Ave neighs/atom = 132.485
Neighbor list builds = 0
Dangerous builds = 0

unfix 1
###
min_style cg
minimize 1.0e-8 1.0e-8 100000 100000
WARNING: Using 'neigh_modify every 1 delay 0 check yes' setting during minimization (../min.cpp:190)
Per MPI rank memory allocation (min/avg/max) = 17.78 | 17.87 | 17.99 Mbytes
Step Temp E_pair E_mol TotEng Press 
     133            0   -22993.453            0   -22993.453   -346.94789 
     135            0   -22993.453            0   -22993.453   -92.114169 
Loop time of 0.591664 on 8 procs for 2 steps with 130 atoms

99.6% CPU use with 8 MPI tasks x no OpenMP threads

Minimization stats:
  Stopping criterion = energy tolerance
  Energy initial, next-to-last, final = 
        -22993.4526722     -22993.4530268       -22993.45303
  Force two-norm initial, final = 34.3526 19.9007
  Force max component initial, final = 17.9082 9.27564
  Final line search alpha, max atom move = 4.01646e-11 3.72552e-10
  Iterations, force evaluations = 2 69

MPI task timing breakdown:
Section |  min time  |  avg time  |  max time  |%varavg| %total
---------------------------------------------------------------
Pair    | 0.4245     | 0.43538    | 0.45065    |   1.4 | 73.58
Neigh   | 0          | 0          | 0          |   0.0 |  0.00
Comm    | 0.0085122  | 0.023621   | 0.034413   |   5.8 |  3.99
Output  | 0          | 0          | 0          |   0.0 |  0.00
Modify  | 0.12984    | 0.12988    | 0.13006    |   0.0 | 21.95
Other   |            | 0.002792   |            |       |  0.47

Nlocal:    16.25 ave 18 max 16 min
Histogram: 7 0 0 0 0 0 0 0 0 1
Nghost:    532.75 ave 540 max 526 min
Histogram: 1 1 0 0 4 0 0 0 0 2
Neighs:    2157.62 ave 2378 max 2098 min
Histogram: 3 4 0 0 0 0 0 0 0 1

Total # of neighbors = 17261
Ave neighs/atom = 132.777
Neighbor list builds = 0
Dangerous builds = 0

###
fix 1 all box/relax aniso 0.0
min_style cg
minimize 1.0e-8 1.0e-8 100000 100000
WARNING: Using 'neigh_modify every 1 delay 0 check yes' setting during minimization (../min.cpp:190)
Per MPI rank memory allocation (min/avg/max) = 17.78 | 17.87 | 17.99 Mbytes
Step Temp E_pair E_mol TotEng Press Volume 
     135            0   -22993.453            0   -22993.453   -92.112424    6587.2555 
     136            0   -22993.453            0   -22993.453   -92.112159    6587.2555 
Loop time of 0.315583 on 8 procs for 1 steps with 130 atoms

99.3% CPU use with 8 MPI tasks x no OpenMP threads

Minimization stats:
  Stopping criterion = linesearch alpha is zero
  Energy initial, next-to-last, final = 
        -22993.4530281     -22993.4530281     -22993.4530278
  Force two-norm initial, final = 25.4061 25.4059
  Force max component initial, final = 11.7279 11.7279
  Final line search alpha, max atom move = 1.62634e-11 1.90735e-10
  Iterations, force evaluations = 1 39

MPI task timing breakdown:
Section |  min time  |  avg time  |  max time  |%varavg| %total
---------------------------------------------------------------
Pair    | 0.24449    | 0.25047    | 0.25859    |   0.9 | 79.37
Neigh   | 0          | 0          | 0          |   0.0 |  0.00
Comm    | 0.0045704  | 0.012629   | 0.018584   |   4.1 |  4.00
Output  | 0          | 0          | 0          |   0.0 |  0.00
Modify  | 0.049277   | 0.049303   | 0.049384   |   0.0 | 15.62
Other   |            | 0.00318    |            |       |  1.01

Nlocal:    16.25 ave 18 max 16 min
Histogram: 7 0 0 0 0 0 0 0 0 1
Nghost:    532.75 ave 540 max 526 min
Histogram: 1 1 0 0 4 0 0 0 0 2
Neighs:    2157.62 ave 2378 max 2098 min
Histogram: 3 4 0 0 0 0 0 0 0 1

Total # of neighbors = 17261
Ave neighs/atom = 132.777
Neighbor list builds = 0
Dangerous builds = 0

unfix 1
###
min_style cg
minimize 1.0e-8 1.0e-8 100000 100000
WARNING: Using 'neigh_modify every 1 delay 0 check yes' setting during minimization (../min.cpp:190)
Per MPI rank memory allocation (min/avg/max) = 17.78 | 17.87 | 17.99 Mbytes
Step Temp E_pair E_mol TotEng Press 
     136            0   -22993.453            0   -22993.453   -92.113602 
     137            0   -22993.453            0   -22993.453   -92.112968 
Loop time of 0.454843 on 8 procs for 1 steps with 130 atoms

99.7% CPU use with 8 MPI tasks x no OpenMP threads

Minimization stats:
  Stopping criterion = linesearch alpha is zero
  Energy initial, next-to-last, final = 
        -22993.4530295     -22993.4530295     -22993.4530285
  Force two-norm initial, final = 19.9007 19.9007
  Force max component initial, final = 9.27565 9.27566
  Final line search alpha, max atom move = 2.0081e-11 1.86265e-10
  Iterations, force evaluations = 1 54

MPI task timing breakdown:
Section |  min time  |  avg time  |  max time  |%varavg| %total
---------------------------------------------------------------
Pair    | 0.33534    | 0.34187    | 0.35064    |   0.9 | 75.16
Neigh   | 0          | 0          | 0          |   0.0 |  0.00
Comm    | 0.011047   | 0.019763   | 0.026263   |   3.9 |  4.34
Output  | 0          | 0          | 0          |   0.0 |  0.00
Modify  | 0.090837   | 0.090865   | 0.091001   |   0.0 | 19.98
Other   |            | 0.00235    |            |       |  0.52

Nlocal:    16.25 ave 18 max 16 min
Histogram: 7 0 0 0 0 0 0 0 0 1
Nghost:    532.75 ave 540 max 526 min
Histogram: 1 1 0 0 4 0 0 0 0 2
Neighs:    2157.62 ave 2378 max 2098 min
Histogram: 3 4 0 0 0 0 0 0 0 1

Total # of neighbors = 17261
Ave neighs/atom = 132.777
Neighbor list builds = 0
Dangerous builds = 0

undump 1
#############
#----------- Thermo ------------
reset_timestep 0
thermo  200

thermo_style    custom step temp etotal ke pe press
velocity all create 300 12345 mom yes rot yes
fix 1 all npt temp 300 300 25.0 iso 0.0 0.0 250.0

variable vpe equal pe
variable vtemp equal temp
variable vstep equal step

fix output all print 2500 "${vstep} ${vtemp} ${vpe}" file temp-tpdh-Pt.dat screen no

dump 1 all custom 2500 thermo-tpdh-Pt.lammpstrj id type x y z

run 1000000
Per MPI rank memory allocation (min/avg/max) = 16.66 | 16.75 | 16.87 Mbytes
Step Temp TotEng KinEng PotEng Press 
       0          300   -22878.096    115.35735   -22993.453    708.40842 
     200    210.33256    -22838.74    80.878023   -22919.618   -393.13381 
     400    274.86243   -22776.006    105.69134   -22881.698     11234.44 
     600    312.18902   -22738.608    120.04432   -22858.652    11533.397 
     800    332.64827   -22751.683    127.91141   -22879.595    195.30938 
    1000    310.58213   -22761.002    119.42644   -22880.428    507.23172 
    1200    329.20689   -22754.476    126.58812   -22881.064    44.083602 
    1400    272.25419   -22758.874    104.68841   -22863.563     4968.809 
    1600    299.07016   -22757.604     114.9998   -22872.604    4438.6808 
    1800     318.8013   -22740.913    122.58691     -22863.5   -647.81138 
    2000    328.41681   -22759.908    126.28431   -22886.192     -1653.56 
    2200    292.40772   -22773.178    112.43793   -22885.616   -549.13497 
    2400    290.68992   -22769.245    111.77739   -22881.022   -17276.746 
    2600    336.17947   -22741.368    129.26924   -22870.637     1405.105 
    2800    273.97906   -22764.391    105.35166   -22869.742     3267.252 
    3000    320.99056   -22747.393    123.42873   -22870.822     -3319.34 
    3200    280.29209   -22750.736    107.77918   -22858.515   -890.11189 
    3400    319.07892   -22758.434    122.69366   -22881.127   -2492.8171 
    3600    289.19993   -22735.747    111.20446   -22846.952    9927.7402 
    3800    314.30104   -22744.387    120.85645   -22865.243    4747.7361 
    4000    327.80888   -22762.385    126.05054   -22888.436   -4864.5102 
    4200    323.84145    -22761.64    124.52497   -22886.165   -397.72151 
    4400    283.88155   -22782.761    109.15941    -22891.92    1395.7694 
    4600     284.1361    -22769.28    109.25729   -22878.538    6409.2378 
    4800    310.14528   -22754.681    119.25846   -22873.939    1837.7826 
    5000     271.4027   -22774.503    104.36099   -22878.864   -5650.9605 
    5200    319.61605   -22745.347     122.9002   -22868.247   -270.95508 
    5400    326.23983   -22759.673    125.44721    -22885.12   -6748.5369 
    5600    283.22082   -22762.127    108.90534   -22871.033   -10214.445 
    5800    295.91345   -22752.958    113.78597   -22866.744    2243.4503 
    6000    307.57251   -22749.615    118.26917   -22867.884    4170.4321 
    6200     284.3542   -22780.985    109.34115   -22890.326   -3471.4461 
    6400    293.76665   -22766.919    112.96047   -22879.879    2043.9218 
    6600    296.87704   -22761.602    114.15649   -22875.759   -7784.1364 
    6800     271.7161   -22772.865    104.48149   -22877.347    1945.5408 
    7000    286.81711   -22760.703    110.28821   -22870.991    11874.392 
    7200    310.60405   -22747.193    119.43486   -22866.628   -873.85167 
    7400    272.91424   -22776.192    104.94221   -22881.135    9011.0989 
    7600    332.16689    -22755.89     127.7263   -22883.616    5164.8391 
    7800    289.61716   -22754.157    111.36489   -22865.522    1105.6231 
    8000    295.59801   -22724.251    113.66468   -22837.916    -3791.571 
    8200    317.31965   -22748.657    122.01718   -22870.674   -4476.7718 
    8400     301.5256   -22756.773    115.94398   -22872.717   -1829.5758 
    8600     257.4129   -22775.386    98.981566   -22874.367    1308.4402 
    8800    274.67059   -22783.567    105.61757   -22889.185   -3561.7049 
    9000     292.2908   -22765.092    112.39297   -22877.485    6358.2255 
    9200    274.97799   -22749.162    105.73577   -22854.897    4423.3911 
    9400    365.64851    -22724.46    140.60081   -22865.061   -4714.9198 
    9600    308.79804   -22755.488    118.74041   -22874.229   -9268.0261 
    9800    300.72721   -22767.453    115.63698    -22883.09   -1010.1124 
   10000    307.52876     -22742.3    118.25234   -22860.552    2281.4035 
   10200    301.21812   -22740.268    115.82575   -22856.093   -2663.8105 
   10400    279.67523   -22775.233    107.54198   -22882.775     3017.884 
   10600    294.49286    -22767.37    113.23972    -22880.61   -1502.9667 
   10800    361.18977   -22751.021    138.88632   -22889.907    3174.6128 
   11000    271.75257    -22779.61    104.49552   -22884.105   -287.35214 
   11200     306.7139   -22763.921    117.93901    -22881.86   -5879.7764 
   11400    273.92289   -22757.269    105.33006   -22862.599   -1897.1976 
   11600    244.10797   -22786.558    93.865493   -22880.423    -6124.901 
   11800    312.58582   -22757.316    120.19691   -22877.513    2436.6019 
   12000    279.13343   -22758.331    107.33364   -22865.665     8646.331 
   12200    243.10591   -22775.332    93.480176   -22868.812   -4680.1031 
   12400    292.72529   -22749.176    112.56004   -22861.736   -807.24839 
   12600     325.7706    -22743.09    125.26677   -22868.357    5136.4201 
   12800    332.03709   -22759.114     127.6764    -22886.79    4852.1185 
   13000    272.10079     -22769.4    104.62942    -22874.03    180.91487 
   13200    321.64813   -22743.225    123.68159   -22866.906   -2756.5999 
   13400    291.83791    -22764.26    112.21882   -22876.479    162.58107 
   13600    273.82146     -22762.6    105.29106   -22867.891    3667.9099 
   13800    310.29988   -22741.711    119.31791   -22861.029   -2610.8329 
   14000     270.2855   -22776.636     103.9314   -22880.568   -289.40486 
   14200    280.76194   -22764.034    107.95985   -22871.994   -2036.2802 
   14400    314.75346   -22744.298    121.03042   -22865.328   -1164.8742 
   14600    280.52882   -22766.428     107.8702   -22874.298    6593.2088 
   14800    306.02554   -22757.822    117.67432   -22875.496    4875.1158 
   15000    273.02967   -22767.643     104.9866    -22872.63   -8615.3356 
   15200    286.57278   -22781.427    110.19425   -22891.621   -1138.6094 
   15400    301.40453   -22759.477    115.89743   -22875.375    3066.5847 
   15600    282.72671   -22762.798    108.71535   -22871.513    9102.5855 
   15800    326.25544   -22741.819    125.45321   -22867.272   -20630.158 
   16000     280.1196   -22772.299    107.71285   -22880.012   -5958.5946 
   16200    299.35121   -22763.947    115.10787   -22879.055    8061.4873 
   16400    301.11237   -22748.866    115.78508   -22864.652    4340.6369 
   16600    314.27301   -22749.044    120.84567    -22869.89   -7197.3068 
   16800    280.58167   -22768.154    107.89052   -22876.045     2496.403 
   17000    293.93122   -22757.743    113.02375   -22870.767    2571.5523 
   17200    306.53541   -22735.088    117.87038   -22852.959     -4566.68 
   17400    297.13851   -22761.002    114.25704   -22875.259    5519.6445 
   17600    316.91621   -22767.795    121.86205   -22889.657    2304.1828 
   17800    317.33152   -22754.236    122.02174   -22876.258   -4194.1957 
   18000    328.67129   -22745.742    126.38216   -22872.124    243.46487 
   18200     292.8653   -22773.661    112.61388   -22886.275    11943.573 
   18400    297.18083   -22759.098    114.27331   -22873.371    7079.1566 
   18600    312.39322   -22754.367    120.12285    -22874.49   -1666.6581 
   18800    267.62624   -22771.795    102.90884   -22874.704   -1497.0396 
   19000    309.84329   -22748.207    119.14233   -22867.349   -3135.3748 
   19200    299.87867    -22758.39     115.3107   -22873.701    1407.8652 
   19400    324.70279   -22759.076    124.85618   -22883.932    1160.0782 
   19600    277.17979   -22777.633    106.58242   -22884.215   -3592.7291 
   19800    293.96863   -22768.062    113.03814     -22881.1    2033.8737 
   20000    335.53318   -22751.994    129.02073   -22881.015     18046.68 
   20200    312.63069   -22752.549    120.21416   -22872.763    2962.3166 
   20400    301.13631   -22770.338    115.79429   -22886.132    3702.7845 
   20600    281.12403   -22739.988    108.09908   -22848.087   -6324.5153 
   20800    294.88473   -22755.057     113.3904   -22868.447   -2642.4982 
   21000    318.70585   -22758.822     122.5502   -22881.372   -5254.0799 
   21200    259.17803   -22777.378      99.6603   -22877.039   -2072.5981 
   21400    300.09329   -22766.813    115.39322   -22882.206    12154.956 
   21600    318.51712   -22757.067    122.47763   -22879.545   -8212.7549 
   21800    290.47042   -22772.299    111.69299   -22883.992   -3686.2695 
   22000    319.83866   -22746.968     122.9858   -22869.954     1396.014 
   22200    276.31127   -22770.052    106.24845   -22876.301   -3385.0298 
   22400    295.36053   -22758.673    113.57336   -22872.246   -9034.5504 
   22600    317.21296   -22753.953    121.97615   -22875.929    7676.3927 
   22800    336.20969   -22735.787    129.28086   -22865.068   -4511.1955 
   23000    292.24065   -22759.878    112.37369   -22872.252   -7417.2331 
   23200    300.29827   -22756.489    115.47204   -22871.961    1510.7571 
   23400    295.17585   -22748.362    113.50235   -22861.864   -11975.133 
   23600    291.58229   -22772.837    112.12053   -22884.958    5609.0128 
   23800    317.23881   -22752.621    121.98609   -22874.607    781.00744 
   24000    264.53336   -22776.104    101.71956   -22877.824   -4695.7773 
   24200    315.54779   -22766.403    121.33586   -22887.739    582.65664 
   24400     303.4339   -22751.865    116.67777   -22868.543    1477.7127 
   24600    302.18764   -22762.903    116.19855   -22879.102    2720.6335 
   24800    303.63839   -22757.873     116.7564    -22874.63    -5170.327 
   25000    330.66988   -22738.402    127.15067   -22865.552    6522.0777 
   25200    323.46009   -22741.179    124.37833   -22865.557   -6876.1391 
   25400    299.22988   -22769.767    115.06122   -22884.828     3723.602 
   25600    294.47545   -22770.704    113.23302   -22883.937    1243.3421 
   25800     300.9787    -22753.48    115.73368   -22869.214    -10586.58 
   26000    318.24825    -22762.74    122.37425   -22885.114    7433.3835 
   26200    286.02103   -22764.665    109.98209   -22874.647   -1571.9573 
   26400     343.1069   -22748.508    131.93301   -22880.441   -1238.4164 
   26600    290.31857   -22774.857     111.6346   -22886.492    3395.7065 
   26800    286.56325   -22756.009    110.19059     -22866.2   -8589.5073 
   27000    309.15416   -22749.098    118.87735   -22867.975    8439.3839 
   27200    264.83484   -22768.159    101.83548   -22869.995   -11387.121 
   27400    353.31116   -22752.038     135.8568   -22887.895    9493.1006 
   27600    335.43645   -22748.408    128.98353   -22877.392    357.81362 
   27800    298.90648    -22765.18    114.93686   -22880.117    634.05188 
   28000    293.45673    -22763.83     112.8413   -22876.671   -125.69879 
   28200    334.58469   -22737.683    128.65601   -22866.339   -2058.4213 
   28400    278.87323   -22759.189    107.23359   -22866.423   -7811.3931 
   28600     314.3574   -22764.286    120.87812   -22885.164   -10983.298 
   28800    290.81989   -22760.312    111.82737   -22872.139     7026.499 
   29000    343.30434   -22729.711    132.00893    -22861.72    1322.4401 
   29200    323.24874   -22747.435    124.29706   -22871.732   -9766.3732 
   29400    293.49368   -22760.776    112.85551   -22873.631    4663.3236 
   29600    298.80349    -22745.08    114.89726   -22859.977    2905.5616 
   29800    300.70229    -22749.61    115.62739   -22865.237    4734.3389 
   30000    277.17573   -22772.437    106.58086   -22879.018    621.56742 
   30200    296.07513   -22762.358    113.84814   -22876.207   -1656.5725 
   30400    304.92832   -22745.719    117.25241   -22862.972   -1173.8758 
   30600    286.40316   -22772.632    110.12903   -22882.761     2655.809 
   30800    303.27113   -22765.495    116.61518    -22882.11    1058.1937 
   31000    303.89679   -22743.413    116.85576   -22860.268   -9478.7119 
   31200    302.35509   -22765.277    116.26294    -22881.54   -5813.2024 
   31400    306.90993   -22767.772    118.01438   -22885.786   -11232.903 
   31600    317.28163   -22754.707    122.00256    -22876.71   -9412.5575 
   31800    351.19256   -22726.449    135.04214   -22861.491   -3308.4755 
   32000    293.91006   -22764.798    113.01562   -22877.814     4267.848 
   32200    269.83133   -22778.131    103.75676   -22881.888   -5736.4893 
   32400    317.62363   -22749.676    122.13407    -22871.81   -6499.3353 
   32600    287.71545   -22765.512    110.63364   -22876.146     6845.962 
   32800    296.20281   -22768.811    113.89724   -22882.708   -3119.4787 
   33000    281.78885   -22760.121    108.35471   -22868.476   -3479.6626 
   33200      294.683    -22767.33    113.31283   -22880.643    386.06522 
   33400    284.88966   -22778.484    109.54705   -22888.031   -6843.3533 
   33600     298.9803   -22753.168    114.96525   -22868.133   -2223.7078 
   33800    324.91509   -22748.545    124.93781   -22873.483    6803.5739 
   34000    284.32104   -22779.119     109.3284   -22888.447    559.02588 
   34200    301.27143   -22765.647    115.84624   -22881.493   -5286.4406 
   34400    290.79498   -22756.586    111.81779   -22868.403    7216.0548 
   34600    284.19313   -22756.895    109.27922   -22866.174    14223.398 
   34800    261.65537   -22781.972     100.6129   -22882.585   -9757.9686 
   35000    274.80714    -22782.97    105.67008    -22888.64    6232.9998 
   35200     310.9286   -22754.272    119.55966   -22873.832   -3178.5455 
   35400      314.474    -22753.13    120.92296   -22874.053   -4028.2939 
   35600    274.58797   -22773.934     105.5858    -22879.52    1465.0625 
   35800    271.70187   -22759.976    104.47603   -22864.452   -5926.6724 
   36000    300.49611   -22760.567    115.54812   -22876.115   -3731.2687 
   36200    273.87806   -22774.791    105.31282   -22880.104    1891.5893 
   36400    311.97007   -22754.483    119.96014   -22874.443   -2473.1218 
   36600    307.45857   -22757.847    118.22535   -22876.073   -811.88858 
   36800    247.88327   -22782.254    95.317191   -22877.571   -1894.2955 
   37000    303.55423   -22754.376    116.72404   -22871.101    9996.8278 
   37200     302.7631   -22762.288    116.41983   -22878.708    118.08851 
   37400    306.69421   -22748.242    117.93144   -22866.173   -1901.1606 
   37600     316.6391   -22750.585    121.75549    -22872.34   -9028.6916 
   37800    309.01255   -22763.511     118.8229   -22882.334    -4517.388 
   38000     284.9129   -22754.115    109.55599   -22863.671   -881.13518 
   38200    297.37929   -22738.121    114.34962   -22852.471    -1174.913 
   38400    310.88331    -22763.14    119.54225   -22882.683   -314.05605 
   38600    269.27903    -22767.02    103.54438   -22870.565   -3505.1242 
   38800    312.01527   -22745.982    119.97751   -22865.959    4352.8902 
   39000    302.09351   -22760.358    116.16235    -22876.52    2697.0551 
   39200    305.45228   -22754.152    117.45389   -22871.606   -1989.8777 
   39400    305.85398   -22744.229    117.60835   -22861.838   -1994.1386 
   39600    282.37636   -22761.001    108.58063   -22869.582    321.02795 
   39800    358.93208   -22734.548    138.01818   -22872.566   -2325.7449 
   40000    294.81355   -22747.503    113.36303   -22860.866    2136.6029 
   40200    321.08704   -22758.906    123.46583   -22882.372   -1905.2074 
   40400    254.51763   -22776.274    97.868263   -22874.143    3240.0966 
   40600    292.87674   -22755.833    112.61828   -22868.452    4923.1304 
   40800      321.944   -22751.735    123.79536    -22875.53    2596.8152 
   41000    302.36735   -22779.429    116.26765   -22895.697    5051.1263 
   41200    341.82564   -22758.534    131.44033   -22889.974    5458.2243 
   41400    304.26511   -22756.028    116.99739   -22873.026   -895.03496 
   41600    285.98712   -22760.058    109.96905   -22870.027   -3990.8935 
   41800      316.604   -22749.499    121.74199   -22871.241   -655.78311 
   42000    320.95294   -22743.703    123.41427   -22867.117   -5958.4366 
   42200    283.73832   -22765.818    109.10433   -22874.922   -6896.9716 
   42400    302.21861   -22757.866    116.21046   -22874.076   -674.46749 
   42600    334.53736   -22738.695    128.63781   -22867.333    10315.396 
   42800    269.83936   -22770.821    103.75984   -22874.581   -1666.3705 
   43000    313.96932   -22751.993    120.72889   -22872.722    9044.2799 
   43200    303.10402   -22759.854    116.55092   -22876.405   -16159.954 
   43400    259.09805   -22770.364    99.629548   -22869.993    1749.7917 
   43600    326.22787   -22759.303    125.44261   -22884.745    10455.373 
   43800    254.28118   -22787.574    97.777342   -22885.351   -4251.4141 
   44000    289.93773   -22769.501    111.48816   -22880.989    5990.9185 
   44200    301.45414   -22747.947     115.9165   -22863.863    -1479.669 
   44400     288.7079   -22768.752    111.01526   -22879.768   -10590.264 
   44600    258.10824   -22771.541    99.248941    -22870.79    5819.4473 
   44800    297.87712   -22766.946    114.54105   -22881.488   -43.727602 
   45000    311.23091   -22741.442    119.67591   -22861.118    3809.7618 
   45200    290.82238   -22766.751    111.82833   -22878.579    10263.243 
   45400    302.70396   -22758.636    116.39709   -22875.033   -7882.6573 
   45600    303.41088   -22752.874    116.66891   -22869.543    -907.1548 
   45800    315.16053   -22771.252    121.18694   -22892.439   -2842.6429 
   46000     343.6211   -22761.972    132.13073   -22894.103     3974.406 
   46200    297.02806   -22742.109    114.21456   -22856.324   -6286.7191 
   46400    285.52429   -22768.168    109.79108    -22877.96   -2933.1089 
   46600    322.05074   -22755.443     123.8364    -22879.28     5337.862 
   46800     328.7427   -22731.801    126.40962    -22858.21    2885.5423 
   47000    282.22906   -22765.096    108.52399    -22873.62    -6420.122 
   47200    269.17405   -22765.564    103.50401   -22869.068   -1406.7264 
   47400    335.86808   -22746.627     129.1495   -22875.776    2730.2377 
   47600      290.475   -22760.997    111.69475   -22872.692    3735.0256 
   47800    300.58456   -22756.043    115.58213   -22871.625    666.05402 
   48000    293.35093   -22783.404    112.80062   -22896.205   -7597.8539 
   48200     286.1486   -22770.418    110.03114   -22880.449   -5613.7353 
   48400    320.01805   -22753.866    123.05478   -22876.921   -11195.884 
   48600    363.13713   -22733.997    139.63512   -22873.632    4022.3474 
   48800    300.10549   -22763.895    115.39791   -22879.293   -4932.3929 
   49000    271.93023   -22762.862    104.56384   -22867.426     321.2394 
   49200    331.27525   -22744.901    127.38345   -22872.284   -8665.9942 
   49400    258.53735   -22779.853    99.413943   -22879.267   -15813.984 
   49600     295.6173    -22774.26    113.67209   -22887.932    12233.975 
   49800    316.10226    -22757.11    121.54906   -22878.659   -4436.7566 
   50000    341.08312    -22755.07    131.15482   -22886.225   -1750.5791 
   50200    264.69233    -22773.51    101.78068    -22875.29    704.92055 
   50400    270.47838   -22753.349    104.00556   -22857.355    3089.6165 
   50600     272.8851   -22760.667    104.93101   -22865.598   -1713.7782 
   50800    297.15453    -22762.95     114.2632   -22877.213   -6139.3608 
   51000    328.46046   -22752.522    126.30109   -22878.823   -3347.6432 
   51200    335.40328   -22733.392    128.97078   -22862.363   -3674.9767 
   51400    297.94736   -22763.039    114.56806   -22877.607     7000.992 
   51600    286.77133   -22759.086     110.2706   -22869.357   -5603.5195 
   51800    304.72692   -22737.283    117.17497   -22854.458     5348.511 
   52000    296.58304   -22759.437    114.04345    -22873.48     1102.605 
   52200    300.71288   -22758.646    115.63147   -22874.277   -836.35982 
   52400    343.60091   -22732.246    132.12297   -22864.369   -3581.8022 
   52600    305.92137   -22759.621    117.63426   -22877.255    10511.369 
   52800    276.65996   -22754.535    106.38253   -22860.918    1724.5046 
   53000    323.06779   -22736.931    124.22748   -22861.159    3450.9206 
   53200     279.6959   -22766.524    107.54992   -22874.074    829.65174 
   53400    304.42793   -22750.373       117.06   -22867.433    3226.7293 
   53600    284.95322   -22762.746    109.57149   -22872.317   -3935.3556 
   53800    308.04154   -22768.056    118.44952   -22886.506    6060.2581 
   54000    322.29437   -22755.814    123.93008   -22879.744   -779.40619 
   54200    293.24998   -22757.136     112.7618   -22869.898    2866.9346 
   54400    317.54605   -22747.671    122.10423   -22869.775    1795.8354 
   54600      300.356   -22740.783    115.49424   -22856.278    -630.8366 
   54800    256.87639   -22772.858    98.775264   -22871.633    2472.0111 
   55000    323.13249   -22755.053    124.25236   -22879.306    4620.3583 
   55200    327.85243   -22728.388    126.06729   -22854.455   -3391.5268 
   55400    295.72375   -22750.515    113.71303   -22864.228     5023.779 
   55600    275.61374   -22764.707    105.98023   -22870.687    4718.2255 
   55800     322.3369   -22741.886    123.94643   -22865.832   -8585.1505 
   56000    336.02997   -22733.131    129.21176   -22862.343   -9385.6009 
   56200    289.04824   -22766.791    111.14613   -22877.937    2226.2406 
   56400    331.48015   -22753.568    127.46224   -22881.031    3935.9713 
   56600    310.56277   -22751.342    119.41899   -22870.761   -2446.4369 
   56800    312.05313   -22777.638    119.99207    -22897.63   -2947.8325 
   57000    306.03253   -22766.633      117.677    -22884.31   -8865.9263 
   57200    314.26594   -22757.886    120.84295   -22878.729   -9339.0805 
   57400    315.91334    -22764.63    121.47642   -22886.106    1368.3548 
   57600    262.99481   -22787.826    101.12795   -22888.954   -6910.8117 
   57800    319.65294   -22759.193    122.91439   -22882.107    6565.2174 
   58000    309.27479   -22755.314    118.92373   -22874.238   -4195.3059 
   58200    245.62664   -22777.159    94.449459   -22871.609   -450.80523 
   58400    304.60639   -22756.233    117.12862   -22873.362    1791.6348 
   58600    307.80448   -22760.272    118.35836   -22878.631    1286.9119 
   58800    268.81083   -22773.117    103.36435   -22876.481    -3747.663 
   59000    323.40727   -22749.364    124.35802   -22873.722   -9064.6353 
   59200    297.66849   -22759.443    114.46083   -22873.904     3374.665 
   59400    308.83709   -22768.227    118.75542   -22886.983   -3542.8056 
   59600    319.89213   -22752.796    123.00636   -22875.802   -10010.424 
   59800    299.22935   -22764.212    115.06102   -22879.273   -2823.3584 
   60000    295.26078   -22762.243      113.535   -22875.778   -138.19898 
   60200     311.3878   -22741.721    119.73624   -22861.457    999.44076 
   60400    277.28574   -22764.366    106.62316   -22870.989    1848.9701 
   60600    345.47397   -22739.905     132.8432   -22872.748    901.35691 
   60800    331.82112   -22747.833    127.59335   -22875.427   -6420.3087 
   61000    297.44621   -22766.086    114.37536   -22880.462   -756.08243 
   61200    282.88664   -22749.196    108.77684   -22857.973    11351.993 
   61400    325.79323   -22728.281    125.27548   -22853.556    -705.1094 
   61600    297.51231   -22761.452    114.40077   -22875.852    2333.6424 
   61800    326.30441   -22751.547    125.47204   -22877.019   -1800.9822 
   62000    287.93403   -22778.097    110.71769   -22888.815    6199.9276 
   62200    282.62612   -22759.934    108.67667   -22868.611   -4734.1285 
   62400    284.24058   -22756.674    109.29747   -22865.972    733.79848 
   62600    350.75994   -22726.669    134.87579   -22861.545   -4793.4463 
   62800    323.20423   -22749.564    124.27994   -22873.844   -973.62987 
   63000    301.96378   -22767.876    116.11247   -22883.988     4731.055 
   63200    264.04917   -22782.538    101.53337   -22884.072    6720.1981 
   63400    328.07825   -22759.847    126.15412   -22886.002   -1753.8549 
   63600    315.81485   -22749.981    121.43855   -22871.419   -3897.3428 
   63800     275.7272   -22770.142    106.02386   -22876.166    1712.9378 
   64000    304.65752   -22762.417    117.14828   -22879.565   -423.87996 
   64200    344.47622   -22741.187    132.45954   -22873.647    510.36641 
   64400    303.01692   -22765.826    116.51743   -22882.343    4116.9109 
   64600     275.4453   -22761.334    105.91547    -22867.25   -1982.0685 
   64800    306.69111   -22752.376    117.93024   -22870.306    9706.6657 
   65000    310.15463   -22761.158    119.26205    -22880.42   -5256.1501 
   65200    273.01878   -22778.763    104.98241   -22883.745   -2135.7688 
   65400    321.09502   -22755.971     123.4689    -22879.44   -4252.5401 
   65600     303.2872   -22749.366    116.62136   -22865.988    7215.0613 
   65800    303.75863    -22736.28    116.80263   -22853.083   -5572.1574 
   66000    304.51922   -22762.361     117.0951   -22879.456   -4534.9412 
   66200    314.83517   -22752.453    121.06183   -22873.515    12130.418 
   66400    267.39282   -22748.435    102.81909   -22851.254    1226.6395 
   66600    303.49262   -22760.375    116.70035   -22877.075   -10960.185 
   66800    327.69166   -22752.418    126.00547   -22878.424    216.10427 
   67000    277.01345   -22760.509    106.51846   -22867.028    5559.3367 
   67200     304.9657   -22761.086    117.26678   -22878.353     -3164.13 
   67400    294.39279   -22759.761    113.20124   -22872.963     3011.544 
   67600    291.43906   -22758.327    112.06546   -22870.392   -3507.7067 
   67800    295.14757   -22769.344    113.49147   -22882.835    1837.0427 
   68000    296.25956   -22750.142    113.91906   -22864.061    8685.0378 
   68200    300.64184   -22750.614    115.60415   -22866.218    -3789.317 
   68400    267.20798   -22764.923    102.74802   -22867.671   -8891.0742 
   68600    317.08163   -22756.369    121.92565   -22878.295   -2922.5135 
   68800    301.29633    -22769.53    115.85582   -22885.385   -4063.7496 
   69000    299.60419   -22771.064    115.20515   -22886.269   -1538.9861 
   69200    302.66532   -22756.381    116.38223   -22872.763    1442.5173 
   69400     280.0523   -22777.904    107.68697   -22885.591     5152.726 
   69600     268.5851   -22778.973    103.27755    -22882.25   -5318.8668 
   69800    315.76031    -22758.13    121.41757   -22879.548   -3588.1009 
   70000    299.80614   -22749.416    115.28281   -22864.699    5875.6376 
   70200    279.41787   -22774.142    107.44302   -22881.585   -2460.6512 
   70400    317.17774   -22751.221    121.96261   -22873.184   -9852.4729 
   70600    304.18393   -22757.255    116.96617   -22874.222    1759.7521 
   70800    266.22279   -22781.127    102.36919   -22883.496   -5033.9409 
   71000    285.68943   -22755.708    109.85459   -22865.562    8416.4097 
   71200    338.67081    -22756.18    130.22722   -22886.407    -5922.005 
   71400    294.55827   -22765.124    113.26487   -22878.389   -1848.9651 
   71600    297.40108   -22743.496      114.358   -22857.854    2005.4473 
   71800    273.37969   -22775.232    105.12119   -22880.353    2079.0192 
   72000    311.33016     -22757.1    119.71407   -22876.814   -1130.4142 
   72200    320.85566   -22744.514    123.37686   -22867.891    -6488.818 
   72400    279.87424   -22773.792     107.6185   -22881.411    4331.6597 
   72600    328.90105   -22748.358    126.47051   -22874.828    1727.0764 
   72800    312.42793   -22759.473    120.13619    -22879.61   -648.86302 
   73000    279.25781   -22780.299    107.38147    -22887.68   -13060.604 
   73200    304.74173   -22765.751    117.18066   -22882.931   -5656.0037 
   73400    308.60395   -22755.703    118.66578   -22874.368   -138.33634 
   73600    286.92654   -22771.183    110.33028   -22881.513   -2499.5432 
   73800    301.35302   -22766.806    115.87762   -22882.684    3746.1736 
   74000    311.49925   -22751.058    119.77909   -22870.838    5088.5714 
   74200    304.53021   -22774.439    117.09932   -22891.538   -8659.5262 
   74400    272.76417   -22772.467     104.8845   -22877.352    6327.6175 
   74600    299.76397   -22748.984    115.26659   -22864.251   -7231.0111 
   74800    293.29475   -22747.277    112.77902   -22860.056   -1608.5365 
   75000    288.78273   -22775.623    111.04403   -22886.667   -5000.5777 
   75200    302.24629   -22752.119     116.2211    -22868.34   -3353.5442 
   75400    328.59772   -22750.396    126.35387    -22876.75    2834.6705 
   75600    310.49034   -22755.216    119.39114   -22874.607    1015.0447 
   75800    299.17842   -22778.947    115.04143   -22893.989   -1013.4117 
   76000    299.33679    -22767.03    115.10233   -22882.133   -14956.508 
   76200    307.96869   -22755.147    118.42151   -22873.568   -8841.1412 
   76400    296.79437   -22762.567    114.12471   -22876.692    4988.2686 
   76600    271.56854   -22780.645    104.42476    -22885.07   -9134.5507 
   76800    308.53817   -22746.191    118.64049   -22864.832    11000.701 
   77000    279.01637   -22753.315    107.28863   -22860.604   -373.11829 
   77200    298.52115   -22769.863    114.78869   -22884.652   -883.77256 
   77400    286.22759   -22764.888    110.06152   -22874.949    11539.924 
   77600    300.25617       -22756    115.45585   -22871.455   -7625.4786 
   77800    319.53773   -22752.462    122.87008   -22875.332    1282.9553 
   78000    266.84607   -22776.661    102.60885    -22879.27   -145.56345 
   78200       314.34   -22764.004    120.87143   -22884.876    1433.6126 
   78400    314.80844   -22747.266    121.05156   -22868.317   -4666.2052 
   78600    291.48531   -22767.144    112.08324   -22879.227    1170.8951 
   78800    329.51943   -22743.359    126.70829   -22870.067    2057.2076 
   79000    292.05472   -22753.517     112.3022   -22865.819    186.34926 
   79200    296.01885   -22766.298     113.8265   -22880.124    12169.991 
   79400    303.77105   -22750.818    116.80741   -22867.625    5650.3417 
   79600     330.6586   -22737.864    127.14633    -22865.01    290.31118 
   79800    285.44424   -22763.191     109.7603   -22872.951   -4158.2229 
   80000     297.4619   -22752.301    114.38139   -22866.683    641.77029 
   80200    328.93038   -22752.432    126.48179   -22878.914   -6474.2585 
   80400    309.60638   -22765.359    119.05124    -22884.41    96.253992 
   80600    333.38238   -22746.544    128.19369   -22874.738    358.08033 
   80800    275.71564   -22771.114    106.01942   -22877.133   -4124.6808 
   81000    301.37533   -22759.216     115.8862   -22875.102    9391.7809 
   81200     305.8888   -22757.198    117.62174   -22874.819   -968.91318 
   81400     270.4739   -22787.616    104.00384    -22891.62   -208.52413 
   81600    251.62556   -22776.597    96.756192   -22873.354    9718.8547 
   81800    303.35135   -22755.379    116.64603   -22872.025   -10365.771 
   82000    269.32364   -22774.009    103.56154    -22877.57    448.45222 
   82200    296.41856   -22764.533     113.9802   -22878.513   -4492.3602 
   82400    334.46682    -22753.45    128.61069   -22882.061    8477.5082 
   82600    288.06547   -22773.499    110.76823   -22884.267    10060.971 
   82800    304.35434   -22756.721     117.0317   -22873.753    2630.0976 
   83000    317.64694   -22743.165    122.14303   -22865.308   -13366.031 
   83200    290.76583   -22766.072    111.80658   -22877.878   -4681.2073 
   83400    322.70816   -22762.156    124.08919   -22886.245   -4192.0426 
   83600    308.59316   -22758.534    118.66163   -22877.196    5536.2592 
   83800    324.79979   -22751.842    124.89348   -22876.736   -1668.4075 
   84000    321.82839   -22747.275     123.7509   -22871.026    1546.3988 
   84200    298.72187   -22773.615    114.86588   -22888.481   -1719.2061 
   84400    310.31316   -22753.608    119.32301   -22872.931    264.28662 
   84600    317.62857   -22750.135    122.13597   -22872.271    2878.6333 
   84800    264.23395   -22772.117    101.60443   -22873.721     11005.17 
   85000    311.79158   -22761.694     119.8915   -22881.586   -12420.039 
   85200    340.65858   -22745.395    130.99157   -22876.387   -2576.2112 
   85400    278.50202   -22765.592    107.09085   -22872.683      1851.82 
   85600    269.26843   -22775.366    103.54031   -22878.906    14998.711 
   85800    285.10804   -22761.927    109.63103   -22871.558    2426.1538 
   86000    311.56839   -22753.207    119.80568   -22873.013    1139.9504 
   86200    283.86841   -22781.511    109.15436   -22890.666    319.15851 
   86400    324.39369   -22756.929    124.73732   -22881.667    -392.0486 
   86600    295.57517   -22757.059    113.65589   -22870.715   -3436.0561 
   86800    286.57691   -22765.314    110.19584   -22875.509    8683.8435 
   87000    293.09468   -22763.801    112.70208   -22876.503    11599.568 
   87200    317.64185   -22741.078    122.14107   -22863.219    2624.1832 
   87400    310.59906   -22769.353    119.43295   -22888.786   -1445.3032 
   87600     318.0037    -22764.11    122.28021    -22886.39   -10894.736 
   87800    316.35305   -22751.888     121.6455   -22873.533   -2296.5331 
   88000    317.42393   -22760.099    122.05728   -22882.156   -1809.0016 
   88200    269.06137   -22784.135    103.46069   -22887.595   -2027.8065 
   88400    322.75115    -22758.13    124.10572   -22882.236    3677.5197 
   88600    294.21362   -22755.176    113.13234   -22868.309    1870.1915 
   88800    307.09399   -22765.372    118.08516   -22883.457    3340.5263 
   89000    327.61936   -22757.826    125.97767   -22883.803     6164.845 
   89200     301.0925   -22749.284    115.77744   -22865.061    5227.9876 
   89400    266.78906   -22774.324    102.58693   -22876.911    2226.0362 
   89600    233.11049   -22793.767    89.636694   -22883.404    3408.1413 
   89800    282.16684    -22759.56    108.50006    -22868.06    1397.7958 
   90000    301.09223   -22744.762    115.77734   -22860.539     2783.284 
   90200    273.32701   -22771.073    105.10093   -22876.174   -2195.9433 
   90400     318.5689   -22756.529    122.49755   -22879.026    2580.3654 
   90600    308.25884   -22755.442    118.53308   -22873.975   -2985.0369 
   90800     283.2988   -22775.334    108.93533   -22884.269    11055.457 
   91000    319.98914   -22749.213    123.04366   -22872.257   -4573.7947 
   91200     294.7954   -22759.706    113.35605   -22873.063    6283.0436 
   91400    262.83032   -22776.775     101.0647    -22877.84   -4879.2348 
   91600     319.8233   -22749.777    122.97989   -22872.757     3631.149 
   91800    287.68958   -22751.908    110.62369   -22862.532   -7966.5279 
   92000    275.08175   -22782.579    105.77567   -22888.355   -9715.5508 
   92200    290.57364   -22778.635    111.73268   -22890.368   -6168.4098 
   92400    299.97979   -22760.844    115.34958   -22876.194      57.2479 
   92600    318.75355   -22748.602    122.56855   -22871.171    7968.5536 
   92800    297.21346   -22775.417    114.28586   -22889.703   -5080.6333 
   93000    297.99423   -22755.689    114.58608   -22870.275    4511.7883 
   93200    281.49743   -22773.232    108.24266   -22881.474    2164.3841 
   93400    281.14588   -22773.272    108.10748   -22881.379   -7422.2196 
   93600    355.08076   -22756.432    136.53725    -22892.97    3669.7612 
   93800    263.34809   -22774.327    101.26379   -22875.591    377.32897 
   94000    303.43043   -22757.604    116.67643    -22874.28    6519.0207 
   94200    292.47631   -22759.984     112.4643   -22872.448   -3540.4603 
   94400    275.30065   -22768.076    105.85984   -22873.936   -7633.2576 
   94600    298.71149   -22758.293    114.86189   -22873.155    400.83555 
   94800    310.39134     -22765.2    119.35307   -22884.553   -7728.4506 
   95000    284.20685   -22772.516    109.28449   -22881.801   -13536.335 
   95200    323.45818   -22749.772    124.37759    -22874.15    7419.5652 
   95400     308.6476   -22756.124    118.68256   -22874.807   -9638.5853 
   95600    303.25533   -22765.844     116.6091   -22882.453    4000.2514 
   95800    326.92778   -22745.878    125.71174   -22871.589    4038.3427 
   96000    325.92023   -22725.249    125.32431   -22850.574    8772.1981 
   96200    306.10854   -22762.022    117.70623   -22879.729    3728.1844 
   96400    272.02164   -22768.256    104.59898   -22872.855     2157.108 
   96600    304.00608   -22748.106    116.89779   -22865.003   -5963.2657 
   96800    304.26026   -22765.294    116.99552   -22882.289   -3765.7768 
   97000    259.43001   -22766.482    99.757195    -22866.24    4954.1389 
   97200    333.42739   -22745.578      128.211   -22873.789    3918.2144 
   97400    282.25306   -22764.343    108.53322   -22872.876    -11860.59 
   97600    302.70478   -22760.688     116.3974   -22877.085    2972.9289 
   97800    306.38122   -22752.535    117.81108   -22870.346    658.96919 
   98000    305.01658   -22759.708    117.28635   -22876.994   -9467.4957 
   98200    257.10993   -22778.463    98.865067   -22877.328    3822.3322 
   98400    340.12753   -22750.129    130.78737   -22880.917   -831.77108 
   98600    273.80461   -22767.348    105.28458   -22872.633   -4481.7107 
   98800    328.72732   -22756.574    126.40371   -22882.978    5566.5207 
   99000    312.41909   -22752.085    120.13279   -22872.218   -3078.7178 
   99200    285.42871   -22778.577    109.75433   -22888.332   -2343.7919 
   99400    303.96212   -22769.495    116.88088   -22886.376   -4496.5189 
   99600    298.75748   -22760.911    114.87957    -22875.79    1564.5849 
   99800     317.6908   -22759.238    122.15989   -22881.398   -4833.0869 
  100000    317.49945   -22751.972    122.08631   -22874.058    11178.661 
  100200    316.16346   -22750.499     121.5726   -22872.072   -119.78228 
  100400    329.10566   -22769.669    126.54919   -22896.218    -4643.807 
  100600    270.34592   -22757.502    103.95463   -22861.456    324.83788 
  100800    296.60711    -22750.24     114.0527   -22864.292   -3324.5598 
  101000    254.33631   -22770.028    97.798541   -22867.827   -3915.5454 
  101200    330.97487   -22738.919    127.26795   -22866.187    1332.1475 
  101400    304.91763   -22758.559     117.2483   -22875.808    5899.9593 
  101600    278.63632    -22764.13    107.14249   -22871.273    232.26528 
  101800    325.61534   -22737.051    125.20708   -22862.258     9091.004 
  102000     356.5549   -22732.048    137.10409   -22869.152   -3547.1205 
  102200     263.1915   -22757.534    101.20358   -22858.738   -13527.202 
  102400    324.12042   -22749.596    124.63224   -22874.229     2964.285 
  102600    327.30691   -22759.672    125.85752    -22885.53    696.89672 
  102800    313.50911   -22765.217    120.55193   -22885.769   -6896.5975 
  103000    320.37445   -22756.309    123.19182   -22879.501    6376.5569 
  103200    288.70084   -22767.631    111.01255   -22878.643   -741.34801 
  103400    301.99501   -22765.382    116.12448   -22881.506    5471.6308 
  103600    325.40818   -22748.078    125.12742   -22873.206    4498.0404 
  103800    282.43214   -22774.241    108.60208   -22882.843    4294.6411 
  104000    302.82804   -22760.859     116.4448   -22877.304     829.3185 
  104200     313.9351   -22755.184    120.71574     -22875.9     9551.263 
  104400    290.08851   -22757.216    111.54614   -22868.762   -4154.0829 
  104600    288.07531    -22752.61    110.77201   -22863.382    857.39713 
  104800    259.93213   -22774.246    99.950272   -22874.196    8817.7849 
  105000    306.19867   -22752.524    117.74089   -22870.265    -3700.403 
  105200    284.92841    -22761.23    109.56195   -22870.792   -699.46144 
  105400    305.24864   -22777.508    117.37558   -22894.884   -1477.8458 
  105600    289.74606   -22773.665    111.41446    -22885.08   -7972.3109 
  105800    280.54931   -22764.836    107.87808   -22872.714     5239.526 
  106000     298.6549   -22755.094    114.84013   -22869.934    2037.7319 
  106200    320.18817   -22730.833    123.12019   -22853.953    -1761.276 
  106400    297.64666   -22751.596    114.45243   -22866.049    3551.7141 
  106600    279.99121   -22762.727    107.66348   -22870.391    7463.8753 
  106800    290.67538   -22772.814    111.77181   -22884.586   -2941.1773 
  107000    342.87618   -22736.094    131.84429   -22867.938   -3109.8715 
  107200    281.16917   -22759.544    108.11643    -22867.66   -4950.9137 
  107400    331.85574   -22753.735    127.60666   -22881.342     -10927.6 
  107600    295.62851   -22769.825     113.6764   -22883.501   -3189.6644 
  107800    257.92278   -22786.508    99.177629   -22885.686    7336.3058 
  108000    295.12022   -22757.583    113.48096   -22871.064   -1577.8384 
  108200     302.9412   -22753.339    116.48831   -22869.827    8185.7141 
  108400    263.87982   -22766.672    101.46826   -22868.141    4408.7988 
  108600    316.24788   -22740.771    121.60506   -22862.376    2911.8042 
  108800    283.05245   -22754.886     108.8406   -22863.727   -8238.2878 
  109000    288.54553   -22758.002    110.95282   -22868.955   -2919.9012 
  109200    303.29554   -22744.853    116.62456   -22861.478   -13225.558 
  109400    271.72642   -22763.216    104.48546   -22867.701    1746.7645 
  109600    289.04503   -22773.712    111.14489   -22884.857   -148.43734 
  109800    309.78297   -22755.083    119.11914   -22874.202   -6393.6075 
  110000    337.34476   -22748.725    129.71733   -22878.442   -5178.3051 
  110200    285.03009   -22771.956    109.60105   -22881.557    4112.2725 
  110400    295.08513   -22747.984    113.46746   -22861.452   -1900.1479 
  110600    275.46977   -22755.783    105.92487   -22861.708    -3625.794 
  110800    321.76829   -22749.369    123.72779   -22873.097    2871.6326 
  111000    291.48338   -22765.819     112.0825   -22877.901    3338.4473 
  111200    261.79101   -22766.639    100.66506   -22867.304   -592.84126 
  111400    316.54319   -22748.951    121.71861   -22870.669     -12589.9 
  111600    265.73135   -22772.605    102.18021   -22874.786   -7404.3931 
  111800    301.25131   -22763.141    115.83851   -22878.979   -952.70161 
  112000    337.17549   -22746.861    129.65224   -22876.513    5132.7696 
  112200    304.21516   -22754.327    116.97818   -22871.305   -15297.505 
  112400    277.81431    -22770.07    106.82641   -22876.896   -7053.9506 
  112600    289.25886   -22759.896    111.22712   -22871.123   -4460.3648 
  112800    340.84506   -22732.415    131.06328   -22863.479   -1845.0283 
  113000    287.98688   -22755.107    110.73801   -22865.846    1041.6623 
  113200    294.41532   -22760.806     113.2099   -22874.016    4730.5541 
  113400    277.90726    -22780.91    106.86215   -22887.772    6153.7582 
  113600    306.42194   -22758.138    117.82674   -22875.965    9577.8573 
  113800    251.85721   -22776.682    96.845267   -22873.527    4091.7393 
  114000    319.81391   -22746.799    122.97628   -22869.775    7894.4471 
  114200     280.7255   -22763.172    107.94583   -22871.118    7170.2364 
  114400    297.89721   -22773.763    114.54878   -22888.312    1562.1704 
  114600    274.56908   -22772.168    105.57854   -22877.746   -5580.9308 
  114800     326.0015   -22748.325    125.35556    -22873.68    3719.2883 
  115000    273.78722   -22769.946    105.27789   -22875.224    583.95163 
  115200    298.86021   -22755.049    114.91907   -22869.968   -119.19005 
  115400    296.38473    -22750.55    113.96719   -22864.518    3829.9383 
  115600    339.70967   -22748.505    130.62669   -22879.132   -7271.4113 
  115800    267.42102   -22780.998    102.82993   -22883.828    9935.1394 
  116000    291.88995   -22764.908    112.23884   -22877.147   -9776.3534 
  116200    300.40155   -22757.415    115.51175   -22872.927    7492.9078 
  116400    319.87944   -22756.915    123.00148   -22879.916     12002.11 
  116600    331.96121   -22760.012    127.64722    -22887.66   -6660.2709 
  116800    297.87129   -22771.729    114.53881   -22886.268    6090.4886 
  117000    330.26252    -22741.69    126.99403   -22868.684    2430.6911 
  117200    263.76756   -22759.771    101.42509   -22861.196   -11080.512 
  117400     263.3765    -22750.99    101.27472   -22852.265   -10538.949 
  117600    341.93731   -22735.317    131.48327     -22866.8   -1289.0582 
  117800    301.14587   -22758.908    115.79796   -22874.706   -16787.826 
  118000    326.28034    -22768.01    125.46278   -22893.472   -1754.8395 
  118200    272.32526   -22776.534    104.71574   -22881.249    8537.4155 
  118400    309.81218   -22749.924    119.13037   -22869.054    3426.2487 
  118600    286.04227   -22771.069    109.99026   -22881.059    567.45791 
  118800    259.90223   -22780.381    99.938773    -22880.32   -772.08358 
  119000    337.21354   -22748.663    129.66687    -22878.33   -170.62064 
  119200    293.45915   -22769.947    112.84223   -22882.789   -7950.8214 
  119400    318.23419   -22749.983    122.36884   -22872.352    -6406.783 
  119600    326.68999    -22741.58     125.6203   -22867.201     9911.222 
  119800    302.47121   -22767.464    116.30759   -22883.772    2354.3919 
  120000     284.8038   -22762.884    109.51404   -22872.398    2045.5637 
  120200    311.93284    -22756.04    119.94582   -22875.986    8766.5686 
  120400    251.06952    -22785.53    96.542379   -22882.073   -5493.4721 
  120600    285.53707   -22763.341      109.796   -22873.137    4200.0009 
  120800    315.53237   -22752.904    121.32993   -22874.234   -2278.2101 
  121000    267.32436   -22766.674    102.79276   -22869.467   -10048.993 
  121200    277.28386   -22772.987    106.62244    -22879.61    533.50816 
  121400    328.84072   -22744.586    126.44731   -22871.033    2771.8521 
  121600     272.9047   -22762.255    104.93854   -22867.194    -8913.248 
  121800    319.43885   -22737.645    122.83206   -22860.477   -590.57315 
  122000     299.7307   -22759.059     115.2538   -22874.313    2144.7334 
  122200    301.09728   -22760.652    115.77928   -22876.432   -4344.5403 
  122400    308.08809   -22756.036    118.46742   -22874.504   -3978.0153 
  122600    311.53122   -22746.078    119.79138    -22865.87   -4632.5443 
  122800     302.8497   -22775.817    116.45313    -22892.27    1487.3437 
  123000    311.21861   -22760.477    119.67118   -22880.148     589.2962 
  123200    307.13534   -22755.722    118.10106   -22873.823   -270.77621 
  123400    300.21284   -22759.835    115.43919   -22875.274    6249.3839 
  123600    285.11741   -22755.431    109.63463   -22865.066   -775.32659 
  123800    291.16604   -22752.734    111.96047   -22864.694   -1633.8844 
  124000    263.18848   -22771.997    101.20242   -22873.199    12503.421 
  124200    305.51422   -22744.484     117.4777   -22861.962   -1104.2915 
  124400    296.11113   -22758.482    113.86199   -22872.344    6572.2872 
  124600    283.31517   -22759.845    108.94162   -22868.787    7216.4441 
  124800    283.49011   -22754.431    109.00889    -22863.44   -5469.8116 
  125000    284.09724   -22764.797    109.24235   -22874.039    6672.4543 
  125200    298.94088    -22774.48    114.95009    -22889.43   -4640.7179 
  125400    314.09757    -22750.76    120.77821   -22871.538   -10801.928 
  125600     278.0839   -22756.267    106.93007   -22863.197    8952.4634 
  125800    272.71317    -22777.08    104.86489   -22881.945    -2173.626 
  126000    314.20777   -22756.823    120.82058   -22877.643   -481.94934 
  126200    274.33255   -22756.626    105.48759   -22862.114   -2272.4588 
  126400     260.0658   -22773.125    100.00167   -22873.126    4773.7964 
  126600    301.89719    -22750.52    116.08687   -22866.607    13663.116 
  126800    304.11282   -22745.994    116.93883   -22862.933   -2505.9517 
  127000    289.65452   -22765.088    111.37926   -22876.467    10347.176 
  127200     326.5363   -22752.484    125.56121   -22878.046    9380.1529 
  127400      270.612   -22764.965    104.05694   -22869.022   -9397.8225 
  127600    279.76174    -22768.14    107.57524   -22875.715    -2205.562 
  127800    324.28495   -22747.901    124.69551   -22872.596   -4002.3047 
  128000    305.04285   -22765.345    117.29645   -22882.642   -173.73338 
  128200    287.73368   -22766.707    110.64065   -22877.348    853.70219 
  128400    300.06393   -22746.456    115.38193   -22861.838     6016.038 
  128600    289.25401   -22766.774    111.22525       -22878    1981.5411 
  128800    287.48298   -22770.449    110.54425   -22880.993   -4582.3239 
  129000    281.56874   -22755.567    108.27008   -22863.837    1111.3214 
  129200    311.59304   -22762.169    119.81516   -22881.984    6539.6538 
  129400     297.8382   -22771.188    114.52609   -22885.714    5306.8886 
  129600     342.5869   -22748.439    131.73305   -22880.172    -179.5653 
  129800    276.57031   -22762.922    106.34806    -22869.27    2228.6617 
  130000    339.49727   -22740.303    130.54502   -22870.848    5587.1206 
  130200    289.68401   -22754.615     111.3906   -22866.005    733.98907 
  130400     290.5756   -22756.902    111.73344   -22868.635   -3623.2423 
  130600    311.46131   -22754.321     119.7645   -22874.086     -1463.85 
  130800    289.84821   -22773.409    111.45374   -22884.862    8494.0943 
  131000    328.02013   -22744.441    126.13178   -22870.573     4443.713 
  131200    291.62515   -22759.848    112.13701   -22871.985   -1930.9675 
  131400     249.2581   -22789.573    95.845846   -22885.419    3416.8105 
  131600     263.7065   -22779.472    101.40161   -22880.874    3328.6239 
  131800    268.16213   -22759.965    103.11491    -22863.08   -6639.3408 
  132000    332.58044   -22751.848    127.88533   -22879.734   -3480.9313 
  132200    284.88871   -22774.364    109.54669   -22883.911   -3057.8733 
  132400    284.99286   -22767.518    109.58673   -22877.105    4426.2119 
  132600     310.6552   -22749.472    119.45453   -22868.926   -6375.3663 
  132800    285.89167   -22772.348    109.93235   -22882.281    181.48734 
  133000    290.39139   -22759.864     111.6626   -22871.526   -1592.3229 
  133200    336.61041   -22747.135    129.43495    -22876.57   -2042.4954 
  133400    296.35499   -22769.929    113.95575   -22883.885   -6314.4868 
  133600    321.28169   -22747.977    123.54068   -22871.518   -1100.9111 
  133800    324.40375   -22746.233    124.74119   -22870.974   -9184.4137 
  134000    277.47995   -22764.455    106.69784   -22871.153    852.76132 
  134200    288.38571   -22772.325    110.89137   -22883.217   -2894.9499 
  134400    278.65094   -22756.443    107.14811   -22863.591   -1745.7428 
  134600    330.75955   -22742.327    127.18515   -22869.512   -10860.748 
  134800    285.94356   -22769.724     109.9523   -22879.676    2066.8692 
  135000    312.20081   -22756.372    120.04886    -22876.42   -4246.8117 
  135200    297.66579   -22738.828    114.45979   -22853.288    6170.9813 
  135400    283.24126    -22770.35     108.9132   -22879.263    4860.0766 
  135600    269.81346   -22769.728    103.74989   -22873.477   -4540.2236 
  135800    322.26952   -22744.429    123.92053   -22868.349    9929.9473 
  136000    291.95614   -22768.534    112.26429   -22880.798   -3370.5506 
  136200    290.81535   -22764.415    111.82562   -22876.241   -20309.715 
  136400    282.52072   -22757.184    108.63614    -22865.82   -5505.0629 
  136600    307.69871     -22755.6    118.31769   -22873.918    314.28468 
  136800    280.34532   -22759.721    107.79964    -22867.52   -7799.9373 
  137000    320.77677   -22764.305    123.34653   -22887.651    2388.0206 
  137200    277.00816   -22763.286    106.51642   -22869.802    426.34106 
  137400    307.25835   -22752.598    118.14836   -22870.746   -2051.4204 
  137600    288.97153   -22781.606    111.11663   -22892.722   -8988.1922 
  137800    281.83085   -22763.068    108.37087   -22871.439     10436.77 
  138000    284.70805   -22759.624    109.47722   -22869.101    7857.2836 
  138200    289.48703   -22778.196    111.31486   -22889.511   -4719.3405 
  138400    272.43442   -22776.534    104.75771   -22881.292   -6996.5981 
  138600    289.43577   -22757.611    111.29514   -22868.906    3044.7462 
  138800    283.92009   -22755.579    109.17423   -22864.753   -12367.697 
  139000    259.52826   -22781.555    99.794974    -22881.35    29.622204 
  139200    310.73087   -22756.686    119.48363    -22876.17    -1419.196 
  139400     289.9792   -22757.111     111.5041   -22868.615    3792.7147 
  139600    275.32215   -22777.474    105.86811   -22883.342   -9769.7687 
  139800    307.11673   -22758.647    118.09391   -22876.741   -2027.2205 
  140000    340.45975   -22744.285    130.91511   -22875.201   -1737.4583 
  140200    288.76416   -22767.319    111.03689   -22878.356   -4986.5648 
  140400    294.90678    -22756.11    113.39888   -22869.509    5346.1208 
  140600    310.77624    -22751.31    119.50108   -22870.811     331.4107 
  140800    299.39038   -22757.847    115.12293    -22872.97   -4897.0009 
  141000    320.84782    -22750.88    123.37384   -22874.254   -836.38752 
  141200    271.68735   -22769.385    104.47044   -22873.856    5230.3816 
  141400    345.93076   -22743.136    133.01885   -22876.155   -12848.136 
  141600    304.68513   -22756.267     117.1589   -22873.426     2280.742 
  141800     293.3382   -22759.116    112.79572   -22871.912    7783.6995 
  142000    261.02173   -22781.542    100.36925   -22881.911   -6457.4291 
  142200    308.19359   -22774.744    118.50799   -22893.252    4927.2799 
  142400      292.809   -22763.623    112.59224   -22876.215   -1551.2859 
  142600    316.03605   -22753.097     121.5236    -22874.62    6835.3226 
  142800    275.22279   -22765.458    105.82991   -22871.288   -3770.0788 
  143000    323.80765   -22754.654    124.51197   -22879.166   -4260.3831 
  143200    305.32394   -22741.172    117.40453   -22858.577   -3204.4145 
  143400    293.91202   -22765.023    113.01637   -22878.039   -5255.0084 
  143600    309.96886   -22756.283    119.19062   -22875.474   -9781.9266 
  143800     295.1299   -22763.933    113.48468   -22877.418   -2688.6829 
  144000    300.61087   -22766.456    115.59224   -22882.049    1368.3927 
  144200    307.66266   -22749.159    118.30383   -22867.463   -3293.2273 
  144400    307.54608   -22761.401      118.259    -22879.66   -610.53862 
  144600    284.25348    -22769.71    109.30243   -22879.012   -5111.7664 
  144800    298.52322    -22748.58    114.78949   -22863.369    -618.0942 
  145000     320.6188   -22755.713    123.28578   -22878.999   -4238.4946 
  145200    300.63298   -22762.212    115.60075   -22877.812   -3847.1717 
  145400    328.83989   -22738.104    126.44699   -22864.551   -10767.874 
  145600    314.77894   -22753.887    121.04021   -22874.928    4702.7132 
  145800    279.03679    -22765.29    107.29648   -22872.587   -4616.9581 
  146000    309.86012    -22751.26    119.14881   -22870.409    5020.0127 
  146200    262.84703   -22777.286    101.07112   -22878.357    711.42243 
  146400    312.30129   -22761.329     120.0875   -22881.416   -2734.7908 
  146600    356.12323   -22740.493     136.9381   -22877.431    5435.1649 
  146800    299.87924   -22750.064    115.31092   -22865.375   -1848.1928 
  147000    280.70578   -22765.877    107.93825   -22873.815   -9517.3238 
  147200    284.95809   -22752.171    109.57336   -22861.744    2353.2768 
  147400    267.07362   -22785.253    102.69635    -22887.95   -4780.3637 
  147600     272.3823   -22770.588    104.73767   -22875.326    5721.5233 
  147800    303.08031   -22748.533     116.5418   -22865.075    4973.4066 
  148000    290.75191   -22760.718    111.80123   -22872.519    6086.1473 
  148200     284.3707   -22767.963     109.3475   -22877.311   -3109.7239 
  148400    314.93787    -22758.39    121.10133   -22879.491   -4839.1345 
  148600    257.19391   -22781.328    98.897358   -22880.226    3952.1439 
  148800    279.20107   -22772.277    107.35965   -22879.637   -9083.4987 
  149000    274.39509   -22758.115    105.51164   -22863.626    3769.4795 
  149200    331.97237   -22742.452    127.65151   -22870.104   -829.31747 
  149400    277.14208   -22773.085    106.56792   -22879.653    4465.3958 
  149600    296.29886   -22754.126    113.93417    -22868.06    60.765058 
  149800     288.2945   -22756.838     110.8563   -22867.695    183.95763 
  150000    283.50421   -22761.036    109.01432    -22870.05   -6294.6705 
  150200    292.73433   -22751.517    112.56352    -22864.08    5570.6606 
  150400     299.7074   -22755.761    115.24484   -22871.006    4107.3793 
  150600    284.64716   -22766.955    109.45381   -22876.409   -11251.152 
  150800    366.64568   -22741.995    140.98425    -22882.98    10886.074 
  151000    248.30053   -22765.403    95.477636    -22860.88    1977.9443 
  151200    289.38758    -22756.67    111.27661   -22867.947    17410.019 
  151400    282.53375   -22749.887    108.64115   -22858.528    -2704.672 
  151600    279.69767   -22784.641    107.55061   -22892.192   -2510.9966 
  151800     336.1095   -22749.893    129.24234   -22879.135   -1386.4046 
  152000     273.7013   -22755.773    105.24485   -22861.018   -1818.1955 
  152200    340.14584   -22743.303    130.79441   -22874.097    11568.174 
  152400     300.6191   -22765.851    115.59541   -22881.446    -13364.74 
  152600    305.99071   -22767.545    117.66092   -22885.206   -708.27776 
  152800    308.93706   -22760.658    118.79387   -22879.452    11950.711 
  153000    298.75195   -22762.796    114.87744   -22877.674   -6833.0871 
  153200    312.93739   -22751.386    120.33209   -22871.718   -3207.0329 
  153400    299.51628   -22756.021    115.17135   -22871.193   -384.57049 
  153600    285.84417   -22762.211    109.91409   -22872.125   -3937.8945 
  153800    305.55476   -22772.582    117.49329   -22890.075   -1446.8659 
  154000    308.45566   -22748.086    118.60876   -22866.694   -10638.754 
  154200     316.6868   -22748.015    121.77383   -22869.789   -2282.5973 
  154400    291.62082    -22759.99    112.13535   -22872.125   -4217.4783 
  154600     295.2237   -22778.515    113.52075   -22892.035    3962.9202 
  154800    288.65893   -22750.285    110.99643   -22861.282    1473.6056 
  155000    292.44183   -22757.908    112.45105    -22870.36    48.165323 
  155200    294.06238   -22772.962    113.07419   -22886.036    5863.7484 
  155400    267.67995    -22780.43     102.9295    -22883.36    9558.8063 
  155600     265.6757   -22756.078    102.15882   -22858.237   -3539.7881 
  155800    307.43273   -22746.059    118.21542   -22864.274    6948.7474 
  156000    313.50831    -22776.97    120.55163   -22897.522    10548.354 
  156200    285.65094   -22763.545    109.83978   -22873.385      4403.06 
  156400     299.2921   -22754.265    115.08515    -22869.35   -4374.9366 
  156600    308.56717   -22746.328    118.65164   -22864.979    4357.1651 
  156800     309.1926   -22769.681    118.89213   -22888.573    6721.3536 
  157000    313.95235    -22761.06    120.72237   -22881.783   -3978.6882 
  157200    329.52798   -22754.196    126.71158   -22880.908   -8179.5909 
  157400    268.79231   -22774.463    103.35723    -22877.82    6776.6744 
  157600    296.59092   -22743.151    114.04648   -22857.198   -8779.8669 
  157800    314.84218   -22755.163    121.06453   -22876.228    4771.1207 
  158000    314.18993   -22760.677    120.81373    -22881.49   -11664.953 
  158200    319.17307   -22752.617    122.72986   -22875.347    7946.1818 
  158400    348.58779   -22735.446    134.04054   -22869.487   -3098.7509 
  158600    276.37266    -22764.09    106.27206   -22870.362   -4851.5677 
  158800    319.53685   -22763.988    122.86974   -22886.858    13978.094 
  159000    333.14363    -22732.17    128.10189   -22860.272     6650.994 
  159200    317.23222   -22751.975    121.98356   -22873.959    2854.4747 
  159400    291.39025   -22769.025    112.04669   -22881.072   -3091.5629 
  159600    306.25827    -22740.53    117.76381   -22858.293   -3795.8476 
  159800    289.42334   -22756.006    111.29036   -22867.296   -186.89769 
  160000    281.29332   -22763.706    108.16417    -22871.87   -1002.8474 
  160200    295.65308   -22750.607    113.68585   -22864.293    2938.3374 
  160400    289.80257   -22754.676    111.43619   -22866.112   -5210.2963 
  160600     279.8233    -22758.65    107.59891   -22866.248    1308.7246 
  160800    317.10998   -22748.036    121.93656   -22869.972    5743.7083 
  161000    306.19532   -22760.706     117.7396   -22878.446    -10639.76 
  161200    299.27674   -22762.082    115.07924   -22877.162   -103.66609 
  161400    294.51827   -22753.537    113.24949   -22866.786    4922.7994 
  161600    310.21796    -22760.02     119.2864   -22879.306    6945.2586 
  161800    325.58504   -22729.701    125.19542   -22854.896    4846.9109 
  162000    321.76567   -22754.612    123.72678   -22878.339    4005.0386 
  162200    296.45061   -22773.251    113.99252   -22887.243    2501.9071 
  162400    311.91951   -22751.479    119.94069    -22871.42    2262.1748 
  162600    305.82524   -22748.603    117.59729     -22866.2    893.78782 
  162800    276.22115   -22770.634     106.2138   -22876.848   -891.81465 
  163000    284.37959   -22754.842    109.35092   -22864.192   -1183.0281 
  163200    356.07641   -22724.149     136.9201    -22861.07   -3219.5293 
  163400    315.08867   -22755.059    121.15931   -22876.219    -5001.596 
  163600    309.18916   -22763.949    118.89081    -22882.84   -6396.6677 
  163800    340.71813   -22735.851    131.01447   -22866.865   -6199.4118 
  164000    292.55406   -22756.613     112.4942   -22869.107    3692.9229 
  164200    320.13757   -22764.437    123.10074   -22887.538    1448.5185 
  164400    251.75033   -22770.965    96.804169    -22867.77   -13528.204 
  164600    331.54075   -22740.379    127.48554   -22867.865    -4283.503 
  164800    286.29293    -22766.23    110.08665   -22876.316   -8321.2204 
  165000      315.139   -22764.125    121.17866   -22885.304   -2525.0132 
  165200    296.05682   -22763.601     113.8411   -22877.442    5441.1467 
  165400    295.27108   -22760.196    113.53896   -22873.735    117.95234 
  165600    335.41148   -22758.127    128.97393   -22887.101   -9717.8635 
  165800    324.67991   -22734.951    124.84738   -22859.798    -1670.362 
  166000    304.14261   -22758.618    116.95028   -22875.568    12514.956 
  166200    280.06169   -22758.349    107.69058    -22866.04    11018.237 
  166400    273.41981   -22772.901    105.13662   -22878.038    3155.2352 
  166600    260.12974   -22775.866    100.02626   -22875.892   -10154.474 
  166800     330.0114   -22747.293    126.89747    -22874.19    838.97502 
  167000    306.92227   -22760.259    118.01913   -22878.278   -59.793044 
  167200    296.98444   -22771.196    114.19779   -22885.394      3150.85 
  167400    305.79574   -22756.775    117.58595   -22874.361    9567.4678 
  167600    315.87433   -22768.695    121.46142   -22890.156    8193.5342 
  167800    290.68366    -22782.65    111.77499   -22894.425   -5163.2928 
  168000    309.72375   -22755.336    119.09637   -22874.432    776.19421 
  168200    286.40798   -22749.322    110.13088   -22859.453     3354.321 
  168400    312.62576   -22764.325    120.21226   -22884.537    -7456.416 
  168600    276.28775   -22765.226    106.23941   -22871.466    30.041829 
  168800    317.29148   -22748.532    122.00635   -22870.538    -836.5269 
  169000    295.25462   -22758.779    113.53263   -22872.311   -4165.7743 
  169200    295.28691   -22757.648    113.54505   -22871.193   -935.85476 
  169400    321.31575   -22739.005    123.55378   -22862.559   -10218.798 
  169600    283.75625   -22764.455    109.11123   -22873.566    7069.1639 
  169800    312.06695     -22756.6    119.99739   -22876.597     2753.938 
  170000     314.9275   -22749.264    121.09734   -22870.362   -1466.3711 
  170200    283.52123   -22767.437    109.02086   -22876.458    7313.7023 
  170400    281.87102   -22769.829    108.38631   -22878.216    681.00167 
  170600    330.57607   -22739.651     127.1146   -22866.766    8707.3327 
  170800    279.10448   -22764.342    107.32251   -22871.664   -118.97958 
  171000    283.79936   -22764.976    109.12781   -22874.104   -8536.7337 
  171200    296.97424   -22757.446    114.19387    -22871.64    4942.0804 
  171400    343.95525   -22734.212    132.25922   -22866.471    -8009.547 
  171600    301.19781   -22749.491    115.81794   -22865.309   -644.82233 
  171800      284.219   -22768.759    109.28917   -22878.048   -11662.492 
  172000     344.2712   -22747.491    132.38071   -22879.872    2240.2355 
  172200    340.67288   -22726.519    130.99707   -22857.516    5247.3062 
  172400    289.35604   -22756.645    111.26448    -22867.91    5045.5464 
  172600    253.03235   -22770.881    97.297135   -22868.178    6699.6853 
  172800    322.46002   -22743.853    123.99378   -22867.847   -1345.2177 
  173000    275.28204   -22770.131    105.85269   -22875.984    1253.1321 
  173200    291.31657   -22770.453    112.01836   -22882.471   -6864.3795 
  173400    320.85753   -22756.176    123.37758   -22879.554    6872.8519 
  173600    310.49255    -22770.28    119.39199   -22889.672   -2297.2619 
  173800     265.2398   -22773.637     101.9912   -22875.628    -4127.928 
  174000    292.55459   -22751.886    112.49441    -22864.38     2008.941 
  174200    274.60078   -22776.277    105.59073   -22881.867    51.515398 
  174400    279.66763   -22770.777    107.53905   -22878.316   -13994.408 
  174600    318.66191    -22750.68    122.53331   -22873.214     2124.765 
  174800    310.93685    -22758.45    119.56284   -22878.013   -2272.9092 
  175000     278.9323    -22761.89     107.2563   -22869.146   -5496.0579 
  175200    340.87994   -22747.327    131.07669   -22878.403    2758.1354 
  175400    267.91573   -22766.922    103.02016   -22869.942   -336.93909 
  175600    281.81988   -22758.528    108.36665   -22866.894    4722.4525 
  175800    323.49077   -22754.014    124.39013   -22878.404    4119.6066 
  176000    284.30925   -22775.031    109.32387   -22884.355    3114.2816 
  176200    306.39427   -22757.026     117.8161   -22874.842    -3163.935 
  176400    325.86864    -22740.74    125.30447   -22866.045   -4668.7124 
  176600    287.35284   -22765.866     110.4942    -22876.36    653.05195 
  176800    273.89565   -22757.593    105.31959   -22862.913    4536.2999 
  177000    337.72946   -22736.466    129.86525   -22866.331    2787.9812 
  177200    283.14318   -22761.922    108.87549   -22870.797   -868.65048 
  177400    277.84029   -22760.732     106.8364   -22867.569   -1326.2128 
  177600    317.62144   -22742.288    122.13323   -22864.421    81.564414 
  177800    295.94761   -22757.318    113.79911   -22871.117   -626.58147 
  178000    282.21221   -22761.716    108.51751   -22870.234      6821.02 
  178200    262.88712   -22781.782    101.08654   -22882.868    8037.9952 
  178400    311.27678    -22755.45    119.69355   -22875.143    5262.2021 
  178600    275.34921   -22762.866    105.87852   -22868.745   -3179.2689 
  178800    281.20595    -22763.81    108.13058    -22871.94    3678.4375 
  179000    297.19407   -22751.327     114.2784   -22865.606    753.60701 
  179200    292.16387   -22761.605    112.34417   -22873.949   -7563.2374 
  179400    289.15333   -22773.666    111.18654   -22884.853    8810.1047 
  179600    300.98558   -22757.303    115.73633    -22873.04   -75.864803 
[...]
  950000    319.11325   -22781.009    122.70686   -22903.716   -4434.7801 
  950200    276.61343   -22796.629    106.36464   -22902.994    5328.8029 
  950400    294.96006   -22805.783    113.41937   -22919.202   -8596.7985 
  950600    309.45318   -22788.938    118.99233    -22907.93    4039.1242 
  950800    304.80221   -22781.458    117.20392   -22898.662   -6746.2555 
  951000    259.52441   -22812.751    99.793491   -22912.545   -5100.3423 
  951200     304.7447   -22796.922     117.1818   -22914.104   -356.41773 
  951400    298.13339    -22789.38    114.63959   -22904.019    3713.7541 
  951600    318.67515   -22758.515     122.5384   -22881.054   -198.44763 
  951800    293.04293   -22792.986    112.68219   -22905.668   -4976.5097 
  952000     257.5372   -22793.603    99.029363   -22892.632    7877.3026 
  952200    299.83108    -22785.31    115.29239   -22900.603    2515.4824 
  952400    279.23717   -22809.245    107.37353   -22916.619   -3063.7079 
  952600      293.955   -22792.749     113.0329   -22905.782    9077.2583 
  952800     308.2877   -22795.917    118.54417   -22914.462    135.66865 
  953000    283.09451    -22799.33    108.85677   -22908.186     3979.393 
  953200     360.1545    -22778.94    138.48823   -22917.429   -4944.6359 
  953400    295.90867   -22796.531    113.78413   -22910.315   -4275.1778 
  953600    298.22025   -22789.218    114.67299   -22903.891     5044.696 
  953800    284.47989    -22777.43    109.38949    -22886.82    10354.369 
  954000    258.98357   -22798.984    99.585527    -22898.57    1007.2818 
  954200    290.69432   -22796.585    111.77909   -22908.364   -2902.9884 
  954400    325.43873   -22775.205    125.13916   -22900.344     3146.868 
  954600     296.8543   -22797.349    114.14775   -22911.497   -7269.3049 
  954800    309.56777   -22782.594    119.03639    -22901.63   -2442.6277 
  955000    332.42493   -22775.327    127.82553   -22903.152   -2833.5741 
  955200    273.81695   -22794.769    105.28933   -22900.058    14912.691 
  955400    274.10191   -22806.706     105.3989   -22912.105    1405.7406 
  955600    274.98872   -22797.923     105.7399   -22903.663    4188.1048 
  955800    311.10773   -22783.473    119.62854   -22903.102   -5445.0107 
  956000    288.07948   -22803.831    110.77362   -22914.604    3334.4879 
  956200    290.72894   -22788.349     111.7924   -22900.142    5591.6759 
  956400    303.04476   -22787.596    116.52813   -22904.124    7437.9794 
  956600    292.14379   -22803.989    112.33644   -22916.325   -1588.3319 
  956800    311.84822   -22778.611    119.91328   -22898.525    8638.3795 
  957000    297.34682    -22791.03    114.33713   -22905.367    -4173.256 
  957200    301.71562   -22795.489    116.01705   -22911.506   -11398.928 
  957400    293.28829   -22806.472    112.77653   -22919.248    2290.0699 
  957600    342.35383   -22787.553    131.64343   -22919.197   -1126.3356 
  957800    325.39491   -22783.683    125.12231   -22908.805     1795.533 
  958000    280.43642   -22808.155    107.83467    -22915.99   -6101.7966 
  958200     290.1027   -22786.045    111.55159   -22897.596    5734.3587 
  958400    331.33979   -22779.448    127.40827   -22906.856    1751.9429 
  958600    305.40937   -22786.748    117.43738   -22904.186   -936.21465 
  958800    271.40655   -22792.659    104.36247   -22897.021   -3058.7212 
  959000    267.23525   -22809.017     102.7585   -22911.775   -15712.811 
  959200     346.1921   -22776.562    133.11934   -22909.681    2681.1337 
  959400    293.19867   -22793.539    112.74207   -22906.281    8363.7462 
  959600    269.88268    -22792.41     103.7765   -22896.186   -4189.9327 
  959800    331.93983   -22765.838      127.639   -22893.477    1713.5441 
  960000    310.36368   -22799.073    119.34244   -22918.415   -1859.1863 
  960200    306.52444   -22786.935    117.86616   -22904.801    7423.1139 
  960400    292.05952   -22790.272    112.30404   -22902.576   -6756.5333 
  960600    293.62654   -22802.309     112.9066   -22915.216    6793.1815 
  960800     310.7377   -22782.798    119.48626   -22902.284   -6165.3037 
  961000    282.64016   -22807.666    108.68207   -22916.349   -3188.0076 
  961200    293.15914   -22808.593    112.72687    -22921.32    7290.5622 
  961400     308.9746   -22795.344     118.8083   -22914.152   -8566.3218 
  961600    359.11587   -22777.179    138.08885   -22915.268    7194.9934 
  961800    321.70781   -22769.774    123.70453   -22893.478   -860.55285 
  962000    307.01277   -22794.266    118.05393    -22912.32    7032.0774 
  962200    292.17921   -22789.619    112.35006   -22901.969    4149.4083 
  962400    294.39492   -22797.319    113.20206   -22910.521    73.059356 
  962600    304.90207   -22803.319    117.24232   -22920.561   -1577.7503 
  962800    308.13421    -22776.39    118.48515   -22894.875    20782.362 
  963000    295.13423   -22792.467    113.48634   -22905.954   -10753.463 
  963200    304.61595   -22794.051    117.13229   -22911.184     7193.603 
  963400    312.33957   -22789.844    120.10222   -22909.946    1439.1169 
  963600    292.45618   -22793.794    112.45657   -22906.251    8136.6326 
  963800    293.04844   -22813.772     112.6843   -22926.456   -5025.6711 
  964000    292.69652   -22784.454    112.54898   -22897.003   -9559.1854 
  964200    313.02285   -22787.964    120.36495   -22908.329    1851.8386 
  964400    274.17962   -22810.051    105.42878    -22915.48   -1715.1593 
  964600    333.82282   -22782.246    128.36305   -22910.609   -4889.3704 
  964800    274.93568    -22794.02     105.7195    -22899.74   -2530.7479 
  965000    279.63217   -22801.405    107.52542    -22908.93    678.73209 
  965200     295.5655   -22789.471    113.65217   -22903.123    2619.8721 
  965400    296.30188   -22799.536    113.93533   -22913.472   -2275.6521 
  965600    275.49569   -22812.185    105.93484    -22918.12   -7371.4574 
  965800    331.95978   -22788.147    127.64667   -22915.794    2073.1703 
  966000    304.22797   -22789.013    116.98311   -22905.996    498.79135 
  966200    290.06523   -22803.884    111.53719   -22915.421   -1070.6637 
  966400    324.80382   -22786.305    124.89502     -22911.2    11678.385 
  966600    305.34936   -22789.637    117.41431   -22907.052    2860.4026 
  966800    294.29188   -22796.267    113.16244    -22909.43   -2976.9193 
  967000    271.44484   -22795.329    104.37719   -22899.706    685.37256 
  967200    378.80032   -22765.805      145.658   -22911.463   -8838.9834 
  967400    292.47758   -22789.381     112.4648   -22901.846   -1019.8945 
  967600    290.22455   -22791.824    111.59845   -22903.422    4230.8538 
  967800    306.25432   -22780.543    117.76229   -22898.305   -4939.4414 
  968000    282.88584   -22803.467    108.77653   -22912.243    8270.7272 
  968200    326.48154   -22780.588    125.54015   -22906.129    4810.7757 
  968400    286.61259   -22803.423    110.20956   -22913.633   -3470.4519 
  968600    333.24652    -22794.78    128.14145   -22922.922    10825.019 
  968800    301.44733    -22784.73    115.91388   -22900.644    1616.0083 
  969000    282.04726   -22795.805    108.45408   -22904.259    8325.6859 
  969200    287.64989   -22803.916    110.60843   -22914.525    8098.8263 
  969400    344.22034   -22780.667    132.36115   -22913.028   -360.99781 
  969600     290.5151   -22800.159    111.71017   -22911.869     -1168.46 
  969800    228.54141   -22827.983     87.87977   -22915.863    3815.1677 
  970000    324.10605   -22795.327    124.62672   -22919.953   -10670.158 
  970200    318.24901   -22780.137    122.37454   -22902.512    9968.7588 
  970400     308.5053   -22805.623    118.62784   -22924.251   -2246.9014 
  970600    299.16839   -22796.032    115.03758    -22911.07   -2975.7043 
  970800    327.59593   -22778.518    125.96866   -22904.487   -2846.6559 
  971000    262.38003   -22805.304    100.89155   -22906.196    5387.7228 
  971200    294.78195   -22801.793    113.35088   -22915.144     4156.381 
  971400    311.56554   -22785.097    119.80458   -22904.901   -4601.8652 
  971600     278.5242   -22808.237    107.09938   -22915.337   -168.09356 
  971800    310.96602   -22802.213    119.57405   -22921.787   -5469.7286 
  972000    329.88171   -22781.379     126.8476   -22908.227    10587.783 
  972200    302.58423   -22805.057    116.35105   -22921.408    2939.2925 
  972400     317.7989   -22784.202    122.20146   -22906.404    1935.8826 
  972600    313.87676   -22782.984     120.6933   -22903.677   -773.93059 
  972800    292.76212   -22796.569    112.57421   -22909.144   -2799.2523 
  973000    284.85939    -22774.84    109.53541   -22884.376     -6378.84 
  973200    330.51659   -22772.064    127.09173   -22899.156    11202.449 
  973400    289.63244   -22794.487    111.37077   -22905.857    -8951.242 
  973600    312.51268   -22795.066    120.16878   -22915.235    2549.2188 
  973800    325.79517   -22771.472    125.27622   -22896.748    33.672635 
  974000    293.74183   -22798.042    112.95093   -22910.993   -873.23608 
  974200    294.71546   -22797.204    113.32531   -22910.529    981.08789 
  974400     339.2066   -22789.411    130.43325   -22919.845   -3754.4539 
  974600    299.19113   -22805.389    115.04632   -22920.435   -2498.9295 
  974800     291.5003   -22787.146    112.08901   -22899.235   -5643.5654 
  975000    343.63443    -22779.42    132.13585   -22911.556   -3940.1369 
  975200     324.3804   -22795.146    124.73221   -22919.878    1576.5331 
  975400    315.97593   -22766.124    121.50049   -22887.624    1710.3226 
  975600    293.41701   -22781.948    112.82603   -22894.774   -11287.985 
  975800    288.00558   -22798.664     110.7452   -22909.409   -3265.7628 
  976000    318.89117    -22791.14    122.62147   -22913.762    8959.3044 
  976200    283.49057    -22782.09    109.00907   -22891.099   -5088.6607 
  976400     276.3722   -22803.899    106.27188   -22910.171    -14684.84 
  976600    320.50087   -22784.711    123.24044   -22907.952   -283.35624 
  976800    331.42644   -22750.805    127.44159   -22878.246   -494.37484 
  977000    324.21693   -22788.116    124.66935   -22912.786    8913.1209 
  977200    297.17768   -22793.316     114.2721   -22907.588   -12.056536 
  977400    327.06616   -22768.946    125.76495   -22894.711     1736.783 
  977600    311.48484   -22787.885    119.77355   -22907.658    3522.8616 
  977800    281.49104   -22801.321     108.2402   -22909.562    249.84604 
  978000    278.66304   -22810.587    107.15276    -22917.74    7672.9841 
  978200    318.73234   -22785.951    122.56039   -22908.511    -1514.303 
  978400    318.92208   -22786.882    122.63335   -22909.515      9184.66 
  978600    283.42209   -22802.395    108.98274   -22911.378   -3442.0357 
  978800    341.95677   -22776.153    131.49075   -22907.644     1231.427 
  979000    300.27916    -22801.61    115.46469   -22917.075    714.91665 
  979200    298.76193   -22799.618    114.88128   -22914.499     1174.881 
  979400    286.95448   -22783.053    110.34103   -22893.394   -4352.1195 
  979600    261.69247   -22800.464    100.62716   -22901.091    7192.9035 
  979800    280.68963   -22805.439    107.93204   -22913.371    3210.0112 
  980000    338.92421   -22783.236    130.32466   -22913.561    7439.3777 
  980200    279.03803   -22793.106    107.29696   -22900.403    1727.3803 
  980400    284.76744   -22803.033    109.50006   -22912.533   -3281.1823 
  980600    309.03217   -22789.648    118.83044   -22908.478    1247.3912 
  980800    316.99453   -22776.699    121.89216   -22898.591   -4157.2205 
  981000    279.49394   -22798.021    107.47227   -22905.494    9034.9042 
  981200     302.5984   -22795.156     116.3565   -22911.512    -2406.745 
  981400    272.17037   -22820.729    104.65617   -22925.385    2864.8439 
  981600     294.3613   -22796.171    113.18913    -22909.36     5706.696 
  981800    311.58167   -22784.595    119.81078   -22904.406    2463.6731 
  982000     282.6343   -22804.044    108.67981   -22912.724   -1538.5093 
  982200    263.09387   -22802.739    101.16604   -22903.905   -1146.9478 
  982400    294.11903   -22795.356    113.09597   -22908.452   -4248.1749 
  982600     291.4835   -22800.147    112.08255   -22912.229   -7270.7843 
  982800    317.20156   -22783.206    121.97177   -22905.178    -7754.014 
  983000    338.81913   -22785.911    130.28425   -22916.195   -5464.6646 
  983200    288.47578   -22801.595      110.926   -22912.521   -5864.3591 
  983400    318.96619   -22785.767    122.65031   -22908.417   -3083.8336 
  983600    290.66627    -22799.53     111.7683   -22911.298    971.02732 
  983800    285.20473   -22796.988    109.66821   -22906.656   -2280.3815 
  984000    311.92843   -22783.459    119.94412   -22903.403   -976.84154 
  984200    289.30743   -22795.226     111.2458   -22906.472    10922.836 
  984400    335.87323   -22766.163    129.15148   -22895.314    125.49419 
  984600    298.57407   -22791.084    114.80904   -22905.893   -4511.1173 
  984800    294.60977   -22796.998    113.28467   -22910.282    7403.2867 
  985000    306.57888   -22792.851    117.88709   -22910.738    1992.2983 
  985200    287.35827   -22788.014    110.49629    -22898.51   -3592.3025 
  985400    274.38723   -22796.294    105.50861   -22901.803    7258.3719 
  985600    266.23287   -22814.125    102.37306   -22916.498    4700.0923 
  985800    287.77643   -22787.847    110.65709   -22898.504    352.50215 
  986000    306.49299   -22787.524    117.85406   -22905.378    1872.6073 
  986200     283.5641   -22805.643    109.03734   -22914.681   -731.40973 
  986400    289.33556   -22796.175    111.25661   -22907.431    11039.202 
  986600    316.88369   -22788.265    121.84954   -22910.114    -18218.37 
  986800    279.43413   -22807.189    107.44927   -22914.638   -838.85772 
  987000    294.99732    -22792.43    113.43369   -22905.864    3903.2646 
  987200    335.61193   -22789.213    129.05101   -22918.264   -280.84694 
  987400    303.74197   -22802.915    116.79623   -22919.711   -5421.7358 
  987600    344.15928   -22776.048    132.33767   -22908.386   -8194.1021 
  987800    313.68086   -22792.303    120.61798   -22912.921     1143.898 
  988000    306.31166   -22783.717    117.78434   -22901.501    8819.0926 
  988200    278.73608   -22809.856    107.18085   -22917.037   -4457.4697 
  988400    310.20836   -22796.873    119.28271   -22916.156   -7253.3369 
  988600    305.35131   -22792.235    117.41506    -22909.65    8396.2599 
  988800    302.60928   -22792.904    116.36068   -22909.265    5102.4947 
  989000    297.46062   -22771.541    114.38089   -22885.922   -12519.742 
  989200    287.46728    -22801.77    110.53821   -22912.309    5031.1183 
  989400    296.23794   -22787.041    113.91075   -22900.951    4407.4689 
  989600       288.13   -22806.433    110.79304   -22917.226   -9790.8395 
  989800    274.08651   -22803.868    105.39298   -22909.261   -8602.0507 
  990000    322.59153   -22786.337    124.04434   -22910.381   -2694.1818 
  990200    308.18465   -22794.227    118.50455   -22912.731   -8133.3928 
  990400    340.74391   -22761.811    131.02438   -22892.836   -6836.9308 
  990600    296.40806   -22784.466    113.97616   -22898.442   -2755.1348 
  990800    291.11735   -22796.334    111.94175   -22908.276    3157.3849 
  991000    256.16833   -22820.906    98.502997   -22919.409   -3415.0813 
  991200    292.45419   -22802.702     112.4558   -22915.158    2874.4614 
  991400     306.6103   -22780.522    117.89917   -22898.421   -7450.7144 
  991600    303.43547   -22783.983    116.67837   -22900.661   -6238.8478 
  991800    296.84193    -22807.94    114.14299   -22922.083    2036.2242 
  992000    290.85593   -22790.645    111.84123   -22902.486   -851.16598 
  992200    325.54425   -22777.076    125.17974   -22902.255    10299.545 
  992400    293.33245   -22791.604    112.79351   -22904.398   -6460.4208 
  992600    302.64072   -22805.326    116.37277   -22921.699   -2476.8527 
  992800    333.28524   -22764.695    128.15634   -22892.852   -7525.9515 
  993000    270.18532   -22786.315    103.89288   -22890.208   -2414.6558 
  993200    319.08929   -22801.469    122.69765   -22924.166   -1305.2184 
  993400      257.922   -22831.285    99.177325   -22930.462   -5125.8445 
  993600    300.23966   -22795.128     115.4495   -22910.578   -3121.2855 
  993800    292.81652   -22783.912    112.59512   -22896.507   -6112.2261 
  994000    320.93111   -22788.086    123.40587   -22911.492    1370.7814 
  994200    282.16742   -22806.383    108.50029   -22914.884    8345.0221 
  994400    295.47349   -22785.043    113.61679    -22898.66   -5716.7698 
  994600    299.07284   -22797.268    115.00083   -22912.269    4739.4338 
  994800    292.74706   -22795.336    112.56842   -22907.904    1022.7283 
  995000    283.34152   -22785.258    108.95176    -22894.21   -4734.8955 
  995200    293.31468   -22789.415    112.78668   -22902.202   -8819.4105 
  995400    280.23761   -22808.227    107.75823   -22915.985   -6891.0405 
  995600    264.51967    -22814.19    101.71429   -22915.904    2738.8767 
  995800    290.18472   -22788.205    111.58313   -22899.788   -7382.7953 
  996000    310.36921   -22788.727    119.34456   -22908.072   -5958.6182 
  996200    285.85176   -22805.141      109.917   -22915.058    6417.4102 
  996400    302.64995   -22780.701    116.37632   -22897.077   -3178.4543 
  996600    280.98495   -22809.592     108.0456   -22917.637    7350.4168 
  996800     272.7694   -22796.223    104.88651   -22901.109   -9124.6248 
  997000    325.14354   -22783.368    125.02565   -22908.394   -2394.7353 
  997200    301.51048   -22792.475    115.93816   -22908.413    4118.4142 
  997400    283.76417   -22789.923    109.11428   -22899.037    3753.6745 
  997600    314.10076   -22762.275    120.77944   -22883.054    994.22301 
  997800    312.15646   -22785.206    120.03181   -22905.238    1997.2753 
  998000    309.66711   -22802.346    119.07459    -22921.42    -300.6009 
  998200     309.0567   -22778.825    118.83987   -22897.665    2071.8359 
  998400    344.39002   -22783.126     132.4264   -22915.552   -5432.9757 
  998600    305.45763   -22804.152    117.45594   -22921.608   -6381.5445 
  998800    317.85982   -22787.169    122.22489   -22909.394    3808.1219 
  999000    331.40768   -22769.881    127.43437   -22897.315    807.00689 
  999200    313.50105   -22798.166    120.54883   -22918.715   -1347.3899 
  999400    276.04189   -22799.705    106.14487    -22905.85    94.360136 
  999600      269.125   -22791.061    103.48516   -22894.547   -7913.2464 
  999800    308.40487    -22783.49    118.58923   -22902.079    277.86093 
 1000000    343.72264   -22773.967    132.16977   -22906.137   -2096.2299 
Loop time of 7865.3 on 8 procs for 1000000 steps with 130 atoms

Performance: 2.746 ns/day, 8.739 hours/ns, 127.141 timesteps/s
99.4% CPU use with 8 MPI tasks x no OpenMP threads

MPI task timing breakdown:
Section |  min time  |  avg time  |  max time  |%varavg| %total
---------------------------------------------------------------
Pair    | 6155.7     | 6205.9     | 6326.9     |  67.5 | 78.90
Neigh   | 7.5917     | 7.7359     | 7.8455     |   2.7 |  0.10
Comm    | 160.43     | 280.17     | 329.85     | 313.3 |  3.56
Output  | 0.37994    | 0.41653    | 0.59848    |  10.7 |  0.01
Modify  | 1351.8     | 1353.1     | 1356.3     |   4.0 | 17.20
Other   |            | 18         |            |       |  0.23

Nlocal:    16.25 ave 18 max 14 min
Histogram: 1 0 1 0 0 2 0 3 0 1
Nghost:    547.375 ave 572 max 529 min
Histogram: 2 1 0 1 1 0 1 1 0 1
Neighs:    2221.12 ave 2439 max 1944 min
Histogram: 1 0 1 0 1 1 0 2 1 1

Total # of neighbors = 17769
Ave neighs/atom = 136.685
Neighbor list builds = 2887
Dangerous builds = 0

unfix 1
unfix output
undump 1

Please see the log.cite file for references relevant to this simulation

Total wall time: 2:11:15
