ITEM: TIMESTEP
0
ITEM: NUMBER OF ATOMS
130
ITEM: BOX BOUNDS pp pp pp
0.0000000000000000e+00 1.8762000000000000e+01
0.0000000000000000e+00 1.8762000000000000e+01
0.0000000000000000e+00 1.8760999999999999e+01
ITEM: ATOMS id type x y z 
1 1 3.12 3.119 3.121 
10 1 5.595 5.596 5.595 
17 1 4.011 4.011 4.012 
26 1 4.704 4.704 4.704 
33 1 0.414 3.456 3.456 
41 1 3.456 0.413 3.456 
49 1 3.456 3.456 0.414 
58 1 8.301 5.259 5.259 
66 1 5.259 8.301 5.259 
74 1 5.259 5.259 8.301 
81 1 1.612 3.354 3.354 
89 1 3.353 1.612 3.354 
97 1 3.354 3.354 1.613 
106 1 7.103 5.361 5.361 
114 1 5.362 7.103 5.361 
122 1 5.361 5.361 7.103 
4 1 3.12 3.12 14.976 
11 1 5.595 5.595 12.5 
20 1 4.011 4.011 14.084 
27 1 4.704 4.704 13.392 
36 1 0.414 3.456 14.639 
46 1 3.456 0.414 14.639 
56 1 3.456 3.456 17.682 
59 1 8.301 5.259 12.837 
69 1 5.259 8.301 12.837 
79 1 5.259 5.259 9.794 
84 1 1.612 3.354 14.742 
94 1 3.354 1.612 14.742 
104 1 3.354 3.354 16.483 
107 1 7.103 5.361 12.735 
117 1 5.361 7.103 12.735 
127 1 5.361 5.361 10.993 
6 1 3.12 14.976 3.12 
13 1 5.595 12.501 5.596 
22 1 4.011 14.085 4.011 
29 1 4.704 13.392 4.705 
38 1 0.414 14.64 3.457 
48 1 3.456 17.682 3.456 
52 1 3.456 14.64 0.414 
61 1 8.301 12.837 5.259 
71 1 5.259 9.794 5.259 
75 1 5.259 12.837 8.301 
86 1 1.612 14.742 3.354 
96 1 3.354 16.483 3.354 
100 1 3.354 14.742 1.612 
109 1 7.103 12.735 5.361 
119 1 5.361 10.993 5.361 
123 1 5.361 12.735 7.103 
7 1 3.12 14.976 14.976 
16 1 5.595 12.501 12.5 
23 1 4.011 14.085 14.084 
32 1 4.704 13.392 13.391 
39 1 0.414 14.64 14.639 
43 1 3.456 17.682 14.639 
53 1 3.456 14.64 17.682 
64 1 8.302 12.837 12.837 
68 1 5.259 9.795 12.837 
78 1 5.259 12.837 9.794 
87 1 1.612 14.742 14.741 
91 1 3.354 16.483 14.741 
101 1 3.353 14.742 16.483 
112 1 7.103 12.735 12.735 
116 1 5.361 10.993 12.735 
126 1 5.361 12.735 10.993 
8 1 14.976 3.12 3.12 
15 1 12.501 5.595 5.595 
24 1 14.084 4.011 4.011 
31 1 13.392 4.704 4.704 
40 1 17.682 3.456 3.456 
44 1 14.64 0.414 3.457 
54 1 14.64 3.456 0.414 
63 1 9.795 5.259 5.259 
67 1 12.837 8.301 5.259 
77 1 12.837 5.259 8.301 
88 1 16.483 3.354 3.354 
92 1 14.742 1.612 3.354 
102 1 14.742 3.354 1.612 
111 1 10.993 5.361 5.361 
115 1 12.735 7.103 5.361 
125 1 12.735 5.361 7.103 
5 1 14.976 3.119 14.975 
14 1 12.501 5.596 12.501 
21 1 14.085 4.011 14.084 
30 1 13.392 4.703 13.392 
37 1 17.682 3.456 14.639 
47 1 14.64 0.413 14.639 
51 1 14.64 3.456 17.682 
62 1 9.794 5.259 12.837 
72 1 12.837 8.301 12.837 
76 1 12.837 5.259 9.795 
85 1 16.483 3.354 14.741 
95 1 14.742 1.612 14.741 
99 1 14.742 3.354 16.483 
110 1 10.993 5.361 12.735 
120 1 12.734 7.103 12.735 
124 1 12.735 5.361 10.993 
3 1 14.976 14.976 3.12 
12 1 12.501 12.501 5.595 
19 1 14.085 14.085 4.011 
28 1 13.392 13.392 4.704 
35 1 17.682 14.64 3.457 
45 1 14.64 17.682 3.457 
55 1 14.64 14.64 0.414 
60 1 9.794 12.837 5.259 
70 1 12.837 9.794 5.259 
80 1 12.837 12.837 8.301 
83 1 16.484 14.742 3.354 
93 1 14.742 16.483 3.354 
103 1 14.742 14.742 1.613 
108 1 10.993 12.735 5.361 
118 1 12.734 10.993 5.361 
128 1 12.734 12.734 7.103 
2 1 14.976 14.976 14.975 
9 1 12.501 12.501 12.501 
18 1 14.084 14.085 14.084 
25 1 13.391 13.393 13.392 
34 1 17.682 14.64 14.639 
42 1 14.64 17.682 14.639 
50 1 14.64 14.64 17.682 
57 1 9.795 12.837 12.837 
65 1 12.837 9.794 12.837 
73 1 12.837 12.837 9.794 
82 1 16.483 14.742 14.741 
90 1 14.742 16.483 14.741 
98 1 14.742 14.742 16.483 
105 1 10.993 12.734 12.734 
113 1 12.735 10.993 12.735 
121 1 12.735 12.734 10.993 
129 2 10.993 12.734 14.084 
130 3 10.993 12.734 15.06 
ITEM: TIMESTEP
10
ITEM: NUMBER OF ATOMS
130
ITEM: BOX BOUNDS pp pp pp
0.0000000000000000e+00 1.8762000000000000e+01
0.0000000000000000e+00 1.8762000000000000e+01
0.0000000000000000e+00 1.8760999999999999e+01
ITEM: ATOMS id type x y z 
1 1 3.11039 3.1099 3.11135 
10 1 5.60464 5.60517 5.60446 
17 1 4.01146 4.01135 4.01207 
26 1 4.70336 4.70346 4.7037 
33 1 0.417382 3.45466 3.45457 
41 1 3.45447 0.416456 3.45472 
49 1 3.45459 3.45466 0.417876 
58 1 8.29741 5.26035 5.26038 
66 1 5.26062 8.29632 5.26032 
74 1 5.26035 5.26031 8.29715 
81 1 1.60785 3.35441 3.35472 
89 1 3.35374 1.60786 3.35467 
97 1 3.35466 3.35461 1.60875 
106 1 7.10734 5.36048 5.36031 
114 1 5.3611 7.10813 5.36041 
122 1 5.36035 5.36049 7.10693 
4 1 3.11038 3.11027 14.9853 
11 1 5.60467 5.60407 12.491 
20 1 4.01164 4.01163 14.084 
27 1 4.70338 4.7032 13.3921 
36 1 0.417512 3.45465 14.6406 
46 1 3.45456 0.418407 14.6406 
56 1 3.45456 3.45456 17.6774 
59 1 8.29572 5.26052 12.8356 
69 1 5.26044 8.29747 12.8358 
79 1 5.2603 5.26035 9.79787 
84 1 1.60767 3.35448 14.7412 
94 1 3.35454 1.60675 14.7411 
104 1 3.3547 3.3547 16.4882 
107 1 7.10823 5.36037 12.7357 
117 1 5.36043 7.10713 12.7356 
127 1 5.36032 5.36038 10.9888 
6 1 3.11045 14.9854 3.11023 
13 1 5.60458 12.4914 5.60465 
22 1 4.01197 14.084 4.01233 
29 1 4.70304 13.393 4.70359 
38 1 0.41807 14.6414 3.45546 
48 1 3.45454 17.6769 3.4545 
52 1 3.45454 14.6415 0.419154 
61 1 8.29654 12.8356 5.26043 
71 1 5.26038 9.79862 5.26043 
75 1 5.26046 12.8358 8.29665 
86 1 1.60741 14.7414 3.35471 
96 1 3.35477 16.4888 3.35475 
100 1 3.35462 14.7413 1.60675 
109 1 7.10765 12.7358 5.36057 
119 1 5.36015 10.988 5.36039 
123 1 5.36049 12.7357 7.10761 
7 1 3.11012 14.9856 14.9854 
16 1 5.6062 12.4905 12.4906 
23 1 4.01061 14.0848 14.0841 
32 1 4.70347 13.3916 13.3906 
39 1 0.418059 14.6415 14.6404 
43 1 3.45454 17.6782 14.6404 
53 1 3.45444 14.6413 17.678 
64 1 8.31754 12.8453 12.834 
68 1 5.26043 9.80358 12.8349 
78 1 5.26022 12.835 9.8012 
87 1 1.60742 14.7414 14.7405 
91 1 3.35461 16.4878 14.7404 
101 1 3.35378 14.7415 16.4871 
112 1 7.10486 12.7376 12.7347 
116 1 5.35888 10.9872 12.7339 
126 1 5.359 12.7339 10.9887 
8 1 14.9851 3.11018 3.11031 
15 1 12.4913 5.6045 5.60464 
24 1 14.0841 4.01147 4.01148 
31 1 13.3922 4.70344 4.70335 
40 1 17.6786 3.45463 3.45463 
44 1 14.6415 0.418872 3.45535 
54 1 14.6415 3.45456 0.418692 
63 1 9.79971 5.26047 5.26047 
67 1 12.8357 8.29712 5.26038 
77 1 12.8356 5.26041 8.29708 
88 1 16.4875 3.35466 3.35464 
92 1 14.7413 1.60637 3.35481 
102 1 14.7413 3.35458 1.6072 
111 1 10.9878 5.36031 5.36033 
115 1 12.7356 7.10706 5.36041 
125 1 12.7356 5.36037 7.10761 
5 1 14.9855 3.10966 14.9847 
14 1 12.4914 5.60605 12.4913 
21 1 14.0839 4.01139 14.0834 
30 1 13.393 4.70301 13.3926 
37 1 17.6778 3.45456 14.6404 
47 1 14.6414 0.417318 14.6404 
51 1 14.6415 3.45457 17.677 
62 1 9.7974 5.26023 12.8356 
72 1 12.8356 8.29737 12.8352 
76 1 12.8355 5.26043 9.79958 
85 1 16.4883 3.35456 14.7403 
95 1 14.7414 1.60701 14.7403 
99 1 14.7413 3.3546 16.4881 
110 1 10.9897 5.36048 12.7355 
120 1 12.7351 7.10912 12.7354 
124 1 12.7356 5.36055 10.9883 
3 1 14.9855 14.9853 3.11059 
12 1 12.4914 12.4914 5.60539 
19 1 14.0842 14.084 4.012 
28 1 13.3927 13.3928 4.70325 
35 1 17.6783 14.6413 3.4555 
45 1 14.6413 17.679 3.45554 
55 1 14.6414 14.6414 0.41783 
60 1 9.79748 12.8357 5.26029 
70 1 12.8354 9.79814 5.26026 
80 1 12.8357 12.8352 8.29922 
83 1 16.4885 14.7414 3.35479 
93 1 14.7414 16.4875 3.35488 
103 1 14.7413 14.7413 1.60833 
108 1 10.9896 12.7355 5.36046 
118 1 12.7348 10.9891 5.3605 
128 1 12.7348 12.7346 7.10742 
2 1 14.9847 14.9851 14.9843 
9 1 12.555 12.4773 12.4696 
18 1 14.0818 14.0835 14.0826 
25 1 13.3927 13.3901 13.3889 
34 1 17.6779 14.6415 14.6404 
42 1 14.6415 17.6768 14.6405 
50 1 14.6414 14.6414 17.6775 
57 1 9.73235 12.8032 12.8073 
65 1 12.8334 9.79361 12.8374 
73 1 12.8336 12.8371 9.79354 
82 1 16.4884 14.7413 14.7403 
90 1 14.7412 16.489 14.7402 
98 1 14.7412 14.7412 16.4879 
105 1 10.9613 12.7739 12.7337 
113 1 12.7386 10.9907 12.7345 
121 1 12.7381 12.7332 10.9905 
129 2 11.0049 12.7359 14.1128 
130 3 10.9958 12.7329 15.0887 
ITEM: TIMESTEP
20
ITEM: NUMBER OF ATOMS
130
ITEM: BOX BOUNDS pp pp pp
0.0000000000000000e+00 1.8762000000000000e+01
0.0000000000000000e+00 1.8762000000000000e+01
0.0000000000000000e+00 1.8760999999999999e+01
ITEM: ATOMS id type x y z 
1 1 3.09629 3.09762 3.09776 
10 1 5.61809 5.61714 5.61734 
17 1 4.01384 4.01283 4.01388 
26 1 4.70159 4.70106 4.70144 
33 1 0.414541 3.45196 3.45201 
41 1 3.45151 0.41386 3.45234 
49 1 3.45218 3.45222 0.413488 
58 1 8.30014 5.26289 5.26278 
66 1 5.26321 8.30216 5.2624 
74 1 5.26261 5.26272 8.30228 
81 1 1.6032 3.35299 3.35357 
89 1 3.35294 1.60381 3.35335 
97 1 3.35326 3.35307 1.60573 
106 1 7.11114 5.36182 5.36169 
114 1 5.36194 7.10956 5.36185 
122 1 5.36176 5.36183 7.10961 
4 1 3.09726 3.09728 14.9994 
11 1 5.61714 5.61674 12.478 
20 1 4.01322 4.01273 14.0818 
27 1 4.701 4.70049 13.3938 
36 1 0.413992 3.45216 14.6435 
46 1 3.45212 0.413268 14.6434 
56 1 3.45203 3.45206 17.6807 
59 1 8.3026 5.26302 12.8336 
69 1 5.26353 8.29761 12.8339 
79 1 5.26274 5.26298 9.7954 
84 1 1.60427 3.35309 14.7423 
94 1 3.35305 1.60439 14.7422 
104 1 3.35314 3.35323 16.4919 
107 1 7.10983 5.36156 12.7343 
117 1 5.36185 7.11169 12.7346 
127 1 5.36147 5.3616 10.9841 
6 1 3.09674 14.9992 3.09838 
13 1 5.61736 12.4775 5.61562 
22 1 4.0133 14.0821 4.01329 
29 1 4.70156 13.3941 4.70101 
38 1 0.415162 14.6438 3.45259 
48 1 3.45224 17.6814 3.45219 
52 1 3.45224 14.6437 0.412372 
61 1 8.30251 12.8338 5.26315 
71 1 5.26246 9.7947 5.26286 
75 1 5.26329 12.8342 8.29984 
86 1 1.60388 14.7429 3.35379 
96 1 3.35333 16.491 3.35322 
100 1 3.35332 14.7427 1.60546 
109 1 7.10963 12.7345 5.36183 
119 1 5.3614 10.9864 5.36185 
123 1 5.36206 12.7347 7.11032 
7 1 3.09583 14.9997 14.9986 
16 1 5.60678 12.4845 12.4838 
23 1 4.00998 14.0814 14.082 
32 1 4.69581 13.3937 13.3923 
39 1 0.414705 14.6441 14.6431 
43 1 3.45212 17.6827 14.6428 
53 1 3.45149 14.6438 17.6803 
64 1 8.26482 12.8033 12.8392 
68 1 5.25882 9.79401 12.8299 
78 1 5.25887 12.8297 9.79608 
87 1 1.60394 14.7431 14.7424 
91 1 3.35283 16.4905 14.7423 
101 1 3.35263 14.7434 16.4909 
112 1 7.06862 12.7425 12.7322 
116 1 5.35438 10.9888 12.7267 
126 1 5.35424 12.7265 10.9881 
8 1 14.9988 3.09699 3.09664 
15 1 12.4777 5.6173 5.61802 
24 1 14.0828 4.0134 4.01384 
31 1 13.3947 4.70146 4.70157 
40 1 17.6816 3.45218 3.452 
44 1 14.6437 0.412881 3.4527 
54 1 14.6439 3.45214 0.414586 
63 1 9.79413 5.26268 5.26273 
67 1 12.8333 8.30056 5.26294 
77 1 12.8331 5.26303 8.29938 
88 1 16.4915 3.35321 3.35318 
92 1 14.7428 1.60521 3.35376 
102 1 14.7427 3.35313 1.60458 
111 1 10.9865 5.36177 5.36176 
115 1 12.7345 7.1113 5.36179 
125 1 12.7344 5.36177 7.11183 
5 1 14.9991 3.09672 14.998 
14 1 12.4776 5.62473 12.479 
21 1 14.0821 4.01399 14.0814 
30 1 13.3946 4.70286 13.3947 
37 1 17.6809 3.45207 14.6429 
47 1 14.644 0.414186 14.6428 
51 1 14.6439 3.4522 17.6805 
62 1 9.79766 5.26256 12.8325 
72 1 12.8324 8.30832 12.8329 
76 1 12.8328 5.26252 9.7956 
85 1 16.492 3.35281 14.7417 
95 1 14.7428 1.60332 14.7418 
99 1 14.7427 3.35288 16.4905 
110 1 10.9853 5.36216 12.7332 
120 1 12.7351 7.11097 12.7323 
124 1 12.733 5.36225 10.9879 
3 1 14.9992 14.9981 3.09732 
12 1 12.478 12.478 5.62572 
19 1 14.0812 14.0824 4.01423 
28 1 13.3954 13.3947 4.70317 
35 1 17.6822 14.6437 3.45274 
45 1 14.6437 17.6828 3.45282 
55 1 14.6438 14.6438 0.414082 
60 1 9.79562 12.8326 5.26232 
70 1 12.832 9.79671 5.26236 
80 1 12.8324 12.8324 8.30844 
83 1 16.4908 14.7429 3.35372 
93 1 14.7429 16.4907 3.35378 
103 1 14.7427 14.7427 1.60387 
108 1 10.9871 12.733 5.36202 
118 1 12.7328 10.9863 5.3622 
128 1 12.7346 12.7322 7.10985 
2 1 14.9938 14.9952 14.9946 
9 1 12.6204 12.4378 12.4264 
18 1 14.0762 14.0829 14.0837 
25 1 13.4161 13.3821 13.3788 
34 1 17.6801 14.6443 14.6431 
42 1 14.6442 17.6792 14.643 
50 1 14.644 14.6441 17.6793 
57 1 9.72535 12.8361 12.6798 
65 1 12.8174 9.77754 12.8436 
73 1 12.8197 12.8426 9.76902 
82 1 16.4901 14.7425 14.7417 
90 1 14.7425 16.4896 14.7419 
98 1 14.7422 14.7426 16.4895 
105 1 10.9395 12.828 12.6889 
113 1 12.763 10.9766 12.7233 
121 1 12.7631 12.7215 10.9711 
129 2 11.0208 12.7504 14.2299 
130 3 11.0201 12.7203 15.2089 
ITEM: TIMESTEP
30
ITEM: NUMBER OF ATOMS
130
ITEM: BOX BOUNDS pp pp pp
0.0000000000000000e+00 1.8762000000000000e+01
0.0000000000000000e+00 1.8762000000000000e+01
0.0000000000000000e+00 1.8760999999999999e+01
ITEM: ATOMS id type x y z 
1 1 3.10567 3.10494 3.10589 
10 1 5.60917 5.60936 5.60918 
17 1 4.0128 4.01227 4.01309 
26 1 4.70239 4.70166 4.70227 
33 1 0.415003 3.45209 3.45229 
41 1 3.4517 0.415793 3.45228 
49 1 3.45233 3.45221 0.416385 
58 1 8.29889 5.26276 5.26264 
66 1 5.26318 8.29868 5.26266 
74 1 5.26262 5.26274 8.29881 
81 1 1.60622 3.35142 3.3518 
89 1 3.351 1.60646 3.35156 
97 1 3.35139 3.35136 1.60781 
106 1 7.10815 5.36384 5.36376 
114 1 5.36392 7.10875 5.36342 
122 1 5.36374 5.36359 7.10786 
4 1 3.1051 3.10487 14.9904 
11 1 5.60961 5.60811 12.4867 
20 1 4.01223 4.0118 14.083 
27 1 4.70184 4.70114 13.3926 
36 1 0.417789 3.45203 14.6434 
46 1 3.4521 0.416425 14.6432 
56 1 3.45204 3.45214 17.6776 
59 1 8.29802 5.26309 12.8335 
69 1 5.26271 8.29693 12.8339 
79 1 5.2626 5.26292 9.79747 
84 1 1.60562 3.35128 14.7443 
94 1 3.35104 1.60766 14.7444 
104 1 3.3513 3.35133 16.49 
107 1 7.10909 5.36355 12.7327 
117 1 5.36465 7.10598 12.733 
127 1 5.36313 5.36325 10.9865 
6 1 3.1055 14.9894 3.10524 
13 1 5.60957 12.4864 5.60815 
22 1 4.01244 14.0836 4.01242 
29 1 4.70229 13.3928 4.70164 
38 1 0.415732 14.6437 3.45269 
48 1 3.45222 17.6793 3.45226 
52 1 3.45207 14.6437 0.417082 
61 1 8.29875 12.8338 5.26327 
71 1 5.26245 9.79689 5.26288 
75 1 5.26272 12.8341 8.29849 
86 1 1.60613 14.7447 3.35188 
96 1 3.35174 16.4902 3.35182 
100 1 3.35132 14.7445 1.60672 
109 1 7.10934 12.733 5.36319 
119 1 5.36289 10.9867 5.36308 
123 1 5.36421 12.7335 7.10672 
7 1 3.104 14.9916 14.9906 
16 1 5.5839 12.4907 12.4874 
23 1 4.00217 14.0889 14.0891 
32 1 4.69085 13.3975 13.3965 
39 1 0.416095 14.6441 14.6432 
43 1 3.4523 17.6795 14.6429 
53 1 3.45181 14.6437 17.6789 
64 1 8.26866 12.8184 12.8196 
68 1 5.25785 9.79499 12.8291 
78 1 5.25721 12.8294 9.78871 
87 1 1.60251 14.7445 14.7437 
91 1 3.35133 16.4908 14.7436 
101 1 3.35106 14.7447 16.4896 
112 1 7.08052 12.7308 12.7439 
116 1 5.35333 10.9787 12.7288 
126 1 5.35348 12.7287 10.9818 
8 1 14.99 3.10485 3.10615 
15 1 12.486 5.60857 5.60867 
24 1 14.084 4.01253 4.01257 
31 1 13.3935 4.70264 4.70292 
40 1 17.6803 3.45233 3.45215 
44 1 14.6437 0.416048 3.45274 
54 1 14.6438 3.45227 0.415827 
63 1 9.79697 5.26268 5.26268 
67 1 12.8334 8.2998 5.26281 
77 1 12.8335 5.26282 8.30135 
88 1 16.4893 3.3516 3.35156 
92 1 14.7444 1.60631 3.35196 
102 1 14.7442 3.35155 1.60592 
111 1 10.9879 5.36351 5.36362 
115 1 12.7328 7.10863 5.36335 
125 1 12.7326 5.36333 7.10834 
5 1 14.9905 3.10503 14.9898 
14 1 12.4883 5.62081 12.4923 
21 1 14.0834 4.01263 14.0829 
30 1 13.3944 4.70355 13.3942 
37 1 17.6776 3.45201 14.643 
47 1 14.6441 0.416826 14.643 
51 1 14.6439 3.45204 17.6771 
62 1 9.80145 5.26226 12.8321 
72 1 12.8295 8.29215 12.8353 
76 1 12.8327 5.26176 9.79314 
85 1 16.4901 3.35091 14.7437 
95 1 14.7446 1.60391 14.7436 
99 1 14.7448 3.35101 16.489 
110 1 10.984 5.36449 12.7319 
120 1 12.7324 7.10283 12.7288 
124 1 12.7318 5.36405 10.9883 
3 1 14.9902 14.9906 3.10574 
12 1 12.4899 12.4895 5.62067 
19 1 14.0832 14.0837 4.01255 
28 1 13.3946 13.3944 4.70371 
35 1 17.6798 14.6438 3.4527 
45 1 14.6438 17.679 3.45273 
55 1 14.6439 14.6439 0.416302 
60 1 9.79637 12.8324 5.26161 
70 1 12.8318 9.79745 5.26172 
80 1 12.8306 12.8357 8.29062 
83 1 16.4899 14.7444 3.35212 
93 1 14.7445 16.4894 3.35211 
103 1 14.7443 14.7442 1.60483 
108 1 10.9873 12.7318 5.3641 
118 1 12.7315 10.9864 5.36411 
128 1 12.7315 12.7277 7.09427 
2 1 14.9872 14.9886 14.9889 
9 1 12.6048 12.4548 12.4388 
18 1 14.0784 14.0846 14.085 
25 1 13.4248 13.3787 13.3754 
34 1 17.677 14.6445 14.6433 
42 1 14.6444 17.676 14.6433 
50 1 14.6441 14.6442 17.6758 
57 1 9.73964 12.8231 12.677 
65 1 12.8214 9.78297 12.844 
73 1 12.8243 12.8433 9.77887 
82 1 16.4884 14.7441 14.7433 
90 1 14.7439 16.4897 14.7435 
98 1 14.7437 14.7442 16.4886 
105 1 10.9389 12.8426 12.572 
113 1 12.7635 10.9815 12.7206 
121 1 12.7659 12.718 10.9766 
129 2 11.0224 12.7496 14.3358 
130 3 11.0294 12.7158 15.2464 
ITEM: TIMESTEP
40
ITEM: NUMBER OF ATOMS
130
ITEM: BOX BOUNDS pp pp pp
0.0000000000000000e+00 1.8762000000000000e+01
0.0000000000000000e+00 1.8762000000000000e+01
0.0000000000000000e+00 1.8760999999999999e+01
ITEM: ATOMS id type x y z 
1 1 3.10607 3.10581 3.10669 
10 1 5.60861 5.60863 5.60857 
17 1 4.01325 4.01264 4.01343 
26 1 4.70185 4.70133 4.70183 
33 1 0.415748 3.45192 3.45209 
41 1 3.45156 0.415947 3.4521 
49 1 3.45209 3.452 0.416706 
58 1 8.29888 5.26297 5.26286 
66 1 5.26329 8.29873 5.26282 
74 1 5.26284 5.26293 8.2985 
81 1 1.60593 3.35128 3.35169 
89 1 3.35091 1.60614 3.35146 
97 1 3.35138 3.35126 1.60682 
106 1 7.10878 5.36388 5.3638 
114 1 5.36404 7.10856 5.36353 
122 1 5.36378 5.36368 7.1084 
4 1 3.10636 3.10601 14.9892 
11 1 5.60849 5.6072 12.4873 
20 1 4.01277 4.01229 14.0823 
27 1 4.7012 4.70054 13.3935 
36 1 0.415805 3.45197 14.6435 
46 1 3.45195 0.416662 14.6434 
56 1 3.45201 3.4521 17.6796 
59 1 8.29884 5.26308 12.8334 
69 1 5.26256 8.29531 12.8337 
79 1 5.26267 5.26302 9.79649 
84 1 1.60592 3.35113 14.7443 
94 1 3.35091 1.60681 14.7446 
104 1 3.35125 3.35117 16.4894 
107 1 7.10869 5.36365 12.7327 
117 1 5.36488 7.10502 12.733 
127 1 5.36322 5.36328 10.9867 
6 1 3.10602 14.9892 3.10622 
13 1 5.60855 12.4872 5.60783 
22 1 4.01313 14.0827 4.01293 
29 1 4.70158 13.3937 4.70095 
38 1 0.415938 14.6439 3.45257 
48 1 3.45208 17.6797 3.45216 
52 1 3.45198 14.6438 0.41675 
61 1 8.29851 12.8336 5.26317 
71 1 5.26258 9.79668 5.26297 
75 1 5.26251 12.8339 8.29507 
86 1 1.60608 14.7447 3.35169 
96 1 3.35161 16.4896 3.3516 
100 1 3.35115 14.7446 1.60704 
109 1 7.10859 12.7329 5.36348 
119 1 5.36299 10.9868 5.36322 
123 1 5.36475 12.7332 7.10453 
7 1 3.1033 14.9923 14.9916 
16 1 5.58484 12.4899 12.4865 
23 1 4.00414 14.0873 14.0871 
32 1 4.68925 13.3981 13.3974 
39 1 0.414037 14.644 14.6431 
43 1 3.45229 17.681 14.6429 
53 1 3.4518 14.6438 17.68 
64 1 8.26608 12.8173 12.8176 
68 1 5.25792 9.79358 12.8296 
78 1 5.25744 12.8296 9.79185 
87 1 1.60375 14.7447 14.7438 
91 1 3.35125 16.4908 14.7439 
101 1 3.35093 14.7449 16.4899 
112 1 7.07134 12.7276 12.7444 
116 1 5.35319 10.9835 12.7284 
126 1 5.35339 12.7285 10.9839 
8 1 14.9897 3.10578 3.10649 
15 1 12.4874 5.60785 5.60884 
24 1 14.0831 4.01332 4.01356 
31 1 13.3944 4.70171 4.70189 
40 1 17.6795 3.45213 3.45196 
44 1 14.6439 0.415886 3.45255 
54 1 14.644 3.45207 0.41592 
63 1 9.79697 5.26291 5.26289 
67 1 12.8332 8.29846 5.26289 
77 1 12.8333 5.26293 8.298 
88 1 16.4894 3.35139 3.35143 
92 1 14.7445 1.60605 3.35185 
102 1 14.7443 3.35137 1.60601 
111 1 10.9871 5.36364 5.36374 
115 1 12.7326 7.10851 5.3636 
125 1 12.7322 5.36369 7.10771 
5 1 14.9896 3.10564 14.9888 
14 1 12.4902 5.61524 12.4917 
21 1 14.0826 4.01341 14.0821 
30 1 13.3953 4.7032 13.3956 
37 1 17.6795 3.45192 14.643 
47 1 14.6442 0.415095 14.6431 
51 1 14.644 3.45197 17.6785 
62 1 9.79791 5.26203 12.8321 
72 1 12.8291 8.29779 12.8357 
76 1 12.8323 5.26194 9.79682 
85 1 16.4895 3.35082 14.7438 
95 1 14.7448 1.60507 14.7438 
99 1 14.7449 3.3509 16.4884 
110 1 10.986 5.36498 12.7323 
120 1 12.7322 7.10364 12.7295 
124 1 12.7321 5.36463 10.9866 
3 1 14.9898 14.9899 3.10614 
12 1 12.4895 12.4896 5.61284 
19 1 14.083 14.0832 4.01296 
28 1 13.3956 13.3955 4.70301 
35 1 17.6797 14.6439 3.45256 
45 1 14.6439 17.6795 3.4526 
55 1 14.644 14.644 0.415549 
60 1 9.79717 12.8323 5.26176 
70 1 12.8317 9.79686 5.26174 
80 1 12.8298 12.836 8.29445 
83 1 16.4896 14.7446 3.35195 
93 1 14.7447 16.4894 3.35193 
103 1 14.7445 14.7444 1.60557 
108 1 10.9868 12.732 5.36448 
118 1 12.7318 10.9864 5.36443 
128 1 12.7319 12.729 7.10083 
2 1 14.9864 14.9878 14.9878 
9 1 12.5879 12.4646 12.4413 
18 1 14.0785 14.0828 14.0837 
25 1 13.425 13.3782 13.374 
34 1 17.6777 14.6445 14.6433 
42 1 14.6444 17.6788 14.6432 
50 1 14.6441 14.6442 17.6784 
57 1 9.75689 12.8344 12.6745 
65 1 12.8235 9.78191 12.8425 
73 1 12.8271 12.8414 9.7762 
82 1 16.4873 14.7442 14.7434 
90 1 14.7439 16.4886 14.7437 
98 1 14.7437 14.7444 16.4879 
105 1 10.9474 12.8307 12.5218 
113 1 12.7621 10.9794 12.7214 
121 1 12.7663 12.7187 10.9731 
129 2 11.0231 12.7482 14.3704 
130 3 11.0311 12.7145 15.2685 
ITEM: TIMESTEP
50
ITEM: NUMBER OF ATOMS
130
ITEM: BOX BOUNDS pp pp pp
0.0000000000000000e+00 1.8762000000000000e+01
0.0000000000000000e+00 1.8762000000000000e+01
0.0000000000000000e+00 1.8760999999999999e+01
ITEM: ATOMS id type x y z 
1 1 3.10673 3.10664 3.10737 
10 1 5.60815 5.60783 5.60782 
17 1 4.01307 4.01274 4.0134 
26 1 4.70177 4.70145 4.70182 
33 1 0.41596 3.45149 3.45163 
41 1 3.45118 0.416072 3.45164 
49 1 3.45164 3.45159 0.416969 
58 1 8.29866 5.26344 5.26334 
66 1 5.26366 8.29819 5.26327 
74 1 5.2633 5.26336 8.2982 
81 1 1.60605 3.35096 3.35142 
89 1 3.35061 1.60619 3.35121 
97 1 3.35109 3.35092 1.60707 
106 1 7.1085 5.36411 5.36403 
114 1 5.36432 7.10803 5.36382 
122 1 5.36402 5.36397 7.10802 
4 1 3.10634 3.10677 14.9889 
11 1 5.60751 5.60544 12.4877 
20 1 4.01264 4.01228 14.0825 
27 1 4.70148 4.7004 13.3936 
36 1 0.41585 3.45149 14.6439 
46 1 3.45163 0.417204 14.6437 
56 1 3.4516 3.45161 17.6794 
59 1 8.29821 5.26323 12.8329 
69 1 5.26267 8.29529 12.833 
79 1 5.26299 5.26341 9.79621 
84 1 1.60597 3.3509 14.7445 
94 1 3.35064 1.60748 14.7448 
104 1 3.35103 3.35095 16.4893 
107 1 7.10844 5.36377 12.7326 
117 1 5.36499 7.10511 12.7329 
127 1 5.36334 5.36334 10.9866 
6 1 3.10667 14.9892 3.10721 
13 1 5.60766 12.4878 5.60575 
22 1 4.01263 14.0826 4.01231 
29 1 4.70146 13.3943 4.70102 
38 1 0.41599 14.6444 3.45213 
48 1 3.45163 17.6796 3.45173 
52 1 3.45161 14.6441 0.417342 
61 1 8.2984 12.8331 5.26318 
71 1 5.26294 9.79643 5.26329 
75 1 5.26247 12.8332 8.29541 
86 1 1.60607 14.7449 3.35138 
96 1 3.35131 16.4895 3.35131 
100 1 3.3508 14.7449 1.60764 
109 1 7.10845 12.7329 5.36371 
119 1 5.3631 10.9866 5.36333 
123 1 5.3649 12.7332 7.1049 
7 1 3.10143 14.9942 14.9934 
16 1 5.57841 12.4858 12.4869 
23 1 4.00408 14.0874 14.087 
32 1 4.68864 13.3968 13.396 
39 1 0.41278 14.6442 14.6432 
43 1 3.45216 17.6819 14.643 
53 1 3.45176 14.6439 17.6812 
64 1 8.27525 12.8287 12.8108 
68 1 5.25863 9.79328 12.8298 
78 1 5.2582 12.83 9.79029 
87 1 1.60295 14.745 14.7442 
91 1 3.35094 16.4916 14.7442 
101 1 3.35057 14.7452 16.4909 
112 1 7.08508 12.7243 12.748 
116 1 5.35188 10.9836 12.7288 
126 1 5.35216 12.7297 10.9815 
8 1 14.989 3.10679 3.10687 
15 1 12.4879 5.60763 5.60704 
24 1 14.0831 4.01281 4.01311 
31 1 13.3946 4.7014 4.70187 
40 1 17.6793 3.45163 3.45153 
44 1 14.6444 0.416009 3.45209 
54 1 14.6444 3.45155 0.416184 
63 1 9.79699 5.26336 5.26333 
67 1 12.8326 8.29765 5.263 
77 1 12.8327 5.26311 8.29802 
88 1 16.4892 3.35103 3.3511 
92 1 14.7449 1.60609 3.35153 
102 1 14.7447 3.35105 1.60628 
111 1 10.9872 5.3637 5.36399 
115 1 12.7324 7.10755 5.36403 
125 1 12.7322 5.3639 7.10821 
5 1 14.9891 3.10574 14.988 
14 1 12.489 5.60899 12.4882 
21 1 14.0829 4.01319 14.0826 
30 1 13.3963 4.7031 13.396 
37 1 17.6794 3.45146 14.6435 
47 1 14.6447 0.415368 14.6435 
51 1 14.6445 3.45151 17.6786 
62 1 9.7984 5.26274 12.8319 
72 1 12.8276 8.29772 12.836 
76 1 12.8318 5.26271 9.79819 
85 1 16.4893 3.35057 14.7441 
95 1 14.745 1.60549 14.744 
99 1 14.7451 3.35064 16.4886 
110 1 10.9881 5.36586 12.732 
120 1 12.7309 7.1056 12.7311 
124 1 12.732 5.36501 10.9876 
3 1 14.9894 14.9893 3.10609 
12 1 12.4896 12.4883 5.60851 
19 1 14.0841 14.084 4.01263 
28 1 13.3959 13.3962 4.70219 
35 1 17.6795 14.6444 3.45218 
45 1 14.6444 17.6796 3.4522 
55 1 14.6445 14.6444 0.415817 
60 1 9.79715 12.8322 5.26252 
70 1 12.8317 9.79687 5.26245 
80 1 12.8286 12.8367 8.29248 
83 1 16.4894 14.7449 3.35155 
93 1 14.7449 16.4895 3.35155 
103 1 14.7448 14.7448 1.60602 
108 1 10.9868 12.7321 5.36438 
118 1 12.7318 10.9867 5.36433 
128 1 12.7305 12.7304 7.0997 
2 1 14.985 14.9879 14.9875 
9 1 12.5444 12.4796 12.4436 
18 1 14.0786 14.0769 14.0795 
25 1 13.4225 13.379 13.3703 
34 1 17.6767 14.6448 14.6437 
42 1 14.6447 17.6787 14.6437 
50 1 14.6444 14.6446 17.6784 
57 1 9.77284 12.8259 12.6573 
65 1 12.8284 9.78887 12.8386 
73 1 12.8348 12.8367 9.77835 
82 1 16.4865 14.7444 14.7437 
90 1 14.744 16.4884 14.7439 
98 1 14.7437 14.7445 16.4881 
105 1 10.9629 12.8152 12.5075 
113 1 12.7567 10.9845 12.7211 
121 1 12.7661 12.72 10.9764 
129 2 11.0247 12.7484 14.3693 
130 3 11.0341 12.7124 15.3151 
ITEM: TIMESTEP
60
ITEM: NUMBER OF ATOMS
130
ITEM: BOX BOUNDS pp pp pp
0.0000000000000000e+00 1.8762000000000000e+01
0.0000000000000000e+00 1.8762000000000000e+01
0.0000000000000000e+00 1.8760999999999999e+01
ITEM: ATOMS id type x y z 
1 1 3.10654 3.10648 3.10738 
10 1 5.60811 5.60755 5.60765 
17 1 4.01301 4.01292 4.01306 
26 1 4.70155 4.70142 4.70178 
33 1 0.415767 3.45057 3.45073 
41 1 3.45034 0.416169 3.45076 
49 1 3.45076 3.45066 0.417086 
58 1 8.29891 5.26436 5.26426 
66 1 5.26443 8.2981 5.26415 
74 1 5.26412 5.26429 8.29823 
81 1 1.60607 3.35056 3.351 
89 1 3.35018 1.6065 3.35082 
97 1 3.35061 3.35051 1.60735 
106 1 7.10864 5.36432 5.36424 
114 1 5.36465 7.1078 5.36412 
122 1 5.36436 5.36421 7.10796 
4 1 3.10606 3.10731 14.9892 
11 1 5.60849 5.60583 12.4872 
20 1 4.01275 4.01242 14.0826 
27 1 4.70171 4.70036 13.3938 
36 1 0.415431 3.45062 14.6446 
46 1 3.45108 0.418074 14.6443 
56 1 3.45085 3.45068 17.6799 
59 1 8.29858 5.26418 12.8321 
69 1 5.26396 8.29678 12.832 
79 1 5.26381 5.26428 9.79639 
84 1 1.60573 3.35066 14.7448 
94 1 3.35019 1.60835 14.7451 
104 1 3.35065 3.35077 16.4896 
107 1 7.10841 5.36348 12.732 
117 1 5.36475 7.10632 12.7324 
127 1 5.36369 5.36347 10.9867 
6 1 3.10608 14.9894 3.10747 
13 1 5.60763 12.4877 5.60468 
22 1 4.01276 14.0835 4.01275 
29 1 4.70121 13.3935 4.70024 
38 1 0.415579 14.6451 3.45125 
48 1 3.45086 17.6802 3.45087 
52 1 3.45102 14.6447 0.418149 
61 1 8.29847 12.8325 5.26392 
71 1 5.26368 9.79587 5.2641 
75 1 5.26341 12.8324 8.29605 
86 1 1.60591 14.7452 3.35114 
96 1 3.35093 16.4899 3.35104 
100 1 3.35039 14.7453 1.60847 
109 1 7.10832 12.7324 5.36348 
119 1 5.36336 10.9861 5.36324 
123 1 5.36458 12.7328 7.10607 
7 1 3.10155 14.9938 14.993 
16 1 5.59221 12.4845 12.489 
23 1 4.00492 14.0861 14.0849 
32 1 4.68802 13.3942 13.3943 
39 1 0.411244 14.6449 14.6439 
43 1 3.45174 17.6821 14.6435 
53 1 3.45138 14.6444 17.6814 
64 1 8.28306 12.8325 12.7981 
68 1 5.25909 9.7931 12.8289 
78 1 5.2593 12.8296 9.79331 
87 1 1.60113 14.746 14.7452 
91 1 3.34996 16.4921 14.7452 
101 1 3.34961 14.7461 16.4914 
112 1 7.09038 12.7266 12.7448 
116 1 5.35122 10.984 12.7283 
126 1 5.35104 12.7285 10.9836 
8 1 14.9891 3.10658 3.10677 
15 1 12.4879 5.60734 5.60834 
24 1 14.0828 4.01276 4.01299 
31 1 13.3943 4.70128 4.70166 
40 1 17.6796 3.45066 3.45065 
44 1 14.6453 0.416118 3.45125 
54 1 14.6453 3.45064 0.416106 
63 1 9.79712 5.26423 5.26432 
67 1 12.8318 8.29703 5.26387 
77 1 12.8316 5.26402 8.2978 
88 1 16.4894 3.35065 3.35062 
92 1 14.7453 1.60638 3.35102 
102 1 14.7452 3.35064 1.60635 
111 1 10.9876 5.36418 5.36412 
115 1 12.7317 7.10648 5.36411 
125 1 12.7317 5.36413 7.10757 
5 1 14.9894 3.10553 14.9887 
14 1 12.4888 5.61012 12.4882 
21 1 14.0838 4.01355 14.083 
30 1 13.3954 4.70255 13.3952 
37 1 17.6793 3.45058 14.6445 
47 1 14.6457 0.414498 14.6445 
51 1 14.6455 3.45058 17.6789 
62 1 9.79826 5.26466 12.8316 
72 1 12.8267 8.29801 12.8349 
76 1 12.8314 5.26418 9.79743 
85 1 16.4891 3.35006 14.7445 
95 1 14.7454 1.60472 14.7443 
99 1 14.7455 3.35014 16.4887 
110 1 10.9884 5.36491 12.7309 
120 1 12.7282 7.10679 12.7332 
124 1 12.7313 5.36465 10.9877 
3 1 14.9901 14.99 3.10553 
12 1 12.4891 12.4882 5.60627 
19 1 14.0845 14.0852 4.01266 
28 1 13.3964 13.3957 4.70075 
35 1 17.6798 14.6452 3.45145 
45 1 14.6453 17.6801 3.45139 
55 1 14.6453 14.6453 0.414795 
60 1 9.79649 12.832 5.26381 
70 1 12.8315 9.79516 5.26367 
80 1 12.8293 12.8366 8.28522 
83 1 16.4895 14.7453 3.3509 
93 1 14.7454 16.4898 3.35093 
103 1 14.7453 14.7452 1.60506 
108 1 10.9869 12.7316 5.36347 
118 1 12.7317 10.9859 5.36347 
128 1 12.7265 12.7331 7.09283 
2 1 14.9826 14.9853 14.9862 
9 1 12.5228 12.495 12.4485 
18 1 14.0836 14.0728 14.0733 
25 1 13.4128 13.3847 13.3697 
34 1 17.6744 14.6456 14.6446 
42 1 14.6458 17.6778 14.6448 
50 1 14.6453 14.6455 17.6777 
57 1 9.77041 12.8196 12.6327 
65 1 12.8338 9.79326 12.8329 
73 1 12.848 12.8291 9.77847 
82 1 16.4841 14.7451 14.7444 
90 1 14.744 16.4875 14.7444 
98 1 14.7437 14.745 16.4872 
105 1 10.9675 12.7937 12.5166 
113 1 12.7436 10.9862 12.7227 
121 1 12.7651 12.7269 10.9761 
129 2 11.0285 12.7462 14.4001 
130 3 11.038 12.7122 15.3358 
ITEM: TIMESTEP
66
ITEM: NUMBER OF ATOMS
130
ITEM: BOX BOUNDS pp pp pp
0.0000000000000000e+00 1.8762000000000000e+01
0.0000000000000000e+00 1.8762000000000000e+01
0.0000000000000000e+00 1.8760999999999999e+01
ITEM: ATOMS id type x y z 
1 1 3.10655 3.10659 3.10739 
10 1 5.60808 5.60755 5.60765 
17 1 4.01293 4.01288 4.0132 
26 1 4.70167 4.70144 4.70166 
33 1 0.415769 3.45047 3.45063 
41 1 3.45025 0.416179 3.45067 
49 1 3.45067 3.45057 0.41704 
58 1 8.29895 5.26446 5.26437 
66 1 5.26451 8.29798 5.26424 
74 1 5.26421 5.2644 8.29827 
81 1 1.60607 3.35051 3.35095 
89 1 3.35014 1.6065 3.35078 
97 1 3.35057 3.35046 1.60732 
106 1 7.10867 5.36435 5.36428 
114 1 5.36469 7.10768 5.36417 
122 1 5.3644 5.36425 7.10795 
4 1 3.1061 3.10744 14.9892 
11 1 5.60827 5.606 12.4873 
20 1 4.0128 4.01251 14.0826 
27 1 4.70174 4.70047 13.3937 
36 1 0.415364 3.45052 14.6447 
46 1 3.451 0.417953 14.6444 
56 1 3.45076 3.45058 17.68 
59 1 8.29899 5.26431 12.832 
69 1 5.26402 8.29611 12.8319 
79 1 5.2639 5.26436 9.79633 
84 1 1.60566 3.35064 14.7449 
94 1 3.35017 1.6082 14.7452 
104 1 3.35061 3.35074 16.4897 
107 1 7.10876 5.36347 12.7319 
117 1 5.3649 7.10583 12.7324 
127 1 5.36379 5.36349 10.9868 
6 1 3.10613 14.9895 3.10761 
13 1 5.60776 12.4874 5.60517 
22 1 4.01268 14.0833 4.01274 
29 1 4.70133 13.3937 4.70026 
38 1 0.41558 14.6452 3.45117 
48 1 3.45078 17.6802 3.45077 
52 1 3.45095 14.6448 0.41808 
61 1 8.29823 12.8324 5.26403 
71 1 5.26377 9.79605 5.2642 
75 1 5.26354 12.8324 8.29544 
86 1 1.60591 14.7452 3.35111 
96 1 3.35087 16.4899 3.35101 
100 1 3.35035 14.7453 1.60838 
109 1 7.10796 12.7323 5.3635 
119 1 5.36348 10.9865 5.36328 
123 1 5.3647 12.7327 7.10539 