LAMMPS (3 Mar 2020)
Reading data file ...
  orthogonal box = (0 0 0) to (7.097 7.097 24.588)
  1 by 2 by 4 MPI processor grid
  reading atoms ...
  35 atoms
  read_data CPU = 0.00308464 secs
WARNING: Using 'neigh_modify every 1 delay 0 check yes' setting during minimization (../min.cpp:190)
WARNING: Total cutoff < 2*bond cutoff. May need to use an increased neighbor list skin. (../pair_reaxc.cpp:413)
Neighbor list info ...
  update every 1 steps, delay 0 steps, check yes
  max neighbors/atom: 2000, page size: 100000
  master list distance cutoff = 9.5
  ghost atom cutoff = 9.5
  binsize = 4.75, bins = 2 2 6
  2 neighbor lists, perpetual/occasional/extra = 2 0 0
  (1) pair reax/c, perpetual
      attributes: half, newton off, ghost
      pair build: half/bin/newtoff/ghost
      stencil: half/ghost/bin/3d/newtoff
      bin: standard
  (2) fix qeq/reax, perpetual, copy from (1)
      attributes: half, newton off, ghost
      pair build: copy
      stencil: none
      bin: none
Setting up cg style minimization ...
  Unit style    : real
  Current step  : 0
Per MPI rank memory allocation (min/avg/max) = 14.66 | 15.19 | 15.73 Mbytes
Step Temp E_pair E_mol TotEng Press 
       0            0   -6007.0967            0   -6007.0967    6054.0952 
     124            0   -6062.8992            0   -6062.8992   -1011.9869 
Loop time of 1.36268 on 8 procs for 124 steps with 35 atoms

99.4% CPU use with 8 MPI tasks x no OpenMP threads

Minimization stats:
  Stopping criterion = energy tolerance
  Energy initial, next-to-last, final = 
        -6007.09668818     -6062.89914907     -6062.89915146
  Force two-norm initial, final = 393.155 112.425
  Force max component initial, final = 260.748 59.694
  Final line search alpha, max atom move = 0.00124353 0.0742312
  Iterations, force evaluations = 124 797

MPI task timing breakdown:
Section |  min time  |  avg time  |  max time  |%varavg| %total
---------------------------------------------------------------
Pair    | 0.88288    | 0.91305    | 0.95117    |   2.4 | 67.00
Neigh   | 0          | 0          | 0          |   0.0 |  0.00
Comm    | 0.010986   | 0.049063   | 0.079512   |  10.5 |  3.60
Output  | 0.00018464 | 0.00022575 | 0.0003173  |   0.0 |  0.02
Modify  | 0.39602    | 0.39616    | 0.39631    |   0.0 | 29.07
Other   |            | 0.004176   |            |       |  0.31

Nlocal:    4.375 ave 11 max 0 min
Histogram: 4 0 0 0 0 0 0 3 0 1
Nghost:    418.625 ave 425 max 410 min
Histogram: 1 0 1 0 2 0 0 2 0 2
Neighs:    451.875 ave 1197 max 0 min
Histogram: 4 0 0 0 0 0 2 1 0 1

Total # of neighbors = 3615
Ave neighs/atom = 103.286
Neighbor list builds = 0
Dangerous builds = 0
WARNING: Using 'neigh_modify every 1 delay 0 check yes' setting during minimization (../min.cpp:190)
WARNING: Total cutoff < 2*bond cutoff. May need to use an increased neighbor list skin. (../pair_reaxc.cpp:413)
Setting up cg style minimization ...
  Unit style    : real
  Current step  : 124
Per MPI rank memory allocation (min/avg/max) = 14.66 | 15.19 | 15.73 Mbytes
Step Temp E_pair E_mol TotEng Press 
     124            0   -6062.8992            0   -6062.8992   -1011.9869 
     162            0   -6066.1173            0   -6066.1173    1438.8007 
Loop time of 0.490275 on 8 procs for 38 steps with 35 atoms

99.4% CPU use with 8 MPI tasks x no OpenMP threads

Minimization stats:
  Stopping criterion = energy tolerance
  Energy initial, next-to-last, final = 
        -6062.89915146     -6066.11725806     -6066.11731539
  Force two-norm initial, final = 112.425 38.1224
  Force max component initial, final = 59.694 16.3933
  Final line search alpha, max atom move = 0.000190309 0.00311979
  Iterations, force evaluations = 38 287

MPI task timing breakdown:
Section |  min time  |  avg time  |  max time  |%varavg| %total
---------------------------------------------------------------
Pair    | 0.31294    | 0.3235     | 0.33654    |   1.5 | 65.98
Neigh   | 0          | 0          | 0          |   0.0 |  0.00
Comm    | 0.0037728  | 0.016677   | 0.027217   |   6.5 |  3.40
Output  | 6.2607e-05 | 9.6921e-05 | 0.00015422 |   0.0 |  0.02
Modify  | 0.14853    | 0.14855    | 0.14856    |   0.0 | 30.30
Other   |            | 0.001453   |            |       |  0.30

Nlocal:    4.375 ave 10 max 0 min
Histogram: 3 1 0 0 0 0 0 0 3 1
Nghost:    418.625 ave 425 max 411 min
Histogram: 1 1 0 0 2 0 0 2 0 2
Neighs:    449.625 ave 1077 max 0 min
Histogram: 4 0 0 0 0 0 0 3 0 1

Total # of neighbors = 3597
Ave neighs/atom = 102.771
Neighbor list builds = 0
Dangerous builds = 0
WARNING: Using 'neigh_modify every 1 delay 0 check yes' setting during minimization (../min.cpp:190)
WARNING: Total cutoff < 2*bond cutoff. May need to use an increased neighbor list skin. (../pair_reaxc.cpp:413)
Setting up cg style minimization ...
  Unit style    : real
  Current step  : 162
WARNING: Energy due to 3 extra global DOFs will be included in minimizer energies
Per MPI rank memory allocation (min/avg/max) = 14.66 | 15.19 | 15.73 Mbytes
Step Temp E_pair E_mol TotEng Press Volume 
     162            0   -6066.1173            0   -6066.1173    1438.8007    1238.4339 
    1972            0    -6077.038            0    -6077.038     136.2223     1208.789 
Loop time of 3.84676 on 8 procs for 1810 steps with 35 atoms

99.5% CPU use with 8 MPI tasks x no OpenMP threads

Minimization stats:
  Stopping criterion = energy tolerance
  Energy initial, next-to-last, final = 
        -6066.11731539     -6077.03789683     -6077.03795328
  Force two-norm initial, final = 170.923 14.858
  Force max component initial, final = 122.992 8.91754
  Final line search alpha, max atom move = 3.19472e-05 0.000284891
  Iterations, force evaluations = 1810 2520

MPI task timing breakdown:
Section |  min time  |  avg time  |  max time  |%varavg| %total
---------------------------------------------------------------
Pair    | 2.6932     | 2.8064     | 2.9295     |   4.8 | 72.95
Neigh   | 0          | 0          | 0          |   0.0 |  0.00
Comm    | 0.033151   | 0.15506    | 0.26803    |  20.5 |  4.03
Output  | 0.002291   | 0.0027455  | 0.0036201  |   0.7 |  0.07
Modify  | 0.84408    | 0.84417    | 0.84435    |   0.0 | 21.94
Other   |            | 0.03844    |            |       |  1.00

Nlocal:    4.375 ave 10 max 0 min
Histogram: 3 1 0 0 0 0 0 0 3 1
Nghost:    418.625 ave 425 max 411 min
Histogram: 1 1 0 0 2 0 0 2 0 2
Neighs:    450.125 ave 1081 max 0 min
Histogram: 4 0 0 0 0 0 0 3 0 1

Total # of neighbors = 3601
Ave neighs/atom = 102.886
Neighbor list builds = 0
Dangerous builds = 0
WARNING: Using 'neigh_modify every 1 delay 0 check yes' setting during minimization (../min.cpp:190)
WARNING: Total cutoff < 2*bond cutoff. May need to use an increased neighbor list skin. (../pair_reaxc.cpp:413)
Setting up cg style minimization ...
  Unit style    : real
  Current step  : 1972
Per MPI rank memory allocation (min/avg/max) = 14.66 | 15.19 | 15.73 Mbytes
Step Temp E_pair E_mol TotEng Press 
    1972            0    -6077.038            0    -6077.038     136.2223 
    2056            0   -6077.6084            0   -6077.6084   -1333.7249 
Loop time of 1.36841 on 8 procs for 84 steps with 35 atoms

99.4% CPU use with 8 MPI tasks x no OpenMP threads

Minimization stats:
  Stopping criterion = energy tolerance
  Energy initial, next-to-last, final = 
        -6077.03795328       -6077.608403     -6077.60844458
  Force two-norm initial, final = 13.7935 5.89332
  Force max component initial, final = 8.91754 2.92772
  Final line search alpha, max atom move = 1.71571e-05 5.02312e-05
  Iterations, force evaluations = 84 835

MPI task timing breakdown:
Section |  min time  |  avg time  |  max time  |%varavg| %total
---------------------------------------------------------------
Pair    | 0.90599    | 0.9482     | 0.98891    |   2.9 | 69.29
Neigh   | 0          | 0          | 0          |   0.0 |  0.00
Comm    | 0.012589   | 0.052868   | 0.095042   |  12.1 |  3.86
Output  | 0.00011417 | 0.00013857 | 0.00019079 |   0.0 |  0.01
Modify  | 0.36319    | 0.36322    | 0.36328    |   0.0 | 26.54
Other   |            | 0.003979   |            |       |  0.29

Nlocal:    4.375 ave 9 max 0 min
Histogram: 3 0 1 0 0 0 0 0 3 1
Nghost:    425.625 ave 432 max 419 min
Histogram: 2 0 0 2 0 0 2 0 1 1
Neighs:    460.625 ave 1012 max 0 min
Histogram: 3 0 1 0 0 0 0 1 2 1

Total # of neighbors = 3685
Ave neighs/atom = 105.286
Neighbor list builds = 0
Dangerous builds = 0
WARNING: Using 'neigh_modify every 1 delay 0 check yes' setting during minimization (../min.cpp:190)
WARNING: Total cutoff < 2*bond cutoff. May need to use an increased neighbor list skin. (../pair_reaxc.cpp:413)
Setting up cg style minimization ...
  Unit style    : real
  Current step  : 2056
WARNING: Energy due to 3 extra global DOFs will be included in minimizer energies
Per MPI rank memory allocation (min/avg/max) = 14.66 | 15.19 | 15.73 Mbytes
Step Temp E_pair E_mol TotEng Press Volume 
    2056            0   -6077.6084            0   -6077.6084   -1333.7249     1208.789 
    2061            0   -6077.6145            0   -6077.6145   -37.659533    1208.2124 
Loop time of 0.0170095 on 8 procs for 5 steps with 35 atoms

99.3% CPU use with 8 MPI tasks x no OpenMP threads

Minimization stats:
  Stopping criterion = energy tolerance
  Energy initial, next-to-last, final = 
        -6077.60844458     -6077.61446129     -6077.61448429
  Force two-norm initial, final = 44.4689 9.90214
  Force max component initial, final = 37.2667 3.7768
  Final line search alpha, max atom move = 1.71808e-05 6.48884e-05
  Iterations, force evaluations = 5 10

MPI task timing breakdown:
Section |  min time  |  avg time  |  max time  |%varavg| %total
---------------------------------------------------------------
Pair    | 0.012013   | 0.012549   | 0.013082   |   0.3 | 73.78
Neigh   | 0          | 0          | 0          |   0.0 |  0.00
Comm    | 0.00013928 | 0.00066703 | 0.0012039  |   0.0 |  3.92
Output  | 1.3475e-05 | 1.6413e-05 | 2.0909e-05 |   0.0 |  0.10
Modify  | 0.0035886  | 0.0035893  | 0.0035904  |   0.0 | 21.10
Other   |            | 0.0001876  |            |       |  1.10

Nlocal:    4.375 ave 9 max 0 min
Histogram: 3 0 1 0 0 0 0 0 3 1
Nghost:    425.625 ave 432 max 419 min
Histogram: 2 0 0 2 0 0 2 0 1 1
Neighs:    461.125 ave 1012 max 0 min
Histogram: 3 0 1 0 0 0 0 1 2 1

Total # of neighbors = 3689
Ave neighs/atom = 105.4
Neighbor list builds = 0
Dangerous builds = 0
WARNING: Using 'neigh_modify every 1 delay 0 check yes' setting during minimization (../min.cpp:190)
WARNING: Total cutoff < 2*bond cutoff. May need to use an increased neighbor list skin. (../pair_reaxc.cpp:413)
Setting up cg style minimization ...
  Unit style    : real
  Current step  : 2061
Per MPI rank memory allocation (min/avg/max) = 14.66 | 15.19 | 15.73 Mbytes
Step Temp E_pair E_mol TotEng Press 
    2061            0   -6077.6145            0   -6077.6145   -37.659533 
    2065            0   -6077.6152            0   -6077.6152    145.07959 
Loop time of 0.0865315 on 8 procs for 4 steps with 35 atoms

99.4% CPU use with 8 MPI tasks x no OpenMP threads

Minimization stats:
  Stopping criterion = energy tolerance
  Energy initial, next-to-last, final = 
        -6077.61448429     -6077.61514449     -6077.61518755
  Force two-norm initial, final = 8.21866 5.58853
  Force max component initial, final = 3.48796 2.88691
  Final line search alpha, max atom move = 1.22258e-05 3.52948e-05
  Iterations, force evaluations = 4 53

MPI task timing breakdown:
Section |  min time  |  avg time  |  max time  |%varavg| %total
---------------------------------------------------------------
Pair    | 0.058567   | 0.061189   | 0.063814   |   0.7 | 70.71
Neigh   | 0          | 0          | 0          |   0.0 |  0.00
Comm    | 0.00071987 | 0.0033149  | 0.0059317  |   3.1 |  3.83
Output  | 0          | 0          | 0          |   0.0 |  0.00
Modify  | 0.021727   | 0.02173    | 0.021734   |   0.0 | 25.11
Other   |            | 0.0002984  |            |       |  0.34

Nlocal:    4.375 ave 9 max 0 min
Histogram: 3 0 1 0 0 0 0 0 3 1
Nghost:    425.625 ave 432 max 419 min
Histogram: 2 0 0 2 0 0 2 0 1 1
Neighs:    461.125 ave 1012 max 0 min
Histogram: 3 0 1 0 0 0 0 1 2 1

Total # of neighbors = 3689
Ave neighs/atom = 105.4
Neighbor list builds = 0
Dangerous builds = 0
WARNING: Total cutoff < 2*bond cutoff. May need to use an increased neighbor list skin. (../pair_reaxc.cpp:413)
Setting up Verlet run ...
  Unit style    : real
  Current step  : 0
  Time step     : 0.25
Per MPI rank memory allocation (min/avg/max) = 13.53 | 14.19 | 14.6 Mbytes
Step Temp TotEng KinEng PotEng Press 
       0          300   -6047.2109    30.404263   -6077.6152    1295.4138 
     200     287.7186   -6033.4607    29.159573   -6062.6203   -20895.643 
     400    350.94958   -6018.2976    35.567877   -6053.8655   -11407.187 
     600    273.76151   -6026.1218    27.745057   -6053.8669    1507.8085 
     800    324.56524   -6015.5913    32.893889   -6048.4852    8065.0692 
    1000    307.11116   -6016.0784    31.124961   -6047.2034   -3253.5521 
    1200    293.08757   -6025.0203    29.703704    -6054.724   -16394.034 
    1400    266.09521   -6028.7589    26.968095    -6055.727    -2031.811 
    1600    212.73048   -6039.2784    21.559711   -6060.8381   -6869.6877 
    1800    282.36765     -6025.52    28.617267   -6054.1373    11640.258 
    2000    323.57206   -6017.7378    32.793233   -6050.5311   -7374.3139 
    2200    327.49298   -6013.3855    33.190608   -6046.5761    -613.3496 
    2400    288.42636   -6019.3063    29.231303   -6048.5376    1072.5534 
    2600    282.03029   -6025.2582    28.583077   -6053.8413   -18167.241 
    2800    352.72088   -6038.0919    35.747394   -6073.8393   -9851.2206 
    3000     296.9307   -6062.5921    30.093196   -6092.6853    14331.973 
    3200    289.88465   -6062.9336    29.379096   -6092.3127    16332.602 
    3400    371.39552   -6051.7394    37.640022   -6089.3794   -2847.4601 
    3600    285.49281   -6066.7545    28.933994   -6095.6885    16173.256 
    3800        251.2   -6064.7456    25.458502   -6090.2041    7010.5541 
    4000    282.16942   -6055.2156    28.597177   -6083.8128   -12668.703 
    4200     328.4951   -6056.6747    33.292171   -6089.9668     4296.603 
    4400    307.34605   -6059.9208    31.148766   -6091.0695      9320.72 
    4600    343.39601   -6047.8154    34.802341   -6082.6177    12507.976 
    4800    321.95826   -6059.4946    32.629678   -6092.1243    26897.722 
    5000    283.14084   -6061.1281    28.695629   -6089.8237      18581.5 
    5200    324.43233   -6053.2139    32.880419   -6086.0943    4129.7077 
    5400    298.33823   -6052.7562    30.235846    -6082.992   -7455.9804 
    5600    268.61179   -6060.9089    27.223145   -6088.1321     4064.726 
    5800    277.25669   -6058.5094    28.099284   -6086.6087   -11049.111 
    6000    334.70777   -6047.6206    33.921809   -6081.5424   -15952.439 
    6200    248.05052   -6052.9271     25.13931   -6078.0664    5710.4612 
    6400    304.43979   -6051.7884    30.854225   -6082.6426   -7194.2085 
    6600    343.74067   -6050.9196    34.837272   -6085.7569    7038.1598 
    6800    270.67955    -6060.772    27.432707   -6088.2047    -10666.16 
    7000    368.21295   -6048.5113    37.317477   -6085.8288   -14882.573 
    7200    317.14313   -6059.4105    32.141676   -6091.5521   -2751.0523 
    7400    279.79858   -6060.9978    28.356898   -6089.3547   -679.25654 
    7600    290.43854   -6051.7606    29.435232   -6081.1958   -11483.772 
    7800    319.85746   -6052.4301    32.416768   -6084.8469   -18280.901 
    8000     279.4299   -6054.2561    28.319533   -6082.5757   -2046.6591 
    8200    287.54443   -6049.4083    29.141921   -6078.5502   -7416.6806 
    8400    232.50445    -6057.086    23.563755   -6080.6498    12296.265 
    8600    286.16502   -6058.5615    29.002121   -6087.5636   -21916.138 
    8800    353.41204   -6045.6685    35.817441    -6081.486   -7800.9234 
    9000    272.82092    -6058.682     27.64973   -6086.3317    9227.3578 
    9200    301.54342    -6061.063    30.560684   -6091.6237   -2540.9206 
    9400    305.59365   -6051.2897    30.971165   -6082.2609    7034.8427 
    9600    340.78144   -6054.7033    34.537361   -6089.2407    6248.0933 
    9800    212.71324   -6068.4728    21.557964   -6090.0307     17800.65 
   10000    300.24639   -6053.3784    30.429233   -6083.8076    3232.0813 
   10200    276.88918   -6052.1061    28.062037   -6080.1682     13449.44 
   10400    238.97929   -6061.9757    24.219964   -6086.1957    13214.949 
   10600    306.75647   -6058.3488    31.089014   -6089.4378   -2329.8458 
   10800    297.31303   -6049.9044    30.131944   -6080.0363    2200.2749 
   11000    277.64906   -6059.4249     28.13905    -6087.564   -2191.6662 
   11200    287.99413   -6055.1072    29.187497   -6084.2947   -12590.902 
   11400    292.69249   -6058.8355    29.663665   -6088.4992    864.88915 
   11600    291.33705   -6055.6989    29.526293   -6085.2252   -3555.4937 
   11800    368.66857   -6046.2336    37.363653   -6083.5973   -6803.2208 
   12000    322.16343   -6049.3311    32.650472   -6081.9816    12943.673 
   12200     249.6928   -6060.2433    25.305751   -6085.5491   -20939.683 
   12400    355.80033   -6047.8258    36.059488   -6083.8853    22105.864 
   12600     341.9678   -6051.0693    34.657596   -6085.7269    10919.236 
   12800    315.22986   -6056.5823    31.947771   -6088.5301   -7158.9233 
   13000     279.1334   -6049.5673    28.289484   -6077.8568   -299.23848 
   13200    287.60937    -6056.297    29.148502   -6085.4455    1464.3189 
   13400    258.45579   -6058.2216    26.193859   -6084.4155    14654.461 
   13600    345.82984   -6047.1388    35.049004   -6082.1878   -2943.5906 
   13800    260.77758   -6061.1911    26.429167   -6087.6203    19536.299 
   14000    292.35642   -6054.6763    29.629604   -6084.3059   -22739.067 
   14200    289.99404   -6055.6262    29.390183   -6085.0164    9213.1133 
   14400    259.78088   -6066.1419    26.328153   -6092.4701   -5986.8477 
   14600    332.06916   -6057.0871    33.654393   -6090.7415   -4232.5196 
   14800    246.78832   -6053.3265    25.011389   -6078.3379    25085.442 
   15000     361.1046   -6047.3134    36.597063   -6083.9104   -3814.1627 
   15200    276.25751   -6055.2487     27.99802   -6083.2467   -5400.0037 
   15400    309.74742   -6046.6152     31.39214   -6078.0074   -2647.1752 
   15600    373.40172   -6046.2191    37.843347   -6084.0625   -22521.091 
   15800     302.6203   -6054.5818    30.669824   -6085.2516   -3895.9429 
   16000    243.22632   -6055.4379     24.65039   -6080.0883    3091.4349 
   16200    303.41773   -6055.9157    30.750641   -6086.6663    13376.389 
   16400     314.8263   -6054.6131    31.906871     -6086.52    11928.231 
   16600     301.2427    -6063.672    30.530207   -6094.2022   -9984.2635 
   16800    361.53375   -6050.6747    36.640557   -6087.3152   -8187.9439 
   17000    282.85785   -6051.3246    28.666948   -6079.9916    7965.8145 
   17200    318.84528   -6059.6985    32.314185   -6092.0127    12688.829 
   17400    310.11221   -6057.9006     31.42911   -6089.3297    11132.787 
   17600    392.23119   -6050.2187    39.751667   -6089.9704   -1302.6025 
   17800     276.7121   -6061.3462    28.044091   -6089.3903    -1585.475 
   18000     322.1448   -6054.1121    32.648584   -6086.7607    29719.224 
   18200    269.77053   -6055.7174     27.34058    -6083.058    11126.004 
   18400    257.99796   -6050.0481    26.147459   -6076.1956   -8296.6932 
   18600    327.72404    -6050.511    33.214026   -6083.7251     11316.29 
   18800    248.65239   -6061.9439    25.200309   -6087.1442   -5074.3749 
   19000    359.80437    -6047.449    36.465289   -6083.9143   -16607.708 
   19200    323.79353   -6052.3832    32.815678   -6085.1989    257.74923 
   19400    269.20496   -6068.0366    27.283261   -6095.3199    5943.8114 
   19600    316.08806   -6057.5641    32.034748   -6089.5989    42.262172 
   19800     316.8203    -6052.981    32.108959   -6085.0899   -766.99587 
   20000    280.50315   -6062.8865    28.428305   -6091.3148   -281.27999 
   20200    288.41482   -6050.8779    29.230133    -6080.108   -8658.2072 
   20400    333.06968   -6049.3395    33.755794   -6083.0953   -10006.314 
   20600     244.3891   -6060.2988    24.768234    -6085.067   -2055.7743 
   20800    360.76888   -6054.1538     36.56304   -6090.7169    111.42509 
   21000    332.89176   -6050.7396    33.737762   -6084.4774    5274.0615 
   21200    272.68355     -6062.81    27.635808   -6090.4458   -2072.6517 
   21400    271.19122   -6051.9024    27.484563    -6079.387   -36793.435 
   21600    326.59662   -6050.8422    33.099765   -6083.9419   -31783.423 
   21800    326.52766   -6054.9953    33.092776   -6088.0881      20.3052 
   22000    221.60144   -6059.0472    22.458761    -6081.506   -2980.9015 
   22200    346.04066   -6044.4126     35.07037    -6079.483   -15299.222 
   22400    277.39433   -6060.0897    28.113234   -6088.2029   -18940.367 
   22600     285.4153   -6058.4494    28.926139   -6087.3756   -16381.779 
   22800    343.81123   -6049.3803    34.844423   -6084.2247    7975.8048 
   23000    285.73239   -6060.1985    28.958275   -6089.1568    -21658.93 
   23200    278.47814   -6056.5626    28.223075   -6084.7857   -7676.7809 
   23400    301.00205    -6053.698    30.505818   -6084.2038    313.68062 
   23600     311.0089   -6051.9225    31.519987   -6083.4425   -349.14066 
   23800     231.5357   -6065.4615    23.465574   -6088.9271    9164.4237 
   24000    243.74347   -6056.1563    24.702801   -6080.8591    11975.534 
   24200    240.24594   -6049.7576    24.348335   -6074.1059   -7755.6272 
   24400    287.85104   -6051.0926    29.172995   -6080.2656   -9018.7425 
   24600    255.87275    -6059.935    25.932074    -6085.867    3240.7352 
   24800    326.38673   -6048.0948    33.078493   -6081.1733   -7978.5399 
   25000    365.71087   -6046.1912    37.063898   -6083.2551    11333.397 
   25200    275.31363   -6062.7287    27.902359    -6090.631   -6186.6811 
   25400    324.40888   -6058.9556    32.878043   -6091.8337    21819.628 
   25600    342.88139   -6043.1732    34.750186   -6077.9233   -12866.841 
   25800    301.10094   -6056.6234     30.51584   -6087.1393   -25114.208 
   26000    257.95807   -6054.5473    26.143416   -6080.6907   -6310.2854 
   26200    301.33468   -6049.9076    30.539529   -6080.4471    10894.559 
   26400    274.75858   -6065.1163    27.846107   -6092.9624    9051.3719 
   26600    300.96585   -6055.9767    30.502149   -6086.4789   -21401.186 
   26800    282.54106   -6052.6178    28.634842   -6081.2527    1937.1181 
   27000    250.89524   -6061.3776    25.427615   -6086.8052    1627.5427 
   27200    336.88902   -6054.7006    34.142874   -6088.8435     6734.727 
   27400    330.53511   -6050.2851     33.49892    -6083.784    3499.2732 
   27600    315.45053    -6057.394    31.970136   -6089.3641    8100.4935 
   27800    354.24734   -6054.8138    35.902098   -6090.7159    3645.5592 
   28000    338.53221   -6046.3302    34.309407   -6080.6396   -19492.341 
   28200    272.07921   -6057.6454    27.574559     -6085.22    1864.7382 
   28400    241.57144   -6057.8306    24.482672   -6082.3133   -31415.882 
   28600    335.47443   -6044.0418    33.999509   -6078.0413    7072.4792 
   28800     277.9831   -6056.2908    28.172904   -6084.4637    6059.1196 
   29000    290.17066   -6058.9582    29.408083   -6088.3663   -4591.4802 
   29200    365.26413   -6042.3283    37.018622   -6079.3469   -23372.652 
   29400    295.49936   -6054.6984    29.948134   -6084.6466   -7881.5118 
   29600    279.38369   -6057.5169     28.31485   -6085.8318    11101.857 
   29800    301.86597   -6046.9395    30.593374   -6077.5328     1149.177 
   30000    334.21076   -6049.8452    33.871439   -6083.7166      14812.1 
   30200    295.93304   -6056.5179    29.992086     -6086.51    5252.0971 
   30400     360.1741   -6050.2243     36.50276   -6086.7271    7612.7469 
   30600    205.07545   -6062.8449    20.783893   -6083.6288    37031.883 
   30800    327.83979   -6056.1689    33.225757   -6089.3947   -4023.6064 
   31000    314.34471   -6048.9893    31.858064   -6080.8474   -20408.063 
   31200    308.36331   -6055.0088    31.251863   -6086.2607    3659.7478 
   31400    259.89898   -6061.0948    26.340123   -6087.4349   -18101.997 
   31600    292.85816   -6058.5578    29.680454   -6088.2382    15879.199 
   31800    293.11171   -6051.6346    29.706151   -6081.3407   -3760.8514 
   32000    252.21538   -6062.4347    25.561409   -6087.9961   -30788.026 
   32200    225.40119    -6072.839    22.843857   -6095.6828   -5049.6142 
   32400    268.20324   -6060.5051    27.181739   -6087.6868    13192.633 
   32600    331.25981   -6048.5169    33.572368   -6082.0893   -22208.707 
   32800    240.55476   -6061.2985    24.379633   -6085.6781   -9881.2083 
   33000    256.50567    -6056.257    25.996219   -6082.2532   -7741.5533 
   33200    315.38112   -6052.7621    31.963101   -6084.7252   -8873.2651 
   33400    267.69014   -6065.6599    27.129738   -6092.7896    2898.6014 
   33600    331.24515   -6053.1167    33.570882   -6086.6876    26332.636 
   33800    343.62296   -6052.5662    34.825343   -6087.3915   -677.15458 
   34000     355.5796   -6045.7453    36.037118   -6081.7824     12863.81 
   34200    298.77784   -6059.9564      30.2804   -6090.2368   -24319.345 
   34400    326.44409   -6052.1813    33.084306   -6085.2656   -6469.3434 
   34600    317.83804   -6059.9826    32.212104   -6092.1947     16690.27 
   34800    268.20264   -6060.6463    27.181678    -6087.828    2962.6486 
   35000    294.37614   -6052.4697    29.834298    -6082.304     13975.42 
   35200    254.75831   -6063.4334    25.819128   -6089.2526    10712.562 
   35400    283.04134   -6057.7558    28.685544   -6086.4413    27006.605 
   35600    284.90972    -6053.049      28.8749   -6081.9239    4814.0588 
   35800    263.73893   -6058.8132    26.729292   -6085.5425   -5282.3868 
   36000    284.78732   -6067.0131    28.862495   -6095.8756   -9870.1821 
   36200    295.37885   -6053.8191     29.93592    -6083.755     1112.314 
   36400    280.92295   -6057.9408    28.470851   -6086.4116   -14447.988 
   36600    215.22834   -6059.5485    21.812864   -6081.3613    7673.7653 
   36800    284.34798   -6049.8943    28.817969   -6078.7123    -10789.42 
   37000    298.83763   -6061.2574    30.286459   -6091.5439    20013.486 
   37200    321.58593   -6057.2671    32.591944   -6089.8591   -7666.3945 
   37400    360.35553   -6054.0756    36.521147   -6090.5967   -20576.798 
   37600    317.31351   -6053.4957    32.158944   -6085.6546   -4511.6728 
   37800    256.93641   -6048.2768    26.039873   -6074.3166   -7728.3283 
   38000    251.45451   -6061.2396    25.484296   -6086.7239    12690.927 
   38200    305.68701    -6054.302    30.980627   -6085.2826    2988.0965 
   38400    341.89214    -6051.346    34.649928   -6085.9959   -7529.5409 
   38600     272.0581   -6060.1769     27.57242   -6087.7493   -8201.4538 
   38800    239.34012   -6064.0842    24.256532   -6088.3407   -8940.4852 
   39000    318.84168   -6048.6511     32.31382   -6080.9649    19014.441 
   39200    306.90953    -6058.724    31.104527   -6089.8285   -8360.7951 
   39400    349.30773   -6055.3477     35.40148   -6090.7492   -14365.243 
   39600    299.72062   -6047.7314    30.375948   -6078.1073   -7476.7611 
   39800    287.96618   -6061.2432    29.184665   -6090.4279   -24908.188 
   40000    346.51757   -6054.3587    35.118704   -6089.4774   -38522.059 
   40200    253.63225    -6064.444    25.705005    -6090.149   -5879.2806 
   40400    294.37496   -6061.7944    29.834179   -6091.6286    -10394.77 
   40600    299.80922   -6054.7873    30.384928   -6085.1722    3442.6341 
   40800    317.34707   -6044.7293    32.162345   -6076.8917    704.70585 
   41000    266.53885   -6050.4634    27.013057   -6077.4765    -36876.62 
   41200     259.6918   -6057.3587    26.319125   -6083.6778   -7291.7222 
   41400    280.70611   -6061.6863    28.448874   -6090.1352   -671.67602 
   41600    250.19646   -6059.7264    25.356796   -6085.0832   -14549.081 
   41800    297.33602    -6050.602    30.134275   -6080.7363   -3625.4996 
   42000    214.30279   -6060.8518    21.719061   -6082.5708   -15421.095 
   42200     272.0052   -6055.3565    27.567058   -6082.9235   -13949.748 
   42400    277.87784   -6053.5603    28.162236   -6081.7225    626.86457 
   42600     364.7056   -6052.0355    36.962016   -6088.9975    30465.716 
   42800     242.6039   -6063.0462    24.587308   -6087.6335   -21130.948 
   43000    322.64566    -6048.494    32.699344   -6081.1934   -12750.834 
   43200    249.57953   -6051.2204    25.294272   -6076.5147   -21310.293 
   43400    264.46638   -6060.1649    26.803017    -6086.968   -371.84323 
   43600    248.80683   -6066.6871    25.215961   -6091.9031    17418.769 
   43800    303.93592   -6050.4481    30.803159   -6081.2513    4013.2079 
   44000    319.59867   -6058.6059    32.390539   -6090.9964     -9828.52 
   44200      299.194   -6063.4468    30.322577   -6093.7693    23270.352 
   44400    380.33149   -6047.8749    38.545662   -6086.4205    4479.1615 
   44600    285.47144   -6058.8543    28.931829   -6087.7862   -27375.774 
   44800    352.70751   -6051.5452    35.746039   -6087.2913    38329.111 
   45000    287.33359   -6039.5977    29.120553   -6068.7183   -32697.287 
   45200    289.42651   -6058.0025    29.332665   -6087.3352    4382.6547 
   45400    286.93593   -6054.6089    29.080251   -6083.6891   -8613.2171 
   45600    299.22958    -6051.548    30.326182   -6081.8741   -3048.9619 
   45800    254.99492   -6065.9776    25.843109   -6091.8207   -16844.615 
   46000    291.80565   -6055.9424    29.573785   -6085.5162    11225.577 
   46200     251.0951    -6052.753    25.447871   -6078.2009    14928.697 
   46400    223.25263   -6067.7564    22.626106   -6090.3825    12228.669 
   46600    274.47627   -6058.3329    27.817495   -6086.1504    8064.0848 
   46800    301.61149   -6048.5689    30.567583   -6079.1365    27495.174 
   47000    311.44808   -6061.9538    31.564497   -6093.5183   -24949.137 
   47200    319.97122   -6060.1205    32.428296   -6092.5488    14308.061 
   47400      313.053   -6053.8273    31.727152   -6085.5545    2674.8784 
   47600    282.68791   -6057.1782    28.649725   -6085.8279    19304.013 
   47800    237.71504   -6066.2005    24.091835   -6090.2924   -505.57374 
   48000    312.04814   -6055.5894    31.625312   -6087.2148   -20780.275 
   48200    315.72991   -6054.8994    31.998451   -6086.8979    5801.7423 
   48400    297.10842   -6058.3533    30.111208   -6088.4645   -16127.921 
   48600    268.60763   -6062.8541    27.222723   -6090.0768   -18994.893 
   48800    370.44759   -6047.9525    37.543953   -6085.4964    768.04627 
   49000    322.70301   -6055.5834    32.705157   -6088.2885     5058.768 
   49200    394.52973   -6053.0155    39.984618   -6093.0001    -1915.269 
   49400    320.92338   -6042.0904    32.524796   -6074.6152   -6040.5927 
   49600    324.32716   -6056.5267     32.86976   -6089.3965    7716.9342 
   49800    307.07069    -6057.727    31.120859   -6088.8479    9024.8048 
   50000    394.17389   -6044.7674    39.948555   -6084.7159    19188.315 
   50200    320.38297   -6056.9066    32.470027   -6089.3766    2277.8289 
   50400    352.71904   -6056.8646    35.747208   -6092.6118    -5935.898 
   50600    359.30364   -6043.3033    36.414541   -6079.7178    4119.4674 
   50800    319.41524   -6058.3989    32.371949   -6090.7708   -3002.4471 
   51000    334.10592   -6053.4211    33.860813   -6087.2819   -3575.1618 
   51200    263.84653   -6061.0494    26.740197   -6087.7896   -11374.721 
   51400    247.62451   -6064.1455    25.096135   -6089.2416    3865.0047 
   51600    296.56934   -6052.9541    30.056574   -6083.0107    3091.5289 
   51800    284.67753   -6056.1666    28.851368    -6085.018    7611.5946 
   52000    230.29066   -6064.1861    23.339392   -6087.5255    6490.6917 
   52200    349.26849   -6049.0929    35.397503   -6084.4904    27213.659 
   52400     318.4984   -6059.4883     32.27903   -6091.7674   -309.65857 
   52600    310.61117   -6059.2418    31.479678   -6090.7215    2183.9739 
   52800     343.1761   -6045.6607    34.780054   -6080.4408   -12722.321 
   53000     273.5575   -6059.3369     27.72438   -6087.0612   -8103.3776 
   53200    270.28285   -6056.7493    27.392502   -6084.1418    8907.4485 
   53400    310.42588   -6053.2564      31.4609   -6084.7173   -6081.0795 
   53600    254.46766   -6062.0109    25.789672   -6087.8006    6719.4599 
   53800    253.56052   -6063.5522    25.697736     -6089.25    6513.1216 
   54000     281.8849   -6051.9327    28.568342    -6080.501   -12495.986 
   54200    296.04386   -6057.6402    30.003318   -6087.6435     10015.38 
   54400    248.41458   -6058.6603    25.176207   -6083.8365   -26838.414 
   54600    257.39231   -6053.9313    26.086078   -6080.0174   -865.19137 
   54800    321.43539   -6052.6129    32.576687   -6085.1896   -3407.5389 
   55000    248.89181   -6061.6062    25.224573   -6086.8308    446.80135 
   55200    308.96231   -6052.2821    31.312571   -6083.5947   -6402.5729 
   55400    355.58362   -6049.6565    36.037526    -6085.694   -15863.758 
   55600    262.74953   -6061.7191    26.629019   -6088.3481   -1571.6056 
   55800    332.79372   -6053.8301    33.727825   -6087.5579    23393.668 
   56000    249.58746   -6054.9016    25.295076   -6080.1966    19796.991 
   56200    284.30901   -6062.4257    28.814019   -6091.2397   -9719.9035 
   56400    315.27589   -6051.9601    31.952437   -6083.9125    9685.0225 
   56600    351.03574   -6035.0159    35.576609   -6070.5925      6505.65 
   56800    267.98432   -6052.6923    27.159552   -6079.8518   -9742.9965 
   57000    294.27914   -6057.6816    29.824467    -6087.506    18823.708 
   57200    326.81232   -6054.4073    33.121626   -6087.5289   -357.78557 
   57400    347.30475   -6041.9347    35.198483   -6077.1332     1302.442 
   57600    263.73038   -6056.7551    26.728426   -6083.4835   -12115.832 
   57800     294.2319   -6055.9446     29.81968   -6085.7643    31256.349 
   58000    325.89025   -6050.7572    33.028176   -6083.7854    14278.479 
   58200    254.03797   -6064.2601    25.746123   -6090.0062    16982.845 
   58400    296.88949   -6054.3299     30.08902   -6084.4189   -24382.305 
   58600    344.19209    -6052.566    34.883022    -6087.449   -3323.6143 
   58800    262.64065   -6062.3213    26.617984   -6088.9393    19260.296 
   59000    266.40531   -6060.6155    26.999523   -6087.6151   -9592.2384 
   59200    300.26112    -6053.271    30.430727   -6083.7018    -3884.462 
   59400    234.51047   -6065.2583    23.767059   -6089.0254   -4156.3859 
   59600     288.9457   -6058.2004    29.283936   -6087.4844    -6697.078 
   59800    262.53531   -6055.0489    26.607308   -6081.6562    13065.398 
   60000    286.22605   -6051.1852    29.008307   -6080.1935    18748.003 
   60200     261.9753   -6061.7528    26.550553   -6088.3033    7580.0119 
   60400    362.19215    -6049.813    36.707284   -6086.5203   -10666.222 
   60600    279.95869   -6057.0354    28.373125   -6085.4085    23678.903 
   60800    335.75025   -6058.9018    34.027462   -6092.9292    -6820.636 
   61000    408.35111   -6040.6722    41.385381   -6082.0576    19540.939 
   61200    327.08612    -6053.105    33.149374   -6086.2543    14548.975 
   61400    240.04863   -6059.0977    24.328338    -6083.426    24581.915 
   61600    316.51549   -6040.6563    32.078067   -6072.7344    20209.504 
   61800    272.70887   -6055.3744    27.638373   -6083.0128    17715.589 
   62000    229.49929   -6059.2737    23.259189   -6082.5329    3618.0011 
   62200    291.52503   -6046.5675    29.545345   -6076.1128   -15609.317 
   62400    270.19553   -6063.8038    27.383653   -6091.1874    24504.322 
   62600    292.42255   -6056.0572    29.636307   -6085.6935    33369.987 
   62800    318.52864   -6052.7257    32.282094   -6085.0078    496.63973 
   63000    280.45668   -6062.8957    28.423595   -6091.3193   -10867.194 
   63200    382.11917   -6046.7113    38.726838   -6085.4382   -6143.7771 
   63400    281.38032   -6056.0965    28.517203   -6084.6137    2838.7484 
   63600    261.05018   -6061.7114    26.456794   -6088.1682    6399.5839 
   63800    312.65265   -6044.1817    31.686577   -6075.8683    379.31384 
   64000    269.94422   -6055.8384    27.358183   -6083.1966    10481.363 
   64200    321.79603    -6052.002    32.613236   -6084.6153    6568.3041 
   64400    309.61454   -6047.1742    31.378673   -6078.5528   -7760.6016 
   64600    239.77364   -6056.4614    24.300469   -6080.7618   -1388.0164 
   64800    239.40967   -6062.5735    24.263582   -6086.8371    7710.0345 
   65000    283.13961   -6068.5881    28.695503   -6097.2836     -11705.6 
   65200    264.41044   -6054.0982    26.797348   -6080.8956    6362.0387 
   65400       316.56   -6047.0269    32.082577   -6079.1095    3234.4246 
   65600    220.43119   -6060.7045    22.340159   -6083.0447    16819.642 
   65800    344.33876   -6055.0857    34.897886   -6089.9836    -1568.985 
   66000    404.68415   -6041.0757    41.013744   -6082.0895    14815.089 
   66200    298.83364   -6058.0076    30.286055   -6088.2937   -25700.916 
   66400    324.84334    -6058.707    32.922074    -6091.629    -12336.59 
   66600    381.68169   -6041.9616    38.682501   -6080.6441   -6823.6608 
   66800    292.82897   -6050.1115    29.677497    -6079.789   -18112.948 
   67000    292.62069   -6058.9661    29.656388   -6088.6225    9639.6195 
   67200    265.15096   -6058.2402    26.872398   -6085.1126    -10443.86 
   67400    335.39975   -6049.7248     33.99194   -6083.7167    967.61516 
   67600    241.41357   -6059.8902    24.466672   -6084.3568   -3270.0013 
   67800    318.98024   -6055.0227    32.327863   -6087.3506    19619.412 
   68000    291.55712    -6053.977    29.548597   -6083.5256     3346.398 
   68200    289.18947   -6060.7358    29.308642   -6090.0444    10953.136 
   68400    277.18869   -6063.4437    28.092393   -6091.5361   -6161.2056 
   68600     359.7249   -6051.5778    36.457234    -6088.035    6122.5002 
   68800     282.5403   -6060.3538    28.634765   -6088.9885    12562.907 
   69000    204.51289   -6073.7815    20.726879   -6094.5084    14725.018 
   69200    240.03536   -6063.2162    24.326993   -6087.5432   -8768.5114 
   69400    324.04081   -6049.9243     32.84074    -6082.765     13772.98 
   69600    278.14027   -6055.8951    28.188833    -6084.084    13902.264 
   69800     235.4898   -6060.0199    23.866312   -6083.8862     6437.312 
   70000    297.53082   -6051.7552    30.154017   -6081.9092    8610.5165 
   70200    335.20237   -6051.5045    33.971936   -6085.4764    1770.7155 
   70400    279.94638   -6062.6191    28.371877    -6090.991    3291.9701 
   70600    298.01157   -6049.4263     30.20274    -6079.629   -6674.5224 
   70800    228.43655   -6054.4787    23.151483   -6077.6302   -4676.1686 
   71000    265.45723   -6057.3657    26.903438   -6084.2691   -17263.192 
   71200    290.40139    -6055.328    29.431467   -6084.7594    18037.445 
   71400    315.91904   -6051.1889    32.017618   -6083.2065   -19031.616 
   71600    263.43275   -6064.7341    26.698261   -6091.4324    1455.6343 
   71800    285.83545   -6058.6703     28.96872    -6087.639   -22615.115 
   72000    331.08387      -6052.1    33.554537   -6085.6545    13243.244 
   72200    337.36754   -6053.3623    34.191371   -6087.5537    15319.477 
   72400    276.90628   -6059.1623    28.063771   -6087.2261   -20441.332 
   72600    329.39745   -6050.6533    33.383622    -6084.037    6589.3558 
   72800    291.41484   -6051.0683    29.534178   -6080.6025   -5725.4154 
   73000    248.24274   -6061.5931    25.158791   -6086.7519    6684.9886 
   73200    259.05031   -6050.7996    26.254112   -6077.0537   -5083.6223 
   73400    351.33611   -6051.6974    35.607051   -6087.3044    37124.021 
   73600    267.21217   -6056.4394    27.081296   -6083.5207    6800.9986 
   73800    304.58653   -6057.8975    30.869096   -6088.7666   -6292.8913 
   74000    324.06929   -6052.2785    32.843626   -6085.1221    19139.414 
   74200    305.63191   -6044.8959    30.975042    -6075.871   -3562.5562 
   74400    266.90889   -6059.4315     27.05056   -6086.4821    1561.6958 
   74600    311.88556   -6053.7976    31.608835   -6085.4064   -1597.0568 
   74800    346.52916   -6053.5585    35.119878   -6088.6784   -7602.8013 
   75000    239.92972   -6055.8824    24.316287   -6080.1987    21508.065 
   75200    381.02528   -6045.4544    38.615976   -6084.0704    -7425.687 
   75400    313.96722   -6043.5427    31.819806   -6075.3625    3911.4874 
   75600    336.98085   -6057.3987    34.152181   -6091.5508   -4894.4982 
   75800    370.37565   -6047.8087    37.536661   -6085.3454    7833.6037 
   76000    231.65446   -6060.3706     23.47761   -6083.8482     9189.606 
   76200    281.39028   -6059.9252    28.518214   -6088.4434   -8740.5954 
   76400    290.97591   -6051.1002    29.489693   -6080.5899    10667.032 
   76600    280.58151   -6053.3082    28.436247   -6081.7445    14551.682 
   76800    207.21882   -6063.7809    21.001118    -6084.782   -8426.4951 
   77000    303.47272    -6056.936    30.756214   -6087.6922    16162.673 
   77200    290.28122   -6053.9267    29.419289    -6083.346   -10181.094 
   77400    212.35511   -6066.3644    21.521669   -6087.8861   -529.82558 
   77600    286.84873   -6052.8961    29.071414   -6081.9675   -11134.073 
   77800    297.53695   -6053.5212    30.154638   -6083.6758   -17006.515 
   78000    253.25885   -6062.1714    25.667162   -6087.8386   -7924.4268 
   78200    276.08712   -6065.2946    27.980751   -6093.2753   -8675.7391 
   78400    360.41549   -6050.8738    36.527224   -6087.4011   -13015.517 
   78600    279.42468   -6056.5276    28.319005   -6084.8466    2511.0882 
   78800    242.44411   -6066.3894    24.571114   -6090.9605    -11299.19 
   79000    313.42066   -6050.5918    31.764414   -6082.3563   -5155.0127 
   79200    301.88138   -6060.3748    30.594936   -6090.9697   -8609.9121 
   79400     299.7689   -6058.4406    30.380841   -6088.8215    7954.7401 
   79600    342.73022   -6049.1784    34.734865   -6083.9132   -18784.972 
   79800    271.99269   -6060.5895    27.565791   -6088.1553   -1431.0524 
   80000    438.02136    -6045.183    44.392388   -6089.5754    7519.3031 
   80200    316.71783    -6056.394    32.098573   -6088.4926   -9074.0393 
   80400    344.20894   -6057.7152     34.88473      -6092.6    13560.965 
   80600      361.101   -6044.6057    36.596698   -6081.2024    33556.497 
   80800    341.32277   -6049.9612    34.592224   -6084.5534    3870.2022 
   81000    271.70858   -6058.4528    27.536996   -6085.9898    2052.3424 
   81200    355.13178   -6049.6258    35.991733   -6085.6176    1928.4638 
   81400    307.76791   -6055.0077    31.191521   -6086.1993   -16260.711 
   81600    313.77991   -6055.4678    31.800822   -6087.2687    33741.791 
   81800    306.57362   -6043.2984    31.070483   -6074.3689   -2805.9112 
   82000    304.58439    -6056.485    30.868879   -6087.3539   -6065.1722 
   82200     275.5112   -6054.9302    27.922383   -6082.8525    535.52787 
   82400    327.73062   -6043.6849    33.214693   -6076.8996    14305.506 
   82600    343.94292   -6053.1454    34.857769   -6088.0032    6359.7104 
   82800    332.05855   -6057.1415    33.653318   -6090.7949    4759.9574 
   83000    294.16923   -6043.8986    29.813329   -6073.7119    6094.1661 
   83200    342.35089   -6047.9203    34.696421   -6082.6168   -13596.643 
   83400    285.25495   -6059.3363    28.909888   -6088.2462   -8981.9641 
   83600    265.79067   -6056.3245    26.937231   -6083.2618   -4507.4225 
   83800    335.91128   -6050.3221    34.043783   -6084.3659    30872.053 
   84000    195.90234   -6063.9128    19.854221    -6083.767   -2832.0407 
   84200    305.76668   -6061.0452    30.988701   -6092.0339     3266.551 
   84400    259.82703   -6055.8885    26.332831   -6082.2213    11457.658 
   84600    338.38795    -6049.217    34.294787   -6083.5118   -1830.1355 
   84800    274.09248   -6064.8022    27.778599   -6092.5808    19683.345 
   85000     349.7373   -6051.5313    35.445015   -6086.9764   -208.08177 
   85200    271.35223   -6056.5046    27.500881   -6084.0055    4758.8148 
   85400    292.23576    -6059.013    29.617376   -6088.6304    11025.362 
   85600    323.86941   -6051.7686    32.823369   -6084.5919   -4943.3812 
   85800    216.88074    -6062.488     21.98033   -6084.4684   -21582.129 
   86000     293.8789   -6056.5969    29.783904   -6086.3808   -2462.6883 
   86200    233.38224   -6048.9669    23.652716   -6072.6196    5972.9706 
   86400    332.47577   -6060.6095    33.695602   -6094.3051    646.26882 
   86600    231.65218    -6064.727    23.477379   -6088.2044   -17096.009 
   86800    374.71216   -6051.9221    37.976157   -6089.8983   -16289.126 
   87000    295.04045   -6063.1424    29.901624    -6093.044   -11646.282 
   87200    341.24181   -6059.4645    34.584019   -6094.0485    9742.6512 
   87400    263.05988    -6060.168    26.660472   -6086.8285   -22556.526 
   87600    221.49249   -6064.5507     22.44772   -6086.9984    15096.667 
   87800    295.00052   -6057.1845    29.897577   -6087.0821   -17496.245 
   88000    296.13826   -6060.1358    30.012885   -6090.1487   -12414.494 
   88200     281.5189   -6063.9729    28.531249   -6092.5041   -5291.7287 
   88400    274.48875   -6058.3965     27.81876   -6086.2153   -7480.9459 
   88600    278.32915    -6053.413    28.207975    -6081.621   -28503.478 
   88800    298.52817   -6060.4313    30.255097   -6090.6864    15678.387 
   89000    420.90007   -6043.9716    42.657188   -6086.6288     3300.834 
   89200    287.36577    -6057.317    29.123814   -6086.4408   -4645.0666 
   89400    225.19288    -6057.622    22.822744   -6080.4447    11750.826 
   89600    376.94786   -6041.6725    38.202739   -6079.8752    7372.2115 
   89800    292.21236   -6057.2952    29.615005   -6086.9102    10151.431 
   90000    311.71982   -6057.1182    31.592038   -6088.7102    10155.433 
   90200    278.58176   -6064.9155    28.233577   -6093.1491    5265.2241 
   90400    284.30508   -6067.8161    28.813621   -6096.6298    2629.3605 
   90600    330.29912   -6054.6869    33.475003   -6088.1619     69.79773 
   90800    278.14663   -6060.2351    28.189477   -6088.4245    10108.671 
   91000    313.04314   -6059.8011    31.726153   -6091.5272   -801.11799 
   91200    366.89137   -6045.0135    37.183539    -6082.197    30148.644 
   91400    412.55028    -6047.597    41.810956    -6089.408    3527.4266 
   91600    292.75435   -6060.4081    29.669933   -6090.0781    998.48442 
   91800    297.87435   -6053.3768    30.188833   -6083.5657    25984.383 
   92000    316.36857   -6051.7793    32.063177   -6083.8425   -4876.5791 
   92200    288.31773   -6061.2845    29.220293   -6090.5048    4717.1211 
   92400    319.16192   -6054.8387    32.346276    -6087.185   -16031.225 
   92600    356.67358   -6054.6774    36.147991   -6090.8254    7205.3745 
   92800    244.23495   -6063.3483    24.752611   -6088.1009   -10653.375 
   93000    274.46091   -6064.9742    27.815939   -6092.7901   -11010.186 
   93200      341.669   -6051.9261    34.627313   -6086.5534    5084.8647 
   93400    275.04165   -6062.6387    27.874795   -6090.5135   -15846.031 
   93600    381.72271   -6053.5106    38.686658   -6092.1973   -8607.0984 
   93800    304.65235   -6054.2375    30.875767   -6085.1132  -0.37307372 
   94000    298.57346   -6066.1884    30.259686   -6096.4481    -12963.23 
   94200    349.36211   -6060.3958    35.406991   -6095.8028    3295.5348 
   94400    325.46931   -6048.6022    32.985514   -6081.5877   -12030.392 
   94600    253.14284   -6064.8585    25.655405   -6090.5139   -9389.9061 
   94800    310.26814   -6053.4195    31.444913   -6084.8644     7396.596 
   95000    377.19162   -6052.1392    38.227444   -6090.3667   -6056.1793 
   95200    281.68809    -6061.485    28.548396   -6090.0334   -22871.707 
   95400     397.3253   -6056.0275    40.267943   -6096.2955   -4609.9819 
   95600    346.06232   -6059.6244    35.072565    -6094.697    18905.669 
   95800    246.14664   -6063.4696    24.946356   -6088.4159   -2210.5652 
   96000    304.34156   -6053.8301    30.844269   -6084.6743    13724.025 
   96200    211.67071   -6062.3019    21.452306   -6083.7542    3313.0991 
   96400    237.27636   -6068.2901    24.047376   -6092.3375     2470.389 
   96600    345.55182   -6058.4918    35.020827   -6093.5126   -475.56994 
   96800    317.87263   -6055.3371    32.215609   -6087.5527   -25489.619 
   97000    254.72238   -6069.3994    25.815487   -6095.2149    5210.2742 
   97200    329.76656   -6057.9111     33.42103   -6091.3322   -18548.309 
   97400    296.63716   -6060.7268    30.063447   -6090.7902    19305.641 
   97600     226.9089   -6072.1901    22.996659   -6095.1867   -14592.689 
   97800    258.72196   -6059.8504    26.220835   -6086.0713    8504.4431 
   98000    298.58948   -6054.3723     30.26131   -6084.6336   -8130.6915 
   98200    318.58047    -6051.518    32.287347   -6083.8053   -3585.8775 
   98400    333.46908   -6058.7268    33.796272   -6092.5231   -4847.0676 
   98600    247.13402   -6062.3977    25.046426   -6087.4442   -2967.4462 
   98800    258.84155   -6055.1264    26.232955   -6081.3593    3402.0293 
   99000     253.4767   -6066.8975     25.68924   -6092.5867   -19539.041 
   99200    290.31779    -6054.773    29.422994    -6084.196    2607.1677 
   99400    314.75647    -6052.897    31.899795   -6084.7968   -18911.257 
   99600     317.1748   -6059.2204    32.144887   -6091.3653    10622.741 
   99800    244.57273   -6065.6073    24.786845   -6090.3941   -424.95143 
  100000    361.34426   -6052.1121    36.621352   -6088.7335    2374.8621 
  100200    257.64433   -6063.3523     26.11162   -6089.4639    15942.362 
  100400    282.58429   -6060.9958    28.639223    -6089.635    6120.2333 
  100600    324.60109   -6054.3988    32.897523   -6087.2963   -2604.7632 
  100800    295.90768   -6059.9254    29.989516   -6089.9149   -10401.728 
  101000    313.10407   -6068.4369    31.732328   -6100.1692    4861.5969 
  101200    368.61789   -6051.2529    37.358517   -6088.6114   -23032.917 
  101400    285.28391   -6059.8325    28.912823   -6088.7453    8081.7576 
  101600    229.20371   -6059.3904    23.229232   -6082.6196    9502.0363 
  101800    380.27843   -6052.0933    38.540285   -6090.6336    2360.4344 
  102000    313.23231   -6062.6156    31.745324   -6094.3609    -5025.987 
  102200    300.19013   -6057.2033    30.423531   -6087.6269   -4151.7702 
  102400    270.73887   -6055.7862    27.438718   -6083.2249    15856.244 
  102600    316.84712   -6059.3262    32.111677   -6091.4379   -8034.3506 
  102800    327.00985   -6066.4862    33.141644   -6099.6279    9948.0147 
  103000    290.71281    -6056.169    29.463028   -6085.6321   -18704.998 
  103200     319.6554   -6059.2568    32.396289   -6091.6531    10573.505 
  103400    308.56327   -6054.2526    31.272129   -6085.5248    10181.816 
  103600    323.11618   -6052.9616     32.74703   -6085.7086   -17347.712 
  103800    308.31479   -6063.7476    31.246946   -6094.9945    2730.1975 
  104000    329.20484   -6049.5532    33.364101   -6082.9173   -1420.9869 
  104200    315.27184   -6051.3745    31.952026   -6083.3265   -8805.6565 
  104400    278.87777   -6057.2763    28.263577   -6085.5399    1997.4788 
  104600    268.47475   -6065.0957    27.209256    -6092.305   -29544.402 
  104800    322.83303   -6060.9574    32.718334   -6093.6758    14242.533 
  105000    362.28865   -6056.1618    36.717064   -6092.8788   -18773.904 
  105200    259.94784   -6068.0281    26.345074   -6094.3732   -9235.1148 
  105400    324.24712   -6062.8958    32.861649   -6095.7575   -3235.9831 
  105600    406.87383   -6050.5824    41.235663    -6091.818   -8075.4475 
  105800    232.17043   -6057.9179    23.529902   -6081.4478    1413.2745 
  106000    263.31795   -6061.3597    26.686626   -6088.0463    18847.624 
  106200    317.14068   -6046.8912    32.141428   -6079.0326   -7601.0875 
  106400    275.75399   -6057.8976    27.946989   -6085.8445   -2596.5722 
  106600    266.15398   -6060.5816    26.974052   -6087.5557   -11320.436 
  106800    296.07585   -6053.0973     30.00656   -6083.1038    12438.804 
  107000    315.98377   -6062.9298    32.024178    -6094.954   -14888.831 
  107200    287.08082   -6060.9882    29.094935   -6090.0831    20058.963 
  107400    308.88204   -6053.6239    31.304436   -6084.9284   -12430.604 
  107600     307.7682   -6054.4539    31.191551   -6085.6455    27881.904 
  107800    288.17471   -6066.7514    29.205799   -6095.9572    257.83142 
  108000    291.59919   -6057.3143    29.552861   -6086.8672   -1594.3835 
  108200    362.11223   -6055.7689    36.699184   -6092.4681   -875.89262 
  108400    278.27229   -6066.2394    28.202213   -6094.4416    8764.7688 
  108600     297.3015    -6050.575    30.130777   -6080.7058    4179.2369 
  108800    278.36642   -6055.8561    28.211753   -6084.0679   -25473.448 
  109000    292.80989   -6057.6344    29.675563     -6087.31   -8491.1261 
  109200     239.4482   -6066.0492    24.267486   -6090.3167    -6672.754 
  109400    302.26715   -6062.8028    30.634032   -6093.4368    6939.0442 
  109600    330.11473   -6059.7966    33.456317    -6093.253   -7449.8106 
  109800    321.26111   -6050.6964    32.559023   -6083.2554    5074.8066 
  110000    302.18934   -6050.5668    30.626147   -6081.1929   -532.02287 
  110200    290.04761   -6062.2744    29.395612     -6091.67    -12642.33 
  110400    258.49893   -6060.1248    26.198231    -6086.323   -9062.0182 
  110600    380.03849   -6043.7996    38.515966   -6082.3156    9543.8012 
  110800    353.46367    -6055.336    35.822674   -6091.1587   -7608.4243 
  111000    299.41178   -6058.2372    30.344648   -6088.5819   -2248.9904 
  111200     227.1802   -6067.2468    23.024155   -6090.2709   -17962.583 
  111400    322.39236    -6053.983    32.673673   -6086.6567   -4142.0719 
  111600    268.35964   -6062.3266     27.19759   -6089.5242    3471.2735 
  111800    292.28005    -6054.997    29.621864   -6084.6188   -18112.768 
  112000    295.55406   -6063.0062    29.953677   -6092.9599    9574.8161 
  112200    233.02865   -6062.8565    23.616881   -6086.4734   -8525.0907 
  112400    359.65547   -6053.7228    36.450198    -6090.173   -7945.6962 
  112600    258.61532   -6061.8388    26.210027   -6088.0488    -18683.75 
  112800    292.40593   -6067.2784    29.634622    -6096.913   -1080.1574 
  113000    284.99274   -6053.0291    28.883314   -6081.9124    140.96106 
  113200     288.5292   -6058.0669    29.241725   -6087.3087   -4857.2564 
  113400     225.4279   -6071.8613    22.846564   -6094.7078    3693.0983 
  113600    299.85764   -6063.7745    30.389835   -6094.1643    3692.0707 
  113800    327.70615   -6052.1886    33.212212   -6085.4008   -5813.2251 
  114000    294.04765   -6051.2816    29.801007   -6081.0826    19089.353 
  114200    245.47893   -6062.2641    24.878686   -6087.1428   -22575.173 
  114400    270.87219   -6057.8317     27.45223    -6085.284    21119.623 
  114600     340.1305   -6054.1738    34.471391   -6088.6452   -3459.8049 
  114800     260.2607   -6063.8713    26.376782   -6090.2481    17062.465 
  115000    344.55499   -6058.2092    34.919802    -6093.129   -5022.0688 
  115200    275.68769   -6061.1472    27.940269   -6089.0874   -3984.7334 
  115400    324.70635   -6048.2388    32.908191    -6081.147      7771.95 
  115600    288.39174   -6054.0051    29.227794   -6083.2329   -8417.8804 
  115800    263.25535   -6059.6746    26.680283   -6086.3549    -10382.06 
  116000    259.28732   -6057.5198    26.278133   -6083.7979    12880.195 
  116200    240.50889   -6069.8835    24.374985   -6094.2585    1354.2568 
  116400    318.92584   -6056.7985    32.322349   -6089.1208   -6749.7046 
  116600    276.40591   -6056.1878     28.01306   -6084.2008   -6015.8358 
  116800    325.80604   -6045.6243    33.019642    -6078.644   -10556.178 
  117000    335.17793    -6057.679     33.96946   -6091.6484   -5128.4232 
  117200    314.98558   -6058.2858    31.923014   -6090.2088   -3954.2237 
  117400    356.81745   -6053.9223    36.162572   -6090.0849    17319.265 
  117600    286.44476   -6063.5107    29.030472   -6092.5412    -4285.357 
  117800    349.53631   -6060.8527    35.424646   -6096.2773    22515.121 
  118000    302.78198   -6048.7151     30.68621   -6079.4013   -19686.522 
  118200    251.51433   -6059.6324    25.490359   -6085.1228    3199.4447 
  118400    222.25989   -6063.5348    22.525494   -6086.0603     12326.82 
  118600    337.26897   -6053.0542    34.181381   -6087.2356    17271.619 
  118800    265.10149   -6060.4705    26.867385   -6087.3379    2901.6268 
  119000    338.92292   -6057.9145    34.349005   -6092.2635    17640.444 
  119200    316.93919   -6056.2633    32.121007   -6088.3843   -4042.9438 
  119400    342.65195   -6058.2178    34.726933   -6092.9447    21615.897 
  119600    349.50605   -6057.0097    35.421579   -6092.4312    -6866.298 
  119800    246.51255   -6062.8155    24.983441    -6087.799   -13654.697 
  120000    299.77112    -6058.893    30.381066   -6089.2741    25025.089 
  120200     303.1113   -6053.5758    30.719585   -6084.2954   -16099.318 
  120400    236.02059   -6063.6221    23.920107   -6087.5422   -7321.7297 
  120600    336.16151   -6057.3711    34.069143   -6091.4402    -2123.166 
  120800    340.11417   -6053.2954    34.469735   -6087.7651   -17985.547 
  121000    300.19077    -6060.159    30.423597   -6090.5826    1149.4896 
  121200    313.61381    -6060.842    31.783989    -6092.626    9335.7964 
  121400    355.79477   -6050.8218    36.058925   -6086.8807    4454.5758 
  121600    248.11667   -6059.6458    25.146015   -6084.7919   -1318.8479 
  121800    326.31978   -6050.9755    33.071707   -6084.0472    26823.235 
  122000     326.7727   -6051.9368     33.11761   -6085.0545   -12484.234 
  122200    298.70985   -6059.1155    30.273509    -6089.389   -4234.8376 
  122400    347.26668   -6051.1284    35.194624   -6086.3231    3642.5862 
  122600    312.82961   -6052.0374    31.704512   -6083.7419   -417.44325 
  122800    303.93704   -6059.4639    30.803272   -6090.2672   -747.61335 
  123000     255.9655   -6061.5767    25.941474   -6087.5182   -6056.8723 
  123200    342.72029   -6048.0985    34.733859   -6082.8324   -16099.784 
  123400    260.79476    -6061.374    26.430907   -6087.8049   -18646.091 
  123600    355.42209   -6061.3133    36.021155   -6097.3345   -12457.316 
  123800    340.95838   -6051.4687    34.555294    -6086.024   -26928.087 
  124000    277.58883    -6056.938    28.132945    -6085.071   -9434.3892 
  124200    314.47097   -6061.3968     31.87086   -6093.2676   -30.283177 
  124400    377.92591   -6054.3701    38.301862    -6092.672    6944.3028 
  124600    332.80243   -6058.9938    33.728708   -6092.7225    1588.8323 
  124800    289.21493   -6065.8005    29.311223   -6095.1117   -13159.835 
  125000    310.51187   -6049.5102    31.469615   -6080.9798   -6743.0914 
  125200     318.0103   -6054.5766    32.229562   -6086.8061   -16589.772 
  125400    237.67441   -6061.6966    24.087718   -6085.7843   -8563.2814 
  125600    359.47818   -6049.4107     36.43223   -6085.8429   -3093.8313 
  125800    322.42701   -6053.2426    32.677185   -6085.9198    7252.8768 
  126000    291.65012   -6061.0368    29.558023   -6090.5949    2776.0097 
  126200    269.62207   -6055.2483    27.325534   -6082.5739    21603.263 
  126400    359.99055   -6045.1195    36.484158   -6081.6037   -19712.596 
  126600    322.50695    -6057.153    32.685287   -6089.8383    8770.7717 
  126800    306.66523   -6062.6946    31.079767   -6093.7744    15844.656 
  127000    399.58478   -6046.5037    40.496935   -6087.0006    21267.472 
  127200     246.1769   -6062.8046    24.949423    -6087.754    3929.6497 
  127400    329.61326   -6058.4829    33.405494   -6091.8884    10586.742 
  127600    367.84978   -6050.9308    37.280671   -6088.2115     1910.512 
  127800    288.99502   -6065.1929    29.288934   -6094.4818     1609.581 
  128000     316.9049   -6061.7714    32.117532   -6093.8889    15545.295 
  128200    331.95123   -6056.5352    33.642441   -6090.1776    4383.9494 
  128400    227.16164   -6064.2045    23.022274   -6087.2268    11618.549 
  128600    314.93782   -6052.0141    31.918174   -6083.9323    33685.628 
  128800    274.59425   -6052.9962    27.829452   -6080.8257    16730.018 
  129000    242.35746    -6062.713    24.562333   -6087.2754    19745.551 
  129200    352.50558   -6043.9454    35.725574    -6079.671    10540.939 
  129400    280.24431   -6058.5136    28.402072   -6086.9157   -16952.087 
  129600    312.45478   -6057.3364    31.666524   -6089.0029   -2489.8646 
  129800    242.84996   -6055.1616    24.612246   -6079.7738   -7607.5015 
  130000    319.57629   -6052.9061    32.388271   -6085.2944    15489.582 
  130200    224.51467   -6066.8946     22.75401   -6089.6486   -1461.7279 
  130400    388.38886   -6051.6055    39.362256   -6090.9677    23526.578 
  130600    325.82211   -6055.9191     33.02127   -6088.9404   -1227.9767 
  130800    301.51319   -6066.5058    30.557621   -6097.0634    4859.0114 
  131000    372.29129   -6049.7969    37.730807   -6087.5277    15109.885 
  131200    322.54073   -6059.9449     32.68871   -6092.6336    -8333.774 
  131400    307.69903   -6061.5207    31.184541   -6092.7052   -33144.537 
  131600    290.72371   -6055.1732    29.464133   -6084.6374    35683.188 
  131800    379.02523   -6036.9835    38.413276   -6075.3968   -8546.3736 
  132000    368.36108   -6054.5295     37.33249    -6091.862    27741.671 
  132200    292.49377   -6060.9941    29.643525   -6090.6376   -7251.3757 
  132400    298.57104   -6060.8466    30.259441    -6091.106    20642.213 
  132600    307.79944   -6048.1142    31.194717   -6079.3089   -25226.901 
  132800    336.79353   -6060.1829    34.133197   -6094.3161    12444.415 
  133000    272.13704   -6058.9803     27.58042   -6086.5607   -366.97934 
  133200    314.95881   -6053.1513    31.920301   -6085.0716   -24438.546 
  133400    400.04602   -6044.7354     40.54368   -6085.2791   -2033.8959 
  133600    300.43877   -6061.9122    30.448731    -6092.361   -3937.1978 
  133800    261.45345   -6059.6513    26.497665   -6086.1489   -4023.0734 
  134000    367.60838   -6049.3781    37.256205   -6086.6343     1923.063 
  134200    276.55976   -6059.4415    28.028652   -6087.4702   -5274.8945 
  134400    304.03383   -6057.1491    30.813081   -6087.9622    3988.1324 
  134600    268.99222   -6057.9395      27.2617   -6085.2012   -13369.383 
  134800    315.77181   -6062.1393    32.002697    -6094.142   -17120.595 
  135000    327.68395   -6058.4272    33.209963   -6091.6372    21484.995 
  135200     395.8434   -6053.2015    40.117755   -6093.3192    16696.167 
  135400    300.70608   -6066.9192    30.475822   -6097.3951     9059.894 
  135600    347.10007   -6059.1221    35.177739   -6094.2999    3369.4342 
  135800    288.87644   -6054.9355    29.276917   -6084.2124    7619.2762 
  136000    266.90338   -6058.6664    27.050001   -6085.7164    5580.0472 
  136200    232.42224   -6065.4164    23.555423   -6088.9718    19571.108 
  136400    319.41112   -6048.5312    32.371532   -6080.9027    12988.898 
  136600     298.7166   -6059.4384    30.274193   -6089.7126    6307.6154 
  136800    310.39273   -6062.9995     31.45754    -6094.457   -28559.894 
  137000    351.64997   -6053.9009     35.63886   -6089.5398   -2442.0392 
  137200     337.3061   -6056.8017    34.185144   -6090.9868    988.07923 
  137400    334.85933   -6062.0143     33.93717   -6095.9515   -10271.007 
  137600    316.68964   -6059.4536    32.095717   -6091.5493    628.55765 
  137800    285.68413   -6062.7697    28.953384   -6091.7231    9716.3208 
  138000    287.37449   -6050.4065    29.124698   -6079.5312   -19922.954 
  138200    289.38355   -6059.5129    29.328311   -6088.8412   -14723.661 
  138400    273.92192   -6059.4492    27.761313   -6087.2105   -13548.948 
  138600    316.79937   -6052.7001    32.106837   -6084.8069   -14396.634 
  138800    273.06267   -6062.4629    27.674231   -6090.1372   -9021.0885 
  139000    267.75667    -6062.221     27.13648   -6089.3574    22988.096 
  139200    349.76287    -6050.161    35.447607   -6085.6086    9785.5263 
  139400     362.1622   -6059.8735    36.704249   -6096.5778    2621.4981 
  139600    273.46937   -6063.6154    27.715449   -6091.3308    31610.736 
  139800    377.54081   -6047.8236    38.262833   -6086.0864     -14705.9 
  140000    273.25211   -6063.6474     27.69343   -6091.3408    6749.6271 
  140200     288.8328   -6059.0192    29.272494   -6088.2917    12773.529 
  140400    344.09213   -6047.2701    34.872891    -6082.143    23599.297 
  140600    318.46774   -6057.8829    32.275923   -6090.1589   -25559.837 
  140800    271.84519   -6058.2681    27.550842   -6085.8189   -10253.859 
  141000    375.67361   -6042.3632    38.073596   -6080.4368    7296.6099 
  141200     309.6596   -6057.3056    31.383239   -6088.6889   -1806.5246 
  141400    232.07977   -6064.3931    23.520714   -6087.9138   -23853.885 
  141600    274.02671   -6058.7199    27.771934   -6086.4919   -5405.7713 
  141800    389.75876    -6050.955    39.501092   -6090.4561   -7582.2655 
  142000    324.38256   -6064.1742    32.875375   -6097.0496    12272.774 
  142200    314.07416   -6061.0665    31.830644   -6092.8972    4630.2492 
  142400    328.62194   -6055.2131    33.305026   -6088.5182   -11509.856 
  142600    270.74999   -6067.8673    27.439846   -6095.3072   -11577.302 
  142800     313.6378   -6058.5714     31.78642   -6090.3578   -21808.245 
  143000    267.61568   -6057.4147    27.122192   -6084.5369   -36865.466 
  143200    253.39995   -6061.3491    25.681462   -6087.0306    5114.3851 
  143400    206.82164   -6066.8115    20.960864   -6087.7724   -17394.367 
  143600    334.94795   -6054.6913    33.946151   -6088.6374    24301.079 
  143800    312.42589   -6059.6749    31.663596   -6091.3385   -419.87617 
  144000    294.06285   -6066.0283    29.802547   -6095.8309    4323.7158 
  144200    291.43106   -6057.4425    29.535821   -6086.9783   -20473.819 
  144400    353.10509   -6054.4738    35.786332   -6090.2601    22090.214 
  144600    342.03786   -6048.9241    34.664696   -6083.5888     1503.938 
  144800    321.05706   -6056.4454    32.538344   -6088.9837    43253.369 
  145000    298.59738   -6061.4319     30.26211    -6091.694   -23267.474 
  145200    406.06391   -6039.9751    41.153579   -6081.1286     8295.484 
  145400    386.37013   -6055.5493    39.157663   -6094.7069    -653.1238 
  145600    298.66723   -6061.8466     30.26919   -6092.1157   -7629.0006 
  145800    301.13301   -6054.5766    30.519091   -6085.0957    25261.437 
  146000    367.45326    -6053.081    37.240485   -6090.3215    12353.335 
  146200    293.26634   -6061.6577    29.721823   -6091.3795    9794.1911 
  146400    376.90623    -6052.712     38.19852   -6090.9105    2241.9568 
  146600     264.1964   -6060.0726    26.775655   -6086.8482   -2002.7451 
  146800    262.79275   -6066.2094    26.633399   -6092.8428   -10747.275 
  147000    372.98246   -6051.0512    37.800855   -6088.8521    3865.3592 
  147200    336.86774   -6056.8379    34.140717   -6090.9786    16588.156 
  147400    284.73113   -6058.7003      28.8568   -6087.5571   -26870.173 
  147600     435.7706   -6046.0229    44.164279   -6090.1872   -13867.337 
  147800    306.02238      -6050.2    31.014616   -6081.2146     4739.867 
  148000    279.95652   -6056.3931    28.372905    -6084.766    3873.3649 
  148200    283.78868   -6063.0761    28.761285   -6091.8374   -8764.5714 
  148400    232.30342   -6065.1186    23.543381    -6088.662   -3891.1022 
  148600    340.02317    -6053.023    34.460513   -6087.4836    13748.814 
  148800    313.60332   -6061.3751    31.782926    -6093.158    2592.3404 
  149000    288.45515   -6059.2499    29.234221   -6088.4842    19940.048 
  149200    320.02233   -6055.1733    32.433476   -6087.6068   -9377.7065 
  149400    369.10278   -6044.6963    37.407659    -6082.104    -15401.49 
  149600    258.25027    -6058.976     26.17303   -6085.1491      5597.43 
  149800    248.05395   -6061.5115    25.139658   -6086.6512   -28208.438 
  150000    332.52781   -6049.0342    33.700876   -6082.7351    -7683.763 
  150200    317.70835   -6063.5143     32.19896   -6095.7133   -23413.605 
  150400    272.97509   -6058.4466    27.665354    -6086.112   -7367.5323 
  150600      306.229   -6052.6703    31.035556   -6083.7058   -10379.553 
  150800    300.92652   -6057.4316    30.498163   -6087.9298   -22776.217 
  151000     323.1967   -6064.9111    32.755191   -6097.6663   -2964.2047 
  151200    400.50096   -6048.8089    40.589787   -6089.3987    3922.0999 
  151400    298.10733    -6055.522    30.212445   -6085.7344         2107 
  151600    332.62233   -6059.6445    33.710456   -6093.3549    3665.2416 
  151800    312.65052   -6055.8519    31.686362   -6087.5382    7890.6738 
  152000    424.96567   -6040.0817    43.069226   -6083.1509    6858.9151 
  152200    252.70881   -6059.6258    25.611416   -6085.2372    19253.642 
  152400    271.44441   -6060.2225    27.510224   -6087.7327    7744.3862 
  152600    363.91464   -6054.2383    36.881854   -6091.1202    3114.2524 
  152800    343.52437   -6055.0137     34.81535    -6089.829   -17076.381 
  153000    262.71484   -6063.8256    26.625503   -6090.4511     11448.91 
  153200    291.94358    -6057.034    29.587764   -6086.6218   -24458.281 
  153400    304.55933   -6055.1113     30.86634   -6085.9777    8898.1955 
  153600    233.15549   -6062.3155    23.629736   -6085.9452     35052.42 
  153800    240.78432   -6068.5542    24.402899   -6092.9571    8281.2148 
  154000    287.39241   -6059.2535    29.126514     -6088.38   -1226.8021 
  154200    310.33381   -6059.5819    31.451569   -6091.0334    290.63018 
  154400    255.71866   -6069.9277    25.916458   -6095.8442     12563.59 
  154600    325.98388   -6060.6617    33.037664   -6093.6994   -4418.7866 
  154800    293.36756   -6054.2902    29.732081   -6084.0223     16430.47 
  155000    260.24166   -6064.0012    26.374852   -6090.3761    24043.352 
  155200    255.09876   -6063.2553    25.853633   -6089.1089   -30742.933 
  155400    362.98003   -6052.8943    36.787133   -6089.6815   -15999.077 
  155600    268.24178   -6060.1661    27.185645   -6087.3518    19744.597 
  155800    302.94143   -6062.1596    30.702369    -6092.862   -8889.9047 
  156000    360.81778   -6050.7343    36.567995   -6087.3023    20657.997 
  156200    272.50092    -6058.182    27.617298   -6085.7993    536.58811 
  156400    267.96924   -6063.3155    27.158023   -6090.4736    8200.2212 
  156600    322.00512   -6051.5625    32.634427   -6084.1969    10222.035 
  156800    289.62332   -6066.0524    29.352612    -6095.405   -2573.7061 
  157000    288.39992   -6063.7578    29.228623   -6092.9864   -1222.1789 
  157200    320.48642     -6054.45     32.48051   -6086.9306    11975.495 
  157400    203.24519   -6070.0989      20.5984   -6090.6973   -6729.7675 
  157600    232.50946   -6065.6428    23.564262    -6089.207    199.93028 
  157800    268.54658   -6056.1325    27.216535    -6083.349    29980.826 
  158000    300.82334     -6059.97    30.487706   -6090.4577    4910.7658 
  158200    259.43829   -6068.0308    26.293432   -6094.3242    20125.136 
  158400    314.61628   -6056.6302    31.885587   -6088.5158   -16468.102 
  158600    310.28607   -6053.2076     31.44673   -6084.6544    11957.757 
  158800    382.59593   -6045.6368    38.775157   -6084.4119   -7663.6825 
  159000     295.8694   -6060.6323    29.985636    -6090.618    3768.5591 
  159200    267.29078   -6053.0706    27.089263   -6080.1598   -276.28585 
  159400    332.23666   -6047.8304    33.671368   -6081.5018    24136.496 
  159600    228.72034   -6062.8611    23.180244   -6086.0413   -14434.376 
  159800    367.00919   -6050.7061    37.195479   -6087.9016    10844.471 
  160000    272.95504   -6064.1681    27.663322   -6091.8314   -10785.487 
  160200    290.03644   -6062.9738    29.394481   -6092.3683    17562.466 
  160400    377.07995   -6050.4232    38.216126   -6088.6393   -14647.596 
  160600    276.64705   -6067.3611    28.037499   -6095.3986    5478.0068 
  160800    378.66449   -6055.0559    38.376715   -6093.4326    11429.861 
  161000    367.79945    -6051.699     37.27557   -6088.9745   -12054.691 
  161200    274.16624   -6064.6048    27.786074   -6092.3909    15275.686 
  161400    312.29228    -6053.541    31.650055   -6085.1911    6216.6151 
  161600    299.27783   -6049.3706    30.331072   -6079.7017   -6310.5754 
  161800    278.19232   -6062.9539    28.194108   -6091.1481   -8359.4267 
  162000    315.53294   -6053.3554    31.978488   -6085.3339    29721.345 
  162200    411.67379   -6037.6639    41.722126    -6079.386    1802.4485 
  162400    362.35555   -6048.9019    36.723844   -6085.6257    13101.439 
  162600     289.3152   -6058.2752    29.321384   -6087.5965   -12917.091 
  162800    286.11957    -6058.242    28.997515   -6087.2395   -14958.587 
  163000    357.82678   -6057.3623    36.264864   -6093.6271    6861.4488 
  163200    244.18621   -6068.7575    24.747673   -6093.5051    663.27951 
  163400    260.56401   -6056.3203    26.407522   -6082.7279   -2348.5038 
  163600    303.55916   -6059.8728    30.764975   -6090.6378    15857.474 
  163800    229.96069   -6070.7102     23.30595   -6094.0162   -14735.256 
  164000    307.81682   -6061.2421    31.196478   -6092.4386    25960.481 
  164200    312.75969   -6057.2421    31.697426   -6088.9395   -17707.544 
  164400    255.13233   -6064.3599    25.857035    -6090.217    8978.8326 
  164600    397.11666   -6050.0316    40.246797   -6090.2784   -9157.6546 
  164800    289.70099   -6061.4862    29.360483   -6090.8467    17143.297 
  165000    270.88345   -6058.4891    27.453372   -6085.9425    6653.3493 
  165200    336.02874   -6054.7906    34.055687   -6088.8463     11853.93 
  165400    188.63183   -6068.9446    19.117372    -6088.062   -2628.2936 
  165600    276.84955   -6059.5027    28.058022   -6087.5607    17417.111 
  165800    304.56407    -6057.848     30.86682   -6088.7148   -23071.674 
  166000    237.52668   -6067.6935    24.072745   -6091.7663    4243.7007 
  166200    310.12918   -6056.6077    31.430831   -6088.0386    1082.8844 
  166400    293.71252   -6058.8759    29.767042    -6088.643   -13602.652 
  166600    232.61138   -6069.0556    23.574592   -6092.6302    2461.3487 
  166800    309.40983   -6057.1096    31.357925   -6088.4675   -15120.787 
  167000    309.27687   -6053.8727    31.344451   -6085.2171    14103.633 
  167200    264.40267   -6065.2295     26.79656   -6092.0261    23596.727 
  167400    353.95716   -6056.9064    35.872688   -6092.7791    3478.1672 
  167600      306.428   -6056.9194    31.055724   -6087.9752   -1582.3297 
  167800    294.55485   -6059.4301     29.85241   -6089.2825   -5024.9278 
  168000     233.8075   -6067.1335    23.695815   -6090.8293   -18456.698 
  168200    321.56315   -6057.7411    32.589635   -6090.3307    18829.556 
  168400    338.78733   -6052.0414    34.335263   -6086.3766   -2898.6816 
  168600    337.82475   -6057.1883    34.237708    -6091.426     3300.829 
  168800    279.54595   -6064.4741    28.331295   -6092.8054    -27815.46 
  169000    417.23964   -6049.5918    42.286212    -6091.878   -5762.1097 
  169200    310.33804   -6062.1112    31.451997   -6093.5632   -3621.6212 
  169400    315.57379   -6062.0033    31.982628   -6093.9859     28532.76 
  169600     318.7088   -6056.1184    32.300354   -6088.4188   -7117.3498 
  169800    399.38798   -6043.4669     40.47699   -6083.9439    6805.5282 
  170000    295.52537   -6059.7984     29.95077   -6089.7492    207.91757 
  170200    258.27958   -6058.0735       26.176   -6084.2495    11693.914 
  170400    354.64117   -6046.6728     35.94201   -6082.6148   -8895.8212 
  170600    302.30517   -6057.6524    30.637885   -6088.2903    12315.369 
  170800    286.61125   -6059.0822    29.047346   -6088.1296    22358.465 
  171000    348.54422   -6049.3817    35.324099   -6084.7058   -11568.513 
  171200     305.2157   -6062.4515    30.932861   -6093.3844    3105.6736 
  171400    285.95795   -6055.6716    28.981135   -6084.6527   -5185.7962 
  171600    426.46323     -6037.52       43.221    -6080.741    1041.2347 
  171800    301.66987   -6051.4115      30.5735    -6081.985    17241.174 
  172000    288.26787   -6062.0331     29.21524   -6091.2483    20267.488 
  172200    236.76702   -6064.9066    23.995755   -6088.9023   -13109.115 
  172400    332.61327   -6049.8821    33.709537   -6083.5916    19402.578 
  172600    286.28628   -6063.4701    29.014411   -6092.4845   -1072.7025 
  172800    301.31034   -6059.3958    30.537062   -6089.9328   -19300.684 
  173000    379.32164   -6047.9303    38.443316   -6086.3736   -3492.0548 
  173200    281.44429   -6056.4872    28.523687   -6085.0109   -29342.164 
  173400    291.48677   -6053.0541    29.541467   -6082.5956    7570.6729 
  173600    310.29751   -6046.0984     31.44789   -6077.5463   -803.46372 
  173800    276.03357   -6057.3459    27.975324   -6085.3213    11061.464 
  174000    353.47013   -6047.3547    35.823329    -6083.178   -15054.342 
  174200    266.91691   -6060.2472    27.051372   -6087.2985    27246.014 
  174400    298.24387   -6056.5042    30.226284   -6086.7305   -24012.215 
  174600    337.19095   -6064.2187    34.173474   -6098.3922    25628.699 
  174800    242.96506   -6071.4954    24.623911   -6096.1193   -8189.3613 
  175000    273.56946   -6060.8136    27.725592   -6088.5392    2328.5136 
  175200    316.90036   -6050.7914    32.117073   -6082.9085   -22065.098 
  175400    350.01727   -6044.6899     35.47339   -6080.1632   -528.54535 
  175600    294.74341   -6059.7663     29.87152   -6089.6379   -291.16023 
  175800    338.23629   -6050.3714    34.279416   -6084.6508   -2446.8328 
  176000    256.68276   -6064.6904    26.014167   -6090.7045   -5270.2616 
  176200    298.21948   -6059.9976    30.223812   -6090.2214   -8037.8735 
  176400    378.69861   -6042.9686    38.380173   -6081.3487    10782.412 
  176600    319.04347   -6056.4098    32.334271   -6088.7441   -10607.856 
  176800    317.60017   -6057.7133    32.187997   -6089.9013    14034.592 
  177000    345.63453   -6046.9668     35.02921    -6081.996   -4438.1979 
  177200    340.78333   -6054.7269    34.537553   -6089.2645    1502.2237 
  177400    314.22025   -6062.3291     31.84545   -6094.1746   -11706.898 
  177600    363.76837   -6053.8161     36.86703   -6090.6831    15356.875 
  177800    225.27846   -6065.4399    22.831418   -6088.2713    13038.349 
  178000    342.54948   -6054.9401    34.716548   -6089.6566   -7111.3559 
  178200     279.0715   -6059.7679     28.28321   -6088.0511    799.77615 
  178400      337.733   -6061.7337    34.228409   -6095.9621   -3091.9883 
  178600    346.95611   -6053.7924    35.163149   -6088.9555   -1249.0429 
  178800    246.72929     -6066.85    25.005407   -6091.8554    14578.139 
  179000    319.22245   -6054.8134    32.352411   -6087.1658    423.66355 
  179200    302.66328   -6057.1583    30.674179   -6087.8325    1718.1392 
  179400    290.40342   -6057.9483    29.431673     -6087.38    7235.2291 
[...]
  950000    225.97665   -6069.5777    22.902178   -6092.4799    4163.5055 
  950200    303.62724   -6058.3023    30.771874   -6089.0741    4076.6073 
  950400    335.69881    -6059.368     34.02225   -6093.3902    -2692.419 
  950600    287.41326   -6061.2394    29.128627    -6090.368   -7409.4633 
  950800    324.14978   -6050.6796    32.851784   -6083.5314    3506.6818 
  951000    282.62761    -6059.139    28.643614   -6087.7826    20094.769 
  951200    302.37829   -6061.2486    30.645296   -6091.8939    15919.026 
  951400    368.70935   -6047.9606    37.367787   -6085.3284   -4675.1235 
  951600    283.03325   -6063.3372    28.684724   -6092.0219   -41338.242 
  951800    321.54107   -6058.3086    32.587397    -6090.896    7517.1938 
  952000    334.44672   -6049.7931    33.895353   -6083.6885   -15017.388 
  952200    305.16846   -6067.4935    30.928073   -6098.4216    3944.7706 
  952400    304.88203   -6059.8524    30.899044   -6090.7514    30700.145 
  952600    322.32797   -6054.5382    32.667147   -6087.2053   -1266.0856 
  952800    270.13143   -6070.2418    27.377156    -6097.619   -13851.159 
  953000    292.49674   -6062.0258    29.643825   -6091.6696   -22994.504 
  953200    283.96979   -6056.8052     28.77964   -6085.5849    11449.099 
  953400    310.83492   -6065.4677    31.502355   -6096.9701   -20256.024 
  953600    256.69762   -6063.7001    26.015672   -6089.7158    12213.431 
  953800    271.19532   -6055.5591    27.484979   -6083.0441    21985.862 
  954000    241.01552    -6061.205    24.426331   -6085.6313    4308.9053 
  954200    366.31814   -6048.3431    37.125443   -6085.4685     1338.137 
  954400    304.29015   -6055.8738    30.839059   -6086.7129   -12097.442 
  954600    251.98576   -6063.8654    25.538137   -6089.4035   -12885.944 
  954800    321.05388   -6056.1371    32.538022   -6088.6751    4934.5237 
  955000    306.61308   -6062.2503    31.074482   -6093.3248   -2081.5483 
  955200    313.24618   -6057.9967     31.74673   -6089.7435   -1963.9671 
  955400    398.31366   -6046.4401     40.36811   -6086.8082   -3802.9239 
  955600      278.747   -6060.3443    28.250324   -6088.5946   -14900.006 
  955800    255.57024   -6059.3728    25.901415   -6085.2743    4120.2001 
  956000    390.39588   -6044.5066    39.565662   -6084.0723   -30744.485 
  956200    269.94998   -6057.3166    27.358766   -6084.6753    2562.2087 
  956400    267.77097   -6063.9916    27.137929   -6091.1295    1987.0325 
  956600     341.8752   -6052.6544    34.648211   -6087.3026   -19324.474 
  956800    308.37193   -6053.5264    31.252737   -6084.7791    7608.6906 
  957000    301.32623   -6061.4087    30.538673   -6091.9474   -2684.3998 
  957200    350.02505   -6055.0926    35.474178   -6090.5668   -7907.5852 
  957400    258.44193   -6049.3863    26.192454   -6075.5787    13252.094 
  957600     237.1021   -6061.9869    24.029715   -6086.0166   -8290.1605 
  957800    338.69415   -6051.9114     34.32582   -6086.2372   -5886.5496 
  958000    364.19555   -6052.6824    36.910324   -6089.5927   -8042.5513 
  958200     298.9605   -6062.8256    30.298912   -6093.1245    11385.254 
  958400    407.69131   -6049.8654    41.318512   -6091.1839   -9267.2372 
  958600    256.99265   -6049.5953    26.045573   -6075.6409    39633.562 
  958800    314.37036   -6061.8892    31.860664   -6093.7499    6845.8142 
  959000    260.32331   -6063.8919    26.383127    -6090.275   -3356.8877 
  959200    240.89011    -6058.312     24.41362   -6082.7256    13603.769 
  959400    298.16563   -6052.5322    30.218354   -6082.7505    728.63233 
  959600      232.169   -6064.4925    23.529757   -6088.0223   -11185.271 
  959800    386.11054   -6055.0248    39.131354   -6094.1562   -3105.3569 
  960000    357.80806   -6049.7936    36.262967   -6086.0565    -16455.16 
  960200    274.21047   -6064.5826    27.790557   -6092.3732    16416.519 
  960400    250.25646   -6063.0292    25.362877   -6088.3921    -10938.49 
  960600    283.72166   -6056.1676    28.754493   -6084.9221    2312.2734 
  960800    262.82529   -6066.4892    26.636697   -6093.1259   -3715.7331 
  961000      300.221   -6063.4677     30.42666   -6093.8944    28913.774 
  961200    334.16516   -6056.6885    33.866818   -6090.5553   -4787.2975 
  961400    324.41491   -6051.3575    32.878654   -6084.2361   -3064.9249 
  961600    299.72768   -6056.6414    30.376664    -6087.018    6815.6732 
  961800    241.18352   -6061.8061    24.443357   -6086.2494    -6452.491 
  962000    312.66698    -6046.387     31.68803    -6078.075    18022.258 
  962200    267.91631   -6054.8329    27.152659   -6081.9855    -2755.121 
  962400    272.68384   -6061.1807    27.635836   -6088.8165   -7403.2747 
  962600    392.71634   -6052.6053    39.800835   -6092.4062    5633.4158 
  962800    303.77332    -6044.635    30.786679   -6075.4217   -42622.448 
  963000    274.35413   -6062.1201    27.805117   -6089.9252    3981.0672 
  963200    290.58469   -6056.1725    29.450044   -6085.6225   -730.54223 
  963400     256.9889   -6050.1504    26.045193   -6076.1956   -4063.3076 
  963600    292.83596   -6059.5275    29.678205   -6089.2057   -1709.6539 
  963800    290.62544   -6063.1078    29.454173    -6092.562   -10646.078 
  964000     242.1859   -6065.3268    24.544946   -6089.8717   -6456.3574 
  964200    324.85574   -6053.6538    32.923331   -6086.5771    23546.303 
  964400    280.52865    -6065.527    28.430889   -6093.9579   -17264.909 
  964600    299.95907    -6061.544    30.400114   -6091.9441    3135.2609 
  964800    328.24988   -6054.2552    33.267318   -6087.5225     7587.782 
  965000    348.47753   -6057.6278    35.317341   -6092.9452   -6010.9554 
  965200    260.57137   -6061.0635    26.408268   -6087.4718    9671.8898 
  965400     374.9678   -6045.8206    38.002065   -6083.8227   -22423.909 
  965600    328.71848   -6056.9279     33.31481   -6090.2427   -20707.596 
  965800    267.08222    -6056.097    27.068126   -6083.1651    10570.677 
  966000    357.44452   -6042.4642    36.226124   -6078.6903   -8744.3319 
  966200    325.93732   -6055.5234    33.032946   -6088.5564    16997.157 
  966400    226.86304   -6063.4051    22.992012   -6086.3971   -2434.8573 
  966600    245.35557   -6054.3975    24.866184   -6079.2636    23283.264 
  966800    277.79835   -6061.1828     28.15418   -6089.3369   -7468.7502 
  967000     294.4916   -6063.9222       29.846   -6093.7682    2495.7198 
  967200    425.72233   -6047.3504    43.145911   -6090.4963     14895.53 
  967400    327.23031   -6056.8153    33.163988   -6089.9792   -6380.8467 
  967600    281.40722   -6064.3149     28.51993   -6092.8349    14306.597 
  967800    373.74364   -6047.0876    37.877999   -6084.9656    4571.8525 
  968000    325.72495   -6055.7328    33.011423   -6088.7442   -22311.559 
  968200    327.47654   -6060.7302    33.188942   -6093.9192    9358.7915 
  968400    356.13282   -6044.6517    36.093186   -6080.7449   -20354.423 
  968600    282.80473    -6051.762    28.661564   -6080.4235    11919.326 
  968800    312.75855   -6059.4405     31.69731   -6091.1378   -34565.739 
  969000    249.82526   -6050.4494    25.319176   -6075.7685    14116.841 
  969200    332.83666   -6051.1097    33.732178   -6084.8418    3219.2679 
  969400     335.7705   -6058.2431    34.029515   -6092.2727    3039.0482 
  969600    330.12183   -6054.2941    33.457036   -6087.7511   -7558.0737 
  969800    351.91301   -6051.8834    35.665519   -6087.5489   -5269.4279 
  970000     275.7233   -6065.1465    27.943878   -6093.0904    4933.5316 
  970200    331.32599   -6052.9438    33.579075   -6086.5229   -7417.4475 
  970400    319.30366   -6052.1292    32.360641   -6084.4899    16272.165 
  970600    290.73557   -6062.7121    29.465336   -6092.1774   -5242.9791 
  970800     308.0378   -6054.5709    31.218874   -6085.7898    7796.3798 
  971000    335.90453   -6053.6095    34.043098   -6087.6526   -9359.1237 
  971200    257.64795   -6061.5914    26.111986   -6087.7034    11366.648 
  971400    275.32263   -6054.7373    27.903272   -6082.6406    13354.007 
  971600     366.1018   -6049.1037    37.103517   -6086.2072    8779.3084 
  971800    322.54006   -6055.4826    32.688642   -6088.1712    8178.1877 
  972000    271.12456   -6053.0198    27.477808   -6080.4976      -1092.3 
  972200    306.14905   -6054.4355    31.027453    -6085.463    32281.189 
  972400    255.51453   -6062.6927    25.895769   -6088.5884    24263.052 
  972600    360.57202    -6052.594    36.543088   -6089.1371   -17757.857 
  972800     378.4349   -6053.6625    38.353447    -6092.016   -5981.3828 
  973000    294.00379   -6061.0843    29.796561   -6090.8809    20198.077 
  973200    303.98406   -6059.0888    30.808038   -6089.8968   -22442.061 
  973400    285.42138   -6055.0215    28.926755   -6083.9482    24356.575 
  973600    282.58719   -6063.8079    28.639517   -6092.4474    2855.3074 
  973800     267.9748   -6065.5911    27.158587   -6092.7497   -10630.978 
  974000    289.68018   -6054.6954    29.358374   -6084.0538   -25106.921 
  974200    291.40939   -6063.6178    29.533626   -6093.1514    31040.729 
  974400    369.84077   -6046.7091    37.482453   -6084.1915    -19284.37 
  974600    320.17032   -6052.5622    32.448474   -6085.0107    5058.8527 
  974800    305.22048   -6058.6432    30.933345   -6089.5765    196.18922 
  975000    254.03341   -6059.4234    25.745662   -6085.1691   -5081.9951 
  975200    402.79102   -6047.8506     40.82188   -6088.6725   -26189.948 
  975400    273.77235   -6060.9053    27.746155   -6088.6514    6560.3942 
  975600    278.64133   -6056.8913    28.239614   -6085.1309    5404.1327 
  975800    415.75408   -6042.8889    42.135654   -6085.0246   -722.88817 
  976000    272.46647   -6063.1391    27.613807   -6090.7529     -15622.9 
  976200    351.79448   -6055.7259    35.653506   -6091.3794    -3897.929 
  976400    310.08317   -6051.3616    31.426167   -6082.7878   -18374.819 
  976600    294.97258   -6064.3886    29.894746   -6094.2833    6079.3633 
  976800    318.06658   -6059.9098    32.235266   -6092.1451   -3872.8831 
  977000    384.37052   -6044.6652    38.955007   -6083.6202    17376.767 
  977200    289.80288   -6060.8138     29.37081   -6090.1846    27929.045 
  977400    230.07455   -6064.4322     23.31749   -6087.7497   -14015.096 
  977600    286.73091   -6050.3823    29.059473   -6079.4418    4662.6359 
  977800    339.23942   -6055.9777    34.381082   -6090.3587   -4743.1885 
  978000    228.97497   -6069.4197    23.206051   -6092.6258   -10571.685 
  978200    279.16243   -6060.3368    28.292426   -6088.6292   -5735.3195 
  978400    300.33105   -6052.9448    30.437814   -6083.3826   -8612.3201 
  978600    198.97494   -6067.5771    20.165621   -6087.7428    17907.445 
  978800    252.24526   -6057.5885    25.564437   -6083.1529   -13972.799 
  979000    291.00011   -6058.3581    29.492146   -6087.8502    1325.3797 
  979200    342.15696   -6053.9691    34.676767   -6088.6459   -11628.229 
  979400    323.75084   -6060.1059    32.811352   -6092.9173   -13208.553 
  979600    263.95185   -6064.2035    26.750871   -6090.9543    11272.142 
  979800    298.94642   -6055.1572    30.297484   -6085.4547    7979.7421 
  980000    301.20104   -6055.4983    30.525985   -6086.0243    12922.493 
  980200    360.52236   -6043.6676    36.538055   -6080.2056    -28204.21 
  980400    324.68651   -6051.0047     32.90618   -6083.9109    12872.356 
  980600    306.47998   -6060.5147    31.060993   -6091.5757    24634.667 
  980800    274.86672   -6065.2259    27.857066    -6093.083    25976.606 
  981000    323.23262   -6052.6007    32.758832   -6085.3595   -2225.6563 
  981200    273.03089   -6062.1251    27.671009   -6089.7961   -11559.747 
  981400    261.21728   -6070.1655    26.473729   -6096.6392   -2848.7408 
  981600    323.62106   -6061.5471    32.798199   -6094.3453   -5116.5276 
  981800     317.7257   -6055.9914    32.200719   -6088.1922     -13447.9 
  982000    280.40889   -6066.5412    28.418751   -6094.9599     -5156.37 
  982200    259.92866   -6065.7704    26.343131   -6092.1135    -5629.532 
  982400     321.2595   -6052.6349     32.55886   -6085.1937    2188.2658 
  982600    265.44138   -6061.2309    26.901831   -6088.1328   -21310.117 
  982800    252.84082     -6065.44    25.624796   -6091.0648    4101.6817 
  983000    362.23693   -6054.2478    36.711823   -6090.9596    1645.7152 
  983200    307.46609   -6057.0192    31.160932   -6088.1802   -2228.4875 
  983400    282.37332   -6067.3318    28.617842   -6095.9497   -5992.6042 
  983600    313.65093   -6052.3615     31.78775   -6084.1493    12245.909 
  983800    275.98775   -6055.4194     27.97068   -6083.3901   -13308.644 
  984000    259.93185   -6070.0874    26.343454   -6096.4309    3012.6729 
  984200    307.64115   -6062.8984    31.178674   -6094.0771    1620.2554 
  984400     346.9998    -6056.598    35.167577   -6091.7655   -15709.368 
  984600     293.2805   -6065.4355    29.723258   -6095.1587    12054.567 
  984800    290.52723   -6067.3812     29.44422   -6096.8254    8641.4616 
  985000    368.63928   -6058.7825    37.360685   -6096.1432    5200.2726 
  985200    327.35495   -6059.9022     33.17662   -6093.0788     26723.53 
  985400    278.65256   -6052.1759    28.240751   -6080.4166    393.38502 
  985600    294.83374   -6054.8877    29.880675   -6084.7683    19607.113 
  985800      272.524   -6064.0763    27.619637   -6091.6959   -393.80749 
  986000    333.09523   -6054.2479    33.758383   -6088.0062    15603.257 
  986200    322.83197   -6056.2339    32.718227   -6088.9521    21870.411 
  986400    225.61273   -6070.6765    22.865296   -6093.5418    3866.8251 
  986600    317.42175   -6055.8948    32.169914   -6088.0647    11996.332 
  986800    283.44879   -6054.1071    28.726838   -6082.8339    6593.0685 
  987000    374.68606   -6052.5156    37.973511   -6090.4892   -29936.898 
  987200    227.12321   -6061.9384    23.018379   -6084.9568    9205.7605 
  987400    356.08186   -6052.7016    36.088021   -6088.7896    5512.7633 
  987600    243.52007   -6065.5306     24.68016   -6090.2108   -11945.129 
  987800    241.38348   -6063.1622    24.463622   -6087.6258     15321.96 
  988000    290.70797   -6055.6581    29.462538   -6085.1207   -16958.264 
  988200    223.02687   -6070.6054    22.603225   -6093.2087   -9245.1846 
  988400    311.32473   -6059.7529    31.551996   -6091.3049    4193.8018 
  988600    297.81482   -6055.8804      30.1828   -6086.0632   -9752.9153 
  988800    273.93646   -6065.2809    27.762787   -6093.0436    24763.854 
  989000    296.57587   -6059.1234    30.057235   -6089.1806   -12339.145 
  989200    265.78213   -6054.1379    26.936365   -6081.0742    20457.682 
  989400    262.18299   -6061.7781    26.571602   -6088.3497   -3645.7674 
  989600    231.24927   -6070.0459    23.436545   -6093.4825   -17992.017 
  989800    255.96477   -6058.5924      25.9414   -6084.5338     38972.04 
  990000    297.99613    -6059.363    30.201175   -6089.5642    -4505.558 
  990200    310.91834   -6059.6947    31.510809   -6091.2055    13803.277 
  990400    269.97143   -6063.1364    27.360941   -6090.4974    14129.173 
  990600    326.35647   -6056.8921    33.075426   -6089.9675   -19253.849 
  990800    234.22034   -6054.5924    23.737656   -6078.3301    14221.516 
  991000    255.16522   -6066.0232    25.860368   -6091.8836   -5775.6489 
  991200    316.59397   -6059.8933    32.086021   -6091.9793    22940.758 
  991400    250.91685    -6059.016    25.429806   -6084.4458    4169.0995 
  991600     356.6662   -6048.5983    36.147243   -6084.7456   -13101.422 
  991800    313.71547    -6055.918    31.794292   -6087.7123   -24412.774 
  992000    271.17321   -6062.8589    27.482738   -6090.3416   -10628.113 
  992200    338.03885    -6047.758    34.259406   -6082.0174    9470.4123 
  992400    313.39127   -6055.7068    31.761435   -6087.4683   -3374.0932 
  992600    267.87844   -6063.0193    27.148821   -6090.1681    -9954.837 
  992800    302.02125   -6047.8424    30.609111   -6078.4515   -21177.732 
  993000    329.40399   -6057.3729    33.384285   -6090.7572   -27700.964 
  993200    276.36043   -6062.5188     28.00845   -6090.5272     17175.35 
  993400    359.63492   -6055.3066    36.448115   -6091.7547   -5219.0047 
  993600    336.27279   -6049.1136     34.08042    -6083.194    11754.432 
  993800    293.91126   -6064.4873    29.787183   -6094.2745   -13245.729 
  994000    306.41054   -6058.7952    31.053955   -6089.8491    18007.627 
  994200    311.28441   -6051.0981     31.54791    -6082.646   -14641.853 
  994400    285.75868   -6060.4538     28.96094   -6089.4147    3216.5311 
  994600    246.04861    -6062.267    24.936422   -6087.2034   -12541.793 
  994800    429.29077   -6048.5682    43.507564   -6092.0758    31227.508 
  995000    242.30856    -6063.004    24.557377   -6087.5614   -4634.0209 
  995200     260.3251   -6060.1761    26.383308   -6086.5594    3863.3809 
  995400      351.741   -6044.2402    35.648086   -6079.8883    12867.963 
  995600    312.42673   -6055.8023    31.663681    -6087.466      21336.2 
  995800    274.09136   -6062.1314    27.778486   -6089.9099   -3967.2516 
  996000    314.55243   -6046.7168    31.879115   -6078.5959   -7419.4952 
  996200    286.26852   -6060.3148    29.012611   -6089.3274   -15103.755 
  996400    289.19965   -6060.9598    29.309674   -6090.2695    12013.284 
  996600    274.06483   -6061.9567    27.775797   -6089.7325   -17569.551 
  996800    376.11543   -6048.4216    38.118374     -6086.54    325.48541 
  997000    264.76161   -6060.4432    26.832938   -6087.2762   -5106.5341 
  997200    310.57929   -6056.6702    31.476448   -6088.1467    2584.3671 
  997400    350.03212   -6042.3609    35.474895   -6077.8358   -20843.409 
  997600    298.72781   -6053.4479    30.275329   -6083.7232   -19923.945 
  997800    304.99753   -6057.4676     30.91075   -6088.3784   -1632.9437 
  998000    214.59919   -6065.3281      21.7491   -6087.0772   -14902.099 
  998200    304.75731    -6050.962    30.886405   -6081.8484    4056.8778 
  998400    338.01255   -6062.0254    34.256741   -6096.2822     29306.77 
  998600    303.95692   -6054.5975    30.805287   -6085.4028    6581.2404 
  998800     284.9251   -6057.5495    28.876459    -6086.426    2402.6272 
  999000    309.23795   -6062.4991    31.340506   -6093.8396     13550.86 
  999200    327.69165   -6049.7225    33.210744   -6082.9333     12641.47 
  999400     280.8238   -6053.8307    28.460802   -6082.2915   -193.94227 
  999600    307.87986   -6062.1605    31.202867   -6093.3634   -10751.336 
  999800    273.76148   -6063.5133    27.745053   -6091.2583    599.69217 
 1000000     373.7928   -6050.8292    37.882982   -6088.7122    17203.581 
Loop time of 1530.35 on 8 procs for 1000000 steps with 35 atoms

Performance: 14.114 ns/day, 1.700 hours/ns, 653.446 timesteps/s
99.5% CPU use with 8 MPI tasks x no OpenMP threads

MPI task timing breakdown:
Section |  min time  |  avg time  |  max time  |%varavg| %total
---------------------------------------------------------------
Pair    | 1052.3     | 1091.9     | 1163.6     | 109.4 | 71.35
Neigh   | 0.41235    | 0.43699    | 0.45763    |   2.1 |  0.03
Comm    | 12.784     | 83.95      | 124.09     | 393.8 |  5.49
Output  | 0.066757   | 0.072847   | 0.11107    |   5.4 |  0.00
Modify  | 352.06     | 352.58     | 353.07     |   1.7 | 23.04
Other   |            | 1.416      |            |       |  0.09

Nlocal:    4.375 ave 9 max 0 min
Histogram: 3 0 1 0 0 0 0 0 3 1
Nghost:    417.125 ave 425 max 410 min
Histogram: 2 0 0 0 3 1 0 0 0 2
Neighs:    472.625 ave 1032 max 0 min
Histogram: 3 0 1 0 0 0 0 2 1 1

Total # of neighbors = 3781
Ave neighs/atom = 108.029
Neighbor list builds = 960
Dangerous builds = 0

Please see the log.cite file for references relevant to this simulation

Total wall time: 0:25:37
