ITEM: TIMESTEP
0
ITEM: NUMBER OF ATOMS
323
ITEM: BOX BOUNDS pp pp pp
0.0000000000000000e+00 1.9018000000000001e+01
0.0000000000000000e+00 1.9018000000000001e+01
0.0000000000000000e+00 1.9018000000000001e+01
ITEM: ATOMS id type x y z 
10 1 6.117 6.117 0.228 
22 1 0.228 6.117 6.117 
34 1 6.117 0.228 6.117 
89 1 3.299 4.982 1.363 
90 1 1.962 4.752 0.945 
97 1 4.982 3.299 1.363 
98 1 4.752 3.716 2.699 
105 1 3.299 1.362 4.982 
106 1 3.716 2.699 4.752 
121 1 4.982 1.362 3.299 
122 1 4.752 0.945 1.962 
125 1 8.053 8.053 0.228 
127 1 0.422 4.239 4.239 
130 1 4.239 0.422 4.239 
133 1 0.422 0.422 0.422 
136 1 4.239 4.239 0.422 
157 1 1.363 3.299 4.982 
158 1 0.945 1.962 4.752 
165 1 1.363 4.982 3.299 
166 1 2.699 4.752 3.716 
189 1 0.228 8.053 8.053 
207 1 8.053 0.228 8.053 
277 1 4.752 1.962 0.945 
284 1 3.716 4.752 2.699 
297 1 2.699 3.716 4.752 
306 1 0.945 4.752 1.962 
315 1 1.962 0.945 4.752 
319 1 4.752 2.699 3.716 
11 1 7.454 5.7 19.015 
16 1 4.433 6.117 17.562 
17 1 4.664 7.454 17.979 
25 1 6.117 4.433 17.562 
26 1 5.7 4.664 16.225 
39 1 8.994 8.994 18.502 
42 1 5.176 5.176 18.502 
43 1 1.363 1.362 18.696 
44 1 0.945 2.699 18.927 
45 1 5.176 8.994 14.685 
48 1 8.994 5.176 14.685 
79 1 3.299 3.299 18.696 
80 1 3.716 1.962 18.927 
85 1 3.299 9.187 12.807 
86 1 1.962 9.418 13.224 
95 1 9.187 3.299 12.807 
96 1 9.418 3.716 11.47 
119 1 9.187 1.362 10.871 
120 1 9.418 0.945 12.208 
126 1 6.716 8.47 19.015 
144 1 9.506 6.716 17.979 
148 1 8.47 9.506 16.225 
161 1 1.363 9.187 10.871 
162 1 2.699 9.418 10.454 
179 1 6.117 8.053 13.942 
180 1 7.454 8.47 14.173 
185 1 4.433 8.053 15.626 
186 1 4.664 6.716 15.209 
200 1 5.7 9.506 16.963 
201 1 8.053 4.433 15.626 
202 1 8.47 4.664 16.963 
215 1 8.053 6.117 13.942 
216 1 6.716 5.7 14.173 
220 1 9.506 7.454 15.209 
227 1 2.699 0.945 18.927 
240 1 5.7 7.454 19.015 
242 1 7.454 4.664 17.979 
245 1 4.664 5.7 16.225 
252 1 8.47 6.716 19.015 
254 1 6.716 9.506 17.979 
257 1 9.506 8.47 16.225 
264 1 8.47 7.454 14.173 
266 1 6.716 4.664 15.209 
269 1 9.506 5.7 16.963 
274 1 1.962 3.716 18.927 
279 1 9.418 1.962 13.224 
281 1 3.716 9.418 11.47 
288 1 5.7 6.716 14.173 
290 1 7.454 9.506 15.209 
293 1 4.664 8.47 16.963 
307 1 0.945 9.418 12.208 
317 1 9.418 2.699 10.454 
4 1 6.117 17.562 4.433 
5 1 7.454 17.979 4.664 
13 1 4.433 17.562 6.117 
14 1 4.664 16.225 5.7 
35 1 5.7 19.015 7.454 
51 1 8.994 18.502 8.994 
54 1 5.176 18.502 5.176 
55 1 1.363 18.696 1.363 
56 1 2.699 18.927 0.945 
57 1 8.994 14.685 5.176 
60 1 5.176 14.685 8.994 
93 1 9.187 10.871 1.363 
94 1 9.418 10.454 2.699 
103 1 3.299 12.807 9.187 
104 1 3.716 11.47 9.418 
113 1 3.299 18.696 3.299 
114 1 1.962 18.927 3.716 
117 1 9.187 12.807 3.299 
118 1 9.418 13.224 1.962 
131 1 8.053 15.626 4.433 
132 1 6.716 15.209 4.664 
142 1 9.506 16.963 5.7 
149 1 8.053 13.942 6.117 
150 1 8.47 14.173 7.454 
155 1 1.363 10.871 9.187 
156 1 0.945 12.208 9.418 
184 1 7.454 15.209 9.506 
187 1 4.433 15.626 8.053 
188 1 4.664 16.963 8.47 
193 1 6.117 13.942 8.053 
194 1 5.7 14.173 6.716 
208 1 8.47 19.015 6.716 
212 1 6.716 17.979 9.506 
218 1 9.506 16.225 8.47 
235 1 0.945 18.927 2.699 
237 1 5.7 16.225 4.664 
244 1 7.454 19.015 5.7 
246 1 4.664 17.979 7.454 
249 1 8.47 16.963 4.664 
256 1 6.716 14.173 5.7 
258 1 9.506 15.209 7.454 
261 1 8.47 16.225 9.506 
268 1 6.716 19.015 8.47 
270 1 9.506 17.979 6.716 
280 1 9.418 12.208 0.945 
285 1 5.7 16.963 9.506 
292 1 7.454 14.173 8.47 
294 1 4.664 15.209 6.716 
299 1 2.699 10.454 9.418 
311 1 3.716 18.927 1.962 
313 1 1.962 13.224 9.418 
318 1 9.418 11.47 3.716 
15 1 0.422 9.931 9.931 
18 1 0.422 13.748 13.748 
19 1 0.228 17.562 17.562 
21 1 4.239 9.931 13.748 
24 1 4.239 13.748 9.931 
40 1 1.363 12.807 14.491 
41 1 0.945 11.47 14.26 
49 1 1.363 14.491 12.807 
50 1 2.699 14.26 13.224 
76 1 3.299 10.871 14.491 
77 1 3.716 12.208 14.26 
99 1 4.982 10.871 12.807 
100 1 4.752 10.454 11.47 
109 1 3.299 14.491 10.871 
110 1 1.962 14.26 10.454 
123 1 4.982 12.807 10.871 
124 1 4.752 13.224 12.208 
147 1 8.053 9.737 17.562 
183 1 6.117 15.626 9.737 
191 1 0.228 15.626 15.626 
199 1 6.117 9.737 15.626 
211 1 8.053 17.562 9.737 
225 1 2.699 13.224 14.26 
234 1 0.945 14.26 11.47 
276 1 1.962 10.454 14.26 
278 1 4.752 12.208 13.224 
310 1 3.716 14.26 12.208 
320 1 4.752 11.47 10.454 
321 2 9.382 10.708 18.483 
322 2 8.049 11.399 18.314 
323 3 8.296 12.17 17.805 
1 1 17.562 6.117 4.433 
2 1 16.225 5.7 4.664 
23 1 19.015 7.454 5.7 
28 1 17.562 4.433 6.117 
29 1 17.979 4.664 7.454 
63 1 18.502 8.994 8.994 
66 1 18.502 5.176 5.176 
67 1 18.696 1.362 1.363 
68 1 18.927 0.945 2.699 
69 1 14.685 5.176 8.994 
72 1 14.685 8.994 5.176 
87 1 10.871 9.187 1.363 
88 1 12.208 9.418 0.945 
101 1 10.871 1.362 9.187 
102 1 10.454 2.699 9.418 
134 1 15.626 8.053 4.433 
135 1 16.963 8.47 4.664 
139 1 13.942 8.053 6.117 
140 1 14.173 6.716 5.7 
146 1 15.209 9.506 7.454 
153 1 12.807 3.299 9.187 
154 1 13.224 1.962 9.418 
163 1 12.807 9.187 3.299 
164 1 11.47 9.418 3.716 
173 1 18.696 3.299 3.299 
174 1 18.927 3.716 1.962 
182 1 16.225 8.47 9.506 
190 1 19.015 6.716 8.47 
198 1 17.979 9.506 6.716 
203 1 15.626 4.433 8.053 
204 1 15.209 4.664 6.716 
210 1 16.963 5.7 9.506 
223 1 13.942 6.117 8.053 
224 1 14.173 7.454 8.47 
231 1 18.927 2.699 0.945 
238 1 17.979 7.454 4.664 
241 1 16.225 4.664 5.7 
248 1 19.015 5.7 7.454 
250 1 15.209 6.716 4.664 
253 1 16.963 9.506 5.7 
260 1 14.173 8.47 7.454 
262 1 15.209 7.454 9.506 
265 1 16.963 4.664 8.47 
272 1 14.173 5.7 6.716 
282 1 10.454 9.418 2.699 
286 1 17.979 6.716 9.506 
289 1 16.225 9.506 8.47 
296 1 19.015 8.47 6.716 
300 1 11.47 3.716 9.418 
304 1 18.927 1.962 3.716 
308 1 13.224 9.418 1.962 
314 1 12.208 0.945 9.418 
27 1 9.931 0.422 9.931 
30 1 13.748 0.422 13.748 
31 1 17.562 0.228 17.562 
33 1 13.748 4.239 9.931 
36 1 9.931 4.239 13.748 
37 1 12.807 1.362 14.491 
38 1 13.224 2.699 14.26 
64 1 14.491 1.362 12.807 
65 1 14.26 0.945 11.47 
73 1 10.871 3.299 14.491 
74 1 10.454 1.962 14.26 
91 1 10.871 4.982 12.807 
92 1 12.208 4.752 13.224 
143 1 9.737 8.053 17.562 
167 1 12.807 4.982 10.871 
168 1 11.47 4.752 10.454 
171 1 14.491 3.299 10.871 
172 1 14.26 3.716 12.208 
181 1 17.562 8.053 9.737 
205 1 15.626 0.228 15.626 
209 1 15.626 6.117 9.737 
219 1 9.737 6.117 15.626 
226 1 11.47 0.945 14.26 
229 1 14.26 2.699 13.224 
275 1 12.208 3.716 14.26 
283 1 10.454 4.752 11.47 
302 1 14.26 1.962 10.454 
305 1 13.224 4.752 12.208 
3 1 9.931 9.931 0.422 
6 1 13.748 13.748 0.422 
7 1 17.562 17.562 0.228 
9 1 9.931 13.748 4.239 
12 1 13.748 9.931 4.239 
52 1 12.807 14.491 1.363 
53 1 11.47 14.26 0.945 
61 1 14.491 12.807 1.363 
62 1 14.26 13.224 2.699 
107 1 10.871 12.807 4.982 
108 1 10.454 11.47 4.752 
111 1 10.871 14.491 3.299 
112 1 12.208 14.26 3.716 
128 1 15.626 15.626 0.228 
141 1 9.737 15.626 6.117 
145 1 15.626 9.737 6.117 
159 1 12.807 10.871 4.982 
160 1 13.224 12.208 4.752 
169 1 14.491 10.871 3.299 
170 1 14.26 10.454 1.962 
197 1 17.562 9.737 8.053 
217 1 9.737 17.562 8.053 
230 1 14.26 11.47 0.945 
233 1 13.224 14.26 2.699 
298 1 11.47 10.454 4.752 
301 1 14.26 12.208 3.716 
309 1 10.454 14.26 1.962 
316 1 12.208 13.224 4.752 
8 1 16.225 17.979 19.015 
20 1 19.015 16.225 17.979 
32 1 17.979 19.015 16.225 
46 1 12.807 12.807 18.696 
47 1 13.224 11.47 18.927 
58 1 12.807 18.696 12.807 
59 1 11.47 18.927 13.224 
70 1 18.696 12.807 12.807 
71 1 18.927 13.224 11.47 
75 1 14.685 14.685 18.502 
78 1 18.502 18.502 18.502 
81 1 18.502 14.685 14.685 
82 1 10.871 10.871 18.696 
83 1 10.454 12.208 18.927 
84 1 14.685 18.502 14.685 
115 1 10.871 18.696 10.871 
116 1 12.208 18.927 10.454 
129 1 16.963 15.209 19.015 
137 1 13.942 15.626 17.562 
138 1 14.173 16.963 17.979 
151 1 15.626 13.942 17.562 
152 1 15.209 14.173 16.225 
175 1 18.696 10.871 10.871 
176 1 18.927 10.454 12.208 
177 1 17.562 15.626 13.942 
178 1 16.225 15.209 14.173 
192 1 19.015 16.963 15.209 
195 1 17.562 13.942 15.626 
196 1 17.979 14.173 16.963 
206 1 15.209 19.015 16.963 
213 1 15.626 17.562 13.942 
214 1 16.963 17.979 14.173 
221 1 13.942 17.562 15.626 
222 1 14.173 16.225 15.209 
228 1 11.47 13.224 18.927 
232 1 18.927 11.47 13.224 
236 1 13.224 18.927 11.47 
239 1 17.979 16.225 19.015 
243 1 16.225 19.015 17.979 
247 1 19.015 17.979 16.225 
251 1 15.209 16.963 19.015 
255 1 16.963 14.173 17.979 
259 1 14.173 15.209 16.225 
263 1 15.209 16.225 14.173 
267 1 16.963 19.015 15.209 
271 1 14.173 17.979 16.963 
273 1 12.208 10.454 18.927 
287 1 17.979 16.963 14.173 
291 1 16.225 14.173 15.209 
295 1 19.015 15.209 16.963 
303 1 18.927 12.208 10.454 
312 1 10.454 18.927 12.208 
ITEM: TIMESTEP
10
ITEM: NUMBER OF ATOMS
323
ITEM: BOX BOUNDS pp pp pp
0.0000000000000000e+00 1.9018000000000001e+01
0.0000000000000000e+00 1.9018000000000001e+01
0.0000000000000000e+00 1.9018000000000001e+01
ITEM: ATOMS id type x y z 
10 1 6.11463 6.11044 0.257915 
22 1 0.256592 6.11383 6.11383 
34 1 6.11384 0.256605 6.11385 
89 1 3.30158 5.01057 1.35961 
90 1 1.94809 4.79592 0.912338 
97 1 5.01059 3.3016 1.35959 
98 1 4.79624 3.74872 2.71312 
105 1 3.30161 1.35938 5.01074 
106 1 3.7488 2.71288 4.79629 
121 1 5.01074 1.35937 3.30162 
122 1 4.79605 0.912277 1.94804 
125 1 8.04758 8.03997 0.28966 
127 1 0.423427 4.23728 4.23724 
130 1 4.23727 0.423229 4.23727 
133 1 0.423687 0.423522 0.423682 
136 1 4.23729 4.23734 0.423353 
157 1 1.35961 3.30159 5.01063 
158 1 0.912348 1.94808 4.79602 
165 1 1.35962 5.01059 3.30157 
166 1 2.71308 4.79622 3.74882 
189 1 0.256579 8.05618 8.05619 
207 1 8.05618 0.256591 8.05618 
277 1 4.796 1.94808 0.912343 
284 1 3.74883 4.79621 2.71307 
297 1 2.71312 3.74871 4.79625 
306 1 0.912346 4.79593 1.94808 
315 1 1.94804 0.912276 4.79605 
319 1 4.79629 2.71288 3.74881 
11 1 7.46793 5.66453 19.0586 
16 1 4.40446 6.1134 17.5644 
17 1 4.61661 7.46605 18.0112 
25 1 6.11394 4.40466 17.5645 
26 1 5.66702 4.61988 16.2115 
39 1 8.96579 8.91367 18.4755 
42 1 5.17835 5.1779 18.5009 
43 1 1.3595 1.3593 18.6682 
44 1 0.912456 2.71277 18.8831 
45 1 5.17661 8.99064 14.6858 
48 1 8.99189 5.17772 14.6872 
79 1 3.30159 3.3016 18.6678 
80 1 3.74869 1.94819 18.8828 
85 1 3.30167 9.15834 12.8098 
86 1 1.94825 9.37354 13.2571 
95 1 9.15845 3.30185 12.81 
96 1 9.3734 3.7488 11.4565 
119 1 9.15863 1.35921 10.8681 
120 1 9.37353 0.912188 12.2216 
126 1 6.69038 8.4967 19.0836 
144 1 9.54935 6.69314 18.0154 
148 1 8.52899 9.53768 16.1519 
161 1 1.35941 9.1587 10.8681 
162 1 2.71288 9.37353 10.4209 
179 1 6.11125 8.05393 13.912 
180 1 7.46538 8.4986 14.1194 
185 1 4.40307 8.05406 15.6208 
186 1 4.61999 6.70179 15.1756 
200 1 5.64549 9.55842 16.9693 
201 1 8.05557 4.40456 15.6229 
202 1 8.50254 4.61878 16.9762 
215 1 8.05544 6.11342 13.9134 
216 1 6.70236 5.66689 14.1289 
220 1 9.55435 7.46159 15.1681 
227 1 2.71302 0.912371 18.883 
240 1 5.6597 7.46229 19.0629 
242 1 7.46723 4.61877 18.0115 
245 1 4.61996 5.6669 16.2113 
252 1 8.50649 6.69257 19.0582 
254 1 6.65285 9.53599 18.0319 
257 1 9.5778 8.49512 16.1989 
264 1 8.50232 7.46588 14.1255 
266 1 6.7026 4.61987 15.176 
269 1 9.54964 5.66459 16.9771 
274 1 1.94815 3.74859 18.8829 
279 1 9.37358 1.94837 13.257 
281 1 3.74896 9.3733 11.4564 
288 1 5.66648 6.70163 14.129 
290 1 7.45915 9.5593 15.1514 
293 1 4.61156 8.49916 16.9746 
307 1 0.912196 9.37354 12.2216 
317 1 9.37357 2.71269 10.421 
4 1 6.1139 17.565 4.40442 
5 1 7.46735 18.0122 4.61939 
13 1 4.40442 17.565 6.1139 
14 1 4.61935 16.2116 5.66684 
35 1 5.66685 19.0596 7.46732 
51 1 8.99183 18.5008 8.99183 
54 1 5.17818 18.5008 5.17817 
55 1 1.35955 18.6682 1.35955 
56 1 2.71299 18.883 0.912408 
57 1 8.99156 14.6876 5.17862 
60 1 5.17807 14.6871 8.99195 
93 1 9.13014 10.9003 1.40901 
94 1 9.35928 10.4162 2.73134 
103 1 3.30182 12.81 9.1584 
104 1 3.74891 11.4566 9.37329 
113 1 3.30154 18.6676 3.30154 
114 1 1.94816 18.8828 3.74873 
117 1 9.15599 12.8125 3.30908 
118 1 9.37111 13.2717 1.96193 
131 1 8.0559 15.6231 4.40419 
132 1 6.70259 15.1758 4.6193 
142 1 9.55066 16.9765 5.66681 
149 1 8.05591 13.9132 6.11409 
150 1 8.50318 14.1283 7.46745 
155 1 1.35943 10.8682 9.15871 
156 1 0.912234 12.2216 9.37355 
184 1 7.4673 15.1758 9.55066 
187 1 4.40438 15.6228 8.05617 
188 1 4.61937 16.9763 8.50318 
193 1 6.11383 13.9134 8.05617 
194 1 5.66679 14.1284 6.70268 
208 1 8.50314 19.0596 6.70267 
212 1 6.70261 18.0121 9.55061 
218 1 9.55065 16.2116 8.50322 
235 1 0.912401 18.883 2.71299 
237 1 5.66679 16.2116 4.61936 
244 1 7.46732 19.0596 5.66685 
246 1 4.61939 18.0121 7.46738 
249 1 8.50318 16.9764 4.61932 
256 1 6.70256 14.1283 5.66683 
258 1 9.55068 15.1758 7.46746 
261 1 8.50316 16.2116 9.55066 
268 1 6.70267 19.0596 8.50315 
270 1 9.55062 18.0122 6.70264 
280 1 9.38649 12.2258 0.938491 
285 1 5.66682 16.9763 9.55063 
292 1 7.46732 14.1284 8.50321 
294 1 4.61934 15.1758 6.7027 
299 1 2.71289 10.421 9.37352 
311 1 3.74872 18.8828 1.94816 
313 1 1.94837 13.257 9.37356 
318 1 9.37087 11.4618 3.76252 
15 1 0.42373 9.93252 9.93252 
18 1 0.423325 13.746 13.746 
19 1 0.256511 17.5651 17.5651 
21 1 4.23693 9.93241 13.7456 
24 1 4.23727 13.7459 9.93217 
40 1 1.35928 12.8101 14.5193 
41 1 0.912187 11.4566 14.3045 
49 1 1.3593 14.5193 12.8101 
50 1 2.7128 14.3046 13.2571 
76 1 3.30164 10.8683 14.5197 
77 1 3.74897 12.2217 14.3048 
99 1 5.01103 10.8681 12.81 
100 1 4.79643 10.4207 11.4565 
109 1 3.30173 14.5196 10.8682 
110 1 1.94825 14.3045 10.421 
123 1 5.01098 12.8101 10.868 
124 1 4.79647 13.2573 12.2215 
147 1 8.0133 9.66455 17.5124 
183 1 6.11383 15.6228 9.76563 
191 1 0.256604 15.6228 15.6227 
199 1 6.11007 9.76746 15.6193 
211 1 8.05612 17.565 9.76558 
225 1 2.7128 13.2571 14.3046 
234 1 0.91222 14.3045 11.4565 
276 1 1.94817 10.421 14.3045 
278 1 4.7965 12.2216 13.2573 
310 1 3.74891 14.3048 12.2216 
320 1 4.79641 11.4566 10.4207 
321 2 9.28111 10.6747 18.5376 
322 2 7.99879 11.5495 18.3546 
323 3 8.23474 12.195 17.7378 
1 1 17.5651 6.11386 4.40443 
2 1 16.2116 5.6668 4.61936 
23 1 19.0596 7.46731 5.66686 
28 1 17.565 4.40443 6.11388 
29 1 18.0121 4.61939 7.46737 
63 1 18.5008 8.99187 8.99187 
66 1 18.5009 5.17813 5.17813 
67 1 18.6682 1.35931 1.3595 
68 1 18.883 0.912365 2.71301 
69 1 14.6871 5.17807 8.99195 
72 1 14.6873 8.99176 5.17838 
87 1 10.8814 9.14605 1.37434 
88 1 12.2235 9.33233 0.926019 
101 1 10.8681 1.35922 9.15863 
102 1 10.421 2.71269 9.37357 
134 1 15.623 8.05596 4.40425 
135 1 16.9764 8.50318 4.61934 
139 1 13.9133 8.05595 6.11405 
140 1 14.1283 6.7026 5.66683 
146 1 15.1758 9.55067 7.46739 
153 1 12.81 3.30181 9.15844 
154 1 13.257 1.94837 9.37358 
163 1 12.8123 9.15557 3.3081 
164 1 11.4607 9.37151 3.75827 
173 1 18.6677 3.30156 3.30156 
174 1 18.8829 3.74858 1.94814 
182 1 16.2116 8.50316 9.55065 
190 1 19.0596 6.70267 8.50315 
198 1 18.0122 9.55062 6.70264 
203 1 15.6228 4.40439 8.05617 
204 1 15.1758 4.61934 6.70269 
210 1 16.9763 5.66683 9.55063 
223 1 13.9134 6.11383 8.05618 
224 1 14.1284 7.46734 8.5032 
231 1 18.8831 2.71277 0.912457 
238 1 18.0122 7.46735 4.61938 
241 1 16.2116 4.61936 5.66684 
248 1 19.0596 5.66685 7.46732 
250 1 15.1758 6.70264 4.61932 
253 1 16.9764 9.55065 5.66682 
260 1 14.1283 8.50317 7.4674 
262 1 15.1758 7.46731 9.55066 
265 1 16.9763 4.61937 8.50318 
272 1 14.1284 5.6668 6.70266 
282 1 10.4262 9.352 2.70772 
286 1 18.0121 6.70262 9.55061 
289 1 16.2116 9.55065 8.5032 
296 1 19.0596 8.50314 6.70268 
300 1 11.4565 3.74879 9.37339 
304 1 18.8828 1.94818 3.74869 
308 1 13.2691 9.36652 1.95848 
314 1 12.2216 0.912184 9.37354 
27 1 9.93252 0.423561 9.93252 
30 1 13.746 0.42316 13.746 
31 1 17.5651 0.256509 17.5651 
33 1 13.7459 4.23728 9.9322 
36 1 9.93214 4.23732 13.7459 
37 1 12.8101 1.35908 14.5194 
38 1 13.257 2.7126 14.3045 
64 1 14.5194 1.35909 12.8101 
65 1 14.3045 0.912169 11.4565 
73 1 10.8682 3.30173 14.5195 
74 1 10.421 1.94824 14.3044 
91 1 10.868 5.01089 12.8101 
92 1 12.2215 4.79633 13.2573 
143 1 9.79791 8.04054 17.5571 
167 1 12.8101 5.01091 10.868 
168 1 11.4566 4.7963 10.4208 
171 1 14.5196 3.30172 10.8682 
172 1 14.3047 3.74879 12.2216 
181 1 17.5651 8.05614 9.76557 
205 1 15.6228 0.256614 15.6227 
209 1 15.6228 6.11383 9.76563 
219 1 9.76712 6.10984 15.6238 
226 1 11.4565 0.912167 14.3045 
229 1 14.3045 2.7126 13.257 
275 1 12.2216 3.7488 14.3047 
283 1 10.4208 4.79628 11.4565 
302 1 14.3044 1.94825 10.421 
305 1 13.2573 4.79634 12.2215 
3 1 9.88437 9.97709 0.352834 
6 1 13.7457 13.7464 0.422579 
7 1 17.5651 17.5651 0.256535 
9 1 9.93498 13.7484 4.24127 
12 1 13.7477 9.93432 4.24207 
52 1 12.8132 14.523 1.36182 
53 1 11.4589 14.3183 0.916814 
61 1 14.5224 12.8154 1.36192 
62 1 14.3047 13.2587 2.71581 
107 1 10.8702 12.8112 5.01161 
108 1 10.4225 11.458 4.79975 
111 1 10.8701 14.5217 3.30625 
112 1 12.223 14.3043 3.75121 
128 1 15.6235 15.6235 0.25709 
141 1 9.76584 15.6232 6.11421 
145 1 15.6231 9.76577 6.11411 
159 1 12.8103 10.8695 5.0111 
160 1 13.2563 12.2216 4.79642 
169 1 14.5218 10.8689 3.30429 
170 1 14.3099 10.4184 1.95159 
197 1 17.5651 9.76557 8.05616 
217 1 9.76558 17.565 8.05613 
230 1 14.3215 11.4602 0.918846 
233 1 13.258 14.305 2.71599 
298 1 11.4577 10.4213 4.79799 
301 1 14.3041 12.223 3.75128 
309 1 10.4207 14.3136 1.95218 
316 1 12.222 13.2565 4.79636 
8 1 16.2116 18.0122 19.0596 
20 1 19.0596 16.2116 18.0121 
32 1 18.0121 19.0596 16.2116 
46 1 12.8197 12.8166 18.6595 
47 1 13.2989 11.4748 18.8728 
58 1 12.8102 18.6676 12.8102 
59 1 11.4567 18.8826 13.2572 
70 1 18.6677 12.8102 12.8102 
71 1 18.8827 13.2572 11.4568 
75 1 14.6876 14.6877 18.5009 
78 1 18.5009 18.5009 18.5008 
81 1 18.5011 14.687 14.6869 
82 1 10.9995 10.9268 18.6236 
83 1 10.4544 12.236 18.9042 
84 1 14.687 18.501 14.6869 
115 1 10.8681 18.6676 10.8681 
116 1 12.2215 18.8826 10.4209 
129 1 16.9766 15.1757 19.0597 
137 1 13.913 15.6232 17.5648 
138 1 14.1282 16.9765 18.0122 
151 1 15.6232 13.9131 17.5648 
152 1 15.1758 14.1282 16.2115 
175 1 18.6677 10.8681 10.8681 
176 1 18.8827 10.4209 12.2215 
177 1 17.5652 15.6228 13.9134 
178 1 16.2116 15.1758 14.1283 
192 1 19.0596 16.9763 15.1758 
195 1 17.5651 13.9134 15.6228 
196 1 18.0122 14.1284 16.9763 
206 1 15.1758 19.0596 16.9762 
213 1 15.6228 17.5651 13.9134 
214 1 16.9764 18.0122 14.1284 
221 1 13.9134 17.5651 15.6228 
222 1 14.1283 16.2116 15.1758 
228 1 11.4757 13.2825 18.8787 
232 1 18.8826 11.4568 13.2572 
236 1 13.2572 18.8826 11.4567 
239 1 18.0122 16.2116 19.0596 
243 1 16.2116 19.0596 18.0121 
247 1 19.0596 18.0121 16.2116 
251 1 15.1757 16.9766 19.0597 
255 1 16.9765 14.1282 18.0122 
259 1 14.1282 15.1758 16.2115 
263 1 15.1758 16.2116 14.1283 
267 1 16.9763 19.0596 15.1758 
271 1 14.1284 18.0122 16.9763 
273 1 12.3054 10.3898 18.8731 
287 1 18.0122 16.9764 14.1284 
291 1 16.2116 14.1283 15.1758 
295 1 19.0596 15.1758 16.9762 
303 1 18.8827 12.2215 10.4209 
312 1 10.4209 18.8826 12.2215 
ITEM: TIMESTEP
20
ITEM: NUMBER OF ATOMS
323
ITEM: BOX BOUNDS pp pp pp
0.0000000000000000e+00 1.9018000000000001e+01
0.0000000000000000e+00 1.9018000000000001e+01
0.0000000000000000e+00 1.9018000000000001e+01
ITEM: ATOMS id type x y z 
10 1 6.118 6.1136 0.250572 
22 1 0.247848 6.11894 6.11897 
34 1 6.11895 0.247854 6.11898 
89 1 3.29634 5.00226 1.36482 
90 1 1.94287 4.80545 0.904947 
97 1 5.00224 3.29629 1.36485 
98 1 4.80568 3.75611 2.71836 
105 1 3.29654 1.36444 5.00218 
106 1 3.75621 2.71808 4.80569 
121 1 5.00219 1.36444 3.29654 
122 1 4.80554 0.904849 1.94292 
125 1 8.033 8.02638 0.287345 
127 1 0.423342 4.23753 4.23755 
130 1 4.23754 0.423197 4.23754 
133 1 0.423423 0.423274 0.423423 
136 1 4.23711 4.23708 0.42367 
157 1 1.36462 3.29651 5.00212 
158 1 0.904972 1.9429 4.8055 
165 1 1.36463 5.00212 3.29654 
166 1 2.71825 4.80561 3.75626 
189 1 0.247856 8.05099 8.05102 
207 1 8.05097 0.247864 8.05102 
277 1 4.80551 1.94283 0.904964 
284 1 3.75624 4.80564 2.71832 
297 1 2.71829 3.7561 4.80567 
306 1 0.904921 4.80543 1.94294 
315 1 1.94291 0.904881 4.80553 
319 1 4.80568 2.71806 3.75624 
11 1 7.47142 5.65338 19.0701 
16 1 4.41206 6.11763 17.5596 
17 1 4.60505 7.47101 18.019 
25 1 6.11817 4.41159 17.5593 
26 1 5.65884 4.6089 16.2057 
39 1 8.94302 8.88475 18.4528 
42 1 5.17736 5.17601 18.5007 
43 1 1.36456 1.36439 18.6767 
44 1 0.904943 2.71802 18.8735 
45 1 5.1775 8.99099 14.6867 
48 1 8.99166 5.17564 14.6862 
79 1 3.29628 3.29626 18.6762 
80 1 3.75619 1.94281 18.8733 
85 1 3.29633 9.16711 12.8046 
86 1 1.94281 9.36404 13.2646 
95 1 9.16695 3.29638 12.8047 
96 1 9.3639 3.75621 11.4512 
119 1 9.16733 1.36439 10.8732 
120 1 9.36407 0.904748 12.2268 
126 1 6.67921 8.50511 19.1032 
144 1 9.56357 6.68305 18.025 
148 1 8.52589 9.526 16.1503 
161 1 1.36455 9.16736 10.8732 
162 1 2.71815 9.36405 10.4134 
179 1 6.11444 8.04851 13.9183 
180 1 7.46966 8.50641 14.1033 
185 1 4.40946 8.04877 15.6242 
186 1 4.60825 6.69482 15.1669 
200 1 5.63274 9.56812 16.9724 
201 1 8.05028 4.41144 15.6272 
202 1 8.50964 4.60542 16.981 
215 1 8.05055 6.11756 13.921 
216 1 6.69682 5.65774 14.118 
220 1 9.56935 7.46369 15.1557 
227 1 2.71823 0.904853 18.8734 
240 1 5.64772 7.46493 19.0775 
242 1 7.47193 4.60543 18.0186 
245 1 4.60902 5.65779 16.2059 
252 1 8.5159 6.68294 19.0728 
254 1 6.65041 9.52388 18.0285 
257 1 9.59774 8.50416 16.1865 
264 1 8.51012 7.47082 14.1137 
266 1 6.69675 4.60888 15.1678 
269 1 9.56122 5.65326 16.9806 
274 1 1.9428 3.75608 18.8733 
279 1 9.36405 1.94293 13.2645 
281 1 3.75638 9.36387 11.4511 
288 1 5.65763 6.69454 14.1174 
290 1 7.46384 9.56922 15.1382 
293 1 4.59579 8.50702 16.9791 
307 1 0.904749 9.36406 12.2268 
317 1 9.36409 2.718 10.4135 
4 1 6.11896 17.56 4.41315 
5 1 7.47255 18.0197 4.60991 
13 1 4.41316 17.56 6.11902 
14 1 4.60989 16.2063 5.65944 
35 1 5.65942 19.069 7.47262 
51 1 8.99202 18.501 8.99204 
54 1 5.17789 18.501 5.17791 
55 1 1.36458 18.6767 1.36459 
56 1 2.71822 18.8734 0.904955 
57 1 8.99113 14.6883 5.17936 
60 1 5.17786 14.6868 8.99214 
93 1 9.14739 10.9122 1.42787 
94 1 9.35239 10.4002 2.74593 
103 1 3.29668 12.805 9.16715 
104 1 3.75632 11.4513 9.36386 
113 1 3.29651 18.6763 3.29652 
114 1 1.94292 18.8732 3.75619 
117 1 9.16545 12.8063 3.30955 
118 1 9.36514 13.2862 1.96448 
131 1 8.05056 15.6284 4.41288 
132 1 6.69712 15.1683 4.60981 
142 1 9.56018 16.9821 5.65929 
149 1 8.05047 13.9219 6.11954 
150 1 8.51064 14.1188 7.47297 
155 1 1.36456 10.8732 9.16736 
156 1 0.904855 12.2268 9.36409 
184 1 7.47255 15.1684 9.56014 
187 1 4.41312 15.628 8.05107 
188 1 4.60993 16.9816 8.5106 
193 1 6.11894 13.9221 8.05106 
194 1 5.65929 14.1189 6.69745 
208 1 8.51054 19.0691 6.69739 
212 1 6.69735 18.0195 9.56005 
218 1 9.56011 16.2064 8.51079 
235 1 0.904956 18.8734 2.71822 
237 1 5.65929 16.2064 4.60991 
244 1 7.47259 19.0691 5.65944 
246 1 4.60996 18.0195 7.47263 
249 1 8.51065 16.9819 4.60978 
256 1 6.69706 14.1188 5.65935 
258 1 9.56018 15.1683 7.47307 
261 1 8.51054 16.2063 9.56015 
268 1 6.69735 19.069 8.51059 
270 1 9.5601 18.0197 6.69746 
280 1 9.39618 12.2363 0.941527 
285 1 5.6594 16.9816 9.56008 
292 1 7.47254 14.1189 8.51072 
294 1 4.60988 15.1684 6.69743 
299 1 2.71819 10.4136 9.36402 
311 1 3.75619 18.8732 1.94292 
313 1 1.94305 13.2645 9.36407 
318 1 9.36089 11.4549 3.77198 
15 1 0.423466 9.93224 9.93222 
18 1 0.423184 13.7462 13.7462 
19 1 0.247819 17.56 17.5599 
21 1 4.23709 9.93237 13.7456 
24 1 4.23758 13.7461 9.93205 
40 1 1.36441 12.8051 14.5107 
41 1 0.904799 11.4514 14.314 
49 1 1.36441 14.5107 12.805 
50 1 2.71808 14.314 13.2645 
76 1 3.2964 10.8734 14.5108 
77 1 3.75636 12.227 14.3142 
99 1 5.00234 10.8733 12.8048 
100 1 4.80583 10.4134 11.4512 
109 1 3.29659 14.5108 10.8732 
110 1 1.943 14.314 10.4136 
123 1 5.00235 12.805 10.8731 
124 1 4.80581 13.2647 12.2267 
147 1 7.9996 9.6284 17.5 
183 1 6.11892 15.6279 9.7569 
191 1 0.247879 15.6279 15.6278 
199 1 6.11741 9.75809 15.6253 
211 1 8.05095 17.5599 9.75687 
225 1 2.71807 13.2646 14.314 
234 1 0.904867 14.314 11.4514 
276 1 1.94284 10.4136 14.314 
278 1 4.80586 12.2269 13.2647 
310 1 3.75628 14.3141 12.2268 
320 1 4.8058 11.4514 10.4133 
321 2 9.31562 10.6526 18.5908 
322 2 7.96204 11.6148 18.3627 
323 3 8.1948 12.2216 17.6959 
1 1 17.56 6.11894 4.41316 
2 1 16.2064 5.65933 4.60992 
23 1 19.0691 7.47258 5.65944 
28 1 17.56 4.41317 6.11899 
29 1 18.0195 4.60997 7.47262 
63 1 18.501 8.99205 8.99207 
66 1 18.5011 5.17786 5.17788 
67 1 18.6767 1.36439 1.36457 
68 1 18.8734 0.90488 2.71824 
69 1 14.6868 5.17785 8.99214 
72 1 14.6878 8.9915 5.17893 
87 1 10.8733 9.19777 1.35569 
88 1 12.2267 9.33118 0.919065 
101 1 10.8732 1.36439 9.16734 
102 1 10.4136 2.71801 9.36408 
134 1 15.6283 8.05072 4.41295 
135 1 16.9818 8.51062 4.60981 
139 1 13.922 8.05062 6.11939 
140 1 14.1189 6.69716 5.65937 
146 1 15.1683 9.56016 7.47295 
153 1 12.805 3.29665 9.16718 
154 1 13.2645 1.94302 9.36408 
163 1 12.8057 9.16717 3.30416 
164 1 11.451 9.3614 3.75546 
173 1 18.6764 3.2965 3.29653 
174 1 18.8733 3.75606 1.94289 
182 1 16.2063 8.51054 9.56012 
190 1 19.069 6.69736 8.51058 
198 1 18.0197 9.56008 6.69745 
203 1 15.628 4.41313 8.05106 
204 1 15.1684 4.6099 6.69743 
210 1 16.9816 5.65941 9.56007 
223 1 13.9221 6.11894 8.05105 
224 1 14.1189 7.47255 8.51069 
231 1 18.8735 2.71803 0.904971 
238 1 18.0196 7.47256 4.60993 
241 1 16.2063 4.60991 5.65944 
248 1 19.069 5.65943 7.47261 
250 1 15.1684 6.69722 4.60985 
253 1 16.9819 9.56015 5.65931 
260 1 14.1188 8.51062 7.47286 
262 1 15.1684 7.47256 9.56012 
265 1 16.9816 4.60994 8.51059 
272 1 14.1189 5.65932 6.69744 
282 1 10.4215 9.34891 2.70201 
286 1 18.0195 6.69737 9.56004 
289 1 16.2064 9.56009 8.51074 
296 1 19.0691 8.51054 6.69739 
300 1 11.4513 3.7562 9.36392 
304 1 18.8733 1.94289 3.75618 
308 1 13.2723 9.3557 1.95317 
314 1 12.2268 0.904781 9.36407 
27 1 9.93223 0.423326 9.93223 
30 1 13.7462 0.423038 13.7462 
31 1 17.56 0.247815 17.56 
33 1 13.7461 4.23758 9.93204 
36 1 9.9324 4.23708 13.7456 
37 1 12.805 1.36423 14.5107 
38 1 13.2645 2.71788 14.314 
64 1 14.5107 1.36423 12.805 
65 1 14.314 0.904792 11.4514 
73 1 10.8735 3.29633 14.5109 
74 1 10.4136 1.94288 14.314 
91 1 10.8733 5.00246 12.8048 
92 1 12.2268 4.80572 13.2647 
143 1 9.79484 8.02627 17.5414 
167 1 12.805 5.00232 10.8731 
168 1 11.4514 4.8057 10.4134 
171 1 14.5108 3.29656 10.8732 
172 1 14.3141 3.75616 12.2268 
181 1 17.56 8.05098 9.75686 
205 1 15.6279 0.247879 15.6278 
209 1 15.6279 6.11892 9.75689 
219 1 9.75994 6.11265 15.627 
226 1 11.4514 0.904755 14.314 
229 1 14.314 2.7179 13.2645 
275 1 12.2269 3.75616 14.3141 
283 1 10.4134 4.80572 11.4513 
302 1 14.3139 1.94297 10.4136 
305 1 13.2647 4.80569 12.2267 
3 1 9.88345 9.9843 0.349636 
6 1 13.7497 13.7498 0.427028 
7 1 17.56 17.56 0.247803 
9 1 9.93498 13.7489 4.24248 
12 1 13.7485 9.93502 4.2422 
52 1 12.81 14.5167 1.36868 
53 1 11.4548 14.3369 0.912053 
61 1 14.5168 12.8123 1.36978 
62 1 14.3161 13.2675 2.7227 
107 1 10.8751 12.8059 5.00586 
108 1 10.416 11.4515 4.81098 
111 1 10.8756 14.5154 3.3021 
112 1 12.2287 14.3162 3.75908 
128 1 15.6287 15.6287 0.248131 
141 1 9.75722 15.6288 6.11978 
145 1 15.6286 9.75713 6.11961 
159 1 12.804 10.8735 5.00448 
160 1 13.2657 12.2268 4.80727 
169 1 14.5124 10.8737 3.2984 
170 1 14.316 10.4083 1.94723 
197 1 17.56 9.75687 8.05104 
217 1 9.75688 17.56 8.05102 
230 1 14.3384 11.4551 0.91634 
233 1 13.2667 14.3168 2.72167 
298 1 11.4518 10.4097 4.80325 
301 1 14.3157 12.2273 3.75828 
309 1 10.4155 14.3301 1.94805 
316 1 12.228 13.2657 4.80795 
8 1 16.2065 18.0198 19.0691 
20 1 19.0691 16.2063 18.0195 
32 1 18.0195 19.069 16.2063 
46 1 12.8226 12.8062 18.6732 
47 1 13.317 11.464 18.8652 
58 1 12.8051 18.6763 12.8051 
59 1 11.4515 18.8731 13.2647 
70 1 18.6763 12.8052 12.8051 
71 1 18.8732 13.2647 11.4515 
75 1 14.6879 14.688 18.5006 
78 1 18.5011 18.5011 18.5011 
81 1 18.5012 14.6867 14.6867 
82 1 11.0101 10.9333 18.608 
83 1 10.4705 12.2401 18.9106 
84 1 14.6868 18.5011 14.6868 
115 1 10.8732 18.6763 10.8732 
116 1 12.2268 18.8732 10.4134 
129 1 16.9821 15.1683 19.0692 
137 1 13.9222 15.6284 17.5596 
138 1 14.1188 16.9819 18.0196 
151 1 15.6283 13.9223 17.5597 
152 1 15.1684 14.1188 16.2061 
175 1 18.6764 10.8732 10.8732 
176 1 18.8732 10.4135 12.2268 
177 1 17.56 15.6279 13.9222 
178 1 16.2064 15.1684 14.1189 
192 1 19.069 16.9815 15.1684 
195 1 17.5601 13.9222 15.6279 
196 1 18.0197 14.1189 16.9815 
206 1 15.1684 19.0691 16.9815 
213 1 15.6279 17.56 13.9222 
214 1 16.9816 18.0195 14.119 
221 1 13.9222 17.56 15.6279 
222 1 14.1189 16.2064 15.1683 
228 1 11.4807 13.2974 18.8754 
232 1 18.8732 11.4515 13.2647 
236 1 13.2647 18.8731 11.4515 
239 1 18.0198 16.2064 19.0691 
243 1 16.2064 19.0691 18.0195 
247 1 19.069 18.0195 16.2063 
251 1 15.1683 16.9821 19.0692 
255 1 16.9819 14.1188 18.0196 
259 1 14.1188 15.1684 16.2061 
263 1 15.1684 16.2064 14.1189 
267 1 16.9815 19.069 15.1684 
271 1 14.1189 18.0197 16.9815 
273 1 12.3162 10.3837 18.8677 
287 1 18.0195 16.9816 14.119 
291 1 16.2064 14.1189 15.1683 
295 1 19.0691 15.1684 16.9815 
303 1 18.8732 12.2268 10.4134 
312 1 10.4134 18.8732 12.2268 
ITEM: TIMESTEP
30
ITEM: NUMBER OF ATOMS
323
ITEM: BOX BOUNDS pp pp pp
0.0000000000000000e+00 1.9018000000000001e+01
0.0000000000000000e+00 1.9018000000000001e+01
0.0000000000000000e+00 1.9018000000000001e+01
ITEM: ATOMS id type x y z 
10 1 6.12119 6.11495 0.241915 
22 1 0.23949 6.12289 6.12293 
34 1 6.12289 0.239499 6.12295 
89 1 3.29233 4.99387 1.36877 
90 1 1.94006 4.80675 0.902893 
97 1 4.99384 3.29222 1.36884 
98 1 4.80696 3.75815 2.72111 
105 1 3.29257 1.36839 4.99391 
106 1 3.75817 2.72074 4.807 
121 1 4.99391 1.36837 3.29261 
122 1 4.80684 0.902762 1.94027 
125 1 8.02578 8.01517 0.275881 
127 1 0.425353 4.23557 4.2356 
130 1 4.23558 0.425233 4.2356 
133 1 0.425403 0.425277 0.425403 
136 1 4.23484 4.23477 0.425803 
157 1 1.36853 3.29253 4.99387 
158 1 0.902944 1.9402 4.80678 
165 1 1.36852 4.99385 3.29261 
166 1 2.72086 4.8069 3.75827 
189 1 0.239503 8.04698 8.04706 
207 1 8.04696 0.239515 8.04706 
277 1 4.80682 1.93998 0.902892 
284 1 3.75824 4.80693 2.72105 
297 1 2.7209 3.75807 4.80698 
306 1 0.902865 4.80673 1.94029 
315 1 1.94022 0.902853 4.80681 
319 1 4.80698 2.72071 3.75828 
11 1 7.47255 5.64867 19.0713 
16 1 4.42062 6.12114 17.5549 
17 1 4.60121 7.47257 18.0215 
25 1 6.12187 4.41853 17.5546 
26 1 5.65614 4.6072 16.2025 
39 1 8.94332 8.87465 18.4526 
42 1 5.17932 5.17681 18.4981 