ITEM: TIMESTEP
0
ITEM: NUMBER OF ATOMS
73
ITEM: BOX BOUNDS pp pp pp
0.0000000000000000e+00 1.3600000000000000e+01
0.0000000000000000e+00 1.3600000000000000e+01
0.0000000000000000e+00 1.3600000000000000e+01
ITEM: ATOMS id type x y z 
1 1 6.672 0.882 7.682 
2 1 6.673 1.896 8.696 
3 1 6.672 2.763 9.563 
7 1 6.673 5.663 12.463 
8 1 6.672 4.65 11.449 
9 1 6.672 3.783 10.582 
49 1 5.663 6.673 12.463 
50 1 4.65 6.672 11.449 
51 1 3.783 6.672 10.582 
55 1 0.882 6.672 7.682 
56 1 1.896 6.673 8.696 
57 1 2.763 6.672 9.563 
25 1 0.882 7.682 6.672 
26 1 1.896 8.696 6.673 
27 1 2.763 9.563 6.672 
31 1 5.663 12.463 6.673 
32 1 4.65 11.449 6.672 
33 1 3.783 10.582 6.672 
37 1 6.673 12.463 5.663 
38 1 6.672 11.449 4.65 
39 1 6.672 10.582 3.783 
43 1 6.672 7.682 0.882 
44 1 6.673 8.696 1.896 
45 1 6.672 9.563 2.763 
28 1 5.662 7.683 13.473 
29 1 4.649 8.696 13.472 
30 1 3.781 9.563 13.471 
34 1 0.882 12.462 13.473 
35 1 1.896 11.449 13.472 
36 1 2.763 10.582 13.472 
52 1 5.662 13.473 7.683 
53 1 4.649 13.472 8.696 
54 1 3.781 13.472 9.563 
58 1 0.882 13.472 12.462 
59 1 1.896 13.472 11.449 
60 1 2.763 13.472 10.582 
13 1 7.682 6.672 0.882 
14 1 8.696 6.673 1.896 
15 1 9.563 6.672 2.763 
19 1 12.463 6.673 5.663 
20 1 11.449 6.672 4.65 
21 1 10.582 6.672 3.783 
61 1 12.463 5.663 6.673 
62 1 11.449 4.65 6.672 
63 1 10.582 3.783 6.672 
67 1 7.682 0.882 6.672 
68 1 8.696 1.896 6.673 
69 1 9.563 2.763 6.672 
4 1 13.473 5.662 7.683 
5 1 13.472 4.649 8.696 
6 1 13.471 3.781 9.563 
10 1 13.473 0.883 12.462 
11 1 13.473 1.896 11.449 
12 1 13.472 2.763 10.582 
64 1 7.683 5.662 13.473 
65 1 8.696 4.649 13.472 
66 1 9.563 3.781 13.471 
70 1 12.462 0.883 13.473 
71 1 11.449 1.896 13.473 
72 1 10.582 2.763 13.472 
73 2 7.773 1.896 8.696 
16 1 7.683 13.473 5.662 
17 1 8.696 13.472 4.649 
18 1 9.563 13.471 3.781 
22 1 12.462 13.473 0.882 
23 1 11.449 13.473 1.896 
24 1 10.582 13.472 2.763 
40 1 13.473 7.683 5.662 
41 1 13.472 8.696 4.649 
42 1 13.471 9.563 3.781 
46 1 13.473 12.462 0.882 
47 1 13.473 11.449 1.896 
48 1 13.472 10.582 2.763 
ITEM: TIMESTEP
10
ITEM: NUMBER OF ATOMS
73
ITEM: BOX BOUNDS pp pp pp
0.0000000000000000e+00 1.3600000000000000e+01
0.0000000000000000e+00 1.3600000000000000e+01
0.0000000000000000e+00 1.3600000000000000e+01
ITEM: ATOMS id type x y z 
1 1 6.65683 0.871387 7.66397 
2 1 6.70675 1.90452 8.69929 
3 1 6.597 2.82763 9.63475 
7 1 6.67309 5.64462 12.4459 
8 1 6.672 4.6564 11.4505 
9 1 6.66912 3.77468 10.5791 
49 1 5.63923 6.67891 12.445 
50 1 4.63956 6.67224 11.4389 
51 1 3.77409 6.67187 10.5733 
55 1 0.899282 6.67267 7.69888 
56 1 1.9067 6.67348 8.70565 
57 1 2.77128 6.67184 9.57159 
25 1 0.8991 7.69887 6.6725 
26 1 1.90589 8.70484 6.67346 
27 1 2.77112 9.57143 6.67185 
31 1 5.64388 12.4295 6.65833 
32 1 4.63952 11.4366 6.66998 
33 1 3.77144 10.5708 6.672 
37 1 6.67477 12.4433 5.64307 
38 1 6.66968 11.4368 4.63692 
39 1 6.67328 10.5707 3.77198 
43 1 6.67229 7.69974 0.899765 
44 1 6.67345 8.70401 1.90504 
45 1 6.6718 9.57016 2.76975 
28 1 5.64589 7.6986 13.4722 
29 1 4.63868 8.7071 13.4733 
30 1 3.77257 9.57118 13.4706 
34 1 0.898241 12.4444 13.4735 
35 1 1.90681 11.4407 13.4712 
36 1 2.77011 10.5733 13.4722 
52 1 5.63932 13.4712 7.6953 
53 1 4.63002 13.4742 8.71372 
54 1 3.76575 13.4715 9.57933 
58 1 0.897127 13.4723 12.447 
59 1 1.90275 13.4707 11.4431 
60 1 2.76778 13.4725 10.5769 
13 1 7.69865 6.67223 0.898621 
14 1 8.70609 6.6735 1.90716 
15 1 9.5718 6.67182 2.77146 
19 1 12.4463 6.67378 5.64562 
20 1 11.439 6.67187 4.63997 
21 1 10.5738 6.67205 3.77458 
61 1 12.4471 5.64722 6.67313 
62 1 11.441 4.64205 6.67132 
63 1 10.575 3.77577 6.6724 
67 1 7.69712 0.894981 6.67538 
68 1 8.70932 1.91062 6.67547 
69 1 9.57378 2.77387 6.67174 
4 1 13.4737 5.64597 7.70005 
5 1 13.4733 4.63936 8.70645 
6 1 13.4705 3.77305 9.57085 
10 1 13.4716 0.900531 12.4463 
11 1 13.4736 1.90516 11.4384 
12 1 13.4715 2.77151 10.574 
64 1 7.70661 5.6446 13.4788 
65 1 8.7066 4.63913 13.4733 
66 1 9.57125 3.77277 13.4706 
70 1 12.446 0.899716 13.4729 
71 1 11.4381 1.9053 13.4736 
72 1 10.5738 2.77179 13.4715 
73 2 7.85419 1.87596 8.66053 
16 1 7.70151 13.4686 5.63822 
17 1 8.70736 13.4708 4.63807 
18 1 9.5719 13.471 3.77134 
22 1 12.4456 13.4729 0.899161 
23 1 11.4387 13.4736 1.90452 
24 1 10.5742 13.4715 2.77158 
40 1 13.473 7.69948 5.64584 
41 1 13.4733 8.70639 4.63937 
42 1 13.4705 9.57074 3.77319 
46 1 13.4721 12.446 0.89947 
47 1 13.4736 11.4383 1.90501 
48 1 13.4715 10.5742 2.77143 
ITEM: TIMESTEP
20
ITEM: NUMBER OF ATOMS
73
ITEM: BOX BOUNDS pp pp pp
0.0000000000000000e+00 1.3600000000000000e+01
0.0000000000000000e+00 1.3600000000000000e+01
0.0000000000000000e+00 1.3600000000000000e+01
ITEM: ATOMS id type x y z 
1 1 6.63425 0.868712 7.6491 
2 1 6.80081 1.90496 8.69716 
3 1 6.54199 2.82072 9.63548 
7 1 6.67581 5.66386 12.4564 
8 1 6.66605 4.65401 11.4612 
9 1 6.64146 3.78403 10.5875 
49 1 5.63745 6.68129 12.4449 
50 1 4.63601 6.67355 11.4367 
51 1 3.77103 6.67152 10.5705 
55 1 0.900786 6.67164 7.70173 
56 1 1.90605 6.67326 8.70451 
57 1 2.77082 6.672 9.57089 
25 1 0.898703 7.69859 6.67253 
26 1 1.9028 8.7016 6.67334 
27 1 2.76748 9.56766 6.67236 
31 1 5.64256 12.4266 6.65395 
32 1 4.63641 11.43 6.66546 
33 1 3.76798 10.5671 6.67204 
37 1 6.67807 12.4413 5.63825 
38 1 6.66836 11.4345 4.63399 
39 1 6.67411 10.5682 3.76924 
43 1 6.67235 7.69933 0.899522 
44 1 6.67324 8.70279 1.90351 
45 1 6.67267 9.56865 2.76804 
28 1 5.64343 7.70385 13.4747 
29 1 4.63714 8.70888 13.4737 
30 1 3.77028 9.57357 13.4717 
34 1 0.897578 12.4418 13.4747 
35 1 1.9084 11.4429 13.472 
36 1 2.7689 10.5722 13.4712 
52 1 5.62018 13.4631 7.68401 
53 1 4.62362 13.474 8.7125 
54 1 3.76498 13.4722 9.58279 
58 1 0.891528 13.4726 12.4525 
59 1 1.89898 13.4711 11.4471 
60 1 2.76391 13.4714 10.5819 
13 1 7.70142 6.67511 0.904613 
14 1 8.70788 6.67462 1.9097 
15 1 9.57466 6.67188 2.77482 
19 1 12.4457 6.67317 5.64552 
20 1 11.4403 6.67184 4.6413 
21 1 10.5747 6.67196 3.77487 
61 1 12.4482 5.64812 6.67317 
62 1 11.4395 4.64147 6.67066 
63 1 10.5762 3.77672 6.67232 
67 1 7.69317 0.888708 6.67187 
68 1 8.70911 1.90889 6.67426 
69 1 9.57076 2.76973 6.67362 
4 1 13.4732 5.64469 7.70091 
5 1 13.4733 4.63949 8.70667 
6 1 13.4708 3.77278 9.57161 
10 1 13.47 0.903312 12.445 
11 1 13.4728 1.90674 11.4375 
12 1 13.4715 2.77254 10.5721 
64 1 7.70954 5.64569 13.4827 
65 1 8.70991 4.63742 13.4733 
66 1 9.57417 3.76988 13.4712 
70 1 12.4441 0.900978 13.4734 
71 1 11.439 1.90456 13.4737 
72 1 10.5742 2.77081 13.4714 
73 2 7.92091 1.89562 8.65135 
16 1 7.70149 13.4711 5.63768 
17 1 8.71293 13.4696 4.64032 
18 1 9.5707 13.4716 3.76864 
22 1 12.4454 13.4723 0.900301 
23 1 11.4404 13.4734 1.90311 
24 1 10.5756 13.4712 2.76928 
40 1 13.4722 7.70131 5.64309 
41 1 13.473 8.70657 4.63958 
42 1 13.471 9.57172 3.77269 
46 1 13.4711 12.4438 0.902796 
47 1 13.4729 11.4378 1.90626 
48 1 13.4714 10.5722 2.7725 
ITEM: TIMESTEP
30
ITEM: NUMBER OF ATOMS
73
ITEM: BOX BOUNDS pp pp pp
0.0000000000000000e+00 1.3600000000000000e+01
0.0000000000000000e+00 1.3600000000000000e+01
0.0000000000000000e+00 1.3600000000000000e+01
ITEM: ATOMS id type x y z 
1 1 6.62267 0.892218 7.6632 
2 1 6.89405 1.90678 8.70132 
3 1 6.50234 2.80479 9.62117 
7 1 6.67902 5.66466 12.4521 
8 1 6.66658 4.64541 11.4663 
9 1 6.58073 3.77742 10.5916 
49 1 5.63934 6.68285 12.4458 
50 1 4.63657 6.67497 11.4382 
51 1 3.77164 6.67131 10.5716 
55 1 0.898327 6.66996 7.70077 
56 1 1.90548 6.6737 8.70377 
57 1 2.77032 6.67146 9.57003 
25 1 0.894325 7.69449 6.67236 
26 1 1.90023 8.6989 6.67357 
27 1 2.76508 9.56521 6.67308 
31 1 5.64048 12.4319 6.6545 
32 1 4.63674 11.4272 6.65992 
33 1 3.76766 10.565 6.67164 
37 1 6.67523 12.4428 5.63922 
38 1 6.67321 11.4337 4.6333 
39 1 6.67224 10.5683 3.76826 
43 1 6.6726 7.6976 0.897571 
44 1 6.67381 8.70087 1.9027 
45 1 6.6733 9.56805 2.76626 
28 1 5.64185 7.70471 13.4737 
29 1 4.63597 8.71073 13.475 
30 1 3.76909 9.57447 13.4728 
34 1 0.896839 12.443 13.4774 
35 1 1.90525 11.4418 13.4693 
36 1 2.76894 10.5745 13.4722 
52 1 5.6116 13.4735 7.67234 
53 1 4.61743 13.4729 8.70295 
54 1 3.76839 13.4729 9.58356 
58 1 0.889292 13.4731 12.4542 
59 1 1.89694 13.471 11.4499 
60 1 2.76246 13.4705 10.5857 
13 1 7.70387 6.67358 0.905516 
14 1 8.70848 6.67678 1.91342 
15 1 9.57647 6.67183 2.77628 
19 1 12.4466 6.67118 5.64801 
20 1 11.4411 6.67091 4.64365 
21 1 10.5773 6.67209 3.77616 
61 1 12.4451 5.64468 6.67344 
62 1 11.4363 4.63808 6.67072 
63 1 10.5725 3.77317 6.67225 
67 1 7.67428 0.889047 6.6776 
68 1 8.70351 1.89874 6.6687 
69 1 9.56703 2.76436 6.67522 
4 1 13.4705 5.64367 7.69953 
5 1 13.4729 4.63978 8.70619 
6 1 13.4713 3.77356 9.57124 
10 1 13.4685 0.904954 12.4446 
11 1 13.4718 1.90789 11.4369 
12 1 13.4715 2.77306 10.5711 
64 1 7.70799 5.64928 13.4812 
65 1 8.70864 4.63869 13.4734 
66 1 9.5727 3.77217 13.4719 
70 1 12.4446 0.899728 13.4741 
71 1 11.4389 1.90438 13.4738 
72 1 10.5741 2.77033 13.4715 
73 2 8.01131 1.91925 8.64235 
16 1 7.70039 13.4694 5.64256 
17 1 8.7116 13.4757 4.63987 
18 1 9.57256 13.4687 3.7699 
22 1 12.4471 13.4722 0.899632 
23 1 11.4404 13.4727 1.9031 
24 1 10.5748 13.471 2.76816 
40 1 13.471 7.7013 5.6423 
41 1 13.4729 8.70696 4.63928 
42 1 13.4713 9.57179 3.77304 
46 1 13.4705 12.4421 0.905174 
47 1 13.4719 11.4365 1.90824 
48 1 13.4713 10.5707 2.7735 
ITEM: TIMESTEP
40
ITEM: NUMBER OF ATOMS
73
ITEM: BOX BOUNDS pp pp pp
0.0000000000000000e+00 1.3600000000000000e+01
0.0000000000000000e+00 1.3600000000000000e+01
0.0000000000000000e+00 1.3600000000000000e+01
ITEM: ATOMS id type x y z 
1 1 6.63477 0.899692 7.68303 
2 1 6.9369 1.91949 8.71142 
3 1 6.502 2.79837 9.62359 
7 1 6.6828 5.65356 12.4386 
8 1 6.63986 4.63342 11.4625 
9 1 6.54289 3.7625 10.5867 
49 1 5.64603 6.6768 12.4433 
50 1 4.63942 6.6772 11.4396 
51 1 3.77359 6.67024 10.5744 
55 1 0.897286 6.66946 7.69999 
56 1 1.9063 6.67313 8.70528 
57 1 2.77102 6.67124 9.57085 
25 1 0.895659 7.69445 6.67394 
26 1 1.90386 8.70186 6.6748 
27 1 2.76822 9.56749 6.67361 
31 1 5.63608 12.4434 6.65818 
32 1 4.63913 11.434 6.659 
33 1 3.77387 10.5687 6.67026 
37 1 6.67067 12.4441 5.64576 
38 1 6.67139 11.435 4.63608 
39 1 6.67386 10.571 3.76977 
43 1 6.67125 7.69678 0.894815 
44 1 6.67958 8.70095 1.9059 
45 1 6.67054 9.57071 2.76722 
28 1 5.64417 7.69865 13.4708 
29 1 4.63807 8.70842 13.4751 
30 1 3.77173 9.57225 13.473 
34 1 0.894389 12.4468 13.4757 
35 1 1.90384 11.4413 13.4712 
36 1 2.76869 10.5758 13.4715 
52 1 5.61363 13.4939 7.67096 
53 1 4.61755 13.4772 8.69787 
54 1 3.76963 13.4702 9.57951 
58 1 0.8924 13.4739 12.4501 
59 1 1.90214 13.4709 11.4462 
60 1 2.76869 13.471 10.5822 
13 1 7.70075 6.67141 0.900383 
14 1 8.707 6.67572 1.91077 
15 1 9.57332 6.67401 2.77448 
19 1 12.4488 6.66818 5.65258 
20 1 11.4387 6.66487 4.6449 
21 1 10.5784 6.67371 3.77532 
61 1 12.4389 5.63982 6.6747 
62 1 11.431 4.63125 6.66876 
63 1 10.567 3.76502 6.67509 
67 1 7.66637 0.892134 6.67975 
68 1 8.69983 1.89533 6.66286 
69 1 9.56329 2.76133 6.67181 
4 1 13.4686 5.64591 7.69555 
5 1 13.4722 4.64041 8.70472 
6 1 13.4715 3.77501 9.56943 
10 1 13.4682 0.901429 12.4477 
11 1 13.4716 1.90661 11.4385 
12 1 13.4715 2.77144 10.5732 
64 1 7.70686 5.65085 13.4756 
65 1 8.70512 4.64033 13.4714 
66 1 9.57087 3.77539 13.4729 
70 1 12.4439 0.899609 13.4748 
71 1 11.4368 1.90589 13.4744 
72 1 10.5723 2.77181 13.4719 
73 2 8.05243 1.92318 8.63086 
16 1 7.69336 13.4702 5.64231 
17 1 8.71042 13.4747 4.64602 
18 1 9.56816 13.4707 3.77292 
22 1 12.4448 13.4732 0.900404 
23 1 11.4366 13.4729 1.90628 
24 1 10.5717 13.47 2.77179 
40 1 13.4707 7.696 5.64844 
41 1 13.4728 8.70463 4.6414 
42 1 13.4714 9.56869 3.77562 
46 1 13.4695 12.4471 0.901165 
47 1 13.4715 11.4378 1.90734 
48 1 13.4711 10.5726 2.77212 
ITEM: TIMESTEP
50
ITEM: NUMBER OF ATOMS
73
ITEM: BOX BOUNDS pp pp pp
0.0000000000000000e+00 1.3600000000000000e+01
0.0000000000000000e+00 1.3600000000000000e+01
0.0000000000000000e+00 1.3600000000000000e+01
ITEM: ATOMS id type x y z 
1 1 6.64732 0.909205 7.70195 
2 1 6.9905 1.91865 8.71786 
3 1 6.49053 2.77821 9.62309 
7 1 6.67694 5.64794 12.4403 
8 1 6.6075 4.62766 11.4579 
9 1 6.49567 3.75739 10.5907 
49 1 5.64979 6.68056 12.4422 
50 1 4.63773 6.67504 11.4404 
51 1 3.77424 6.67242 10.5735 
55 1 0.895471 6.66881 7.69979 
56 1 1.90556 6.67111 8.70463 
57 1 2.77003 6.67033 9.57064 
25 1 0.896539 7.69599 6.67445 
26 1 1.90501 8.70313 6.67455 
27 1 2.7719 9.56746 6.67472 
31 1 5.62985 12.46 6.66183 
32 1 4.63559 11.4417 6.66123 
33 1 3.7757 10.5696 6.66833 
37 1 6.66387 12.4416 5.64713 
38 1 6.67055 11.4358 4.6364 
39 1 6.67303 10.5716 3.77028 
43 1 6.67506 7.69502 0.898031 
44 1 6.67211 8.70201 1.90048 
45 1 6.67612 9.56548 2.76638 
28 1 5.64685 7.69886 13.471 
29 1 4.6383 8.7077 13.4732 
30 1 3.77221 9.57222 13.4732 
34 1 0.894901 12.446 13.4754 
35 1 1.90382 11.4402 13.4724 
36 1 2.76919 10.5752 13.4721 
52 1 5.61653 13.5128 7.67279 
53 1 4.61995 13.4868 8.69585 
54 1 3.76926 13.4698 9.57343 
58 1 0.891754 13.4741 12.4537 
59 1 1.90052 13.4694 11.4463 
60 1 2.76946 13.4697 10.5858 
13 1 7.69988 6.67548 0.900548 
14 1 8.70745 6.67599 1.90913 
15 1 9.57387 6.67505 2.77337 
19 1 12.4442 6.66526 5.65094 
20 1 11.4408 6.66983 4.6431 
21 1 10.5755 6.67005 3.77774 
61 1 12.4404 5.63932 6.67419 
62 1 11.4316 4.63017 6.67337 
63 1 10.5676 3.76501 6.67381 
67 1 7.66377 0.888859 6.67712 
68 1 8.69677 1.89172 6.6549 
69 1 9.56134 2.75572 6.66555 
4 1 13.4684 5.64479 7.69677 
5 1 13.4713 4.63906 8.70532 
6 1 13.4715 3.77396 9.57056 
10 1 13.4683 0.901625 12.4468 
11 1 13.4717 1.90716 11.4384 
12 1 13.4711 2.77228 10.5729 
64 1 7.70282 5.65015 13.4675 
65 1 8.70844 4.64364 13.4705 
66 1 9.57016 3.77347 13.4722 
70 1 12.4441 0.898528 13.475 
71 1 11.437 1.90554 13.4748 
72 1 10.5719 2.77152 13.4735 
73 2 8.11503 1.92793 8.61251 
16 1 7.69203 13.4685 5.64342 
17 1 8.69684 13.4786 4.63892 
18 1 9.57032 13.4703 3.7825 
22 1 12.4443 13.4725 0.901111 
23 1 11.4352 13.4725 1.90743 
24 1 10.5705 13.4691 2.77337 
40 1 13.4707 7.69593 5.64746 
41 1 13.4721 8.70275 4.64243 
42 1 13.471 9.56821 3.77645 
46 1 13.4692 12.4452 0.903006 
47 1 13.4711 11.4368 1.90867 
48 1 13.4711 10.571 2.77385 
ITEM: TIMESTEP
60
ITEM: NUMBER OF ATOMS
73
ITEM: BOX BOUNDS pp pp pp
0.0000000000000000e+00 1.3600000000000000e+01
0.0000000000000000e+00 1.3600000000000000e+01
0.0000000000000000e+00 1.3600000000000000e+01
ITEM: ATOMS id type x y z 
1 1 6.6542 0.909498 7.70497 
2 1 7.00317 1.91985 8.72241 
3 1 6.49618 2.77645 9.6245 
7 1 6.67483 5.64436 12.4373 
8 1 6.59634 4.62473 11.4575 
9 1 6.48369 3.75182 10.5897 
49 1 5.64998 6.67784 12.4419 
50 1 4.63957 6.67742 11.4392 
51 1 3.77372 6.67144 10.5744 
55 1 0.896107 6.67017 7.69859 
56 1 1.90504 6.6714 8.70498 
57 1 2.76992 6.66985 9.57052 
25 1 0.896672 7.69639 6.67449 
26 1 1.9062 8.70419 6.67381 
27 1 2.77295 9.56763 6.67493 
31 1 5.62677 12.4642 6.66363 
32 1 4.63531 11.4454 6.66253 
33 1 3.77783 10.5721 6.66823 
37 1 6.66041 12.4432 5.64934 
38 1 6.66965 11.4356 4.63652 
39 1 6.67361 10.5712 3.77108 
43 1 6.67326 7.69451 0.895644 
44 1 6.67221 8.70307 1.90162 
45 1 6.67575 9.56718 2.76793 
28 1 5.64743 7.69881 13.4703 
29 1 4.63882 8.70749 13.4729 
30 1 3.77275 9.57163 13.4732 
34 1 0.893813 12.446 13.4765 
35 1 1.9035 11.4404 13.4726 
36 1 2.76888 10.5754 13.4723 
52 1 5.61859 13.5165 7.67254 
53 1 4.61998 13.4896 8.69647 
54 1 3.76815 13.4706 9.57354 
58 1 0.89255 13.4734 12.4521 
59 1 1.90288 13.4698 11.4475 
60 1 2.76947 13.4687 10.5839 
13 1 7.70211 6.67015 0.895752 
14 1 8.70729 6.67575 1.9077 
15 1 9.57249 6.67461 2.77276 
19 1 12.4465 6.66651 5.65205 
20 1 11.4403 6.66991 4.64265 
21 1 10.5753 6.67025 3.77741 
61 1 12.4392 5.638 6.67423 
62 1 11.4306 4.62942 6.67321 
63 1 10.5668 3.76324 6.6737 
67 1 7.66261 0.889204 6.67841 
68 1 8.69895 1.89111 6.65232 
69 1 9.56234 2.75684 6.66332 
4 1 13.4681 5.64527 7.69591 
5 1 13.4712 4.6396 8.70476 
6 1 13.4714 3.77456 9.5701 
10 1 13.4681 0.900597 12.4483 
11 1 13.4716 1.9062 11.4391 
12 1 13.4711 2.77145 10.5739 
64 1 7.70358 5.65105 13.4676 
65 1 8.70684 4.64387 13.4711 
66 1 9.56911 3.77549 13.4715 
70 1 12.4441 0.898146 13.4757 
71 1 11.4356 1.90441 13.4766 
72 1 10.5725 2.77179 13.4728 
73 2 8.12295 1.93018 8.60941 
16 1 7.68364 13.4682 5.64038 
17 1 8.70386 13.4754 4.6455 
18 1 9.56656 13.4716 3.77757 
22 1 12.4436 13.4722 0.901468 
23 1 11.4352 13.4723 1.90808 
24 1 10.5707 13.4695 2.77401 
40 1 13.4708 7.69401 5.6494 
41 1 13.4721 8.7028 4.64269 
42 1 13.471 9.56742 3.77696 
46 1 13.4686 12.446 0.902673 
47 1 13.471 11.4368 1.9088 
48 1 13.471 10.5714 2.77366 
ITEM: TIMESTEP
70
ITEM: NUMBER OF ATOMS
73
ITEM: BOX BOUNDS pp pp pp
0.0000000000000000e+00 1.3600000000000000e+01
0.0000000000000000e+00 1.3600000000000000e+01
0.0000000000000000e+00 1.3600000000000000e+01
ITEM: ATOMS id type x y z 
1 1 6.66201 0.909312 7.71101 
2 1 7.01722 1.91798 8.72565 
3 1 6.50558 2.77221 9.62663 
7 1 6.67217 5.6388 12.4362 
8 1 6.57988 4.62113 11.4558 
9 1 6.46775 3.74545 10.5915 
49 1 5.64988 6.67763 12.4419 
50 1 4.63976 6.67716 11.4388 
51 1 3.77377 6.67207 10.5742 
55 1 0.895816 6.67058 7.6979 
56 1 1.90458 6.671 8.70525 
57 1 2.76956 6.66969 9.5707 
25 1 0.898098 7.69779 6.6745 
26 1 1.90822 8.7053 6.67368 
27 1 2.77498 9.56875 6.67432 
31 1 5.6245 12.4708 6.66468 
32 1 4.63353 11.4506 6.6651 
33 1 3.77897 10.5745 6.66861 
37 1 6.6545 12.444 5.65024 
38 1 6.66742 11.436 4.6378 
39 1 6.67442 10.5713 3.7729 
43 1 6.6747 7.6936 0.89522 
44 1 6.67311 8.70249 1.90187 
45 1 6.67492 9.56705 2.76761 
28 1 5.6481 7.69815 13.4682 
29 1 4.63974 8.70727 13.4727 
30 1 3.77333 9.57097 13.473 
34 1 0.893589 12.4463 13.4768 
35 1 1.90348 11.4401 13.4731 
36 1 2.76882 10.5752 13.4727 
52 1 5.62127 13.5233 7.67607 
53 1 4.62165 13.4941 8.69719 
54 1 3.768 13.4725 9.57244 
58 1 0.8929 13.4733 12.4524 
59 1 1.90346 13.4696 11.4468 
60 1 2.76981 13.4675 10.583 
13 1 7.70164 6.67052 0.892532 
14 1 8.70695 6.67444 1.9056 
15 1 9.57057 6.67408 2.77205 
19 1 12.4463 6.66629 5.65215 
20 1 11.4399 6.66962 4.64256 
21 1 10.5754 6.67096 3.77695 
61 1 12.4392 5.63837 6.67436 
62 1 11.4302 4.62942 6.67197 
63 1 10.567 3.76263 6.67357 
67 1 7.66502 0.888754 6.67656 
68 1 8.70085 1.88885 6.64792 
69 1 9.56299 2.75585 6.65975 
4 1 13.4685 5.64604 7.6954 
5 1 13.4712 4.63954 8.70493 
6 1 13.4712 3.77459 9.57027 
10 1 13.4684 0.899664 12.4494 
11 1 13.4712 1.90582 11.4398 
12 1 13.4712 2.77072 10.5744 
64 1 7.70138 5.6496 13.4642 
65 1 8.70582 4.64369 13.4696 
66 1 9.56926 3.77628 13.4713 
70 1 12.4437 0.897758 13.4761 
71 1 11.435 1.90469 13.4771 
72 1 10.5718 2.7718 13.4729 
73 2 8.13582 1.93443 8.6062 
16 1 7.68372 13.4669 5.64055 
17 1 8.69736 13.4783 4.64192 
18 1 9.56662 13.4697 3.78056 
22 1 12.4431 13.4722 0.901615 
23 1 11.4343 13.4722 1.90944 
24 1 10.5701 13.4695 2.77555 
40 1 13.4712 7.69352 5.65094 
41 1 13.4725 8.70178 4.64334 
42 1 13.4707 9.56656 3.77787 
46 1 13.4681 12.4464 0.902497 
47 1 13.4707 11.4367 1.909 
48 1 13.4708 10.5713 2.7738 
ITEM: TIMESTEP
80
ITEM: NUMBER OF ATOMS
73
ITEM: BOX BOUNDS pp pp pp
0.0000000000000000e+00 1.3600000000000000e+01
0.0000000000000000e+00 1.3600000000000000e+01
0.0000000000000000e+00 1.3600000000000000e+01
ITEM: ATOMS id type x y z 
1 1 6.71878 0.907294 7.73752 
2 1 7.13459 1.89794 8.74055 
3 1 6.55046 2.72485 9.6498 
7 1 6.635 5.61204 12.4429 
8 1 6.46392 4.59993 11.4556 
9 1 6.36373 3.70328 10.6107 
49 1 5.64813 6.67533 12.4437 
50 1 4.63572 6.67903 11.4364 
51 1 3.77156 6.67534 10.5707 
55 1 0.893083 6.67376 7.69239 
56 1 1.89705 6.66518 8.70569 
57 1 2.76545 6.67127 9.56725 
25 1 0.906049 7.70459 6.67418 
26 1 1.91952 8.71215 6.66929 
27 1 2.78801 9.57442 6.67006 
31 1 5.6024 12.5173 6.67487 
32 1 4.61607 11.4897 6.68792 
33 1 3.78155 10.5942 6.67505 
37 1 6.62043 12.4511 5.64653 
38 1 6.64205 11.4298 4.64251 
39 1 6.67375 10.5669 3.77734 
43 1 6.68337 7.69386 0.892203 
44 1 6.67463 8.70314 1.89964 
45 1 6.67794 9.56117 2.7713 
28 1 5.65815 7.70287 13.4684 
29 1 4.64442 8.70741 13.4683 
30 1 3.7764 9.56934 13.4724 
34 1 0.893049 12.4448 13.4812 
35 1 1.90313 11.4375 13.4775 
36 1 2.76873 10.5729 13.4756 
52 1 5.64276 13.558 7.69169 
53 1 4.63332 13.5298 8.7109 
54 1 3.76517 13.4896 9.57098 
58 1 0.890414 13.4725 12.4577 
59 1 1.90036 13.4638 11.4504 
60 1 2.76195 13.4647 10.5825 
13 1 7.70636 6.6613 0.872849 
14 1 8.70729 6.66705 1.89164 
15 1 9.56558 6.67018 2.76311 
19 1 12.4438 6.67171 5.64563 
20 1 11.4339 6.67366 4.63692 
21 1 10.5679 6.67104 3.7736 
61 1 12.4415 5.64922 6.67286 
62 1 11.4468 4.62491 6.6773 
63 1 10.5738 3.76869 6.65106 
67 1 7.67806 0.879744 6.66884 
68 1 8.73226 1.86744 6.60872 
69 1 9.56522 2.76117 6.64807 
4 1 13.4681 5.64577 7.69715 
5 1 13.4719 4.63895 8.70659 
6 1 13.47 3.77255 9.57086 
10 1 13.4661 0.898634 12.4539 
11 1 13.4691 1.90588 11.4432 
12 1 13.4713 2.7695 10.5768 
64 1 7.68662 5.64204 13.4471 
65 1 8.69587 4.63774 13.4546 
66 1 9.56835 3.78059 13.4692 
70 1 12.442 0.894763 13.4787 
71 1 11.4347 1.90538 13.4749 
72 1 10.5703 2.77079 13.4777 
73 2 8.25219 1.97808 8.59196 
16 1 7.65146 13.4655 5.62602 
17 1 8.68941 13.4575 4.63965 
18 1 9.55429 13.475 3.77377 
22 1 12.4404 13.4698 0.905742 
23 1 11.4344 13.4718 1.91366 
24 1 10.571 13.4698 2.78066 
40 1 13.475 7.69061 5.65606 
41 1 13.4667 8.69874 4.64587 
42 1 13.4732 9.56404 3.78135 
46 1 13.466 12.4438 0.906017 
47 1 13.4689 11.4347 1.91183 
48 1 13.4683 10.5682 2.77556 
ITEM: TIMESTEP
90
ITEM: NUMBER OF ATOMS
73
ITEM: BOX BOUNDS pp pp pp
0.0000000000000000e+00 1.3600000000000000e+01
0.0000000000000000e+00 1.3600000000000000e+01
0.0000000000000000e+00 1.3600000000000000e+01
ITEM: ATOMS id type x y z 
1 1 6.72135 0.907822 7.74068 
2 1 7.13536 1.89879 8.7444 
3 1 6.55795 2.7255 9.65056 
7 1 6.63179 5.60618 12.4394 
8 1 6.46295 4.59194 11.4572 
9 1 6.36518 3.69774 10.6092 
49 1 5.64684 6.67473 12.4445 
50 1 4.63539 6.67954 11.4377 
51 1 3.77181 6.67571 10.5711 
55 1 0.893188 6.67452 7.69204 
56 1 1.89766 6.66588 8.70509 
57 1 2.76521 6.67107 9.56763 
25 1 0.907216 7.705 6.67337 
26 1 1.92011 8.71297 6.66988 
27 1 2.78842 9.57443 6.66997 
31 1 5.60315 12.5196 6.67643 
32 1 4.61537 11.4923 6.68877 
33 1 3.78084 10.5977 6.67587 
37 1 6.61685 12.4529 5.64803 
38 1 6.63932 11.4318 4.64349 
39 1 6.67197 10.567 3.7797 
43 1 6.68572 7.69146 0.890212 
44 1 6.67591 8.70184 1.90077 
45 1 6.67877 9.56151 2.77081 
28 1 5.65883 7.70244 13.4671 
29 1 4.64474 8.7074 13.4686 
30 1 3.77695 9.56954 13.4722 
34 1 0.892814 12.4454 13.4808 
35 1 1.90344 11.4372 13.4776 
36 1 2.76886 10.5725 13.4758 
52 1 5.64527 13.5619 7.69583 
53 1 4.63592 13.5321 8.71129 
54 1 3.76686 13.4917 9.57025 
58 1 0.890555 13.4719 12.4577 
59 1 1.90133 13.4638 11.4488 
60 1 2.763 13.4652 10.581 
13 1 7.70464 6.66114 0.870203 
14 1 8.70736 6.66556 1.88949 
15 1 9.56465 6.66995 2.76184 
19 1 12.4433 6.67142 5.64692 
20 1 11.4342 6.67363 4.63666 
21 1 10.5677 6.67123 3.77336 
61 1 12.443 5.64751 6.67163 
62 1 11.4424 4.62732 6.67596 
63 1 10.5728 3.7677 6.65253 
67 1 7.68231 0.878352 6.66925 
68 1 8.72707 1.87146 6.60895 
69 1 9.57212 2.75432 6.64289 
4 1 13.4683 5.64736 7.69608 
5 1 13.4714 4.63931 8.70624 
6 1 13.4702 3.7733 9.57035 
10 1 13.4665 0.897933 12.4543 
11 1 13.4715 1.9041 11.4424 
12 1 13.4698 2.76966 10.578 
64 1 7.68224 5.63956 13.4437 
65 1 8.69353 4.63794 13.4534 
66 1 9.56653 3.78077 13.4687 
70 1 12.441 0.894892 13.4792 
71 1 11.4344 1.90666 13.4754 
72 1 10.5696 2.77191 13.4773 
73 2 8.25167 1.98325 8.59507 
16 1 7.65674 13.4622 5.62825 
17 1 8.67793 13.4634 4.63135 
18 1 9.55668 13.4697 3.77999 
22 1 12.4415 13.4703 0.904757 
23 1 11.4331 13.4713 1.91487 
24 1 10.5695 13.4709 2.78133 
40 1 13.4745 7.69157 5.65675 
41 1 13.4679 8.69675 4.6445 
42 1 13.4722 9.5646 3.78234 
46 1 13.4661 12.4449 0.905244 
47 1 13.4694 11.4335 1.91144 
48 1 13.4683 10.5686 2.7766 
ITEM: TIMESTEP
100
ITEM: NUMBER OF ATOMS
73
ITEM: BOX BOUNDS pp pp pp
0.0000000000000000e+00 1.3600000000000000e+01
0.0000000000000000e+00 1.3600000000000000e+01
0.0000000000000000e+00 1.3600000000000000e+01
ITEM: ATOMS id type x y z 
1 1 6.72389 0.90822 7.74151 
2 1 7.1354 1.89982 8.74611 
3 1 6.56292 2.72565 9.6499 
7 1 6.6262 5.60052 12.4383 
8 1 6.47076 4.58569 11.4583 
9 1 6.3725 3.69084 10.6103 
49 1 5.6445 6.67302 12.4452 
50 1 4.63397 6.68029 11.4393 
51 1 3.7715 6.67602 10.5714 
55 1 0.893475 6.67547 7.69112 
56 1 1.89887 6.66789 8.70436 
57 1 2.76515 6.67079 9.5682 
25 1 0.907768 7.70515 6.67198 
26 1 1.92178 8.71285 6.67194 
27 1 2.7883 9.57609 6.66979 
31 1 5.60352 12.52 6.67923 
32 1 4.61495 11.4941 6.68958 
33 1 3.778 10.6017 6.67671 
37 1 6.61547 12.4551 5.64827 
38 1 6.6366 11.4324 4.64424 
39 1 6.66791 10.5671 3.78111 
43 1 6.68649 7.69165 0.889268 
44 1 6.68 8.70047 1.90231 
45 1 6.679 9.56166 2.77068 
28 1 5.65991 7.70185 13.4667 
29 1 4.64604 8.70783 13.4694 
30 1 3.77775 9.56932 13.4721 
34 1 0.892416 12.4455 13.4808 
35 1 1.90331 11.4374 13.4773 
36 1 2.76859 10.5728 13.4762 
52 1 5.64754 13.5623 7.69817 
53 1 4.63843 13.5347 8.7133 
54 1 3.76827 13.4943 9.57122 
58 1 0.891408 13.4714 12.4559 
59 1 1.90187 13.4644 11.4474 
60 1 2.76386 13.4664 10.5797 
13 1 7.70402 6.66005 0.866505 
14 1 8.70724 6.65934 1.8874 
15 1 9.56413 6.67147 2.75981 
19 1 12.4427 6.67118 5.64765 
20 1 11.4334 6.67314 4.63651 
21 1 10.568 6.67191 3.77238 
61 1 12.4429 5.64619 6.67165 
62 1 11.4387 4.63013 6.67068 
63 1 10.5732 3.76603 6.65691 
67 1 7.68492 0.876967 6.67126 
68 1 8.72364 1.87454 6.61414 
69 1 9.57834 2.74876 6.63266 
4 1 13.469 5.64845 7.69553 
5 1 13.4709 4.63992 8.7056 
6 1 13.4703 3.77452 9.57018 
10 1 13.4672 0.896555 12.455 
11 1 13.4704 1.90424 11.443 
12 1 13.4703 2.76869 10.5777 
64 1 7.67822 5.6374 13.4428 
65 1 8.69032 4.63693 13.4528 
66 1 9.56397 3.78051 13.4674 
70 1 12.4413 0.895482 13.4789 
71 1 11.4337 1.90766 13.4764 
72 1 10.5696 2.77345 13.4764 
73 2 8.24677 1.99062 8.60189 
16 1 7.65611 13.4618 5.62695 
17 1 8.67578 13.4609 4.62963 
18 1 9.55559 13.4689 3.7793 
22 1 12.4406 13.4716 0.904661 
23 1 11.433 13.4709 1.9154 
24 1 10.5688 13.4714 2.78131 
40 1 13.4736 7.69054 5.657 
41 1 13.4693 8.69746 4.64503 
42 1 13.4706 9.56404 3.78179 
46 1 13.4658 12.4459 0.904211 
47 1 13.4691 11.435 1.91129 
48 1 13.4692 10.5696 2.77587 
ITEM: TIMESTEP
110
ITEM: NUMBER OF ATOMS
73
ITEM: BOX BOUNDS pp pp pp
0.0000000000000000e+00 1.3600000000000000e+01
0.0000000000000000e+00 1.3600000000000000e+01
0.0000000000000000e+00 1.3600000000000000e+01
ITEM: ATOMS id type x y z 
1 1 6.72405 0.907646 7.74154 
2 1 7.13629 1.89943 8.74523 
3 1 6.563 2.72394 9.65026 
7 1 6.62461 5.59994 12.439 
8 1 6.47278 4.58386 11.4597 
9 1 6.37482 3.68941 10.6112 
49 1 5.64342 6.67291 12.446 
50 1 4.63314 6.68041 11.4398 
51 1 3.77104 6.67614 10.5715 
55 1 0.893446 6.67548 7.69084 
56 1 1.89894 6.66847 8.70386 
57 1 2.7649 6.67092 9.56796 
25 1 0.908093 7.70507 6.67177 
26 1 1.92154 8.71306 6.67166 
27 1 2.78804 9.57633 6.6703 
31 1 5.60376 12.5198 6.67944 
32 1 4.61423 11.4948 6.69016 
33 1 3.77678 10.6027 6.67701 
37 1 6.61504 12.4552 5.64786 
38 1 6.63522 11.4324 4.64423 
39 1 6.6664 10.567 3.78114 
43 1 6.68717 7.69175 0.889331 
44 1 6.68135 8.70019 1.9026 
45 1 6.67914 9.56126 2.77086 
28 1 5.66042 7.70206 13.4671 
29 1 4.64593 8.70772 13.469 
30 1 3.77814 9.56972 13.4725 
34 1 0.892374 12.4456 13.4805 
35 1 1.90328 11.4372 13.4775 
36 1 2.76871 10.5728 13.4761 
52 1 5.64798 13.5621 7.69908 
53 1 4.63932 13.5357 8.71422 
54 1 3.76882 13.4954 9.57177 
58 1 0.891206 13.471 12.456 
59 1 1.90162 13.4647 11.4473 
60 1 2.76374 13.467 10.5797 
13 1 7.70329 6.65939 0.86738 
14 1 8.70889 6.65993 1.88507 
15 1 9.5635 6.67027 2.75973 
19 1 12.4424 6.67121 5.64745 
20 1 11.433 6.67313 4.63627 
21 1 10.5677 6.67223 3.77194 
61 1 12.4431 5.64678 6.67175 
62 1 11.4385 4.6308 6.66941 
63 1 10.5738 3.76598 6.65681 
67 1 7.68544 0.876299 6.67087 
68 1 8.72426 1.87411 6.61454 
69 1 9.57968 2.74759 6.63064 
4 1 13.4689 5.64849 7.69543 
5 1 13.4709 4.63999 8.70563 
6 1 13.4703 3.77464 9.57022 
10 1 13.4669 0.896867 12.4548 
11 1 13.4702 1.90439 11.4429 
12 1 13.4702 2.76882 10.5775 
64 1 7.67691 5.63623 13.4431 
65 1 8.6896 4.63616 13.4522 
66 1 9.56351 3.77976 13.4671 
70 1 12.4412 0.896115 13.4789 
71 1 11.4336 1.90776 13.4767 
72 1 10.5697 2.77386 13.4761 
73 2 8.24833 1.99412 8.60454 
16 1 7.65599 13.462 5.62681 
17 1 8.67527 13.4601 4.62907 
18 1 9.55489 13.4686 3.77875 
22 1 12.4407 13.4718 0.904428 
23 1 11.4331 13.4708 1.91545 
24 1 10.5688 13.4715 2.78112 
40 1 13.4739 7.69056 5.65658 
41 1 13.4691 8.69812 4.64549 
42 1 13.4707 9.56387 3.78128 
46 1 13.4657 12.4464 0.903969 
47 1 13.4689 11.4352 1.9113 
48 1 13.4693 10.5698 2.77584 
ITEM: TIMESTEP
120
ITEM: NUMBER OF ATOMS
73
ITEM: BOX BOUNDS pp pp pp
0.0000000000000000e+00 1.3600000000000000e+01
0.0000000000000000e+00 1.3600000000000000e+01
0.0000000000000000e+00 1.3600000000000000e+01
ITEM: ATOMS id type x y z 
1 1 6.73977 0.898551 7.74111 
2 1 7.17259 1.89217 8.72723 
3 1 6.57971 2.67986 9.65881 
7 1 6.58385 5.57566 12.456 
8 1 6.51543 4.53545 11.4885 
9 1 6.44236 3.63796 10.64 
49 1 5.61684 6.66095 12.4642 
50 1 4.61112 6.68297 11.4545 
51 1 3.75775 6.67934 10.5776 
55 1 0.892664 6.67628 7.68205 
56 1 1.9019 6.68178 8.69212 
57 1 2.7613 6.67689 9.56265 
25 1 0.911441 7.70295 6.66036 
26 1 1.91531 8.7215 6.66705 
27 1 2.77832 9.58812 6.67895 
31 1 5.60551 12.5205 6.68947 
32 1 4.59551 11.5155 6.7066 
33 1 3.74754 10.6335 6.69107 
37 1 6.60024 12.4613 5.64179 
38 1 6.5957 11.4306 4.64526 
39 1 6.62426 10.5642 3.78331 
43 1 6.70099 7.69537 0.883482 
44 1 6.71487 8.68866 1.91415 
45 1 6.68392 9.55655 2.77494 
28 1 5.66483 7.70216 13.4712 
29 1 4.65926 8.71767 13.4818 
30 1 3.78419 9.57212 13.4711 
34 1 0.890889 12.443 13.477 
35 1 1.90169 11.4335 13.482 
36 1 2.77198 10.5741 13.4755 
52 1 5.66283 13.5549 7.71596 
53 1 4.66188 13.5638 8.74064 
54 1 3.78374 13.5269 9.59047 
58 1 0.883736 13.4674 12.4515 
59 1 1.89543 13.4738 11.4448 
60 1 2.76061 13.4837 10.5804 
13 1 7.6997 6.64706 0.859815 
14 1 8.71305 6.64581 1.86833 
15 1 9.5738 6.6552 2.73708 
19 1 12.4362 6.67873 5.64059 
20 1 11.4247 6.67362 4.63034 
21 1 10.563 6.67769 3.76243 
61 1 12.4405 5.65919 6.66866 