LAMMPS (3 Mar 2020)
Reading data file ...
  orthogonal box = (0 0 0) to (13.6 13.6 13.6)
  2 by 2 by 2 MPI processor grid
  reading atoms ...
  73 atoms
  read_data CPU = 0.00213623 secs
WARNING: Changed valency_val to valency_boc for X (../reaxc_ffield.cpp:315)
WARNING: Using 'neigh_modify every 1 delay 0 check yes' setting during minimization (../min.cpp:190)
Neighbor list info ...
  update every 1 steps, delay 0 steps, check yes
  max neighbors/atom: 2000, page size: 100000
  master list distance cutoff = 12
  ghost atom cutoff = 12
  binsize = 6, bins = 3 3 3
  2 neighbor lists, perpetual/occasional/extra = 2 0 0
  (1) pair reax/c, perpetual
      attributes: half, newton off, ghost
      pair build: half/bin/newtoff/ghost
      stencil: half/ghost/bin/3d/newtoff
      bin: standard
  (2) fix qeq/reax, perpetual, copy from (1)
      attributes: half, newton off, ghost
      pair build: copy
      stencil: none
      bin: none
Setting up cg style minimization ...
  Unit style    : real
  Current step  : 0
Per MPI rank memory allocation (min/avg/max) = 20.85 | 22.02 | 22.51 Mbytes
Step Temp E_pair E_mol TotEng Press 
       0            0   -13201.269            0   -13201.269    53253.955 
     137            0   -13372.546            0   -13372.546    2758.1608 
Loop time of 3.28041 on 8 procs for 137 steps with 73 atoms

99.2% CPU use with 8 MPI tasks x no OpenMP threads

Minimization stats:
  Stopping criterion = energy tolerance
  Energy initial, next-to-last, final = 
        -13201.2692196     -13372.5463156     -13372.5464094
  Force two-norm initial, final = 1179.71 18.9777
  Force max component initial, final = 280.73 5.56932
  Final line search alpha, max atom move = 0.000279004 0.00155387
  Iterations, force evaluations = 137 892

MPI task timing breakdown:
Section |  min time  |  avg time  |  max time  |%varavg| %total
---------------------------------------------------------------
Pair    | 2.3706     | 2.5715     | 2.6802     |   7.4 | 78.39
Neigh   | 0          | 0          | 0          |   0.0 |  0.00
Comm    | 0.031367   | 0.13906    | 0.33985    |  31.6 |  4.24
Output  | 0.00034283 | 0.00046864 | 0.00093766 |   0.0 |  0.01
Modify  | 0.56132    | 0.56198    | 0.56266    |   0.1 | 17.13
Other   |            | 0.0074     |            |       |  0.23

Nlocal:    9.125 ave 13 max 0 min
Histogram: 2 0 0 0 0 0 0 0 0 6
Nghost:    795.375 ave 806 max 780 min
Histogram: 2 0 0 0 0 0 2 2 0 2
Neighs:    1955.5 ave 2771 max 0 min
Histogram: 2 0 0 0 0 0 0 0 0 6

Total # of neighbors = 15644
Ave neighs/atom = 214.301
Neighbor list builds = 0
Dangerous builds = 0
WARNING: Using 'neigh_modify every 1 delay 0 check yes' setting during minimization (../min.cpp:190)
Setting up cg style minimization ...
  Unit style    : real
  Current step  : 137
Per MPI rank memory allocation (min/avg/max) = 20.85 | 22.02 | 22.51 Mbytes
Step Temp E_pair E_mol TotEng Press 
     137            0   -13372.546            0   -13372.546    2758.1626 
     209            0   -13373.472            0   -13373.472    1584.4016 
Loop time of 2.3293 on 8 procs for 72 steps with 73 atoms

99.2% CPU use with 8 MPI tasks x no OpenMP threads

Minimization stats:
  Stopping criterion = energy tolerance
  Energy initial, next-to-last, final = 
        -13372.5464086     -13373.4715945     -13373.4716749
  Force two-norm initial, final = 18.9777 6.37519
  Force max component initial, final = 5.56932 2.62799
  Final line search alpha, max atom move = 3.41918e-05 8.9856e-05
  Iterations, force evaluations = 72 655

MPI task timing breakdown:
Section |  min time  |  avg time  |  max time  |%varavg| %total
---------------------------------------------------------------
Pair    | 1.7191     | 1.8651     | 1.9396     |   6.1 | 80.07
Neigh   | 0          | 0          | 0          |   0.0 |  0.00
Comm    | 0.023925   | 0.097739   | 0.24387    |  26.6 |  4.20
Output  | 0.00016533 | 0.00027149 | 0.00052967 |   0.0 |  0.01
Modify  | 0.36051    | 0.36096    | 0.36153    |   0.1 | 15.50
Other   |            | 0.005194   |            |       |  0.22

Nlocal:    9.125 ave 14 max 0 min
Histogram: 2 0 0 0 0 0 0 1 4 1
Nghost:    795.375 ave 807 max 780 min
Histogram: 2 0 0 0 0 2 0 2 1 1
Neighs:    1941.5 ave 2954 max 0 min
Histogram: 2 0 0 0 0 0 0 1 4 1

Total # of neighbors = 15532
Ave neighs/atom = 212.767
Neighbor list builds = 0
Dangerous builds = 0
WARNING: Using 'neigh_modify every 1 delay 0 check yes' setting during minimization (../min.cpp:190)
Setting up cg style minimization ...
  Unit style    : real
  Current step  : 209
WARNING: Energy due to 3 extra global DOFs will be included in minimizer energies
Per MPI rank memory allocation (min/avg/max) = 20.85 | 22.02 | 22.51 Mbytes
Step Temp E_pair E_mol TotEng Press Volume 
     209            0   -13373.472            0   -13373.472    1584.4036     2515.456 
     235            0   -13373.555            0   -13373.555   -46.078631    2516.4378 
Loop time of 0.129706 on 8 procs for 26 steps with 73 atoms

99.1% CPU use with 8 MPI tasks x no OpenMP threads

Minimization stats:
  Stopping criterion = energy tolerance
  Energy initial, next-to-last, final = 
        -13373.4716738      -13373.554927     -13373.5550054
  Force two-norm initial, final = 112.006 22.8908
  Force max component initial, final = 85.6201 11.4928
  Final line search alpha, max atom move = 4.55537e-05 0.000523541
  Iterations, force evaluations = 26 38

MPI task timing breakdown:
Section |  min time  |  avg time  |  max time  |%varavg| %total
---------------------------------------------------------------
Pair    | 0.10188    | 0.11055    | 0.11492    |   1.5 | 85.23
Neigh   | 0          | 0          | 0          |   0.0 |  0.00
Comm    | 0.0013295  | 0.0056615  | 0.014326   |   6.5 |  4.36
Output  | 6.5793e-05 | 9.0341e-05 | 0.00018241 |   0.0 |  0.07
Modify  | 0.012316   | 0.012348   | 0.012373   |   0.0 |  9.52
Other   |            | 0.001054   |            |       |  0.81

Nlocal:    9.125 ave 14 max 0 min
Histogram: 2 0 0 0 0 0 0 1 4 1
Nghost:    795.375 ave 807 max 780 min
Histogram: 2 0 0 0 0 2 0 2 1 1
Neighs:    1941.5 ave 2952 max 0 min
Histogram: 2 0 0 0 0 0 0 1 4 1

Total # of neighbors = 15532
Ave neighs/atom = 212.767
Neighbor list builds = 0
Dangerous builds = 0
WARNING: Using 'neigh_modify every 1 delay 0 check yes' setting during minimization (../min.cpp:190)
Setting up cg style minimization ...
  Unit style    : real
  Current step  : 235
Per MPI rank memory allocation (min/avg/max) = 20.85 | 22.02 | 22.51 Mbytes
Step Temp E_pair E_mol TotEng Press 
     235            0   -13373.555            0   -13373.555   -46.079494 
     310            0   -13373.992            0   -13373.992    212.53563 
Loop time of 2.38764 on 8 procs for 75 steps with 73 atoms

99.3% CPU use with 8 MPI tasks x no OpenMP threads

Minimization stats:
  Stopping criterion = energy tolerance
  Energy initial, next-to-last, final = 
        -13373.5550054     -13373.9919196     -13373.9919937
  Force two-norm initial, final = 20.8795 7.73136
  Force max component initial, final = 11.4928 1.72765
  Final line search alpha, max atom move = 0.000755267 0.00130483
  Iterations, force evaluations = 75 677

MPI task timing breakdown:
Section |  min time  |  avg time  |  max time  |%varavg| %total
---------------------------------------------------------------
Pair    | 1.7718     | 1.9223     | 1.9988     |   6.2 | 80.51
Neigh   | 0          | 0          | 0          |   0.0 |  0.00
Comm    | 0.023681   | 0.099694   | 0.2503     |  27.1 |  4.18
Output  | 0.00016454 | 0.00023464 | 0.00046413 |   0.0 |  0.01
Modify  | 0.35981    | 0.3602     | 0.3607     |   0.1 | 15.09
Other   |            | 0.005211   |            |       |  0.22

Nlocal:    9.125 ave 14 max 0 min
Histogram: 2 0 0 0 0 0 0 1 4 1
Nghost:    795.375 ave 807 max 780 min
Histogram: 2 0 0 0 0 2 0 2 1 1
Neighs:    1941.5 ave 2953 max 0 min
Histogram: 2 0 0 0 0 0 0 1 4 1

Total # of neighbors = 15532
Ave neighs/atom = 212.767
Neighbor list builds = 0
Dangerous builds = 0
WARNING: Using 'neigh_modify every 1 delay 0 check yes' setting during minimization (../min.cpp:190)
Setting up cg style minimization ...
  Unit style    : real
  Current step  : 310
WARNING: Energy due to 3 extra global DOFs will be included in minimizer energies
Per MPI rank memory allocation (min/avg/max) = 20.85 | 22.02 | 22.51 Mbytes
Step Temp E_pair E_mol TotEng Press Volume 
     310            0   -13373.992            0   -13373.992    212.53588    2516.4378 
     353            0   -13374.073            0   -13374.073    66.722659    2516.3904 
Loop time of 0.226212 on 8 procs for 43 steps with 73 atoms

99.0% CPU use with 8 MPI tasks x no OpenMP threads

Minimization stats:
  Stopping criterion = energy tolerance
  Energy initial, next-to-last, final = 
        -13373.9919937     -13374.0724048     -13374.0725315
  Force two-norm initial, final = 43.2679 8.3138
  Force max component initial, final = 31.8351 3.12837
  Final line search alpha, max atom move = 1.31407e-05 4.11091e-05
  Iterations, force evaluations = 43 67

MPI task timing breakdown:
Section |  min time  |  avg time  |  max time  |%varavg| %total
---------------------------------------------------------------
Pair    | 0.17787    | 0.19281    | 0.20033    |   1.9 | 85.23
Neigh   | 0          | 0          | 0          |   0.0 |  0.00
Comm    | 0.0023044  | 0.0097739  | 0.024716   |   8.6 |  4.32
Output  | 9.1981e-05 | 0.0001212  | 0.00022598 |   0.0 |  0.05
Modify  | 0.021769   | 0.021807   | 0.02185    |   0.0 |  9.64
Other   |            | 0.001702   |            |       |  0.75

Nlocal:    9.125 ave 14 max 0 min
Histogram: 2 0 0 0 0 0 0 1 4 1
Nghost:    795.375 ave 807 max 780 min
Histogram: 2 0 0 0 0 2 0 2 1 1
Neighs:    1941.75 ave 2951 max 0 min
Histogram: 2 0 0 0 0 0 0 1 4 1

Total # of neighbors = 15534
Ave neighs/atom = 212.795
Neighbor list builds = 0
Dangerous builds = 0
WARNING: Using 'neigh_modify every 1 delay 0 check yes' setting during minimization (../min.cpp:190)
Setting up cg style minimization ...
  Unit style    : real
  Current step  : 353
Per MPI rank memory allocation (min/avg/max) = 20.85 | 22.02 | 22.51 Mbytes
Step Temp E_pair E_mol TotEng Press 
     353            0   -13374.073            0   -13374.073    66.723552 
     367            0    -13374.12            0    -13374.12    -696.1964 
Loop time of 0.411431 on 8 procs for 14 steps with 73 atoms

99.3% CPU use with 8 MPI tasks x no OpenMP threads

Minimization stats:
  Stopping criterion = energy tolerance
  Energy initial, next-to-last, final = 
        -13374.0725306     -13374.1194656     -13374.1195395
  Force two-norm initial, final = 7.08567 17.5873
  Force max component initial, final = 1.908 4.32722
  Final line search alpha, max atom move = 0.00427425 0.0184956
  Iterations, force evaluations = 14 115

MPI task timing breakdown:
Section |  min time  |  avg time  |  max time  |%varavg| %total
---------------------------------------------------------------
Pair    | 0.30362    | 0.3291     | 0.34239    |   2.6 | 79.99
Neigh   | 0          | 0          | 0          |   0.0 |  0.00
Comm    | 0.0040542  | 0.017255   | 0.042657   |  11.4 |  4.19
Output  | 2.4145e-05 | 3.1853e-05 | 5.381e-05  |   0.0 |  0.01
Modify  | 0.063964   | 0.064041   | 0.064139   |   0.0 | 15.57
Other   |            | 0.001002   |            |       |  0.24

Nlocal:    9.125 ave 14 max 0 min
Histogram: 2 0 0 0 0 0 0 1 4 1
Nghost:    795.375 ave 807 max 780 min
Histogram: 2 0 0 0 0 2 0 2 1 1
Neighs:    1939.75 ave 2948 max 0 min
Histogram: 2 0 0 0 0 0 0 1 4 1

Total # of neighbors = 15518
Ave neighs/atom = 212.575
Neighbor list builds = 0
Dangerous builds = 0
Setting up Verlet run ...
  Unit style    : real
  Current step  : 0
  Time step     : 0.25
Per MPI rank memory allocation (min/avg/max) = 19.73 | 20.9 | 21.38 Mbytes
Step Temp TotEng KinEng PotEng Press 
       0          300   -13309.734    64.385497    -13374.12    473.42012 
     200    202.69036   -13285.799    43.501065     -13329.3    8828.2082 
     400    271.39088   -13245.549    58.245455   -13303.794    18344.068 
     600    307.64757   -13237.602    66.026807   -13303.629   -6384.1452 
     800    271.98544   -13251.181     58.37306   -13309.554   -9600.6203 
    1000    330.57318   -13231.804    70.947061   -13302.751   -2687.8878 
    1200    238.44309   -13244.121    51.174256   -13295.295   -11239.602 
    1400    311.03314   -13236.472    66.753412   -13303.226   -1489.8197 
    1600    316.49445   -13234.646    67.925508   -13302.572   -22069.152 
    1800    288.11297   -13245.784    61.834322   -13307.619    2828.1707 
    2000    334.55247   -13228.506    71.801089   -13300.307    13909.075 
    2200     281.9591   -13249.682     60.51359   -13310.196    3495.4074 
    2400    260.60028   -13247.751    55.929596    -13303.68   -4758.5261 
    2600    366.42206     -13237.7    78.640888   -13316.341    3377.3343 
    2800    288.08424   -13246.499    61.828156   -13308.327   -3329.9491 
    3000    341.55914   -13224.447     73.30485   -13297.752   -14779.225 
    3200    305.98994   -13242.057    65.671049   -13307.728   -3799.5507 
    3400    310.45309   -13242.191    66.628923    -13308.82    2745.3319 
    3600    322.45385   -13219.067    69.204505   -13288.271    2137.4544 
    3800    275.00979   -13242.998     59.02214    -13302.02    5949.8427 
    4000    272.02055   -13250.798    58.380594   -13309.178   -6568.4441 
    4200     259.4495   -13256.646    55.682616   -13312.329   -15543.816 
    4400    265.29912     -13238.3    56.938052   -13295.238   -2389.5959 
    4600    280.51636    -13249.37     60.20395   -13309.574   -8814.1877 
    4800      286.851   -13234.027    61.563481   -13295.591    12550.637 
    5000    308.09881   -13235.136     66.12365    -13301.26    6699.9324 
    5200    309.63459   -13246.679    66.453258   -13313.132    7306.3811 
    5400    296.52438     -13242.6    63.639565   -13306.239   -2565.5614 
    5600    312.28258   -13247.415    67.021563   -13314.437    18968.038 
    5800    264.42173   -13258.355    56.749748   -13315.104   -12699.245 
    6000    299.10177   -13239.292     64.19272   -13303.484   -9591.2512 
    6200    300.90573   -13239.396    64.579884   -13303.976   -16375.721 
    6400    287.12041   -13252.418    61.621301   -13314.039   -7435.1738 
    6600    326.50471   -13231.879    70.073893   -13301.953    -12985.11 
    6800    318.99361   -13237.685    68.461873   -13306.147   -656.37623 
    7000     248.7786   -13265.191    53.392446   -13318.584   -5315.3211 
    7200    267.53623   -13251.084    57.418178   -13308.502    23226.774 
    7400     291.4259   -13236.937    62.545338   -13299.482   -13160.093 
    7600    303.56943   -13237.266    65.151562   -13302.418   -6580.9325 
    7800      271.541    -13250.25    58.277674   -13308.527   -10391.833 
    8000    329.04065   -13230.609    70.618154   -13301.228    -12016.47 
    8200    305.20539   -13239.296     65.50267   -13304.799    2630.3789 
    8400    285.76998    -13244.42    61.331473   -13305.751    5077.8408 
    8600    339.48461   -13226.086    72.859618   -13298.945   -384.04879 
    8800    299.99797   -13246.279    64.385061   -13310.664    21589.518 
    9000    306.61012   -13239.984    65.804149   -13305.788    2682.0016 
    9200    299.10098   -13241.646    64.192552   -13305.838    5345.3734 
    9400    285.55651   -13253.121     61.28566   -13314.407    4921.7516 
    9600     310.0983   -13234.577    66.552778    -13301.13    8030.2608 
    9800    283.39486   -13246.535     60.82173   -13307.357    2075.3662 
   10000    244.10737       -13265    52.389915    -13317.39   -967.31836 
   10200    302.94411   -13244.627    65.017357   -13309.645    10964.426 
   10400    308.51591   -13234.069    66.213168   -13300.282   -725.88687 
   10600    331.06132   -13238.228    71.051825    -13309.28    10947.939 
   10800    260.69746   -13249.691    55.950452   -13305.642    2639.9077 
   11000    317.08732   -13236.002    68.052749   -13304.055   -2274.2337 
   11200    287.18927   -13241.477     61.63608   -13303.114    2113.6931 
   11400    254.51281   -13255.721    54.623113   -13310.344    7199.4026 
   11600    291.65938   -13254.242    62.595448   -13316.837    8931.9062 
   11800    336.72851   -13239.732    72.268109       -13312   -2555.2266 
   12000     249.9529   -13243.667    53.644473   -13297.311    3623.3176 
   12200    327.49717   -13226.827    70.286894   -13297.114    2957.1295 
   12400    256.56758   -13247.608    55.064103   -13302.672   -2649.2108 
   12600    280.10837   -13232.793    60.116389   -13292.909    9395.6011 
   12800    317.39091   -13236.555    68.117904   -13304.673   -9984.5435 
   13000    326.52412   -13242.342    70.078059    -13312.42    11887.381 
   13200    334.23409   -13233.618    71.732761   -13305.351    8708.1947 
   13400    307.21228   -13233.106    65.933385    -13299.04   -8452.3841 
   13600    295.85838   -13248.737    63.496631   -13312.234    382.25337 
   13800    300.31883   -13233.907    64.453924   -13298.361    2416.6005 
   14000    294.16317   -13228.123    63.132807   -13291.256   -10517.179 
   14200    287.07824   -13238.708     61.61225   -13300.321    3663.3623 
   14400     331.1812   -13251.734    71.077553   -13322.812    2707.4142 
   14600    316.48796    -13229.55    67.924116   -13297.475    20408.868 
   14800     314.8535   -13239.821    67.573331   -13307.394    -6262.934 
   15000    255.50539   -13249.387    54.836139   -13304.223    11525.882 
   15200    272.58589   -13241.056    58.501926   -13299.558    8466.2219 
   15400    312.03557   -13235.507    66.968552   -13302.475   -21262.011 
   15600    283.15185   -13255.128    60.769575   -13315.898   -1660.5824 
   15800    288.94685   -13252.007    62.013288    -13314.02    -4523.233 
   16000    324.11849   -13239.326    69.561767   -13308.888   -11543.982 
   16200    250.72622   -13255.352     53.81044   -13309.163   -9590.8081 
   16400    249.98236    -13257.61    53.650796   -13311.261    7377.7839 
   16600    288.21255   -13242.285    61.855695   -13304.141    10143.782 
   16800    315.97115   -13223.989    67.813199   -13291.802    16910.225 
   17000    315.44125   -13242.222    67.699473   -13309.921   -9339.7748 
   17200    307.47046   -13238.361    65.988795    -13304.35    2657.9624 
   17400    369.56398   -13222.689    79.315202   -13302.004   -466.63384 
   17600    261.17008    -13248.49    56.051884   -13304.541    11967.676 
   17800    318.57532   -13242.227    68.372102     -13310.6   -12452.958 
   18000    266.31583   -13244.088    57.156258   -13301.244   -7533.5397 
   18200     309.8578    -13252.97    66.501163   -13319.471    13909.279 
   18400     313.7276   -13239.581    67.331692   -13306.913   -3818.7108 
   18600    327.16911    -13224.59    70.216487   -13294.806   -13995.988 
   18800    277.55809   -13244.068    59.569053   -13303.637    3290.1507 
   19000    290.14785   -13246.362    62.271046   -13308.633    18686.369 
   19200     323.3229   -13229.827    69.391019   -13299.218    3190.1795 
   19400    279.21605   -13251.588     59.92488   -13311.512    3253.8905 
   19600    291.42971    -13248.67    62.546155   -13311.216    834.61757 
   19800    351.47247   -13232.077    75.432433    -13307.51    -9694.118 
   20000    268.74993   -13254.928    57.678659   -13312.606    56.480322 
   20200    292.25144   -13248.011    62.722514   -13310.733   -8724.2191 
   20400    280.56769   -13235.474    60.214967   -13295.689   -13202.262 
   20600    311.64044   -13237.589    66.883748   -13304.472    11928.051 
   20800    274.22922   -13243.291    58.854616   -13302.146    2501.7862 
   21000    245.23495   -13253.494    52.631913   -13306.126    3381.8782 
   21200    338.50238    -13233.32    72.648813   -13305.969    3598.0968 
   21400    295.84152   -13239.759    63.493011   -13303.252    4750.5878 
   21600    252.09781   -13257.567    54.104809   -13311.672   -11505.772 
   21800     277.0961    -13240.18    59.469899    -13299.65   -14406.535 
   22000    274.32507   -13237.692    58.875187   -13296.567    9573.0966 
   22200    294.54218   -13243.657    63.214148   -13306.871   -9005.5124 
   22400    265.57919   -13249.968    56.998161   -13306.966    8482.9197 
   22600    346.33759   -13230.824    74.330393   -13305.155    3279.0948 
   22800    284.07946   -13248.245    60.968657   -13309.213    7479.5286 
   23000    300.94473   -13248.657    64.588254   -13313.245     784.4035 
   23200    288.55961   -13247.705     61.93018   -13309.635    -9759.217 
   23400     339.8588   -13228.671    72.939926    -13301.61   -18581.436 
   23600    286.29745   -13241.023    61.444679   -13302.467   -10703.345 
   23800    261.60691   -13246.127    56.145637   -13302.273     1548.934 
   24000    251.80294    -13246.65    54.041524   -13300.691    3646.3191 
   24200     320.3653   -13222.459    68.756264   -13291.215    28287.985 
   24400    320.46707   -13233.064    68.778105   -13301.842   -19155.043 
   24600    268.76151   -13239.671    57.681144   -13297.352   -11933.049 
   24800    295.42202   -13245.889    63.402979   -13309.292     4767.008 
   25000    281.03114   -13255.159    60.314432   -13315.474    6903.4528 
   25200    320.71944   -13233.012    68.832268   -13301.844   -4587.5026 
   25400    297.85014   -13247.695    63.924098   -13311.619    -14151.85 
   25600    276.91589   -13252.299    59.431223    -13311.73    2571.7616 
   25800    303.31931   -13237.878    65.097881   -13302.976    2869.4772 
   26000    278.49674    -13241.35    59.770504    -13301.12   -7577.4568 
   26200    285.61155   -13251.272    61.297473    -13312.57    9827.8678 
   26400    320.32633   -13232.863      68.7479   -13301.611    3708.6999 
   26600    303.07012   -13238.491      65.0444   -13303.535    1569.7008 
   26800    320.22932   -13252.716     68.72708   -13321.443    7985.2917 
   27000    320.53687   -13232.484    68.793085   -13301.277     4583.496 
   27200    324.27433   -13231.496    69.595214   -13301.091    11705.632 
   27400    263.64302   -13252.349    56.582624   -13308.932   -2617.3202 
   27600    319.07011   -13237.619    68.478291   -13306.097   -13935.373 
   27800    271.89988   -13234.465    58.354696    -13292.82   -7230.8676 
   28000    262.27884   -13255.265    56.289845   -13311.555   -12011.821 
   28200    277.60541   -13237.078    59.579209   -13296.657    1220.7305 
   28400    321.53693   -13239.116    69.007718   -13308.124    7312.5509 
   28600    275.36325   -13258.618    59.097999   -13317.716   -8618.0375 
   28800    340.95879    -13232.97    73.176004   -13306.146   -16418.998 
   29000    279.87253   -13246.477    60.065773   -13306.543   -8550.8668 
   29200    355.76084   -13245.036    76.352795   -13321.389   -3170.5352 
   29400    315.26573   -13231.891    67.661802   -13299.552   -5433.2862 
   29600    273.97171   -13245.602    58.799349   -13304.401    15459.274 
   29800    293.07207   -13234.413    62.898637   -13297.312    8444.5491 
   30000    336.40933   -13221.674    72.199607   -13293.874    6268.6242 
   30200    319.52001   -13243.466    68.574849   -13312.041   -18309.707 
   30400    290.49954   -13249.388    62.346524   -13311.734    4835.9287 
   30600    302.61098    -13229.07     64.94586   -13294.015    13966.044 
   30800    308.50201   -13245.286    66.210184   -13311.497     5122.808 
   31000    295.54747   -13246.855    63.429902   -13310.285     -1487.74 
   31200    358.95554   -13226.368    77.038435   -13303.406    11963.173 
   31400    307.36199   -13243.289    65.965516   -13309.254    12795.661 
   31600    267.62337   -13244.809     57.43688   -13302.246   -9912.2648 
   31800    291.85061   -13220.699    62.636488   -13283.336    2093.4227 
   32000    333.34007   -13231.848    71.540886   -13303.389    692.78302 
   32200    298.67776   -13246.649     64.10172   -13310.751   -15960.896 
   32400    305.21718   -13238.365    65.505199    -13303.87   -4538.9701 
   32600    290.27571   -13234.474    62.298487   -13296.773    4460.9742 
   32800    276.44141   -13250.972    59.329391   -13310.302   -6594.7792 
   33000    296.67246   -13243.194    63.671346   -13306.865   -3453.4531 
   33200    365.70353   -13224.626    78.486679   -13303.113    10799.486 
   33400    317.34084   -13241.158    68.107159   -13309.265    -10185.81 
   33600    261.85495    -13255.53     56.19887   -13311.729   -1946.3318 
   33800    275.75506   -13253.681     59.18209   -13312.863   -7331.7627 
   34000    307.67307   -13236.299     66.03228   -13302.331     -9479.74 
   34200    282.48087   -13239.887    60.625571   -13300.513    3127.1216 
   34400    276.17239   -13255.348    59.271655   -13314.619    3656.5135 
   34600    307.79758   -13228.338       66.059   -13294.397   -19497.793 
   34800    290.40437   -13238.723    62.326099   -13301.049   -7712.9726 
   35000    260.60652   -13251.082    55.930934   -13307.013   -2387.0185 
   35200     330.9608   -13226.511    71.030253   -13297.541   -9958.6667 
   35400    323.53825   -13229.546    69.437237   -13298.983    12149.648 
   35600    292.94368   -13245.064    62.871082   -13307.935   -12831.859 
   35800    328.37649   -13237.804    70.475611   -13308.279   -13341.526 
   36000    295.73751    -13247.02    63.470688    -13310.49    11483.576 
   36200     289.6139   -13256.217    62.156449   -13318.373    -9254.857 
   36400    340.97306   -13235.259    73.179066   -13308.438    7043.7763 
   36600    280.13843   -13248.107    60.122841    -13308.23   -3537.0573 
   36800    271.31327    -13248.91    58.228798   -13307.138   -2041.3187 
   37000    325.78348   -13230.486    69.919104   -13300.406    2186.4863 
   37200     272.5053   -13250.148    58.484631   -13308.633   -6126.0943 
   37400    320.89935   -13242.634    68.870881   -13311.504    3186.3092 
   37600    330.06427   -13238.933    70.837841    -13309.77   -9586.1591 
   37800    314.06271   -13230.776    67.403612    -13298.18   -6350.8857 
   38000    315.11143   -13238.817    67.628687   -13306.446    5663.2696 
   38200    290.39029   -13251.287    62.323077    -13313.61    16471.529 
   38400    338.57328   -13231.369    72.664029   -13304.033    6452.3499 
   38600    308.29695   -13238.072    66.166174   -13304.238    21701.781 
   38800    258.10732   -13244.121    55.394561   -13299.516    8182.1683 
   39000    304.83593   -13248.046    65.423377    -13313.47    5091.7012 
   39200     293.4046   -13243.429    62.970002   -13306.399   -2035.5418 
   39400    345.82442   -13228.337    74.220257   -13302.557   -132.68132 
   39600    302.22868   -13242.447    64.863813   -13307.311     -897.816 
   39800    287.12257   -13245.298    61.621764    -13306.92   -5396.0125 
   40000    327.43556   -13229.059    70.273672   -13299.333   -18039.166 
   40200    312.03885   -13241.226    66.969254   -13308.195    18827.788 
   40400     275.1056    -13243.86    59.042702   -13302.903   -4119.9524 
   40600     286.3814   -13240.224    61.462696   -13301.687   -10840.861 
   40800    261.41463   -13241.433     56.10437   -13297.538    1810.5738 
   41000    275.00886    -13256.99    59.021941   -13316.012    -5609.759 
   41200    333.42152   -13237.451    71.558367   -13309.009   -6673.5329 
   41400    280.65812   -13236.019    60.234375   -13296.254    7009.6259 
   41600     295.7151   -13239.689    63.465878   -13303.155   -4895.0806 
   41800     273.4957   -13251.105    58.697188   -13309.802     22033.61 
   42000    364.84959    -13226.74    78.303407   -13305.043    2736.3699 
   42200    317.06065   -13240.271    68.047025   -13308.318    -3255.885 
   42400    290.17384     -13247.1    62.276623   -13309.377   -1740.3899 
   42600    322.37409   -13241.352    69.187386   -13310.539   -8680.1979 
   42800    294.68689   -13240.861    63.245207   -13304.106    2492.1662 
   43000    374.45636   -13217.859    80.365197   -13298.225    10307.138 
   43200    263.13359   -13238.769     56.47329   -13295.243    7026.9183 
   43400    302.86148   -13245.662    64.999624   -13310.661    2819.1715 
   43600    249.85439   -13258.987    53.623331   -13312.611    17437.023 
   43800    297.23319   -13237.098     63.79169    -13300.89    7707.5147 
   44000    299.31933   -13240.517    64.239413   -13304.757   -196.56613 
   44200    253.79185   -13256.218    54.468381   -13310.687   -14109.824 
   44400    303.63455   -13240.836    65.165537   -13306.001   -2044.5693 
   44600    280.09312   -13242.978    60.113116   -13303.091    5050.9167 
   44800    300.17316     -13234.2    64.422659   -13298.622   -8657.9881 
   45000    299.38675   -13242.011    64.253882   -13306.265   -11485.659 
   45200    341.68094   -13243.816     73.33099   -13317.147   -12064.852 
   45400    391.92137   -13218.761    84.113506   -13302.874    -1014.211 
   45600    339.00318   -13238.945    72.756294   -13311.702     7741.784 
   45800     259.9348   -13254.264    55.786772   -13310.051    8908.4827 
   46000    281.92711    -13239.61    60.506724   -13300.116   -12614.184 
   46200     301.7088   -13234.232    64.752236   -13298.984    5398.6747 
   46400    285.68124   -13236.948     61.31243    -13298.26    19688.702 
   46600    273.16934   -13254.191    58.627145   -13312.819   -18423.533 
   46800      250.219   -13261.296    53.701583   -13314.998    1450.0534 
   47000     333.2627   -13245.347    71.524282   -13316.871    4497.5068 
   47200    297.07816   -13242.148    63.758417   -13305.906     -14516.7 
   47400    340.11264   -13222.872    72.994406   -13295.867   -6718.9233 
   47600    297.68415   -13241.749    63.888474   -13305.637    9172.8735 
   47800    297.83983   -13259.618    63.921885   -13323.539    10659.045 
   48000    285.47229   -13243.286    61.267584   -13304.553    12359.873 
   48200    312.36752   -13237.061    67.039795   -13304.101    14788.439 
   48400    261.70805   -13260.891    56.167343   -13317.059   -10616.193 
   48600    289.67814   -13248.216    62.170236   -13310.386    13424.369 
   48800    287.66512   -13243.009    61.738206   -13304.747    4103.0968 
   49000     281.2784   -13241.442      60.3675    -13301.81   -5499.6973 
   49200    303.50575   -13243.004    65.137895   -13308.142   -6257.0509 
   49400    282.54418   -13246.892    60.639158   -13307.531   -11392.056 
   49600     311.0389   -13235.631    66.754646   -13302.386    4368.7302 
   49800    260.24103   -13249.765    55.852493   -13305.617   -6451.5958 
   50000      325.578   -13230.523    69.875004   -13300.398     10527.09 
   50200    268.77883   -13244.066    57.684862   -13301.751   -7627.0088 
   50400    282.47123   -13236.972    60.623502   -13297.596   -7882.7497 
   50600    266.74443   -13246.547    57.248241   -13303.795    6002.1203 
   50800    275.01204   -13246.335    59.022623   -13305.357    12590.021 
   51000    313.85632   -13235.392    67.359318   -13302.751   -6466.2206 
   51200    256.05322   -13255.599    54.953714   -13310.553    1034.3814 
   51400    321.47316   -13241.753    68.994031   -13310.747   -692.76375 
   51600     320.2018   -13239.867    68.721174   -13308.588    3553.2808 
   51800    293.15061   -13216.666    62.915491   -13279.581   -4610.3926 
   52000    289.28373   -13238.252    62.085589   -13300.338   -833.86317 
   52200     306.6624   -13244.233    65.815369   -13310.048   -15467.893 
   52400    329.37113   -13227.807     70.68908   -13298.496    8498.0406 
   52600     279.9916   -13246.124    60.091327   -13306.216   -987.44694 
   52800    284.98382   -13247.035     61.16275   -13308.198   -5390.9046 
   53000    327.92488   -13225.782    70.378688   -13296.161   -10057.573 
   53200    354.86396   -13227.627    76.160308   -13303.787    18608.105 
   53400    302.19879   -13244.203    64.857398    -13309.06    13483.464 
   53600    283.84792   -13242.673    60.918964   -13303.592    -3462.444 
   53800    263.41248   -13250.503    56.533145   -13307.036    -316.2065 
   54000    324.05252   -13230.861    69.547609   -13300.409    6493.8254 
   54200    268.84502   -13247.323    57.699068   -13305.022   -1305.1362 
   54400    265.87269    -13245.18    57.061152   -13302.241    26853.428 
   54600    346.12348   -13226.642    74.284442   -13300.926     3973.071 
   54800    276.84303   -13251.702    59.415587   -13311.117   -12678.807 
   55000    340.29466   -13239.084     73.03347   -13312.118   -23899.293 
   55200    319.10249   -13238.152    68.485242   -13306.637    11442.749 
   55400    273.88263   -13253.233    58.780232   -13312.013    -10916.41 
   55600    324.59015   -13231.949    69.662995   -13301.612    3233.6473 
   55800    298.90109   -13251.645    64.149652   -13315.794   -18480.564 
   56000    278.05844   -13243.818    59.676437   -13303.494   -4868.0968 
   56200    305.61009   -13237.503    65.589526   -13303.092   -7822.4367 
   56400    257.91664   -13254.736    55.353636   -13310.089    -7170.152 
   56600      303.183   -13243.748    65.068628   -13308.817   -8756.1395 
   56800    269.99481   -13238.559    57.945833   -13296.505    8830.6745 
   57000    341.50447   -13232.625    73.293118   -13305.918   -2852.1224 
   57200     289.2495   -13239.906    62.078244   -13301.984    -6706.602 
   57400    256.93801   -13261.356    55.143605   -13316.499    1213.4364 
   57600    303.42094   -13240.821    65.119693   -13305.941   -7057.7815 
   57800     274.2953   -13248.558    58.868797   -13307.427    18148.039 
   58000     294.2008   -13240.592    63.140882   -13303.733    -12859.96 
   58200    294.19942   -13244.053    63.140586   -13307.194    -7618.346 
   58400    283.18215   -13238.951    60.776079   -13299.727   -1902.7569 
   58600    324.61338   -13227.189     69.66798   -13296.857    3209.4871 
   58800    287.50494   -13244.128    61.703828   -13305.832    -2286.397 
   59000    310.96795   -13241.827     66.73942   -13308.566   -7625.7457 
   59200    349.79817    -13226.93    75.073097   -13302.004    7565.2112 
   59400     274.3809   -13244.424    58.887169   -13303.311   -3660.1646 
   59600     292.1994   -13252.249    62.711345    -13314.96   -1286.2918 
   59800    256.34424   -13260.699    55.016171   -13315.715   -25796.457 
   60000    298.96081   -13242.111    64.162468   -13306.274    16923.934 
   60200    294.19927   -13242.537    63.140555   -13305.677   -2011.6332 
   60400    234.93243   -13254.045    50.420804   -13304.466   -6406.1454 
   60600    284.90429   -13234.042    61.145682   -13295.187    17579.369 
   60800    270.09947   -13246.808    57.968295   -13304.776   -10594.709 
   61000    312.77689   -13239.617    67.127652   -13306.744   -13434.785 
   61200    317.51098   -13241.159    68.143675   -13309.303    4529.9662 
   61400    280.02138   -13249.236    60.097719   -13309.334    20217.544 
   61600    297.70183   -13242.894    63.892268   -13306.786    6031.6265 
   61800    262.71029   -13249.799    56.382441   -13306.181    9372.1816 
   62000    326.66578   -13234.906    70.108462   -13305.014   -9469.3481 
   62200    310.03583   -13244.585    66.539369   -13311.125    470.65995 
   62400    261.37366     -13245.5    56.095578   -13301.596    2345.6922 
   62600    328.46174   -13232.456    70.493908    -13302.95   -3494.2936 
   62800    275.00415   -13250.861    59.020929   -13309.882    6036.6856 
   63000    302.55469   -13247.853    64.933781   -13312.787   -3431.9469 
   63200    352.52705   -13237.156    75.658764   -13312.815   -13286.271 
   63400    279.34451   -13254.435     59.95245   -13314.388    9717.2328 
   63600    306.67053   -13245.946    65.817115   -13311.763    3892.2193 
   63800    273.79491   -13244.786    58.761405   -13303.548   -3532.1611 
   64000    357.78813    -13225.11    76.787888   -13301.898   -3997.4518 
   64200    297.65396   -13237.817    63.881995   -13301.699    3093.3174 
   64400     287.6768   -13237.739    61.740712    -13299.48    17128.128 
   64600    312.39076   -13239.048    67.044781   -13306.092   -2517.4441 
   64800    284.60235   -13257.156    61.080878   -13318.237    -1677.392 
   65000    308.90763   -13244.773    66.297238    -13311.07     798.2391 
   65200    323.16428   -13241.119    69.356976   -13310.476   -7167.4885 
   65400     251.1879   -13251.448    53.909526   -13305.357   -4280.5078 
   65600    290.52549   -13243.466    62.352095   -13305.818   -5725.0984 
   65800     344.9284   -13231.718    74.027955   -13305.746    21638.761 
   66000    252.95588   -13255.193    54.288968   -13309.482   -11761.112 
   66200    304.28872   -13240.684    65.305935    -13305.99     4191.624 
   66400    305.24813   -13229.557    65.511842   -13295.069   -7931.5092 
   66600    313.77357   -13235.888    67.341557    -13303.23   -5226.7561 
   66800    272.06877   -13252.324    58.390944   -13310.715   -2541.9905 
   67000    326.19334   -13237.637    70.007068   -13307.644    7688.3883 
   67200    297.23892   -13243.894    63.792919   -13307.687    1522.5201 
   67400    277.50137   -13257.268    59.556879   -13316.825    1570.1347 
   67600    330.03038   -13235.975    70.830566   -13306.806   -19486.365 
   67800    280.39276   -13245.776    60.177424   -13305.953     7061.584 
   68000    283.24597   -13243.744    60.789775   -13304.534   -7525.5664 
   68200    291.44506   -13230.179     62.54945   -13292.728   -1926.4646 
   68400    295.86205   -13244.686    63.497417   -13308.183   -3143.4992 
   68600    304.76257   -13240.538    65.407632   -13305.945    15976.038 
   68800    288.33306   -13244.695    61.881559   -13306.577    2362.2965 
   69000    350.28179   -13226.788    75.176891   -13301.965     3379.526 
   69200    323.63804   -13238.843    69.458654   -13308.302     12715.42 
   69400    306.88377   -13241.903    65.862879   -13307.766    3690.4932 
   69600    266.39893   -13237.825    57.174092   -13294.999   -3828.0887 
   69800     255.0909   -13253.537    54.747181   -13308.284   -8363.2119 
   70000    271.83638   -13235.221    58.341067   -13293.562    6911.9297 
   70200    303.71254   -13235.604    65.182277   -13300.787    -9599.769 
   70400    278.34777   -13249.358    59.738533   -13309.096   -2372.1787 
   70600    268.76863    -13259.69    57.682673   -13317.373    1615.4347 
   70800     304.5856   -13245.476     65.36965   -13310.845   -22394.792 
   71000    289.07448   -13250.807     62.04068   -13312.847     3615.872 
   71200    328.04015   -13230.609    70.403428   -13301.013    2599.6077 
   71400     317.6523   -13238.625    68.174003   -13306.799   -7220.1605 
   71600    282.79569   -13242.298    60.693138   -13302.991   -3450.8143 
   71800    300.77526   -13238.691    64.551883   -13303.243    15373.983 
   72000    296.72302   -13257.618    63.682197   -13321.301   -12845.315 
   72200    319.85775   -13248.759    68.647334   -13317.406   -12067.579 
   72400    291.61062   -13244.408    62.584982   -13306.993    15291.233 
   72600    308.98454   -13228.139    66.313743   -13294.453    1925.9504 
   72800    363.13073   -13237.605    77.934509    -13315.54   -3250.2732 
   73000    278.28361   -13243.911    59.724763   -13303.636   -10940.576 
   73200    311.67557   -13229.245    66.891288   -13296.137   -5594.4664 
   73400    321.82178   -13240.921    69.068852    -13309.99   -5056.1188 
   73600    321.95593   -13236.529    69.097642   -13305.627    7126.2953 
   73800    264.42726   -13254.562    56.750936   -13311.312    2018.5664 
   74000    279.47554   -13251.225    59.980571   -13311.205    11460.979 
   74200    284.17003   -13243.196    60.988096   -13304.184    13230.278 
   74400    283.84597   -13238.614    60.918547   -13299.533   -533.63421 
   74600    262.65855   -13255.083    56.371337   -13311.455   -1384.0712 
   74800    324.46575   -13234.612    69.636295   -13304.249   -3178.7293 
   75000    306.66957   -13240.506    65.816909   -13306.323   -9516.5506 
   75200    299.43959    -13240.92    64.265222   -13305.185   -3226.6816 
   75400    323.30584   -13246.969    69.387357   -13316.357    11785.124 
   75600    290.92709   -13254.233    62.438283   -13316.672    9763.1042 
   75800    302.53579   -13234.616    64.929723   -13299.545   -14017.637 
   76000    256.65577   -13250.681    55.083031   -13305.764    395.36798 
   76200    323.89248   -13232.124    69.513261   -13301.637    6648.1256 
   76400    300.04833   -13239.634    64.395869   -13304.029   -9651.5378 
   76600    319.10902   -13231.102    68.486643   -13299.589    3606.1931 
   76800    339.71995   -13233.716    72.910125   -13306.627   -7327.4948 
   77000    265.48331   -13247.636    56.977583   -13304.614    29673.428 
   77200    329.18529   -13229.327    70.649195   -13299.976    10079.788 
   77400    335.92197   -13238.456     72.09501   -13310.551   -5169.0436 
   77600    291.28951   -13240.171    62.516066   -13302.687   -2290.8608 
   77800    310.53875   -13225.793    66.647307    -13292.44    19461.479 
   78000    274.30934    -13244.75    58.871811   -13303.622    1256.2396 
   78200    304.06531   -13245.793    65.257987   -13311.051   -10777.441 
   78400    279.79522   -13244.722    60.049182   -13304.771    1509.0903 
   78600    335.79025   -13233.134    72.066741   -13305.201   -19822.768 
   78800    296.98771   -13248.606    63.739005   -13312.345   -4374.0883 
   79000    289.79521   -13235.666    62.195363   -13297.862    2844.0953 
   79200     363.2365   -13219.311     77.95721   -13297.268   -863.45995 
   79400    306.34886   -13242.594    65.748079   -13308.342   -6251.3312 
   79600    294.15865    -13233.43    63.131835   -13296.562    7526.0625 
   79800    271.42472   -13246.474    58.252718   -13304.727   -2896.2757 
   80000    332.14361   -13241.245    71.284105   -13312.529   -17047.867 
   80200    349.86805   -13229.676    75.088094   -13304.764    11213.333 
   80400    319.93614   -13238.083    68.664158   -13306.747   -2879.0891 
   80600    301.26549    -13251.35    64.657093   -13316.007    154.03529 
   80800    349.00942    -13234.72    74.903816   -13309.624   -8404.4113 
   81000    313.79105   -13235.335    67.345308    -13302.68    -2167.176 
   81200    263.34534    -13245.82    56.518736   -13302.339    10100.485 
   81400    308.90573   -13235.633    66.296829    -13301.93     19457.52 
   81600    310.92742   -13242.629    66.730723    -13309.36   -10405.864 
   81800    281.38791   -13255.863    60.391002   -13316.254    19767.331 
   82000    327.65735   -13233.994    70.321272   -13304.316    20039.573 
   82200    330.37935   -13228.183    70.905463   -13299.089    6075.8272 
   82400    272.92034   -13252.947    58.573706   -13311.521   -9610.1706 
   82600    307.74187   -13236.188    66.047045   -13302.235   -569.57678 
   82800    248.32884   -13230.315    53.295919    -13283.61   -8425.4401 
   83000    268.95769   -13234.844    57.723249   -13292.567   -730.97224 
   83200    287.41482   -13242.978    61.684488   -13304.662   -1206.1214 
   83400    308.90989   -13254.297    66.297723   -13320.595   -7904.8935 
   83600    290.05719   -13256.405    62.251589   -13318.657    8709.4428 
   83800    274.22688   -13243.191    58.854114   -13302.045    3949.8764 
   84000     306.6998    -13230.87    65.823398   -13296.693    5832.6965 
   84200    294.19838    -13235.35    63.140363    -13298.49   -3688.7623 
   84400    301.09452   -13246.215    64.620401   -13310.835   -21462.673 
   84600    335.06868   -13229.921    71.911878   -13301.833    1177.1432 
   84800    287.03387   -13234.535    61.602728   -13296.137    20616.421 
   85000    330.33511   -13243.875    70.895968   -13314.771    -2396.412 
   85200    266.30527   -13262.411     57.15399   -13319.565   -2753.7067 
   85400    258.80354   -13244.238    55.543981   -13299.782    7130.3065 
   85600    354.50548   -13230.976    76.083371   -13307.059    4011.4197 
   85800    276.41406   -13241.749    59.323523   -13301.072   -10256.103 
   86000    356.36069   -13221.655    76.481533   -13298.136    27679.315 
   86200    300.99609   -13237.239    64.599277   -13301.838   -4247.0516 
   86400    319.14585   -13234.262    68.494548   -13302.757   -15809.532 
   86600    300.03189   -13255.432    64.392342   -13319.824    3519.0036 
   86800    305.73958   -13242.339    65.617316   -13307.956   -1981.2814 
   87000    333.12224   -13234.396    71.494136    -13305.89   -478.96318 
   87200    264.76436   -13252.652    56.823282   -13309.475    2836.8819 
   87400    332.81186   -13239.025    71.427523   -13310.452   -19249.281 
   87600    333.23264   -13235.135    71.517831   -13306.652     5747.435 
   87800    240.61802   -13253.314    51.641036   -13304.955    6891.6523 
   88000    308.46916   -13241.983    66.203134   -13308.186    -6344.871 
   88200    313.51565   -13241.619    67.286203   -13308.905    3335.7378 
   88400    303.11343   -13251.483    65.053696   -13316.537    12636.033 
   88600    268.88469   -13232.835    57.707582   -13290.543   -10619.378 
   88800    250.04336   -13234.523    53.663886   -13288.187    17590.371 
   89000     282.7762   -13232.357    60.688955   -13293.046    1464.9454 
   89200     318.6499   -13242.329    68.388108   -13310.717    5195.8235 
   89400    345.86694   -13236.486    74.229383   -13310.715    -2693.808 
   89600    253.66696    -13252.86    54.441578   -13307.302    15278.198 
   89800    316.79103   -13248.392     67.98916   -13316.382     5516.952 
   90000    284.95373   -13249.644    61.156292     -13310.8    -772.0104 
   90200    315.55459   -13236.791    67.723798   -13304.515   -6272.2361 
   90400    364.32408   -13214.011    78.190624   -13292.202   -12316.943 
   90600    306.71205   -13235.972    65.826026   -13301.798   -3060.6204 
   90800    248.11388   -13245.299    53.249784   -13298.549    5127.4721 
   91000     352.9164   -13229.466    75.742325   -13305.208   -12271.007 
   91200    292.01288   -13248.583    62.671314   -13311.254    9398.4374 
   91400    275.81449    -13249.32    59.194843   -13308.515   -3384.7312 
   91600    340.84911   -13230.682    73.152464   -13303.835    10848.411 
   91800     292.1139   -13240.536    62.692995   -13303.229   -4629.7199 
   92000    289.99102   -13236.248    62.237386   -13298.486    94.039118 
   92200    341.10166   -13225.196    73.206667   -13298.402   -7198.1521 
   92400    273.38293   -13245.563    58.672986   -13304.236    7674.7114 
   92600    260.05177   -13248.173    55.811874   -13303.985     3661.333 
   92800    341.56648   -13229.767    73.306425   -13303.073   -6804.4335 
   93000    285.35599   -13249.208    61.242625   -13310.451    7210.4341 
   93200    292.24304   -13248.248     62.72071   -13310.968    3496.0551 
   93400    310.31353   -13220.512    66.598969   -13287.111    4371.3525 
   93600    324.13878   -13239.336    69.566121   -13308.903    2619.1824 
   93800    278.75446   -13250.484    59.825816    -13310.31    5966.0151 
   94000    307.61221   -13246.193    66.019217   -13312.212   -8603.0212 
   94200    285.47791   -13238.818    61.268791   -13300.087    791.81638 
   94400    285.08198    -13253.37    61.183818   -13314.554     8196.308 
   94600    288.71394   -13247.343    61.963303   -13309.306    14780.463 
   94800    305.48874   -13234.345    65.563481   -13299.909   -2625.1262 
   95000    270.46608   -13249.326    58.046976   -13307.373   -10940.332 
   95200    264.68352   -13246.587    56.805934   -13303.393   -6173.0187 
   95400     340.8337   -13227.434    73.149157   -13300.584    8864.2077 
   95600     325.6846   -13242.563    69.897883   -13312.461   -5324.1015 
   95800    263.81889   -13249.552    56.620368   -13306.173    8971.4032 
   96000     341.6257   -13237.983    73.319135   -13311.302    23999.551 
   96200    295.72655   -13249.274    63.468336   -13312.742    3304.7997 
   96400    298.83477   -13244.409    64.135418   -13308.544     10086.71 
   96600    300.26727   -13233.169    64.442859   -13297.612    8162.7738 
   96800    239.77303   -13248.305    51.459686   -13299.765     6748.594 
   97000    324.80537   -13224.699    69.709183   -13294.408     16139.48 
   97200    269.50986   -13247.506    57.841754   -13305.348   -688.50514 
   97400    298.92573   -13249.675     64.15494    -13313.83     3887.397 
   97600    299.33021   -13230.436    64.241747   -13294.678     3380.084 
   97800    291.01086   -13242.132    62.456263   -13304.588   -1120.6723 
   98000    295.92527   -13242.607    63.510985   -13306.118    4180.8899 
   98200    319.67704     -13244.6     68.60855   -13313.209    5554.9335 
   98400    318.65578   -13239.249    68.389369   -13307.638   -17470.108 
   98600    330.79206   -13235.542    70.994038   -13306.536   -6535.9945 
   98800    244.94823   -13251.499    52.570378   -13304.069    4005.7171 
   99000    311.43802   -13238.146    66.840306   -13304.986    1389.5765 
   99200    315.46489   -13244.795    67.704546     -13312.5   -9820.9516 
   99400     301.3275   -13238.605    64.670403   -13303.276   -14737.531 
   99600    345.13996   -13230.549     74.07336   -13304.622     11856.59 
   99800    306.02795   -13243.283    65.679205   -13308.962    1429.0252 
  100000    319.10804   -13234.796    68.486433   -13303.282    1885.9429 
  100200    287.34365    -13248.21    61.669212   -13309.879   -7838.3986 
  100400    297.22936   -13249.293    63.790866   -13313.084    9884.6108 
  100600    304.59515   -13232.331    65.371701   -13297.703   -2801.0603 
  100800    302.27304   -13242.084    64.873333   -13306.957    6533.6751 
  101000    289.50883    -13260.98    62.133899   -13323.114   -3360.8153 
  101200    320.94248   -13238.747    68.880138   -13307.628    12715.828 
  101400    319.67507   -13232.698    68.608129   -13301.307    1700.5421 
  101600     298.8374   -13248.783    64.135981   -13312.919    4529.0616 
  101800    278.91642   -13238.111    59.860574   -13297.972    4177.9769 
  102000    329.28831    -13242.23    70.671306   -13312.901   -12026.323 
  102200     319.6014   -13241.717    68.592316    -13310.31   -4572.7949 
  102400    297.56278   -13249.521    63.862424   -13313.383   -638.46171 
  102600      233.474   -13259.919    50.107799   -13310.027   -12943.962 
  102800    269.79606   -13239.504    57.903177   -13297.407    72.711639 
  103000    326.85159   -13233.267     70.14834   -13303.415    1084.0372 
  103200    280.70015   -13251.404    60.243396   -13311.648    -12328.66 
  103400    291.35899   -13244.086    62.530979   -13306.617   -11525.395 
  103600    364.38797   -13219.952    78.204334   -13298.157    881.11093 
  103800    303.19815   -13241.571    65.071878   -13306.643   -8320.2487 
  104000    294.17178   -13248.613    63.134654   -13311.748    4982.9719 
  104200    371.30293   -13224.683    79.688413   -13304.371     8040.839 
  104400    286.53905   -13240.771     61.49653   -13302.267    7533.3642 
  104600    258.83765   -13242.768    55.551302   -13298.319   -19749.295 
  104800    296.36362   -13239.261    63.605064   -13302.866     3911.963 
  105000    319.43792   -13235.013     68.55723    -13303.57    8777.4011 
  105200    313.59284   -13255.715     67.30277   -13323.018     9912.737 
  105400    298.93108   -13244.582    64.156088   -13308.738   -7856.2659 
  105600    271.69925    -13242.85    58.311637   -13301.162    910.66401 
  105800    283.10201    -13249.54    60.758878   -13310.298   -9150.9616 
  106000      309.001    -13242.23    66.317276   -13308.548    7789.0537 
  106200    340.64572   -13224.483    73.108814   -13297.592   -4930.0377 
  106400    304.71274     -13247.5    65.396938   -13312.897   -8094.8703 
  106600    296.28649   -13241.854    63.588509   -13305.443   -1508.3059 
  106800    292.33102   -13241.354    62.739593   -13304.093    16012.089 
  107000    302.25569   -13259.327     64.86961   -13324.197    928.25062 
  107200    340.62963    -13236.48    73.105359   -13309.585   -5761.6391 
  107400    299.04701   -13235.965    64.180968   -13300.146    11713.307 
  107600    283.08993   -13246.319    60.756287   -13307.075    10752.406 
  107800    330.09805   -13229.329     70.84509   -13300.174   -6337.6986 
  108000    312.23743   -13237.539    67.011873    -13304.55    6360.8944 
  108200    283.11525   -13246.508     60.76172    -13307.27   -6565.4512 
  108400     338.5113   -13233.935    72.650728   -13306.586    17316.259 
  108600    272.49424   -13240.673    58.482258   -13299.155    7222.4144 
  108800    280.88912   -13246.808    60.283952   -13307.092   -6694.2485 
  109000     352.2322   -13235.385    75.595484   -13310.981   -12965.047 
  109200    251.65227   -13255.272    54.009188   -13309.281    9519.7704 
  109400    286.71349   -13239.701    61.533969   -13301.235    2347.1831 
  109600    294.77447   -13242.528    63.264003   -13305.792    3088.5017 
  109800     285.5834   -13240.647    61.291431   -13301.939    -15522.02 
  110000    308.82879   -13219.495    66.280317   -13285.776     811.9377 
  110200    262.16527   -13238.774    56.265471   -13295.039   -12971.718 
  110400    290.02103   -13244.527    62.243827   -13306.771    1289.7727 
  110600    274.69924   -13253.138    58.955491   -13312.094    1899.2828 
  110800    307.28488   -13234.499    65.948966   -13300.448     8658.354 
  111000    316.04765   -13236.357    67.829618   -13304.187    17155.825 
  111200    290.61815   -13256.689     62.37198   -13319.061    13382.145 
  111400    291.48531   -13246.016     62.55809   -13308.574    1652.5482 
  111600     319.5415   -13241.017    68.579461   -13309.596   -15709.875 
  111800    305.97538   -13245.322    65.667923    -13310.99   -2886.5788 
  112000    309.77048   -13244.341    66.482421   -13310.823    -6292.919 
  112200    365.75095   -13223.662    78.496855   -13302.159   -1779.7567 
  112400    293.40537   -13237.737    62.970168   -13300.708   -11778.224 
  112600    293.39841   -13245.127    62.968676   -13308.096   -8706.8925 
  112800    320.04758   -13243.718    68.688075   -13312.406    24739.828 
  113000    303.46801    -13250.32    65.129795    -13315.45   -3807.4598 
  113200    323.15269   -13240.447    69.354488   -13309.802   -3771.6009 
  113400    301.61481   -13231.309    64.732064   -13296.041    14222.957 
  113600    290.04337   -13251.956    62.248622   -13314.204   -2837.1743 
  113800    319.28054   -13243.581    68.523454   -13312.104   -2368.9525 
  114000    322.01993   -13241.393    69.111378   -13310.504   -4765.9922 
  114200    391.09852   -13225.115    83.936908   -13309.052   -7656.1285 
  114400    322.42468   -13233.551    69.198245   -13302.749    5838.0161 
  114600    299.10102   -13245.598    64.192559    -13309.79   -9192.9304 
  114800    338.91724   -13234.494     72.73785   -13307.232    9818.6963 
  115000    293.71759   -13248.325    63.037177   -13311.362    6683.3734 
  115200    294.81662    -13243.35    63.273049   -13306.623   -9791.7201 
  115400    313.26548   -13234.842    67.232513   -13302.074   -7816.2631 
  115600    337.21437   -13234.424    72.372384   -13306.797   -1568.7414 
  115800     266.8502   -13252.494    57.270943   -13309.765    -5533.455 
  116000    333.28399   -13242.427    71.528851   -13313.956    4131.2444 
  116200    308.02624   -13245.541    66.108076   -13311.649    3094.7077 
  116400    266.29551   -13251.509    57.151897    -13308.66    7962.2866 
  116600    308.62062   -13237.059    66.235641   -13303.295   -7970.4619 
  116800    352.93369   -13222.926    75.746036   -13298.672   -3717.0394 
  117000    314.60186   -13245.143    67.519324   -13312.662   -6870.0915 
  117200     268.0844   -13243.194    57.535825    -13300.73   -9505.3191 
  117400    300.18418   -13226.121    64.425026   -13290.546   -18528.274 
  117600    297.74784   -13248.724    63.902142   -13312.626   -11148.756 
  117800    324.22087   -13237.123     69.58374   -13306.707   -2316.7356 
  118000     316.3149   -13245.342    67.886974   -13313.229   -3429.1565 
  118200    300.80146   -13249.126    64.557505   -13313.684   -2967.9566 
  118400      330.295   -13233.719    70.887359   -13304.606    8526.8699 
  118600    299.73427   -13250.171    64.328468     -13314.5    5106.1197 
  118800    359.53471   -13228.086    77.162736   -13305.248    17451.867 
  119000    282.36248   -13244.916    60.600162   -13305.516    9623.6611 
  119200    298.30225   -13244.876    64.021128   -13308.897    347.60052 
  119400    323.31215     -13223.2    69.388712   -13292.588   -11122.747 
  119600      308.928   -13236.624     66.30161   -13302.926    8979.5865 
  119800    300.45423    -13247.51    64.482982   -13311.993    -967.8693 
  120000    256.70418    -13262.31     55.09342   -13317.404    7830.2765 
  120200    343.79753   -13244.151    73.785249   -13317.937   -877.80677 
  120400     324.1091   -13241.115    69.559752   -13310.675   -17518.595 
  120600    358.24174   -13225.971    76.885242   -13302.856     10747.48 
  120800     302.0741   -13242.051    64.830637   -13306.882    2396.7914 
  121000    294.18793   -13244.663    63.138121   -13307.801   -2454.5831 
  121200    293.88876   -13253.305    63.073912   -13316.378    6117.8757 
  121400    313.29566   -13237.123    67.238988   -13304.362    8617.9446 
  121600    247.30897   -13253.164    53.077037   -13306.241   -5434.9749 
  121800      340.102    -13237.04    72.992122   -13310.032    11281.662 
  122000    310.09328   -13243.695      66.5517   -13310.247    3059.0567 
  122200    265.48591   -13252.016    56.978142   -13308.994    -5838.161 
  122400    324.51595   -13229.001     69.64707   -13298.648    2094.2488 
  122600    342.49404   -13231.092    73.505496   -13304.597   -1768.3864 
  122800    293.14189    -13236.77    62.913622   -13299.683    8346.8664 
  123000    313.21865   -13228.773    67.222461   -13295.996    8214.9372 
  123200    308.57363   -13219.207    66.225555   -13285.432   -773.07954 
  123400    317.89862   -13245.752    68.226868   -13313.979     20370.21 
  123600    274.15664   -13249.447    58.839038   -13308.286   -7617.4855 
  123800    364.31117   -13229.745    78.187852   -13307.933    4512.6332 
  124000    301.85146   -13247.876    64.782854   -13312.658    3598.4991 
  124200    255.81087   -13247.799      54.9017   -13302.701   -751.53063 
  124400    328.33819   -13237.185    70.467391   -13307.653    11367.858 
  124600    282.99502    -13240.97    60.735917   -13301.706    14970.036 
  124800    339.66187   -13234.956    72.897661   -13307.854   -14773.608 
  125000    317.36048   -13240.754    68.111375   -13308.866   -7597.6808 
  125200    330.52879    -13233.45    70.937536   -13304.388    12039.766 
  125400    321.29903    -13245.83    68.956658   -13314.787   -7069.9454 
  125600    305.23928   -13254.315    65.509942   -13319.825   -303.98551 
  125800       264.34   -13252.039    56.732208   -13308.771   -6689.5255 
  126000    246.72623   -13231.885     52.95197   -13284.837    107.63307 
  126200    313.07363   -13240.687    67.191338   -13307.878    6294.7613 
  126400    312.68051   -13244.828    67.106967   -13311.935   -6269.5872 
  126600    298.36978    -13237.35    64.035622   -13301.385   -13498.356 
  126800    329.28642   -13221.949    70.670898    -13292.62    1527.3374 
  127000    293.45012   -13244.719    62.979772   -13307.699   -6905.9675 
  127200    273.13486   -13245.384    58.619746   -13304.004    15076.268 
  127400     349.2515   -13228.937    74.955772   -13303.893    5825.7947 
  127600    312.17951   -13247.513    66.999443   -13314.513   -336.76207 
  127800    327.32521   -13238.291    70.249988   -13308.541    109.86815 
  128000    256.40756    -13256.78     55.02976    -13311.81    8064.7858 
  128200    320.75527   -13243.695    68.839959   -13312.535    10771.591 
  128400    274.39046   -13241.685     58.88922   -13300.574   -10486.533 
  128600    326.04789   -13228.405    69.975851   -13298.381    -3239.764 
  128800    249.20657   -13237.952    53.484296   -13291.437    14534.024 
  129000    281.71876   -13242.208    60.462008    -13302.67   -15012.164 
  129200    298.68067   -13229.641    64.102346   -13293.743    -2231.963 
  129400    290.00091   -13246.961     62.23951   -13309.201    6456.1548 
  129600     312.4613   -13248.478     67.05992   -13315.538    2819.7247 
  129800    291.98733   -13240.344    62.665831    -13303.01   -3734.0988 
  130000    284.76923   -13221.357    61.116694   -13282.473    7769.9812 
  130200    309.82945   -13241.071    66.495078   -13307.566   -7746.5439 
  130400    297.32619   -13243.094    63.811649   -13306.906   -5170.1617 
  130600    345.10683   -13229.945    74.066248   -13304.011    3698.5034 
  130800    311.08584   -13244.213    66.764722   -13310.978    5194.3019 
  131000    260.69205   -13252.616    55.949291   -13308.565     3404.011 
  131200     350.7331   -13230.365     75.27375   -13305.638   -3708.7938 
  131400    251.99795   -13254.901    54.083377   -13308.984   -2787.6678 
  131600    334.52213   -13241.098    71.794579   -13312.893     1878.531 
  131800    257.75196   -13243.126    55.318293   -13298.444    1716.4713 
  132000    291.11382   -13251.577    62.478359   -13314.055    8562.4567 
  132200    303.56584   -13231.741    65.150792   -13296.892    11173.614 
  132400    267.26522   -13248.262    57.360013   -13305.622   -3075.9942 
  132600    288.28721   -13232.988    61.871717    -13294.86    10644.554 
  132800    329.66726    -13231.75    70.752634   -13302.503    26105.907 
  133000    301.96741   -13249.313     64.80774    -13314.12   -14801.797 
  133200    265.37719   -13261.843    56.954808   -13318.798   -4632.7402 
  133400    271.92135   -13254.314    58.359305   -13312.674    567.36174 
  133600    268.50777   -13239.808    57.626688   -13297.435   -4911.6738 
  133800    315.68433   -13228.303    67.751641   -13296.055   -3086.8279 
  134000    278.62352   -13239.311    59.797713   -13299.109    721.84561 
  134200    293.91545   -13239.995    63.079641   -13303.075   -5728.7697 
  134400    316.77995   -13235.469    67.986782   -13303.456    1102.7435 
  134600    275.24832   -13252.569    59.073334   -13311.643    5313.4688 
  134800    333.46492   -13233.459    71.567682   -13305.026    8718.5286 
  135000    270.26379   -13243.161    58.003561   -13301.164    5864.8992 
  135200    255.72753   -13245.817    54.883814   -13300.701   -4439.5808 
  135400    304.16003   -13223.692    65.278316   -13288.971    2548.5829 
  135600    338.76068   -13241.527     72.70425   -13314.231   -2697.8191 
  135800    301.70009   -13242.026    64.750367   -13306.776    16037.791 
  136000    303.67509   -13226.217    65.174239   -13291.391    3562.1112 
  136200     323.0944   -13228.633    69.341979   -13297.975   -172.85386 
  136400    338.15712    -13246.05    72.574714   -13318.625     20335.06 
  136600    309.24093   -13247.907    66.368771   -13314.276    11184.043 
  136800    329.12695   -13225.133    70.636673    -13295.77   -14762.741 
  137000    269.18869   -13246.901    57.772826   -13304.674    7396.8867 
  137200    307.45399   -13235.451     65.98526   -13301.436   -8361.8848 
  137400    262.71262   -13240.832    56.382941   -13297.215   -1677.6012 
  137600    263.66134   -13249.991    56.586554   -13306.577    5416.7169 
  137800    358.27416   -13235.859      76.8922   -13312.751   -13858.784 
  138000    298.29853   -13252.078    64.020331   -13316.098   -1426.5704 
  138200    312.62664   -13231.061    67.095406   -13298.156   -19926.662 
  138400    288.38129   -13243.707    61.891909   -13305.599      -1487.6 
  138600    317.97182   -13244.362    68.242579   -13312.605    3653.3841 
  138800    330.95298   -13229.349    71.028573   -13300.378    5257.4178 
  139000    260.92321   -13247.445    55.998902   -13303.444    14023.728 
  139200    293.12438   -13242.421    62.909862   -13305.331    5556.0074 
  139400    339.08558    -13230.49    72.773978   -13303.264   -3727.9782 
  139600    278.85312   -13251.121     59.84699   -13310.968   -11890.336 
  139800    314.94623   -13240.366    67.593231   -13307.959    -1716.784 
  140000    276.20678   -13240.296    59.279037   -13299.575   -6931.9386 
  140200     315.7385   -13230.365    67.763267   -13298.128   -5454.7061 
  140400    251.05619   -13254.024    53.881259   -13307.906   -6458.8601 
  140600    301.77163   -13241.078    64.765721   -13305.843    25753.289 
  140800    285.64478   -13242.279    61.304605   -13303.583   -629.78627 
  141000    332.74771   -13225.453    71.413755   -13296.867   -9407.1357 
  141200    311.85679   -13234.819    66.930182   -13301.749    27174.302 
  141400    313.98956   -13241.401    67.387913   -13308.789    -6427.979 
  141600     289.2695   -13246.836    62.082535   -13308.919   -7587.2479 
  141800    309.50235   -13240.185    66.424875    -13306.61   -5953.9128 
  142000    309.10975   -13230.353    66.340615   -13296.694    5440.5339 
  142200    325.50313   -13234.853    69.858937   -13304.712    13418.244 
  142400    305.28059   -13247.995    65.518809   -13313.514    14290.943 
  142600    349.72626   -13230.734    75.057663   -13305.792    3004.0135 
  142800    306.78674   -13238.912    65.842055   -13304.754   -9326.1309 
  143000    266.40497   -13244.107    57.175389   -13301.282    1022.7971 
  143200    290.79103   -13229.091    62.409084     -13291.5    10556.315 
  143400     291.0348   -13240.995      62.4614   -13303.456    19926.039 
  143600     291.1011   -13237.857    62.475629   -13300.333   -3175.8871 
  143800    343.45376   -13237.678    73.711471    -13311.39    10623.853 
  144000     300.0138   -13252.578    64.388458   -13316.966   -2051.4306 
  144200    318.84089   -13233.191    68.429098    -13301.62    6367.6979 
  144400    268.34353   -13249.196    57.591438   -13306.787    11081.161 
  144600    262.90117   -13254.959    56.423409   -13311.382    3614.7052 
  144800    334.99841   -13233.885    71.896798   -13305.782   -478.04837 
  145000    268.60998    -13240.39    57.648623   -13298.039   -12545.506 
  145200    262.54782   -13255.313    56.347572   -13311.661   -585.30985 
  145400    317.69599   -13242.139    68.183381   -13310.322    7703.9153 
  145600     313.1962   -13236.613    67.217643    -13303.83   -7366.9451 
  145800    301.21614   -13247.049    64.646504   -13311.695    12512.451 
  146000     328.6308   -13245.354    70.530191   -13315.885    11982.662 
  146200    339.93958   -13220.245    72.957262   -13293.202    9080.3014 
  146400    348.33762    -13234.78    74.759636    -13309.54   -972.01123 
  146600    280.91804   -13242.979    60.290158   -13303.269   -17536.301 
  146800    335.89303   -13224.547    72.088798   -13296.636    4380.8319 
  147000    286.89818   -13232.843    61.573607   -13294.416   -18316.395 
  147200    340.86143   -13244.892    73.155109   -13318.047   -3150.8616 
  147400    280.11463   -13258.919    60.117732   -13319.037    7842.0954 
  147600    315.86772    -13241.38       67.791   -13309.171    -19127.37 
  147800    272.72488   -13239.933    58.531758   -13298.465   -2455.0123 
  148000    304.88916   -13241.807    65.434801   -13307.242    4118.7448 
  148200    308.08566   -13238.288    66.120827   -13304.409    -721.8908 
  148400     338.9907   -13241.501    72.753617   -13314.255   -18619.436 
  148600    289.56351   -13246.215    62.145635    -13308.36   -13498.195 
  148800    311.73889   -13222.338    66.904879   -13289.243    1995.5437 
  149000    305.99146   -13250.414    65.671374   -13316.085    2354.0273 
  149200    326.03756   -13237.748    69.973634   -13307.721   -1195.1282 
  149400    284.20019     -13243.3    60.994569   -13304.294    17233.547 
  149600    249.48302   -13261.408    53.543627   -13314.952    10970.205 
  149800    330.09977   -13240.149    70.845459   -13310.995     5823.102 
  150000    301.82248   -13237.322    64.776635   -13302.099    10446.717 
  150200    254.10867   -13255.895    54.536376   -13310.431   -13622.489 
  150400    317.10631   -13243.131    68.056825   -13311.188    2479.7487 
  150600    347.45223   -13238.672    74.569615   -13313.241     6115.551 
  150800    299.30179   -13249.082    64.235649   -13313.318    2248.8763 
  151000    265.23122   -13250.407    56.923479   -13307.331    3819.3414 
  151200    292.22214    -13237.08    62.716225   -13299.796    6706.0832 
  151400     251.5655   -13241.647    53.990565   -13295.638   -12572.337 
  151600    347.45457   -13232.276    74.570117   -13306.846   -9337.0813 
  151800    270.84548   -13246.305    58.128403   -13304.433   -1179.6247 
  152000    334.24014   -13230.722    71.734059   -13302.456    8769.5242 
  152200     298.1189   -13245.961    63.981779   -13309.943   -8923.5546 
  152400    268.47431   -13244.469    57.619507   -13302.088    15200.576 
  152600    357.45362   -13227.127    76.716096   -13303.843    13683.749 
  152800    292.49768   -13244.329    62.775362   -13307.104    -9519.348 
  153000    304.21883   -13247.205    65.290934   -13312.495   -8894.8745 
  153200    250.20092   -13269.193    53.697701   -13322.891   -3475.8745 
  153400    302.68647   -13246.434    64.962063   -13311.396   -615.57244 
  153600    333.38387   -13237.363    71.550288   -13308.913    5209.4305 
  153800    284.66923   -13248.557    61.095233   -13309.652    3132.0139 
  154000    319.44836     -13238.5    68.559471   -13307.059   -4325.9284 
  154200    322.17644   -13237.454    69.144966   -13306.599     366.8562 
  154400    299.39368   -13247.768    64.255369   -13312.024   -5063.8021 
  154600    316.28571   -13244.531    67.880708   -13312.412    9273.6189 
  154800    293.24257   -13250.324    62.935228   -13313.259   -8886.4819 
  155000    294.24654   -13244.453      63.1507   -13307.604    4078.3162 
  155200    300.18432   -13232.196    64.425055   -13296.622   -12246.425 
  155400    269.17653    -13255.84    57.770216    -13313.61    3063.5883 
  155600    319.83101   -13241.608    68.641596    -13310.25   -6683.7017 
  155800     306.2779   -13232.782    65.732849   -13298.515    7685.8511 
  156000    282.21553   -13256.194    60.568624   -13316.762   -6529.7293 
  156200    302.61179   -13243.524    64.946034    -13308.47   -1028.4051 
  156400    327.92806   -13237.595    70.379371   -13307.974   -9501.7141 
  156600    260.72944   -13257.697    55.957316   -13313.654    6843.3934 
  156800    309.07163   -13241.759    66.332434   -13308.091    7235.9266 
  157000    339.09921   -13241.506    72.776904   -13314.283    -6007.222 
  157200    258.08008   -13244.925    55.388713   -13300.314    4011.5296 
  157400    294.14002   -13237.648    63.127838   -13300.776    7761.4034 
  157600    304.03198   -13232.628    65.250834   -13297.879   -8499.4641 
  157800    264.42199   -13253.215    56.749805   -13309.965   -380.90205 
  158000    314.02875   -13240.162    67.396325   -13307.559    7127.0153 
  158200    300.86283   -13233.739    64.570676    -13298.31    3343.7939 
  158400    261.15571   -13253.138      56.0488   -13309.187   -2123.5976 
  158600    268.36869    -13233.95    57.596838   -13291.546    4850.6207 
  158800    303.51519   -13240.521    65.139922    -13305.66   -7345.3545 
  159000    237.48243   -13259.102    50.968082    -13310.07   -1338.0737 
  159200    290.06718   -13235.099    62.253731   -13297.353   -6609.4831 
  159400    283.29402   -13246.588    60.800087   -13307.388   -6961.3534 
  159600    336.68047   -13232.847    72.257797   -13305.105    14769.982 
  159800    249.31881   -13253.019    53.508385   -13306.528    5439.0734 
  160000    336.37119   -13237.998    72.191422   -13310.189   -6713.3402 
  160200    319.13674   -13244.521    68.492592   -13313.014   -8456.7147 
  160400    304.39997   -13246.451    65.329811   -13311.781    8020.4467 
  160600    327.92736   -13239.354    70.379221   -13309.733    5411.1693 
  160800    297.88117   -13249.923    63.930757   -13313.853    2428.7233 
  161000    242.99528     -13254.4    52.151239   -13306.552   -5343.9736 
  161200    350.62886    -13236.26    75.251377   -13311.511   -5568.2103 
  161400    243.55675   -13250.536    52.271742   -13302.808    13198.562 
  161600    346.08538   -13233.949    74.276263   -13308.225    11394.349 
  161800    321.57194   -13240.941    69.015232   -13309.956       5507.4 
  162000     302.9355   -13243.731    65.015508   -13308.747   -7711.6433 
  162200    318.02206   -13236.009     68.25336   -13304.262    1487.9397 
  162400    272.61354   -13241.487     58.50786   -13299.995    2961.3281 
  162600    332.82192    -13237.43    71.429682   -13308.859    7245.1316 
  162800    287.60948   -13243.014    61.726265    -13304.74    7478.9871 
  163000    309.00766   -13238.014    66.318706   -13304.333    -7335.932 
  163200    316.98428   -13227.771    68.030635   -13295.802    7343.2136 
  163400    294.64334   -13250.486     63.23586   -13313.722    8160.2715 
  163600    297.32918   -13241.009    63.812291   -13304.821   -1568.5924 
  163800    330.83302   -13228.135    71.002829   -13299.137   -458.28519 
  164000     258.7707   -13246.115    55.536933   -13301.652    4190.3953 
  164200    276.60695   -13246.888     59.36492   -13306.253    4028.1318 
  164400    335.48122   -13229.207    72.000417   -13301.207    6347.6076 
  164600     258.7642   -13243.989    55.535539   -13299.524     5334.035 
  164800    293.62415   -13234.135    63.017124   -13297.152    3976.4299 
  165000     287.2274   -13259.569    61.644262   -13321.213   -24981.705 
  165200    311.88765   -13244.789    66.936804   -13311.725    5360.9945 
  165400    311.99262   -13243.866    66.959333   -13310.826     15665.15 
  165600    259.44132    -13262.77    55.680862   -13318.451    3926.5168 
  165800    283.66692   -13251.949    60.880118   -13312.829    14854.126 
  166000    318.09522   -13232.845    68.269063   -13301.114   -2377.1758 
  166200    323.58587   -13221.555    69.447457   -13291.002   -3509.6062 
  166400    284.52994    -13249.43     61.06534   -13310.495   -7685.1886 
  166600     305.8894   -13242.245     65.64947   -13307.894   -10927.787 
  166800    308.44806   -13234.311    66.198606    -13300.51    10711.553 
  167000    298.55291   -13245.812    64.074926   -13309.887   -870.86808 
  167200    280.19201   -13253.634    60.134339   -13313.768    14685.974 
  167400    305.73195   -13237.629    65.615678   -13303.245    12063.963 
  167600     267.5585   -13250.113    57.422958   -13307.536   -2798.8047 
  167800    324.78498   -13234.942    69.704807   -13304.646    9690.6198 
  168000    285.02594   -13239.968     61.17179    -13301.14    18952.134 
  168200    288.09914   -13238.253    61.831354   -13300.084   -1406.5489 
  168400     327.5298   -13226.765    70.293896   -13297.059   -15642.324 
  168600    300.69102   -13243.451    64.533803   -13307.984    5332.6562 
  168800    261.17218    -13252.33    56.052335   -13308.382    6614.0309 
  169000    323.67359   -13236.886    69.466284   -13306.352   -12517.077 
  169200    288.35656   -13242.277    61.886602   -13304.163   -14423.587 
  169400    313.64001   -13249.295    67.312893   -13316.608    2512.0772 
  169600    292.32004   -13243.618    62.737237   -13306.356   -4944.1009 
  169800    296.51309   -13227.301    63.637143   -13290.939   -9894.1206 
  170000    292.16344   -13233.968    62.703628   -13296.672   -5390.9366 
  170200    263.30121   -13254.235    56.509265   -13310.744    289.91844 
  170400    298.88334   -13245.668    64.145841   -13309.814   -5389.3846 
  170600    342.50292   -13238.937    73.507403   -13312.445    -3078.789 
  170800    288.77222   -13245.372     61.97581   -13307.348   -5154.7194 
  171000    289.08475   -13244.677    62.042884    -13306.72    902.61204 
  171200    339.89129   -13232.446    72.946898   -13305.393   -736.05191 
  171400    270.34942    -13253.67    58.021939   -13311.692   -1573.5872 
  171600    362.36577   -13242.258    77.770335   -13320.028    13060.963 
  171800    275.68895    -13245.85    59.167901   -13305.018    -5783.551 
  172000    343.55842   -13230.455    73.733933   -13304.189   -6037.2863 
  172200    304.12403   -13227.624    65.270589   -13292.894   -642.94593 
  172400    296.42355   -13244.608    63.617926   -13308.226    6231.5774 
  172600    311.19688   -13239.113    66.788553   -13305.902   -422.73462 
  172800      310.096   -13236.188    66.552284    -13302.74    22496.088 
  173000    279.16321   -13248.198     59.91354   -13308.112    4873.9926 
  173200     307.3015    -13238.25    65.952532   -13304.202   -8212.6216 
  173400    306.04732   -13243.157    65.683362    -13308.84   -6904.3595 
  173600    308.11318   -13241.281    66.126734   -13307.407    12224.042 
  173800    296.87191   -13253.769    63.714152   -13317.483     470.4251 
  174000    308.99064   -13241.284    66.315054   -13307.599    14658.495 
  174200    270.64093   -13244.554    58.084503   -13302.639   -258.49785 
  174400    324.44575   -13232.333    69.632004   -13301.965   -1516.6501 
  174600    327.22965   -13233.426    70.229478   -13303.656    5355.8217 
  174800    284.59671   -13250.953    61.079669   -13312.033    12407.693 
  175000    287.34729   -13246.633    61.669994   -13308.303   -1712.1371 
  175200    348.08498   -13224.671    74.705414   -13299.377   -7374.4155 
  175400    276.10354   -13244.587     59.25688   -13303.843     3465.709 
  175600    327.77827   -13240.882    70.347223    -13311.23   -16078.883 
  175800    312.40826   -13221.882    67.048538    -13288.93   -23869.224 
  176000    273.14357   -13237.887    58.621615   -13296.509    11326.641 
  176200     318.5532   -13240.643    68.367355    -13309.01    7052.6403 
  176400    306.50034   -13235.006    65.780589   -13300.786   -7875.4915 
  176600    325.96984   -13239.178      69.9591   -13309.137   -769.74173 
  176800    306.17599   -13255.946    65.710977   -13321.657   -2389.9232 
  177000    320.08258    -13237.53    68.695586   -13306.226   -7834.8909 
  177200    334.06322   -13235.663    71.696087   -13307.359   -9791.2448 
  177400    309.20163   -13242.445    66.360335   -13308.805    10905.128 
  177600     345.0264   -13235.842    74.048987   -13309.891   -12097.483 
  177800    285.03343   -13245.171    61.173396   -13306.344   -5416.0526 
  178000    294.62668   -13254.262    63.232285   -13317.494    7315.2777 
  178200    310.07159   -13235.735    66.547044   -13302.283    13671.993 
  178400    273.55243    -13243.36    58.709365   -13302.069   -3605.5559 
  178600    266.94042   -13258.469    57.290305   -13315.759    19801.995 
  178800    308.22724   -13237.282    66.151213   -13303.434   -4426.1893 
  179000    289.48676    -13245.46    62.129163   -13307.589   -11117.245 
  179200    303.36139   -13236.381    65.106912   -13301.488   -2802.2283 
  179400    301.19358   -13232.889    64.641661   -13297.531   -3592.4937 
  179600    308.31796   -13242.742    66.170683   -13308.912    3768.2145 
  179800    267.28596   -13252.648    57.364465   -13310.013     4615.409 
  180000    288.61529   -13238.503    61.942131   -13300.445    16927.757 
  180200    309.07878   -13239.597     66.33397   -13305.931     2875.815 
  180400    302.88365   -13245.789    65.004382   -13310.794      8314.76 
  180600    300.21265   -13236.796    64.431135   -13301.227    806.28069 
  180800    310.97572    -13243.17    66.741088   -13309.911    3365.2084 
  181000    238.86392   -13256.073    51.264575   -13307.337   -12093.506 
  181200    327.75995   -13236.103    70.343292   -13306.447    6275.1493 
[...]
  950000    299.63348   -13235.964    64.306835   -13300.271    645.80189 
  950200    275.52673    -13242.55    59.133085   -13301.683   -1170.2117 
  950400    273.81375   -13259.871    58.765449   -13318.637   -324.38082 
  950600    346.51887   -13238.595      74.3693   -13312.965    -1513.492 
  950800     341.9181    -13237.81    73.381889   -13311.192    21926.092 
  951000    289.68757   -13253.493    62.172261   -13315.666    12723.764 
  951200    276.99169   -13250.836    59.447492   -13310.284   -4313.0632 
  951400    386.05369   -13230.972    82.854196   -13313.826    5459.3125 
  951600     306.9995   -13242.836    65.887718   -13308.724   -7798.5672 
  951800    301.47673   -13234.052    64.702431   -13298.755   -10433.913 
  952000    302.41858   -13236.749    64.904569   -13301.653     5407.953 
  952200    322.32938   -13242.561     69.17779   -13311.739   -7361.4801 
  952400    304.49914   -13243.568    65.351095   -13308.919   -4830.2242 
  952600    251.98421   -13261.647     54.08043   -13315.728    9825.6614 
  952800    245.34866   -13243.927    52.656318   -13296.584    12210.018 
  953000    274.24353   -13240.451    58.857687   -13299.309    5543.5588 
  953200    314.66878   -13239.741    67.533686   -13307.275    11953.991 
  953400    298.05744   -13245.784    63.968588   -13309.752   -5108.6142 
  953600    301.68319    -13233.26    64.746741   -13298.007     4065.439 
  953800    303.71662   -13234.767    65.183151   -13299.951     7838.913 
  954000    278.59094   -13246.033    59.790721   -13305.824    4062.4086 
  954200    323.09602   -13233.714    69.342326   -13303.056    17656.237 
  954400    261.65113   -13252.335    56.155127    -13308.49    7349.9729 
  954600    305.66766   -13251.938     65.60188    -13317.54     4435.853 
  954800    290.97687   -13241.542    62.448968   -13303.991   -6230.7386 
  955000    317.06478   -13244.934    68.047911   -13312.982    5539.5426 
  955200    276.35313   -13255.871    59.310445   -13315.182    8569.7991 
  955400     306.1619   -13233.608    65.707954   -13299.316   -3653.4945 
  955600    290.65076     -13235.6     62.37898   -13297.979    387.84506 
  955800    310.81698   -13256.739    66.707019   -13323.446   -9055.4274 
  956000     301.9108   -13244.795     64.79559    -13309.59    7204.7451 
  956200    284.48713   -13238.792    61.056151   -13299.848   -24072.755 
  956400    312.12168   -13244.917    66.987031   -13311.904    902.88525 
  956600    310.52057   -13253.892    66.643403   -13320.535     3175.259 
  956800    308.30588   -13234.962     66.16809    -13301.13   -1116.1093 
  957000    276.80378   -13244.171    59.407162   -13303.578    12809.212 
  957200    248.57601   -13246.724    53.348966   -13300.073   -7889.5021 
  957400     303.9762   -13227.465    65.238862   -13292.703    1404.6786 
  957600     276.2421   -13243.998    59.286617   -13303.284   -11892.025 
  957800    315.94418   -13251.162     67.80741    -13318.97   -3298.1128 
  958000    380.36348   -13229.424    81.632972   -13311.057   -10928.306 
  958200    302.25665   -13248.629    64.869815   -13313.499   -16443.165 
  958400    310.99894   -13247.762    66.746071   -13314.508   -5649.8942 
  958600    339.33502   -13230.902    72.827514    -13303.73     9194.473 
  958800    263.99444   -13244.652    56.658045    -13301.31    4951.8667 
  959000     312.9632   -13239.128    67.167637   -13306.296    5071.3133 
  959200    321.53817   -13231.612    69.007982    -13300.62   -6353.4092 
  959400    314.13116   -13238.538    67.418303   -13305.957    1787.8002 
  959600    265.69087   -13253.643    57.022129   -13310.665    9505.1765 
  959800    327.71276   -13232.938    70.333162   -13303.271    8789.8282 
  960000    255.00488   -13254.774    54.728721   -13309.503   -4670.0093 
  960200    277.67781   -13247.543    59.594747   -13307.137   -12320.704 
  960400    307.92471   -13233.738    66.086286   -13299.824    7545.1797 
  960600    334.79493   -13230.349    71.853127   -13302.203    2592.2086 
  960800    311.55214   -13248.502    66.864798   -13315.367    3581.8243 
  961000    311.17518   -13235.319    66.783895   -13302.103    3244.2748 
  961200    267.66948   -13230.995    57.446774   -13288.442    12941.428 
  961400    274.18857    -13249.25    58.845891   -13308.096   -3672.6522 
  961600    319.95208   -13244.752    68.667578    -13313.42   -4571.5738 
  961800    304.77798   -13243.515    65.410938   -13308.925   -23710.202 
  962000    315.79645   -13248.138    67.775705   -13315.914    8461.0282 
  962200    251.43921   -13256.925    53.963462   -13310.889   -4830.5229 
  962400    343.31521   -13236.277    73.681735   -13309.959    24495.954 
  962600    303.20593   -13245.964    65.073548   -13311.037   -2327.9833 
  962800    321.84965   -13235.739    69.074833   -13304.814    8499.8667 
  963000    336.84149   -13239.866    72.292357   -13312.158    12589.033 
  963200    314.99884   -13242.671    67.604522   -13310.276   -16329.741 
  963400    302.37137   -13240.498    64.894436   -13305.393   -19244.852 
  963600    277.40556    -13245.06    59.536317   -13304.596    2787.3028 
  963800    380.63898   -13224.107      81.6921   -13305.799    2932.5563 
  964000    338.40567   -13234.426    72.628058   -13307.054    19960.343 
  964200    296.67111   -13243.226    63.671057   -13306.897    -2535.617 
  964400    327.90454   -13245.404    70.374323   -13315.778   -1961.4835 
  964600     355.1811    -13227.56    76.228373   -13303.788   -10369.001 
  964800    328.57202     -13234.2    70.517577   -13304.717   -2815.2283 
  965000     281.3822   -13248.384    60.389777   -13308.774    9195.7757 
  965200    315.44777    -13235.59    67.700872    -13303.29    11602.968 
  965400     289.6975    -13251.35    62.174392   -13313.524    6137.0869 
  965600    311.35146   -13253.793    66.821728   -13320.615    6627.2399 
  965800    339.17428   -13230.832    72.793016   -13303.625    18418.621 
  966000    297.89413   -13235.808    63.933539   -13299.741   -18207.414 
  966200    279.10323   -13257.086    59.900668   -13316.987   -578.01946 
  966400    260.71057    -13244.99    55.953265   -13300.943   -4353.4336 
  966600    304.04391   -13236.268    65.253395   -13301.521     8138.631 
  966800    271.45582    -13244.78    58.259393   -13303.039   -9723.6704 
  967000    291.60224   -13251.566    62.583184   -13314.149    1595.6392 
  967200    313.94336    -13229.73    67.377997   -13297.108   -7828.5499 
  967400    292.46517   -13249.908    62.768385   -13312.676   -17303.331 
  967600    334.23057   -13246.478    71.732005    -13318.21    6516.7953 
  967800    347.03183   -13226.835    74.479389   -13301.315    12292.168 
  968000    282.07068   -13230.004    60.537537   -13290.542    5458.6949 
  968200    318.72153   -13240.568    68.403481   -13308.971    3505.8367 
  968400    294.24583    -13239.59    63.150547    -13302.74    14056.471 
  968600    327.06487   -13230.201    70.194115   -13300.395   -1108.1881 
  968800    315.00419   -13250.332    67.605671   -13317.938   -1221.3054 
  969000    298.28678   -13247.458    64.017809   -13311.475   -8805.1414 
  969200    346.45207   -13225.747    74.354962   -13300.102   -8577.4831 
  969400    301.84335   -13242.369    64.781113    -13307.15     1263.626 
  969600    306.66968   -13247.473    65.816933    -13313.29   -776.33665 
  969800    311.93348   -13226.802     66.94664   -13293.749    4701.7374 
  970000    309.02574   -13229.754    66.322586   -13296.077    9517.2828 
  970200    280.62043   -13241.302    60.226286   -13301.528     2545.616 
  970400      308.823   -13235.597    66.279075   -13301.876    14710.729 
  970600    306.84249    -13248.73    65.854021   -13314.584    15883.938 
  970800    295.77529   -13251.492    63.478798    -13314.97   -9542.5806 
  971000    336.79059   -13229.954    72.281433   -13302.235    3976.5891 
  971200    276.11885   -13245.458    59.260164   -13304.718     1579.723 
  971400    300.78987   -13244.567    64.555017   -13309.122    2601.5328 
  971600    333.29663   -13227.812    71.531564   -13299.344   -6982.1722 
  971800    289.45195   -13248.033    62.121692   -13310.154   -5035.1002 
  972000    278.28932   -13247.111    59.725987   -13306.837   -9555.6053 
  972200    301.51285   -13239.886    64.710182   -13304.596    -11588.72 
  972400    289.82063   -13238.666    62.200817   -13300.866    8796.3398 
  972600    293.16159   -13254.976    62.917849   -13317.894    16614.527 
  972800    324.87997   -13242.179    69.725195   -13311.904   -5703.1862 
  973000    324.95276   -13237.942    69.740816   -13307.682    12306.224 
  973200     289.4164   -13251.253    62.114063   -13313.367    11083.088 
  973400    314.92096   -13240.318    67.587809   -13307.906    1657.9014 
  973600    303.73687   -13244.887    65.187497   -13310.074    16228.026 
  973800    294.06605   -13247.408    63.111962    -13310.52   -12086.767 
  974000    303.50412   -13233.996    65.137546   -13299.133   -9737.0047 
  974200    284.96034   -13254.741    61.157711   -13315.899    2870.5406 
  974400      294.586   -13245.067    63.223553   -13308.291    760.88908 
  974600    355.10085   -13225.489     76.21115     -13301.7   -14537.917 
  974800    336.68685   -13220.772    72.259168   -13293.031    7268.5262 
  975000    287.70481   -13250.699    61.746723   -13312.446     3159.463 
  975200    282.41947   -13248.121    60.612393   -13308.733   -12783.595 
  975400    296.28703    -13232.68    63.588626   -13296.268   -12751.868 
  975600    274.14675   -13246.543    58.836916    -13305.38    15235.776 
  975800    283.08556   -13243.396    60.755349   -13304.151   -7682.7371 
  976000    338.61977   -13230.245    72.674007   -13302.919   -568.88061 
  976200    263.52915   -13253.656    56.558185   -13310.214   -6368.6189 
  976400    328.82527   -13239.092    70.571927   -13309.664   -5064.2815 
  976600    280.98307    -13252.04    60.304116   -13312.344    2323.4449 
  976800    277.88813   -13253.748    59.639885   -13313.387     7031.381 
  977000    259.42234   -13248.569    55.676788   -13304.246    8419.4017 
  977200    342.56929   -13228.009    73.521647    -13301.53    5416.3027 
  977400    320.30193    -13231.18    68.742664   -13299.922   -13258.906 
  977600    306.09303   -13241.588    65.693174   -13307.281     21.09901 
  977800    294.74655   -13232.515    63.258011   -13295.773   -15458.712 
  978000    311.60053   -13236.685    66.875183    -13303.56   -1347.1086 
  978200    287.73083   -13254.101    61.752308   -13315.853   -1182.4312 
  978400    288.35187   -13241.204    61.885596    -13303.09    3905.5032 
  978600    401.04552   -13213.733    86.071716   -13299.805   -1003.7383 
  978800    297.79784   -13235.313    63.912872   -13299.226   -20441.372 
  979000    282.85848   -13248.941    60.706613   -13309.648    2603.3279 
  979200    294.70881   -13229.913     63.24991   -13293.163    1754.3244 
  979400    329.85208   -13225.363      70.7923   -13296.155   -3618.2667 
  979600    295.68622   -13237.149    63.459682   -13300.609   -3947.2139 
  979800    259.34352   -13246.637    55.659871   -13302.297     1932.573 
  980000    274.34574   -13247.931    58.879622   -13306.811   -4670.3245 
  980200    300.73714   -13242.283    64.543701   -13306.827   -4383.3084 
  980400    277.90809   -13258.686    59.644169    -13318.33   -2560.3782 
  980600    312.94253   -13236.462    67.163202   -13303.625    754.55012 
  980800    295.66113   -13246.449    63.454297   -13309.904    1923.8016 
  981000    287.93216   -13228.827    61.795517   -13290.623   -7514.7215 
  981200    326.80919   -13232.019     70.13924   -13302.158   -8908.8528 
  981400    275.68473   -13239.827    59.166996   -13298.994   -8449.9578 
  981600    309.57695   -13238.751    66.440886   -13305.192    4932.0369 
  981800    301.84459   -13252.133     64.78138   -13316.915   -1846.8027 
  982000    278.90929   -13244.162    59.859045   -13304.021    4942.2093 
  982200    291.56524   -13240.424    62.575243   -13302.999     3614.218 
  982400    264.91892   -13251.134    56.856454    -13307.99    915.28427 
  982600    342.03211   -13226.176    73.406357   -13299.582    9248.8297 
  982800     283.4305   -13240.647    60.829379   -13301.477    6573.7194 
  983000    278.58459   -13245.418    59.789359   -13305.207    883.55435 
  983200    271.97991   -13241.288    58.371872    -13299.66   -13753.982 
  983400    322.19771   -13226.934    69.149533   -13296.084   -4813.3083 
  983600    295.11003   -13241.466    63.336021   -13304.802    3328.1638 
  983800    299.74189   -13243.319    64.330101    -13307.65   -4504.0278 
  984000    300.25823   -13233.656    64.440917   -13298.097    6057.2471 
  984200    239.95509   -13253.882    51.498758   -13305.381   -18283.829 
  984400    254.65551   -13244.718    54.653738   -13299.371   -3556.5816 
  984600    313.57833   -13237.604    67.299655   -13304.903     1000.521 
  984800    271.14867   -13238.684    58.193473   -13296.877   -3483.2722 
  985000    404.91699   -13222.376    86.902606   -13309.279      8842.82 
  985200    288.81151   -13234.693    61.984243   -13296.678    8792.7219 
  985400    246.64502   -13245.987    52.934541   -13298.922    8398.0906 
  985600    329.41461   -13231.486    70.698412   -13302.184    1788.7224 
  985800    262.42368   -13253.456    56.320931   -13309.777   -9954.3387 
  986000    316.78758   -13241.079    67.988419   -13309.068   -9435.6917 
  986200    269.72459   -13253.313    57.887839     -13311.2   -11760.142 
  986400    309.39944   -13243.291    66.402788   -13309.694   -1939.9461 
  986600    315.14832   -13245.333    67.636605   -13312.969   -2878.4159 
  986800    252.20908   -13253.068     54.12869   -13307.196    17879.828 
  987000    301.06725    -13231.41    64.614548   -13296.025   -12182.726 
  987200    307.67472   -13236.562    66.032632   -13302.595   -8780.4707 
  987400    260.79307   -13249.064    55.970971   -13305.035    9261.1957 
  987600    286.28022   -13234.078    61.440981   -13295.519    9480.4371 
  987800    287.80202   -13238.747    61.767586   -13300.515   -11252.335 
  988000     307.1341   -13247.613    65.916605    -13313.53    5389.5042 
  988200    321.89903   -13242.066    69.085431   -13311.151    2722.1598 
  988400    335.20214   -13231.489    71.940522    -13303.43   -644.16348 
  988600     285.1229   -13254.284    61.192598   -13315.477   -5274.6304 
  988800     289.0079   -13245.525    62.026392   -13307.551   -2912.4692 
  989000    293.10277   -13240.136    62.905224   -13303.041    6982.3857 
  989200    238.38771   -13258.096    51.162371   -13309.258    6001.9543 
  989400    271.82538   -13238.144    58.338708   -13296.482    6019.1622 
  989600    294.29687   -13245.371    63.161502   -13308.533   -1144.4772 
  989800    268.59706    -13260.07    57.645851   -13317.716   -18206.732 
  990000     286.6944   -13250.223    61.529872   -13311.753   -7001.4432 
  990200    306.89899   -13242.005    65.866148   -13307.871    544.38905 
  990400    271.47196    -13249.66    58.262856   -13307.923   -11846.613 
  990600    317.44788   -13232.026    68.130131   -13300.156   -2267.4892 
  990800    323.16341   -13224.971     69.35679   -13294.328     10031.32 
  991000    261.61147   -13247.172    56.146616   -13303.319    2552.2364 
  991200    224.44689   -13266.774    48.170414   -13314.944    3956.9603 
  991400    308.04241   -13247.542    66.111545   -13313.654   -11280.709 
  991600    349.48888   -13241.532    75.006717   -13316.538   -9468.3566 
  991800    251.61234    -13258.58    54.000619    -13312.58   -6466.6962 
  992000    331.97497   -13235.012    71.247912   -13306.259    5008.8042 
  992200    331.81704   -13245.193    71.214017   -13316.407    15069.698 
  992400    289.90569   -13248.543    62.219072   -13310.762   -8210.7381 
  992600    346.22066   -13236.356    74.305298   -13310.662   -6188.0719 
  992800    296.20617   -13245.455    63.571271   -13309.026   -7368.8613 
  993000    307.01448   -13234.843    65.890934   -13300.734    3027.6666 
  993200    265.31572   -13233.693    56.941614   -13290.635   -3040.5106 
  993400    261.58416   -13251.272    56.140754   -13307.412    12153.561 
  993600    303.14803   -13240.029    65.061123    -13305.09   -7063.7766 
  993800    253.62767   -13253.925    54.433145   -13308.358    2607.9023 
  994000    284.23113   -13254.417    61.001209   -13315.418    2776.7743 
  994200    311.31182   -13239.547     66.81322    -13306.36   -11833.448 
  994400    262.52769   -13243.805    56.343252   -13300.148   -15633.427 
  994600    270.86434    -13255.16     58.13245   -13313.293    6794.3305 
  994800    340.44278   -13233.947    73.065258   -13307.012     1516.043 
  995000    305.30276   -13243.981    65.523566   -13309.504    6327.3429 
  995200    246.85299   -13258.188    52.979174   -13311.167   -15725.972 
  995400    332.69475   -13235.898    71.402389     -13307.3    4517.4936 
  995600    321.87832   -13236.687    69.080986   -13305.768   -8886.0152 
  995800    300.77189    -13254.06    64.551159   -13318.611   -3431.9614 
  996000    313.37874    -13244.03    67.256821   -13311.287    9416.0198 
  996200    333.38672   -13230.352    71.550899   -13301.903    16307.343 
  996400    302.04723   -13238.031    64.824871   -13302.856    11857.718 
  996600    282.08149   -13245.656    60.539856   -13306.196    2680.9875 
  996800    337.92599    -13224.42    72.525109   -13296.945   -1082.2575 
  997000    304.03521   -13238.835    65.251527   -13304.087   -14951.079 
  997200    272.19955    -13247.02    58.419012   -13305.439   -2465.8877 
  997400    305.77044   -13239.359    65.623938   -13304.983   -7350.7542 
  997600    315.03617   -13234.239    67.612535   -13301.851    2500.6023 
  997800    271.42196   -13253.369    58.252125   -13311.621    17710.121 
  998000    336.75738   -13237.231    72.274303   -13309.505    4364.0589 
  998200    319.20521   -13234.236    68.507286   -13302.744   -10783.831 
  998400    263.39972   -13241.181    56.530406   -13297.712   -2906.4713 
  998600    339.61318   -13229.833    72.887212    -13302.72    14674.672 
  998800    252.43635   -13246.357    54.177467   -13300.535    380.03257 
  999000    294.43844   -13243.751    63.191885   -13306.943    15612.136 
  999200    315.37771   -13234.839    67.685836   -13302.525   -3921.6105 
  999400    263.29389   -13245.953    56.507693   -13302.461   -13079.287 
  999600    327.97649    -13234.13    70.389764    -13304.52    621.02519 
  999800    257.49493   -13241.515    55.263131   -13296.778    7875.5543 
 1000000     289.9164   -13244.876    62.221372   -13307.098   -17020.125 
Loop time of 3385.99 on 8 procs for 1000000 steps with 73 atoms

Performance: 6.379 ns/day, 3.762 hours/ns, 295.335 timesteps/s
99.2% CPU use with 8 MPI tasks x no OpenMP threads

MPI task timing breakdown:
Section |  min time  |  avg time  |  max time  |%varavg| %total
---------------------------------------------------------------
Pair    | 2624.5     | 2838.8     | 2962.9     | 239.2 | 83.84
Neigh   | 1.2013     | 1.2493     | 1.2853     |   2.5 |  0.04
Comm    | 81.695     | 205.01     | 419.24     | 887.3 |  6.05
Output  | 0.098054   | 0.1152     | 0.22504    |  12.2 |  0.00
Modify  | 337.42     | 338.06     | 338.8      |   2.5 |  9.98
Other   |            | 2.791      |            |       |  0.08

Nlocal:    9.125 ave 17 max 0 min
Histogram: 2 0 0 1 1 1 0 0 0 3
Nghost:    790.375 ave 806 max 772 min
Histogram: 1 0 1 0 1 2 0 1 1 1
Neighs:    1934.75 ave 3573 max 0 min
Histogram: 2 0 0 1 1 0 1 0 0 3

Total # of neighbors = 15478
Ave neighs/atom = 212.027
Neighbor list builds = 1006
Dangerous builds = 0

Please see the log.cite file for references relevant to this simulation

Total wall time: 0:56:34
