ITEM: TIMESTEP
0
ITEM: NUMBER OF ATOMS
323
ITEM: BOX BOUNDS pp pp pp
0.0000000000000000e+00 1.9018000000000001e+01
0.0000000000000000e+00 1.9018000000000001e+01
0.0000000000000000e+00 1.9018000000000001e+01
ITEM: ATOMS id type x y z 
10 1 6.117 6.117 0.228 
22 1 0.228 6.117 6.117 
34 1 6.117 0.228 6.117 
89 1 3.299 4.982 1.363 
90 1 1.962 4.752 0.945 
97 1 4.982 3.299 1.363 
98 1 4.752 3.716 2.699 
105 1 3.299 1.362 4.982 
106 1 3.716 2.699 4.752 
121 1 4.982 1.362 3.299 
122 1 4.752 0.945 1.962 
125 1 8.053 8.053 0.228 
127 1 0.422 4.239 4.239 
130 1 4.239 0.422 4.239 
133 1 0.422 0.422 0.422 
136 1 4.239 4.239 0.422 
157 1 1.363 3.299 4.982 
158 1 0.945 1.962 4.752 
165 1 1.363 4.982 3.299 
166 1 2.699 4.752 3.716 
189 1 0.228 8.053 8.053 
207 1 8.053 0.228 8.053 
277 1 4.752 1.962 0.945 
284 1 3.716 4.752 2.699 
297 1 2.699 3.716 4.752 
306 1 0.945 4.752 1.962 
315 1 1.962 0.945 4.752 
319 1 4.752 2.699 3.716 
11 1 7.454 5.7 19.015 
16 1 4.433 6.117 17.562 
17 1 4.664 7.454 17.979 
25 1 6.117 4.433 17.562 
26 1 5.7 4.664 16.225 
39 1 8.994 8.994 18.502 
42 1 5.176 5.176 18.502 
43 1 1.363 1.362 18.696 
44 1 0.945 2.699 18.927 
45 1 5.176 8.994 14.685 
48 1 8.994 5.176 14.685 
79 1 3.299 3.299 18.696 
80 1 3.716 1.962 18.927 
85 1 3.299 9.187 12.807 
86 1 1.962 9.418 13.224 
95 1 9.187 3.299 12.807 
96 1 9.418 3.716 11.47 
119 1 9.187 1.362 10.871 
120 1 9.418 0.945 12.208 
126 1 6.716 8.47 19.015 
144 1 9.506 6.716 17.979 
148 1 8.47 9.506 16.225 
161 1 1.363 9.187 10.871 
162 1 2.699 9.418 10.454 
179 1 6.117 8.053 13.942 
180 1 7.454 8.47 14.173 
185 1 4.433 8.053 15.626 
186 1 4.664 6.716 15.209 
200 1 5.7 9.506 16.963 
201 1 8.053 4.433 15.626 
202 1 8.47 4.664 16.963 
215 1 8.053 6.117 13.942 
216 1 6.716 5.7 14.173 
220 1 9.506 7.454 15.209 
227 1 2.699 0.945 18.927 
240 1 5.7 7.454 19.015 
242 1 7.454 4.664 17.979 
245 1 4.664 5.7 16.225 
252 1 8.47 6.716 19.015 
254 1 6.716 9.506 17.979 
257 1 9.506 8.47 16.225 
264 1 8.47 7.454 14.173 
266 1 6.716 4.664 15.209 
269 1 9.506 5.7 16.963 
274 1 1.962 3.716 18.927 
279 1 9.418 1.962 13.224 
281 1 3.716 9.418 11.47 
288 1 5.7 6.716 14.173 
290 1 7.454 9.506 15.209 
293 1 4.664 8.47 16.963 
307 1 0.945 9.418 12.208 
317 1 9.418 2.699 10.454 
4 1 6.117 17.562 4.433 
5 1 7.454 17.979 4.664 
13 1 4.433 17.562 6.117 
14 1 4.664 16.225 5.7 
35 1 5.7 19.015 7.454 
51 1 8.994 18.502 8.994 
54 1 5.176 18.502 5.176 
55 1 1.363 18.696 1.363 
56 1 2.699 18.927 0.945 
57 1 8.994 14.685 5.176 
60 1 5.176 14.685 8.994 
93 1 9.187 10.871 1.363 
94 1 9.418 10.454 2.699 
103 1 3.299 12.807 9.187 
104 1 3.716 11.47 9.418 
113 1 3.299 18.696 3.299 
114 1 1.962 18.927 3.716 
117 1 9.187 12.807 3.299 
118 1 9.418 13.224 1.962 
131 1 8.053 15.626 4.433 
132 1 6.716 15.209 4.664 
142 1 9.506 16.963 5.7 
149 1 8.053 13.942 6.117 
150 1 8.47 14.173 7.454 
155 1 1.363 10.871 9.187 
156 1 0.945 12.208 9.418 
184 1 7.454 15.209 9.506 
187 1 4.433 15.626 8.053 
188 1 4.664 16.963 8.47 
193 1 6.117 13.942 8.053 
194 1 5.7 14.173 6.716 
208 1 8.47 19.015 6.716 
212 1 6.716 17.979 9.506 
218 1 9.506 16.225 8.47 
235 1 0.945 18.927 2.699 
237 1 5.7 16.225 4.664 
244 1 7.454 19.015 5.7 
246 1 4.664 17.979 7.454 
249 1 8.47 16.963 4.664 
256 1 6.716 14.173 5.7 
258 1 9.506 15.209 7.454 
261 1 8.47 16.225 9.506 
268 1 6.716 19.015 8.47 
270 1 9.506 17.979 6.716 
280 1 9.418 12.208 0.945 
285 1 5.7 16.963 9.506 
292 1 7.454 14.173 8.47 
294 1 4.664 15.209 6.716 
299 1 2.699 10.454 9.418 
311 1 3.716 18.927 1.962 
313 1 1.962 13.224 9.418 
318 1 9.418 11.47 3.716 
15 1 0.422 9.931 9.931 
18 1 0.422 13.748 13.748 
19 1 0.228 17.562 17.562 
21 1 4.239 9.931 13.748 
24 1 4.239 13.748 9.931 
40 1 1.363 12.807 14.491 
41 1 0.945 11.47 14.26 
49 1 1.363 14.491 12.807 
50 1 2.699 14.26 13.224 
76 1 3.299 10.871 14.491 
77 1 3.716 12.208 14.26 
99 1 4.982 10.871 12.807 
100 1 4.752 10.454 11.47 
109 1 3.299 14.491 10.871 
110 1 1.962 14.26 10.454 
123 1 4.982 12.807 10.871 
124 1 4.752 13.224 12.208 
147 1 8.053 9.737 17.562 
183 1 6.117 15.626 9.737 
191 1 0.228 15.626 15.626 
199 1 6.117 9.737 15.626 
211 1 8.053 17.562 9.737 
225 1 2.699 13.224 14.26 
234 1 0.945 14.26 11.47 
276 1 1.962 10.454 14.26 
278 1 4.752 12.208 13.224 
310 1 3.716 14.26 12.208 
320 1 4.752 11.47 10.454 
1 1 17.562 6.117 4.433 
2 1 16.225 5.7 4.664 
23 1 19.015 7.454 5.7 
28 1 17.562 4.433 6.117 
29 1 17.979 4.664 7.454 
63 1 18.502 8.994 8.994 
66 1 18.502 5.176 5.176 
67 1 18.696 1.362 1.363 
68 1 18.927 0.945 2.699 
69 1 14.685 5.176 8.994 
72 1 14.685 8.994 5.176 
87 1 10.871 9.187 1.363 
88 1 12.208 9.418 0.945 
101 1 10.871 1.362 9.187 
102 1 10.454 2.699 9.418 
134 1 15.626 8.053 4.433 
135 1 16.963 8.47 4.664 
139 1 13.942 8.053 6.117 
140 1 14.173 6.716 5.7 
146 1 15.209 9.506 7.454 
153 1 12.807 3.299 9.187 
154 1 13.224 1.962 9.418 
163 1 12.807 9.187 3.299 
164 1 11.47 9.418 3.716 
173 1 18.696 3.299 3.299 
174 1 18.927 3.716 1.962 
182 1 16.225 8.47 9.506 
190 1 19.015 6.716 8.47 
198 1 17.979 9.506 6.716 
203 1 15.626 4.433 8.053 
204 1 15.209 4.664 6.716 
210 1 16.963 5.7 9.506 
223 1 13.942 6.117 8.053 
224 1 14.173 7.454 8.47 
231 1 18.927 2.699 0.945 
238 1 17.979 7.454 4.664 
241 1 16.225 4.664 5.7 
248 1 19.015 5.7 7.454 
250 1 15.209 6.716 4.664 
253 1 16.963 9.506 5.7 
260 1 14.173 8.47 7.454 
262 1 15.209 7.454 9.506 
265 1 16.963 4.664 8.47 
272 1 14.173 5.7 6.716 
282 1 10.454 9.418 2.699 
286 1 17.979 6.716 9.506 
289 1 16.225 9.506 8.47 
296 1 19.015 8.47 6.716 
300 1 11.47 3.716 9.418 
304 1 18.927 1.962 3.716 
308 1 13.224 9.418 1.962 
314 1 12.208 0.945 9.418 
321 2 17.562 6.117 3.083 
322 2 16.48 6.401 2.083 
323 3 17.189 6.576 1.444 
27 1 9.931 0.422 9.931 
30 1 13.748 0.422 13.748 
31 1 17.562 0.228 17.562 
33 1 13.748 4.239 9.931 
36 1 9.931 4.239 13.748 
37 1 12.807 1.362 14.491 
38 1 13.224 2.699 14.26 
64 1 14.491 1.362 12.807 
65 1 14.26 0.945 11.47 
73 1 10.871 3.299 14.491 
74 1 10.454 1.962 14.26 
91 1 10.871 4.982 12.807 
92 1 12.208 4.752 13.224 
143 1 9.737 8.053 17.562 
167 1 12.807 4.982 10.871 
168 1 11.47 4.752 10.454 
171 1 14.491 3.299 10.871 
172 1 14.26 3.716 12.208 
181 1 17.562 8.053 9.737 
205 1 15.626 0.228 15.626 
209 1 15.626 6.117 9.737 
219 1 9.737 6.117 15.626 
226 1 11.47 0.945 14.26 
229 1 14.26 2.699 13.224 
275 1 12.208 3.716 14.26 
283 1 10.454 4.752 11.47 
302 1 14.26 1.962 10.454 
305 1 13.224 4.752 12.208 
3 1 9.931 9.931 0.422 
6 1 13.748 13.748 0.422 
7 1 17.562 17.562 0.228 
9 1 9.931 13.748 4.239 
12 1 13.748 9.931 4.239 
52 1 12.807 14.491 1.363 
53 1 11.47 14.26 0.945 
61 1 14.491 12.807 1.363 
62 1 14.26 13.224 2.699 
107 1 10.871 12.807 4.982 
108 1 10.454 11.47 4.752 
111 1 10.871 14.491 3.299 
112 1 12.208 14.26 3.716 
128 1 15.626 15.626 0.228 
141 1 9.737 15.626 6.117 
145 1 15.626 9.737 6.117 
159 1 12.807 10.871 4.982 
160 1 13.224 12.208 4.752 
169 1 14.491 10.871 3.299 
170 1 14.26 10.454 1.962 
197 1 17.562 9.737 8.053 
217 1 9.737 17.562 8.053 
230 1 14.26 11.47 0.945 
233 1 13.224 14.26 2.699 
298 1 11.47 10.454 4.752 
301 1 14.26 12.208 3.716 
309 1 10.454 14.26 1.962 
316 1 12.208 13.224 4.752 
8 1 16.225 17.979 19.015 
20 1 19.015 16.225 17.979 
32 1 17.979 19.015 16.225 
46 1 12.807 12.807 18.696 
47 1 13.224 11.47 18.927 
58 1 12.807 18.696 12.807 
59 1 11.47 18.927 13.224 
70 1 18.696 12.807 12.807 
71 1 18.927 13.224 11.47 
75 1 14.685 14.685 18.502 
78 1 18.502 18.502 18.502 
81 1 18.502 14.685 14.685 
82 1 10.871 10.871 18.696 
83 1 10.454 12.208 18.927 
84 1 14.685 18.502 14.685 
115 1 10.871 18.696 10.871 
116 1 12.208 18.927 10.454 
129 1 16.963 15.209 19.015 
137 1 13.942 15.626 17.562 
138 1 14.173 16.963 17.979 
151 1 15.626 13.942 17.562 
152 1 15.209 14.173 16.225 
175 1 18.696 10.871 10.871 
176 1 18.927 10.454 12.208 
177 1 17.562 15.626 13.942 
178 1 16.225 15.209 14.173 
192 1 19.015 16.963 15.209 
195 1 17.562 13.942 15.626 
196 1 17.979 14.173 16.963 
206 1 15.209 19.015 16.963 
213 1 15.626 17.562 13.942 
214 1 16.963 17.979 14.173 
221 1 13.942 17.562 15.626 
222 1 14.173 16.225 15.209 
228 1 11.47 13.224 18.927 
232 1 18.927 11.47 13.224 
236 1 13.224 18.927 11.47 
239 1 17.979 16.225 19.015 
243 1 16.225 19.015 17.979 
247 1 19.015 17.979 16.225 
251 1 15.209 16.963 19.015 
255 1 16.963 14.173 17.979 
259 1 14.173 15.209 16.225 
263 1 15.209 16.225 14.173 
267 1 16.963 19.015 15.209 
271 1 14.173 17.979 16.963 
273 1 12.208 10.454 18.927 
287 1 17.979 16.963 14.173 
291 1 16.225 14.173 15.209 
295 1 19.015 15.209 16.963 
303 1 18.927 12.208 10.454 
312 1 10.454 18.927 12.208 
ITEM: TIMESTEP
10
ITEM: NUMBER OF ATOMS
323
ITEM: BOX BOUNDS pp pp pp
0.0000000000000000e+00 1.9018000000000001e+01
0.0000000000000000e+00 1.9018000000000001e+01
0.0000000000000000e+00 1.9018000000000001e+01
ITEM: ATOMS id type x y z 
10 1 6.11337 6.11337 0.257183 
22 1 0.26544 6.1143 6.12105 
34 1 6.11339 0.257196 6.11339 
89 1 3.30257 5.01181 1.35855 
90 1 1.94745 4.80144 0.907547 
97 1 5.0116 3.30185 1.35884 
98 1 4.80175 3.75189 2.71374 
105 1 3.30268 1.35829 5.0119 
106 1 3.75377 2.71336 4.80149 
121 1 5.0117 1.3586 3.30185 
122 1 4.80079 0.908862 1.94715 
125 1 8.05663 8.05663 0.257167 
127 1 0.43862 4.2223 4.22359 
130 1 4.23971 0.421002 4.23926 
133 1 0.421651 0.420993 0.421231 
136 1 4.23971 4.23931 0.421239 
157 1 1.36773 3.29346 5.0164 
158 1 0.907512 1.94465 4.80225 
165 1 1.36562 5.01677 3.29542 
166 1 2.71551 4.80266 3.75318 
189 1 0.261046 8.05944 8.06225 
207 1 8.05662 0.257176 8.05662 
277 1 4.80076 1.94718 0.908931 
284 1 3.7535 4.8014 2.71372 
297 1 2.7166 3.75358 4.80236 
306 1 0.907999 4.80216 1.9456 
315 1 1.94761 0.907339 4.80137 
319 1 4.80183 2.7135 3.75195 
11 1 7.46815 5.66351 19.0643 
16 1 4.40373 6.1134 17.5655 
17 1 4.6147 7.46821 18.0155 
25 1 6.1134 4.40374 17.5655 
26 1 5.66348 4.61473 16.2107 
39 1 8.99401 8.99401 18.5028 
42 1 5.17597 5.17596 18.5028 
43 1 1.35923 1.35855 18.6672 
44 1 0.909219 2.71344 18.8773 
45 1 5.17595 8.99404 14.685 
48 1 8.99404 5.17595 14.685 
79 1 3.30224 3.30178 18.6669 
80 1 3.75215 1.94729 18.8781 
85 1 3.30227 9.15782 12.8105 
86 1 1.94757 9.36883 13.2604 
95 1 9.15784 3.30225 12.8105 
96 1 9.36867 3.75215 11.4557 
119 1 9.15789 1.35874 10.8676 
120 1 9.36882 0.908793 12.2225 
126 1 6.70186 8.5065 19.0642 
144 1 9.55529 6.7018 18.0155 
148 1 8.50652 9.55527 16.2107 
161 1 1.35902 9.15791 10.8677 
162 1 2.71382 9.36883 10.4176 
179 1 6.11336 8.05664 13.9128 
180 1 7.46819 8.50651 14.1237 
185 1 4.40377 8.05664 15.6223 
186 1 4.61471 6.70185 15.1725 
200 1 5.66349 9.5553 16.9772 
201 1 8.05665 4.40377 15.6223 
202 1 8.50652 4.6147 16.9771 
215 1 8.05665 6.11335 13.9128 
216 1 6.70181 5.66349 14.1237 
220 1 9.5553 7.46816 15.1725 
227 1 2.71397 0.908883 18.8783 
240 1 5.66351 7.46815 19.0643 
242 1 7.46821 4.61471 18.0155 
245 1 4.61473 5.66348 16.2107 
252 1 8.5065 6.70186 19.0642 
254 1 6.7018 9.55529 18.0155 
257 1 9.55527 8.50652 16.2107 
264 1 8.50651 7.46819 14.1237 
266 1 6.70185 4.61471 15.1725 
269 1 9.5553 5.66349 16.9772 
274 1 1.94755 3.7518 18.8772 
279 1 9.36886 1.94754 13.2604 
281 1 3.75231 9.36865 11.4558 
288 1 5.66349 6.70181 14.1237 
290 1 7.46816 9.5553 15.1725 
293 1 4.6147 8.50652 16.9772 
307 1 0.908872 9.36879 12.2225 
317 1 9.36884 2.71356 10.4176 
4 1 6.11343 17.5655 4.40373 
5 1 7.46822 18.0155 4.6147 
13 1 4.40373 17.5655 6.11342 
14 1 4.61472 16.2107 5.66348 
35 1 5.66351 19.0643 7.46816 
51 1 8.99398 18.5028 8.99398 
54 1 5.17602 18.5028 5.17601 
55 1 1.35925 18.6672 1.35876 
56 1 2.71396 18.8782 0.908953 
57 1 8.99403 14.685 5.17596 
60 1 5.17595 14.685 8.99404 
93 1 9.15796 10.8677 1.35891 
94 1 9.3689 10.4175 2.71375 
103 1 3.30227 12.8105 9.15782 
104 1 3.75231 11.4558 9.36864 
113 1 3.30228 18.6668 3.30175 
114 1 1.9476 18.8771 3.75185 
117 1 9.1578 12.8105 3.30223 
118 1 9.36884 13.2604 1.94755 
131 1 8.05665 15.6223 4.40377 
132 1 6.70185 15.1725 4.61471 
142 1 9.5553 16.9771 5.66348 
149 1 8.05664 13.9128 6.11336 
150 1 8.50651 14.1237 7.46819 
155 1 1.35903 10.8677 9.15796 
156 1 0.908867 12.2225 9.36879 
184 1 7.46815 15.1725 9.5553 
187 1 4.40377 15.6223 8.05664 
188 1 4.6147 16.9771 8.50652 
193 1 6.11336 13.9128 8.05664 
194 1 5.66349 14.1237 6.70181 
208 1 8.5065 19.0643 6.70185 
212 1 6.70179 18.0155 9.55529 
218 1 9.55528 16.2107 8.50652 
235 1 0.909214 18.8773 2.71363 
237 1 5.66348 16.2107 4.61472 
244 1 7.46816 19.0643 5.66351 
246 1 4.6147 18.0155 7.46822 
249 1 8.50653 16.9771 4.6147 
256 1 6.70181 14.1237 5.66349 
258 1 9.5553 15.1725 7.46815 
261 1 8.50652 16.2107 9.55528 
268 1 6.70185 19.0643 8.5065 
270 1 9.55529 18.0155 6.70179 
280 1 9.36882 12.2224 0.908869 
285 1 5.66348 16.9771 9.5553 
292 1 7.46819 14.1237 8.50651 
294 1 4.61471 15.1725 6.70185 
299 1 2.71383 10.4176 9.36883 
311 1 3.75215 18.878 1.94728 
313 1 1.94757 13.2604 9.36883 
318 1 9.36869 11.4558 3.7524 
15 1 0.42177 9.9306 9.93062 
18 1 0.421356 13.7481 13.7481 
19 1 0.257198 17.5655 17.5655 
21 1 4.23945 9.93027 13.748 
24 1 4.23945 13.748 9.93027 
40 1 1.35879 12.8106 14.52 
41 1 0.908885 11.4557 14.3092 
49 1 1.35879 14.52 12.8106 
50 1 2.71371 14.3092 13.2604 
76 1 3.3022 10.8677 14.5203 
77 1 3.75229 12.2224 14.3093 
99 1 5.01169 10.8675 12.8106 
100 1 4.80108 10.4174 11.4557 
109 1 3.3022 14.5203 10.8677 
110 1 1.94745 14.3092 10.4176 
123 1 5.01169 12.8106 10.8675 
124 1 4.80104 13.2606 12.2224 
147 1 8.05661 9.76626 17.5656 
183 1 6.11334 15.6223 9.76625 
191 1 0.257145 15.6223 15.6223 
199 1 6.11335 9.76625 15.6223 
211 1 8.05659 17.5655 9.76627 
225 1 2.71371 13.2604 14.3092 
234 1 0.908885 14.3092 11.4557 
276 1 1.94745 10.4176 14.3092 
278 1 4.80104 12.2224 13.2606 
310 1 3.75229 14.3093 12.2224 
320 1 4.80108 11.4557 10.4174 
1 1 17.5527 6.1263 4.25237 
2 1 16.1638 5.66072 4.66589 
23 1 19.0661 7.47075 5.67572 
28 1 17.5643 4.39567 6.12094 
29 1 18.016 4.61382 7.47726 
63 1 18.5012 8.99584 8.99711 
66 1 18.5348 5.14409 5.16469 
67 1 18.667 1.35829 1.35844 
68 1 18.8777 0.907651 2.71367 
69 1 14.6831 5.1776 8.99714 
72 1 14.6819 8.99719 5.17578 
87 1 10.8678 9.15793 1.35904 
88 1 12.2225 9.36886 0.908888 
101 1 10.8676 1.35873 9.15789 
102 1 10.4176 2.71355 9.36884 
134 1 15.6221 8.05639 4.38627 
135 1 16.9797 8.51407 4.61436 
139 1 13.9096 8.06326 6.11493 
140 1 14.1086 6.70255 5.66736 
146 1 15.1712 9.55474 7.47293 
153 1 12.8104 3.30218 9.15784 
154 1 13.2604 1.94748 9.36884 
163 1 12.8094 9.15726 3.30118 
164 1 11.4559 9.36865 3.75223 
173 1 18.6616 3.29554 3.29537 
174 1 18.8766 3.75301 1.94569 
182 1 16.2113 8.5067 9.55509 
190 1 19.0649 6.7019 8.51313 
198 1 18.0177 9.56519 6.70783 
203 1 15.6195 4.39987 8.06226 
204 1 15.1623 4.60742 6.70827 
210 1 16.9769 5.66463 9.55652 
223 1 13.9109 6.11655 8.06295 
224 1 14.1244 7.4694 8.50664 
231 1 18.8776 2.71346 0.907618 
238 1 18.0177 7.51586 4.66847 
241 1 16.2082 4.61383 5.67485 
248 1 19.0652 5.66296 7.47708 
250 1 15.1654 6.69865 4.61398 
253 1 16.9764 9.57058 5.66761 
260 1 14.1243 8.50779 7.47304 
262 1 15.1723 7.46758 9.55509 
265 1 16.9772 4.61411 8.51315 
272 1 14.1138 5.66123 6.70784 
282 1 10.4176 9.3689 2.7138 
286 1 18.0144 6.70203 9.55651 
289 1 16.2095 9.55461 8.50666 
296 1 19.0715 8.51706 6.70853 
300 1 11.4557 3.75216 9.36866 
304 1 18.8763 1.94585 3.75305 
308 1 13.2604 9.36869 1.94773 
314 1 12.2225 0.908773 9.36881 
321 2 17.6468 6.06675 3.12379 
322 2 16.4571 6.42174 2.0156 
323 3 17.1673 6.56412 1.42818 
27 1 9.93041 0.421398 9.93041 
30 1 13.7481 0.421133 13.7481 
31 1 17.5656 0.257198 17.5656 
33 1 13.7477 4.2393 9.93052 
36 1 9.93027 4.23945 13.748 
37 1 12.8106 1.35858 14.5201 
38 1 13.2604 2.7135 14.3092 
64 1 14.5201 1.35857 12.8106 
65 1 14.3092 0.908775 11.4557 
73 1 10.8677 3.30219 14.5202 
74 1 10.4176 1.94744 14.3092 
91 1 10.8675 5.01166 12.8106 
92 1 12.2223 4.80099 13.2606 
143 1 9.76626 8.05661 17.5656 
167 1 12.8105 5.01165 10.8676 
168 1 11.4556 4.80102 10.4174 
171 1 14.5203 3.30213 10.8677 
172 1 14.3093 3.75216 12.2225 
181 1 17.5643 8.05638 9.76676 
205 1 15.6223 0.257154 15.6223 
209 1 15.6226 6.11464 9.76674 
219 1 9.76624 6.11334 15.6223 
226 1 11.4557 0.908795 14.3092 
229 1 14.3092 2.71348 13.2604 
275 1 12.2225 3.75214 14.3093 
283 1 10.4174 4.80101 11.4557 
302 1 14.3092 1.94738 10.4176 
305 1 13.2606 4.80099 12.2225 
3 1 9.93033 9.93042 0.421571 
6 1 13.7481 13.7482 0.421307 
7 1 17.5655 17.5655 0.257196 
9 1 9.93022 13.748 4.23942 
12 1 13.7476 9.93064 4.23933 
52 1 12.8106 14.52 1.35874 
53 1 11.4557 14.3092 0.908872 
61 1 14.5201 12.8105 1.35887 
62 1 14.3091 13.2604 2.71373 
107 1 10.8676 12.8105 5.01174 
108 1 10.4174 11.4557 4.80103 
111 1 10.8676 14.5203 3.30217 
112 1 12.2224 14.3093 3.7524 
128 1 15.6223 15.6223 0.257144 
141 1 9.76625 15.6223 6.11334 
145 1 15.6157 9.76942 6.11493 
159 1 12.8096 10.8685 5.01255 
160 1 13.2605 12.2222 4.80107 
169 1 14.5208 10.8687 3.30112 
170 1 14.3093 10.4176 1.94762 
197 1 17.5624 9.76811 8.06284 
217 1 9.76627 17.5655 8.05659 
230 1 14.3092 11.4556 0.908886 
233 1 13.2606 14.3091 2.71369 
298 1 11.4559 10.4175 4.80109 
301 1 14.3094 12.2223 3.75223 
309 1 10.4176 14.3092 1.94744 
316 1 12.2224 13.2606 4.801 
8 1 16.2107 18.0155 19.0642 
20 1 19.0642 16.2107 18.0155 
32 1 18.0155 19.0642 16.2107 
46 1 12.8107 12.8107 18.667 
47 1 13.2607 11.4559 18.878 
58 1 12.8107 18.6669 12.8107 
59 1 11.4559 18.8779 13.2605 
70 1 18.667 12.8107 12.8107 
71 1 18.8779 13.2606 11.4559 
75 1 14.6848 14.6848 18.503 
78 1 18.5029 18.5029 18.5029 
81 1 18.503 14.6848 14.6848 
82 1 10.8676 10.8676 18.6669 
83 1 10.4175 12.2223 18.878 
84 1 14.6849 18.5029 14.6849 
115 1 10.8676 18.6668 10.8676 
116 1 12.2224 18.8779 10.4175 
129 1 16.9771 15.1725 19.0643 
137 1 13.9128 15.6223 17.5656 
138 1 14.1237 16.9772 18.0155 
151 1 15.6223 13.9128 17.5656 
152 1 15.1725 14.1237 16.2108 
175 1 18.6669 10.8677 10.8677 
176 1 18.8779 10.4175 12.2224 
177 1 17.5656 15.6223 13.9128 
178 1 16.2108 15.1725 14.1237 
192 1 19.0643 16.9771 15.1725 
195 1 17.5656 13.9128 15.6223 
196 1 18.0155 14.1237 16.9772 
206 1 15.1725 19.0643 16.9771 
213 1 15.6223 17.5656 13.9128 
214 1 16.9772 18.0155 14.1237 
221 1 13.9128 17.5656 15.6223 
222 1 14.1237 16.2107 15.1725 
228 1 11.4559 13.2605 18.8779 
232 1 18.8779 11.4559 13.2606 
236 1 13.2605 18.8779 11.4559 
239 1 18.0155 16.2107 19.0642 
243 1 16.2107 19.0642 18.0155 
247 1 19.0642 18.0155 16.2107 
251 1 15.1725 16.9771 19.0643 
255 1 16.9772 14.1237 18.0155 
259 1 14.1237 15.1725 16.2108 
263 1 15.1725 16.2107 14.1237 
267 1 16.9771 19.0643 15.1725 
271 1 14.1237 18.0155 16.9772 
273 1 12.2223 10.4173 18.878 
287 1 18.0155 16.9772 14.1237 
291 1 16.2108 14.1237 15.1725 
295 1 19.0643 15.1725 16.9771 
303 1 18.8779 12.2224 10.4175 
312 1 10.4175 18.8779 12.2224 
ITEM: TIMESTEP
20
ITEM: NUMBER OF ATOMS
323
ITEM: BOX BOUNDS pp pp pp
0.0000000000000000e+00 1.9018000000000001e+01
0.0000000000000000e+00 1.9018000000000001e+01
0.0000000000000000e+00 1.9018000000000001e+01
ITEM: ATOMS id type x y z 
10 1 6.12099 6.12099 0.243561 
22 1 0.241606 6.10122 6.1205 
34 1 6.12102 0.243569 6.12102 
89 1 3.29447 4.99784 1.36645 
90 1 1.94214 4.80566 0.902915 
97 1 4.99827 3.29434 1.36638 
98 1 4.80605 3.7568 2.71925 
105 1 3.29474 1.36623 4.99791 
106 1 3.75891 2.71839 4.80588 
121 1 4.99843 1.36614 3.29427 
122 1 4.80557 0.904103 1.94144 
125 1 8.04897 8.04897 0.243567 
127 1 0.439258 4.22159 4.22521 
130 1 4.23631 0.424485 4.2357 
133 1 0.425206 0.424615 0.424698 
136 1 4.23621 4.23576 0.424669 
157 1 1.37695 3.28416 5.00218 
158 1 0.903284 1.93768 4.80684 
165 1 1.37399 5.00201 3.28732 
166 1 2.72191 4.80758 3.75756 
189 1 0.248809 8.05255 8.05698 
207 1 8.04896 0.243567 8.04896 
277 1 4.80551 1.94151 0.904182 
284 1 3.75806 4.80573 2.71877 
297 1 2.72348 3.75776 4.80703 
306 1 0.90381 4.80667 1.9395 
315 1 1.94256 0.902172 4.80573 
319 1 4.80648 2.71908 3.75663 
11 1 7.47383 5.65883 19.0689 
16 1 4.41735 6.12102 17.5579 
17 1 4.61007 7.47384 18.0201 
25 1 6.12104 4.41736 17.5579 
26 1 5.65883 4.61009 16.2051 
39 1 8.99057 8.99056 18.4995 
42 1 5.17939 5.17937 18.4995 
43 1 1.36671 1.36627 18.6807 
44 1 0.904275 2.71915 18.8731 
45 1 5.17936 8.99063 14.6883 
48 1 8.99063 5.17936 14.6883 
79 1 3.29464 3.29434 18.6805 
80 1 3.75686 1.94153 18.8733 
85 1 3.29467 9.17143 12.803 
86 1 1.94187 9.36417 13.2652 
95 1 9.17146 3.29458 12.803 
96 1 9.36401 3.75674 11.4501 
119 1 9.17155 1.36642 10.8752 
120 1 9.36421 0.904184 12.228 
126 1 6.69615 8.51117 19.0689 
144 1 9.55993 6.69615 18.0201 
148 1 8.51116 9.55992 16.2051 
161 1 1.36712 9.17131 10.8757 
162 1 2.71964 9.36411 10.4129 
179 1 6.121 8.049 13.9264 
180 1 7.47383 8.51116 14.1191 
185 1 4.41736 8.04903 15.63 
186 1 4.61007 6.69619 15.1678 
200 1 5.65883 9.55993 16.9828 
201 1 8.04903 4.41736 15.63 
202 1 8.51118 4.61008 16.9828 
215 1 8.049 6.121 13.9264 
216 1 6.69617 5.65884 14.1191 
220 1 9.55993 7.4738 15.1678 
227 1 2.71956 0.904168 18.8734 
240 1 5.65882 7.47383 19.0689 
242 1 7.47385 4.61008 18.0201 
245 1 4.61008 5.65884 16.2051 
252 1 8.51117 6.69615 19.0689 
254 1 6.69615 9.55993 18.0201 
257 1 9.55992 8.51116 16.2051 
264 1 8.51116 7.47383 14.1191 
266 1 6.6962 4.61007 15.1678 
269 1 9.55993 5.65883 16.9828 
274 1 1.94176 3.75674 18.8729 
279 1 9.36422 1.94176 13.2651 
281 1 3.757 9.36402 11.4502 
288 1 5.65884 6.69617 14.1191 
290 1 7.4738 9.55993 15.1678 
293 1 4.61007 8.51118 16.9828 
307 1 0.904218 9.36411 12.2283 
317 1 9.36416 2.71923 10.413 
4 1 6.12108 17.5579 4.41735 
5 1 7.47388 18.0201 4.61007 
13 1 4.41736 17.5579 6.12106 
14 1 4.61007 16.2051 5.65883 
35 1 5.65882 19.0689 7.47384 
51 1 8.99052 18.4994 8.99052 
54 1 5.17946 18.4994 5.17943 
55 1 1.36672 18.6806 1.36634 
56 1 2.71956 18.8734 0.904175 
57 1 8.99064 14.6883 5.17935 
60 1 5.17936 14.6883 8.99063 
93 1 9.17159 10.8752 1.36658 
94 1 9.36418 10.4129 2.7194 
103 1 3.29467 12.803 9.17143 
104 1 3.75699 11.4502 9.36402 
113 1 3.29482 18.6802 3.29425 
114 1 1.9419 18.8725 3.75659 
117 1 9.17145 12.8029 3.29464 
118 1 9.36422 13.2651 1.9418 
131 1 8.04903 15.63 4.41736 
132 1 6.6962 15.1678 4.61007 
142 1 9.55994 16.9828 5.65882 
149 1 8.049 13.9264 6.121 
150 1 8.51116 14.1191 7.47383 
155 1 1.36702 10.8757 9.17141 
156 1 0.904229 12.2282 9.36412 
184 1 7.47379 15.1678 9.55994 
187 1 4.41736 15.63 8.04903 
188 1 4.61007 16.9828 8.51119 
193 1 6.121 13.9264 8.049 
194 1 5.65884 14.1191 6.69617 
208 1 8.51118 19.0689 6.69615 
212 1 6.69614 18.0201 9.55993 
218 1 9.55992 16.2051 8.51117 
235 1 0.904244 18.873 2.71917 
237 1 5.65882 16.2051 4.61008 
244 1 7.47384 19.0689 5.65882 
246 1 4.61007 18.0201 7.47386 
249 1 8.51119 16.9828 4.61007 
256 1 6.69617 14.1191 5.65884 
258 1 9.55994 15.1678 7.47379 
261 1 8.51117 16.2051 9.55992 
268 1 6.69615 19.0689 8.51118 
270 1 9.55993 18.0201 6.69614 
280 1 9.36424 12.228 0.904266 
285 1 5.65882 16.9828 9.55994 
292 1 7.47383 14.1191 8.51116 
294 1 4.61007 15.1678 6.6962 
299 1 2.7196 10.4129 9.36411 
311 1 3.75693 18.8732 1.94145 
313 1 1.94186 13.2652 9.36417 
318 1 9.36406 11.4501 3.75689 
15 1 0.425665 9.93469 9.93487 
18 1 0.424722 13.7447 13.7447 
19 1 0.243579 17.5579 17.5579 
21 1 4.23613 9.93359 13.7446 
24 1 4.23613 13.7446 9.93359 
40 1 1.36645 12.803 14.5065 
41 1 0.904307 11.4502 14.3139 
49 1 1.36645 14.5065 12.803 
50 1 2.71931 14.3139 13.2651 
76 1 3.29456 10.8752 14.5066 
77 1 3.75685 12.228 14.314 
99 1 4.99822 10.8751 12.803 
100 1 4.80571 10.4128 11.4502 
109 1 3.29456 14.5066 10.8752 
110 1 1.94176 14.3139 10.413 
123 1 4.99822 12.803 10.8751 
124 1 4.80564 13.2653 12.2279 
147 1 8.04897 9.75265 17.5579 
183 1 6.12095 15.6299 9.75266 
191 1 0.243583 15.6299 15.6299 
199 1 6.12096 9.75265 15.6299 
211 1 8.04894 17.5579 9.75266 
225 1 2.71931 13.2651 14.3139 
234 1 0.904309 14.3139 11.4502 
276 1 1.94176 10.413 14.3139 
278 1 4.80564 12.2279 13.2653 
310 1 3.75685 14.314 12.228 
320 1 4.8057 11.4502 10.4128 
1 1 17.5588 6.12583 4.23186 
2 1 16.1722 5.66707 4.6724 
23 1 19.0618 7.47882 5.68014 
28 1 17.5767 4.42051 6.1201 
29 1 18.0184 4.61022 7.48065 
63 1 18.4967 8.99306 8.99607 
66 1 18.523 5.15625 5.1776 
67 1 18.6811 1.36644 1.36639 
68 1 18.8733 0.903048 2.71876 
69 1 14.6859 5.18204 8.99588 
72 1 14.6941 8.98462 5.17082 
87 1 10.8753 9.17161 1.36661 
88 1 12.2281 9.36419 0.90427 
101 1 10.8752 1.3664 9.17154 
102 1 10.4129 2.71919 9.36417 
134 1 15.6251 8.05294 4.40524 
135 1 16.9819 8.51887 4.62243 
139 1 13.9231 8.05196 6.12181 
140 1 14.097 6.69782 5.67292 
146 1 15.1649 9.5618 7.4763 
153 1 12.8025 3.29419 9.1713 
154 1 13.2652 1.94158 9.36415 
163 1 12.8028 9.1717 3.29451 
164 1 11.45 9.36414 3.75696 
173 1 18.6765 3.28717 3.28734 
174 1 18.872 3.75724 1.93948 
182 1 16.2044 8.51152 9.56172 
190 1 19.0706 6.6978 8.51609 
198 1 18.0229 9.57329 6.7024 
203 1 15.6263 4.41239 8.05625 
204 1 15.1492 4.60433 6.71325 
210 1 16.9827 5.65861 9.56168 
223 1 13.9226 6.12322 8.0571 
224 1 14.118 7.47625 8.5134 
231 1 18.8733 2.71882 0.902983 
238 1 18.0113 7.5112 4.6811 
241 1 16.2004 4.62054 5.67697 
248 1 19.0687 5.66016 7.48094 
250 1 15.162 6.69501 4.62144 
253 1 16.9809 9.58351 5.67355 
260 1 14.1172 8.51388 7.47621 
262 1 15.1674 7.47439 9.56171 
265 1 16.981 4.60834 8.51597 
272 1 14.1064 5.65615 6.7021 
282 1 10.4129 9.36419 2.71939 
286 1 18.0203 6.69625 9.5617 
289 1 16.2026 9.56102 8.51348 
296 1 19.0756 8.53135 6.71454 
300 1 11.4499 3.75681 9.36398 
304 1 18.8714 1.93926 3.75749 
308 1 13.2653 9.36402 1.94165 
314 1 12.228 0.904089 9.36418 
321 2 17.6966 6.02621 3.11207 
322 2 16.436 6.43657 1.97345 
323 3 17.1534 6.56061 1.39547 
27 1 9.93372 0.424825 9.93375 
30 1 13.7447 0.424553 13.7447 
31 1 17.5579 0.243577 17.5579 
33 1 13.7437 4.23544 9.93469 
36 1 9.93357 4.23609 13.7446 
37 1 12.803 1.36625 14.5065 
38 1 13.2651 2.71911 14.3139 
64 1 14.5065 1.36623 12.803 
65 1 14.3139 0.904085 11.4502 
73 1 10.8752 3.2945 14.5066 
74 1 10.413 1.9417 14.3138 
91 1 10.8751 4.99819 12.803 
92 1 12.2279 4.8056 13.2654 
143 1 9.75265 8.04897 17.5579 
167 1 12.8022 4.99839 10.8759 
168 1 11.4498 4.80563 10.4127 
171 1 14.5069 3.29401 10.8757 
172 1 14.3141 3.75678 12.2283 
181 1 17.5568 8.04871 9.75535 
205 1 15.6299 0.243579 15.6299 
209 1 15.6302 6.12202 9.75527 
219 1 9.75265 6.12095 15.6299 
226 1 11.4501 0.904191 14.3139 
229 1 14.3139 2.71908 13.2652 
275 1 12.228 3.7567 14.314 
283 1 10.4126 4.80561 11.4502 
302 1 14.3139 1.94148 10.4129 
305 1 13.2653 4.80562 12.2283 
3 1 9.93376 9.93372 0.425001 
6 1 13.7447 13.7447 0.424729 
7 1 17.5579 17.5579 0.243574 
9 1 9.9336 13.7446 4.23612 
12 1 13.7442 9.934 4.23564 
52 1 12.803 14.5065 1.36641 
53 1 11.4502 14.3138 0.904273 
61 1 14.5065 12.803 1.36644 
62 1 14.3139 13.2651 2.71928 
107 1 10.8751 12.8029 4.99819 
108 1 10.4128 11.4501 4.80564 
111 1 10.8752 14.5066 3.29455 
112 1 12.228 14.314 3.75685 
128 1 15.6299 15.6299 0.243581 
141 1 9.75266 15.6299 6.12095 
145 1 15.6264 9.75612 6.12189 
159 1 12.8032 10.8749 4.9985 
160 1 13.2653 12.2279 4.80573 
169 1 14.5064 10.8753 3.29442 
170 1 14.314 10.4128 1.94159 
197 1 17.5556 9.75656 8.05725 
217 1 9.75266 17.5579 8.04894 
230 1 14.3139 11.4501 0.904271 
233 1 13.2651 14.3139 2.71929 
298 1 11.4502 10.4128 4.80574 
301 1 14.3139 12.2281 3.75692 
309 1 10.413 14.3138 1.94174 
316 1 12.228 13.2652 4.80562 
8 1 16.2051 18.0201 19.0689 
20 1 19.0689 16.2051 18.0201 
32 1 18.0201 19.0689 16.2051 
46 1 12.8031 12.8031 18.6807 
47 1 13.2653 11.4502 18.8734 
58 1 12.8031 18.6805 12.8031 
59 1 11.4502 18.8733 13.2653 
70 1 18.6806 12.8032 12.8032 
71 1 18.8733 13.2654 11.4503 
75 1 14.6882 14.6882 18.4997 
78 1 18.4995 18.4995 18.4995 
81 1 18.4997 14.6882 14.6882 
82 1 10.8752 10.8752 18.6807 
83 1 10.4129 12.228 18.8734 
84 1 14.6883 18.4996 14.6883 
115 1 10.8752 18.6805 10.8752 
116 1 12.228 18.8733 10.4129 
129 1 16.9827 15.1678 19.0689 
137 1 13.9264 15.6299 17.558 
138 1 14.1191 16.9828 18.0201 
151 1 15.6299 13.9263 17.558 
152 1 15.1678 14.1191 16.2052 
175 1 18.6804 10.876 10.876 
176 1 18.8733 10.4128 12.2284 
177 1 17.558 15.6299 13.9264 
178 1 16.2052 15.1678 14.1191 
192 1 19.0689 16.9827 15.1678 
195 1 17.558 13.9264 15.6299 
196 1 18.0201 14.1191 16.9828 
206 1 15.1678 19.0689 16.9828 
213 1 15.6299 17.558 13.9264 
214 1 16.9828 18.0201 14.1191 
221 1 13.9264 17.558 15.6299 
222 1 14.1191 16.2051 15.1678 
228 1 11.4503 13.2652 18.8734 
232 1 18.8733 11.4503 13.2654 
236 1 13.2652 18.8732 11.4503 
239 1 18.0201 16.2051 19.0689 
243 1 16.2051 19.0689 18.0201 
247 1 19.0689 18.0201 16.2051 
251 1 15.1678 16.9827 19.0689 
255 1 16.9828 14.1191 18.0201 
259 1 14.1191 15.1678 16.2052 
263 1 15.1678 16.2051 14.1191 
267 1 16.9827 19.0689 15.1678 
271 1 14.1191 18.0201 16.9828 
273 1 12.228 10.4128 18.8734 
287 1 18.0201 16.9828 14.1191 
291 1 16.2052 14.1191 15.1678 
295 1 19.0689 15.1678 16.9827 
303 1 18.8733 12.2284 10.4128 
312 1 10.4129 18.8733 12.228 
ITEM: TIMESTEP
30
ITEM: NUMBER OF ATOMS
323
ITEM: BOX BOUNDS pp pp pp
0.0000000000000000e+00 1.9018000000000001e+01
0.0000000000000000e+00 1.9018000000000001e+01
0.0000000000000000e+00 1.9018000000000001e+01
ITEM: ATOMS id type x y z 
10 1 6.12378 6.12378 0.237923 
22 1 0.227761 6.10302 6.12489 
34 1 6.12383 0.237923 6.12382 
89 1 3.29165 4.99236 1.36918 
90 1 1.94005 4.80796 0.90003 
97 1 4.99289 3.2913 1.3689 
98 1 4.80868 3.75908 2.7211 
105 1 3.29216 1.36881 4.99236 
106 1 3.76238 2.72006 4.80813 
121 1 4.99322 1.36867 3.29109 
122 1 4.80795 0.901793 1.93915 
125 1 8.04614 8.04614 0.237922 
127 1 0.443826 4.217 4.22301 
130 1 4.23591 0.424959 4.23457 
133 1 0.426192 0.425238 0.425189 
136 1 4.23565 4.23478 0.425171 
157 1 1.3829 3.27815 4.99761 
158 1 0.901395 1.93403 4.80995 
165 1 1.37936 4.99538 3.28271 
166 1 2.72534 4.81018 3.75996 
189 1 0.244225 8.05151 8.05862 
207 1 8.04614 0.237907 8.04615 
277 1 4.80786 1.93932 0.901869 
284 1 3.76108 4.80802 2.72068 
297 1 2.72706 3.75961 4.81012 
306 1 0.901857 4.8093 1.93687 
315 1 1.94091 0.89867 4.808 
319 1 4.80942 2.72099 3.75873 
11 1 7.47599 5.65663 19.0711 
16 1 4.423 6.1238 17.5552 
17 1 4.60785 7.476 18.0223 
25 1 6.12383 4.42302 17.5551 
26 1 5.65664 4.60789 16.2029 
39 1 8.98973 8.98972 18.4987 