ITEM: TIMESTEP
0
ITEM: NUMBER OF ATOMS
57
ITEM: BOX BOUNDS pp pp pp
0.0000000000000000e+00 3.2808000000000000e+01
0.0000000000000000e+00 1.7780000000000001e+01
0.0000000000000000e+00 2.4729999999999999e+00
ITEM: ATOMS id type x y z 
13 1 7.043 0.849 2.464 
29 1 7.397 1.432 1.228 
37 1 8.035 2.733 1.228 
57 2 3.973 0.968 1.228 
1 1 6.173 17.398 2.464 
5 1 5.371 17.398 1.228 
9 1 3.973 17.398 1.228 
16 1 7.043 16.167 2.464 
32 1 7.397 15.584 1.228 
40 1 8.035 14.283 1.228 
45 1 3.236 17.398 2.464 
49 1 1.81 17.398 2.464 
53 1 1.083 17.398 1.228 
4 1 10.968 8.508 2.464 
8 1 11.771 8.508 1.228 
12 1 13.168 8.508 1.228 
18 1 10.098 7.277 2.464 
21 1 8.308 3.392 2.464 
26 1 8.833 4.734 2.464 
34 1 9.745 6.694 1.228 
42 1 9.106 5.393 1.228 
48 1 13.906 8.508 2.464 
52 1 15.331 8.508 2.464 
56 1 16.058 8.508 1.228 
19 1 10.098 9.739 2.464 
24 1 8.308 13.624 2.464 
27 1 8.833 12.282 2.464 
35 1 9.745 10.322 1.228 
43 1 9.106 11.623 1.228 
3 1 22.577 8.508 2.464 
7 1 21.775 8.508 1.228 
11 1 20.377 8.508 1.228 
20 1 23.447 7.277 2.464 
36 1 23.801 6.694 1.228 
44 1 24.439 5.393 1.228 
47 1 19.64 8.508 2.464 
51 1 18.214 8.508 2.464 
55 1 17.487 8.508 1.228 
17 1 23.447 9.739 2.464 
33 1 23.801 10.322 1.228 
41 1 24.439 11.623 1.228 
15 1 26.502 0.849 2.464 
23 1 25.237 3.392 2.464 
28 1 24.712 4.734 2.464 
31 1 26.149 1.432 1.228 
39 1 25.511 2.733 1.228 
2 1 27.373 17.398 2.464 
6 1 28.175 17.398 1.228 
10 1 29.572 17.398 1.228 
14 1 26.502 16.167 2.464 
22 1 25.237 13.624 2.464 
25 1 24.712 12.282 2.464 
30 1 26.149 15.584 1.228 
38 1 25.511 14.283 1.228 
46 1 30.31 17.398 2.464 
50 1 31.735 17.398 2.464 
54 1 32.462 17.398 1.228 
ITEM: TIMESTEP
10
ITEM: NUMBER OF ATOMS
57
ITEM: BOX BOUNDS pp pp pp
0.0000000000000000e+00 3.2808000000000000e+01
0.0000000000000000e+00 1.7780000000000001e+01
0.0000000000000000e+00 2.4729999999999999e+00
ITEM: ATOMS id type x y z 
13 1 7.06192 0.852312 2.46433 
29 1 7.40534 1.43873 1.22769 
37 1 8.03909 2.73703 1.22767 
57 2 4.03039 1.07433 1.22788 
1 1 6.19668 17.3964 2.4643 
5 1 5.37426 17.4008 1.22766 
9 1 3.93872 17.4306 1.22772 
16 1 7.06408 16.1643 2.46433 
32 1 7.40734 15.5762 1.22769 
40 1 8.03991 14.2787 1.22767 
45 1 3.20424 17.2673 2.46439 
49 1 1.78859 17.3945 2.46435 
53 1 1.06373 17.3998 1.22767 
4 1 10.976 8.50689 2.46433 
8 1 11.7752 8.50782 1.22766 
12 1 13.1718 8.508 1.22768 
18 1 10.0986 7.27964 2.46433 
21 1 8.3125 3.402 2.46433 
26 1 8.83447 4.73844 2.46432 
34 1 9.7451 6.69768 1.22768 
42 1 9.10913 5.40233 1.22767 
48 1 13.9071 8.508 2.46434 
52 1 15.3337 8.508 2.46433 
56 1 16.0587 8.508 1.22767 
19 1 10.0988 9.7355 2.46433 
24 1 8.31341 13.6123 2.46433 
27 1 8.83473 12.2766 2.46432 
35 1 9.74548 10.3171 1.22768 
43 1 9.10954 11.6121 1.22767 
3 1 22.5767 8.508 2.46433 
7 1 21.7748 8.508 1.22766 
11 1 20.3774 8.508 1.22768 
20 1 23.4469 7.27676 2.46433 
36 1 23.8006 6.69411 1.22768 
44 1 24.4381 5.39324 1.22767 
47 1 19.64 8.508 2.46433 
51 1 18.2142 8.508 2.46433 
55 1 17.4879 8.508 1.22767 
17 1 23.4469 9.73924 2.46433 
33 1 23.8006 10.3219 1.22768 
41 1 24.4381 11.6228 1.22767 
15 1 26.4994 0.85072 2.46433 
23 1 25.2369 3.39392 2.46433 
28 1 24.7115 4.73405 2.46433 
31 1 26.1471 1.43483 1.22768 
39 1 25.5107 2.73447 1.22767 
2 1 27.3618 17.398 2.46433 
6 1 28.1693 17.398 1.22766 
10 1 29.5602 17.398 1.22768 
14 1 26.4994 16.1653 2.46433 
22 1 25.2369 13.6221 2.46433 
25 1 24.7115 12.2819 2.46433 
30 1 26.1471 15.5812 1.22768 
38 1 25.5107 14.2815 1.22767 
46 1 30.2948 17.398 2.46433 
50 1 31.7211 17.398 2.46433 
54 1 32.4447 17.3986 1.22767 
ITEM: TIMESTEP
20
ITEM: NUMBER OF ATOMS
57
ITEM: BOX BOUNDS pp pp pp
0.0000000000000000e+00 3.2808000000000000e+01
0.0000000000000000e+00 1.7780000000000001e+01
0.0000000000000000e+00 2.4729999999999999e+00
ITEM: ATOMS id type x y z 
13 1 7.06595 0.846515 2.46426 
29 1 7.4082 1.43544 1.22775 
37 1 8.04056 2.73744 1.22775 
57 2 4.06173 1.11069 1.22787 
1 1 6.19733 17.3943 2.46424 
5 1 5.3884 17.4052 1.22775 
9 1 3.93791 17.4604 1.2278 
16 1 7.0685 16.1696 2.46426 
32 1 7.41109 15.5796 1.22775 
40 1 8.04188 14.2781 1.22775 
45 1 3.19573 17.2099 2.4643 
49 1 1.79466 17.3812 2.46427 
53 1 1.06334 17.4038 1.22776 
4 1 10.9776 8.50679 2.46424 
8 1 11.7774 8.50753 1.22775 
12 1 13.1723 8.50801 1.22775 
18 1 10.0984 7.28207 2.46425 
21 1 8.31271 3.40126 2.46425 
26 1 8.83422 4.73937 2.46425 
34 1 9.74455 6.70231 1.22775 
42 1 9.10782 5.40402 1.22775 
48 1 13.909 8.50801 2.46425 
52 1 15.3363 8.508 2.46425 
56 1 16.061 8.508 1.22775 
19 1 10.0989 9.73221 2.46425 
24 1 8.31361 13.6135 2.46425 
27 1 8.83449 12.2754 2.46425 
35 1 9.74547 10.3112 1.22775 
43 1 9.10845 11.6094 1.22775 
3 1 22.5754 8.508 2.46424 
7 1 21.7731 8.508 1.22775 
11 1 20.3772 8.508 1.22775 
20 1 23.4479 7.27852 2.46426 
36 1 23.8013 6.69573 1.22775 
44 1 24.4373 5.39732 1.22775 
47 1 19.6415 8.508 2.46425 
51 1 18.2152 8.508 2.46425 
55 1 17.4903 8.508 1.22775 
17 1 23.4479 9.73748 2.46426 
33 1 23.8013 10.3203 1.22775 
41 1 24.4373 11.6187 1.22775 
15 1 26.4913 0.852182 2.46425 
23 1 25.2347 3.39872 2.46425 
28 1 24.7107 4.73651 2.46425 
31 1 26.1422 1.43765 1.22775 
39 1 25.5079 2.73678 1.22775 
2 1 27.3559 17.398 2.46424 
6 1 28.1595 17.398 1.22775 
10 1 29.5547 17.398 1.22775 
14 1 26.4913 16.1638 2.46425 
22 1 25.2347 13.6173 2.46425 
25 1 24.7107 12.2795 2.46425 
30 1 26.1422 15.5784 1.22775 
38 1 25.5079 14.2792 1.22775 
46 1 30.2968 17.3979 2.46425 
50 1 31.7155 17.3981 2.46425 
54 1 32.4348 17.4007 1.22775 
ITEM: TIMESTEP
30
ITEM: NUMBER OF ATOMS
57
ITEM: BOX BOUNDS pp pp pp
0.0000000000000000e+00 3.2808000000000000e+01
0.0000000000000000e+00 1.7780000000000001e+01
0.0000000000000000e+00 2.4729999999999999e+00
ITEM: ATOMS id type x y z 
13 1 7.06553 0.83387 2.46424 
29 1 7.41427 1.42808 1.22776 
37 1 8.03739 2.73221 1.22776 
57 2 4.14592 1.13308 1.22783 
1 1 6.19053 17.3911 2.46427 
5 1 5.37184 17.4391 1.22777 
9 1 3.91183 17.4892 1.22779 
16 1 7.06368 16.1796 2.46424 
32 1 7.41859 15.5869 1.22776 
40 1 8.03966 14.2837 1.22776 
45 1 3.19881 17.1824 2.46428 
49 1 1.79661 17.3245 2.46427 
53 1 1.07053 17.4034 1.22777 
4 1 10.9706 8.50603 2.46426 
8 1 11.7717 8.50658 1.22775 
12 1 13.1685 8.50795 1.22775 
18 1 10.0951 7.28022 2.46424 
21 1 8.30916 3.39233 2.46425 
26 1 8.8323 4.73763 2.46424 
34 1 9.73757 6.69984 1.22776 
42 1 9.1015 5.39525 1.22776 
48 1 13.9064 8.50808 2.46425 
52 1 15.3302 8.50803 2.46425 
56 1 16.0581 8.508 1.22776 
19 1 10.0956 9.73279 2.46424 
24 1 8.31084 13.6218 2.46425 
27 1 8.83266 12.2765 2.46425 
35 1 9.73828 10.3133 1.22776 
43 1 9.10218 11.6176 1.22776 
3 1 22.5773 8.508 2.46426 
7 1 21.7727 8.508 1.22774 
11 1 20.378 8.508 1.22775 
20 1 23.454 7.28297 2.46424 
36 1 23.808 6.69913 1.22776 
44 1 24.4423 5.3974 1.22776 
47 1 19.6423 8.508 2.46425 
51 1 18.2133 8.508 2.46425 
55 1 17.4865 8.508 1.22776 
17 1 23.454 9.73303 2.46424 
33 1 23.808 10.3169 1.22776 
41 1 24.4423 11.6186 1.22776 
15 1 26.4844 0.845606 2.46424 
23 1 25.2348 3.3953 2.46424 
28 1 24.7122 4.73661 2.46424 
31 1 26.1357 1.43078 1.22775 
39 1 25.5048 2.73504 1.22776 
2 1 27.3588 17.398 2.46426 
6 1 28.16 17.398 1.22775 
10 1 29.5559 17.3978 1.22775 
14 1 26.4844 16.1704 2.46424 
22 1 25.2348 13.6207 2.46424 
25 1 24.7122 12.2794 2.46424 
30 1 26.1357 15.5852 1.22775 
38 1 25.5048 14.281 1.22776 
46 1 30.299 17.3975 2.46425 
50 1 31.7178 17.4002 2.46425 
54 1 32.4441 17.4095 1.22776 
ITEM: TIMESTEP
40
ITEM: NUMBER OF ATOMS
57
ITEM: BOX BOUNDS pp pp pp
0.0000000000000000e+00 3.2808000000000000e+01
0.0000000000000000e+00 1.7780000000000001e+01
0.0000000000000000e+00 2.4729999999999999e+00
ITEM: ATOMS id type x y z 
13 1 7.15321 0.836176 2.46431 
29 1 7.45974 1.44046 1.22776 
37 1 8.05708 2.75079 1.22772 
57 2 4.45149 1.04378 1.22773 
1 1 6.25413 17.4122 2.46423 
5 1 5.38735 17.5217 1.22776 
9 1 3.88178 17.4935 1.22777 
16 1 7.03929 16.1443 2.46431 
32 1 7.41501 15.5757 1.22776 
40 1 8.05043 14.2835 1.22772 
45 1 3.13498 17.258 2.46428 
49 1 1.74357 17.2066 2.46428 
53 1 1.0225 17.2676 1.22776 
4 1 10.9703 8.51695 2.46422 
8 1 11.7709 8.50998 1.22777 
12 1 13.1659 8.50682 1.22774 
18 1 10.0939 7.28252 2.46428 
21 1 8.31335 3.4224 2.46428 
26 1 8.8336 4.75321 2.46428 
34 1 9.75032 6.70512 1.22773 
42 1 9.11307 5.41769 1.22773 
48 1 13.8979 8.50815 2.46426 
52 1 15.3264 8.50833 2.46427 
56 1 16.0493 8.50809 1.22773 
19 1 10.0883 9.7475 2.46428 
24 1 8.30925 13.6111 2.46428 
27 1 8.82943 12.2783 2.46427 
35 1 9.74282 10.328 1.22773 
43 1 9.10948 11.6152 1.22773 
3 1 22.5647 8.508 2.46421 
7 1 21.7714 8.508 1.22778 
11 1 20.3674 8.508 1.22774 
20 1 23.4409 7.27587 2.46428 
36 1 23.8108 6.71225 1.22773 
44 1 24.4411 5.40004 1.22772 
47 1 19.6289 8.508 2.46426 
51 1 18.2078 8.50799 2.46427 
55 1 17.4863 8.50798 1.22773 
17 1 23.4409 9.74013 2.46428 
33 1 23.8108 10.3037 1.22773 
41 1 24.4411 11.616 1.22772 
15 1 26.4836 0.858197 2.46427 
23 1 25.2274 3.40584 2.46428 
28 1 24.7157 4.74531 2.46428 
31 1 26.1101 1.43449 1.22773 
39 1 25.4987 2.73794 1.22772 
2 1 27.3244 17.3981 2.46422 
6 1 28.147 17.3974 1.22778 
10 1 29.5296 17.3947 1.22775 
14 1 26.4836 16.1578 2.46427 
22 1 25.2274 13.6102 2.46428 
25 1 24.7157 12.2707 2.46428 
30 1 26.1101 15.5815 1.22773 
38 1 25.4987 14.278 1.22772 
46 1 30.2564 17.3989 2.46427 
50 1 31.6905 17.4353 2.46429 
54 1 32.3979 17.442 1.22776 
ITEM: TIMESTEP
50
ITEM: NUMBER OF ATOMS
57
ITEM: BOX BOUNDS pp pp pp
0.0000000000000000e+00 3.2808000000000000e+01
0.0000000000000000e+00 1.7780000000000001e+01
0.0000000000000000e+00 2.4729999999999999e+00
ITEM: ATOMS id type x y z 
13 1 7.21578 0.804594 2.46428 
29 1 7.49714 1.43769 1.22779 
37 1 8.071 2.75499 1.22776 
57 2 4.57848 1.00246 1.22769 
1 1 6.2861 17.4248 2.46425 
5 1 5.36984 17.545 1.22774 
9 1 3.82791 17.5378 1.22777 
16 1 7.0233 16.1503 2.46428 
32 1 7.41914 15.5719 1.22779 
40 1 8.06318 14.2874 1.22776 
45 1 3.13092 17.2714 2.46427 
49 1 1.71929 17.1411 2.46427 
53 1 0.996188 17.2013 1.22777 
4 1 10.983 8.52447 2.46425 
8 1 11.788 8.51692 1.22774 
12 1 13.1764 8.50619 1.22775 
18 1 10.094 7.30549 2.46425 
21 1 8.31532 3.43435 2.46425 
26 1 8.83144 4.76687 2.46425 
34 1 9.74875 6.71981 1.22775 
42 1 9.10897 5.43267 1.22775 
48 1 13.9074 8.50768 2.46425 
52 1 15.3381 8.50842 2.46425 
56 1 16.0537 8.50818 1.22775 
19 1 10.0873 9.73669 2.46425 
24 1 8.3112 13.6104 2.46425 
27 1 8.82527 12.2765 2.46425 
35 1 9.73835 10.3224 1.22775 
43 1 9.10338 11.6108 1.22775 
3 1 22.5646 8.50797 2.46425 
7 1 21.7583 8.50799 1.22774 
11 1 20.3684 8.508 1.22775 
20 1 23.4398 7.28322 2.46425 
36 1 23.8132 6.71285 1.22775 
44 1 24.4416 5.4154 1.22775 
47 1 19.636 8.508 2.46425 
51 1 18.2057 8.50798 2.46425 
55 1 17.4857 8.50797 1.22775 
17 1 23.4398 9.73275 2.46425 
33 1 23.8132 10.3031 1.22775 
41 1 24.4416 11.6005 1.22775 
15 1 26.4616 0.861048 2.46425 
23 1 25.2243 3.40979 2.46425 
28 1 24.7161 4.75185 2.46425 
31 1 26.0983 1.43691 1.22775 
39 1 25.4869 2.74398 1.22775 
2 1 27.3098 17.3981 2.46425 
6 1 28.1202 17.3966 1.22775 
10 1 29.5098 17.392 1.22776 
14 1 26.4613 16.155 2.46425 
22 1 25.2242 13.6062 2.46425 
25 1 24.7161 12.2641 2.46425 
30 1 26.0982 15.5791 1.22775 
38 1 25.4869 14.272 1.22775 
46 1 30.243 17.4025 2.46426 
50 1 31.6739 17.4605 2.46428 
54 1 32.3964 17.4519 1.22778 
ITEM: TIMESTEP
60
ITEM: NUMBER OF ATOMS
57
ITEM: BOX BOUNDS pp pp pp
0.0000000000000000e+00 3.2808000000000000e+01
0.0000000000000000e+00 1.7780000000000001e+01
0.0000000000000000e+00 2.4729999999999999e+00
ITEM: ATOMS id type x y z 
13 1 7.22112 0.795983 2.46428 
29 1 7.50793 1.43034 1.22778 
37 1 8.07268 2.75514 1.22776 
57 2 4.58612 1.00928 1.2277 
1 1 6.28481 17.4262 2.46425 
5 1 5.37201 17.5483 1.22775 
9 1 3.81722 17.5486 1.22776 
16 1 7.02664 16.1555 2.46428 
32 1 7.41756 15.5748 1.22778 
40 1 8.06463 14.2888 1.22776 
45 1 3.13058 17.2573 2.46426 
49 1 1.71792 17.1338 2.46427 
53 1 0.992171 17.1995 1.22777 
4 1 10.983 8.52515 2.46425 
8 1 11.7872 8.51959 1.22775 
12 1 13.1755 8.50624 1.22775 
18 1 10.0919 7.30853 2.46425 
21 1 8.31506 3.43046 2.46425 
26 1 8.82911 4.76845 2.46425 
34 1 9.74293 6.7237 1.22775 
42 1 9.10319 5.43166 1.22775 
48 1 13.9078 8.50723 2.46425 
52 1 15.338 8.50835 2.46425 
56 1 16.0574 8.50822 1.22775 
19 1 10.0862 9.73502 2.46425 
24 1 8.3132 13.6149 2.46425 
27 1 8.8239 12.2755 2.46425 
35 1 9.73343 10.3179 1.22775 
43 1 9.09736 11.6121 1.22775 
3 1 22.5663 8.50794 2.46425 
7 1 21.7601 8.50798 1.22775 
11 1 20.371 8.508 1.22775 
20 1 23.4459 7.28588 2.46425 
36 1 23.8147 6.71317 1.22775 
44 1 24.4465 5.41621 1.22775 
47 1 19.6389 8.508 2.46425 
51 1 18.2089 8.50797 2.46425 
55 1 17.49 8.50798 1.22775 
17 1 23.4459 9.73005 2.46425 
33 1 23.8146 10.3027 1.22775 
41 1 24.4465 11.5997 1.22775 
15 1 26.4531 0.855185 2.46425 
23 1 25.2234 3.41012 2.46425 
28 1 24.7169 4.75141 2.46425 
31 1 26.0979 1.43517 1.22775 
39 1 25.4838 2.74183 1.22775 
2 1 27.3125 17.3981 2.46425 
6 1 28.118 17.3961 1.22775 
10 1 29.5106 17.3917 1.22776 
14 1 26.4526 16.1609 2.46425 
22 1 25.2234 13.6058 2.46425 
25 1 24.7169 12.2645 2.46425 
30 1 26.0977 15.5808 1.22775 
38 1 25.4837 14.2741 1.22775 
46 1 30.2442 17.4056 2.46426 
50 1 31.6704 17.465 2.46428 
54 1 32.3932 17.4476 1.22778 
ITEM: TIMESTEP
70
ITEM: NUMBER OF ATOMS
57
ITEM: BOX BOUNDS pp pp pp
0.0000000000000000e+00 3.2808000000000000e+01
0.0000000000000000e+00 1.7780000000000001e+01
0.0000000000000000e+00 2.4729999999999999e+00
ITEM: ATOMS id type x y z 
13 1 7.22975 0.790859 2.46427 
29 1 7.53206 1.41933 1.22777 
37 1 8.07511 2.75357 1.22776 
57 2 4.6005 1.01147 1.22772 
1 1 6.28407 17.429 2.46426 
5 1 5.36984 17.5595 1.22776 
9 1 3.80019 17.5644 1.22776 
16 1 7.03176 16.1619 2.46427 
32 1 7.41631 15.5747 1.22777 
40 1 8.06532 14.2905 1.22776 
45 1 3.13355 17.2415 2.46426 
49 1 1.71675 17.1203 2.46427 
53 1 0.99172 17.1947 1.22777 
4 1 10.9798 8.5249 2.46425 
8 1 11.7815 8.52295 1.22775 
12 1 13.1744 8.50675 1.22775 
18 1 10.0884 7.30758 2.46425 
21 1 8.31689 3.42853 2.46426 
26 1 8.82398 4.76973 2.46425 
34 1 9.73199 6.72905 1.22775 
42 1 9.09523 5.43404 1.22775 
48 1 13.9076 8.50621 2.46425 
52 1 15.3358 8.50807 2.46425 
56 1 16.0584 8.50829 1.22775 
19 1 10.0834 9.73717 2.46425 
24 1 8.31967 13.6188 2.46426 
27 1 8.82093 12.2758 2.46425 
35 1 9.72309 10.3138 1.22775 
43 1 9.08885 11.6099 1.22775 
3 1 22.5689 8.50786 2.46425 
7 1 21.7668 8.50794 1.22775 
11 1 20.3738 8.508 1.22775 
20 1 23.4565 7.28893 2.46425 
36 1 23.8204 6.71438 1.22775 
44 1 24.4555 5.4172 1.22775 
47 1 19.6393 8.50799 2.46425 
51 1 18.2118 8.50796 2.46425 
55 1 17.4899 8.50801 1.22775 
17 1 23.4565 9.72688 2.46425 
33 1 23.8203 10.3014 1.22775 
41 1 24.4555 11.5986 1.22775 
15 1 26.4409 0.845554 2.46425 
23 1 25.222 3.40742 2.46425 
28 1 24.7199 4.75077 2.46425 
31 1 26.0934 1.43131 1.22775 
39 1 25.4788 2.73743 1.22775 
2 1 27.3131 17.398 2.46425 
6 1 28.1182 17.3949 1.22775 
10 1 29.5093 17.3916 1.22776 
14 1 26.4398 16.1707 2.46425 
22 1 25.2219 13.6083 2.46425 
25 1 24.7198 12.265 2.46425 
30 1 26.0929 15.5846 1.22775 
38 1 25.4787 14.2783 1.22775 
46 1 30.2428 17.4126 2.46426 
50 1 31.6694 17.4727 2.46427 
54 1 32.3911 17.4383 1.22777 
ITEM: TIMESTEP
80
ITEM: NUMBER OF ATOMS
57
ITEM: BOX BOUNDS pp pp pp
0.0000000000000000e+00 3.2808000000000000e+01
0.0000000000000000e+00 1.7780000000000001e+01
0.0000000000000000e+00 2.4729999999999999e+00
ITEM: ATOMS id type x y z 
13 1 7.23421 0.788083 2.46427 
29 1 7.54554 1.41174 1.22777 
37 1 8.07889 2.75255 1.22776 
57 2 4.60241 1.01181 1.22772 
1 1 6.2801 17.4318 2.46426 
5 1 5.36953 17.5585 1.22776 
9 1 3.79796 17.5725 1.22776 
16 1 7.03216 16.1643 2.46427 
32 1 7.41414 15.5773 1.22777 
40 1 8.06574 14.2909 1.22776 
45 1 3.13051 17.24 2.46426 
49 1 1.71931 17.1133 2.46427 
53 1 0.993559 17.1905 1.22777 
4 1 10.9796 8.52503 2.46425 
8 1 11.7843 8.52389 1.22775 
12 1 13.1762 8.50729 1.22775 
18 1 10.088 7.30988 2.46425 
21 1 8.3173 3.42702 2.46426 
26 1 8.82099 4.77195 2.46425 
34 1 9.72647 6.73253 1.22775 
42 1 9.08984 5.43592 1.22775 
48 1 13.9096 8.50563 2.46425 
52 1 15.3377 8.50776 2.46425 
56 1 16.058 8.50832 1.22775 
19 1 10.0829 9.73533 2.46425 
24 1 8.32257 13.6231 2.46426 
27 1 8.8195 12.2753 2.46425 
35 1 9.71776 10.3113 1.22775 
43 1 9.08308 11.6091 1.22775 
3 1 22.5702 8.50777 2.46425 
7 1 21.7658 8.50789 1.22775 
11 1 20.3743 8.508 1.22775 
20 1 23.4592 7.29156 2.46425 
36 1 23.8245 6.71536 1.22775 
44 1 24.4592 5.41941 1.22775 
47 1 19.6411 8.50799 2.46425 
51 1 18.2111 8.50796 2.46425 
55 1 17.4894 8.50805 1.22775 
17 1 23.4591 9.72412 2.46425 
33 1 23.8244 10.3003 1.22775 
41 1 24.4591 11.5962 1.22775 
15 1 26.4352 0.843567 2.46425 
23 1 25.2207 3.40526 2.46425 
28 1 24.7215 4.75295 2.46425 
31 1 26.0879 1.42947 1.22775 
39 1 25.4753 2.73728 1.22775 
2 1 27.3118 17.3979 2.46426 
6 1 28.1156 17.394 1.22775 
10 1 29.5093 17.3925 1.22776 
14 1 26.4335 16.1728 2.46425 
22 1 25.2205 13.6103 2.46425 
25 1 24.7214 12.2627 2.46425 
30 1 26.0871 15.5864 1.22775 
38 1 25.475 14.2783 1.22775 
46 1 30.2448 17.4177 2.46426 
50 1 31.6724 17.4755 2.46427 
54 1 32.3967 17.4321 1.22777 
ITEM: TIMESTEP
81
ITEM: NUMBER OF ATOMS
57
ITEM: BOX BOUNDS pp pp pp
0.0000000000000000e+00 3.2808000000000000e+01
0.0000000000000000e+00 1.7780000000000001e+01
0.0000000000000000e+00 2.4729999999999999e+00
ITEM: ATOMS id type x y z 
13 1 7.23421 0.788083 2.46427 
29 1 7.54554 1.41174 1.22777 
37 1 8.07889 2.75255 1.22776 
57 2 4.60241 1.01181 1.22772 
1 1 6.2801 17.4318 2.46426 
5 1 5.36953 17.5585 1.22776 
9 1 3.79796 17.5725 1.22776 
16 1 7.03216 16.1643 2.46427 
32 1 7.41414 15.5773 1.22777 
40 1 8.06574 14.2909 1.22776 
45 1 3.13051 17.24 2.46426 
49 1 1.71931 17.1133 2.46427 
53 1 0.993559 17.1905 1.22777 
4 1 10.9796 8.52503 2.46425 
8 1 11.7843 8.52389 1.22775 
12 1 13.1762 8.50729 1.22775 
18 1 10.088 7.30988 2.46425 
21 1 8.3173 3.42702 2.46426 
26 1 8.82099 4.77195 2.46425 
34 1 9.72647 6.73253 1.22775 
42 1 9.08984 5.43592 1.22775 
48 1 13.9096 8.50563 2.46425 
52 1 15.3377 8.50776 2.46425 
56 1 16.058 8.50832 1.22775 
19 1 10.0829 9.73533 2.46425 
24 1 8.32257 13.6231 2.46426 
27 1 8.8195 12.2753 2.46425 
35 1 9.71776 10.3113 1.22775 
43 1 9.08308 11.6091 1.22775 
3 1 22.5702 8.50777 2.46425 
7 1 21.7658 8.50789 1.22775 
11 1 20.3743 8.508 1.22775 
20 1 23.4592 7.29156 2.46425 
36 1 23.8245 6.71536 1.22775 
44 1 24.4592 5.41941 1.22775 
47 1 19.6411 8.50799 2.46425 
51 1 18.2111 8.50796 2.46425 
55 1 17.4894 8.50805 1.22775 
17 1 23.4591 9.72412 2.46425 
33 1 23.8244 10.3003 1.22775 
41 1 24.4591 11.5962 1.22775 
15 1 26.4352 0.843567 2.46425 
23 1 25.2207 3.40526 2.46425 
28 1 24.7215 4.75295 2.46425 
31 1 26.0879 1.42947 1.22775 
39 1 25.4753 2.73728 1.22775 
2 1 27.3118 17.3979 2.46426 
6 1 28.1156 17.394 1.22775 
10 1 29.5093 17.3925 1.22776 
14 1 26.4335 16.1728 2.46425 
22 1 25.2205 13.6103 2.46425 
25 1 24.7214 12.2627 2.46425 
30 1 26.0871 15.5864 1.22775 
38 1 25.475 14.2783 1.22775 
46 1 30.2448 17.4177 2.46426 
50 1 31.6724 17.4755 2.46427 
54 1 32.3967 17.4321 1.22777 
ITEM: TIMESTEP
82
ITEM: NUMBER OF ATOMS
57
ITEM: BOX BOUNDS pp pp pp
0.0000000000000000e+00 3.2808000000000000e+01
0.0000000000000000e+00 1.7780000000000001e+01
0.0000000000000000e+00 2.4729999999999999e+00
ITEM: ATOMS id type x y z 
13 1 7.23421 0.788083 2.46427 
29 1 7.54554 1.41174 1.22777 
37 1 8.07889 2.75255 1.22776 
57 2 4.60241 1.01181 1.22772 
1 1 6.2801 17.4318 2.46426 
5 1 5.36953 17.5585 1.22776 
9 1 3.79796 17.5725 1.22776 
16 1 7.03216 16.1643 2.46427 
32 1 7.41414 15.5773 1.22777 
40 1 8.06574 14.2909 1.22776 
45 1 3.13051 17.24 2.46426 
49 1 1.71931 17.1133 2.46427 
53 1 0.993559 17.1905 1.22777 
4 1 10.9796 8.52503 2.46425 
8 1 11.7843 8.52389 1.22775 
12 1 13.1762 8.50729 1.22775 
18 1 10.088 7.30988 2.46425 
21 1 8.3173 3.42702 2.46426 
26 1 8.82099 4.77195 2.46425 
34 1 9.72647 6.73253 1.22775 
42 1 9.08984 5.43592 1.22775 
48 1 13.9096 8.50563 2.46425 
52 1 15.3377 8.50776 2.46425 
56 1 16.058 8.50832 1.22775 
19 1 10.0829 9.73533 2.46425 
24 1 8.32257 13.6231 2.46426 
27 1 8.8195 12.2753 2.46425 
35 1 9.71776 10.3113 1.22775 
43 1 9.08308 11.6091 1.22775 
3 1 22.5702 8.50777 2.46425 
7 1 21.7658 8.50789 1.22775 
11 1 20.3743 8.508 1.22775 
20 1 23.4592 7.29156 2.46425 
36 1 23.8245 6.71536 1.22775 
44 1 24.4592 5.41941 1.22775 
47 1 19.6411 8.50799 2.46425 
51 1 18.2111 8.50796 2.46425 
55 1 17.4894 8.50805 1.22775 
17 1 23.4591 9.72412 2.46425 
33 1 23.8244 10.3003 1.22775 
41 1 24.4591 11.5962 1.22775 
15 1 26.4352 0.843567 2.46425 
23 1 25.2207 3.40526 2.46425 
28 1 24.7215 4.75295 2.46425 
31 1 26.0879 1.42947 1.22775 
39 1 25.4753 2.73728 1.22775 
2 1 27.3118 17.3979 2.46426 
6 1 28.1156 17.394 1.22775 
10 1 29.5093 17.3925 1.22776 
14 1 26.4335 16.1728 2.46425 
22 1 25.2205 13.6103 2.46425 
25 1 24.7214 12.2627 2.46425 
30 1 26.0871 15.5864 1.22775 
38 1 25.475 14.2783 1.22775 
46 1 30.2448 17.4177 2.46426 
50 1 31.6724 17.4755 2.46427 
54 1 32.3967 17.4321 1.22777 
ITEM: TIMESTEP
90
ITEM: NUMBER OF ATOMS
57
ITEM: BOX BOUNDS pp pp pp
-7.4874004912761048e-03 3.2815487400491271e+01
-3.4318801825363211e-03 1.7783431880182544e+01
-9.8919999999999998e-04 2.4739891999999992e+00
ITEM: ATOMS id type x y z 
13 1 7.23002 0.784959 2.46525 
29 1 7.5415 1.40885 1.22776 
37 1 8.07509 2.75018 1.22776 
57 2 4.59702 1.00877 1.22772 
1 1 6.2755 17.4351 2.46524 
5 1 5.3645 17.5619 1.22775 
9 1 3.79219 17.5758 1.22775 
16 1 7.02789 16.1671 2.46525 
32 1 7.41003 15.5799 1.22776 
40 1 8.06193 14.293 1.22776 
45 1 3.12445 17.2433 2.46524 
49 1 1.71263 17.1165 2.46525 
53 1 0.986519 17.1937 1.22776 
4 1 10.9772 8.52489 2.46523 
8 1 11.7822 8.52375 1.22774 
12 1 13.1747 8.50714 1.22774 
18 1 10.0852 7.30927 2.46523 
21 1 8.31361 3.42491 2.46524 
26 1 8.81752 4.77036 2.46523 
34 1 9.72342 6.73169 1.22774 
42 1 9.0865 5.43458 1.22775 
48 1 13.9085 8.50549 2.46523 
52 1 15.3372 8.50762 2.46523 
56 1 16.0578 8.50817 1.22774 
19 1 10.08 9.73565 2.46523 
24 1 8.31888 13.6249 2.46524 
27 1 8.81604 12.2766 2.46523 
35 1 9.71471 10.3118 1.22774 
43 1 9.07974 11.6101 1.22775 
3 1 22.573 8.50762 2.46523 
7 1 21.7682 8.50774 1.22774 
11 1 20.3761 8.50785 1.22774 
20 1 23.4624 7.29094 2.46523 
36 1 23.8279 6.71453 1.22774 
44 1 24.4629 5.41807 1.22774 
47 1 19.6426 8.50784 2.46523 
51 1 18.2119 8.50781 2.46523 
55 1 17.4899 8.5079 1.22774 
17 1 23.4623 9.72444 2.46523 
33 1 23.8278 10.3008 1.22774 
41 1 24.4628 11.5972 1.22774 
15 1 26.4398 0.840458 2.46523 
23 1 25.2247 3.40315 2.46523 
28 1 24.7253 4.75135 2.46523 
31 1 26.0923 1.42658 1.22774 
39 1 25.4794 2.73491 1.22774 
2 1 27.3168 17.4012 2.46524 
6 1 28.121 17.3973 1.22774 
10 1 29.5153 17.3958 1.22775 
14 1 26.438 16.1757 2.46523 
22 1 25.2246 13.6122 2.46523 
25 1 24.7252 12.264 2.46523 
30 1 26.0915 15.589 1.22774 
38 1 25.4791 14.2804 1.22774 
46 1 30.2511 17.421 2.46524 
50 1 31.6793 17.4788 2.46525 
54 1 32.404 17.4354 1.22777 
ITEM: TIMESTEP
100
ITEM: NUMBER OF ATOMS
57
ITEM: BOX BOUNDS pp pp pp
-6.3299911359140908e-03 3.2814329991135921e+01
-1.1561377552022217e-03 1.7781156137755207e+01
-1.3956646316805375e-03 2.4743956646316794e+00
ITEM: ATOMS id type x y z 
13 1 7.23048 0.787272 2.46565 
29 1 7.54217 1.41057 1.22776 
37 1 8.07574 2.75188 1.22775 
57 2 4.59823 1.01022 1.22771 
1 1 6.2769 17.4329 2.46565 
5 1 5.36535 17.5601 1.22775 
9 1 3.79248 17.5731 1.22775 
16 1 7.02876 16.1652 2.46565 
32 1 7.41043 15.5783 1.22776 
40 1 8.06241 14.2915 1.22775 
45 1 3.1253 17.2416 2.46564 
49 1 1.71424 17.1144 2.46565 
53 1 0.987327 17.1916 1.22776 
4 1 10.9781 8.52504 2.46564 
8 1 11.782 8.52384 1.22774 
12 1 13.1743 8.50727 1.22774 
18 1 10.0858 7.30968 2.46564 
21 1 8.31416 3.42613 2.46564 
26 1 8.81811 4.7716 2.46564 
34 1 9.72391 6.73222 1.22774 
42 1 9.0869 5.43516 1.22774 
48 1 13.9086 8.50558 2.46564 
52 1 15.337 8.50771 2.46563 
56 1 16.0582 8.50826 1.22774 
19 1 10.0806 9.73547 2.46564 
24 1 8.31947 13.6237 2.46564 
27 1 8.81667 12.2755 2.46564 
35 1 9.71521 10.3115 1.22774 
43 1 9.08016 11.6098 1.22774 
3 1 22.5723 8.50772 2.46564 
7 1 21.7682 8.50784 1.22774 
11 1 20.3758 8.50795 1.22774 
20 1 23.4618 7.29139 2.46564 
36 1 23.8272 6.71534 1.22774 
44 1 24.4624 5.41857 1.22774 
47 1 19.642 8.50794 2.46564 
51 1 18.2122 8.50791 2.46563 
55 1 17.4902 8.508 1.22774 
17 1 23.4617 9.72418 2.46564 
33 1 23.8271 10.3002 1.22774 
41 1 24.4624 11.5969 1.22774 
15 1 26.4392 0.842424 2.46564 
23 1 25.224 3.40474 2.46563 
28 1 24.7247 4.75239 2.46563 
31 1 26.0918 1.42815 1.22774 
39 1 25.4787 2.73671 1.22774 
2 1 27.3165 17.399 2.46564 
6 1 28.12 17.3951 1.22774 
10 1 29.5146 17.3937 1.22775 
14 1 26.4375 16.1739 2.46564 
22 1 25.2238 13.6108 2.46563 
25 1 24.7246 12.2631 2.46563 
30 1 26.091 15.5876 1.22774 
38 1 25.4784 14.2788 1.22774 
46 1 30.2504 17.4189 2.46565 
50 1 31.6774 17.4764 2.46566 
54 1 32.4021 17.4331 1.22776 
ITEM: TIMESTEP
110
ITEM: NUMBER OF ATOMS
57
ITEM: BOX BOUNDS pp pp pp
-6.9343284709866256e-03 3.2814934328470997e+01
-5.6461027012220998e-04 1.7780564610270126e+01
-1.4987640583837166e-03 2.4744987640583824e+00
ITEM: ATOMS id type x y z 
13 1 7.22974 0.788428 2.46575 
29 1 7.5421 1.41086 1.22776 
37 1 8.07565 2.75272 1.22775 
57 2 4.59879 1.00945 1.22771 
1 1 6.27807 17.4324 2.46575 
5 1 5.36519 17.5607 1.22775 
9 1 3.79112 17.5717 1.22775 
16 1 7.02894 16.1646 2.46576 
32 1 7.40962 15.5778 1.22776 
40 1 8.06184 14.2907 1.22775 
45 1 3.12443 17.242 2.46575 
49 1 1.7136 17.1141 2.46576 
53 1 0.985919 17.1911 1.22776 
4 1 10.9787 8.52518 2.46574 
8 1 11.7809 8.52385 1.22774 
12 1 13.1735 8.50736 1.22774 
18 1 10.0859 7.30976 2.46574 
21 1 8.31381 3.42601 2.46575 
26 1 8.81793 4.7723 2.46574 
34 1 9.72382 6.73246 1.22774 
42 1 9.08638 5.43467 1.22774 
48 1 13.9085 8.50561 2.46574 
52 1 15.3363 8.50771 2.46574 
56 1 16.0589 8.50829 1.22774 
19 1 10.0806 9.73554 2.46574 
24 1 8.31917 13.6237 2.46575 
27 1 8.81661 12.2748 2.46574 
35 1 9.71515 10.3114 1.22774 
43 1 9.0797 11.6103 1.22774 
3 1 22.5718 8.50774 2.46574 
7 1 21.7692 8.50786 1.22774 
11 1 20.376 8.50798 1.22774 
20 1 23.4618 7.29153 2.46574 
36 1 23.827 6.71601 1.22774 
44 1 24.463 5.41798 1.22774 
47 1 19.6414 8.50796 2.46574 
51 1 18.2132 8.50794 2.46574 
55 1 17.4907 8.50803 1.22774 
17 1 23.4617 9.72408 2.46574 
33 1 23.8269 10.2996 1.22774 
41 1 24.4629 11.5976 1.22774 
15 1 26.4401 0.842776 2.46574 
23 1 25.2242 3.40522 2.46574 
28 1 24.725 4.75278 2.46574 
31 1 26.0925 1.42799 1.22774 
39 1 25.479 2.73762 1.22774 
2 1 27.3179 17.3984 2.46574 
6 1 28.12 17.3945 1.22774 
10 1 29.5155 17.3934 1.22775 
14 1 26.4383 16.1736 2.46574 
22 1 25.2241 13.6103 2.46574 
25 1 24.7249 12.2628 2.46574 
30 1 26.0917 15.5878 1.22774 
38 1 25.4787 14.278 1.22774 
46 1 30.2516 17.4186 2.46575 
50 1 31.6763 17.4754 2.46576 
54 1 32.4014 17.432 1.22776 
ITEM: TIMESTEP
120
ITEM: NUMBER OF ATOMS
57
ITEM: BOX BOUNDS pp pp pp
-9.3340927062548762e-03 3.2817334092706261e+01
-1.5032453016580851e-03 1.7781503245301661e+01
-1.5212940709709443e-03 2.4745212940709691e+00
ITEM: ATOMS id type x y z 
13 1 7.22812 0.788092 2.46578 
29 1 7.54128 1.41023 1.22776 
37 1 8.07468 2.75252 1.22775 
57 2 4.59795 1.00764 1.22771 
1 1 6.27767 17.4333 2.46577 
5 1 5.36391 17.5625 1.22775 
9 1 3.78869 17.5718 1.22775 
16 1 7.02803 16.1652 2.46578 
32 1 7.40803 15.5782 1.22776 
40 1 8.0604 14.2908 1.22775 
45 1 3.12187 17.2436 2.46577 
49 1 1.71027 17.1152 2.46578 
53 1 0.982811 17.1921 1.22776 
4 1 10.9779 8.5252 2.46576 
8 1 11.7795 8.5238 1.22774 
12 1 13.1732 8.50737 1.22774 
18 1 10.0852 7.30949 2.46576 
21 1 8.31265 3.42517 2.46577 
26 1 8.8169 4.77227 2.46576 
34 1 9.72308 6.73244 1.22774 
42 1 9.08517 5.43383 1.22774 
48 1 13.9086 8.50557 2.46576 
52 1 15.3358 8.50765 2.46576 
56 1 16.0592 8.50824 1.22774 
19 1 10.0799 9.73581 2.46576 
24 1 8.318 13.6244 2.46577 
27 1 8.81565 12.2749 2.46576 
35 1 9.71445 10.3114 1.22774 
43 1 9.07854 11.6111 1.22774 
3 1 22.5723 8.50769 2.46576 
7 1 21.7706 8.50782 1.22774 
11 1 20.3764 8.50794 1.22774 
20 1 23.4626 7.29133 2.46576 
36 1 23.8278 6.71601 1.22774 
44 1 24.4643 5.41713 1.22774 
47 1 19.6413 8.50792 2.46576 
51 1 18.2139 8.5079 2.46576 
55 1 17.4905 8.50799 1.22774 
17 1 23.4626 9.72419 2.46576 
33 1 23.8277 10.2995 1.22774 
41 1 24.4642 11.5983 1.22774 
15 1 26.4419 0.841865 2.46576 
23 1 25.2256 3.40421 2.46576 
28 1 24.7262 4.75267 2.46576 
31 1 26.0941 1.42693 1.22774 
39 1 25.4803 2.73726 1.22774 
2 1 27.3201 17.3993 2.46577 
6 1 28.1214 17.3954 1.22774 
10 1 29.5174 17.3946 1.22775 
14 1 26.4402 16.1744 2.46576 
22 1 25.2255 13.6113 2.46576 
25 1 24.7261 12.2628 2.46576 
30 1 26.0932 15.5888 1.22774 
38 1 25.48 14.2782 1.22774 
46 1 30.2538 17.4198 2.46577 
50 1 31.6778 17.4758 2.46578 
54 1 32.4034 17.4321 1.22776 
ITEM: TIMESTEP
130
ITEM: NUMBER OF ATOMS
57
ITEM: BOX BOUNDS pp pp pp
-1.0103998612616577e-02 3.2818103998612628e+01
-2.0615435211307495e-03 1.7782061543521138e+01
-1.4246604313576082e-03 2.4744246604313553e+00
ITEM: ATOMS id type x y z 
13 1 7.22725 0.788586 2.46568 
29 1 7.54186 1.41007 1.22776 
37 1 8.07481 2.75298 1.22775 
57 2 4.59899 1.00543 1.22771 
1 1 6.27913 17.4337 2.46568 
5 1 5.36414 17.5644 1.22775 
9 1 3.78688 17.5709 1.22775 
16 1 7.02845 16.1654 2.46568 
32 1 7.4071 15.5778 1.22776 
40 1 8.05955 14.2901 1.22775 
45 1 3.11998 17.2458 2.46567 
49 1 1.70756 17.1162 2.46568 
53 1 0.980539 17.1929 1.22776 
4 1 10.978 8.52527 2.46567 
8 1 11.7781 8.52374 1.22774 
12 1 13.1733 8.50748 1.22774 
18 1 10.0856 7.30918 2.46567 
21 1 8.31246 3.42465 2.46567 
26 1 8.81672 4.77285 2.46567 
34 1 9.72323 6.73262 1.22774 
42 1 9.08468 5.43297 1.22774 
48 1 13.9092 8.50556 2.46566 
52 1 15.3352 8.50759 2.46566 
56 1 16.0598 8.5082 1.22774 
19 1 10.0802 9.73621 2.46567 
24 1 8.31774 13.625 2.46567 
27 1 8.8156 12.2745 2.46567 
35 1 9.71463 10.3113 1.22774 
43 1 9.07816 11.612 1.22774 
3 1 22.572 8.50766 2.46567 
7 1 21.7718 8.50779 1.22774 
11 1 20.3762 8.50791 1.22774 
20 1 23.4626 7.2911 2.46566 
36 1 23.8277 6.71612 1.22774 
44 1 24.4647 5.41605 1.22774 
47 1 19.6405 8.5079 2.46566 
51 1 18.2145 8.50788 2.46566 
55 1 17.4899 8.50797 1.22774 
17 1 23.4625 9.72435 2.46566 
33 1 23.8276 10.2993 1.22774 