ITEM: TIMESTEP
0
ITEM: NUMBER OF ATOMS
50
ITEM: BOX BOUNDS pp pp pp
0.0000000000000000e+00 1.1000000000000000e+01
0.0000000000000000e+00 1.1002000000000001e+01
0.0000000000000000e+00 1.1000000000000000e+01
ITEM: ATOMS id type x y z 
10 1 4.603 4.603 4.603 
11 1 3.085 3.085 3.085 
12 1 3.796 3.796 3.796 
46 1 0.726 0.725 0.725 
47 1 2.26 2.259 2.26 
48 1 1.551 1.55 1.55 
19 1 4.546 4.545 6.226 
20 1 3.013 3.013 7.764 
21 1 3.721 3.721 7.053 
31 1 0.668 0.667 10.103 
32 1 2.187 2.187 8.589 
33 1 1.476 1.475 9.298 
16 1 4.546 6.225 4.546 
17 1 3.013 7.765 3.013 
18 1 3.721 7.053 3.722 
25 1 0.668 10.103 0.668 
26 1 2.188 8.589 2.188 
27 1 1.476 9.298 1.476 
4 1 4.608 6.169 6.169 
5 1 3.086 7.684 7.684 
6 1 3.799 6.974 6.974 
37 1 0.729 10.046 10.046 
38 1 2.259 8.509 8.508 
39 1 1.552 9.219 9.219 
13 1 6.225 4.546 4.546 
14 1 7.764 3.013 3.013 
15 1 7.053 3.721 3.722 
28 1 10.102 0.667 0.668 
29 1 8.589 2.187 2.188 
30 1 9.298 1.475 1.476 
1 1 6.168 4.608 6.169 
2 1 7.684 3.086 7.684 
3 1 6.974 3.799 6.974 
40 1 10.045 0.728 10.046 
41 1 8.508 2.259 8.508 
42 1 9.218 1.551 9.218 
7 1 6.169 6.169 4.608 
8 1 7.684 7.684 3.086 
9 1 6.974 6.974 3.799 
43 1 10.046 10.047 0.729 
44 1 8.508 8.509 2.259 
45 1 9.219 9.219 1.552 
22 1 6.229 6.229 6.229 
23 1 7.764 7.765 7.765 
24 1 7.055 7.056 7.055 
34 1 10.108 10.108 10.107 
35 1 8.59 8.59 8.59 
36 1 9.301 9.301 9.3 
49 2 5.851 6.075 7.516 
50 3 5.851 6.075 8.492 
ITEM: TIMESTEP
10
ITEM: NUMBER OF ATOMS
50
ITEM: BOX BOUNDS pp pp pp
0.0000000000000000e+00 1.1000000000000000e+01
0.0000000000000000e+00 1.1002000000000001e+01
0.0000000000000000e+00 1.1000000000000000e+01
ITEM: ATOMS id type x y z 
10 1 4.57675 4.58004 4.58919 
11 1 3.07322 3.08823 3.07262 
12 1 3.79684 3.76898 3.79847 
46 1 0.736314 0.733641 0.738389 
47 1 2.27237 2.26812 2.27414 
48 1 1.55972 1.56406 1.55505 
19 1 4.54334 4.55191 6.24292 
20 1 3.00468 3.004 7.76967 
21 1 3.71672 3.71838 7.06324 
31 1 0.674064 0.679435 10.1012 
32 1 2.19085 2.1963 8.5902 
33 1 1.48361 1.47229 9.28018 
16 1 4.52607 6.24856 4.54228 
17 1 2.99765 7.78022 2.99424 
18 1 3.70383 7.07092 3.71206 
25 1 0.676398 10.092 0.671261 
26 1 2.18905 8.5809 2.18512 
27 1 1.48193 9.30466 1.48843 
4 1 4.48375 6.16632 6.14498 
5 1 3.08347 7.70186 7.70747 
6 1 3.75215 6.98529 6.96545 
37 1 0.749923 10.0378 10.0324 
38 1 2.2721 8.49828 8.49181 
39 1 1.56175 9.20573 9.21459 
13 1 6.24439 4.53296 4.54325 
14 1 7.77842 3.0023 3.00142 
15 1 7.06014 3.70737 3.71052 
28 1 10.0927 0.670835 0.676112 
29 1 8.58082 2.18471 2.1936 
30 1 9.29873 1.49331 1.47874 
1 1 6.17891 4.50675 6.15846 
2 1 7.70889 3.08193 7.70627 
3 1 6.98009 3.75454 6.98075 
40 1 10.0331 0.743998 10.034 
41 1 8.49478 2.26447 8.49696 
42 1 9.21695 1.56523 9.21601 
7 1 6.19708 6.18582 4.51861 
8 1 7.70769 7.70721 3.08006 
9 1 6.98321 6.9837 3.75484 
43 1 10.0353 10.0347 0.748859 
44 1 8.49831 8.49622 2.26915 
45 1 9.21248 9.21811 1.5592 
22 1 6.28469 6.27063 6.09269 
23 1 7.7785 7.77534 7.75118 
24 1 7.14593 7.12409 6.96516 
34 1 10.1078 10.1025 10.0968 
35 1 8.61928 8.61101 8.61816 
36 1 9.32448 9.3409 9.34331 
49 2 5.80435 6.01623 7.73839 
50 3 5.78036 6.0282 8.60615 
ITEM: TIMESTEP
20
ITEM: NUMBER OF ATOMS
50
ITEM: BOX BOUNDS pp pp pp
0.0000000000000000e+00 1.1000000000000000e+01
0.0000000000000000e+00 1.1002000000000001e+01
0.0000000000000000e+00 1.1000000000000000e+01
ITEM: ATOMS id type x y z 
10 1 4.58802 4.58679 4.59875 
11 1 3.07945 3.07991 3.08209 
12 1 3.79026 3.78693 3.78857 
46 1 0.739433 0.739701 0.736926 
47 1 2.27132 2.2713 2.27063 
48 1 1.56594 1.56565 1.56483 
19 1 4.54967 4.55414 6.24345 
20 1 3.00478 3.00438 7.76964 
21 1 3.71207 3.71451 7.07042 
31 1 0.682177 0.680221 10.094 
32 1 2.19061 2.19213 8.58421 
33 1 1.48452 1.4795 9.28973 
16 1 4.49647 6.22941 4.53697 
17 1 2.99989 7.78344 2.99432 
18 1 3.69141 7.06952 3.70563 
25 1 0.687574 10.0985 0.676711 
26 1 2.18687 8.58772 2.18717 
27 1 1.48226 9.29827 1.47867 
4 1 4.5533 6.17168 6.14044 
5 1 3.08485 7.69338 7.69162 
6 1 3.76886 6.97596 6.96526 
37 1 0.746236 10.0417 10.037 
38 1 2.26853 8.49982 8.49962 
39 1 1.56886 9.20838 9.20853 
13 1 6.22429 4.49318 4.535 
14 1 7.78267 2.99874 2.99401 
15 1 7.06882 3.69292 3.70659 
28 1 10.0967 0.687857 0.679187 
29 1 8.5855 2.18851 2.18941 
30 1 9.29628 1.48278 1.48048 
1 1 6.17582 4.56398 6.15503 
2 1 7.69224 3.0816 7.69441 
3 1 6.98164 3.77962 6.97279 
40 1 10.0418 0.745492 10.0394 
41 1 8.50005 2.26718 8.50176 
42 1 9.2083 1.56466 9.20897 
7 1 6.17341 6.17356 4.51163 
8 1 7.71252 7.71114 3.06856 
9 1 6.98715 6.98868 3.75328 
43 1 10.0414 10.0433 0.742875 
44 1 8.50958 8.5103 2.25792 
45 1 9.21581 9.21677 1.55915 
22 1 6.3189 6.28947 6.05943 
23 1 7.79262 7.78614 7.74475 
24 1 7.13776 7.11847 6.95662 
34 1 10.1101 10.1109 10.1003 
35 1 8.58216 8.58621 8.59408 
36 1 9.29787 9.29288 9.29351 
49 2 5.77191 6.00011 7.83746 
50 3 5.75536 6.01366 8.71226 
ITEM: TIMESTEP
30
ITEM: NUMBER OF ATOMS
50
ITEM: BOX BOUNDS pp pp pp
0.0000000000000000e+00 1.1000000000000000e+01
0.0000000000000000e+00 1.1002000000000001e+01
0.0000000000000000e+00 1.1000000000000000e+01
ITEM: ATOMS id type x y z 
10 1 4.58907 4.58598 4.59954 
11 1 3.08174 3.08112 3.08108 
12 1 3.78765 3.78611 3.79414 
46 1 0.741244 0.741086 0.735827 
47 1 2.27271 2.2727 2.27281 
48 1 1.56627 1.56618 1.56326 
19 1 4.55326 4.55707 6.24945 
20 1 3.00485 3.00502 7.76815 
21 1 3.71484 3.71636 7.07216 
31 1 0.679753 0.676479 10.0951 
32 1 2.19213 2.19076 8.58196 
33 1 1.48421 1.48457 9.29093 
16 1 4.49618 6.22536 4.53309 
17 1 2.99764 7.78632 2.9932 
18 1 3.689 7.06668 3.70405 
25 1 0.686162 10.104 0.672449 
26 1 2.18577 8.58991 2.18685 
27 1 1.48235 9.29904 1.47504 
4 1 4.57615 6.17448 6.1428 
5 1 3.08368 7.6857 7.68518 
6 1 3.78073 6.97951 6.96368 
37 1 0.743814 10.0415 10.0348 
38 1 2.27208 8.49769 8.49907 
39 1 1.56866 9.20842 9.206 
13 1 6.22134 4.49298 4.53309 
14 1 7.78541 2.99889 2.99484 
15 1 7.0636 3.68873 3.70468 
28 1 10.1009 0.686631 0.673389 
29 1 8.58714 2.18681 2.18746 
30 1 9.29889 1.48294 1.47862 
1 1 6.17949 4.58663 6.15379 
2 1 7.68663 3.08317 7.68888 
3 1 6.98199 3.78659 6.97213 
40 1 10.0419 0.741498 10.0365 
41 1 8.49768 2.26906 8.50043 
42 1 9.20865 1.5671 9.20777 
7 1 6.16815 6.16601 4.51288 
8 1 7.71 7.70928 3.07097 
9 1 6.98484 6.98523 3.74464 
43 1 10.044 10.0457 0.735138 
44 1 8.51045 8.51108 2.25948 
45 1 9.21973 9.22079 1.55378 
22 1 6.30598 6.27985 6.08967 
23 1 7.79388 7.7867 7.73585 
24 1 7.14376 7.12208 6.94025 
34 1 10.1067 10.1061 10.0917 
35 1 8.58319 8.58413 8.59289 
36 1 9.29394 9.29468 9.29357 
49 2 5.76143 5.98967 7.85326 
50 3 5.74441 6.00654 8.75772 
ITEM: TIMESTEP
40
ITEM: NUMBER OF ATOMS
50
ITEM: BOX BOUNDS pp pp pp
0.0000000000000000e+00 1.1000000000000000e+01
0.0000000000000000e+00 1.1002000000000001e+01
0.0000000000000000e+00 1.1000000000000000e+01
ITEM: ATOMS id type x y z 
10 1 4.59183 4.58678 4.60414 
11 1 3.08659 3.08507 3.07713 
12 1 3.78161 3.78164 3.81015 
46 1 0.743002 0.743583 0.730788 
47 1 2.27245 2.27298 2.27348 
48 1 1.56801 1.56703 1.56263 
19 1 4.55902 4.56176 6.25651 
20 1 3.0063 3.00627 7.76759 
21 1 3.71842 3.72147 7.07338 
31 1 0.679328 0.672321 10.0902 
32 1 2.19552 2.18614 8.57883 
33 1 1.47937 1.49384 9.29295 
16 1 4.50008 6.22224 4.5241 
17 1 2.9917 7.78924 2.9913 
18 1 3.68933 7.06214 3.70334 
25 1 0.684587 10.1079 0.664901 
26 1 2.18379 8.59379 2.18308 
27 1 1.48138 9.30297 1.47269 
4 1 4.60411 6.18186 6.14603 
5 1 3.08476 7.6808 7.6786 
6 1 3.79117 6.98052 6.96079 
37 1 0.743178 10.0408 10.0264 
38 1 2.27766 8.49264 8.49538 
39 1 1.57284 9.20398 9.19932 
13 1 6.21781 4.49578 4.52509 
14 1 7.78412 2.99637 2.99658 
15 1 7.06263 3.6858 3.70133 
28 1 10.1062 0.68394 0.663081 
29 1 8.59192 2.18474 2.18522 
30 1 9.30103 1.48277 1.47362 
1 1 6.18433 4.61092 6.15502 
2 1 7.681 3.0869 7.68428 
3 1 6.98248 3.79472 6.96785 
40 1 10.0398 0.739087 10.0294 
41 1 8.49366 2.27156 8.49947 
42 1 9.20874 1.57099 9.2027 
7 1 6.16202 6.15666 4.51112 
8 1 7.70368 7.70401 3.06865 
9 1 6.98036 6.97856 3.74073 
43 1 10.0441 10.0465 0.725754 
44 1 8.51268 8.5129 2.26138 
45 1 9.21957 9.22137 1.55284 
22 1 6.29731 6.27772 6.11162 
23 1 7.79753 7.78905 7.71614 
24 1 7.15142 7.12726 6.92221 
34 1 10.1073 10.1054 10.0841 
35 1 8.58365 8.57902 8.58861 
36 1 9.28753 9.29783 9.29393 
49 2 5.74288 5.97114 7.91426 
50 3 5.72415 5.99221 8.82531 
ITEM: TIMESTEP
50
ITEM: NUMBER OF ATOMS
50
ITEM: BOX BOUNDS pp pp pp
0.0000000000000000e+00 1.1000000000000000e+01
0.0000000000000000e+00 1.1002000000000001e+01
0.0000000000000000e+00 1.1000000000000000e+01
ITEM: ATOMS id type x y z 
10 1 4.58724 4.58553 4.61429 
11 1 3.08358 3.08271 3.08337 
12 1 3.78539 3.78447 3.80294 
46 1 0.744236 0.743342 0.727766 
47 1 2.273 2.27316 2.2733 
48 1 1.56872 1.56827 1.56126 
19 1 4.56011 4.56339 6.25871 
20 1 3.00794 3.00751 7.7669 
21 1 3.72024 3.72228 7.0749 
31 1 0.676624 0.673864 10.0901 
32 1 2.1938 2.19228 8.57994 
33 1 1.48443 1.48602 9.28671 
16 1 4.50535 6.22142 4.52171 
17 1 2.99209 7.78496 2.99535 
18 1 3.68811 7.06499 3.69865 
25 1 0.683416 10.108 0.659144 
26 1 2.18308 8.59563 2.18288 
27 1 1.48133 9.3039 1.46948 
4 1 4.61006 6.18648 6.14504 
5 1 3.0862 7.67849 7.67503 
6 1 3.79702 6.98134 6.9595 
37 1 0.742903 10.0408 10.0236 
38 1 2.27734 8.49252 8.49563 
39 1 1.57249 9.20433 9.19879 
13 1 6.21787 4.50059 4.52268 
14 1 7.78447 2.99225 2.99581 
15 1 7.06261 3.68692 3.70014 
28 1 10.1064 0.684218 0.660918 
29 1 8.59499 2.18433 2.1838 
30 1 9.30167 1.48042 1.47062 
1 1 6.18758 4.61464 6.15568 
2 1 7.67916 3.08755 7.68188 
3 1 6.9829 3.80085 6.96796 
40 1 10.0415 0.740447 10.0251 
41 1 8.49262 2.27555 8.49769 
42 1 9.20487 1.56953 9.19967 
7 1 6.15807 6.15377 4.51188 
8 1 7.70055 7.70098 3.06584 
9 1 6.97843 6.97604 3.74077 
43 1 10.0443 10.0453 0.722444 
44 1 8.51333 8.51394 2.26236 
45 1 9.21912 9.22052 1.55309 
22 1 6.29255 6.27582 6.10801 
23 1 7.80599 7.79492 7.71102 
24 1 7.15302 7.12917 6.91767 
34 1 10.1063 10.1058 10.0845 
35 1 8.5797 8.58093 8.58952 
36 1 9.2921 9.29316 9.28732 
49 2 5.73415 5.96212 7.94611 
50 3 5.71509 5.9855 8.85656 
ITEM: TIMESTEP
60
ITEM: NUMBER OF ATOMS
50
ITEM: BOX BOUNDS pp pp pp
0.0000000000000000e+00 1.1000000000000000e+01
0.0000000000000000e+00 1.1002000000000001e+01
0.0000000000000000e+00 1.1000000000000000e+01
ITEM: ATOMS id type x y z 
10 1 4.58444 4.58398 4.6205 
11 1 3.08187 3.08161 3.09182 
12 1 3.79013 3.78844 3.79878 
46 1 0.743016 0.743885 0.722109 
47 1 2.27157 2.27276 2.27184 
48 1 1.56953 1.56688 1.55896 
19 1 4.56315 4.56666 6.26015 
20 1 3.01064 3.01079 7.76743 
21 1 3.72325 3.72469 7.07551 
31 1 0.679047 0.673623 10.0836 
32 1 2.19357 2.19228 8.57913 
33 1 1.48413 1.4853 9.28524 
16 1 4.50902 6.21968 4.51784 
17 1 2.99064 7.78359 2.9949 
18 1 3.68608 7.06316 3.69965 
25 1 0.682875 10.1093 0.652695 
26 1 2.18188 8.59828 2.18277 
27 1 1.48238 9.30439 1.46533 
4 1 4.6202 6.19247 6.14164 
5 1 3.08787 7.67803 7.67267 
6 1 3.80321 6.98454 6.95824 
37 1 0.742501 10.0411 10.0201 
38 1 2.2796 8.49015 8.49493 
39 1 1.57158 9.20323 9.19305 
13 1 6.21714 4.50245 4.5205 
14 1 7.78303 2.98903 2.99648 
15 1 7.06174 3.68625 3.69848 
28 1 10.1088 0.681475 0.654102 
29 1 8.59653 2.1831 2.18245 
30 1 9.30434 1.4818 1.46851 
1 1 6.19308 4.62386 6.15151 
2 1 7.67996 3.09193 7.67895 
3 1 6.97999 3.80486 6.96866 
40 1 10.041 0.739643 10.0186 
41 1 8.4911 2.2763 8.49457 
42 1 9.20249 1.57201 9.1992 
7 1 6.15844 6.15218 4.51333 
8 1 7.69951 7.69828 3.06538 
9 1 6.97045 6.97035 3.72965 
43 1 10.0435 10.0452 0.717924 
44 1 8.51419 8.51502 2.26333 
45 1 9.21931 9.22056 1.55294 
22 1 6.29072 6.27754 6.1155 
23 1 7.81234 7.8012 7.69594 
24 1 7.15234 7.12881 6.91399 
34 1 10.1056 10.1066 10.0793 
35 1 8.57956 8.58285 8.5854 
36 1 9.29501 9.28855 9.28649 
49 2 5.71985 5.94701 7.99585 
50 3 5.70182 5.97529 8.90808 
ITEM: TIMESTEP
70
ITEM: NUMBER OF ATOMS
50
ITEM: BOX BOUNDS pp pp pp
0.0000000000000000e+00 1.1000000000000000e+01
0.0000000000000000e+00 1.1002000000000001e+01
0.0000000000000000e+00 1.1000000000000000e+01
ITEM: ATOMS id type x y z 
10 1 4.58609 4.5848 4.61893 
11 1 3.08269 3.08216 3.08854 
12 1 3.78606 3.78502 3.80389 
46 1 0.743713 0.743562 0.721733 
47 1 2.27234 2.27251 2.27251 
48 1 1.56912 1.56824 1.55857 
19 1 4.56353 4.56684 6.26019 
20 1 3.01085 3.01053 7.76753 
21 1 3.72344 3.72577 7.0763 
31 1 0.677455 0.674132 10.0843 
32 1 2.19438 2.19423 8.57886 
33 1 1.4853 1.4843 9.28258 
16 1 4.50828 6.22018 4.51821 
17 1 2.9888 7.78378 2.99536 
18 1 3.68701 7.06389 3.69709 
25 1 0.68314 10.1088 0.651976 
26 1 2.18269 8.59827 2.18178 
27 1 1.48085 9.305 1.46661 
4 1 4.62176 6.19302 6.1429 
5 1 3.08846 7.6778 7.67206 
6 1 3.80445 6.98469 6.95789 
37 1 0.742239 10.0407 10.0184 
38 1 2.27905 8.4898 8.49375 
39 1 1.57292 9.20315 9.1941 
13 1 6.21779 4.50281 4.52014 
14 1 7.78305 2.98841 2.99615 
15 1 7.062 3.68575 3.69819 
28 1 10.1087 0.681969 0.653843 
29 1 8.59796 2.18321 2.18236 
30 1 9.30312 1.4806 1.46723 
1 1 6.19117 4.62434 6.1529 
2 1 7.67765 3.09111 7.67991 
3 1 6.98457 3.80768 6.96661 
40 1 10.0409 0.740003 10.0191 
41 1 8.49072 2.27712 8.49556 
42 1 9.20308 1.57076 9.19694 
7 1 6.15729 6.1512 4.513 
8 1 7.6983 7.69774 3.06172 
9 1 6.97324 6.97164 3.73279 
43 1 10.0438 10.0454 0.717711 
44 1 8.51482 8.51564 2.26369 
45 1 9.219 9.22024 1.55213 
22 1 6.28973 6.27686 6.11577 
23 1 7.813 7.80177 7.69394 
24 1 7.15142 7.1283 6.91401 
34 1 10.1063 10.1053 10.0807 
35 1 8.58085 8.58052 8.58532 
36 1 9.29264 9.29224 9.28395 
49 2 5.71809 5.94516 8.00152 
50 3 5.70032 5.97408 8.91482 
ITEM: TIMESTEP
71
ITEM: NUMBER OF ATOMS
50
ITEM: BOX BOUNDS pp pp pp
0.0000000000000000e+00 1.1000000000000000e+01
0.0000000000000000e+00 1.1002000000000001e+01
0.0000000000000000e+00 1.1000000000000000e+01
ITEM: ATOMS id type x y z 
10 1 4.58609 4.5848 4.61893 
11 1 3.08269 3.08216 3.08854 
12 1 3.78606 3.78502 3.80389 
46 1 0.743713 0.743562 0.721733 
47 1 2.27234 2.27251 2.27251 
48 1 1.56912 1.56824 1.55857 
19 1 4.56353 4.56684 6.26019 
20 1 3.01085 3.01053 7.76753 
21 1 3.72344 3.72577 7.0763 
31 1 0.677455 0.674132 10.0843 
32 1 2.19438 2.19423 8.57886 
33 1 1.4853 1.4843 9.28258 
16 1 4.50828 6.22018 4.51821 
17 1 2.9888 7.78378 2.99536 
18 1 3.68701 7.06389 3.69709 
25 1 0.68314 10.1088 0.651976 
26 1 2.18269 8.59827 2.18178 
27 1 1.48085 9.305 1.46661 
4 1 4.62176 6.19302 6.1429 
5 1 3.08846 7.6778 7.67206 
6 1 3.80445 6.98469 6.95789 
37 1 0.742239 10.0407 10.0184 
38 1 2.27905 8.4898 8.49375 
39 1 1.57292 9.20315 9.1941 
13 1 6.21779 4.50281 4.52014 
14 1 7.78305 2.98841 2.99615 
15 1 7.062 3.68575 3.69819 
28 1 10.1087 0.681969 0.653843 
29 1 8.59796 2.18321 2.18236 
30 1 9.30312 1.4806 1.46723 
1 1 6.19117 4.62434 6.1529 
2 1 7.67765 3.09111 7.67991 
3 1 6.98457 3.80768 6.96661 
40 1 10.0409 0.740003 10.0191 
41 1 8.49072 2.27712 8.49556 
42 1 9.20308 1.57076 9.19694 
7 1 6.15729 6.1512 4.513 
8 1 7.6983 7.69774 3.06172 
9 1 6.97324 6.97164 3.73279 
43 1 10.0438 10.0454 0.717711 
44 1 8.51482 8.51564 2.26369 
45 1 9.219 9.22024 1.55213 
22 1 6.28973 6.27686 6.11577 
23 1 7.813 7.80177 7.69394 
24 1 7.15142 7.1283 6.91401 
34 1 10.1063 10.1053 10.0807 
35 1 8.58085 8.58052 8.58532 
36 1 9.29264 9.29224 9.28394 
49 2 5.71809 5.94516 8.00152 
50 3 5.70032 5.97408 8.91482 
ITEM: TIMESTEP
80
ITEM: NUMBER OF ATOMS
50
ITEM: BOX BOUNDS pp pp pp
-2.3518345674129826e-03 1.1002351834567413e+01
-2.2913510554332947e-03 1.1004291351055434e+01
-4.9500000000000004e-03 1.1004950000000004e+01
ITEM: ATOMS id type x y z 
10 1 4.58584 4.58454 4.61818 
11 1 3.08166 3.08115 3.08632 
12 1 3.78529 3.7843 3.80246 
46 1 0.741624 0.741498 0.717349 
47 1 2.27092 2.27109 2.26954 
48 1 1.56738 1.56659 1.55499 
19 1 4.5632 4.56653 6.2608 
20 1 3.00981 3.00954 7.76956 
21 1 3.72274 3.72507 7.07764 
31 1 0.675274 0.672064 10.0885 
32 1 2.19291 2.19286 8.58168 
33 1 1.48366 1.48261 9.2859 
16 1 4.50793 6.22041 4.51741 
17 1 2.98771 7.78471 2.99313 
18 1 3.68636 7.06445 3.69553 
25 1 0.680966 10.1108 0.64755 
26 1 2.18119 8.59962 2.17878 
27 1 1.47924 9.30652 1.46297 
4 1 4.62146 6.19326 6.14334 
5 1 3.08748 7.6787 7.67395 
6 1 3.80368 6.98529 6.95928 
37 1 0.740138 10.0426 10.0225 
38 1 2.27765 8.49108 8.49645 
39 1 1.57117 9.20472 9.1975 
13 1 6.21801 4.50247 4.51934 
14 1 7.784 2.98736 2.99393 
15 1 7.0626 3.6851 3.69663 
28 1 10.1107 0.679854 0.649364 
29 1 8.59928 2.18177 2.17933 
30 1 9.30479 1.47899 1.46365 
1 1 6.19141 4.62408 6.15337 
2 1 7.67858 3.09016 7.68183 
3 1 6.98518 3.80691 6.96798 
40 1 10.0429 0.737948 10.0233 
41 1 8.49202 2.27575 8.4983 
42 1 9.20474 1.56905 9.20029 
7 1 6.15745 6.15136 4.51219 
8 1 7.69916 7.69858 3.05953 
9 1 6.97396 6.97233 3.73119 
43 1 10.0458 10.0473 0.713338 
44 1 8.51613 8.51693 2.26078 
45 1 9.22066 9.22185 1.54847 
22 1 6.28999 6.2771 6.11628 
23 1 7.81394 7.80266 7.6958 
24 1 7.1521 7.12897 6.9153 
34 1 10.1083 10.1073 10.0849 
35 1 8.58217 8.58183 8.58812 
36 1 9.29427 9.29381 9.28728 
49 2 5.71817 5.94532 8.00383 
50 3 5.70038 5.97426 8.91799 
ITEM: TIMESTEP
90
ITEM: NUMBER OF ATOMS
50
ITEM: BOX BOUNDS pp pp pp
-9.6293448947897215e-04 1.1000962934489477e+01
-7.0806047564582952e-04 1.1002708060475644e+01
-1.0450000000000001e-02 1.1010450000000009e+01
ITEM: ATOMS id type x y z 
10 1 4.58646 4.58515 4.61751 
11 1 3.08231 3.08184 3.08384 
12 1 3.78559 3.78474 3.8009 
46 1 0.742638 0.742595 0.712291 
47 1 2.27157 2.27177 2.26609 
48 1 1.56817 1.5677 1.55094 
19 1 4.56365 4.56707 6.26129 
20 1 3.01058 3.01046 7.77174 
21 1 3.72338 3.72567 7.07903 
31 1 0.676127 0.673247 10.0935 
32 1 2.19361 2.19383 8.58489 
33 1 1.4849 1.48369 9.28944 
16 1 4.50844 6.21997 4.51673 
17 1 2.98839 7.78392 2.99077 
18 1 3.6871 7.06379 3.69387 
25 1 0.681831 10.1098 0.642477 
26 1 2.18181 8.59891 2.17541 
27 1 1.48055 9.30524 1.45887 
4 1 4.622 6.19283 6.14362 
5 1 3.08823 7.67802 7.67599 
6 1 3.804 6.98492 6.96086 
37 1 0.741116 10.0416 10.0272 
38 1 2.27834 8.49041 8.49953 
39 1 1.57199 9.20371 9.20139 
13 1 6.21758 4.50303 4.51865 
14 1 7.78325 2.98815 2.99158 
15 1 7.06205 3.68589 3.69498 
28 1 10.1097 0.680908 0.64415 
29 1 8.59849 2.18257 2.17587 
30 1 9.30396 1.48036 1.45977 
1 1 6.19106 4.62469 6.15364 
2 1 7.67804 3.09103 7.68388 
3 1 6.98473 3.80721 6.96959 
40 1 10.042 0.739089 10.0281 
41 1 8.49138 2.27656 8.50148 
42 1 9.20399 1.56998 9.20404 
7 1 6.15694 6.15085 4.51155 
8 1 7.69838 7.69775 3.05709 
9 1 6.97385 6.97212 3.72944 
43 1 10.0449 10.0463 0.708329 
44 1 8.51551 8.5162 2.25748 
45 1 9.21986 9.2209 1.54425 
22 1 6.28952 6.27661 6.11674 
23 1 7.81317 7.80176 7.69763 
24 1 7.15155 7.12842 6.91672 
34 1 10.1074 10.1063 10.0898 
35 1 8.58141 8.581 8.59129 
36 1 9.29333 9.29266 9.29082 
49 2 5.71807 5.94513 8.0065 
50 3 5.70027 5.97406 8.92169 
ITEM: TIMESTEP
100
ITEM: NUMBER OF ATOMS
50
ITEM: BOX BOUNDS pp pp pp
3.7966403383775989e-04 1.0999620335966160e+01
8.4518586371031630e-04 1.1001154814136287e+01
-1.5950000000000002e-02 1.1015950000000014e+01
ITEM: ATOMS id type x y z 
10 1 4.587 4.58572 4.61692 
11 1 3.08291 3.08254 3.0815 
12 1 3.78596 3.78515 3.79915 
46 1 0.74361 0.743649 0.707209 
47 1 2.27217 2.27239 2.2626 
48 1 1.56895 1.56881 1.5469 
19 1 4.56412 4.56762 6.26177 
20 1 3.01139 3.01142 7.77387 
21 1 3.72395 3.72622 7.08044 
31 1 0.676988 0.6743 10.0984 
32 1 2.19435 2.19469 8.58803 
33 1 1.48601 1.48495 9.29309 
16 1 4.50894 6.21953 4.51606 
17 1 2.98912 7.78307 2.98848 
18 1 3.68777 7.06323 3.69212 
25 1 0.682723 10.1088 0.637311 
26 1 2.18248 8.59817 2.17199 
27 1 1.48169 9.30404 1.4549 
4 1 4.62259 6.19236 6.14393 
5 1 3.08894 7.67731 7.67806 
6 1 3.80434 6.98463 6.96239 
37 1 0.742049 10.0406 10.0319 
38 1 2.27895 8.48981 8.50266 
39 1 1.5728 9.20266 9.20526 
13 1 6.21717 4.50361 4.51795 
14 1 7.78246 2.98901 2.98927 
15 1 7.06158 3.68656 3.69329 
28 1 10.1088 0.681942 0.638927 
29 1 8.59771 2.18333 2.17241 
30 1 9.30318 1.48173 1.4559 
1 1 6.19072 4.62538 6.15392 
2 1 7.67754 3.09191 7.68594 
3 1 6.98428 3.80747 6.97121 
40 1 10.0411 0.740202 10.0329 
41 1 8.49081 2.27731 8.50471 
42 1 9.20323 1.57095 9.20773 
7 1 6.15645 6.15034 4.511 
8 1 7.69766 7.69697 3.0546 
9 1 6.97372 6.97188 3.72774 
43 1 10.044 10.0453 0.703311 
44 1 8.51498 8.51557 2.25412 
45 1 9.21902 9.2199 1.54009 
22 1 6.28901 6.27609 6.11718 
23 1 7.8124 7.80084 7.69941 
24 1 7.15098 7.12784 6.91812 
34 1 10.1065 10.1053 10.0947 
35 1 8.58069 8.58019 8.59446 
36 1 9.29239 9.29155 9.29433 
49 2 5.71797 5.94494 8.00918 
50 3 5.70014 5.97387 8.92541 
ITEM: TIMESTEP
110
ITEM: NUMBER OF ATOMS
50
ITEM: BOX BOUNDS pp pp pp
1.6586009766542164e-03 1.0998341399023341e+01
2.3367301557577881e-03 1.0999663269844238e+01
-2.1449999999999986e-02 1.1021450000000019e+01
ITEM: ATOMS id type x y z 
10 1 4.58755 4.58629 4.61634 
11 1 3.08351 3.08324 3.07915 
12 1 3.78624 3.78551 3.79741 
46 1 0.744506 0.744635 0.702104 
47 1 2.27269 2.27294 2.25909 
48 1 1.5697 1.56989 1.54285 
19 1 4.56459 4.56818 6.26223 
20 1 3.01221 3.0124 7.77597 
21 1 3.72448 3.72672 7.08186 
31 1 0.677789 0.675289 10.1033 
32 1 2.19505 2.19551 8.59117 
33 1 1.48707 1.48617 9.29674 
16 1 4.50945 6.21911 4.51542 
17 1 2.98985 7.78218 2.98625 
18 1 3.68838 7.06274 3.69033 
25 1 0.683569 10.1079 0.632098 
26 1 2.18314 8.59743 2.16855 
27 1 1.48275 9.30293 1.45098 
4 1 4.62321 6.1919 6.14421 
5 1 3.08962 7.67663 7.68012 
6 1 3.80468 6.98435 6.96396 
37 1 0.742921 10.0397 10.0367 
38 1 2.27949 8.48929 8.50583 
39 1 1.57358 9.20162 9.2091 
13 1 6.21677 4.50423 4.51728 
14 1 7.78166 2.9899 2.987 
15 1 7.06114 3.68712 3.69158 
28 1 10.108 0.682914 0.633686 
29 1 8.59696 2.18405 2.16893 
30 1 9.30247 1.48308 1.45205 
1 1 6.19038 4.62611 6.1542 
2 1 7.67704 3.09275 7.68799 
3 1 6.98386 3.80774 6.97282 
40 1 10.0403 0.741254 10.0377 
41 1 8.49032 2.27798 8.50799 
42 1 9.20249 1.57189 9.21137 
7 1 6.15596 6.14986 4.51052 
8 1 7.69696 7.69621 3.05208 
9 1 6.9736 6.97164 3.72608 
43 1 10.0432 10.0443 0.698231 
44 1 8.51451 8.51499 2.25066 
45 1 9.21822 9.21895 1.53604 
22 1 6.28847 6.27554 6.1176 
23 1 7.81161 7.79991 7.70113 
24 1 7.1504 7.12727 6.91952 
34 1 10.1057 10.1043 10.0996 
35 1 8.58005 8.57944 8.59756 
36 1 9.29142 9.29043 9.29795 
49 2 5.71787 5.94474 8.01191 
50 3 5.70001 5.97367 8.92916 
ITEM: TIMESTEP
120
ITEM: NUMBER OF ATOMS
50
ITEM: BOX BOUNDS pp pp pp
2.8471066547690708e-03 1.0997152893345229e+01
3.7351891433692170e-03 1.0998264810856623e+01
-2.6949999999999971e-02 1.1026950000000024e+01
ITEM: ATOMS id type x y z 
10 1 4.58807 4.58684 4.6158 
11 1 3.08408 3.0839 3.07685 
12 1 3.78651 3.78584 3.79559 
46 1 0.745274 0.745557 0.696964 
47 1 2.27309 2.27345 2.25555 
48 1 1.57047 1.57083 1.5388 
19 1 4.56507 4.56875 6.26267 
20 1 3.01304 3.01338 7.77805 
21 1 3.72497 3.72716 7.08328 
31 1 0.678491 0.676208 10.1082 
32 1 2.19569 2.1963 8.5943 
33 1 1.48809 1.48729 9.30037 
16 1 4.50997 6.21868 4.51482 
17 1 2.99057 7.78129 2.98406 
18 1 3.68896 7.0623 3.68851 
25 1 0.684314 10.1071 0.626891 
26 1 2.18374 8.59677 2.16514 
27 1 1.48376 9.30183 1.44699 
4 1 4.62385 6.19145 6.14447 
5 1 3.09025 7.67599 7.68215 
6 1 3.80502 6.98412 6.96553 
37 1 0.743685 10.0389 10.0415 
38 1 2.27993 8.48881 8.50907 
39 1 1.57435 9.2007 9.21286 
13 1 6.21637 4.50484 4.51664 
14 1 7.78086 2.99077 2.98476 
15 1 7.06076 3.68766 3.68984 
28 1 10.1073 0.683853 0.628459 
29 1 8.59637 2.18477 2.16549 
30 1 9.30161 1.48424 1.44812 
1 1 6.18996 4.62681 6.15449 
2 1 7.67647 3.09349 7.69008 
3 1 6.98369 3.8081 6.97436 
40 1 10.0395 0.742211 10.0426 
41 1 8.48989 2.27857 8.5113 
42 1 9.2018 1.57277 9.21499 
7 1 6.15548 6.14938 4.51012 
8 1 7.6963 7.69549 3.04953 
9 1 6.97351 6.97144 3.72445 
43 1 10.0425 10.0434 0.69311 
44 1 8.51413 8.5145 2.24717 
45 1 9.21748 9.21806 1.532 
22 1 6.2879 6.27496 6.118 
23 1 7.81084 7.79898 7.70278 
24 1 7.14983 7.1267 6.92093 
34 1 10.1051 10.1034 10.1045 
35 1 8.57947 8.57874 8.60065 
36 1 9.29048 9.28937 9.30155 
49 2 5.71776 5.94454 8.01468 
50 3 5.69987 5.97346 8.93294 
ITEM: TIMESTEP
130
ITEM: NUMBER OF ATOMS
50
ITEM: BOX BOUNDS pp pp pp
4.1784383887010172e-03 1.0995821561611297e+01
5.2801226611830241e-03 1.0996719877338810e+01
-3.2449999999999965e-02 1.1032450000000029e+01
ITEM: ATOMS id type x y z 
10 1 4.58863 4.58746 4.61527 
11 1 3.08471 3.08467 3.07456 
12 1 3.78681 3.78613 3.7938 
46 1 0.746124 0.746598 0.691755 
47 1 2.27351 2.27403 2.25197 
48 1 1.57138 1.57183 1.53476 
19 1 4.56561 4.56939 6.26305 
20 1 3.01398 3.01449 7.7801 
21 1 3.7255 3.72765 7.08468 
31 1 0.679316 0.677185 10.1132 
32 1 2.19644 2.19713 8.59743 
33 1 1.48918 1.48862 9.30403 
16 1 4.51054 6.21821 4.51428 
17 1 2.99137 7.78028 2.98191 
18 1 3.6896 7.06185 3.68668 
25 1 0.685165 10.1062 0.621588 
26 1 2.18443 8.596 2.16167 
27 1 1.48485 9.3007 1.4431 
4 1 4.62462 6.19099 6.1447 
5 1 3.091 7.67529 7.68419 
6 1 3.80534 6.98383 6.96709 
37 1 0.744519 10.0379 10.0463 
38 1 2.28038 8.48827 8.51233 
39 1 1.57526 9.19971 9.21663 
13 1 6.21593 4.50553 4.51605 
14 1 7.77995 2.99173 2.98255 
15 1 7.06035 3.68824 3.68812 
28 1 10.1065 0.68491 0.623214 
29 1 8.59577 2.1856 2.16207 
30 1 9.30053 1.48548 1.44413 
1 1 6.18953 4.6276 6.15472 
2 1 7.67586 3.09432 7.69211 
3 1 6.98344 3.80851 6.97597 
40 1 10.0387 0.743248 10.0474 
41 1 8.48944 2.2792 8.51463 
42 1 9.20099 1.57378 9.21864 
7 1 6.15497 6.14886 4.50982 
8 1 7.69554 7.69469 3.04695 
9 1 6.97341 6.97121 3.72287 
43 1 10.0418 10.0424 0.687917 
44 1 8.51372 8.51396 2.24362 
45 1 9.21664 9.21711 1.52797 
22 1 6.28725 6.27431 6.11837 
23 1 7.80996 7.79794 7.70433 
24 1 7.14918 7.12607 6.92235 
34 1 10.1042 10.1025 10.1094 
35 1 8.5788 8.578 8.6037 
36 1 9.28946 9.28811 9.30514 
49 2 5.71763 5.94431 8.01754 
50 3 5.6997 5.97323 8.93677 
ITEM: TIMESTEP
140
ITEM: NUMBER OF ATOMS
50
ITEM: BOX BOUNDS pp pp pp
4.9398815669401876e-03 1.0995060118433058e+01
6.2253226496201278e-03 1.0995774677350374e+01
-3.7949999999999956e-02 1.1037950000000034e+01
ITEM: ATOMS id type x y z 
10 1 4.58912 4.58791 4.61476 
11 1 3.08513 3.0851 3.07228 
12 1 3.78682 3.78634 3.79198 
46 1 0.746503 0.747093 0.686527 
47 1 2.27362 2.27423 2.24838 
48 1 1.57185 1.57247 1.53069 
19 1 4.56607 4.56992 6.26341 
20 1 3.01468 3.01533 7.78216 
21 1 3.72581 3.72795 7.08606 
31 1 0.679611 0.677717 10.1181 
32 1 2.19681 2.19767 8.60057 
33 1 1.48995 1.48938 9.30762 
16 1 4.51102 6.21781 4.51375 
17 1 2.99191 7.77949 2.97976 
18 1 3.69007 7.0616 3.68487 
25 1 0.685518 10.1057 0.616299 
26 1 2.18478 8.59559 2.15822 
27 1 1.48553 9.29994 1.43917 
4 1 4.62525 6.19058 6.14493 
5 1 3.09145 7.67479 7.68622 
6 1 3.80558 6.9838 6.96865 
37 1 0.744874 10.0374 10.0512 
38 1 2.28052 8.48806 8.51562 
39 1 1.57573 9.19913 9.22035 
13 1 6.21558 4.50612 4.51549 
14 1 7.77928 2.99242 2.98036 
15 1 7.0601 3.68862 3.68638 
28 1 10.1062 0.685429 0.617913 
29 1 8.59542 2.18604 2.1586 
30 1 9.29999 1.48632 1.44024 
1 1 6.18915 4.62826 6.15494 
2 1 7.67542 3.09484 7.69415 
3 1 6.98345 3.80884 6.97756 
40 1 10.0384 0.74374 10.0523 
41 1 8.48933 2.27945 8.5179 
42 1 9.20052 1.57441 9.2224 
7 1 6.15453 6.14844 4.50954 
8 1 7.69501 7.69411 3.04435 
9 1 6.97348 6.97115 3.72131 
43 1 10.0414 10.0419 0.682697 
44 1 8.51363 8.51378 2.24007 
45 1 9.2162 9.21653 1.52391 
22 1 6.28666 6.27372 6.11873 
23 1 7.80931 7.79714 7.70586 
24 1 7.1487 7.12562 6.92378 
34 1 10.1039 10.102 10.1144 
35 1 8.57848 8.57754 8.60675 
36 1 9.28876 9.28735 9.30871 
49 2 5.7175 5.94411 8.02047 
50 3 5.69955 5.97303 8.94061 
ITEM: TIMESTEP
150
ITEM: NUMBER OF ATOMS
50
ITEM: BOX BOUNDS pp pp pp
5.5262243006894843e-03 1.0994473775699307e+01
6.9607464368745950e-03 1.0995039253563117e+01
-4.3083637643483760e-02 1.1043083637643523e+01
ITEM: ATOMS id type x y z 
10 1 4.58955 4.58836 4.6143 
11 1 3.08544 3.08549 3.07016 
12 1 3.78685 3.7864 3.79029 
46 1 0.746714 0.747414 0.68159 
47 1 2.27361 2.2743 2.24502 
48 1 1.57222 1.57295 1.52687 
19 1 4.5665 4.57039 6.26365 
20 1 3.01532 3.01605 7.78402 
21 1 3.72608 3.72826 7.0874 
31 1 0.679814 0.678015 10.1228 
32 1 2.19713 2.19801 8.6035 
33 1 1.49048 1.49013 9.31099 
16 1 4.51151 6.21744 4.51327 
17 1 2.99242 7.77879 2.97773 
18 1 3.69039 7.0614 3.68326 
25 1 0.685728 10.1054 0.611337 
26 1 2.18503 8.59531 2.15501 
27 1 1.48608 9.29929 1.43547 
4 1 4.62588 6.19024 6.14512 
5 1 3.09186 7.6744 7.68811 
6 1 3.80572 6.98378 6.9701 
37 1 0.745059 10.0371 10.0558 
38 1 2.28054 8.48798 8.51869 
39 1 1.57611 9.19867 9.22386 
13 1 6.21525 4.50669 4.51501 
14 1 7.77867 2.99303 2.97833 
15 1 7.0599 3.68891 3.68479 
28 1 10.1061 0.685792 0.612977 
29 1 8.59526 2.18637 2.1554 
30 1 9.2994 1.48697 1.4365 
1 1 6.18883 4.62893 6.15515 
2 1 7.67508 3.09532 7.69607 
3 1 6.98346 3.809 6.97901 
40 1 10.0383 0.744053 10.0569 
41 1 8.48931 2.27958 8.521 
42 1 9.20017 1.57487 9.22587 
7 1 6.15414 6.14806 4.50935 
8 1 7.69452 7.6936 3.04189 
9 1 6.97362 6.97117 3.7199 
43 1 10.0413 10.0416 0.677771 
44 1 8.51365 8.51374 2.23673 
45 1 9.21588 9.21607 1.52008 
22 1 6.28607 6.27315 6.11903 
23 1 7.80874 7.79644 7.70721 
24 1 7.14826 7.12523 6.92513 
34 1 10.1037 10.1017 10.119 
35 1 8.57827 8.57724 8.60954 
36 1 9.28816 9.28667 9.31205 
49 2 5.71737 5.94391 8.02332 
50 3 5.69939 5.97285 8.94425 
ITEM: TIMESTEP
160
ITEM: NUMBER OF ATOMS
50
ITEM: BOX BOUNDS pp pp pp
6.4155118671958182e-03 1.0993584488132800e+01
7.9845906404599851e-03 1.0994015409359532e+01
-4.8216212555493063e-02 1.1048216212555538e+01
ITEM: ATOMS id type x y z 
10 1 4.59005 4.58889 4.61391 
11 1 3.08587 3.086 3.06808 
12 1 3.78694 3.78649 3.78858 
46 1 0.747136 0.747936 0.676517 
47 1 2.2737 2.27449 2.24159 
48 1 1.57281 1.5736 1.52301 
19 1 4.56703 4.57096 6.26375 
20 1 3.01616 3.01697 7.78582 
21 1 3.72648 3.7287 7.08874 
31 1 0.680209 0.67855 10.1275 
32 1 2.19759 2.19855 8.60641 
33 1 1.49134 1.49109 9.31434 
16 1 4.51217 6.21702 4.51289 
17 1 2.99315 7.77791 2.97576 
18 1 3.69076 7.06106 3.6817 
25 1 0.68614 10.105 0.606291 
26 1 2.18541 8.59488 2.15178 
27 1 1.48693 9.29845 1.43176 
4 1 4.62665 6.18986 6.14523 
5 1 3.09245 7.67389 7.68996 
6 1 3.80594 6.98371 6.97155 
37 1 0.745447 10.0366 10.0605 
38 1 2.28067 8.48779 8.52181 
39 1 1.57668 9.19803 9.22737 
13 1 6.21484 4.50739 4.51464 
14 1 7.77785 2.9938 2.97635 