ITEM: TIMESTEP
0
ITEM: NUMBER OF ATOMS
131
ITEM: BOX BOUNDS xy xz yz pp pp pp
0.0000000000000000e+00 2.3654499999999999e+01 7.8845000000000001e+00
0.0000000000000000e+00 1.3658086643083999e+01 0.0000000000000000e+00
0.0000000000000000e+00 2.5747000000000000e+01 0.0000000000000000e+00
ITEM: ATOMS id type x y z 
18 1 10.522 6.683 2.644 
28 1 5.247 4.273 12.803 
31 1 9.65 6.514 0.446 
62 1 9.171 5.15 12.405 
91 1 9.65 6.514 11.889 
92 1 10.81 6.18 11.007 
106 1 10.522 6.683 9.691 
127 1 10.81 6.18 1.328 
4 1 4.402 5.735 13.319 
5 1 3.307 5.568 14.201 
43 1 4.549 6.796 15.517 
52 1 9.172 5.15 25.677 
66 1 4.402 5.735 24.762 
67 1 5.003 6.76 23.881 
88 1 5.247 4.273 25.278 
107 1 3.307 5.568 23.881 
116 1 4.549 6.796 22.565 
117 1 5.003 6.76 14.201 
11 1 11.272 7.494 3.321 
12 1 10.477 8.871 4.018 
14 1 9.018 11.397 0.446 
15 1 10.114 11.565 1.328 
16 1 8.412 9.024 0.654 
19 1 10.477 8.871 5.569 
29 1 10.927 10.156 3.321 
32 1 8.77 7.648 1.328 
35 1 12.036 9.594 2.644 
45 1 9.231 8.963 3.321 
47 1 12.762 8.702 0.446 
49 1 11.224 11 0.654 
51 1 8.872 10.337 2.644 
53 1 11.272 7.494 9.014 
54 1 10.477 8.871 8.317 
56 1 9.018 11.397 11.889 
57 1 8.418 10.372 11.007 
58 1 11.224 11 11.681 
60 1 12.255 7.901 9.691 
61 1 10.477 8.871 6.766 
73 1 9.231 8.963 9.014 
75 1 12.762 8.702 11.889 
76 1 12.202 10.061 11.007 
79 1 9.224 7.617 9.691 
80 1 8.174 12.859 12.405 
89 1 10.927 10.156 9.014 
93 1 8.412 9.024 11.681 
95 1 9.951 11.095 9.691 
105 1 10.114 11.565 11.007 
109 1 8.77 7.648 11.007 
110 1 12.036 9.594 9.691 
114 1 8.872 10.337 9.691 
119 1 8.418 10.372 1.328 
120 1 12.255 7.901 2.644 
123 1 12.202 10.061 1.328 
124 1 9.224 7.617 2.644 
128 1 9.951 11.095 2.644 
6 1 5.009 8.108 13.527 
13 1 9.663 10.28 25.128 
17 1 9.204 8.965 25.162 
30 1 10.016 7.556 25.128 
34 1 11.289 7.464 25.162 
36 1 8.174 12.859 25.677 
46 1 11.752 8.777 25.128 
50 1 10.937 10.184 25.162 
55 1 9.663 10.28 12.954 
59 1 10.937 10.184 12.919 
74 1 11.752 8.777 12.954 
78 1 11.289 7.464 12.919 
90 1 10.016 7.556 12.954 
94 1 9.204 8.965 12.919 
101 1 5.009 8.108 24.555 
33 1 11.795 6.589 0.654 
77 1 11.795 6.589 11.681 
41 1 17.967 6.132 13.527 
68 1 17.967 6.132 24.554 
103 1 19.24 6.037 22.565 
126 1 19.24 6.037 15.517 
3 1 19.528 6.852 12.254 
7 1 19.987 8.167 12.289 
10 1 15.106 8.528 12.804 
22 1 19.175 9.576 12.254 
26 1 17.902 9.668 12.289 
38 1 17.439 8.356 12.254 
42 1 18.254 6.949 12.289 
44 1 20.019 11.982 12.804 
48 1 12.546 7.4 1.328 
65 1 19.528 6.852 0.081 
69 1 18.254 6.949 0.046 
82 1 17.439 8.356 0.081 
86 1 17.902 9.668 0.046 
96 1 14.084 8.604 12.405 
98 1 19.175 9.576 0.081 
102 1 19.987 8.167 0.046 
113 1 12.546 7.4 11.007 
1 1 17.919 9.638 16.194 
2 1 18.714 8.261 16.892 
8 1 18.669 10.449 15.517 
9 1 18.714 8.261 18.442 
20 1 14.084 8.604 25.677 
21 1 18.264 6.977 16.194 
23 1 19.541 10.618 13.32 
24 1 20.421 9.484 14.201 
25 1 17.396 10.544 13.527 
27 1 17.155 7.538 15.517 
37 1 19.96 8.169 16.194 
39 1 16.429 8.43 13.319 
40 1 16.644 9.732 14.201 
63 1 17.919 9.638 21.888 
64 1 18.714 8.261 21.19 
70 1 16.936 9.231 22.565 
71 1 18.714 8.261 19.64 
72 1 20.019 11.982 25.278 
81 1 19.96 8.169 21.888 
83 1 16.429 8.43 24.762 
84 1 16.989 7.071 23.881 
85 1 17.396 10.544 24.555 
87 1 19.967 9.515 22.565 
97 1 18.263 6.977 21.888 
99 1 19.541 10.618 24.762 
100 1 18.38 10.953 23.881 
104 1 15.106 8.528 25.278 
108 1 18.669 10.449 22.565 
111 1 20.421 9.484 23.881 
112 1 17.155 7.538 22.565 
115 1 16.644 9.732 23.881 
118 1 16.936 9.231 15.517 
121 1 16.989 7.071 14.201 
122 1 19.967 9.515 15.517 
125 1 18.38 10.953 14.201 
129 2 15.805 7.538 15.517 
130 2 14.534 8.085 16.138 
131 3 14.542 8.099 17.116 
ITEM: TIMESTEP
10
ITEM: NUMBER OF ATOMS
131
ITEM: BOX BOUNDS xy xz yz pp pp pp
0.0000000000000000e+00 2.3654499999999999e+01 7.8845000000000001e+00
0.0000000000000000e+00 1.3658086643083999e+01 0.0000000000000000e+00
0.0000000000000000e+00 2.5747000000000000e+01 0.0000000000000000e+00
ITEM: ATOMS id type x y z 
18 1 10.3831 6.76203 2.61745 
28 1 5.10732 4.56228 12.8936 
31 1 9.36648 6.49192 0.386366 
62 1 9.12455 5.27525 12.3753 
91 1 9.36096 6.50072 11.9445 
92 1 10.8426 6.20583 10.9544 
106 1 10.3851 6.77827 9.72938 
127 1 10.8429 6.19377 1.36475 
4 1 4.48412 5.81003 13.2743 
5 1 3.13733 5.60481 14.2106 
43 1 4.54582 6.96609 15.5175 
52 1 9.12398 5.27087 25.7062 
66 1 4.48058 5.70874 24.8376 
67 1 5.14686 6.94234 23.8543 
88 1 5.10936 4.55845 25.1911 
107 1 3.13225 5.63836 23.8407 
116 1 4.57356 6.9529 22.6011 
117 1 5.04781 6.935 14.1857 
11 1 11.329 7.57201 3.3843 
12 1 10.4798 8.8421 4.13413 
14 1 8.93869 11.4132 0.347711 
15 1 10.297 11.4961 1.3776 
16 1 8.41424 8.9102 0.676515 
19 1 10.4717 8.86774 5.55231 
29 1 10.9503 10.1482 3.34474 
32 1 8.72694 7.66868 1.27746 
35 1 12.0404 9.60632 2.60144 
45 1 9.25184 8.91687 3.27712 
47 1 12.7065 8.88288 0.505933 
49 1 11.3232 10.9141 0.674586 
51 1 8.83936 10.173 2.61352 
53 1 11.3287 7.56529 8.97031 
54 1 10.4778 8.84049 8.20103 
56 1 8.94414 11.3899 11.998 
57 1 8.27241 10.1922 10.9886 
58 1 11.3203 10.9186 11.6765 
60 1 12.2875 8.05542 9.59806 
61 1 10.4713 8.86801 6.7828 
73 1 9.24816 8.91824 9.06238 
75 1 12.6342 8.83608 11.7623 
76 1 12.2577 10.0772 11.0029 
79 1 9.21623 7.67792 9.8108 
80 1 8.31378 12.5685 12.3175 
89 1 10.962 10.1448 8.99339 
93 1 8.40669 8.8846 11.6561 
95 1 10.052 11.054 9.69982 
105 1 10.3069 11.5121 10.9614 
109 1 8.73525 7.66647 11.0408 
110 1 12.0356 9.60107 9.73019 
114 1 8.8456 10.17 9.7076 
119 1 8.28505 10.1707 1.35265 
120 1 12.2863 8.06915 2.78113 
123 1 12.267 10.0662 1.31615 
124 1 9.20735 7.68723 2.5333 
128 1 10.0602 11.0575 2.62608 
6 1 4.98373 8.16222 13.5358 
13 1 9.56938 10.3697 25.0534 
17 1 9.25172 8.99956 25.1319 
30 1 9.94899 7.71999 25.1043 
34 1 11.2669 7.47687 25.1269 
36 1 8.30726 12.5817 25.7607 
46 1 11.6876 8.78821 25.0891 
50 1 10.8839 10.0597 25.1587 
55 1 9.57361 10.3494 13.0247 
59 1 10.9065 10.0908 12.9105 
74 1 11.6568 8.79531 13.0066 
78 1 11.2759 7.48024 12.9535 
90 1 9.94733 7.71409 12.9785 
94 1 9.23899 9.00438 12.9543 
101 1 5.0008 8.15626 24.5831 
33 1 11.6867 6.5339 0.688632 
77 1 11.7185 6.57547 11.6217 
41 1 17.9022 6.21832 13.542 
68 1 17.8786 6.23459 24.5431 
103 1 19.1261 6.07716 22.5767 
126 1 19.0947 6.05252 15.5047 
3 1 19.6579 6.77659 12.1949 
7 1 19.9393 8.12912 12.3041 
10 1 15.1028 8.45711 12.8275 
22 1 19.2314 9.40869 12.2139 
26 1 17.9145 9.66652 12.2541 
38 1 17.5361 8.35773 12.1611 
42 1 18.3139 7.04921 12.2345 
44 1 20.0614 11.8391 12.8398 
48 1 12.7153 7.57943 1.34038 
65 1 19.6419 6.74078 0.186225 
69 1 18.3231 7.08432 0.0422771 
82 1 17.4838 8.36202 0.138573 
86 1 17.9049 9.646 0.047352 
96 1 14.0649 8.60536 12.3238 
98 1 19.2873 9.43183 0.0710362 
102 1 19.9289 8.07023 0.0468859 
113 1 12.645 7.5886 10.9912 
1 1 17.9696 9.53835 16.2868 
2 1 18.6785 8.2852 16.9315 
8 1 18.8268 10.3959 15.5143 
9 1 18.7101 8.25996 18.3987 
20 1 14.0616 8.60147 25.7596 
21 1 18.3545 7.0086 16.1913 
23 1 19.7975 10.6465 13.2634 
24 1 20.4938 9.46721 14.1451 
25 1 17.4609 10.5464 13.5801 
27 1 16.9397 7.5093 15.5359 
37 1 19.9637 8.24397 16.1954 
39 1 16.515 8.307 13.4347 
40 1 16.6029 9.62508 14.2746 
63 1 17.8502 9.55507 21.8504 
64 1 18.6945 8.28719 21.0842 
70 1 16.9092 9.10252 22.489 
71 1 18.7216 8.26489 19.6173 
72 1 20.0799 11.9346 25.276 
81 1 19.9457 8.21893 21.9166 
83 1 16.4715 8.33528 24.6411 
84 1 16.9317 7.05913 23.8899 
85 1 17.4641 10.539 24.4846 
87 1 19.9472 9.46632 22.6275 
97 1 18.2414 6.99313 21.8696 
99 1 19.808 10.6653 24.7993 
100 1 18.3216 10.9115 23.8334 
104 1 15.0767 8.48906 25.2426 
108 1 18.7931 10.3561 22.5947 
111 1 20.4626 9.48569 24.0095 
112 1 17.1556 7.5241 22.6063 
115 1 16.6252 9.54983 23.8335 
118 1 16.8753 9.12128 15.5229 
121 1 16.9804 7.02142 14.1699 
122 1 20.0038 9.47779 15.4339 
125 1 18.3652 10.9254 14.263 
129 2 15.8544 7.48486 15.6354 
130 2 14.5101 8.08861 16.1531 
131 3 14.5469 8.09822 17.1056 
ITEM: TIMESTEP
20
ITEM: NUMBER OF ATOMS
131
ITEM: BOX BOUNDS xy xz yz pp pp pp
0.0000000000000000e+00 2.3654499999999999e+01 7.8845000000000001e+00
0.0000000000000000e+00 1.3658086643083999e+01 0.0000000000000000e+00
0.0000000000000000e+00 2.5747000000000000e+01 0.0000000000000000e+00
ITEM: ATOMS id type x y z 
18 1 10.3845 6.81283 2.62731 
28 1 5.0876 4.63929 12.9174 
31 1 9.3437 6.56616 0.367579 
62 1 9.06235 5.29073 12.377 
91 1 9.36057 6.56204 11.9441 
92 1 10.7986 6.22886 10.9539 
106 1 10.3957 6.81461 9.70591 
127 1 10.8077 6.2107 1.38361 
4 1 4.4412 5.86686 13.2809 
5 1 3.12811 5.63379 14.1888 
43 1 4.53367 6.94206 15.5276 
52 1 9.06217 5.29 25.7054 
66 1 4.42578 5.81447 24.8109 
67 1 5.10905 6.98007 23.8758 
88 1 5.08622 4.62751 25.1695 
107 1 3.13412 5.68335 23.8746 
116 1 4.56612 6.98517 22.6003 
117 1 5.04146 6.99196 14.1952 
11 1 11.3583 7.57276 3.38512 
12 1 10.4833 8.85542 4.11047 
14 1 8.97878 11.3055 0.398383 
15 1 10.2832 11.4594 1.33752 
16 1 8.36676 8.90432 0.67483 
19 1 10.466 8.86505 5.5581 
29 1 10.9518 10.1325 3.35901 
32 1 8.64567 7.64947 1.24485 
35 1 12.0791 9.61329 2.63356 
45 1 9.23491 8.92986 3.26774 
47 1 12.7039 9.01689 0.406912 
49 1 11.3439 10.8986 0.651665 
51 1 8.8433 10.157 2.60326 
53 1 11.3483 7.5873 8.96754 
54 1 10.4974 8.83262 8.23531 
56 1 8.98759 11.2906 11.9449 
57 1 8.32316 10.1228 11.0138 
58 1 11.3535 10.9131 11.6808 
60 1 12.2984 8.06373 9.57783 
61 1 10.4681 8.86349 6.78125 
73 1 9.23541 8.92243 9.07073 
75 1 12.6678 8.86395 11.8176 
76 1 12.298 10.1074 10.9844 
79 1 9.19369 7.66873 9.81292 
80 1 8.34538 12.4784 12.2981 
89 1 10.9555 10.1248 8.97663 
93 1 8.35936 8.9024 11.67 
95 1 10.042 11.0167 9.70227 
105 1 10.2926 11.462 10.9966 
109 1 8.64315 7.65233 11.0785 
110 1 12.0657 9.65058 9.7116 
114 1 8.83874 10.1607 9.72691 
119 1 8.32631 10.1211 1.31864 
120 1 12.2857 8.11834 2.82802 
123 1 12.3173 10.1143 1.33931 
124 1 9.19267 7.66452 2.5233 
128 1 10.0409 11.0144 2.64253 
6 1 5.05036 8.21785 13.5638 
13 1 9.56096 10.3481 25.0363 
17 1 9.18612 8.99046 25.1011 
30 1 9.91052 7.70805 25.0806 
34 1 11.2506 7.47326 25.1877 
36 1 8.33845 12.4949 25.7821 
46 1 11.6744 8.82 25.0777 
50 1 10.9128 10.1001 25.1517 
55 1 9.57051 10.3249 13.0382 
59 1 10.9304 10.1128 12.9252 
74 1 11.6704 8.8219 12.9858 
78 1 11.2448 7.50373 12.9323 
90 1 9.90303 7.71359 13.0139 
94 1 9.16992 8.99012 12.9654 
101 1 5.0656 8.1687 24.5798 
33 1 11.6753 6.60039 0.637549 
77 1 11.7266 6.63629 11.6364 
41 1 17.8662 6.25266 13.5023 
68 1 17.8534 6.26313 24.5546 
103 1 19.148 6.12488 22.5765 
126 1 19.1123 6.05481 15.4836 
3 1 19.6191 6.81417 12.1584 
7 1 20.0126 8.15072 12.2609 
10 1 15.1404 8.41379 12.8235 
22 1 19.2684 9.425 12.1739 
26 1 17.9362 9.64133 12.275 
38 1 17.5157 8.30915 12.2196 
42 1 18.2617 7.0158 12.2262 
44 1 20.1226 11.8394 12.832 
48 1 12.7114 7.50167 1.40886 
65 1 19.6163 6.74587 0.191761 
69 1 18.2477 7.03113 0.0652547 
82 1 17.5342 8.33234 0.0974063 
86 1 17.9433 9.63221 0.0335169 
96 1 14.062 8.61844 12.3301 
98 1 19.3224 9.44513 0.0200056 
102 1 20.0532 8.06689 0.0776721 
113 1 12.5716 7.61044 10.9373 
1 1 17.9507 9.55038 16.2867 
2 1 18.665 8.31293 16.9271 
8 1 18.8551 10.3464 15.5351 
9 1 18.7077 8.26357 18.3971 
20 1 14.0355 8.60588 25.7815 
21 1 18.3662 7.09293 16.1959 
23 1 19.8145 10.5695 13.265 
24 1 20.5564 9.48149 14.1424 
25 1 17.4886 10.5055 13.5762 
27 1 16.937 7.46461 15.5685 
37 1 19.9451 8.2232 16.2089 
39 1 16.5224 8.28635 13.384 
40 1 16.6254 9.52282 14.2661 
63 1 17.8496 9.52196 21.8237 
64 1 18.6906 8.29289 21.0973 
70 1 16.9011 9.07208 22.4535 
71 1 18.7224 8.26513 19.6104 
72 1 20.1451 11.9606 25.2954 
81 1 19.9445 8.22724 21.9374 
83 1 16.4576 8.29525 24.6861 
84 1 16.8942 7.04338 23.8709 
85 1 17.4565 10.4899 24.4867 
87 1 19.9678 9.46101 22.7025 
97 1 18.2322 7.0158 21.8449 
99 1 19.779 10.6342 24.8065 
100 1 18.409 10.9015 23.8385 
104 1 15.109 8.43679 25.2563 
108 1 18.8073 10.3109 22.5639 
111 1 20.4934 9.4802 24.0331 
112 1 17.1187 7.48413 22.596 
115 1 16.6467 9.52325 23.795 
118 1 16.8875 9.08422 15.542 
121 1 16.9257 7.06984 14.1371 
122 1 20.0381 9.51323 15.4078 
125 1 18.4092 10.9153 14.2601 
129 2 15.8157 7.43851 15.7262 
130 2 14.4902 8.09201 16.1516 
131 3 14.5506 8.09774 17.1109 
ITEM: TIMESTEP
30
ITEM: NUMBER OF ATOMS
131
ITEM: BOX BOUNDS xy xz yz pp pp pp
0.0000000000000000e+00 2.3654499999999999e+01 7.8845000000000001e+00
0.0000000000000000e+00 1.3658086643083999e+01 0.0000000000000000e+00
0.0000000000000000e+00 2.5747000000000000e+01 0.0000000000000000e+00
ITEM: ATOMS id type x y z 
18 1 10.3764 6.82471 2.63244 
28 1 5.09687 4.63467 12.916 
31 1 9.33376 6.58189 0.363192 
62 1 9.04296 5.29265 12.378 
91 1 9.36062 6.5727 11.9415 
92 1 10.7894 6.23789 10.9675 
106 1 10.3791 6.81854 9.70036 
127 1 10.7967 6.21858 1.3892 
4 1 4.42491 5.88176 13.2888 
5 1 3.13373 5.65556 14.1857 
43 1 4.53888 6.95315 15.5359 
52 1 9.04318 5.29123 25.704 
66 1 4.41679 5.84938 24.7994 
67 1 5.08841 6.98357 23.8857 
88 1 5.09518 4.61798 25.1716 
107 1 3.14426 5.69511 23.8795 
116 1 4.57021 6.99227 22.6082 
117 1 5.03676 6.9993 14.19 
11 1 11.356 7.57721 3.38395 
12 1 10.4856 8.8554 4.10557 
14 1 8.99905 11.2655 0.404458 
15 1 10.2754 11.436 1.32965 
16 1 8.35517 8.89343 0.661725 
19 1 10.4645 8.8659 5.56042 
29 1 10.9549 10.1187 3.35274 
32 1 8.63391 7.64371 1.25121 
35 1 12.088 9.62082 2.63135 
45 1 9.22833 8.92426 3.26071 
47 1 12.6932 8.99287 0.42666 
49 1 11.3447 10.9012 0.659003 
51 1 8.84583 10.154 2.5994 
53 1 11.353 7.5955 8.96319 
54 1 10.4973 8.83304 8.23843 
56 1 9.002 11.2615 11.9204 
57 1 8.3391 10.1231 11.0191 
58 1 11.3595 10.9078 11.6798 
60 1 12.2983 8.07498 9.58324 
61 1 10.467 8.86082 6.78267 
73 1 9.22964 8.92411 9.07636 
75 1 12.6831 8.8564 11.802 
76 1 12.3016 10.1038 10.9915 
79 1 9.19082 7.66329 9.80936 
80 1 8.33411 12.4903 12.3017 
89 1 10.9549 10.1202 8.98298 
93 1 8.3491 8.89224 11.6706 
95 1 10.0381 11.0193 9.69778 
105 1 10.2817 11.4391 11.0068 
109 1 8.63099 7.65194 11.0815 
110 1 12.0807 9.64985 9.70756 
114 1 8.8435 10.1517 9.73404 
119 1 8.33941 10.1299 1.31433 
120 1 12.2852 8.12365 2.82279 
123 1 12.3218 10.1076 1.33363 
124 1 9.19496 7.65935 2.52562 
128 1 10.0383 11.0192 2.64097 
6 1 5.05554 8.23593 13.5634 
13 1 9.56279 10.3246 25.053 
17 1 9.15699 8.97442 25.0981 
30 1 9.90938 7.71613 25.0809 
34 1 11.2496 7.49016 25.1589 
36 1 8.32906 12.5031 25.7799 
46 1 11.6739 8.83225 25.0975 
50 1 10.9331 10.1247 25.1439 
55 1 9.57099 10.3198 13.0423 
59 1 10.9345 10.1094 12.9261 
74 1 11.6716 8.82648 12.9747 
78 1 11.2392 7.50782 12.9377 
90 1 9.90503 7.71193 13.019 
94 1 9.16873 8.9793 12.9666 
101 1 5.06947 8.19417 24.5647 
33 1 11.6781 6.59464 0.645871 
77 1 11.7246 6.65448 11.6317 
41 1 17.8555 6.2546 13.499 
68 1 17.8379 6.25876 24.5609 
103 1 19.1506 6.12373 22.5646 
126 1 19.1073 6.08506 15.4926 
3 1 19.6226 6.8205 12.1547 
7 1 20.0167 8.1627 12.2554 
10 1 15.1473 8.40406 12.8154 
22 1 19.2786 9.4291 12.1751 
26 1 17.944 9.63606 12.2673 
38 1 17.5138 8.3105 12.2173 
42 1 18.2598 7.02328 12.2258 
44 1 20.1425 11.8366 12.831 
48 1 12.7097 7.53744 1.40738 
65 1 19.6089 6.77333 0.175951 
69 1 18.2436 7.03404 0.0734348 
82 1 17.5358 8.32156 0.084764 
86 1 17.954 9.61509 0.0378183 
96 1 14.0561 8.63346 12.3437 
98 1 19.3271 9.42506 0.034066 
102 1 20.0493 8.0986 0.0892433 
113 1 12.5472 7.6299 10.9413 
1 1 17.9499 9.56218 16.2819 
2 1 18.6806 8.32286 16.9043 
8 1 18.8522 10.3451 15.5371 
9 1 18.7089 8.26538 18.406 
20 1 14.0307 8.62755 25.7654 
21 1 18.3097 7.04361 16.1804 
23 1 19.8228 10.5565 13.2699 
24 1 20.5591 9.47984 14.1412 
25 1 17.4944 10.4901 13.5807 
27 1 16.9391 7.46405 15.5617 
37 1 19.98 8.258 16.1781 
39 1 16.5147 8.27684 13.3812 
40 1 16.6323 9.51899 14.2619 
63 1 17.8507 9.5222 21.8238 
64 1 18.6915 8.29632 21.1043 
70 1 16.9032 9.05806 22.4493 
71 1 18.7218 8.26471 19.6182 
72 1 20.1537 11.9224 25.2867 
81 1 19.952 8.22242 21.9494 
83 1 16.4611 8.29407 24.6784 
84 1 16.8847 7.04755 23.8702 
85 1 17.4662 10.4787 24.4867 
87 1 19.9757 9.46244 22.7119 
97 1 18.2311 7.018 21.8522 
99 1 19.798 10.6551 24.8086 
100 1 18.4183 10.8926 23.8405 
104 1 15.1282 8.41834 25.2696 
108 1 18.8121 10.305 22.5672 
111 1 20.5085 9.46908 24.0262 
112 1 17.1051 7.48487 22.5871 
115 1 16.644 9.50762 23.8016 
118 1 16.8916 9.06459 15.5443 
121 1 16.9165 7.06538 14.1512 
122 1 20.0479 9.47946 15.424 
125 1 18.4218 10.9069 14.2504 
129 2 15.814 7.42477 15.7529 
130 2 14.4829 8.09368 16.1526 
131 3 14.552 8.09742 17.1109 
ITEM: TIMESTEP
40
ITEM: NUMBER OF ATOMS
131
ITEM: BOX BOUNDS xy xz yz pp pp pp
0.0000000000000000e+00 2.3654499999999999e+01 7.8845000000000001e+00
0.0000000000000000e+00 1.3658086643083999e+01 0.0000000000000000e+00
0.0000000000000000e+00 2.5747000000000000e+01 0.0000000000000000e+00
ITEM: ATOMS id type x y z 
18 1 10.3691 6.83251 2.63766 
28 1 5.11184 4.64397 12.9186 
31 1 9.31145 6.60419 0.353917 
62 1 8.98749 5.30135 12.3807 
91 1 9.35179 6.58092 11.9391 
92 1 10.7538 6.26652 10.9818 
106 1 10.3724 6.8272 9.69353 
127 1 10.7883 6.25193 1.38091 
4 1 4.42016 5.912 13.2953 
5 1 3.1208 5.67699 14.1744 
43 1 4.51138 6.98195 15.5587 
52 1 8.99293 5.3115 25.7038 
66 1 4.41655 5.8709 24.7894 
67 1 5.0888 6.99605 23.9037 
88 1 5.10064 4.62876 25.166 
107 1 3.13527 5.72812 23.8833 
116 1 4.56334 6.98243 22.606 
117 1 5.0075 7.01777 14.193 
11 1 11.3552 7.59303 3.38567 
12 1 10.479 8.84519 4.10702 
14 1 8.99519 11.2457 0.421657 
15 1 10.2642 11.4109 1.32213 
16 1 8.32934 8.87255 0.64514 
19 1 10.4594 8.865 5.56219 
29 1 10.9539 10.108 3.34141 
32 1 8.60075 7.6348 1.25029 
35 1 12.1137 9.63807 2.632 
45 1 9.2235 8.91662 3.25975 
47 1 12.6878 8.93701 0.481013 
49 1 11.3654 10.8858 0.649216 
51 1 8.85243 10.1504 2.59919 
53 1 11.3457 7.60878 8.96007 
54 1 10.4952 8.82089 8.23927 
56 1 9.00328 11.2323 11.9187 
57 1 8.33899 10.1069 11.0352 
58 1 11.3725 10.886 11.6877 
60 1 12.2877 8.10039 9.57074 
61 1 10.4644 8.8559 6.78014 
73 1 9.23086 8.91478 9.07414 
75 1 12.7004 8.86892 11.7975 
76 1 12.3249 10.1199 10.9824 
79 1 9.16255 7.65782 9.80936 
80 1 8.32085 12.4877 12.2999 
89 1 10.9553 10.1124 8.99426 
93 1 8.32393 8.87103 11.6835 
95 1 10.0342 11.0143 9.68317 
105 1 10.2802 11.4142 11.0117 
109 1 8.60364 7.64002 11.0738 
110 1 12.1078 9.66292 9.6988 
114 1 8.85394 10.1497 9.73624 
119 1 8.34072 10.1113 1.29291 
120 1 12.2843 8.14115 2.84152 
123 1 12.3404 10.1162 1.33203 
124 1 9.17607 7.65274 2.52833 
128 1 10.0383 11.0117 2.65637 
6 1 5.07686 8.24183 13.5497 
13 1 9.5488 10.3176 25.0214 
17 1 9.17571 8.97073 25.1065 
30 1 9.90786 7.71241 25.0768 
34 1 11.265 7.48541 25.1542 
36 1 8.32228 12.4878 25.7859 
46 1 11.6664 8.84011 25.1092 
50 1 10.9131 10.1119 25.1457 
55 1 9.56243 10.3103 13.0468 
59 1 10.9334 10.1037 12.9339 
74 1 11.6719 8.82308 12.9609 
78 1 11.248 7.51101 12.959 
90 1 9.90385 7.70824 13.038 
94 1 9.16956 8.97081 12.9713 
101 1 5.09889 8.21054 24.5784 
33 1 11.657 6.61952 0.637058 
77 1 11.7011 6.68186 11.63 
41 1 17.8264 6.27095 13.4946 
68 1 17.8145 6.25669 24.5621 
103 1 19.1537 6.1288 22.5542 
126 1 19.0958 6.1079 15.4753 
3 1 19.6342 6.83873 12.1454 
7 1 20.0273 8.17108 12.2386 
10 1 15.1558 8.38741 12.8092 
22 1 19.2874 9.43272 12.1658 
26 1 17.9489 9.63757 12.2505 
38 1 17.5207 8.318 12.2089 
42 1 18.2653 7.03903 12.2264 
44 1 20.2003 11.8323 12.8273 
48 1 12.6881 7.60645 1.3638 
65 1 19.6173 6.78765 0.183948 
69 1 18.2565 7.03231 0.0691037 
82 1 17.5396 8.32179 0.0757802 
86 1 17.9575 9.62048 0.0381411 
96 1 14.0625 8.66015 12.3695 
98 1 19.3371 9.40602 0.0334559 
102 1 20.0472 8.11302 0.124558 
113 1 12.522 7.64253 10.9292 
1 1 17.9738 9.52496 16.294 
2 1 18.7104 8.30941 16.8897 
8 1 18.8595 10.3393 15.5352 
9 1 18.7113 8.27505 18.3801 
20 1 14.0417 8.66276 25.7306 
21 1 18.2943 7.0521 16.2012 
23 1 19.8503 10.5454 13.2728 
24 1 20.5889 9.49221 14.1449 
25 1 17.5142 10.457 13.5802 
27 1 16.9128 7.45325 15.577 
37 1 19.9939 8.27212 16.2216 
39 1 16.5149 8.24835 13.3864 
40 1 16.6452 9.49028 14.2664 
63 1 17.8528 9.50736 21.8208 
64 1 18.7011 8.29969 21.0957 
70 1 16.9081 9.03462 22.4468 
71 1 18.7192 8.26613 19.5872 
72 1 20.2033 11.9062 25.2958 
81 1 19.9492 8.22943 21.9483 
83 1 16.4688 8.275 24.6708 
84 1 16.8643 7.03265 23.8635 
85 1 17.4841 10.438 24.4919 
87 1 19.997 9.46244 22.7123 
97 1 18.2279 7.03294 21.8573 
99 1 19.8246 10.7038 24.8015 
100 1 18.425 10.8819 23.8406 
104 1 15.1436 8.39163 25.2928 
108 1 18.8207 10.2968 22.5661 
111 1 20.5294 9.47224 24.0333 
112 1 17.0791 7.47483 22.5686 
115 1 16.6468 9.49039 23.796 
118 1 16.9025 9.05252 15.5442 
121 1 16.885 7.04229 14.1308 
122 1 20.0698 9.52142 15.4206 
125 1 18.4517 10.8778 14.2396 
129 2 15.8216 7.38209 15.8245 
130 2 14.4614 8.09885 16.1547 
131 3 14.5568 8.09617 17.1108 
ITEM: TIMESTEP
50
ITEM: NUMBER OF ATOMS
131
ITEM: BOX BOUNDS xy xz yz pp pp pp
0.0000000000000000e+00 2.3654499999999999e+01 7.8845000000000001e+00
0.0000000000000000e+00 1.3658086643083999e+01 0.0000000000000000e+00
0.0000000000000000e+00 2.5747000000000000e+01 0.0000000000000000e+00
ITEM: ATOMS id type x y z 
18 1 10.3658 6.84315 2.63583 
28 1 5.11292 4.65902 12.9234 
31 1 9.30201 6.60936 0.348456 
62 1 8.96338 5.30609 12.3825 
91 1 9.34269 6.58253 11.9438 
92 1 10.7433 6.27674 10.9818 
106 1 10.3627 6.83619 9.69634 
127 1 10.7841 6.26115 1.38193 
4 1 4.41775 5.91086 13.2896 
5 1 3.11393 5.68542 14.1697 
43 1 4.52566 6.97511 15.5493 
52 1 8.97132 5.31607 25.7018 
66 1 4.41804 5.87326 24.7943 
67 1 5.09054 7.0065 23.902 
88 1 5.10064 4.63872 25.1614 
107 1 3.13162 5.72962 23.8806 
116 1 4.56838 6.99039 22.611 
117 1 5.01145 7.02758 14.1942 
11 1 11.3539 7.59348 3.38235 
12 1 10.4779 8.84203 4.10645 
14 1 8.99068 11.2413 0.411541 
15 1 10.2712 11.4077 1.32436 
16 1 8.32507 8.87037 0.64313 
19 1 10.457 8.86329 5.56257 
29 1 10.9544 10.1054 3.34249 
32 1 8.5895 7.63577 1.25328 
35 1 12.1175 9.64216 2.63729 
45 1 9.22257 8.91519 3.25685 
47 1 12.6994 8.96482 0.465906 
49 1 11.3626 10.8847 0.650355 
51 1 8.84654 10.1452 2.59178 
53 1 11.3423 7.60883 8.96137 
54 1 10.4957 8.81923 8.23819 
56 1 8.99832 11.2317 11.926 
57 1 8.33572 10.0993 11.0338 
58 1 11.3718 10.8814 11.6843 
60 1 12.2839 8.10532 9.56897 
61 1 10.4632 8.85432 6.78076 
73 1 9.22936 8.91566 9.07678 
75 1 12.6992 8.87534 11.797 
76 1 12.335 10.1214 10.9826 
79 1 9.15879 7.65407 9.80728 
80 1 8.32093 12.4749 12.2955 
89 1 10.9556 10.1092 8.99378 
93 1 8.32004 8.86591 11.6856 
95 1 10.0359 11.0098 9.68999 
105 1 10.2833 11.41 11.0116 
109 1 8.59611 7.63725 11.0746 
110 1 12.1106 9.6694 9.69589 
114 1 8.84944 10.1449 9.74247 
119 1 8.33622 10.1009 1.29569 
120 1 12.2864 8.1446 2.83997 
123 1 12.3457 10.1215 1.33754 
124 1 9.1709 7.65125 2.52752 
128 1 10.0366 11.0077 2.64799 
6 1 5.07757 8.25002 13.5497 
13 1 9.54601 10.3176 25.0234 
17 1 9.173 8.96433 25.1071 
30 1 9.90821 7.70885 25.0744 
34 1 11.256 7.48519 25.1458 
36 1 8.32049 12.4779 25.7896 
46 1 11.6673 8.83507 25.108 
50 1 10.9111 10.1088 25.1427 
55 1 9.55974 10.3068 13.0471 
59 1 10.9315 10.1 12.9357 
74 1 11.674 8.82383 12.9608 
78 1 11.2475 7.50814 12.9614 
90 1 9.90532 7.70705 13.0414 
94 1 9.16802 8.96642 12.972 
101 1 5.10042 8.21318 24.5893 
33 1 11.6543 6.6253 0.634381 
77 1 11.6933 6.69124 11.6299 
41 1 17.8238 6.27208 13.4893 
68 1 17.8159 6.26249 24.5603 
103 1 19.1467 6.13525 22.5596 
126 1 19.0925 6.11585 15.4742 
3 1 19.6374 6.84025 12.145 
7 1 20.032 8.17632 12.2367 
10 1 15.1517 8.38764 12.813 
22 1 19.2904 9.43556 12.1648 
26 1 17.9529 9.64012 12.2458 
38 1 17.5231 8.31966 12.2089 
42 1 18.2707 7.04222 12.2255 
44 1 20.225 11.8261 12.827 
48 1 12.6747 7.59509 1.38562 
65 1 19.6231 6.78315 0.186564 
69 1 18.2607 7.03508 0.0662115 
82 1 17.5437 8.32342 0.073657 
86 1 17.9641 9.6224 0.0439037 
96 1 14.0644 8.66181 12.3646 
98 1 19.3373 9.41498 0.0333319 
102 1 20.0555 8.10941 0.121524 
113 1 12.5214 7.65415 10.9309 
1 1 17.966 9.54405 16.2804 
2 1 18.6982 8.32031 16.8978 
8 1 18.8672 10.3363 15.5352 
9 1 18.7132 8.27311 18.3931 
20 1 14.0455 8.66554 25.7283 
21 1 18.3074 7.0533 16.1923 
23 1 19.858 10.5463 13.2667 
24 1 20.598 9.49425 14.149 
25 1 17.5196 10.4475 13.5802 
27 1 16.908 7.44517 15.5713 
37 1 19.9976 8.27449 16.2027 
39 1 16.5178 8.24662 13.3841 
40 1 16.6535 9.48228 14.2633 
63 1 17.8586 9.50193 21.8223 
64 1 18.7004 8.30267 21.0968 
70 1 16.9098 9.03006 22.4442 
71 1 18.7197 8.26934 19.6042 
72 1 20.2281 11.9076 25.3024 
81 1 19.9538 8.22655 21.9498 
83 1 16.4738 8.26974 24.6692 
84 1 16.854 7.02634 23.8586 
85 1 17.4868 10.4335 24.4846 
87 1 20.0001 9.46363 22.715 
97 1 18.2278 7.03333 21.8528 
99 1 19.8191 10.6964 24.7942 
100 1 18.4347 10.8788 23.8415 
104 1 15.1449 8.39138 25.289 
108 1 18.8241 10.2894 22.5655 
111 1 20.5374 9.47566 24.0365 
112 1 17.0749 7.46795 22.5678 
115 1 16.6485 9.47889 23.7981 
118 1 16.9021 9.04267 15.5459 
121 1 16.8735 7.03714 14.1408 
122 1 20.0824 9.50982 15.4299 
125 1 18.4622 10.8668 14.2345 
129 2 15.8215 7.36271 15.8541 
130 2 14.4513 8.10148 16.1557 
131 3 14.5592 8.09548 17.1105 
ITEM: TIMESTEP
60
ITEM: NUMBER OF ATOMS
131
ITEM: BOX BOUNDS xy xz yz pp pp pp
0.0000000000000000e+00 2.3654499999999999e+01 7.8845000000000001e+00
0.0000000000000000e+00 1.3658086643083999e+01 0.0000000000000000e+00
0.0000000000000000e+00 2.5747000000000000e+01 0.0000000000000000e+00
ITEM: ATOMS id type x y z 
18 1 10.3624 6.84458 2.6342 
28 1 5.11569 4.66716 12.926 
31 1 9.29524 6.61303 0.346197 
62 1 8.94434 5.30976 12.3842 
91 1 9.33714 6.5838 11.9469 
92 1 10.7356 6.28403 10.9843 
106 1 10.3582 6.83843 9.69687 
127 1 10.7788 6.26619 1.38059 
4 1 4.41597 5.91484 13.2894 
5 1 3.11157 5.69106 14.1674 
43 1 4.52524 6.97728 15.5486 
52 1 8.95466 5.32169 25.7007 
66 1 4.4174 5.8772 24.7945 
67 1 5.09173 7.01118 23.9024 
88 1 5.10302 4.64242 25.1589 
107 1 3.13086 5.73253 23.8817 
116 1 4.57012 6.99349 22.6146 
117 1 5.01216 7.03224 14.1919 
11 1 11.3545 7.59607 3.38399 
12 1 10.4784 8.84209 4.10552 
14 1 8.99025 11.235 0.405715 
15 1 10.275 11.4056 1.32413 
16 1 8.31816 8.86709 0.641598 
19 1 10.4553 8.86187 5.56193 
29 1 10.9529 10.1025 3.34163 
32 1 8.58268 7.63198 1.25374 
35 1 12.1197 9.64645 2.64019 
45 1 9.2199 8.91613 3.25596 
47 1 12.7009 8.97141 0.462473 
49 1 11.3638 10.8829 0.650759 
51 1 8.84429 10.1426 2.58873 
53 1 11.3406 7.60969 8.96183 
54 1 10.496 8.819 8.2383 
56 1 8.99761 11.2283 11.927 
57 1 8.33313 10.0941 11.0346 
58 1 11.373 10.8789 11.6849 
60 1 12.282 8.10876 9.56857 
61 1 10.462 8.85302 6.78078 
73 1 9.2263 8.91763 9.07883 
75 1 12.6992 8.88029 11.7965 
76 1 12.3405 10.1231 10.981 
79 1 9.15239 7.65323 9.80566 
80 1 8.31825 12.4696 12.2936 
89 1 10.956 10.1071 8.99482 
93 1 8.31693 8.86195 11.6879 
95 1 10.0351 11.0071 9.69207 
105 1 10.2825 11.4054 11.0142 
109 1 8.58901 7.63571 11.0763 
110 1 12.1131 9.67393 9.69366 
114 1 8.84817 10.1411 9.74514 
119 1 8.33097 10.0958 1.29838 
120 1 12.2876 8.14962 2.84492 
123 1 12.3489 10.1233 1.33882 
124 1 9.16317 7.65076 2.52617 
128 1 10.0352 11.0035 2.64689 
6 1 5.07913 8.25365 13.5489 
13 1 9.54817 10.3099 25.0247 
17 1 9.16734 8.96254 25.1029 
30 1 9.90811 7.70842 25.0732 
34 1 11.2552 7.48662 25.137 
36 1 8.31526 12.477 25.7903 
46 1 11.6652 8.83333 25.1119 
50 1 10.9124 10.1082 25.1399 
55 1 9.56029 10.3032 13.0497 
59 1 10.9291 10.0966 12.9356 
74 1 11.6737 8.82433 12.9619 
78 1 11.2469 7.50774 12.9631 
90 1 9.90616 7.70516 13.044 
94 1 9.16642 8.9631 12.9723 
101 1 5.10328 8.2177 24.5935 
33 1 11.6501 6.62414 0.631612 
77 1 11.6883 6.69798 11.6296 
41 1 17.8212 6.27342 13.4863 
68 1 17.8145 6.26377 24.5592 
103 1 19.1477 6.13805 22.5611 
126 1 19.0935 6.12084 15.4696 
3 1 19.6399 6.84255 12.1438 
7 1 20.0351 8.17979 12.2363 
10 1 15.1507 8.38718 12.8146 
22 1 19.294 9.43714 12.1628 
26 1 17.9545 9.64188 12.2433 
38 1 17.5248 8.32009 12.2094 
42 1 18.2731 7.04633 12.2243 
44 1 20.2449 11.823 12.8259 
48 1 12.673 7.60283 1.38661 
65 1 19.625 6.78538 0.187911 
69 1 18.2636 7.03604 0.0653373 
82 1 17.5459 8.3228 0.0728914 
86 1 17.9698 9.62399 0.0436356 
96 1 14.0656 8.66355 12.3627 
98 1 19.3404 9.41809 0.0323718 
102 1 20.0586 8.11225 0.12409 
113 1 12.5187 7.66034 10.9306 
1 1 17.9673 9.54435 16.2783 
2 1 18.6991 8.32414 16.8974 
8 1 18.8735 10.3326 15.5355 
9 1 18.7135 8.274 18.3936 
20 1 14.0483 8.66821 25.7261 
21 1 18.3056 7.05677 16.1894 
23 1 19.8656 10.5452 13.2644 
24 1 20.6056 9.49579 14.1493 
25 1 17.5259 10.4413 13.5786 
27 1 16.9071 7.44057 15.5694 
37 1 19.9992 8.27536 16.2022 
39 1 16.5189 8.24063 13.3817 
40 1 16.6572 9.47866 14.2622 
63 1 17.859 9.49906 21.8224 
64 1 18.7005 8.30442 21.0971 
70 1 16.9105 9.02583 22.4436 
71 1 18.7205 8.27107 19.604 
72 1 20.2451 11.9013 25.3046 
81 1 19.9564 8.22409 21.9524 
83 1 16.476 8.26393 24.6688 
84 1 16.8482 7.02357 23.8566 
85 1 17.4909 10.4295 24.4825 
87 1 20.0063 9.4618 22.7183 
97 1 18.2272 7.03522 21.8529 
99 1 19.8206 10.6953 24.7932 
100 1 18.4394 10.876 23.8434 
104 1 15.1471 8.39021 25.2866 
108 1 18.8266 10.2886 22.5657 
111 1 20.5415 9.47991 24.0387 
112 1 17.0718 7.46281 22.5647 
115 1 16.6508 9.47316 23.7972 
118 1 16.904 9.03408 15.5473 
121 1 16.8653 7.03592 14.1467 
122 1 20.0886 9.51161 15.4333 
125 1 18.4697 10.8606 14.2293 
129 2 15.8252 7.34778 15.8761 
130 2 14.4431 8.10364 16.1564 
131 3 14.5612 8.09489 17.1101 
ITEM: TIMESTEP
70
ITEM: NUMBER OF ATOMS
131
ITEM: BOX BOUNDS xy xz yz pp pp pp
0.0000000000000000e+00 2.3654499999999999e+01 7.8845000000000001e+00
0.0000000000000000e+00 1.3658086643083999e+01 0.0000000000000000e+00
0.0000000000000000e+00 2.5747000000000000e+01 0.0000000000000000e+00
ITEM: ATOMS id type x y z 
18 1 10.3551 6.85669 2.6302 
28 1 5.12631 4.68633 12.9325 
31 1 9.27547 6.61826 0.343347 
62 1 8.88917 5.32116 12.3894 
91 1 9.32055 6.5876 11.9547 
92 1 10.7135 6.30338 10.992 
106 1 10.3454 6.84651 9.69734 
127 1 10.7669 6.28289 1.3746 
4 1 4.41325 5.92716 13.2878 
5 1 3.10217 5.70473 14.1593 
43 1 4.52853 6.98419 15.5454 
52 1 8.90559 5.33635 25.6965 
66 1 4.41863 5.88689 24.7946 
67 1 5.09759 7.02374 23.9101 
88 1 5.10977 4.65393 25.1516 
107 1 3.12892 5.74004 23.8836 
116 1 4.5758 6.99681 22.6224 
117 1 5.01452 7.04318 14.1899 
11 1 11.353 7.60206 3.3818 
12 1 10.475 8.83903 4.10401 