ITEM: TIMESTEP
0
ITEM: NUMBER OF ATOMS
162
ITEM: BOX BOUNDS xy xz yz pp pp pp
-6.7755000000000001e+00 1.3552000000000000e+01 -6.7755000000000001e+00
0.0000000000000000e+00 1.1735510246683001e+01 0.0000000000000000e+00
0.0000000000000000e+00 2.2149999999999999e+01 0.0000000000000000e+00
ITEM: ATOMS id type x y z 
8 1 -2.486 5.297 9.849 
87 1 3.001 4.231 10.696 
90 1 2.733 5.481 9.824 
109 1 -2.486 5.297 0.765 
158 1 2.733 5.481 0.79 
11 1 4.24 4.139 20.131 
14 1 3.031 4.094 19.728 
18 1 1.299 5.827 18.554 
33 1 2.266 4.151 20.924 
43 1 4.343 3.96 21.647 
47 1 3.32 5.732 17.88 
52 1 4.24 4.139 12.633 
76 1 2.552 4.924 14.209 
85 1 4.343 3.96 11.117 
89 1 3.32 5.732 14.883 
91 1 1.036 5.037 11.84 
102 1 3.031 4.094 13.035 
105 1 1.299 5.827 14.209 
114 1 2.266 4.151 11.84 
150 1 2.552 4.924 18.554 
156 1 3.001 4.231 22.068 
159 1 1.036 5.037 20.924 
5 1 -5.049 10.63 8.653 
9 1 -3.317 8.897 7.479 
19 1 -1.707 7.414 10.572 
21 1 -2.66 8.795 10.993 
23 1 -3.31 7.532 6.805 
25 1 -4.284 10.573 9.849 
32 1 1.503 6.367 0.79 
36 1 -1.869 7.426 9.056 
38 1 -2.209 6.086 8.653 
54 1 0.3 8.576 10.696 
57 1 1.291 8.001 9.824 
60 1 -1.707 7.414 0.042 
65 1 -3.31 7.532 3.808 
78 1 -1.869 7.426 1.558 
80 1 -2.566 8.842 1.961 
84 1 -4.57 9.799 3.135 
99 1 -3.054 9.687 0.765 
100 1 -2.96 6.142 3.135 
107 1 -5.049 10.63 1.961 
110 1 -3.317 8.897 3.135 
111 1 0.642 5.929 10.696 
113 1 1.503 6.367 9.824 
119 1 -4.284 10.573 0.765 
127 1 -2.209 6.086 1.961 
131 1 -2.318 6.148 10.993 
138 1 1.291 8.001 0.79 
142 1 -2.566 8.842 8.653 
145 1 -4.57 9.799 7.479 
151 1 -5.019 10.493 10.993 
154 1 -3.054 9.687 9.849 
155 1 -2.96 6.142 7.479 
161 2 1.291 8.001 8.474 
162 3 1.291 8.001 7.498 
12 1 2.53 7.1 17.202 
17 1 0.468 9.427 20.924 
24 1 -3.52 8.357 11.865 
27 1 -0.31 7.31 21.647 
29 1 0.642 5.929 22.068 
31 1 1.292 7.192 17.88 
44 1 -0.148 7.298 20.131 
46 1 0.191 8.638 19.728 
51 1 -0.31 7.31 11.117 
53 1 2.53 7.1 15.561 
56 1 1.292 7.192 14.883 
63 1 -2.318 6.148 21.771 
66 1 -3.309 6.723 20.899 
70 1 -0.148 7.298 12.633 
72 1 0.548 5.882 13.035 
92 1 0.942 8.582 14.209 
95 1 -5.019 10.493 21.771 
98 1 -4.751 9.243 20.899 
104 1 0.468 9.427 11.84 
116 1 -2.66 8.795 21.771 
118 1 -3.52 8.357 20.899 
122 1 0.191 8.638 13.035 
133 1 -3.309 6.723 11.865 
136 1 0.3 8.576 22.068 
147 1 0.548 5.882 19.728 
153 1 -4.751 9.243 11.865 
160 1 0.942 8.582 18.554 
1 1 7.976 4.694 10.572 
4 1 9.274 4.77 10.993 
20 1 8.034 4.861 9.056 
42 1 9.55 5.41 7.479 
67 1 10.043 4.578 0.765 
77 1 7.976 4.694 0.042 
94 1 8.035 4.861 1.558 
96 1 9.278 4.635 1.961 
121 1 4.688 5.417 10.696 
130 1 9.55 5.41 3.135 
134 1 10.043 4.578 9.849 
152 1 9.278 4.635 8.653 
45 1 4.688 5.417 22.068 
55 1 4.788 5.329 13.035 
106 1 9.274 4.77 21.771 
137 1 4.788 5.329 19.728 
2 1 7.294 10.585 9.056 
3 1 9.004 7.624 6.127 
6 1 8.556 6.347 6.805 
16 1 2.314 8.72 0.79 
22 1 7.166 6.156 8.653 
26 1 7.226 8.565 7.479 
35 1 7.191 10.764 10.572 
37 1 6.846 9.307 10.993 
39 1 8.214 8.992 6.805 
41 1 6.677 7.002 9.849 
48 1 3.775 6.213 0.79 
61 1 7.294 10.585 1.558 
62 1 9.004 7.624 4.487 
64 1 6.747 9.395 1.961 
68 1 7.437 6.931 3.135 
71 1 4.29 8.493 10.696 
74 1 3.567 7.818 9.824 
81 1 8.556 6.347 3.808 
83 1 6.47 8.606 0.765 
93 1 7.191 10.764 0.042 
97 1 8.214 8.992 3.808 
101 1 2.261 9.954 10.696 
103 1 2.314 8.72 9.824 
117 1 7.166 6.156 1.961 
120 1 7.226 8.565 3.135 
123 1 3.775 6.213 9.824 
129 1 6.677 7.002 0.765 
132 1 6.747 9.395 8.653 
135 1 7.437 6.931 7.479 
141 1 7.244 6.231 10.993 
144 1 6.47 8.606 9.849 
148 1 3.567 7.818 0.79 
7 1 9.22 6.004 11.865 
10 1 3.558 10.029 21.647 
13 1 2.261 9.954 22.068 
15 1 2.978 8.376 17.88 
28 1 3.5 9.862 20.131 
30 1 4.369 8.568 19.728 
34 1 4.308 6.159 18.554 
40 1 7.76 8.511 11.865 
49 1 4.857 7.722 20.924 
50 1 1.984 9.314 18.554 
58 1 1.491 10.146 11.84 
59 1 4.097 7.793 14.209 
69 1 3.558 10.029 11.117 
73 1 2.978 8.376 14.883 
75 1 5.064 6.118 11.84 
79 1 7.244 6.231 21.771 
82 1 7.967 6.906 20.899 
86 1 3.5 9.862 12.633 
88 1 2.256 10.089 13.035 
108 1 9.22 6.004 20.899 
112 1 4.369 8.568 13.035 
115 1 4.308 6.159 14.209 
124 1 4.857 7.722 11.84 
125 1 1.984 9.314 14.209 
126 1 6.846 9.307 21.771 
128 1 7.76 8.511 20.899 
139 1 1.491 10.146 20.924 
140 1 4.097 7.793 18.554 
143 1 7.967 6.906 11.865 
146 1 4.29 8.493 22.068 
149 1 5.064 6.118 20.924 
157 1 2.256 10.089 19.728 
ITEM: TIMESTEP
10
ITEM: NUMBER OF ATOMS
162
ITEM: BOX BOUNDS xy xz yz pp pp pp
-6.7755000000000001e+00 1.3552000000000000e+01 -6.7755000000000001e+00
0.0000000000000000e+00 1.1735510246683001e+01 0.0000000000000000e+00
0.0000000000000000e+00 2.2149999999999999e+01 0.0000000000000000e+00
ITEM: ATOMS id type x y z 
8 1 -2.4418 5.37606 9.82084 
87 1 2.98498 4.3185 10.6376 
90 1 2.64199 5.4691 9.78298 
109 1 -2.43549 5.3722 0.787583 
158 1 2.65286 5.45577 0.858555 
11 1 4.29041 4.24241 20.1079 
14 1 2.90998 4.13052 19.6982 
18 1 1.32159 5.85364 18.5893 
33 1 2.08676 4.26911 20.9073 
43 1 4.31244 4.19355 21.5558 
47 1 3.24573 5.7849 17.8571 
52 1 4.28111 4.2551 12.6618 
76 1 2.43689 4.91746 14.1827 
85 1 4.2929 4.16499 11.1551 
89 1 3.23108 5.78556 14.9042 
91 1 0.95543 5.10259 11.8691 
102 1 2.91445 4.1316 13.082 
105 1 1.32667 5.86107 14.1726 
114 1 2.0884 4.25522 11.8418 
150 1 2.43408 4.92121 18.5724 
156 1 2.96217 4.25731 22.1206 
159 1 0.954173 5.11716 20.9191 
5 1 -4.92714 10.6031 8.62727 
9 1 -3.34327 8.83995 7.50172 
19 1 -1.75961 7.56934 10.5388 
21 1 -2.63711 8.75455 10.9473 
23 1 -3.28944 7.53421 6.82524 
25 1 -4.10121 10.4555 9.83577 
32 1 1.59606 6.3546 0.753006 
36 1 -1.90516 7.56349 9.06224 
38 1 -2.14814 6.22324 8.64617 
54 1 0.295492 8.53858 10.7136 
57 1 1.37468 8.01358 9.62757 
60 1 -1.75072 7.53102 0.0750935 
65 1 -3.27604 7.54645 3.80107 
78 1 -1.8947 7.56253 1.54179 
80 1 -2.56151 8.79914 1.88698 
84 1 -4.45268 9.83282 3.09769 
99 1 -2.97588 9.6028 0.782942 
100 1 -2.93022 6.24757 3.17415 
107 1 -4.93105 10.5928 1.99482 
110 1 -3.32916 8.86849 3.0995 
111 1 0.589816 5.95672 10.7712 
113 1 1.55586 6.29391 9.84709 
119 1 -4.09446 10.4555 0.773853 
127 1 -2.14669 6.22389 1.97014 
131 1 -2.31863 6.197 11.0262 
138 1 1.39141 7.97901 0.842297 
142 1 -2.56081 8.78737 8.7067 
145 1 -4.4535 9.83817 7.50881 
151 1 -4.99805 10.4573 11.0464 
154 1 -2.96745 9.59965 9.84547 
155 1 -2.93149 6.27018 7.43577 
161 2 1.25166 8.00995 8.49989 
162 3 1.28107 7.99993 7.50382 
12 1 2.57765 7.05666 17.118 
17 1 0.430843 9.35221 20.89 
24 1 -3.6046 8.37681 11.8431 
27 1 -0.264135 7.15814 21.6186 
29 1 0.62769 5.9787 22.0275 
31 1 1.26162 7.18072 17.8981 
44 1 -0.118035 7.1552 20.1465 
46 1 0.133844 8.50647 19.718 
51 1 -0.259726 7.2392 11.1281 
53 1 2.57912 7.06082 15.6417 
56 1 1.26034 7.17241 14.8667 
63 1 -2.32009 6.21178 21.7422 
66 1 -3.41249 6.77635 20.8507 
70 1 -0.112242 7.16019 12.6215 
72 1 0.549481 5.92669 12.9471 
92 1 0.921878 8.46391 14.2614 
95 1 -4.99302 10.4159 21.7117 
98 1 -4.68513 9.21082 20.8643 
104 1 0.417468 9.3479 11.8442 
116 1 -2.60982 8.77506 21.8078 
118 1 -3.55292 8.36605 20.9196 
122 1 0.122997 8.50005 13.0547 
133 1 -3.39661 6.74304 11.9128 
136 1 0.296836 8.52734 22.1053 
147 1 0.53801 5.93523 19.7956 
153 1 -4.67147 9.26985 11.932 
160 1 0.916788 8.46895 18.5144 
1 1 7.86202 4.92422 10.5086 
4 1 9.18768 4.76517 11.0064 
20 1 7.85931 4.96381 9.0533 
42 1 9.46633 5.42806 7.45305 
67 1 9.97106 4.58925 0.752458 
77 1 7.84837 4.9308 0.104917 
94 1 7.86075 4.96617 1.55436 
96 1 9.16457 4.65863 1.99152 
121 1 4.67273 5.49997 10.6783 
130 1 9.45212 5.43482 3.16974 
134 1 9.97022 4.5945 9.85881 
152 1 9.16943 4.66432 8.62662 
45 1 4.66674 5.46767 22.0545 
55 1 4.81717 5.49841 13.05 
106 1 9.19113 4.77825 21.7404 
137 1 4.81138 5.47577 19.7046 
2 1 7.24021 10.4703 9.03768 
3 1 8.98155 7.65396 6.04531 
6 1 8.49446 6.37487 6.83379 
16 1 2.36363 8.67755 0.862712 
22 1 7.13232 6.17896 8.68768 
26 1 7.20162 8.39391 7.55515 
35 1 7.22973 10.5302 10.4848 
37 1 6.87371 9.27585 10.9916 
39 1 8.27908 8.93586 6.77827 
41 1 6.71514 6.99711 9.80249 
48 1 3.68586 6.38365 0.836009 
61 1 7.25119 10.4762 1.56191 
62 1 8.95942 7.64548 4.56882 
64 1 6.72716 9.22075 2.00032 
68 1 7.39602 6.99632 3.04541 
71 1 4.33269 8.52996 10.7617 
74 1 3.59736 7.78101 9.8122 
81 1 8.50667 6.38478 3.77671 
83 1 6.54591 8.43006 0.805207 
93 1 7.26301 10.5288 0.111243 
97 1 8.25427 8.93381 3.84093 
101 1 2.3431 9.91555 10.6748 
103 1 2.35099 8.64206 9.81175 
117 1 7.13305 6.16974 1.92183 
120 1 7.20355 8.40541 3.04872 
123 1 3.81082 6.3289 9.81173 
129 1 6.71898 7.00154 0.800827 
132 1 6.72647 9.24315 8.61584 
135 1 7.39855 6.99603 7.58145 
141 1 7.20957 6.18438 10.9398 
144 1 6.54275 8.4568 9.82702 
148 1 3.58901 7.78153 0.810852 
7 1 9.17574 6.0456 11.9397 
10 1 3.67472 9.78717 21.5919 
13 1 2.34551 9.95742 22.0817 
15 1 3.01125 8.35075 17.909 
28 1 3.68279 9.76631 20.123 
30 1 4.4073 8.54441 19.7985 
34 1 4.33533 6.29539 18.6158 
40 1 7.83156 8.34954 11.9203 
49 1 4.8087 7.72392 20.8838 
50 1 2.07861 9.28712 18.5206 
58 1 1.56208 10.1228 11.8189 
59 1 4.14411 7.76342 14.1281 
69 1 3.68094 9.77944 11.1512 
73 1 3.00757 8.34631 14.8555 
75 1 4.9836 6.28924 11.8787 
79 1 7.22218 6.20916 21.8157 
82 1 7.92842 6.99198 20.8841 
86 1 3.69561 9.78321 12.6539 
88 1 2.33894 10.0664 13.0608 
108 1 9.17962 6.06425 20.8334 
112 1 4.41619 8.54384 12.9889 
115 1 4.33732 6.29497 14.1462 
124 1 4.82441 7.7149 11.8704 
125 1 2.07931 9.2874 14.2467 
126 1 6.85957 9.24115 21.7341 
128 1 7.75381 8.36487 20.8963 
139 1 1.56337 10.1255 20.9322 
140 1 4.1484 7.76555 18.6427 
143 1 7.94394 6.93974 11.8956 
146 1 4.32381 8.52872 22.0064 
149 1 4.98444 6.28542 20.9183 
157 1 2.354 10.06 19.7024 
ITEM: TIMESTEP
20
ITEM: NUMBER OF ATOMS
162
ITEM: BOX BOUNDS xy xz yz pp pp pp
-6.7755000000000001e+00 1.3552000000000000e+01 -6.7755000000000001e+00
0.0000000000000000e+00 1.1735510246683001e+01 0.0000000000000000e+00
0.0000000000000000e+00 2.2149999999999999e+01 0.0000000000000000e+00
ITEM: ATOMS id type x y z 
8 1 -2.4287 5.41495 9.83988 
87 1 2.96911 4.30823 10.6527 
90 1 2.65528 5.49789 9.75979 
109 1 -2.42985 5.41019 0.773592 
158 1 2.65723 5.43387 0.867185 
11 1 4.2726 4.23714 20.106 
14 1 2.87892 4.14823 19.7059 
18 1 1.29946 5.85888 18.576 
33 1 2.09343 4.27566 20.9065 
43 1 4.29829 4.19896 21.5539 
47 1 3.24843 5.78965 17.8395 
52 1 4.26953 4.24211 12.6304 
76 1 2.43296 4.9185 14.1827 
85 1 4.28184 4.20902 11.196 
89 1 3.24522 5.7872 14.9217 
91 1 0.949846 5.09311 11.8519 
102 1 2.88488 4.14456 13.0608 
105 1 1.30014 5.86122 14.182 
114 1 2.09661 4.26345 11.8552 
150 1 2.43494 4.91796 18.5786 
156 1 2.96302 4.2851 22.1069 
159 1 0.949612 5.11226 20.9198 
5 1 -4.89421 10.5823 8.62951 
9 1 -3.32585 8.85985 7.49967 
19 1 -1.7652 7.55111 10.5565 
21 1 -2.61875 8.75353 10.9619 
23 1 -3.30548 7.5249 6.81079 
25 1 -4.10861 10.4532 9.82273 
32 1 1.58939 6.35944 0.780576 
36 1 -1.88517 7.56697 9.05924 
38 1 -2.15195 6.23561 8.64134 
54 1 0.306226 8.50588 10.7145 
57 1 1.33969 7.98718 9.62861 
60 1 -1.75221 7.52337 0.0588942 
65 1 -3.29492 7.54052 3.80163 
78 1 -1.88029 7.56543 1.55347 
80 1 -2.54617 8.79488 1.90214 
84 1 -4.45687 9.8081 3.11059 
99 1 -2.96668 9.61168 0.771804 
100 1 -2.93296 6.27266 3.17358 
107 1 -4.89858 10.5778 1.97839 
110 1 -3.32156 8.8651 3.11376 
111 1 0.588598 5.96236 10.7371 
113 1 1.53168 6.30757 9.85039 
119 1 -4.11012 10.4493 0.780954 
127 1 -2.15416 6.23955 1.97528 
131 1 -2.33735 6.23639 11.01 
138 1 1.36246 8.00094 0.831903 
142 1 -2.54527 8.79227 8.69665 
145 1 -4.45412 9.81284 7.50261 
151 1 -4.99183 10.4457 11.0478 
154 1 -2.96097 9.6114 9.84645 
155 1 -2.92828 6.26808 7.44279 
161 2 1.24599 8.01205 8.49331 
162 3 1.27683 8.00047 7.50389 
12 1 2.56097 7.07161 17.1429 
17 1 0.413406 9.30951 20.9093 
24 1 -3.61326 8.35836 11.8637 
27 1 -0.258317 7.18311 21.6341 
29 1 0.601425 5.96578 22.033 
31 1 1.28259 7.18587 17.8904 
44 1 -0.136543 7.15845 20.1386 
46 1 0.137991 8.48633 19.7127 
51 1 -0.255992 7.24612 11.1153 
53 1 2.56035 7.07393 15.62 
56 1 1.27987 7.17974 14.8775 
63 1 -2.33746 6.23494 21.7627 
66 1 -3.38993 6.77741 20.8566 
70 1 -0.130057 7.16405 12.6246 
72 1 0.531059 5.93049 12.9666 
92 1 0.917022 8.44598 14.2565 
95 1 -4.9746 10.3929 21.721 
98 1 -4.66963 9.20669 20.8437 
104 1 0.399064 9.31986 11.8452 
116 1 -2.58599 8.77674 21.796 
118 1 -3.53444 8.35674 20.9073 
122 1 0.129412 8.47681 13.0647 
133 1 -3.37966 6.72896 11.8995 
136 1 0.31872 8.49239 22.0857 
147 1 0.524179 5.92733 19.7901 
153 1 -4.67747 9.27685 11.9518 
160 1 0.914967 8.44764 18.5151 
1 1 7.84863 4.92675 10.5249 
4 1 9.14948 4.79794 11.0088 
20 1 7.83607 4.94846 9.06101 
42 1 9.45869 5.44558 7.44149 
67 1 9.95775 4.59128 0.762754 
77 1 7.83644 4.92355 0.0777985 
94 1 7.84243 4.95386 1.55171 
96 1 9.161 4.67085 2.00074 
121 1 4.67815 5.50426 10.6639 
130 1 9.44862 5.45174 3.16772 
134 1 9.96271 4.59007 9.85502 
152 1 9.15694 4.66815 8.61037 
45 1 4.64711 5.49105 22.0732 
55 1 4.82577 5.52353 13.0671 
106 1 9.15262 4.8172 21.7453 
137 1 4.82475 5.5169 19.6948 
2 1 7.25819 10.4858 9.02925 
3 1 8.97068 7.65402 6.0593 
6 1 8.52221 6.39389 6.8217 
16 1 2.36028 8.70464 0.871815 
22 1 7.09445 6.18004 8.69517 
26 1 7.20257 8.41582 7.53378 
35 1 7.22355 10.5216 10.4773 
37 1 6.90021 9.24313 10.9982 
39 1 8.28214 8.94134 6.76482 
41 1 6.70924 6.99647 9.82432 
48 1 3.70122 6.35873 0.845426 
61 1 7.26724 10.4834 1.57047 
62 1 8.97439 7.64704 4.5408 
64 1 6.70729 9.20432 1.98741 
68 1 7.39264 6.96259 3.06186 
71 1 4.33292 8.51833 10.7516 
74 1 3.60651 7.77144 9.81325 
81 1 8.51452 6.39199 3.79685 
83 1 6.54288 8.40899 0.801896 
93 1 7.25492 10.5194 0.121462 
97 1 8.28626 8.93949 3.84928 
101 1 2.38691 9.89033 10.6654 
103 1 2.38276 8.64283 9.80903 
117 1 7.09472 6.17057 1.92289 
120 1 7.20426 8.41713 3.07776 
123 1 3.78622 6.34224 9.79716 
129 1 6.70785 6.99106 0.790011 
132 1 6.70679 9.20883 8.62144 
135 1 7.4022 6.96712 7.55767 
141 1 7.20293 6.20678 10.947 
144 1 6.54502 8.42425 9.83368 
148 1 3.60053 7.80111 0.825354 
7 1 9.17049 6.0283 11.9442 
10 1 3.67959 9.79649 21.5911 
13 1 2.38585 9.92858 22.0865 
15 1 3.02123 8.3316 17.8981 
28 1 3.69902 9.78344 20.1347 
30 1 4.4356 8.54616 19.7753 
34 1 4.33511 6.30978 18.6117 
40 1 7.84125 8.35926 11.924 
49 1 4.82907 7.723 20.8958 
50 1 2.08087 9.27173 18.5157 
58 1 1.57299 10.13 11.8361 
59 1 4.14514 7.76323 14.1404 
69 1 3.7025 9.78153 11.1648 
73 1 3.01654 8.33133 14.868 
75 1 4.99131 6.31702 11.8818 
79 1 7.20737 6.21511 21.8143 
82 1 7.91506 6.95351 20.8694 
86 1 3.70429 9.7794 12.6308 
88 1 2.37262 10.0521 13.0715 
108 1 9.17394 6.04753 20.8307 
112 1 4.4379 8.55491 12.9934 
115 1 4.33203 6.31188 14.1557 
124 1 4.83575 7.73476 11.8646 
125 1 2.08112 9.27472 14.2456 
126 1 6.85835 9.22983 21.7442 
128 1 7.74698 8.38445 20.8668 
139 1 1.57362 10.1331 20.9245 
140 1 4.14263 7.76258 18.6247 
143 1 7.94326 6.91898 11.8966 
146 1 4.3364 8.5215 22.0282 
149 1 4.98686 6.30023 20.9047 
157 1 2.37482 10.0508 19.6891 
ITEM: TIMESTEP
30
ITEM: NUMBER OF ATOMS
162
ITEM: BOX BOUNDS xy xz yz pp pp pp
-6.7755000000000001e+00 1.3552000000000000e+01 -6.7755000000000001e+00
0.0000000000000000e+00 1.1735510246683001e+01 0.0000000000000000e+00
0.0000000000000000e+00 2.2149999999999999e+01 0.0000000000000000e+00
ITEM: ATOMS id type x y z 
8 1 -2.44468 5.43183 9.83266 
87 1 2.95298 4.33529 10.6539 
90 1 2.64895 5.51004 9.75425 
109 1 -2.44673 5.4275 0.782734 
158 1 2.64046 5.44903 0.857597 
11 1 4.2619 4.24868 20.1118 
14 1 2.86885 4.1686 19.7055 
18 1 1.28414 5.85193 18.5669 
33 1 2.08128 4.28168 20.9073 
43 1 4.27207 4.24574 21.5489 
47 1 3.24306 5.79842 17.8289 
52 1 4.25877 4.25341 12.6483 
76 1 2.42777 4.93077 14.1813 
85 1 4.27507 4.23167 11.205 
89 1 3.24428 5.79662 14.9334 
91 1 0.93882 5.10911 11.8461 
102 1 2.87198 4.16888 13.0555 
105 1 1.28496 5.85096 14.1933 
114 1 2.08461 4.27549 11.8521 
150 1 2.42727 4.93147 18.577 
156 1 2.94225 4.29419 22.1135 
159 1 0.939517 5.12832 20.928 
5 1 -4.88771 10.5543 8.62605 
9 1 -3.30566 8.8661 7.48754 
19 1 -1.76404 7.54865 10.5568 
21 1 -2.62287 8.77959 10.9684 
23 1 -3.29316 7.53987 6.81463 
25 1 -4.09117 10.4336 9.8382 
32 1 1.60504 6.36996 0.786541 
36 1 -1.86869 7.57804 9.06028 
38 1 -2.15399 6.25404 8.64044 
54 1 0.319669 8.4917 10.7028 
57 1 1.33647 7.98285 9.63792 
60 1 -1.75225 7.53133 0.0577251 
65 1 -3.29681 7.54029 3.79711 
78 1 -1.86311 7.57645 1.5529 
80 1 -2.5292 8.80301 1.9044 
84 1 -4.44798 9.79521 3.11078 
99 1 -2.95101 9.59985 0.765856 
100 1 -2.93669 6.28549 3.17069 
107 1 -4.88659 10.5553 1.98216 
110 1 -3.30303 8.87175 3.12291 
111 1 0.582854 5.9485 10.7156 
113 1 1.51937 6.31838 9.8439 
119 1 -4.09678 10.4405 0.775174 
127 1 -2.15591 6.25408 1.97589 
131 1 -2.34176 6.2561 11.0097 
138 1 1.38036 7.9824 0.828268 
142 1 -2.53174 8.81277 8.72034 
145 1 -4.44911 9.79389 7.50374 
151 1 -4.96152 10.4258 11.0412 
154 1 -2.96377 9.58782 9.8449 
155 1 -2.93701 6.28412 7.44169 
161 2 1.2346 8.01146 8.48909 
162 3 1.27119 8.0019 7.49909 
12 1 2.56727 7.07116 17.1515 
17 1 0.429047 9.29281 20.9044 
24 1 -3.61826 8.35165 11.8699 
27 1 -0.250762 7.17883 21.6387 
29 1 0.601339 5.95983 22.0507 
31 1 1.27698 7.1814 17.8922 
44 1 -0.152001 7.14619 20.1389 
46 1 0.137637 8.46845 19.7144 
51 1 -0.260502 7.23221 11.1191 
53 1 2.56461 7.06932 15.6131 
56 1 1.27729 7.17895 14.8746 
63 1 -2.35007 6.25327 21.7529 
66 1 -3.39574 6.78892 20.8631 
70 1 -0.147583 7.15215 12.6251 
72 1 0.512271 5.92035 12.9693 
92 1 0.919769 8.43784 14.2501 
95 1 -4.95915 10.3741 21.7244 
98 1 -4.66025 9.19028 20.8391 
104 1 0.416 9.29988 11.8502 
116 1 -2.56707 8.78413 21.7852 
118 1 -3.52332 8.3423 20.9002 
122 1 0.133811 8.46361 13.0595 
133 1 -3.39411 6.74721 11.9004 
136 1 0.331009 8.475 22.0881 
147 1 0.506943 5.9202 19.787 
153 1 -4.6574 9.27515 11.933 
160 1 0.920224 8.43687 18.5161 
1 1 7.82002 4.94401 10.5233 
4 1 9.12871 4.82381 11.0044 
20 1 7.80666 4.94864 9.06764 
42 1 9.44916 5.46333 7.44479 
67 1 9.94724 4.60867 0.771775 
77 1 7.79537 4.91719 0.0708159 
94 1 7.81763 4.95608 1.54629 
96 1 9.14646 4.69297 1.99428 
121 1 4.67091 5.52867 10.665 
130 1 9.44553 5.46426 3.16524 
134 1 9.9493 4.6065 9.83531 
152 1 9.14949 4.69123 8.61867 
45 1 4.64388 5.52438 22.0781 
55 1 4.81753 5.54266 13.0657 
106 1 9.13695 4.85969 21.7525 
137 1 4.8195 5.53731 19.6951 
2 1 7.27603 10.4801 9.03563 
3 1 8.96908 7.6531 6.0785 
6 1 8.50677 6.39094 6.80835 
16 1 2.36703 8.70146 0.878647 
22 1 7.0752 6.17196 8.69058 
26 1 7.20054 8.41432 7.52907 
35 1 7.26513 10.4837 10.4729 
37 1 6.88903 9.20124 11.0072 
39 1 8.28726 8.93061 6.7501 
41 1 6.702 6.97344 9.83795 
48 1 3.69154 6.35271 0.846312 
61 1 7.27718 10.4727 1.56624 
62 1 8.96881 7.65616 4.53974 
64 1 6.71625 9.18589 1.99141 
68 1 7.38428 6.95331 3.06902 
71 1 4.33766 8.52394 10.7522 
74 1 3.6053 7.78089 9.80752 
81 1 8.508 6.39497 3.80442 
83 1 6.54079 8.39842 0.807489 
93 1 7.27239 10.4859 0.128542 
97 1 8.28958 8.92773 3.86059 
101 1 2.40439 9.84432 10.6647 
103 1 2.39104 8.64451 9.82246 
117 1 7.07702 6.16418 1.92818 
120 1 7.20034 8.41065 3.08455 
123 1 3.78222 6.34519 9.78424 
129 1 6.69683 6.97095 0.779854 
132 1 6.71322 9.18797 8.61625 
135 1 7.39084 6.95687 7.54897 
141 1 7.20737 6.2079 10.9583 
144 1 6.54382 8.40521 9.82539 
148 1 3.59129 7.8075 0.818211 
7 1 9.16904 6.02302 11.9487 
10 1 3.70467 9.77125 21.5937 
13 1 2.40598 9.90654 22.0797 
15 1 3.02677 8.32922 17.8855 
28 1 3.72777 9.78156 20.142 
30 1 4.45911 8.54966 19.766 
34 1 4.33482 6.31449 18.6042 
40 1 7.8378 8.36738 11.9265 
49 1 4.83033 7.74911 20.9148 
50 1 2.08827 9.2581 18.5211 
58 1 1.58398 10.1132 11.8502 
59 1 4.15382 7.77231 14.1462 
69 1 3.74536 9.77612 11.1665 
73 1 3.02171 8.33279 14.8782 
75 1 4.99416 6.32829 11.8827 
79 1 7.20313 6.21698 21.8148 
82 1 7.91046 6.94971 20.8634 
86 1 3.73154 9.77881 12.623 
88 1 2.3837 10.0296 13.0646 
108 1 9.16315 6.05341 20.8332 
112 1 4.46184 8.55959 13.0049 
115 1 4.33347 6.31583 14.1609 
124 1 4.84934 7.75079 11.8602 
125 1 2.08664 9.25745 14.2391 
126 1 6.85412 9.20226 21.7433 
128 1 7.74619 8.37996 20.8547 
139 1 1.58799 10.1173 20.9103 
140 1 4.15407 7.77027 18.6224 
143 1 7.93979 6.91538 11.8932 
146 1 4.3338 8.51777 22.0313 
149 1 4.98938 6.32037 20.896 
157 1 2.38664 10.0306 19.6916 
ITEM: TIMESTEP
40
ITEM: NUMBER OF ATOMS
162
ITEM: BOX BOUNDS xy xz yz pp pp pp
-6.7755000000000001e+00 1.3552000000000000e+01 -6.7755000000000001e+00
0.0000000000000000e+00 1.1735510246683001e+01 0.0000000000000000e+00
0.0000000000000000e+00 2.2149999999999999e+01 0.0000000000000000e+00
ITEM: ATOMS id type x y z 
8 1 -2.45145 5.44682 9.83136 
87 1 2.94908 4.34655 10.6549 
90 1 2.64197 5.52149 9.74749 
109 1 -2.45231 5.44417 0.781585 
158 1 2.64153 5.44395 0.870236 
11 1 4.25688 4.26359 20.1026 
14 1 2.86081 4.17507 19.7099 
18 1 1.27827 5.85045 18.5614 
33 1 2.073 4.28821 20.9083 
43 1 4.26733 4.25752 21.5419 
47 1 3.23766 5.79794 17.8297 
52 1 4.25489 4.2655 12.6468 
76 1 2.41918 4.93108 14.1873 
85 1 4.26425 4.25117 11.2119 
89 1 3.23708 5.79766 14.9341 
91 1 0.927875 5.11632 11.845 
102 1 2.86395 4.17326 13.0517 
105 1 1.27882 5.85076 14.1984 
114 1 2.07309 4.2853 11.8476 
150 1 2.41836 4.93117 18.5738 
156 1 2.93996 4.30303 22.115 
159 1 0.930627 5.13163 20.9291 
5 1 -4.87733 10.5491 8.63497 
9 1 -3.29956 8.87089 7.48357 
19 1 -1.76572 7.565 10.5627 
21 1 -2.61023 8.76328 10.9832 
23 1 -3.29513 7.53634 6.81306 
25 1 -4.09709 10.4381 9.83424 
32 1 1.59133 6.37924 0.802401 
36 1 -1.85722 7.59077 9.05823 
38 1 -2.15152 6.26422 8.64023 
54 1 0.32105 8.4772 10.6981 
57 1 1.33406 7.9785 9.63405 
60 1 -1.74953 7.54086 0.0574087 
65 1 -3.29718 7.54083 3.79844 
78 1 -1.85269 7.58774 1.55532 
80 1 -2.51807 8.80862 1.90526 
84 1 -4.43878 9.79292 3.11381 
99 1 -2.94026 9.59637 0.764874 
100 1 -2.93634 6.2885 3.16971 
107 1 -4.87719 10.5472 1.97466 
110 1 -3.29739 8.8741 3.12773 
111 1 0.568513 5.94482 10.7092 
113 1 1.51348 6.32648 9.8346 
119 1 -4.08796 10.4285 0.772797 
127 1 -2.15229 6.26424 1.97548 
131 1 -2.35039 6.26168 11.0097 
138 1 1.38366 7.98431 0.832519 
142 1 -2.51467 8.80511 8.70115 
145 1 -4.43867 9.79233 7.49724 
151 1 -4.95758 10.4213 11.0416 
154 1 -2.95026 9.59561 9.85195 
155 1 -2.93478 6.2875 7.44342 
161 2 1.2261 8.01048 8.48835 
162 3 1.26619 8.00323 7.49605 
12 1 2.56918 7.06867 17.1492 
17 1 0.436943 9.27921 20.903 
24 1 -3.60921 8.34565 11.8778 
27 1 -0.249552 7.16666 21.6406 
29 1 0.587825 5.95852 22.0504 
31 1 1.27929 7.18384 17.8905 
44 1 -0.162607 7.13471 20.1379 
46 1 0.134861 8.45896 19.715 
51 1 -0.260027 7.22148 11.1188 
53 1 2.56793 7.06759 15.6139 
56 1 1.27832 7.18053 14.8742 
63 1 -2.35196 6.26013 21.7547 
66 1 -3.39821 6.7921 20.8606 
70 1 -0.158248 7.14011 12.6262 
72 1 0.501693 5.91416 12.973 
92 1 0.916079 8.43457 14.2466 
95 1 -4.95403 10.3561 21.7243 
98 1 -4.65646 9.17836 20.83 
104 1 0.422546 9.28563 11.8494 
116 1 -2.55257 8.78849 21.7822 
118 1 -3.50995 8.34024 20.8914 
122 1 0.13077 8.45221 13.058 
133 1 -3.39605 6.74701 11.9027 
136 1 0.337529 8.46979 22.0869 
147 1 0.495998 5.91497 19.7831 
153 1 -4.65656 9.27559 11.9463 
160 1 0.917345 8.43457 18.5187 
1 1 7.80241 4.94035 10.5249 
4 1 9.11887 4.8317 10.9999 
20 1 7.79169 4.94765 9.06148 
42 1 9.4414 5.46821 7.44657 
67 1 9.93817 4.62226 0.772722 
77 1 7.77301 4.90563 0.0677404 
94 1 7.80184 4.95924 1.54214 
96 1 9.12906 4.70502 1.99422 
121 1 4.66801 5.53786 10.6647 
130 1 9.43815 5.4707 3.16456 
134 1 9.94063 4.61859 9.83485 
152 1 9.12954 4.70436 8.61786 
45 1 4.63066 5.53582 22.0789 
55 1 4.8163 5.55153 13.069 
106 1 9.11569 4.87487 21.759 
137 1 4.81647 5.54796 19.6935 
2 1 7.27528 10.4605 9.02719 
3 1 8.96493 7.65427 6.0752 
6 1 8.50605 6.39353 6.80873 
16 1 2.37371 8.7053 0.883809 
22 1 7.05873 6.17047 8.68916 
26 1 7.20097 8.40356 7.52676 
35 1 7.26798 10.4652 10.468 
37 1 6.90486 9.18916 11.0046 
39 1 8.29458 8.92828 6.75173 
41 1 6.69166 6.97006 9.83439 
48 1 3.69076 6.36204 0.858175 
61 1 7.28379 10.4598 1.57241 
62 1 8.96612 7.65705 4.5401 
64 1 6.72006 9.17558 1.99354 
68 1 7.37509 6.94927 3.07182 
71 1 4.35223 8.521 10.7478 
74 1 3.61323 7.78311 9.79934 
81 1 8.50522 6.39563 3.80681 
83 1 6.5392 8.38704 0.806271 
93 1 7.27924 10.4685 0.134619 
97 1 8.29531 8.927 3.86007 
101 1 2.42084 9.83793 10.6753 
103 1 2.3941 8.63364 9.81951 
117 1 7.06307 6.16092 1.92981 
120 1 7.20169 8.39957 3.09075 
123 1 3.78011 6.35006 9.77492 
129 1 6.68614 6.96578 0.784837 
132 1 6.72014 9.17601 8.6206 
135 1 7.3801 6.9547 7.54539 
141 1 7.19755 6.20778 10.9601 
144 1 6.5446 8.39339 9.82114 
148 1 3.59626 7.8084 0.829575 
7 1 9.16214 6.02187 11.9537 
10 1 3.72138 9.77328 21.5941 
13 1 2.41527 9.89821 22.0778 
15 1 3.02958 8.3283 17.8846 
28 1 3.74589 9.7801 20.1361 
30 1 4.47668 8.55558 19.7634 
34 1 4.33385 6.324 18.5992 
40 1 7.845 8.36136 11.9341 
49 1 4.84384 7.75387 20.9071 
50 1 2.09281 9.25275 18.521 
58 1 1.59937 10.0993 11.8507 
59 1 4.16048 7.7776 14.1517 
69 1 3.7651 9.78907 11.163 
73 1 3.02478 8.3303 14.8795 
75 1 4.9987 6.33763 11.8817 
79 1 7.19676 6.21826 21.8082 
82 1 7.90401 6.94586 20.8578 
86 1 3.74599 9.77892 12.6305 
88 1 2.40264 10.0165 13.0628 
108 1 9.14813 6.06425 20.8329 
112 1 4.47919 8.56408 13.0126 
115 1 4.33289 6.32727 14.1681 
124 1 4.86353 7.75885 11.864 
125 1 2.093 9.25463 14.2349 
126 1 6.86072 9.19065 21.7434 
128 1 7.7459 8.37012 20.8456 
139 1 1.59622 10.1063 20.9094 
140 1 4.1619 7.77301 18.6172 
143 1 7.93744 6.91505 11.9046 
146 1 4.34076 8.51957 22.0394 
149 1 4.9916 6.33222 20.8968 
157 1 2.40564 10.0212 19.6909 
ITEM: TIMESTEP
50
ITEM: NUMBER OF ATOMS
162
ITEM: BOX BOUNDS xy xz yz pp pp pp
-6.7755000000000001e+00 1.3552000000000000e+01 -6.7755000000000001e+00
0.0000000000000000e+00 1.1735510246683001e+01 0.0000000000000000e+00
0.0000000000000000e+00 2.2149999999999999e+01 0.0000000000000000e+00
ITEM: ATOMS id type x y z 
8 1 -2.46776 5.47232 9.8269 
87 1 2.93606 4.37408 10.6517 
90 1 2.63003 5.54269 9.7358 
109 1 -2.46793 5.47035 0.783877 
158 1 2.62872 5.45373 0.886406 
11 1 4.24449 4.28945 20.0968 
14 1 2.84466 4.18805 19.7137 
18 1 1.26399 5.84992 18.5546 
33 1 2.05977 4.29938 20.9136 
43 1 4.24915 4.28924 21.5326 
47 1 3.22852 5.79786 17.8322 
52 1 4.24201 4.28952 12.6569 
76 1 2.40336 4.93157 14.1911 
85 1 4.24622 4.28417 11.2226 
89 1 3.22953 5.79752 14.9312 
91 1 0.905444 5.12438 11.8403 
102 1 2.84816 4.18855 13.0466 
105 1 1.26666 5.84906 14.206 
114 1 2.05904 4.302 11.8422 
150 1 2.40094 4.93153 18.5685 
156 1 2.92795 4.32149 22.1184 
159 1 0.912731 5.13767 20.9325 
5 1 -4.86374 10.5352 8.63737 
9 1 -3.28266 8.87339 7.47668 
19 1 -1.76378 7.57732 10.5613 
21 1 -2.60071 8.77123 10.9896 
23 1 -3.29843 7.53656 6.81276 
25 1 -4.0791 10.4253 9.83823 
32 1 1.58088 6.38346 0.819209 
36 1 -1.83529 7.60836 9.05739 
38 1 -2.14631 6.28511 8.64066 
54 1 0.327211 8.45706 10.692 
57 1 1.33471 7.97286 9.62636 
60 1 -1.74331 7.55612 0.0593508 
65 1 -3.3 7.53908 3.79941 
78 1 -1.83089 7.6052 1.55993 
80 1 -2.4961 8.81867 1.91505 
84 1 -4.42135 9.79241 3.11756 
99 1 -2.91322 9.59243 0.759865 
100 1 -2.93649 6.29052 3.1658 
107 1 -4.85988 10.5326 1.9687 
110 1 -3.28382 8.87521 3.13461 
111 1 0.548686 5.93727 10.6927 
113 1 1.49494 6.33777 9.82177 
119 1 -4.07284 10.4109 0.765883 
127 1 -2.14689 6.28291 1.97517 
131 1 -2.36276 6.27717 11.0099 
138 1 1.39392 7.9767 0.840338 
142 1 -2.49676 8.82 8.697 
145 1 -4.42051 9.79114 7.49249 
151 1 -4.94624 10.404 11.0439 
154 1 -2.93263 9.58783 9.85616 
155 1 -2.934 6.29018 7.44691 
161 2 1.20918 8.00876 8.48296 
162 3 1.25489 8.00612 7.49082 
12 1 2.57379 7.0641 17.1483 
17 1 0.454266 9.25541 20.8999 
24 1 -3.59763 8.34577 11.8951 
27 1 -0.248572 7.15358 21.6405 
29 1 0.580591 5.95504 22.0649 
31 1 1.28117 7.18567 17.8893 
44 1 -0.181442 7.11602 20.1355 
46 1 0.129366 8.4393 19.7166 
51 1 -0.262304 7.20074 11.1211 
53 1 2.57099 7.06318 15.6144 
56 1 1.28026 7.18237 14.8735 
63 1 -2.35931 6.27748 21.7536 
66 1 -3.4006 6.79888 20.856 
70 1 -0.179615 7.12072 12.6303 
72 1 0.48017 5.90288 12.9834 
92 1 0.91383 8.43206 14.2401 
95 1 -4.94338 10.3257 21.7208 
98 1 -4.64627 9.1553 20.8148 
104 1 0.443525 9.25839 11.8462 
116 1 -2.52903 8.79453 21.7707 
118 1 -3.48708 8.33652 20.8756 
122 1 0.126642 8.43346 13.0523 
133 1 -3.40588 6.74702 11.911 
136 1 0.351719 8.45329 22.0866 
147 1 0.476194 5.90442 19.7736 
153 1 -4.646 9.27093 11.9637 
160 1 0.916067 8.43252 18.5225 
1 1 7.76716 4.93065 10.5261 
4 1 9.09495 4.84783 10.9915 
20 1 7.75715 4.94792 9.0601 
42 1 9.43428 5.47916 7.45063 
67 1 9.91626 4.65584 0.774663 
77 1 7.73289 4.90003 0.0645579 
94 1 7.76493 4.95472 1.53913 
96 1 9.10213 4.72639 1.98954 
121 1 4.65892 5.56034 10.6627 
130 1 9.4311 5.48117 3.16007 
134 1 9.9235 4.64437 9.82966 
152 1 9.10086 4.72355 8.61815 
45 1 4.61324 5.55991 22.0794 
55 1 4.81139 5.57363 13.0731 
106 1 9.0836 4.89714 21.7652 
137 1 4.81309 5.57068 19.6895 
2 1 7.29 10.4372 9.02231 
3 1 8.96112 7.65894 6.07428 
6 1 8.49858 6.39768 6.80656 
16 1 2.38559 8.70772 0.893222 
22 1 7.02735 6.15963 8.67699 
26 1 7.20386 8.3892 7.51311 
35 1 7.28614 10.436 10.4586 
37 1 6.92228 9.16497 11.0059 
39 1 8.30466 8.92657 6.75454 
41 1 6.66951 6.95051 9.83679 
48 1 3.67862 6.3689 0.876391 
61 1 7.29728 10.4361 1.57776 
62 1 8.96156 7.66168 4.54099 
64 1 6.72518 9.15366 1.99805 
68 1 7.35925 6.9375 3.08157 
71 1 4.37729 8.51933 10.7446 
74 1 3.62657 7.79172 9.78885 
81 1 8.49843 6.39802 3.81009 
83 1 6.53572 8.37193 0.809044 
93 1 7.29671 10.4348 0.144812 
97 1 8.30458 8.92681 3.85764 
101 1 2.45043 9.80994 10.6848 
103 1 2.40603 8.62264 9.82038 
117 1 7.03289 6.15216 1.93994 
120 1 7.20328 8.38505 3.10188 
123 1 3.77827 6.35864 9.75978 
129 1 6.66244 6.95129 0.78322 
132 1 6.72216 9.15492 8.6149 
135 1 7.36095 6.94018 7.53612 
141 1 7.18494 6.20789 10.9686 
144 1 6.54082 8.37595 9.8219 
148 1 3.60447 7.81824 0.845594 
7 1 9.15095 6.02034 11.9625 
10 1 3.7519 9.77467 21.5926 
13 1 2.43871 9.88362 22.0713 
15 1 3.03597 8.32506 17.8822 
28 1 3.78108 9.77975 20.1343 
30 1 4.5112 8.56522 19.7497 
34 1 4.3316 6.33639 18.5887 
40 1 7.8563 8.35468 11.9514 
49 1 4.86549 7.77332 20.908 
50 1 2.10044 9.24256 18.5256 
58 1 1.62126 10.0648 11.852 
59 1 4.1762 7.78772 14.1621 