LAMMPS (3 Mar 2020)
Reading data file ...
  triclinic box = (0 0 0) to (13.552 11.7355 22.15) with tilt (-6.7755 0 0)
  2 by 2 by 2 MPI processor grid
  reading atoms ...
  162 atoms
  read_data CPU = 0.0150954 secs
WARNING: Using 'neigh_modify every 1 delay 0 check yes' setting during minimization (../min.cpp:190)
WARNING: Total cutoff < 2*bond cutoff. May need to use an increased neighbor list skin. (../pair_reaxc.cpp:413)
Neighbor list info ...
  update every 1 steps, delay 0 steps, check yes
  max neighbors/atom: 2000, page size: 100000
  master list distance cutoff = 9.5
  ghost atom cutoff = 9.5
  binsize = 4.75, bins = 5 3 5
  2 neighbor lists, perpetual/occasional/extra = 2 0 0
  (1) pair reax/c, perpetual
      attributes: half, newton off, ghost
      pair build: half/bin/newtoff/ghost
      stencil: half/ghost/bin/3d/newtoff
      bin: standard
  (2) fix qeq/reax, perpetual, copy from (1)
      attributes: half, newton off, ghost
      pair build: copy
      stencil: none
      bin: none
Setting up cg style minimization ...
  Unit style    : real
  Current step  : 0
Per MPI rank memory allocation (min/avg/max) = 22.46 | 23.47 | 24.43 Mbytes
Step Temp E_pair E_mol TotEng Press 
       0            0   -25495.242            0   -25495.242     96073.48 
     262            0   -29222.542            0   -29222.542    34901.183 
Loop time of 14.2881 on 8 procs for 262 steps with 162 atoms

99.2% CPU use with 8 MPI tasks x no OpenMP threads

Minimization stats:
  Stopping criterion = energy tolerance
  Energy initial, next-to-last, final = 
        -25495.2416251     -29222.5420054     -29222.5422935
  Force two-norm initial, final = 4644.75 107.037
  Force max component initial, final = 510.941 30.5272
  Final line search alpha, max atom move = 5.10144e-05 0.00155733
  Iterations, force evaluations = 262 1738

MPI task timing breakdown:
Section |  min time  |  avg time  |  max time  |%varavg| %total
---------------------------------------------------------------
Pair    | 10.664     | 11.242     | 11.721     |  11.4 | 78.68
Neigh   | 0          | 0          | 0          |   0.0 |  0.00
Comm    | 0.077443   | 0.55429    | 1.1318     |  51.4 |  3.88
Output  | 0.0010654  | 0.0014658  | 0.0028443  |   1.4 |  0.01
Modify  | 2.468      | 2.4692     | 2.4703     |   0.1 | 17.28
Other   |            | 0.02071    |            |       |  0.14

Nlocal:    20.25 ave 33 max 4 min
Histogram: 2 0 1 0 1 0 0 1 0 3
Nghost:    846.25 ave 893 max 796 min
Histogram: 2 1 1 0 0 0 0 0 2 2
Neighs:    2788.25 ave 4445 max 594 min
Histogram: 2 0 0 1 1 0 0 0 1 3

Total # of neighbors = 22306
Ave neighs/atom = 137.691
Neighbor list builds = 0
Dangerous builds = 0
WARNING: Using 'neigh_modify every 1 delay 0 check yes' setting during minimization (../min.cpp:190)
WARNING: Total cutoff < 2*bond cutoff. May need to use an increased neighbor list skin. (../pair_reaxc.cpp:413)
Setting up cg style minimization ...
  Unit style    : real
  Current step  : 262
Per MPI rank memory allocation (min/avg/max) = 22.46 | 23.47 | 24.43 Mbytes
Step Temp E_pair E_mol TotEng Press 
     262            0   -29222.542            0   -29222.542    34901.183 
     263            0   -29222.542            0   -29222.542    34901.688 
Loop time of 0.0826691 on 8 procs for 1 steps with 162 atoms

99.2% CPU use with 8 MPI tasks x no OpenMP threads

Minimization stats:
  Stopping criterion = energy tolerance
  Energy initial, next-to-last, final = 
        -29222.5422935     -29222.5422935     -29222.5423423
  Force two-norm initial, final = 107.037 106.997
  Force max component initial, final = 30.5272 30.51
  Final line search alpha, max atom move = 5.11839e-05 0.00156162
  Iterations, force evaluations = 1 9

MPI task timing breakdown:
Section |  min time  |  avg time  |  max time  |%varavg| %total
---------------------------------------------------------------
Pair    | 0.063451   | 0.066509   | 0.069443   |   0.8 | 80.45
Neigh   | 0          | 0          | 0          |   0.0 |  0.00
Comm    | 0.00042984 | 0.0033451  | 0.0063901  |   3.7 |  4.05
Output  | 0          | 0          | 0          |   0.0 |  0.00
Modify  | 0.012572   | 0.012578   | 0.012583   |   0.0 | 15.21
Other   |            | 0.0002369  |            |       |  0.29

Nlocal:    20.25 ave 32 max 4 min
Histogram: 2 0 1 1 0 0 0 0 0 4
Nghost:    882.5 ave 932 max 832 min
Histogram: 2 1 1 0 0 0 0 0 2 2
Neighs:    2767.62 ave 4261 max 583 min
Histogram: 2 0 0 2 0 0 0 0 0 4

Total # of neighbors = 22141
Ave neighs/atom = 136.673
Neighbor list builds = 0
Dangerous builds = 0
WARNING: Using 'neigh_modify every 1 delay 0 check yes' setting during minimization (../min.cpp:190)
WARNING: Total cutoff < 2*bond cutoff. May need to use an increased neighbor list skin. (../pair_reaxc.cpp:413)
Setting up cg style minimization ...
  Unit style    : real
  Current step  : 263
WARNING: Energy due to 3 extra global DOFs will be included in minimizer energies
Per MPI rank memory allocation (min/avg/max) = 22.46 | 23.47 | 24.43 Mbytes
Step Temp E_pair E_mol TotEng Press Volume 
     263            0   -29222.542            0   -29222.542    34901.688    3522.7279 
     313            0   -29233.491            0   -29233.491    3831.8991    3526.7569 
Loop time of 0.668998 on 8 procs for 50 steps with 162 atoms

99.0% CPU use with 8 MPI tasks x no OpenMP threads

Minimization stats:
  Stopping criterion = linesearch alpha is zero
  Energy initial, next-to-last, final = 
        -29222.5423423     -29233.4908183     -29233.4908183
  Force two-norm initial, final = 4031.79 682.145
  Force max component initial, final = 3539.06 506.57
  Final line search alpha, max atom move = 1.35592e-14 6.8687e-12
  Iterations, force evaluations = 50 86

MPI task timing breakdown:
Section |  min time  |  avg time  |  max time  |%varavg| %total
---------------------------------------------------------------
Pair    | 0.54819    | 0.57399    | 0.59968    |   2.5 | 85.80
Neigh   | 0          | 0          | 0          |   0.0 |  0.00
Comm    | 0.0033932  | 0.028971   | 0.054637   |  11.2 |  4.33
Output  | 0.00019019 | 0.00024312 | 0.00045139 |   0.0 |  0.04
Modify  | 0.062815   | 0.062886   | 0.062977   |   0.0 |  9.40
Other   |            | 0.002907   |            |       |  0.43

Nlocal:    20.25 ave 32 max 4 min
Histogram: 2 0 1 1 0 0 0 0 0 4
Nghost:    882.5 ave 932 max 832 min
Histogram: 2 1 1 0 0 0 0 0 2 2
Neighs:    2767.62 ave 4261 max 583 min
Histogram: 2 0 0 2 0 0 0 0 0 4

Total # of neighbors = 22141
Ave neighs/atom = 136.673
Neighbor list builds = 0
Dangerous builds = 0
WARNING: Using 'neigh_modify every 1 delay 0 check yes' setting during minimization (../min.cpp:190)
WARNING: Total cutoff < 2*bond cutoff. May need to use an increased neighbor list skin. (../pair_reaxc.cpp:413)
Setting up cg style minimization ...
  Unit style    : real
  Current step  : 313
Per MPI rank memory allocation (min/avg/max) = 22.46 | 23.47 | 24.43 Mbytes
Step Temp E_pair E_mol TotEng Press 
     313            0   -29233.491            0   -29233.491    3831.8991 
     382            0   -29239.641            0   -29239.641      39452.9 
Loop time of 3.96303 on 8 procs for 69 steps with 162 atoms

99.2% CPU use with 8 MPI tasks x no OpenMP threads

Minimization stats:
  Stopping criterion = energy tolerance
  Energy initial, next-to-last, final = 
        -29233.4908183     -29239.6413424     -29239.6413736
  Force two-norm initial, final = 425.739 194.35
  Force max component initial, final = 51.0348 40.5849
  Final line search alpha, max atom move = 0.000167283 0.00678916
  Iterations, force evaluations = 69 468

MPI task timing breakdown:
Section |  min time  |  avg time  |  max time  |%varavg| %total
---------------------------------------------------------------
Pair    | 2.8999     | 3.1016     | 3.2555     |   6.8 | 78.26
Neigh   | 0          | 0          | 0          |   0.0 |  0.00
Comm    | 0.021706   | 0.17477    | 0.37612    |  28.5 |  4.41
Output  | 0.00027288 | 0.00036972 | 0.00083294 |   0.0 |  0.01
Modify  | 0.6802     | 0.68062    | 0.68101    |   0.0 | 17.17
Other   |            | 0.005641   |            |       |  0.14

Nlocal:    20.25 ave 32 max 4 min
Histogram: 2 0 1 1 0 0 0 0 0 4
Nghost:    878 ave 928 max 828 min
Histogram: 2 1 1 0 0 0 0 0 2 2
Neighs:    2764.25 ave 4253 max 580 min
Histogram: 2 0 0 2 0 0 0 0 0 4

Total # of neighbors = 22114
Ave neighs/atom = 136.506
Neighbor list builds = 0
Dangerous builds = 0
WARNING: Using 'neigh_modify every 1 delay 0 check yes' setting during minimization (../min.cpp:190)
WARNING: Total cutoff < 2*bond cutoff. May need to use an increased neighbor list skin. (../pair_reaxc.cpp:413)
Setting up cg style minimization ...
  Unit style    : real
  Current step  : 382
WARNING: Energy due to 3 extra global DOFs will be included in minimizer energies
Per MPI rank memory allocation (min/avg/max) = 22.46 | 23.47 | 24.43 Mbytes
Step Temp E_pair E_mol TotEng Press Volume 
     382            0   -29239.641            0   -29239.641      39452.9    3526.7569 
     466            0   -29255.102            0   -29255.102     928.5865     3533.232 
Loop time of 1.03487 on 8 procs for 84 steps with 162 atoms

99.3% CPU use with 8 MPI tasks x no OpenMP threads

Minimization stats:
  Stopping criterion = linesearch alpha is zero
  Energy initial, next-to-last, final = 
        -29239.6413736     -29255.1015657     -29255.1015657
  Force two-norm initial, final = 4241.47 453.173
  Force max component initial, final = 3637.89 218.033
  Final line search alpha, max atom move = 2.69975e-14 5.88635e-12
  Iterations, force evaluations = 84 134

MPI task timing breakdown:
Section |  min time  |  avg time  |  max time  |%varavg| %total
---------------------------------------------------------------
Pair    | 0.83597    | 0.88195    | 0.92055    |   3.3 | 85.22
Neigh   | 0          | 0          | 0          |   0.0 |  0.00
Comm    | 0.0072192  | 0.045664   | 0.091482   |  14.3 |  4.41
Output  | 0.00030059 | 0.0003824  | 0.00068941 |   0.0 |  0.04
Modify  | 0.10225    | 0.10236    | 0.10247    |   0.0 |  9.89
Other   |            | 0.004507   |            |       |  0.44

Nlocal:    20.25 ave 32 max 4 min
Histogram: 2 0 1 1 0 0 0 0 0 4
Nghost:    875.25 ave 924 max 828 min
Histogram: 3 0 1 0 0 0 0 0 2 2
Neighs:    2765.25 ave 4251 max 582 min
Histogram: 2 0 0 2 0 0 0 0 0 4

Total # of neighbors = 22122
Ave neighs/atom = 136.556
Neighbor list builds = 0
Dangerous builds = 0
WARNING: Using 'neigh_modify every 1 delay 0 check yes' setting during minimization (../min.cpp:190)
WARNING: Total cutoff < 2*bond cutoff. May need to use an increased neighbor list skin. (../pair_reaxc.cpp:413)
Setting up cg style minimization ...
  Unit style    : real
  Current step  : 466
Per MPI rank memory allocation (min/avg/max) = 22.46 | 23.47 | 24.43 Mbytes
Step Temp E_pair E_mol TotEng Press 
     466            0   -29255.102            0   -29255.102     928.5865 
     551            0   -29263.714            0   -29263.714    33615.413 
Loop time of 5.28192 on 8 procs for 85 steps with 162 atoms

99.3% CPU use with 8 MPI tasks x no OpenMP threads

Minimization stats:
  Stopping criterion = energy tolerance
  Energy initial, next-to-last, final = 
        -29255.1015657     -29263.7135135     -29263.7136421
  Force two-norm initial, final = 383.536 49.1618
  Force max component initial, final = 45.4858 8.30107
  Final line search alpha, max atom move = 0.000187515 0.00155658
  Iterations, force evaluations = 85 633

MPI task timing breakdown:
Section |  min time  |  avg time  |  max time  |%varavg| %total
---------------------------------------------------------------
Pair    | 3.8573     | 4.1531     | 4.3619     |   8.5 | 78.63
Neigh   | 0          | 0          | 0          |   0.0 |  0.00
Comm    | 0.036099   | 0.24416    | 0.53952    |  35.1 |  4.62
Output  | 0.00034347 | 0.0004411  | 0.00083142 |   0.0 |  0.01
Modify  | 0.87667    | 0.87706    | 0.87754    |   0.0 | 16.60
Other   |            | 0.007139   |            |       |  0.14

Nlocal:    20.25 ave 32 max 4 min
Histogram: 2 0 1 1 0 0 0 0 0 4
Nghost:    868.5 ave 921 max 818 min
Histogram: 3 0 1 0 0 0 0 0 2 2
Neighs:    2754.75 ave 4236 max 581 min
Histogram: 2 0 0 2 0 0 0 0 0 4

Total # of neighbors = 22038
Ave neighs/atom = 136.037
Neighbor list builds = 0
Dangerous builds = 0
WARNING: Total cutoff < 2*bond cutoff. May need to use an increased neighbor list skin. (../pair_reaxc.cpp:413)
Setting up Verlet run ...
  Unit style    : real
  Current step  : 0
  Time step     : 0.25
Per MPI rank memory allocation (min/avg/max) = 21.35 | 22.36 | 23.32 Mbytes
Step Temp TotEng KinEng PotEng Press 
       0          300   -29119.741    143.97313   -29263.714    35478.109 
     200    317.61529    -29164.23    152.42689   -29316.657    6092.9548 
     400     341.8206   -29186.424    164.04327   -29350.467    14289.713 
     600    259.18953   -29206.562    124.38775    -29330.95   -21420.657 
     800    304.88073   -29211.572    146.31544   -29357.888    33665.032 
    1000    305.61154   -29187.508    146.66616   -29334.174   -52477.978 
    1200    253.58493   -29197.541    121.69805    -29319.24    -5583.256 
    1400     292.8698    -29176.79    140.55127   -29317.342   -25671.953 
    1600    320.99692   -29164.482    154.04976   -29318.532    24452.445 
    1800    282.29728   -29175.909    135.47741   -29311.386    3835.2069 
    2000    311.83602   -29152.441    149.65336   -29302.094   -5108.2308 
    2200    275.12801   -29158.634     132.0368    -29290.67    19773.405 
    2400    276.91538   -29168.868    132.89458   -29301.763    9174.3122 
    2600     294.2974   -29130.536    141.23639   -29271.772   -21175.067 
    2800    344.73129   -29119.633    165.44014   -29285.073    -8833.584 
    3000    280.56635   -29156.342    134.64672   -29290.988   -2420.1091 
    3200    284.11976   -29126.092    136.35203   -29262.444   -21744.953 
    3400    296.10378   -29137.564    142.10329   -29279.667    6963.1558 
    3600    315.82571    -29128.27    151.56805   -29279.838   -13743.359 
    3800      298.114   -29125.805    143.06802   -29268.873   -3131.7021 
    4000    273.09701    -29136.16     131.0621   -29267.222   -18419.268 
    4200    361.41494   -29114.266     173.4468   -29287.713    6426.3155 
    4400    285.05283   -29143.461    136.79982    -29280.26    13887.191 
    4600    324.72482   -29146.334    155.83883   -29302.173    17251.158 
    4800     258.5515   -29179.494    124.08156   -29303.576    394.59914 
    5000    327.16806   -29165.002    157.01136   -29322.013     4038.962 
    5200    283.09581   -29203.754    135.86063   -29339.614      9830.03 
    5400    293.13359   -29176.438    140.67786   -29317.116   -9772.7414 
    5600    306.33434   -29175.522    147.01304   -29322.535    17101.819 
    5800    273.93126   -29213.661    131.46247   -29345.123   -41371.637 
    6000     305.6987   -29202.658    146.70799   -29349.366   -10933.702 
    6200      304.538   -29178.504    146.15096   -29324.655   -6390.1583 
    6400    301.70778   -29207.241    144.79271   -29352.033    -16833.47 
    6600    293.52815   -29214.067    140.86722   -29354.935   -21854.707 
    6800    308.54045    -29203.92    148.07178   -29351.992   -12966.289 
    7000    303.24084   -29190.095    145.52844   -29335.623    -20000.61 
    7200    277.33725   -29207.475    133.09704   -29340.572     23976.86 
    7400    296.45705   -29182.177    142.27283    -29324.45   -39378.755 
    7600    313.32588   -29174.162    150.36836   -29324.531   -13180.643 
    7800    288.73175   -29196.424    138.56537   -29334.989     2726.345 
    8000    302.09786   -29204.822    144.97991   -29349.802    -19575.56 
    8200    307.07497     -29207.5    147.36848   -29354.869    1624.0265 
    8400    299.98938   -29185.457    143.96803   -29329.425   -40439.673 
    8600    287.43874   -29213.836    137.94484   -29351.781   -52296.386 
    8800    308.21854   -29195.596    147.91729   -29343.513    22903.422 
    9000    318.55905   -29190.489    152.87981   -29343.369    -2129.003 
    9200    286.75253   -29187.453    137.61553   -29325.069     21755.67 
    9400    354.10886   -29185.601    169.94053   -29355.541    17980.823 
    9600    290.15997   -29211.827    139.25079   -29351.078   -32028.336 
    9800    291.16346   -29184.144    139.73238   -29323.876   -17664.795 
   10000    305.50703   -29189.691    146.61601   -29336.307   -18455.729 
   10200     290.5263   -29208.335     139.4266   -29347.761   -12305.431 
   10400    305.39469   -29196.911    146.56209   -29343.474      9944.45 
   10600    306.74342   -29188.635    147.20936   -29335.845    32721.883 
   10800    299.28736   -29215.868    143.63112   -29359.499   -13386.412 
   11000    323.91219   -29202.729    155.44884   -29358.177    7340.8528 
   11200    315.74093   -29181.581    151.52736   -29333.109    72435.876 
   11400    280.18088   -29203.943    134.46172   -29338.404   -21059.353 
   11600    322.84001   -29206.794    154.93428   -29361.728    19799.243 
   11800    348.80399   -29185.527    167.39467   -29352.921   -32164.844 
   12000     291.1364   -29218.626    139.71939   -29358.345   -8761.0488 
   12200     310.2172    -29196.88    148.87647   -29345.756   -63027.713 
   12400     323.9021   -29198.999    155.44399   -29354.443     17601.92 
   12600     283.4818   -29206.981    136.04587   -29343.027   -5338.4754 
   12800    336.20094   -29169.804    161.34633   -29331.151   -49603.111 
   13000    301.99189   -29198.655    144.92906   -29343.584    43939.397 
   13200     288.9574   -29203.384    138.67367   -29342.058    16518.771 
   13400    306.13484   -29170.948     146.9173   -29317.866    -1595.265 
   13600    304.75989   -29197.218    146.25745   -29343.476    15094.166 
   13800    314.84993   -29204.861    151.09976   -29355.961   -14389.311 
   14000    294.58877   -29206.258    141.37622   -29347.634   -15457.762 
   14200    262.17853   -29208.702    125.82221   -29334.524   -36876.079 
   14400    324.33842   -29178.323    155.65339   -29333.977    -10905.14 
   14600     281.7957   -29201.919    135.23669   -29337.156    60975.297 
   14800    298.46844    -29210.43    143.23812   -29353.669   -9419.9976 
   15000    294.56261   -29202.727    141.36366   -29344.091   -16122.361 
   15200    297.41502    -29191.74    142.73257   -29334.472   -22163.721 
   15400    324.55228   -29184.748    155.75602   -29340.504   -6010.7982 
   15600    324.54831   -29186.802    155.75411   -29342.556   -12372.101 
   15800    272.72267   -29210.975    130.88245   -29341.858   -9284.6553 
   16000    314.42508   -29178.823    150.89587   -29329.719   -28596.241 
   16200    301.22901   -29196.089    144.56294   -29340.652    14736.628 
   16400    299.69191   -29193.171    143.82527   -29336.996     8288.957 
   16600    317.50745   -29171.385    152.37513    -29323.76   -21576.298 
   16800    282.07509   -29199.445    135.37077   -29334.816    18732.834 
   17000    300.15944   -29203.259    144.04964   -29347.308      -9749.1 
   17200    250.64012   -29236.847     120.2848   -29357.132   -22793.553 
   17400    308.99883   -29203.662    148.29176   -29351.954    21919.201 
   17600    303.08459   -29189.218    145.45345   -29334.671   -22387.636 
   17800    281.83001   -29221.438    135.25316   -29356.691    16563.484 
   18000    302.65666   -29204.102    145.24808    -29349.35   -47538.779 
   18200    311.52578    -29185.18    149.50447   -29334.684    28270.536 
   18400    302.76383   -29180.244    145.29952   -29325.544    4967.1681 
   18600    282.17892   -29196.281     135.4206   -29331.701   -596.18786 
   18800    290.11937   -29203.828    139.23131    -29343.06   -9409.7854 
   19000    321.60386   -29188.357    154.34104   -29342.698   -23183.041 
   19200     291.0168   -29212.582    139.66199   -29352.244   -14607.383 
   19400    271.45122   -29203.576    130.27227   -29333.848    9885.7171 
   19600    313.34059   -29195.578    150.37542   -29345.953   -4903.4535 
   19800    317.90052   -29176.492    152.56377   -29329.056   -5316.7264 
   20000    330.74445   -29173.875     158.7277   -29332.602    491.37911 
   20200    281.40328   -29190.562    135.04836    -29325.61    11951.071 
   20400    273.71205   -29191.629    131.35726   -29322.987   -29963.491 
   20600    323.77705   -29164.007    155.38398   -29319.391   -9633.4565 
   20800    286.03839   -29194.104    137.27281   -29331.376   -1108.2417 
   21000    273.66952   -29188.767    131.33685   -29320.103    13703.316 
   21200    315.87675   -29159.397    151.59254    -29310.99   -18371.997 
   21400     307.4167   -29175.676    147.53248   -29323.209   -4334.5979 
   21600    297.47277    -29197.33    142.76028    -29340.09   -21054.205 
   21800    297.55011   -29203.375     142.7974   -29346.172    30370.027 
   22000    327.98703   -29175.772    157.40439   -29333.177   -30208.122 
   22200    311.98608   -29189.441    149.72537   -29339.167   -32253.753 
   22400    265.74442   -29205.904    127.53352   -29333.437   -1770.2737 
   22600    316.07601   -29180.449    151.68817   -29332.137    3015.0671 
   22800    295.31755   -29185.224    141.72597    -29326.95   -23346.089 
   23000    277.80526   -29214.802    133.32164   -29348.123    9832.0345 
   23200    288.74792   -29193.632    138.57314   -29332.205   -12403.709 
   23400    307.38384   -29188.617    147.51671   -29336.134    17079.604 
   23600    302.51507   -29209.819    145.18013   -29354.999    20384.959 
   23800    275.96416    -29213.67    132.43807   -29346.108   -29187.219 
   24000    313.95273   -29178.908    150.66919   -29329.577    13544.411 
   24200    282.55359    -29200.41    135.60041   -29336.011     10844.65 
   24400     284.2169   -29197.355    136.39865   -29333.753     17236.93 
   24600    308.64525   -29171.852    148.12207   -29319.974    33390.882 
   24800    302.51044    -29198.89    145.17791   -29344.068    769.77114 
   25000    311.80031   -29171.173    149.63622   -29320.809    10117.377 
   25200    336.24023   -29175.932    161.36519   -29337.297    24629.577 
   25400    297.96157   -29198.475    142.99486    -29341.47   -42311.598 
   25600    301.87794    -29192.06    144.87437   -29336.934   -7891.2611 
   25800    325.14339   -29178.396     156.0397   -29334.436   -46062.726 
   26000    286.63778     -29202.6    137.56046   -29340.161    38256.753 
   26200    288.87066   -29194.845    138.63204   -29333.477    9387.7722 
   26400    308.29757   -29174.175    147.95521    -29322.13    4740.8051 
   26600    303.87984   -29187.456     145.8351   -29333.291   -4584.5083 
   26800    311.99345   -29184.899    149.72891   -29334.628     28869.12 
   27000      290.501   -29192.738    139.41446   -29332.153   -14241.862 
   27200    315.81386   -29171.126    151.56236   -29322.688    13806.692 
   27400    298.29883   -29175.399    143.15672   -29318.555   -10023.282 
   27600    284.71867   -29196.593    136.63945   -29333.232   -11212.053 
   27800    275.65829   -29179.311    132.29129   -29311.603   -7321.6012 
   28000    335.21732   -29159.998    160.87428   -29320.872     35119.15 
   28200    287.82356    -29199.15    138.12952    -29337.28   -7696.6644 
   28400    303.34989   -29178.892    145.58077   -29324.472    45344.512 
   28600    297.53437   -29183.587    142.78984   -29326.376   -27676.161 
   28800    281.92463   -29200.957    135.29857   -29336.255    20801.593 
   29000     311.6667   -29176.943     149.5721   -29326.515   -204.64568 
   29200    290.02044   -29192.125    139.18383   -29331.309   -275.92925 
   29400    303.47451   -29201.045    145.64058   -29346.686    10895.876 
   29600    297.78717   -29178.123    142.91116   -29321.034    6745.6301 
   29800    301.04694   -29183.375    144.47556   -29327.851    19835.384 
   30000    281.42382   -29207.934    135.05822   -29342.992   -1110.3766 
   30200    313.54476   -29183.638     150.4734   -29334.111    1107.0788 
   30400    302.21311   -29178.049    145.03522   -29323.084   -17982.967 
   30600    300.64172   -29189.602    144.28109   -29333.884    -643.1739 
   30800    276.56337   -29204.755    132.72564   -29337.481    18163.009 
   31000    293.74408   -29170.633    140.97085   -29311.604   -7017.6391 
   31200    276.57065   -29189.758    132.72914   -29322.487   -60975.533 
   31400    297.69398   -29194.442    142.86644   -29337.308   -11445.935 
   31600    315.23719   -29169.087    151.28561   -29320.373    6282.6046 
   31800    284.76244   -29200.272    136.66046   -29336.933    12838.395 
   32000    324.80903   -29196.722    155.87924   -29352.601    2968.0082 
   32200    322.98068   -29165.521    155.00179   -29320.523    8883.3882 
   32400    321.88178   -29176.753    154.47442   -29331.227   -7709.2247 
   32600    279.87949   -29203.425    134.31708   -29337.742   -6242.6018 
   32800    287.22965   -29208.108     137.8445   -29345.953    22634.317 
   33000    305.95535    -29179.36    146.83116   -29326.191    -618.6096 
   33200    300.19453   -29199.326    144.06648   -29343.392   -16272.906 
   33400     282.8831   -29192.485    135.75855   -29328.244   -10197.032 
   33600    326.06356   -29167.598     156.4813   -29324.079    20810.711 
   33800    317.13612   -29184.019    152.19693   -29336.216   -6969.5427 
   34000    297.00114    -29203.72    142.53394   -29346.254   -37835.085 
   34200    322.97404   -29199.479    154.99861   -29354.478   -24699.315 
   34400    309.40473    -29181.16    148.48655   -29329.647    41829.772 
   34600    291.63444   -29212.122    139.95841   -29352.081    1020.7177 
   34800    298.97606   -29201.664    143.48173   -29345.145    2721.9436 
   35000    341.60206   -29175.997    163.93839   -29339.935    -23742.93 
   35200    323.24128   -29179.512    155.12686   -29334.639    15878.273 
   35400     305.0677   -29204.314    146.40517   -29350.719    10056.322 
   35600    310.00377   -29188.234    148.77404   -29337.008   -24402.245 
   35800    315.47762   -29181.524      151.401   -29332.925     6725.337 
   36000    303.55356   -29195.967    145.67851   -29341.646   -14510.239 
   36200    308.15675   -29198.839    147.88763   -29346.727   -4977.1687 
   36400    312.31154    -29172.41    149.88156   -29322.291   -12246.121 
   36600    290.12147   -29195.008    139.23231    -29334.24    7161.8411 
   36800    292.34016   -29198.187    140.29709   -29338.484   -52840.135 
   37000    323.38243   -29175.307     155.1946   -29330.502   -19015.558 
   37200    326.95032   -29173.127    156.90687   -29330.034    -10564.99 
   37400    282.28287   -29201.761    135.47049   -29337.232    5605.7869 
   37600    312.32816   -29177.491    149.88954    -29327.38    772.03685 
   37800    335.53027   -29172.511    161.02447   -29333.536    9267.3389 
   38000    301.00942   -29186.729    144.45756   -29331.187   -26589.356 
   38200    268.51261   -29209.016      128.862   -29337.878    1377.0212 
   38400    300.91584   -29186.526    144.41265   -29330.939   -35845.303 
   38600    318.95592   -29179.609    153.07027    -29332.68    -13870.99 
   38800     299.4434   -29208.514    143.70601    -29352.22   -23497.636 
   39000    320.42329   -29173.908    153.77448   -29327.683   -22457.518 
   39200    320.79872   -29186.027    153.95465   -29339.982    5323.5982 
   39400    264.30178   -29204.639    126.84118    -29331.48    -43507.74 
   39600    311.38074    -29177.97    149.43486   -29327.405    37513.775 
   39800    296.27489   -29184.876     142.1854   -29327.062    21085.885 
   40000    273.12238   -29201.834    131.07427   -29332.908   -10118.717 
   40200    327.49915   -29192.952    157.17025   -29350.122   -6435.3542 
   40400    311.29668   -29181.164    149.39452   -29330.558   -15510.444 
   40600     326.1385   -29185.399    156.51726   -29341.916    37204.853 
   40800    296.45621   -29206.465    142.27242   -29348.737    4753.4851 
   41000    295.01886   -29171.301    141.58263   -29312.884    26078.634 
   41200    305.74443   -29185.852    146.72994   -29332.582    38757.044 
   41400    296.69678   -29200.588    142.38788   -29342.976    34914.957 
   41600    321.93667   -29174.687    154.50076   -29329.188   -33802.882 
   41800    294.64782   -29178.205    141.40456   -29319.609    14393.304 
   42000    305.96368   -29194.768    146.83516   -29341.603    23161.457 
   42200    292.46796    -29196.44    140.35842   -29336.799    11604.256 
   42400    336.42669   -29167.694    161.45468   -29329.148   -18260.468 
   42600    288.73098   -29196.055    138.56501    -29334.62   -37734.095 
   42800     285.4729   -29194.842    137.00142   -29331.843   -1605.3222 
   43000    328.81331   -29172.394    157.80093   -29330.195    43525.773 
   43200    343.94234   -29145.916    165.06151   -29310.978    13561.819 
   43400    325.93814   -29185.628    156.42111   -29342.049   -23028.428 
   43600    291.54577   -29184.411    139.91585   -29324.327   -17819.225 
   43800    294.61847   -29164.461    141.39047   -29305.851   -22162.901 
   44000    290.96127   -29192.643    139.63535   -29332.278    -9460.771 
   44200    279.83338   -29196.438    134.29496   -29330.733    42182.579 
   44400    305.14414    -29164.54    146.44185   -29310.982    13094.707 
   44600    306.73609   -29196.029    147.20585   -29343.235     33403.99 
   44800    306.84067   -29194.989    147.25603   -29342.245   -19331.255 
   45000     331.6537   -29185.062    159.16407   -29344.226    36576.876 
   45200    288.12916   -29202.241    138.27619   -29340.517   -49539.629 
   45400    295.39518    -29203.28    141.76322   -29345.044   -9385.5399 
   45600    291.64021   -29177.219    139.96117    -29317.18   -22142.891 
   45800    296.64666   -29193.857    142.36382   -29336.221   -4657.8106 
   46000    277.68641   -29218.969     133.2646   -29352.234   -5053.6176 
   46200    265.58247   -29202.705    127.45579   -29330.161   -13251.571 
   46400    304.48535   -29181.971    146.12569   -29328.097   -11879.132 
   46600    300.43214   -29209.901    144.18051   -29354.081    -10128.92 
   46800    272.80178   -29206.917    130.92042   -29337.837    -22143.91 
   47000    321.15641   -29187.048    154.12631   -29341.175    -2429.882 
   47200    296.03023   -29190.659    142.06799   -29332.727    12860.791 
   47400    291.44706   -29211.949    139.86848   -29351.817    26647.622 
   47600    292.21454    -29191.25     140.2368   -29331.487    18178.624 
   47800     304.5729   -29182.611    146.16771   -29328.778   -36561.715 
   48000    324.40404   -29159.417    155.68488   -29315.102   -2570.1916 
   48200    282.09559   -29196.952    135.38061   -29332.333    10561.086 
   48400    301.15763   -29190.463    144.52868   -29334.991    21646.784 
   48600    327.91287   -29162.509     157.3688   -29319.878   -2284.1758 
   48800    294.47526    -29197.52    141.32174   -29338.842    9594.4978 
   49000    316.40837   -29190.498    151.84767   -29342.345    13517.046 
   49200    331.54558   -29161.705    159.11218   -29320.818    43627.664 
   49400     316.8663   -29188.216    152.06744   -29340.284    11030.632 
   49600    293.26206   -29196.247    140.73952   -29336.986    23657.466 
   49800    327.60101   -29166.822    157.21914   -29324.041   -59644.487 
   50000    322.69523   -29190.264     154.8648   -29345.129   -58821.884 
   50200      291.078   -29189.854    139.69137   -29329.545   -21334.198 
   50400    335.44048   -29175.257    160.98138   -29336.239    1209.9684 
   50600    294.39976   -29187.529    141.28551   -29328.815   -36115.246 
   50800    279.54434   -29191.016    134.15624   -29325.173   -115.33641 
   51000    290.62769    -29185.21    139.47525   -29324.686   -1258.9596 
   51200    287.77874   -29182.153    138.10801   -29320.261   -14572.685 
   51400    297.49949   -29209.819     142.7731   -29352.593     9702.212 
   51600    314.58978   -29190.843    150.97491   -29341.818    39536.613 
   51800    304.76949   -29184.264    146.26205   -29330.526    30574.542 
   52000    287.15407   -29206.605    137.80823   -29344.413   -5446.3213 
   52200    303.82004   -29202.276     145.8064   -29348.083    18216.652 
   52400    315.17475     -29177.3    151.25565   -29328.556    12705.665 
   52600    283.37533   -29206.162    135.99477   -29342.157     10761.78 
   52800    294.43246   -29204.541     141.3012   -29345.842   -1939.6655 
   53000    298.97238   -29189.536    143.47996   -29333.016    14320.597 
   53200    313.94806   -29180.347    150.66694   -29331.014    44925.457 
   53400    289.98872   -29210.882    139.16861    -29350.05    2791.1788 
   53600    296.53116   -29201.535    142.30839   -29343.844   -25159.937 
   53800    315.05854   -29183.622    151.19988   -29334.822   -13285.446 
   54000    292.06696   -29206.778    140.16597   -29346.944   -33488.759 
   54200    298.35521   -29206.899    143.18377   -29350.083    4871.8183 
   54400    330.82554    -29181.62    158.76662   -29340.387    38149.749 
   54600    275.63956   -29213.915    132.28229   -29346.198    29958.781 
   54800    298.42136   -29200.349    143.21552   -29343.564   -16080.232 
   55000    337.13945   -29195.228    161.79674   -29357.024    23550.449 
   55200    293.80632   -29220.517    141.00071   -29361.518   -11787.702 
   55400    298.22109   -29193.549    143.11941   -29336.668     -23946.4 
   55600    289.99583   -29203.221    139.17202   -29342.393     35027.25 
   55800     323.1835   -29207.933    155.09913   -29363.032   -32490.208 
   56000    297.65332   -29208.998    142.84693   -29351.845    18165.926 
   56200    344.94856    -29176.87    165.54441   -29342.414   -2122.3765 
   56400    313.20507     -29198.5    150.31038   -29348.811    45597.214 
   56600    277.39601   -29199.208    133.12523   -29332.333    7800.3192 
   56800    315.48483   -29164.917    151.40445   -29316.322   -35313.899 
   57000    278.50721   -29185.106    133.65851   -29318.765    18880.006 
   57200    301.55963   -29194.088    144.72161   -29338.809      3288.13 
   57400    290.21697    -29191.45    139.27815   -29330.728    5028.6305 
   57600    298.54971   -29173.691    143.27712   -29316.969   -4903.9856 
   57800    302.54986   -29204.783    145.19683   -29349.979    44626.334 
   58000    308.60592   -29191.434     148.1032   -29339.537   -55722.915 
   58200    345.01552   -29169.957    165.57654   -29335.533   -38567.913 
   58400    313.10456   -29188.928    150.26214    -29339.19    4724.4006 
   58600    297.70089    -29201.42    142.86976    -29344.29   -14811.541 
   58800    337.13459   -29168.758     161.7944   -29330.552    12721.193 
   59000    266.85943   -29203.504    128.06862   -29331.572    27309.102 
   59200    329.70979   -29188.754    158.23116   -29346.985   -2314.1526 
   59400    324.36083   -29177.457    155.66414   -29333.121   -7023.2702 
   59600    278.55284   -29204.756    133.68041   -29338.436   -20389.052 
   59800    303.57283   -29184.789    145.68776   -29330.476   -12622.936 
   60000    296.88068    -29207.47    142.47613   -29349.947    4636.8462 
   60200     289.4941   -29213.343    138.93124   -29352.275    1693.9867 
   60400    316.67167   -29194.103    151.97403   -29346.077    36682.257 
   60600    283.00912   -29202.674    135.81903   -29338.494    28504.377 
   60800    276.52787   -29217.757     132.7086   -29350.466    32382.051 
   61000    319.84437   -29189.949    153.49665   -29343.446   -7193.3186 
   61200    304.93993   -29205.182    146.34385   -29351.525    13017.705 
   61400    290.38705   -29201.446    139.35977   -29340.806    -36462.53 
   61600    303.57024   -29194.056    145.68652   -29339.742    4687.5806 
   61800    274.50555   -29216.606    131.73807   -29348.344   -31075.017 
   62000    321.20292   -29184.362    154.14863   -29338.511   -13785.881 
   62200    287.59867   -29199.322     138.0216   -29337.344    815.40149 
   62400    288.47687   -29207.958    138.44305   -29346.401   -6236.0662 
   62600     298.6072   -29173.242     143.3047   -29316.546   -26589.856 
   62800    319.95471   -29195.922     153.5496   -29349.472    16844.709 
   63000    293.67772   -29201.864      140.939   -29342.803    11008.573 
   63200    295.46855   -29186.959    141.79843   -29328.757   -28025.285 
   63400    284.39755   -29181.794    136.48535   -29318.279    9714.3777 
   63600     287.6258   -29209.153    138.03462   -29347.188   -19076.398 
   63800    290.20905   -29182.894    139.27435   -29322.169    11812.699 
   64000    330.61942   -29178.943     158.6677   -29337.611   -697.23273 
   64200     282.8135   -29201.138    135.72515   -29336.864    27961.573 
   64400     253.9598    -29226.55    121.87796   -29348.428   -52643.329 
   64600    292.16477   -29191.084    140.21292   -29331.297     2826.049 
   64800    299.28942   -29175.171    143.63211   -29318.803    37268.344 
   65000    309.77627   -29197.755    148.66486    -29346.42   -3861.0037 
   65200    283.78202   -29196.724    136.18995   -29332.914   -11025.792 
   65400    312.64205    -29180.68    150.04018    -29330.72    27777.671 
   65600    311.63918   -29187.418    149.55889   -29336.977   -42573.786 
   65800    268.88092   -29215.132    129.03876   -29344.171    37231.727 
   66000    301.48798   -29184.385    144.68722   -29329.073   -2197.0368 
   66200    316.25747   -29193.605    151.77526    -29345.38    -20059.69 
   66400     267.6928   -29210.191    128.46857    -29338.66    25535.364 
   66600    337.44137   -29173.422    161.94163   -29335.364    3867.9134 
   66800    285.40646   -29198.255    136.96953   -29335.225    60663.655 
   67000    290.21474   -29200.635    139.27708   -29339.912    16358.324 
   67200    339.87757   -29165.984    163.11079   -29329.095    27236.436 
   67400    269.86987   -29199.429    129.51336   -29328.943   -11558.773 
   67600    316.39657   -29208.674    151.84201   -29360.516     34722.32 
   67800    323.61962   -29201.801    155.30843    -29357.11    20076.792 
   68000    315.97646   -29187.085     151.6404   -29338.726   -37350.523 
   68200    274.11879   -29215.107    131.55246   -29346.659    7851.6174 
   68400    296.31812    -29199.74    142.20615   -29341.947   -29629.321 
   68600     289.4814   -29189.479    138.92514   -29328.404    16966.938 
   68800    283.92364   -29194.392    136.25791    -29330.65   -25525.303 
   69000    299.14799   -29196.437    143.56423   -29340.002   -5696.1325 
   69200    317.24206   -29171.319    152.24777   -29323.566   -24005.852 
   69400     300.2158   -29204.916    144.07669   -29348.993   -28865.992 
   69600     290.0717   -29194.355    139.20843   -29333.563   -23095.174 
   69800    329.68003    -29175.68    158.21688   -29333.897    10.022095 
   70000    296.36775   -29213.135    142.22997   -29355.365   -26548.876 
   70200    302.60875   -29195.028    145.22509   -29340.253     10910.47 
   70400    328.49241   -29182.117    157.64693   -29339.764     13463.14 
   70600    300.20165   -29215.334     144.0699   -29359.403   -11916.969 
   70800    325.63334   -29188.134    156.27483   -29344.409    21299.127 
   71000    292.00858   -29186.188    140.13796   -29326.326   -751.98679 
   71200    306.95566   -29204.947    147.31122   -29352.258   -25267.173 
   71400    295.19444   -29197.421    141.66689   -29339.088   -19678.654 
   71600    323.09666   -29181.406    155.05745   -29336.463    3559.9576 
   71800    275.23513   -29209.272    132.08821    -29341.36    13218.704 
   72000    292.70426   -29207.299    140.47183    -29347.77   -20968.976 
   72200    298.69827   -29197.435    143.34841   -29340.784    2547.4681 
   72400    288.91771   -29218.123    138.65462   -29356.778   -21551.428 
   72600    298.14743   -29200.588    143.08406   -29343.672    19519.641 
   72800    301.88788   -29197.685    144.87914   -29342.564    12658.514 
   73000    295.81966   -29210.842    141.96694   -29352.809   -38080.781 
   73200    324.18512   -29175.283    155.57982   -29330.862   -49109.086 
   73400    271.26478   -29204.904    130.18279   -29335.086    28195.598 
   73600    291.58701    -29192.67    139.93565   -29332.605    33553.828 
   73800    337.52711   -29178.715    161.98278   -29340.697    22767.262 
   74000    304.10679   -29200.866    145.94402    -29346.81    22880.117 
   74200    317.61255   -29198.905    152.42557   -29351.331   -4115.9342 
   74400    335.55399   -29177.077    161.03586   -29338.113   -9207.9614 
   74600      313.999   -29206.009    150.69139     -29356.7   -5005.2526 
   74800    295.00094   -29191.268    141.57402   -29332.842    -9458.432 
   75000    371.08757   -29159.096    178.08879   -29337.185    17382.192 
   75200    306.05479   -29183.953    146.87888   -29330.832    52194.302 
   75400    279.70827   -29199.879    134.23491   -29334.113    -2236.866 
   75600    307.50517   -29170.409    147.57493   -29317.984    8881.7327 
   75800    300.72366   -29192.527    144.32042   -29336.848    20644.624 
   76000    309.93385   -29191.888    148.74048   -29340.629   -23039.352 
   76200    301.59113   -29185.683    144.73673   -29330.419    23693.376 
   76400     301.8934   -29204.059    144.88179    -29348.94    28445.364 
   76600    248.89891   -29199.668    119.44918   -29319.117   -6951.9373 
   76800    320.54517   -29178.834    153.83297   -29332.667   -25303.047 
   77000    300.28355   -29203.331     144.1092   -29347.441    22028.324 
   77200    291.30273   -29194.434    139.79921   -29334.233    2481.7086 
   77400    307.50238   -29184.962     147.5736   -29332.535   -43271.531 
   77600    285.78494   -29191.003    137.15117   -29328.154   -9957.8044 
   77800    305.89843   -29191.221    146.80384   -29338.025   -824.65288 
   78000    315.20862   -29171.053     151.2719   -29322.324   -19581.947 
   78200    295.01969   -29191.388    141.58302   -29332.971   -6788.2121 
   78400    269.74158    -29183.08    129.45179   -29312.532    17026.769 
   78600     324.3684   -29178.316    155.66777   -29333.984    12418.047 
   78800     272.1205   -29204.672    130.59346   -29335.266   -7977.1697 
   79000    325.98703   -29177.118    156.44457   -29333.562    -8453.155 
   79200    275.35422   -29206.582    132.14536   -29338.727    34363.443 
   79400      280.567   -29202.376    134.64703   -29337.023    15441.822 
   79600    297.84932   -29186.979    142.94099    -29329.92    17258.049 
   79800    271.01647   -29222.739    130.06363   -29352.803     12521.68 
   80000    296.40919   -29202.098    142.24986   -29344.348   -15995.432 
   80200    306.39121   -29199.195    147.04033   -29346.236    1493.7823 
   80400    296.55282    -29215.78    142.31879   -29358.099    4851.2218 
   80600    274.43053   -29223.991    131.70207   -29355.693   -1669.9619 
   80800    309.58208   -29197.566    148.57167   -29346.138     15054.86 
   81000    289.52956   -29190.886    138.94825   -29329.835    19912.368 
   81200    306.81197   -29187.138    147.24226    -29334.38    13388.299 
   81400    282.35618   -29211.212    135.50567   -29346.718   -29588.731 
   81600    282.70019   -29183.311    135.67077   -29318.982   -25714.944 
   81800    295.79635   -29194.103    141.95575   -29336.059    1213.8646 
   82000    285.40832   -29200.476    136.97042   -29337.446    19282.771 
   82200    304.42843   -29170.598    146.09837   -29316.697    19025.938 
   82400    298.86707   -29200.843    143.42942   -29344.272    -18865.45 
   82600    288.77478   -29193.689    138.58603   -29332.275   -20245.368 
   82800    301.25244   -29169.717    144.57419   -29314.291    7071.7868 
   83000    323.82377   -29179.943     155.4064   -29335.349   -19281.008 
   83200    279.92568   -29202.473    134.33925   -29336.813   -24038.961 
   83400     328.9414   -29181.376    157.86241   -29339.238   -340.87875 
   83600    317.47385    -29173.91    152.35901   -29326.269       -28474 
   83800    303.81905   -29201.606    145.80593   -29347.412    13815.055 
   84000    315.78176   -29175.611    151.54695   -29327.158    8635.9034 
   84200      315.089   -29163.907    151.21449   -29315.121   -36612.582 
   84400    307.08116   -29172.482    147.37145   -29319.853    54355.204 
   84600    302.15789   -29195.836    145.00872   -29340.845   -18519.105 
   84800    326.24005   -29165.213      156.566   -29321.779   -19959.831 
   85000    299.29531   -29176.463    143.63494   -29320.098   -56990.865 
   85200    311.55924   -29187.258    149.52052   -29336.778    28000.284 
   85400    313.32258   -29175.879    150.36677   -29326.245   -10239.553 
   85600    311.70322   -29174.855    149.58962   -29324.444    28624.364 
   85800    267.46886   -29197.972    128.36109   -29326.333    8242.1481 
   86000    322.15005   -29177.951    154.60316   -29332.554   -43143.679 
   86200     309.2183   -29175.798    148.39709   -29324.195    54460.542 
   86400    295.75779   -29195.201    141.93724   -29337.139    9513.3467 
   86600    305.93636   -29181.931    146.82205   -29328.753    29470.148 
   86800    297.65637   -29183.628    142.84839   -29326.476    61874.255 
   87000    297.68305    -29205.95    142.86119   -29348.811    33260.623 
   87200    322.40556   -29174.372    154.72579   -29329.098    -38255.84 
   87400    326.96379   -29177.564    156.91333   -29334.478   -21510.395 
   87600    302.08809   -29191.271    144.97522   -29336.246    -48738.15 
   87800    289.35712   -29214.597     138.8655   -29353.463    3118.1027 
   88000    323.52046   -29175.546    155.26084   -29330.807   -15668.813 
   88200    316.48244   -29194.583    151.88322   -29346.466    65075.749 
   88400    293.39692   -29209.147    140.80424   -29349.951   -12732.586 
   88600    314.18645   -29173.478    150.78135   -29324.259   -6807.6708 
   88800     309.7746   -29192.675    148.66406   -29341.339   -14300.232 
   89000    295.65415   -29207.041    141.88751   -29348.929   -1616.9745 
   89200    324.78653    -29184.65    155.86844   -29340.518    20319.055 
   89400    301.58048   -29185.193    144.73161   -29329.925   -24188.457 
   89600    282.28157   -29199.722    135.46987   -29335.192   -15467.199 
   89800    310.43035   -29183.696    148.97876   -29332.675    11138.706 
   90000    306.09656   -29171.324    146.89893   -29318.223    18097.385 
   90200    307.01822   -29197.995    147.34124   -29345.336   -14628.484 
   90400    331.09869    -29196.27    158.89771   -29355.168    8755.1853 
   90600    305.68368   -29201.349    146.70078    -29348.05   -19912.917 
   90800    313.43964   -29197.858    150.42295   -29348.281   -15070.201 
   91000    301.63491   -29178.648    144.75774   -29323.406    17242.342 
   91200    275.84558   -29212.064    132.38117   -29344.445    19172.945 
   91400    280.86242   -29190.535     134.7888   -29325.324   -44547.947 
   91600    293.11954    -29198.32    140.67112   -29338.991    15481.008 
   91800    271.92797   -29210.494    130.50107   -29340.996   -7769.1635 
   92000    293.91197   -29187.783    141.05142   -29328.834    24892.464 
   92200    280.39288   -29201.048    134.56347   -29335.612   -137.42108 
   92400    239.11801   -29216.042    114.75522   -29330.797     4415.226 
   92600    315.25266   -29184.654    151.29304   -29335.947    6773.9433 
   92800      271.368   -29210.623    130.23233   -29340.856    8429.1812 
   93000    295.92976   -29205.888    142.01977   -29347.908    24797.631 
   93200    322.39098   -29202.475    154.71879   -29357.194    2736.3256 
   93400    279.53415   -29222.223    134.15135   -29356.375    4534.6785 
   93600    278.12376   -29207.109    133.47449   -29340.584   -5751.6529 
   93800    299.12049   -29196.133    143.55104   -29339.684   -5945.8563 
   94000    278.49021   -29219.875    133.65035   -29353.525   -14096.952 
   94200     282.5623   -29211.934    135.60459   -29347.538    4115.7746 
   94400    284.81583   -29196.641    136.68609   -29333.327   -5270.8809 
   94600    270.85468   -29205.833    129.98598   -29335.819      -273.05 
   94800    264.95007   -29220.323     127.1523   -29347.476    15518.769 
   95000    291.87378   -29190.784    140.07327   -29330.857    53847.676 
   95200    291.10534   -29201.013    139.70449   -29340.717    51641.458 
   95400     280.6706   -29225.779    134.69674   -29360.476    5344.9513 
   95600    286.57645   -29202.994    137.53102   -29340.525   -20661.453 
   95800    298.58973   -29191.888    143.29632   -29335.184   -22672.448 
   96000    278.50257    -29211.91    133.65629   -29345.566    11729.341 
   96200    317.72522   -29191.263    152.47964   -29343.743    7906.0906 
   96400    297.98251   -29185.006    143.00491   -29328.011   -20247.479 
   96600    269.58618   -29218.916    129.37722   -29348.293    31895.774 
   96800    273.67547    -29202.29    131.33971    -29333.63   -15665.409 
   97000    302.01512   -29183.649     144.9402    -29328.59    13169.145 
   97200    327.54895   -29170.741    157.19415   -29327.935     17143.65 
   97400     323.9883    -29175.17    155.48536   -29330.655   -11604.306 
   97600    297.68973   -29200.315     142.8644   -29343.179   -16122.203 
   97800    317.91728   -29175.013    152.57182   -29327.585   -21633.932 
   98000    317.80039   -29180.014    152.51572    -29332.53   -38252.502 
   98200    267.57398   -29190.356    128.41154   -29318.768   -19934.984 
   98400     302.9692   -29184.251    145.39807   -29329.649    -9204.755 
   98600    296.36229   -29166.935    142.22735   -29309.163   -41051.126 
   98800    289.81964   -29197.887    139.08746   -29336.975    17305.753 
   99000    279.03116   -29179.582    133.90996   -29313.492    6517.1155 
   99200    278.36956   -29201.734    133.59245   -29335.327   -11261.177 
   99400    293.38119   -29200.991    140.79669   -29341.787     8070.012 
   99600    302.99678   -29180.333    145.41131   -29325.744    300.77892 
   99800    313.87336   -29211.411    150.63109   -29362.042   -28176.046 
  100000    285.11466   -29204.083     136.8295   -29340.913    -27540.87 
  100200    321.57524   -29183.525    154.32731   -29337.853    20033.778 
  100400    287.94541   -29197.085      138.188   -29335.273   -1858.8307 
  100600    280.56134   -29198.135    134.64431   -29332.779     12511.77 
  100800    327.48465   -29181.222     157.1633   -29338.385    4212.6965 
  101000    321.83228   -29176.797    154.45067   -29331.248     2014.762 
  101200    287.56874   -29205.834    138.00723   -29343.842    11760.827 
  101400    310.91741   -29185.699    149.21251   -29334.912   -14680.283 
  101600    317.32335   -29185.961    152.28678   -29338.248    19813.793 
  101800    321.85903   -29209.863     154.4635   -29364.326   -18813.237 
  102000    297.14834   -29184.238    142.60458   -29326.842    16432.108 
  102200    294.95793   -29206.114    141.55338   -29347.667     -7474.82 
  102400    289.34183   -29208.067    138.85816   -29346.925     2302.865 
  102600    321.15863    -29183.41    154.12737   -29337.537     858.6305 
  102800    295.68034   -29199.325    141.90008   -29341.225    22609.824 
  103000    272.02119   -29204.667     130.5458   -29335.212   -25071.916 
  103200    304.21571   -29183.534    145.99629   -29329.531   -15570.627 
  103400     290.1779   -29192.797     139.2594   -29332.057   -45580.671 
  103600    277.62914   -29210.753    133.23712    -29343.99   -16983.812 
  103800    280.90075   -29181.045    134.80719   -29315.852   -20199.717 
  104000    311.01451   -29188.157     149.2591   -29337.416    -15823.62 
  104200    278.14573   -29216.162    133.48503   -29349.647    -17427.75 
  104400    294.26929   -29183.453     141.2229   -29324.675   -17484.847 
  104600    280.47573   -29184.879    134.60322   -29319.482    -2166.051 
  104800    321.88729   -29179.566    154.47707   -29334.043    26517.935 
  105000    284.73182   -29197.794    136.64577   -29334.439    10629.373 
  105200    308.07717   -29179.266    147.84944   -29327.115    -4682.656 
  105400     317.0028   -29173.893    152.13295   -29326.026   -13422.186 
  105600     283.1794   -29192.257    135.90074   -29328.157    35654.714 
  105800     298.3145   -29185.785    143.16424   -29328.949   -41834.746 
  106000    344.55863   -29163.645    165.35727   -29329.003    4206.2427 
  106200    318.25842   -29172.369    152.73553   -29325.105   -33827.649 
  106400    304.58938   -29194.756    146.17562   -29340.932    24459.071 
  106600    277.09758    -29201.71    132.98201   -29334.692   -13697.001 
  106800    302.98262     -29177.6    145.40452   -29323.005   -29156.821 
  107000    329.31665   -29189.701    158.04249   -29347.743   -5794.1422 
  107200    307.88115   -29205.079    147.75537   -29352.834    16315.031 
  107400    302.53961   -29185.223    145.19191   -29330.415     11714.78 
  107600    278.93683   -29188.116    133.86469   -29321.981    25064.591 
  107800    298.68964   -29196.648    143.34427   -29339.992    9728.4426 
  108000    271.70327   -29218.847    130.39323    -29349.24   -16497.816 
  108200    311.66306   -29183.894    149.57035   -29333.464   -45002.385 
  108400    285.00907    -29203.73    136.77882   -29340.509    24430.877 
  108600    280.57097   -29210.929    134.64893   -29345.578    23021.021 
  108800    320.29575   -29198.921    153.71327   -29352.634   -3429.7587 
  109000    303.38187    -29176.39    145.59612   -29321.986    14568.632 
  109200    333.58309   -29177.746       160.09   -29337.836    16155.063 
  109400    284.61415   -29206.326     136.5893   -29342.916   -15064.772 
  109600      330.158   -29181.669    158.44626   -29340.115    2282.7818 
  109800     297.5685   -29188.963    142.80622    -29331.77    -21455.79 
  110000     266.6523   -29209.658    127.96922   -29337.627   -26029.929 
  110200    307.77459   -29179.565    147.70423   -29327.269   -7720.4133 
  110400    284.54007   -29199.246    136.55375     -29335.8    11094.769 
  110600    312.00335   -29201.019    149.73366   -29350.753   -26783.045 
  110800     320.9347    -29187.55     154.0199    -29341.57    37013.641 
  111000    278.25206   -29197.135    133.53606   -29330.671    17330.584 
  111200    320.85545   -29174.332    153.98187   -29328.314    16107.292 
  111400    289.91481   -29189.413    139.13314   -29328.546    8327.0017 
  111600    284.39818   -29199.478    136.48565   -29335.964    26896.273 
  111800    343.55518   -29170.514    164.87571    -29335.39    -7734.177 
  112000    263.75816   -29184.583    126.58029   -29311.163    -23029.21 
  112200    318.60321   -29186.538      152.901   -29339.439   -19642.239 
  112400    295.30119   -29184.719    141.71812   -29326.437     18859.03 
  112600    316.58925   -29197.047    151.93448   -29348.982    30262.479 
  112800    290.19642   -29193.149    139.26828   -29332.417   -32559.771 
  113000    289.25152   -29171.378    138.81482   -29310.193   -12643.344 
  113200    285.67068   -29209.719    137.09633   -29346.816   -63788.565 
  113400    291.70418   -29187.134    139.99187   -29327.126    4522.0691 
  113600    281.86737   -29186.412    135.27109   -29321.683    6020.4855 
  113800     279.9857   -29217.803    134.36806   -29352.171   -21568.677 
  114000    297.46651   -29192.244    142.75728   -29335.001   -10792.126 
  114200    304.84979   -29192.111    146.30059   -29338.411    3338.8443 
  114400    277.12986   -29218.883     132.9975   -29351.881   -7278.4385 
  114600    284.71952   -29204.945    136.63986   -29341.584    3435.4416 
  114800     296.0287   -29192.362    142.06726   -29334.429   -3291.1517 
  115000     283.7358   -29208.709    136.16777   -29344.877    13052.117 
  115200    280.17409   -29217.832    134.45847   -29352.291   -35728.262 
  115400    277.48947   -29194.624    133.17009   -29327.794    18359.727 
  115600    321.98229   -29192.021    154.52265   -29346.544   -30829.964 
  115800     282.9323   -29220.934    135.78216   -29356.716     -8577.77 
  116000    264.29184    -29190.06    126.83641   -29316.896   -1205.3391 
  116200    329.36844    -29193.26    158.06735   -29351.327    15379.026 
  116400    265.39775   -29213.188    127.36714   -29340.556   -2466.7321 
  116600    295.41351   -29175.645    141.77202   -29317.417    8606.3547 
  116800    312.87571   -29197.725    150.15231   -29347.877   -17703.217 
  117000    302.26989   -29201.084    145.06247   -29346.147    4737.6236 
  117200    311.45693   -29189.282    149.47142   -29338.753   -3552.1949 
  117400    299.68696   -29190.792     143.8229   -29334.615   -7247.4432 
  117600    265.08386   -29219.128     127.2165   -29346.344    1157.5845 
  117800     312.9912   -29188.807    150.20774   -29339.014    28012.747 
  118000    308.07089   -29191.717    147.84643   -29339.563   -10402.705 
  118200    255.65622   -29216.894    122.69208   -29339.586    22521.051 
  118400    313.98954   -29178.797    150.68685   -29329.484     15616.18 
  118600    311.06958   -29190.194    149.28553    -29339.48   -11265.281 
  118800    278.73908   -29203.207    133.76979   -29336.977    30709.695 
  119000    318.45919   -29170.014    152.83188   -29322.846    19233.424 
  119200    303.85944   -29197.759    145.82531   -29343.584   -2928.1343 
  119400    298.53938   -29178.088    143.27216   -29321.361    1147.6825 
  119600    314.26926   -29169.018    150.82109   -29319.839    7754.6216 
  119800    279.25481   -29195.876    134.01729   -29329.893    15677.972 
  120000    325.81041    -29168.25    156.35981    -29324.61    -5613.102 
  120200    295.40887    -29174.55    141.76979   -29316.319    4982.5817 
  120400    305.28862    -29189.56    146.51119   -29336.071   -18712.049 
  120600    270.44294   -29203.237    129.78838   -29333.025     45352.99 
  120800    290.42464   -29202.359    139.37781   -29341.737    12269.963 
  121000     327.3651   -29182.089    157.10592   -29339.195   -10635.573 
  121200     287.3965    -29207.96    137.92457   -29345.885    2785.0563 
  121400    282.38042    -29205.94     135.5173   -29341.457    42069.187 
  121600    277.62279   -29177.488    133.23407   -29310.723   -1239.1692 
  121800     315.7419   -29199.778    151.52783   -29351.306   -21749.415 
  122000    264.53496   -29201.822    126.95308   -29328.775   -32363.583 
  122200     313.6826   -29177.359    150.53955   -29327.899   -9307.2672 
  122400    289.88877   -29204.175    139.12064   -29343.295   -9836.9829 
  122600    282.80317   -29192.379    135.72019   -29328.099    22299.183 
  122800    340.78441   -29176.254    163.54599     -29339.8    24101.596 
  123000    295.05946    -29196.56    141.60211   -29338.162    7571.0481 
  123200     289.2114   -29209.811    138.79557   -29348.606   -16911.293 
  123400    270.95402   -29189.822    130.03366   -29319.855    16403.307 
  123600     314.5014   -29181.455     150.9325   -29332.387    23194.562 
  123800    301.19874   -29209.194    144.54841   -29353.742   -1892.8246 
  124000    270.55782   -29173.877    129.84352   -29303.721    4207.1524 
  124200    311.20352   -29188.888    149.34981   -29338.238    -22024.36 
  124400    268.43416   -29203.855    128.82435   -29332.679    3099.2077 
  124600     322.6238   -29169.746    154.83052   -29324.577    43939.461 
  124800    320.15482   -29195.237    153.64563   -29348.883   -13006.559 
  125000    297.53823   -29202.538    142.79169   -29345.329    33805.599 
  125200    294.00337   -29172.037    141.09528   -29313.132    -21296.58 
  125400     309.9191   -29192.087     148.7334    -29340.82    8745.0891 
  125600     311.1661   -29189.969    149.33185   -29339.301   -8863.1259 
  125800    318.33516   -29161.874    152.77236   -29314.647   -21918.998 
  126000    294.74405   -29191.756    141.45074   -29333.207    3209.3006 
  126200    294.69588   -29198.749    141.42762   -29340.177   -16176.287 
  126400    310.45008   -29185.917    148.98823   -29334.905   -61.016391 
  126600    340.84067   -29178.868    163.57299   -29342.441   -19815.116 
  126800      324.812   -29208.436    155.88066   -29364.317     10583.19 
  127000    303.02736   -29190.349    145.42599   -29335.775   -7952.6368 
  127200    297.64027   -29185.731    142.84067   -29328.572    24721.518 
  127400    283.39164   -29198.357     136.0026    -29334.36    36358.598 
  127600    273.20144   -29207.931    131.11222   -29339.043    -36807.98 
  127800     338.6966   -29177.105    162.54403   -29339.649   -11867.972 
  128000     282.6667   -29203.648    135.65469   -29339.302   -28518.785 
  128200    281.90236   -29207.672    135.28788    -29342.96   -12725.567 
  128400    308.51693   -29194.152    148.06049   -29342.213    25035.026 
  128600    331.19158   -29181.416    158.94229   -29340.358   -174.34286 
  128800    282.07361   -29212.326    135.37007   -29347.696   -5711.0912 
  129000    310.49587    -29187.92     149.0102   -29336.931     -26056.8 
  129200    282.67265   -29189.549    135.65755   -29325.207   -7208.6339 
  129400    327.03273   -29196.291    156.94641   -29353.238       -20325 
  129600    300.82282   -29195.125    144.36801   -29339.493    6505.9509 
  129800    305.60999    -29189.43    146.66542   -29336.095   -39514.711 
  130000    281.42259   -29210.418    135.05763   -29345.476   -38960.385 
  130200    289.04056   -29189.244    138.71357   -29327.957   -55450.004 
  130400    298.43876   -29185.494    143.22387   -29328.718    2720.5203 
  130600    307.17064   -29204.229    147.41439   -29351.644    33387.741 
  130800    312.92785   -29202.254    150.17733   -29352.431   -53591.482 
  131000    346.99682   -29168.603    166.52739    -29335.13    31998.396 
  131200    308.31714   -29201.136    147.96461   -29349.101   -44846.861 
  131400    302.06707    -29193.59    144.96513   -29338.555   -23793.811 
  131600     332.7227   -29177.033    159.67709    -29336.71   -14757.147 
  131800    283.71967   -29208.658    136.16002   -29344.818    9737.1409 
  132000    306.39078   -29185.005    147.04013   -29332.045   -2401.6351 
  132200    314.61038   -29180.684     150.9848   -29331.669    -12134.83 
  132400    274.78854   -29201.694    131.87388   -29333.568    9077.7879 
  132600    244.79112   -29231.539    117.47781   -29349.017   -7280.1108 
  132800    300.09894   -29196.577    144.02061   -29340.597    29806.194 
  133000    318.32749   -29179.991    152.76868   -29332.759   -21039.733 
  133200    288.01632   -29199.392    138.22203   -29337.614    8599.5951 
  133400     292.9178   -29201.412    140.57431   -29341.986   -40027.904 
  133600    299.23006   -29189.073    143.60362   -29332.676   -20750.441 
  133800    288.78476   -29189.304    138.59082   -29327.895    10269.615 
  134000    329.45804   -29171.983    158.11035   -29330.093   -18919.488 
  134200    296.31685   -29197.252    142.20554   -29339.458   -40215.348 
  134400    300.85658   -29187.193    144.38421   -29331.577   -1184.4417 
  134600    331.22414   -29174.773    158.95792   -29333.731   -10092.622 
  134800    304.99054   -29197.283    146.36814   -29343.651     19114.14 
  135000    313.60464   -29195.961    150.50214   -29346.463    22964.315 
  135200    328.38793   -29166.976    157.59679   -29324.573    31622.072 
  135400    285.19273   -29202.072    136.86696   -29338.939     27875.33 
  135600    294.21663    -29194.67    141.19762   -29335.867   -22060.428 
  135800    329.04438   -29165.913    157.91183   -29323.825    66091.396 
  136000    298.53012   -29200.312    143.26772    -29343.58   -25719.694 
  136200     294.6564   -29195.288    141.40867   -29336.697    1539.7801 
  136400    354.87779   -29168.912    170.30955   -29339.222    -39399.67 
  136600    307.53704   -29198.412    147.59023   -29346.002   -37718.187 
  136800    277.92785   -29198.062    133.38047   -29331.442   -28081.261 
  137000    314.92577    -29173.02    151.13616   -29324.156    11251.489 
  137200    307.36476   -29199.362    147.50755   -29346.869    25416.223 
  137400    294.49199    -29203.15    141.32977    -29344.48    905.74386 
  137600    322.17588   -29175.081    154.61556   -29329.697    38086.541 
  137800    305.48313   -29188.397    146.60454   -29335.001     -17717.2 
  138000    303.15997   -29195.199    145.48963   -29340.689   -26924.141 
  138200    303.22539   -29176.137    145.52102   -29321.658    1787.4822 
  138400    301.61143   -29176.275    144.74647   -29321.022   -29989.343 
  138600    273.78808   -29198.571    131.39375   -29329.965    17907.424 
  138800    306.86893   -29177.419     147.2696   -29324.689     40506.95 
  139000    280.59313    -29162.16    134.65957    -29296.82   -18861.988 
  139200    293.42686   -29191.668    140.81861   -29332.486    28327.451 
  139400    303.41064   -29199.694    145.60993   -29345.304    -45875.85 
  139600     309.5531   -29167.982    148.55776    -29316.54   -6757.4702 
  139800    322.81013   -29184.524    154.91994   -29339.444    31598.832 
  140000    285.33729   -29193.819    136.93634   -29330.756    1716.1867 
  140200    333.46662   -29182.154     160.0341   -29342.189    14368.764 
  140400    305.15209   -29159.803    146.44566   -29306.248   -11475.903 
  140600    289.31691   -29186.962     138.8462   -29325.808    31441.927 
  140800    315.53787   -29181.038    151.42991   -29332.468    15593.394 
  141000    329.45334   -29167.934    158.10809   -29326.042    10096.756 
  141200    293.53326   -29197.395    140.86967   -29338.264   -8296.4014 
  141400    269.42126   -29191.048    129.29807   -29320.346   -12193.452 
  141600    324.66589   -29169.047    155.81054   -29324.857    11728.062 
  141800    309.46844   -29191.658    148.51713   -29340.175    11798.396 
  142000    286.37895   -29209.342    137.43624   -29346.778   -4192.9428 
  142200    315.87356    -29173.95    151.59101   -29325.541    14068.145 
  142400    287.03694   -29192.852    137.75202   -29330.604   -3027.5915 
  142600    291.16414    -29200.04    139.73271   -29339.773    18198.567 
  142800    339.44403   -29171.205    162.90272   -29334.107   -12897.715 
  143000    307.75358   -29162.549    147.69415   -29310.243   -8647.9973 
  143200    311.77659   -29195.946    149.62483   -29345.571    2870.5097 
  143400    312.81246   -29191.153    150.12196   -29341.275   -20087.522 
  143600    343.31096   -29171.243    164.75851   -29336.001    22796.224 
  143800    293.89307   -29192.384    141.04234   -29333.426   -16985.658 
  144000    314.38043   -29191.456    150.87444    -29342.33    20469.442 
  144200    285.10769    -29206.02    136.82615   -29342.846   -34607.048 
  144400    297.55913   -29202.904    142.80173   -29345.705    5129.5472 
  144600    311.02845    -29181.88     149.2658   -29331.146   -3778.4459 
  144800    318.88622   -29195.032    153.03682   -29348.069    545.13796 
  145000    326.70478   -29188.571    156.78903    -29345.36    3851.1619 
  145200     334.3409   -29170.853    160.45368   -29331.307   -2845.2149 
  145400    274.65429   -29200.098    131.80946   -29331.907    55703.997 
  145600    278.47811   -29181.746    133.64455   -29315.391    12728.206 
  145800    318.03412   -29170.288    152.62789   -29322.916   -5641.6214 
  146000    304.85902   -29199.351    146.30502   -29345.656   -12642.541 
  146200    281.94969   -29191.254    135.31059   -29326.565     9949.342 
  146400    326.25468   -29163.313    156.57302   -29319.886   -250.45868 
  146600    308.88479   -29189.407    148.23703   -29337.644    24320.901 
  146800    280.53981   -29194.923    134.63398   -29329.557    6484.9643 
  147000    301.08513   -29164.383    144.49389   -29308.877   -22616.562 
  147200    302.27483   -29188.194    145.06484   -29333.259   -17007.394 
  147400     288.5862   -29187.617    138.49552   -29326.113   -8772.7592 
  147600    295.03496   -29169.706    141.59035   -29311.297   -25048.836 
  147800    283.22381   -29201.853    135.92206   -29337.775    6850.1388 
  148000    279.92398   -29189.077    134.33843   -29323.416   -34398.235 
  148200    326.90182   -29182.125    156.88359   -29339.009   -4595.7349 
  148400    280.14171    -29214.87    134.44292   -29349.313    4246.5431 
  148600    294.59833   -29191.451    141.38081   -29332.831    12541.042 
  148800     308.9171   -29184.147    148.25254   -29332.399   -12176.708 
  149000    278.79561   -29216.986    133.79692   -29350.783     24138.56 
  149200    264.56695   -29196.244    126.96843   -29323.213   -14020.574 
  149400    296.69239    -29187.12    142.38577   -29329.506   -12624.458 
  149600     274.0187   -29221.251    131.50443   -29352.756   -3776.2111 
  149800    292.07926   -29199.168    140.17188    -29339.34   -15352.946 
  150000    275.76496   -29191.436    132.34248   -29323.779    2812.2628 
  150200    297.11181    -29206.96    142.58705   -29349.547    4843.0334 
  150400     289.1405   -29211.841    138.76154   -29350.603    11175.952 
  150600    284.21293   -29184.047    136.39675   -29320.444    24271.242 
  150800    294.23989   -29207.069    141.20879   -29348.277   -15947.044 
  151000    283.25513   -29205.545    135.93709   -29341.482   -7001.7145 
  151200    330.14864    -29177.01    158.44177   -29335.451   -22095.249 
  151400    267.84934   -29203.734    128.54369   -29332.278    14946.411 
  151600    308.59207   -29187.698    148.09655   -29335.795   -26192.247 
  151800    301.47281   -29174.244    144.67994   -29318.924      26982.3 
  152000    266.20284   -29199.413    127.75351   -29327.167   -34453.676 
  152200      306.018   -29184.496    146.86123   -29331.357    4774.4304 
  152400    334.44066   -29174.349    160.50156    -29334.85    44046.173 
  152600    314.09958   -29197.326    150.73966   -29348.066    31362.987 
  152800    291.78446   -29194.648     140.0304   -29334.678    31858.133 
  153000     341.8689   -29168.503    164.06645   -29332.569    2342.1254 
  153200    292.56385   -29201.858    140.40444   -29342.263    8969.4797 
  153400    273.99513   -29189.576    131.49312   -29321.069    40024.472 
  153600    332.13368   -29161.697    159.39441   -29321.092   -20410.857 
  153800    351.43841    -29152.05    168.65896   -29320.709    4274.6154 
  154000    296.52901   -29190.052    142.30736    -29332.36    15052.142 
  154200    276.95575    -29191.48    132.91395   -29324.394    27618.412 
  154400    329.44513   -29164.413    158.10415   -29322.517   -5513.1397 
  154600    295.56897   -29201.628    141.84663   -29343.475    20271.339 
  154800    305.02549   -29193.427    146.38491   -29339.812   -35510.792 
  155000    291.69638   -29177.185    139.98813   -29317.174   -15431.483 
  155200    276.61628   -29210.367    132.75103   -29343.118   -26871.626 
  155400    323.57146   -29197.823    155.28532   -29353.108   -21334.673 
  155600    312.54608   -29184.945    149.99412   -29334.939    -7760.487 
  155800      288.241   -29201.436    138.32986   -29339.766    22408.175 
  156000     315.5028   -29205.879    151.41308   -29357.292   -10529.387 
  156200    305.27095   -29180.195    146.50271   -29326.698    8180.7149 
  156400    308.32113   -29210.901    147.96652   -29358.867     18805.34 
  156600    294.30703   -29201.808    141.24101   -29343.049   -17349.706 
  156800    315.45249   -29188.038    151.38894   -29339.427   -16627.742 
  157000    294.90408   -29210.142    141.52754    -29351.67    -26627.12 
  157200    293.22048   -29214.504    140.71957   -29355.223    5373.2266 
  157400    304.93289   -29188.027    146.34047   -29334.367    26857.675 
  157600    299.71756   -29201.896    143.83758   -29345.733    72009.155 
  157800     266.3189   -29219.033    127.80921   -29346.842   -44172.054 
  158000    307.91045   -29207.759    147.76943   -29355.528   -17564.552 
  158200    311.24781   -29187.306    149.37107   -29336.677     34677.56 
  158400    272.43599   -29216.799    130.74487   -29347.544    11963.903 
  158600    282.23056   -29209.288    135.44538   -29344.733   -6837.9475 
  158800    286.59421   -29197.336    137.53954   -29334.875   -13711.059 
  159000    312.67302   -29190.774    150.05504   -29340.829   -446.84453 
  159200    267.28964   -29214.776    128.27509   -29343.051    10491.433 
  159400    329.97407   -29183.683    158.35799   -29342.041    3263.8153 
  159600    326.36175   -29185.295    156.62441   -29341.919   -28052.095 
  159800    261.48031   -29211.897    125.48712   -29337.384   -5515.2664 
  160000    302.28277   -29179.274    145.06865   -29324.342    28139.335 
  160200     318.5602   -29181.023    152.88036   -29333.904     18053.14 
  160400    265.57574   -29202.286    127.45257   -29329.739   -39254.696 
  160600    298.31308   -29164.677    143.16355    -29307.84    10014.425 
  160800    272.15191   -29187.355    130.60854   -29317.964    25479.195 
  161000     310.9395   -29196.277    149.22311     -29345.5    65441.968 
  161200    314.20109   -29177.905    150.78837   -29328.694    4189.1833 
  161400    330.60515   -29175.406    158.66086   -29334.067    8655.1942 
  161600    274.28307   -29198.928     131.6313   -29330.559    36538.716 
  161800    299.57736   -29180.283     143.7703   -29324.053   -47837.257 
  162000    292.58791   -29166.655    140.41599   -29307.071   -57638.324 
  162200    294.14343   -29190.429     141.1625   -29331.592    47864.314 
  162400    271.07901   -29186.262    130.09364   -29316.356     2340.131 
  162600    317.25358   -29174.175     152.2533   -29326.428   -18171.207 
  162800    290.50538   -29202.614    139.41656    -29342.03    -26843.87 
  163000    311.43497   -29191.093    149.46089   -29340.554   -6088.4074 
  163200    311.39233   -29173.591    149.44042   -29323.032    12980.093 
  163400    279.37995   -29199.901    134.07735   -29333.978    34983.171 
  163600    293.76669   -29202.218     140.9817     -29343.2   -21666.294 
  163800    314.38213   -29170.615    150.87526    -29321.49    40973.047 
  164000    292.76838   -29197.991    140.50259   -29338.494    12456.414 
  164200    300.63495   -29192.444    144.27784   -29336.722    -1785.135 
  164400    334.91256   -29160.966    160.72803   -29321.694   -38829.637 
  164600    307.19403   -29160.208    147.42561   -29307.633    10048.228 
  164800    297.48234   -29192.437    142.76488   -29335.202    505.17674 
  165000     278.6423    -29200.11    133.72334   -29333.833   -22450.911 
  165200    343.73617   -29167.383    164.96257   -29332.346     26342.07 
  165400    319.23136   -29193.701    153.20245   -29346.903   -3225.9381 
  165600    279.63807   -29197.386    134.20122   -29331.587   -4297.6901 
  165800    315.42302   -29172.322    151.37479   -29323.697    30336.207 
  166000    328.11093   -29187.285    157.46385   -29344.748   -20444.783 
  166200    301.16453   -29199.341    144.53199   -29343.873   -11146.328 
  166400    317.36044   -29171.936    152.30458    -29324.24   -20990.533 
  166600    287.06554   -29202.206    137.76574   -29339.972    24217.434 
  166800    288.55198    -29191.77     138.4791   -29330.249   -4534.6449 
  167000    325.30538   -29179.632    156.11744   -29335.749    3610.8801 
  167200    285.44435   -29206.302    136.98772    -29343.29   -4996.0734 
  167400    339.89105   -29193.857    163.11726   -29356.974    4056.2348 
  167600    303.19294   -29192.746    145.50545   -29338.251    1368.8132 
  167800    295.92676   -29213.799    142.01833   -29355.818   -18792.026 
  168000    324.11261    -29182.34    155.54502   -29337.885    6247.1755 
  168200    304.39009   -29192.511    146.07998   -29338.591   -10209.994 
  168400    277.47862   -29202.788    133.16488   -29335.953   -27228.842 
  168600    267.82423   -29195.544    128.53164   -29324.076    4990.7618 
  168800    320.08339   -29179.077    153.61135   -29332.689   -21821.524 
  169000    269.68394   -29209.566    129.42413    -29338.99   -24448.998 
  169200    296.26624   -29200.617    142.18125   -29342.798    16036.743 
  169400    345.81175   -29164.384    165.95866   -29330.343    2533.5115 
  169600    335.19528   -29176.326    160.86371    -29337.19    19666.831 
  169800    282.92796   -29209.324    135.78007   -29345.104     8740.547 
  170000    308.15859   -29204.265    147.88852   -29352.153    11713.367 
  170200    298.96162   -29182.039     143.4748   -29325.513    55380.609 
  170400    265.78112   -29212.013    127.55113   -29339.564    35309.011 
  170600    267.74096   -29211.027    128.49168   -29339.518    14368.617 
  170800    320.00047   -29184.128    153.57156     -29337.7   -9198.7948 
  171000    281.83236   -29203.882    135.25429   -29339.137    9198.2087 
  171200    267.41941   -29209.972    128.33736   -29338.309   -3313.7784 
  171400    283.72386   -29194.922    136.16203   -29331.084      6721.58 
  171600    329.40857   -29178.644     158.0866    -29336.73    48166.975 
  171800    328.95212     -29165.8    157.86755   -29323.667   -22870.046 
  172000     304.4764   -29196.142     146.1214   -29342.263    2714.8583 
  172200    320.80091   -29184.358     153.9557   -29338.314   -2607.0023 
  172400    297.12085   -29165.028    142.59139    -29307.62   -22450.813 
  172600    283.29942   -29201.542    135.95834     -29337.5     -6297.22 
  172800    329.13959    -29173.89    157.95752   -29331.848   -2363.8493 
  173000    292.66748    -29179.51    140.45417   -29319.964    -4959.595 
  173200    280.49968    -29208.45    134.61472   -29343.065    61373.841 
  173400    298.37525   -29183.695    143.19339   -29326.888   -14073.452 
  173600    304.09248   -29186.037    145.93715   -29331.974    27682.608 
  173800     290.2501   -29209.732    139.29404   -29349.026    3943.1126 
  174000    295.64978   -29190.521    141.88541   -29332.406   -19261.208 
  174200    300.43009   -29186.415    144.17953   -29330.595    2612.7254 
  174400    263.70775   -29205.254     126.5561    -29331.81    21152.069 
  174600    277.64703   -29200.149     133.2457   -29333.395   -21168.006 
  174800    311.71189   -29176.715    149.59378   -29326.309     6403.759 
  175000    305.33533   -29195.789    146.53361   -29342.322    17991.713 
  175200    261.89847   -29204.149    125.68781   -29329.837   -13761.485 
  175400    296.06386   -29187.243    142.08413   -29329.327   -22198.525 
  175600    289.51701   -29188.201    138.94223   -29327.143     9523.689 
  175800    277.73355   -29214.328    133.28723   -29347.615   -56908.206 
  176000    308.66743   -29184.273    148.13272   -29332.406   -23705.043 
  176200    300.10349   -29193.472    144.02279   -29337.494    -2805.796 
  176400    269.68481   -29217.148    129.42455   -29346.572    -13777.42 
  176600    280.07238    -29216.34    134.40965    -29350.75   -1785.8268 
  176800     294.0923    -29193.19    141.13796   -29334.328    39537.361 
  177000    298.10241   -29201.068    143.06245    -29344.13    23682.056 
  177200    285.22691   -29219.509    136.88337   -29356.392    17099.226 
  177400    330.81715   -29185.279     158.7626   -29344.041   -37544.599 
  177600    296.71604   -29203.308    142.39712   -29345.705   -47370.603 
  177800    277.21544   -29212.057    133.03858   -29345.095   -34661.831 
  178000    323.42064   -29180.594    155.21293   -29335.807    32422.239 
  178200    291.88678   -29210.977    140.07951   -29351.057   -41066.054 
  178400    321.14331   -29202.354    154.12002   -29356.474   -21808.269 
  178600    281.61924   -29189.772    135.15201   -29324.924   -27317.174 
  178800    347.97509   -29186.764    166.99687   -29353.761   -39316.247 
  179000    295.16343   -29211.536    141.65201   -29353.188   -32326.163 
  179200    328.13723   -29182.319    157.47648   -29339.796    49724.103 
[...]
  950000    267.25156   -29199.777    128.25681   -29328.034    6322.9005 
  950200    323.89155   -29183.736    155.43893   -29339.175    5722.8602 
  950400    306.20126   -29187.585    146.94917   -29334.534   -1102.9293 
  950600    298.41344   -29204.822    143.21172   -29348.033   -17662.732 
  950800    341.02753   -29175.834    163.66267   -29339.496    6229.8974 
  951000    272.80405   -29200.218    130.92151    -29331.14    1663.6698 
  951200    306.26623   -29199.267    146.98036   -29346.248   -18294.905 
  951400    299.48271   -29195.099    143.72487   -29338.824   -24489.724 
  951600    313.73016    -29218.59    150.56237   -29369.153    -29585.61 
  951800    302.16003   -29188.534    145.00975   -29333.544    14577.849 
  952000    306.56878   -29201.011    147.12555   -29348.136   -32187.873 
  952200    301.02992   -29218.135    144.46739   -29362.602   -15218.571 
  952400    296.89975   -29205.981    142.48528   -29348.466   -20043.003 
  952600    316.80866   -29187.784    152.03978   -29339.823   -44101.489 
  952800    273.25496   -29222.342     131.1379   -29353.479   -11637.929 
  953000     287.8476   -29210.041    138.14106   -29348.182    37061.552 
  953200    298.03768   -29194.378    143.03139    -29337.41   -23344.075 
  953400    315.41088   -29193.099    151.36897   -29344.468    -37297.58 
  953600    295.71125   -29202.551    141.91491   -29344.466   -24852.589 
  953800     271.6695   -29213.011    130.37702   -29343.388   -47364.288 
  954000    325.77102   -29181.537    156.34091   -29337.878    60166.957 
  954200    264.26121   -29199.148    126.82171    -29325.97   -892.76167 
  954400    299.23834   -29203.533     143.6076   -29347.141    8610.0947 
  954600    293.39364   -29184.616    140.80266   -29325.418    -14553.79 
  954800     322.6601   -29176.998    154.84795   -29331.846    6464.6095 
  955000    282.51845   -29194.592    135.58355   -29330.176   -15281.514 
  955200    291.74717   -29191.143    140.01251   -29331.155   -15026.493 
  955400    325.53489   -29168.294    156.22758   -29324.522    3468.9502 
  955600    288.03044   -29201.587    138.22881   -29339.815   -14145.281 
  955800    284.99944   -29194.368     136.7742   -29331.143     -22084.1 
  956000    361.60525   -29160.972    173.53813    -29334.51     -8757.08 
  956200    296.50438   -29192.302    142.29554   -29334.598    3866.0886 
  956400    295.35537   -29202.394    141.74412   -29344.138   -27650.988 
  956600    325.48562   -29178.121    156.20394   -29334.325   -16780.687 
  956800    292.99732   -29200.469    140.61247   -29341.081   -26436.711 
  957000      331.733   -29205.567    159.20212   -29364.769    16689.579 
  957200    326.88906   -29181.222    156.87746   -29338.099    9462.9855 
  957400    332.16309   -29167.795    159.40853   -29327.203    6485.7951 
  957600    296.74302   -29202.684    142.41007   -29345.094   -28341.362 
  957800    284.27743   -29208.111     136.4277   -29344.539    4768.4198 
  958000    305.86593   -29174.809    146.78825   -29321.597   -31421.207 
  958200    309.34401   -29199.901    148.45742   -29348.359    2576.8243 
  958400    298.30539   -29206.214    143.15986   -29349.374   -22015.884 
  958600    336.10536   -29185.835    161.30046   -29347.136    1159.3323 
  958800    358.58857   -29183.446    172.09039   -29355.536   -4359.2175 
  959000    290.95302   -29205.662    139.63138   -29345.293    13713.851 
  959200    294.71849   -29204.098    141.43847   -29345.536   -17859.175 
  959400    307.23109   -29174.529     147.4434   -29321.972    -27599.16 
  959600    287.94398   -29211.698    138.18732   -29349.886   -19368.518 
  959800    285.32409    -29199.37    136.93001     -29336.3   -25022.434 
  960000    303.48515   -29188.199    145.64569   -29333.845    11737.111 
  960200    282.54067   -29205.211    135.59421   -29340.805    4088.6667 
  960400    294.97541   -29210.076    141.56177   -29351.637   -12990.519 
  960600    295.91203   -29178.699    142.01126    -29320.71    3454.6448 
  960800    277.39151   -29199.239    133.12307   -29332.362   -36692.659 
  961000    280.96355   -29211.122    134.83733    -29345.96     8633.788 
  961200     318.8074   -29184.134    152.99899   -29337.133    17866.196 
  961400    286.47202   -29190.813    137.48091   -29328.294    2706.4579 
  961600    285.41012   -29198.802    136.97129   -29335.773    -42441.55 
  961800    308.68726   -29180.621    148.14223   -29328.763   -25606.432 
  962000    284.34997   -29172.621    136.46251   -29309.083    -14840.11 
  962200    283.05856    -29199.14    135.84275   -29334.982    18983.779 
  962400    283.91013   -29191.937    136.25143   -29328.189   -1231.0004 
  962600      290.499   -29201.426     139.4135    -29340.84   -4090.2476 
  962800    280.84777   -29215.025    134.78177   -29349.807   -15067.518 
  963000    293.99867   -29181.583    141.09302   -29322.676    28766.357 
  963200    302.59714   -29195.736    145.21952   -29340.956    10051.766 
  963400    280.50645   -29228.271    134.61797   -29362.889   -41563.631 
  963600    290.43784   -29207.449    139.38415   -29346.833    8108.8779 
  963800    275.30968   -29187.851    132.12398   -29319.975    21534.616 
  964000    309.66913   -29186.994    148.61344   -29335.607   -5639.8951 
  964200    305.85013   -29210.125    146.78066   -29356.906   -8019.7283 
  964400    315.18108   -29182.698    151.25868   -29333.957   -46696.157 
  964600     294.9598   -29204.187    141.55428   -29345.742    32662.726 
  964800    296.91559   -29211.743    142.49288   -29354.236   -50452.845 
  965000     307.6661   -29187.988    147.65216   -29335.641   -25879.662 
  965200    301.68582   -29210.964    144.78217   -29355.746   -13582.211 
  965400    271.96101   -29212.352    130.51692   -29342.869   -25699.427 
  965600       314.17   -29196.008    150.77345   -29346.781   -13226.496 
  965800    307.63365   -29193.843    147.63659    -29341.48    22118.312 
  966000    260.66785    -29223.12    125.09722   -29348.217   -3864.8417 
  966200    292.60057   -29201.755    140.42206   -29342.177   -44838.292 
  966400    301.50757   -29190.921    144.69662   -29335.617    5878.4276 
  966600     278.0976   -29218.988    133.46194    -29352.45   -9867.5888 
  966800    284.00037   -29210.146    136.29474   -29346.441    2042.0676 
  967000    320.37053   -29192.277    153.74915   -29346.027   -1874.6603 
  967200    279.88724   -29205.092     134.3208   -29339.413    13165.301 
  967400    282.29613   -29213.137    135.47686   -29348.613     21760.64 
  967600    289.79076   -29189.256     139.0736   -29328.329   -1487.5003 
  967800    284.12086   -29198.652    136.35256   -29335.004   -22461.069 
  968000    294.81494    -29218.26    141.48476   -29359.745    6811.3443 
  968200    321.38824   -29184.077    154.23757   -29338.315   -6483.6616 
  968400    316.75571   -29196.243    152.01436   -29348.257    20697.464 
  968600    291.78752   -29211.956    140.03187   -29351.988   -2451.2342 
  968800    314.08583     -29176.6    150.73306   -29327.333   -10524.007 
  969000    281.75871   -29200.768    135.21894   -29335.987   -7662.0603 
  969200    314.24117   -29204.928    150.80761   -29355.735    1220.8619 
  969400    307.34945    -29189.41     147.5002    -29336.91    20822.025 
  969600    337.34845   -29156.009    161.89704   -29317.906   -20580.346 
  969800    323.26337   -29191.496    155.13746   -29346.633    -12707.42 
  970000    263.57224   -29205.994    126.49106   -29332.485   -7056.4746 
  970200    278.50656   -29185.574     133.6582   -29319.232   -16019.509 
  970400    340.09444   -29180.245    163.21487   -29343.459    7719.0508 
  970600    292.26614   -29203.868    140.26156    -29344.13     20759.61 
  970800    339.15151   -29193.868    162.76234   -29356.631    7539.2634 
  971000    327.38684    -29169.92    157.11636   -29327.037   -21626.014 
  971200    289.81822   -29206.776    139.08678   -29345.863   -4091.9007 
  971400    336.78346   -29198.344    161.62589    -29359.97   -33622.277 
  971600    324.63795   -29170.143    155.79714    -29325.94    8905.6686 
  971800    261.59675   -29206.865      125.543   -29332.408    31699.151 
  972000    334.39824   -29194.004     160.4812   -29354.485    13576.236 
  972200    299.88429   -29194.141    143.91759   -29338.059   -15159.791 
  972400    285.94497   -29219.444    137.22797   -29356.672    28176.815 
  972600    307.18496   -29191.826    147.42126   -29339.247    34714.489 
  972800    310.89989   -29198.382    149.20409   -29347.586    20080.401 
  973000    271.15255   -29208.853    130.12894   -29338.982   -9333.0872 
  973200    318.96788   -29189.351    153.07601   -29342.427    9720.0293 
  973400    319.47837   -29190.326      153.321   -29343.647    5700.2513 
  973600     291.6762   -29213.807    139.97845   -29353.786    -12932.49 
  973800    287.76582   -29193.455    138.10182   -29331.557    19101.373 
  974000    299.48554   -29193.199    143.72623   -29336.926    22752.144 
  974200    327.32529   -29195.165    157.08682   -29352.252   -13039.847 
  974400    273.10497   -29196.105    131.06592   -29327.171   -9224.0966 
  974600    310.38196   -29195.035    148.95553    -29343.99      41696.3 
  974800    286.18632   -29198.136    137.34379    -29335.48    -5203.568 
  975000    287.12464   -29199.917    137.79411   -29337.711   -39786.064 
  975200    320.67285   -29176.241    153.89424   -29330.136   -21187.225 
  975400     267.3764   -29192.383    128.31672     -29320.7   -25463.292 
  975600    266.50712   -29204.559    127.89954   -29332.459   -47424.368 
  975800    312.03261    -29178.45     149.7477   -29328.197    14666.038 
  976000    302.02098    -29197.23    144.94302   -29342.173   -14518.119 
  976200    275.37287   -29215.478    132.15431   -29347.632    15225.392 
  976400    300.47508   -29182.465    144.20112   -29326.666   -4813.5304 
  976600    270.44358   -29191.422    129.78869    -29321.21   -16133.829 
  976800    262.90757   -29213.629    126.17208   -29339.801    679.19591 
  977000    290.04869   -29199.355    139.19739   -29338.552    11820.036 
  977200    340.57781   -29189.216    163.44684   -29352.663   -21352.108 
  977400    326.05337   -29176.178    156.47641   -29332.655   -7633.3389 
  977600    286.12611    -29209.52     137.3149   -29346.835   -52283.021 
  977800    295.05291    -29198.82    141.59897   -29340.419    12507.322 
  978000    344.06178   -29175.059    165.11883   -29340.178   -10999.219 
  978200    296.99407   -29198.215    142.53055   -29340.746   -22876.625 
  978400     286.2123   -29206.876    137.35626   -29344.232   -10102.371 
  978600     315.0002   -29185.149    151.17188   -29336.321    11559.789 
  978800    300.17173    -29191.81    144.05554   -29335.865    8667.7401 
  979000    302.46986   -29209.854    145.15843   -29355.013    15137.111 
  979200    306.42182   -29195.397    147.05502   -29342.452    4884.7531 
  979400    293.50268   -29193.408    140.85499   -29334.263    27169.351 
  979600    308.12261   -29195.865    147.87125   -29343.736   -22748.297 
  979800    306.50429   -29204.396     147.0946    -29351.49    25663.454 
  980000    316.83426   -29210.878    152.05206    -29362.93    38720.746 
  980200    320.36807   -29180.708    153.74798   -29334.456   -2167.3158 
  980400    288.26715   -29200.614    138.34241   -29338.956   -10324.332 
  980600    303.07429   -29199.744    145.44851   -29345.192   -15654.134 
  980800    307.43578   -29185.875    147.54164   -29333.416    3106.6727 
  981000     336.2456   -29169.971    161.36777   -29331.339      10221.4 
  981200    304.32459   -29203.539    146.04854   -29349.588   -20099.115 
  981400    304.03567    -29193.38    145.90988    -29339.29    29520.472 
  981600    321.25373   -29167.825    154.17301   -29321.998   -30609.073 
  981800    289.04482   -29205.653    138.71562   -29344.369    31609.785 
  982000    303.67369    -29191.75    145.73617   -29337.486    7262.2437 
  982200    352.26751   -29162.938    169.05685   -29331.995    19945.696 
  982400    277.44576   -29204.842    133.14911   -29337.991    25206.263 
  982600    313.67847   -29192.162    150.53757   -29342.699   -54448.538 
  982800    291.41511   -29176.333    139.85315   -29316.186    2789.1426 
  983000    282.18113    -29210.15    135.42166   -29345.571    11385.188 
  983200    309.62368   -29187.976    148.59163   -29336.568        16805 
  983400    339.32091   -29173.653    162.84364   -29336.497   -3488.5216 
  983600    264.40732   -29211.188    126.89183    -29338.08    1100.1871 
  983800    276.37345    -29196.94     132.6345   -29329.575   -29719.656 
  984000    321.86485   -29181.138    154.46629   -29335.604   -40756.574 
  984200     270.6705   -29210.353    129.89759   -29340.251    20017.881 
  984400    319.33905   -29197.341    153.25414   -29350.595    9412.7707 
  984600     315.1535   -29186.706    151.24545   -29337.951    24507.567 
  984800    294.73147   -29214.819     141.4447   -29356.264    3742.1046 
  985000     317.1808   -29191.905    152.21837   -29344.123    16060.829 
  985200    307.23345   -29183.353    147.44453   -29330.797    23367.784 
  985400    290.89487   -29203.623    139.60348   -29343.227   -25009.931 
  985600    267.75972   -29231.983    128.50068   -29360.483    19244.435 
  985800     282.8058    -29205.67    135.72145   -29341.391   -4670.8206 
  986000    293.63228   -29187.564    140.91719   -29328.481   -6116.5781 
  986200    310.07096   -29195.537    148.80628   -29344.343     -2219.91 
  986400    294.88861   -29214.458    141.52012   -29355.978   -19213.391 
  986600       305.19   -29188.766    146.46386    -29335.23    25170.931 
  986800    292.65672   -29198.983    140.44901   -29339.432   -2710.7804 
  987000    276.24664   -29223.926    132.57364   -29356.499    23957.776 
  987200    289.08885   -29212.301    138.73675   -29351.038    18636.287 
  987400    318.09695   -29188.012    152.65804    -29340.67    7160.6926 
  987600    304.09501   -29185.564    145.93836   -29331.503   -17295.541 
  987800    308.29611    -29212.75    147.95451   -29360.705     39692.19 
  988000    299.49079    -29192.67    143.72875   -29336.398   -16073.247 
  988200    285.42674   -29191.334    136.97926   -29328.313   -5576.1951 
  988400    313.78628   -29180.992    150.58931   -29331.581   -10357.444 
  988600    301.14176    -29177.22    144.52107   -29321.741    6879.5165 
  988800    278.32124   -29202.425    133.56926   -29335.994    44751.718 
  989000    321.09546   -29180.778    154.09706   -29334.875   -39540.761 
  989200    334.17716    -29167.35     160.3751   -29327.725   -39944.328 
  989400    266.67198   -29196.444    127.97866   -29324.423     1750.718 
  989600    305.43443   -29189.552    146.58117   -29336.133    5447.1296 
  989800    299.39168   -29175.846    143.68119   -29319.528     25258.53 
  990000    280.37305   -29194.049    134.55395   -29328.603   -11632.499 
  990200    301.05215   -29202.591    144.47806   -29347.069    12950.612 
  990400    276.60336   -29224.244    132.74483   -29356.989   -1551.4131 
  990600    320.18434   -29190.429     153.6598   -29344.089   -31844.137 
  990800     278.2206   -29202.401    133.52096   -29335.922    -47463.05 
  991000    275.93688   -29228.933    132.42498   -29361.358   -16793.575 
  991200    294.05564   -29202.041    141.12037   -29343.162   -11101.037 
  991400     302.8705   -29186.176    145.35071   -29331.527    15560.767 
  991600    278.39288   -29214.766    133.60365    -29348.37    36168.536 
  991800    311.26964   -29196.852    149.38154   -29346.234   -2094.5014 
  992000    311.56534   -29196.846    149.52345    -29346.37    19436.885 
  992200    279.19842   -29209.642    133.99023   -29343.633   -21336.272 
  992400    333.90821   -29175.749    160.24603   -29335.995    18420.487 
  992600    276.59356   -29201.386    132.74013   -29334.126   -12347.787 
  992800     257.0513   -29200.801     123.3616   -29324.163    12953.263 
  993000    315.48919   -29192.743    151.40655   -29344.149    48082.762 
  993200    283.14406   -29194.046    135.88378    -29329.93    6301.6267 
  993400    309.37788   -29219.761    148.47367   -29368.235   -22394.286 
  993600     302.4778   -29194.087    145.16225   -29339.249    2291.6708 
  993800    283.99627   -29187.243    136.29277   -29323.536   -30210.877 
  994000    278.56025   -29204.752    133.68397   -29338.436   -1862.1421 
  994200    279.61671   -29208.054    134.19097   -29342.245   -42598.453 
  994400    331.29689   -29182.616    158.99283   -29341.609   -32582.857 
  994600    296.39528   -29199.791    142.24318   -29342.035    45227.363 
  994800    246.34891   -29230.181    118.22541   -29348.407    22540.893 
  995000    295.64622   -29203.159     141.8837   -29345.043    50821.915 
  995200    305.23576   -29187.626    146.48582   -29334.112     12511.87 
  995400    307.71981   -29187.192    147.67794    -29334.87   -22815.729 
  995600    299.78207   -29214.553    143.86854   -29358.421   -36951.492 
  995800    328.19737   -29187.311    157.50534   -29344.817    48386.242 
  996000    303.27965    -29187.59    145.54706   -29333.137    12519.537 
  996200    291.80847   -29213.086    140.04193   -29353.128   -20452.364 
  996400    301.77242   -29215.149    144.82373   -29359.973    -40484.51 
  996600    298.68075   -29189.277       143.34   -29332.617   -7737.9067 
  996800    324.87947    -29185.98    155.91304   -29341.893    6240.1264 
  997000    258.97081    -29214.99    124.28279   -29339.273    43214.295 
  997200    285.05159   -29189.984    136.79923   -29326.784   -595.05945 
  997400    316.85462   -29195.307    152.06183   -29347.369    9454.1263 
  997600    289.11633   -29211.488    138.74994   -29350.238    13285.848 
  997800    306.46018   -29185.801    147.07343   -29332.875   -6687.2528 
  998000    295.17923   -29198.872    141.65959   -29340.532     5397.361 
  998200    292.54023    -29211.12    140.39311   -29351.513    52532.729 
  998400    307.09142   -29189.533    147.37637   -29336.909   -17393.898 
  998600    289.36834   -29208.267    138.87088   -29347.138    3020.6408 
  998800    278.46393   -29209.324    133.63774   -29342.962    -5777.638 
  999000    316.76331   -29188.587    152.01801   -29340.605   -29627.668 
  999200    278.79808   -29210.287     133.7981   -29344.085    25500.554 
  999400    294.40312   -29215.913    141.28713   -29357.201    37633.498 
  999600    281.27731   -29197.693    134.98791   -29332.681    7181.0488 
  999800    329.06475   -29183.912     157.9216   -29341.834   -15844.752 
 1000000    284.78251   -29215.028     136.6701   -29351.698   -44061.523 
Loop time of 6191.1 on 8 procs for 1000000 steps with 162 atoms

Performance: 3.489 ns/day, 6.879 hours/ns, 161.522 timesteps/s
99.2% CPU use with 8 MPI tasks x no OpenMP threads

MPI task timing breakdown:
Section |  min time  |  avg time  |  max time  |%varavg| %total
---------------------------------------------------------------
Pair    | 4970.3     | 5210.3     | 5406.6     | 209.6 | 84.16
Neigh   | 1.1678     | 1.1965     | 1.2297     |   2.0 |  0.02
Comm    | 81.978     | 278.08     | 517.48     | 905.7 |  4.49
Output  | 0.11075    | 0.1319     | 0.26405    |  13.8 |  0.00
Modify  | 696.28     | 696.8      | 697.63     |   1.7 | 11.25
Other   |            | 4.649      |            |       |  0.08

Nlocal:    20.25 ave 45 max 2 min
Histogram: 1 2 1 0 2 0 0 0 0 2
Nghost:    742.25 ave 770 max 708 min
Histogram: 2 0 0 0 2 0 0 1 2 1
Neighs:    2081.88 ave 4343 max 243 min
Histogram: 1 2 0 1 1 1 0 0 0 2

Total # of neighbors = 16655
Ave neighs/atom = 102.809
Neighbor list builds = 1202
Dangerous builds = 0

Please see the log.cite file for references relevant to this simulation

Total wall time: 1:43:36
