ITEM: TIMESTEP
0
ITEM: NUMBER OF ATOMS
35
ITEM: BOX BOUNDS pp pp pp
0.0000000000000000e+00 7.0970000000000004e+00
0.0000000000000000e+00 7.0970000000000004e+00
0.0000000000000000e+00 2.4588000000000001e+01
ITEM: ATOMS id type x y z 
34 2 6.368 2.492 5.242 
35 3 0.15 2.084 5.292 
2 1 3.339 1.632 13.319 
5 1 4.651 1.581 18.133 
7 1 3.391 1.602 15.981 
8 1 2.166 1.581 18.134 
18 1 3.408 1.581 17.416 
21 1 3.338 2.875 12.602 
23 1 3.367 1.619 14.753 
24 1 3.338 0.39 12.601 
17 1 7.023 2.875 24.28 
19 1 6.997 1.619 22.129 
20 1 7.023 0.39 24.281 
22 1 6.957 1.581 19.466 
25 1 5.714 1.581 18.748 
27 1 6.974 1.602 20.9 
28 1 1.102 1.581 18.748 
30 1 7.024 1.631 23.563 
10 1 6.954 5.232 5.122 
13 1 7.023 3.938 0.307 
15 1 6.994 5.194 2.459 
16 1 7.023 6.423 0.307 
26 1 7.022 5.181 1.025 
29 1 5.711 5.232 5.839 
31 1 6.97 5.211 3.688 
32 1 1.098 5.232 5.84 
33 2 6.954 3.882 5.122 
1 1 4.647 5.232 6.454 
3 1 3.388 5.211 8.606 
4 1 2.163 5.232 6.454 
6 1 3.338 5.182 11.269 
9 1 3.338 3.939 11.986 
11 1 3.365 5.194 9.834 
12 1 3.338 6.423 11.987 
14 1 3.404 5.232 7.171 
ITEM: TIMESTEP
10
ITEM: NUMBER OF ATOMS
35
ITEM: BOX BOUNDS pp pp pp
0.0000000000000000e+00 7.0970000000000004e+00
0.0000000000000000e+00 7.0970000000000004e+00
0.0000000000000000e+00 2.4588000000000001e+01
ITEM: ATOMS id type x y z 
34 2 6.376 2.46364 5.24484 
35 3 0.126719 2.11201 5.28687 
2 1 3.33888 1.632 13.3198 
5 1 4.65477 1.58097 18.1342 
7 1 3.39138 1.60201 15.9775 
8 1 2.16305 1.5809 18.1367 
18 1 3.40788 1.58106 17.4159 
21 1 3.33682 2.87869 12.6032 
23 1 3.36719 1.61921 14.7574 
24 1 3.33848 0.39009 12.597 
17 1 7.02354 2.86934 24.2747 
19 1 6.99621 1.6192 22.1215 
20 1 7.02545 0.397607 24.281 
22 1 6.95701 1.58104 19.4647 
25 1 5.71024 1.58096 18.7468 
27 1 6.97381 1.60197 20.9019 
28 1 1.1051 1.5809 18.7452 
30 1 7.02299 1.63147 23.5623 
10 1 6.96164 5.1408 5.13181 
13 1 7.02298 3.92697 0.300159 
15 1 6.99428 5.19464 2.42425 
16 1 7.02209 6.43199 0.298052 
26 1 7.02352 5.17983 0.96483 
29 1 5.67723 5.25137 5.85661 
31 1 6.9695 5.23179 3.63532 
32 1 1.12709 5.25313 5.85643 
33 2 6.97326 3.90449 5.12641 
1 1 4.62842 5.23903 6.46775 
3 1 3.38825 5.20985 8.62887 
4 1 2.18753 5.23767 6.47001 
6 1 3.33716 5.18162 11.2696 
9 1 3.33952 3.93142 11.987 
11 1 3.36513 5.19394 9.85311 
12 1 3.33749 6.42709 11.9931 
14 1 3.38937 5.22829 7.22316 
ITEM: TIMESTEP
20
ITEM: NUMBER OF ATOMS
35
ITEM: BOX BOUNDS pp pp pp
0.0000000000000000e+00 7.0970000000000004e+00
0.0000000000000000e+00 7.0970000000000004e+00
0.0000000000000000e+00 2.4588000000000001e+01
ITEM: ATOMS id type x y z 
34 2 6.35494 2.43148 5.24758 
35 3 0.126843 2.11766 5.2827 
2 1 3.33602 1.63101 13.3322 
5 1 4.65304 1.58081 18.1325 
7 1 3.39082 1.60052 15.9849 
8 1 2.16633 1.58022 18.1371 
18 1 3.40797 1.58187 17.4182 
21 1 3.34061 2.87418 12.6146 
23 1 3.37075 1.62221 14.7639 
24 1 3.33678 0.398466 12.6025 
17 1 7.01777 2.85754 24.2734 
19 1 6.99411 1.62229 22.1049 
20 1 7.01852 0.408627 24.28 
22 1 6.95704 1.58205 19.4534 
25 1 5.70847 1.58055 18.7459 
27 1 6.97302 1.60039 20.8867 
28 1 1.10518 1.57906 18.7414 
30 1 7.02995 1.63086 23.5412 
10 1 6.94583 5.03071 5.10432 
13 1 7.02832 3.92078 0.285689 
15 1 6.99594 5.20894 2.39721 
16 1 7.02788 6.43726 0.286167 
26 1 7.02314 5.17914 0.937122 
29 1 5.66221 5.28484 5.85156 
31 1 6.96605 5.26478 3.60519 
32 1 1.13959 5.286 5.85276 
33 2 7.00197 3.8943 5.13194 
1 1 4.63085 5.25941 6.4862 
3 1 3.39505 5.2079 8.6519 
4 1 2.17706 5.26133 6.48292 
6 1 3.33827 5.18266 11.3103 
9 1 3.33547 3.92132 11.9885 
11 1 3.35773 5.18854 9.88082 
12 1 3.33881 6.43459 11.9991 
14 1 3.40766 5.22471 7.26336 
ITEM: TIMESTEP
30
ITEM: NUMBER OF ATOMS
35
ITEM: BOX BOUNDS pp pp pp
0.0000000000000000e+00 7.0970000000000004e+00
0.0000000000000000e+00 7.0970000000000004e+00
0.0000000000000000e+00 2.4588000000000001e+01
ITEM: ATOMS id type x y z 
34 2 6.33864 2.39472 5.25072 
35 3 0.12331 2.11115 5.27985 
2 1 3.33793 1.63573 13.3408 
5 1 4.65189 1.57858 18.1316 
7 1 3.3936 1.60109 15.9908 
8 1 2.16888 1.58174 18.1391 
18 1 3.40905 1.58257 17.4227 
21 1 3.33746 2.86691 12.616 
23 1 3.36825 1.62182 14.7701 
24 1 3.33909 0.403504 12.6068 
17 1 7.02854 2.85274 24.2688 
19 1 6.99327 1.62153 22.0962 
20 1 7.02691 0.412302 24.2745 
22 1 6.9559 1.58297 19.4443 
25 1 5.70839 1.58007 18.744 
27 1 6.97223 1.60232 20.8771 
28 1 1.10365 1.57541 18.7356 
30 1 7.02276 1.63188 23.535 
10 1 6.95146 4.98567 5.09648 
13 1 7.02305 3.92016 0.27638 
15 1 6.99241 5.23112 2.39553 
16 1 7.02412 6.43745 0.274911 
26 1 7.02698 5.17857 0.927525 
29 1 5.6539 5.31648 5.84421 
31 1 6.96443 5.28722 3.59913 
32 1 1.14413 5.31103 5.84388 
33 2 7.03293 3.85125 5.1391 
1 1 4.63901 5.27117 6.50013 
3 1 3.3797 5.20308 8.67097 
4 1 2.16018 5.2785 6.49579 
6 1 3.32598 5.17945 11.3069 
9 1 3.3363 3.92038 11.9997 
11 1 3.38706 5.18502 9.8963 
12 1 3.33322 6.4391 12.0066 
14 1 3.40541 5.23429 7.26043 
ITEM: TIMESTEP
40
ITEM: NUMBER OF ATOMS
35
ITEM: BOX BOUNDS pp pp pp
0.0000000000000000e+00 7.0970000000000004e+00
0.0000000000000000e+00 7.0970000000000004e+00
0.0000000000000000e+00 2.4588000000000001e+01
ITEM: ATOMS id type x y z 
34 2 6.32969 2.36929 5.25283 
35 3 0.119892 2.10279 5.27858 
2 1 3.34009 1.63268 13.3409 
5 1 4.6525 1.58061 18.1314 
7 1 3.39365 1.60237 15.9923 
8 1 2.16936 1.58025 18.1404 
18 1 3.40849 1.57886 17.4233 
21 1 3.33566 2.86614 12.6132 
23 1 3.36974 1.62278 14.7716 
24 1 3.335 0.40334 12.6084 
17 1 7.02545 2.85585 24.2676 
19 1 6.99525 1.62207 22.0964 
20 1 7.0256 0.409429 24.2722 
22 1 6.95682 1.57936 19.444 
25 1 5.70898 1.58019 18.7436 
27 1 6.96984 1.60195 20.8766 
28 1 1.1019 1.57956 18.7332 
30 1 7.02448 1.63127 23.5322 
10 1 6.95142 4.98071 5.09565 
13 1 7.02597 3.92383 0.274882 
15 1 6.99294 5.24685 2.39877 
16 1 7.02597 6.43349 0.27033 
26 1 7.02646 5.17962 0.935239 
29 1 5.66038 5.31839 5.84836 
31 1 6.96266 5.29037 3.60434 
32 1 1.13839 5.31829 5.8493 
33 2 7.04873 3.83515 5.14255 
1 1 4.63416 5.28658 6.49048 
3 1 3.39399 5.20653 8.66618 
4 1 2.16316 5.2876 6.48635 
6 1 3.33639 5.18178 11.3151 
9 1 3.33366 3.92415 12.0046 
11 1 3.36595 5.17973 9.89026 
12 1 3.3351 6.43742 12.0082 
14 1 3.40228 5.2377 7.25866 
ITEM: TIMESTEP
50
ITEM: NUMBER OF ATOMS
35
ITEM: BOX BOUNDS pp pp pp
0.0000000000000000e+00 7.0970000000000004e+00
0.0000000000000000e+00 7.0970000000000004e+00
0.0000000000000000e+00 2.4588000000000001e+01
ITEM: ATOMS id type x y z 
34 2 6.32139 2.34482 5.25482 
35 3 0.116739 2.09494 5.27735 
2 1 3.33786 1.63345 13.3404 
5 1 4.65337 1.5787 18.1302 
7 1 3.39473 1.603 15.992 
8 1 2.16923 1.57896 18.1407 
18 1 3.40849 1.57999 17.4239 
21 1 3.33614 2.86693 12.6141 
23 1 3.36834 1.62287 14.7715 
24 1 3.33641 0.40155 12.6092 
17 1 7.02582 2.85846 24.2656 
19 1 6.99494 1.62184 22.0972 
20 1 7.02639 0.40706 24.2686 
22 1 6.95661 1.57971 19.4444 
25 1 5.70907 1.57967 18.7438 
27 1 6.96974 1.60278 20.8775 
28 1 1.10126 1.57953 18.7326 
30 1 7.02459 1.63192 23.5336 
10 1 6.95375 4.97016 5.09832 
13 1 7.02664 3.92583 0.274132 
15 1 6.98997 5.26225 2.4021 
16 1 7.02633 6.43084 0.266417 
26 1 7.02803 5.18049 0.937439 
29 1 5.66268 5.32466 5.84826 
31 1 6.96273 5.29349 3.6078 
32 1 1.13518 5.32703 5.84886 
33 2 7.06122 3.82352 5.14577 
1 1 4.63476 5.29257 6.48869 
3 1 3.39393 5.20895 8.66422 
4 1 2.16087 5.29381 6.48532 
6 1 3.33323 5.18067 11.3115 
9 1 3.33536 3.92595 12.0071 
11 1 3.36647 5.17869 9.8887 
12 1 3.33523 6.43575 12.0094 
14 1 3.40248 5.24615 7.25647 
ITEM: TIMESTEP
60
ITEM: NUMBER OF ATOMS
35
ITEM: BOX BOUNDS pp pp pp
0.0000000000000000e+00 7.0970000000000004e+00
0.0000000000000000e+00 7.0970000000000004e+00
0.0000000000000000e+00 2.4588000000000001e+01
ITEM: ATOMS id type x y z 
34 2 6.28843 2.2356 5.2635 
35 3 0.101765 2.05973 5.27205 
2 1 3.3363 1.63166 13.3371 
5 1 4.6562 1.58028 18.1273 
7 1 3.3955 1.6015 15.9894 
8 1 2.16915 1.57808 18.1415 
18 1 3.4083 1.57742 17.4222 
21 1 3.33429 2.87033 12.6166 
23 1 3.36812 1.62522 14.769 
24 1 3.33496 0.392659 12.6146 
17 1 7.02773 2.87221 24.2617 
19 1 6.99575 1.62476 22.1024 
20 1 7.02724 0.397236 24.2524 
22 1 6.95701 1.57763 19.448 
25 1 5.70933 1.57818 18.7451 
27 1 6.96706 1.60237 20.8821 
28 1 1.09915 1.57829 18.7294 
30 1 7.02723 1.63616 23.5391 
10 1 6.9661 4.93589 5.10435 
13 1 7.02644 3.93616 0.275904 
15 1 6.99093 5.31578 2.42033 
16 1 7.02809 6.42048 0.250126 
26 1 7.02985 5.18806 0.952208 
29 1 5.6739 5.33344 5.84759 
31 1 6.96136 5.30712 3.62356 
32 1 1.12325 5.35635 5.8503 
33 2 7.09838 3.77367 5.15982 
1 1 4.64258 5.32487 6.48108 
3 1 3.39472 5.22537 8.65302 
4 1 2.15271 5.33282 6.47748 
6 1 3.33123 5.1785 11.3029 
9 1 3.33457 3.93422 12.0183 
11 1 3.36623 5.17325 9.87624 
12 1 3.334 6.42973 12.0097 
14 1 3.40215 5.282 7.24202 
ITEM: TIMESTEP
70
ITEM: NUMBER OF ATOMS
35
ITEM: BOX BOUNDS pp pp pp
0.0000000000000000e+00 7.0970000000000004e+00
0.0000000000000000e+00 7.0970000000000004e+00
0.0000000000000000e+00 2.4588000000000001e+01
ITEM: ATOMS id type x y z 
34 2 6.28228 2.20821 5.26549 
35 3 0.0982235 2.05066 5.27113 
2 1 3.33612 1.63081 13.3354 
5 1 4.65605 1.57821 18.1274 
7 1 3.39498 1.60373 15.9886 
8 1 2.16826 1.57741 18.1406 
18 1 3.40927 1.57861 17.4222 
21 1 3.33343 2.8714 12.6174 
23 1 3.3687 1.62393 14.7682 
24 1 3.33481 0.390197 12.6149 
17 1 7.02852 2.87614 24.2637 
19 1 6.9949 1.62535 22.1036 
20 1 7.02855 0.396984 24.2493 
22 1 6.95615 1.57932 19.4494 
25 1 5.70982 1.57637 18.7442 
27 1 6.96764 1.60382 20.8842 
28 1 1.09963 1.57641 18.7309 
30 1 7.02636 1.63933 23.5412 
10 1 6.97008 4.92648 5.10464 
13 1 7.02846 3.93834 0.280378 
15 1 6.98385 5.32317 2.42272 
16 1 7.02964 6.41916 0.244256 
26 1 7.03029 5.19073 0.955748 
29 1 5.67677 5.3263 5.84728 
31 1 6.968 5.30795 3.62597 
32 1 1.12469 5.36168 5.85043 
33 2 7.09356 3.76526 5.16058 
1 1 4.64595 5.33402 6.48025 
3 1 3.39366 5.22846 8.65008 
4 1 2.15259 5.34749 6.47823 
6 1 3.33158 5.17765 11.2986 
9 1 3.33402 3.93546 12.0194 
11 1 3.36693 5.17374 9.87314 
12 1 3.33284 6.42878 12.0076 
14 1 3.40341 5.29545 7.2411 
ITEM: TIMESTEP
80
ITEM: NUMBER OF ATOMS
35
ITEM: BOX BOUNDS pp pp pp
0.0000000000000000e+00 7.0970000000000004e+00
0.0000000000000000e+00 7.0970000000000004e+00
0.0000000000000000e+00 2.4588000000000001e+01
ITEM: ATOMS id type x y z 
34 2 6.2789 2.19446 5.26649 
35 3 0.0965795 2.04582 5.27069 
2 1 3.33605 1.63038 13.3351 
5 1 4.65556 1.57818 18.1284 
7 1 3.39515 1.60315 15.9882 
8 1 2.16777 1.57742 18.1398 
18 1 3.40907 1.57781 17.4214 
21 1 3.3339 2.87194 12.6183 
23 1 3.36804 1.62398 14.7677 
24 1 3.33437 0.389773 12.6144 
17 1 7.02844 2.87766 24.2649 
19 1 6.9949 1.62618 22.1043 
20 1 7.0289 0.397035 24.2476 
22 1 6.95628 1.57752 19.4501 
25 1 5.71037 1.57767 18.7432 
27 1 6.9679 1.60381 20.8848 
28 1 1.10008 1.5772 18.7317 
30 1 7.02675 1.64079 23.5419 
10 1 6.97253 4.92243 5.10542 
13 1 7.02863 3.93927 0.282532 
15 1 6.98844 5.32643 2.42456 
16 1 7.0296 6.41874 0.241905 
26 1 7.02868 5.19302 0.956942 
29 1 5.67967 5.32396 5.84816 
31 1 6.9655 5.30785 3.62751 
32 1 1.12446 5.36441 5.8504 
33 2 7.09143 3.75951 5.16006 
1 1 4.64653 5.33677 6.47757 
3 1 3.39303 5.23191 8.64904 
4 1 2.15292 5.35502 6.47772 
6 1 3.3319 5.17729 11.2981 
9 1 3.33308 3.93528 12.0191 
11 1 3.36646 5.17306 9.87204 
12 1 3.33327 6.42808 12.0076 
14 1 3.40489 5.30322 7.24009 
ITEM: TIMESTEP
90
ITEM: NUMBER OF ATOMS
35
ITEM: BOX BOUNDS pp pp pp
0.0000000000000000e+00 7.0970000000000004e+00
0.0000000000000000e+00 7.0970000000000004e+00
0.0000000000000000e+00 2.4588000000000001e+01
ITEM: ATOMS id type x y z 
34 2 6.27081 2.15848 5.26912 
35 3 0.0913306 2.03264 5.26928 
2 1 3.33498 1.62955 13.3339 
5 1 4.65513 1.57761 18.1292 
7 1 3.3949 1.60275 15.9875 
8 1 2.16661 1.57714 18.1384 
18 1 3.4088 1.57797 17.421 
21 1 3.33399 2.87266 12.6192 
23 1 3.36779 1.62319 14.7671 
24 1 3.3345 0.388156 12.6133 
17 1 7.0284 2.88114 24.2693 
19 1 6.99539 1.62849 22.1058 
20 1 7.02904 0.397629 24.2429 
22 1 6.95642 1.57654 19.4514 
25 1 5.71107 1.57715 18.7424 
27 1 6.96824 1.60493 20.8864 
28 1 1.10094 1.57684 18.7337 
30 1 7.02801 1.64524 23.5438 
10 1 6.9775 4.91127 5.10736 
13 1 7.02843 3.94246 0.288168 
15 1 6.98947 5.33353 2.42953 
16 1 7.02983 6.41829 0.23638 
26 1 7.02885 5.19787 0.960484 
29 1 5.68439 5.31734 5.84797 
31 1 6.96848 5.30717 3.63173 
32 1 1.12475 5.37082 5.85009 
33 2 7.08626 3.74454 5.15829 
1 1 4.65038 5.34414 6.4757 
3 1 3.39132 5.24153 8.6459 
4 1 2.15289 5.37563 6.4755 
6 1 3.3324 5.17608 11.2953 
9 1 3.33257 3.93552 12.0192 
11 1 3.36577 5.17178 9.86856 
12 1 3.33269 6.4263 12.007 
14 1 3.40768 5.32463 7.23718 
ITEM: TIMESTEP
100
ITEM: NUMBER OF ATOMS
35
ITEM: BOX BOUNDS pp pp pp
0.0000000000000000e+00 7.0970000000000004e+00
0.0000000000000000e+00 7.0970000000000004e+00
0.0000000000000000e+00 2.4588000000000001e+01
ITEM: ATOMS id type x y z 
34 2 6.23761 2.00214 5.28073 
35 3 0.065292 1.96961 5.26118 
2 1 3.33065 1.62353 13.3288 
5 1 4.65163 1.57747 18.1373 
7 1 3.39537 1.60005 15.9826 
8 1 2.16407 1.57549 18.137 
18 1 3.40979 1.57772 17.4181 
21 1 3.33581 2.87856 12.6268 
23 1 3.36339 1.6194 14.7622 
24 1 3.33282 0.380345 12.6062 
17 1 7.03213 2.89986 24.2879 
19 1 6.99636 1.64384 22.1146 
20 1 7.03158 0.39891 24.2227 
22 1 6.95515 1.57209 19.4583 
25 1 5.71599 1.57569 18.7354 
27 1 6.96939 1.60866 20.8958 
28 1 1.1026 1.57427 18.7386 
30 1 7.02753 1.66498 23.5534 
10 1 6.99746 4.8621 5.11465 
13 1 7.03341 3.95486 0.316647 
15 1 6.99607 5.36157 2.45071 
16 1 7.0334 6.4206 0.217702 
26 1 7.02035 5.21956 0.977588 
29 1 5.70109 5.28469 5.85087 
31 1 6.9853 5.29572 3.64927 
32 1 1.12573 5.39128 5.84422 
33 2 7.06614 3.67807 5.15034 
1 1 4.66577 5.37633 6.46914 
3 1 3.38719 5.2888 8.63235 
4 1 2.154 5.47174 6.46531 
6 1 3.33123 5.17091 11.2799 
9 1 3.33254 3.93246 12.0138 
11 1 3.36197 5.16987 9.85105 
12 1 3.33345 6.41788 12.0023 
14 1 3.41774 5.42796 7.22474 
ITEM: TIMESTEP
110
ITEM: NUMBER OF ATOMS
35
ITEM: BOX BOUNDS pp pp pp
0.0000000000000000e+00 7.0970000000000004e+00
0.0000000000000000e+00 7.0970000000000004e+00
0.0000000000000000e+00 2.4588000000000001e+01
ITEM: ATOMS id type x y z 
34 2 6.2351 1.98941 5.28174 
35 3 0.0619399 1.96394 5.25959 
2 1 3.33291 1.62445 13.3273 
5 1 4.65286 1.57606 18.1358 
7 1 3.39404 1.6005 15.9828 
8 1 2.16431 1.57557 18.1369 
18 1 3.40792 1.579 17.4192 
21 1 3.33331 2.87704 12.6255 
23 1 3.36587 1.61766 14.7626 
24 1 3.33118 0.379546 12.6052 
17 1 7.03095 2.90002 24.2913 
19 1 6.99714 1.64589 22.1144 
20 1 7.03096 0.399729 24.2225 
22 1 6.95694 1.57251 19.4581 
25 1 5.71488 1.57371 18.7375 
27 1 6.96869 1.6115 20.8951 
28 1 1.10254 1.57379 18.7392 
30 1 7.03131 1.66657 23.5537 
10 1 6.99573 4.85983 5.11619 
13 1 7.02901 3.9561 0.317901 
15 1 6.99672 5.36071 2.45215 
16 1 7.03016 6.42274 0.218977 
26 1 7.02576 5.22133 0.979105 
29 1 5.70106 5.28088 5.8522 
31 1 6.98742 5.29159 3.65069 
32 1 1.12682 5.38648 5.84374 
33 2 7.0706 3.67933 5.15176 
1 1 4.66456 5.37838 6.46989 
3 1 3.38969 5.29334 8.62995 
4 1 2.15331 5.47819 6.46286 
6 1 3.33377 5.16873 11.2785 
9 1 3.33102 3.93291 12.0132 
11 1 3.36181 5.17361 9.84839 
12 1 3.33207 6.41704 12.0007 
14 1 3.41761 5.43891 7.2233 
ITEM: TIMESTEP
120
ITEM: NUMBER OF ATOMS
35
ITEM: BOX BOUNDS pp pp pp
0.0000000000000000e+00 7.0970000000000004e+00
0.0000000000000000e+00 7.0970000000000004e+00
0.0000000000000000e+00 2.4588000000000001e+01
ITEM: ATOMS id type x y z 
34 2 6.2316 1.97409 5.28295 
35 3 0.0586751 1.95741 5.25768 
2 1 3.3327 1.62355 13.3267 
5 1 4.65311 1.57619 18.1354 
7 1 3.39391 1.59949 15.9826 
8 1 2.16434 1.57623 18.1371 
18 1 3.40784 1.57856 17.4189 
21 1 3.33101 2.87577 12.6234 
23 1 3.36632 1.61651 14.7623 
24 1 3.33244 0.379016 12.6034 
17 1 7.02928 2.90024 24.2948 
19 1 6.99812 1.6491 22.1147 
20 1 7.03049 0.40115 24.2222 
22 1 6.95706 1.57069 19.4585 
25 1 5.71435 1.57385 18.7384 
27 1 6.96832 1.61367 20.8954 
28 1 1.10262 1.57389 18.7395 
30 1 7.03365 1.66861 23.5541 
10 1 6.9949 4.85595 5.1179 
13 1 7.02734 3.9574 0.319498 
15 1 6.99902 5.35978 2.45267 
16 1 7.02859 6.42518 0.220674 
26 1 7.02778 5.22334 0.979832 
29 1 5.70048 5.27666 5.854 
31 1 6.98862 5.28713 3.65245 
32 1 1.12744 5.38214 5.84297 
33 2 7.07465 3.67867 5.15349 
1 1 4.66406 5.38083 6.47017 
3 1 3.39255 5.30111 8.62877 
4 1 2.1536 5.48587 6.46068 
6 1 3.33206 5.16786 11.2766 
9 1 3.33169 3.93275 12.0131 
11 1 3.36252 5.17649 9.84634 
12 1 3.33216 6.41616 11.9995 
14 1 3.41668 5.45166 7.22143 
ITEM: TIMESTEP
130
ITEM: NUMBER OF ATOMS
35
ITEM: BOX BOUNDS pp pp pp
0.0000000000000000e+00 7.0970000000000004e+00
0.0000000000000000e+00 7.0970000000000004e+00
0.0000000000000000e+00 2.4588000000000001e+01
ITEM: ATOMS id type x y z 
34 2 6.22223 1.93068 5.28625 
35 3 0.0509472 1.94082 5.25257 
2 1 3.3326 1.6184 13.3232 
5 1 4.6525 1.57555 18.1351 
7 1 3.39436 1.59859 15.9793 
8 1 2.16453 1.57449 18.1378 
18 1 3.41038 1.58067 17.4159 
21 1 3.33194 2.87423 12.6214 
23 1 3.36558 1.61286 14.759 
24 1 3.33093 0.376431 12.6014 
17 1 7.0333 2.90238 24.3021 
19 1 6.99642 1.6591 22.1166 
20 1 7.03203 0.406207 24.2223 
22 1 6.95419 1.57136 19.4604 
25 1 5.71313 1.57162 18.7399 
27 1 6.97114 1.61811 20.8974 
28 1 1.10338 1.57224 18.7399 
30 1 7.02856 1.67434 23.5562 
10 1 6.99767 4.84229 5.12017 
13 1 7.03116 3.96104 0.324045 
15 1 7.00516 5.35629 2.45493 
16 1 7.03254 6.43245 0.224403 
26 1 7.01826 5.22831 0.981123 
29 1 5.70098 5.26544 5.85689 
31 1 6.9916 5.27633 3.65311 
32 1 1.13027 5.37856 5.84192 
33 2 7.07721 3.66226 5.15798 
1 1 4.66492 5.38834 6.47033 
3 1 3.38441 5.32231 8.62619 
4 1 2.15464 5.5054 6.45742 
6 1 3.32892 5.16806 11.2732 
9 1 3.3331 3.92885 12.0081 
11 1 3.3719 5.18689 9.84361 
12 1 3.32974 6.41474 11.9945 
14 1 3.41937 5.49136 7.22332 
ITEM: TIMESTEP
140
ITEM: NUMBER OF ATOMS
35
ITEM: BOX BOUNDS pp pp pp
0.0000000000000000e+00 7.0970000000000004e+00
0.0000000000000000e+00 7.0970000000000004e+00
0.0000000000000000e+00 2.4588000000000001e+01
ITEM: ATOMS id type x y z 
34 2 6.22188 1.92481 5.28663 
35 3 0.0491826 1.93856 5.25205 
2 1 3.33235 1.61981 13.3235 
5 1 4.65275 1.57569 18.135 
7 1 3.39431 1.59767 15.9796 
8 1 2.1647 1.57553 18.1378 
18 1 3.40853 1.57955 17.4164 
21 1 3.33185 2.87357 12.6203 
23 1 3.36592 1.61273 14.7594 
24 1 3.33111 0.375969 12.6005 
17 1 7.03183 2.90298 24.3029 
19 1 6.99727 1.66051 22.1161 
20 1 7.03153 0.406837 24.2228 
22 1 6.95593 1.56955 19.4599 
25 1 5.71298 1.5729 18.7399 
27 1 6.97069 1.6188 20.897 
28 1 1.10316 1.5726 18.7399 
30 1 7.03078 1.6751 23.556 
10 1 6.99836 4.84212 5.12121 
13 1 7.02961 3.96182 0.324784 
15 1 7.00332 5.35559 2.45675 
16 1 7.03035 6.43275 0.224701 
26 1 7.02217 5.22941 0.982368 
29 1 5.70087 5.26331 5.85712 
31 1 6.99391 5.27371 3.65526 
32 1 1.13012 5.37705 5.84146 
33 2 7.07703 3.66103 5.15819 
1 1 4.66544 5.38983 6.47091 
3 1 3.38975 5.32898 8.62591 
4 1 2.15453 5.50771 6.45701 
6 1 3.331 5.16628 11.2725 
9 1 3.33164 3.92905 12.0078 
11 1 3.36634 5.18652 9.84189 
12 1 3.33068 6.41416 11.9944 
14 1 3.41813 5.49453 7.22011 
ITEM: TIMESTEP
150
ITEM: NUMBER OF ATOMS
35
ITEM: BOX BOUNDS pp pp pp
0.0000000000000000e+00 7.0970000000000004e+00
0.0000000000000000e+00 7.0970000000000004e+00
0.0000000000000000e+00 2.4588000000000001e+01
ITEM: ATOMS id type x y z 
34 2 6.21584 1.8868 5.28926 
35 3 0.0416309 1.92436 5.24837 
2 1 3.33112 1.61967 13.3222 
5 1 4.65405 1.57542 18.1326 
7 1 3.39446 1.59607 15.9794 
8 1 2.16408 1.57555 18.1365 
18 1 3.40704 1.57947 17.4173 
21 1 3.32957 2.87111 12.6156 
23 1 3.36577 1.60967 14.7593 
24 1 3.3328 0.374397 12.5971 
17 1 7.02835 2.90757 24.3065 
19 1 7.00064 1.66884 22.1158 
20 1 7.02915 0.411142 24.2246 
22 1 6.95715 1.56852 19.459 
25 1 5.71115 1.57253 18.7428 
27 1 6.9709 1.62317 20.897 
28 1 1.10349 1.57208 18.7411 
30 1 7.03563 1.68016 23.5567 
10 1 7.00012 4.82932 5.127 
13 1 7.02565 3.96595 0.329064 
15 1 7.00428 5.35115 2.46282 
16 1 7.02599 6.43766 0.227646 
26 1 7.02976 5.23434 0.987616 
29 1 5.70157 5.25311 5.86094 
31 1 6.99805 5.26053 3.66104 
32 1 1.13169 5.37208 5.84171 
33 2 7.07588 3.65085 5.16066 
1 1 4.66588 5.39799 6.47018 
3 1 3.39988 5.34869 8.6208 
4 1 2.15472 5.52257 6.45387 
6 1 3.33131 5.16331 11.2668 
9 1 3.33113 3.92627 12.0018 
11 1 3.3584 5.198 9.83541 
12 1 3.33284 6.41149 11.9934 
14 1 3.42002 5.52719 7.21629 
ITEM: TIMESTEP
160
ITEM: NUMBER OF ATOMS
35
ITEM: BOX BOUNDS pp pp pp
0.0000000000000000e+00 7.0970000000000004e+00
0.0000000000000000e+00 7.0970000000000004e+00
0.0000000000000000e+00 2.4588000000000001e+01
ITEM: ATOMS id type x y z 
34 2 6.21358 1.8737 5.29012 
35 3 0.0394926 1.91903 5.2471 
2 1 3.33241 1.61748 13.3205 
5 1 4.65488 1.57588 18.131 
7 1 3.3943 1.59571 15.9775 
8 1 2.16399 1.57484 18.1369 
18 1 3.40842 1.5793 17.4151 
21 1 3.33087 2.87072 12.6139 
23 1 3.36569 1.60898 14.7573 
24 1 3.33079 0.373463 12.5967 
17 1 7.03078 2.90932 24.3073 
19 1 6.99908 1.67129 22.1174 
20 1 7.03073 0.412809 24.2251 
22 1 6.95562 1.56881 19.4612 
25 1 5.70995 1.57205 18.7447 
27 1 6.97332 1.62441 20.8985 
28 1 1.10339 1.57217 18.7405 
30 1 7.03132 1.682 23.5578 
10 1 7.00063 4.82598 5.1281 
13 1 7.02822 3.96756 0.330203 
15 1 7.00758 5.34922 2.46362 
16 1 7.02907 6.44014 0.229473 
26 1 7.02338 5.23587 0.988027 
29 1 5.70254 5.25011 5.86085 
31 1 6.9972 5.25625 3.66146 
32 1 1.13284 5.37039 5.84281 
33 2 7.07537 3.64432 5.16265 
1 1 4.66752 5.40118 6.46997 
3 1 3.3906 5.3573 8.62038 
4 1 2.15598 5.52775 6.45339 
6 1 3.33057 5.16485 11.2666 
9 1 3.33102 3.92471 11.9994 
11 1 3.36722 5.20147 9.83448 
12 1 3.33002 6.41063 11.9926 
14 1 3.42165 5.53732 7.21527 
ITEM: TIMESTEP
170
ITEM: NUMBER OF ATOMS
35
ITEM: BOX BOUNDS pp pp pp
0.0000000000000000e+00 7.0970000000000004e+00
0.0000000000000000e+00 7.0970000000000004e+00
0.0000000000000000e+00 2.4588000000000001e+01
ITEM: ATOMS id type x y z 
34 2 6.21238 1.86493 5.29068 
35 3 0.0377592 1.91548 5.24636 
2 1 3.33187 1.61789 13.3199 
5 1 4.65504 1.5756 18.1307 
7 1 3.39412 1.59583 15.9771 
8 1 2.16408 1.57553 18.1369 
18 1 3.40796 1.57859 17.4149 
21 1 3.33159 2.87012 12.6125 
23 1 3.36588 1.60827 14.757 
24 1 3.33004 0.372765 12.5963 
17 1 7.03052 2.91049 24.308 
19 1 6.99955 1.67269 22.1176 
20 1 7.03043 0.414027 24.2259 
22 1 6.956 1.56845 19.4611 
25 1 5.70964 1.57238 18.7451 
27 1 6.97372 1.6259 20.8987 
28 1 1.10327 1.57168 18.7403 
30 1 7.03157 1.68309 23.5584 
10 1 7.00143 4.82273 5.12937 
13 1 7.02774 3.96887 0.33057 
15 1 7.00681 5.34777 2.46419 
16 1 7.02857 6.44159 0.230583 
26 1 7.02458 5.23699 0.989528 
29 1 5.70243 5.2485 5.86163 
31 1 6.99898 5.25322 3.66274 
32 1 1.13275 5.36882 5.84239 
33 2 7.07507 3.6414 5.16377 
1 1 4.66727 5.40334 6.47028 
3 1 3.39127 5.36268 8.6194 
4 1 2.15638 5.53092 6.45312 
6 1 3.33056 5.16411 11.265 
9 1 3.33035 3.92415 11.9976 
11 1 3.36618 5.20427 9.83336 
12 1 3.33134 6.40993 11.9921 
14 1 3.42286 5.54398 7.21496 
ITEM: TIMESTEP
180
ITEM: NUMBER OF ATOMS
35
ITEM: BOX BOUNDS pp pp pp
0.0000000000000000e+00 7.0970000000000004e+00
0.0000000000000000e+00 7.0970000000000004e+00
0.0000000000000000e+00 2.4588000000000001e+01
ITEM: ATOMS id type x y z 
34 2 6.21116 1.85647 5.29121 
35 3 0.0361898 1.91198 5.24567 
2 1 3.33171 1.61743 13.3194 
5 1 4.65499 1.57521 18.1306 
7 1 3.39427 1.59491 15.9766 
8 1 2.16405 1.57468 18.1368 
18 1 3.40798 1.57915 17.4146 
21 1 3.33073 2.86964 12.6111 
23 1 3.36546 1.60823 14.7565 
24 1 3.33116 0.37246 12.5959 
17 1 7.03011 2.91162 24.3085 
19 1 6.99976 1.67452 22.1178 
20 1 7.03022 0.415147 24.2267 
22 1 6.95605 1.56867 19.4613 
25 1 5.70947 1.57248 18.7452 
27 1 6.97424 1.62632 20.899 
28 1 1.10323 1.57224 18.7402 
30 1 7.03161 1.68433 23.5587 
10 1 7.00196 4.82031 5.13017 
13 1 7.02792 3.97011 0.330948 
15 1 7.00731 5.34636 2.46632 
16 1 7.0285 6.44291 0.231888 
26 1 7.02462 5.23815 0.989894 
29 1 5.70264 5.24686 5.86236 
31 1 6.99966 5.24999 3.66387 
32 1 1.13361 5.36737 5.84288 
33 2 7.07477 3.63844 5.1649 
1 1 4.6682 5.40526 6.4699 
3 1 3.39246 5.36658 8.61855 
4 1 2.15632 5.53373 6.45237 
6 1 3.33075 5.16379 11.2637 
9 1 3.33136 3.92344 11.9959 
11 1 3.36517 5.2076 9.8323 
12 1 3.33022 6.40948 11.992 
14 1 3.42215 5.55113 7.21428 
ITEM: TIMESTEP
190
ITEM: NUMBER OF ATOMS
35
ITEM: BOX BOUNDS pp pp pp
0.0000000000000000e+00 7.0970000000000004e+00
0.0000000000000000e+00 7.0970000000000004e+00
0.0000000000000000e+00 2.4588000000000001e+01
ITEM: ATOMS id type x y z 
34 2 6.19944 1.77259 5.29632 
35 3 0.020637 1.87707 5.2393 
2 1 3.33035 1.6148 13.3126 
5 1 4.65608 1.57464 18.1285 
7 1 3.39371 1.59089 15.9711 
8 1 2.1621 1.57352 18.1344 
18 1 3.40767 1.57816 17.4122 
21 1 3.33133 2.86681 12.5968 
23 1 3.36425 1.60518 14.7527 
24 1 3.33099 0.366381 12.5947 
17 1 7.02848 2.92356 24.3129 
19 1 7.00188 1.68909 22.1196 
20 1 7.02876 0.427345 24.2349 
22 1 6.95656 1.57039 19.4625 
25 1 5.7069 1.57108 18.7482 
27 1 6.97985 1.63598 20.9024 
28 1 1.10433 1.57234 18.7398 
30 1 7.03004 1.69583 23.5622 
10 1 7.00706 4.79422 5.14115 
13 1 7.02801 3.98283 0.334519 
15 1 7.01223 5.33183 2.47965 
16 1 7.02787 6.45717 0.245077 
26 1 7.02503 5.24894 0.997616 
29 1 5.70367 5.23141 5.86979 
31 1 7.00616 5.21829 3.67571 
32 1 1.13934 5.35251 5.84569 
33 2 7.07153 3.60906 5.17654 
1 1 4.67335 5.42588 6.46837 
3 1 3.40113 5.40414 8.60896 
4 1 2.15752 5.56081 6.44589 
6 1 3.33274 5.16284 11.2541 
9 1 3.33007 3.91383 11.9777 
11 1 3.3577 5.24102 9.8217 
12 1 3.33073 6.4057 11.9877 
14 1 3.42251 5.62086 7.20675 
ITEM: TIMESTEP
200
ITEM: NUMBER OF ATOMS
35
ITEM: BOX BOUNDS pp pp pp
0.0000000000000000e+00 7.0970000000000004e+00
0.0000000000000000e+00 7.0970000000000004e+00
0.0000000000000000e+00 2.4588000000000001e+01
ITEM: ATOMS id type x y z 
34 2 6.19242 1.71074 5.29994 
35 3 0.00772966 1.85069 5.23502 
2 1 3.32909 1.61335 13.3087 
5 1 4.65659 1.57405 18.127 
7 1 3.39243 1.5907 15.9684 
8 1 2.16264 1.57305 18.1332 
18 1 3.40761 1.57502 17.4088 
21 1 3.33128 2.86265 12.5872 
23 1 3.36505 1.60253 14.7487 
24 1 3.33014 0.362346 12.5938 
17 1 7.02837 2.93323 24.3159 
19 1 7.00365 1.70179 22.1216 
20 1 7.02788 0.436154 24.2418 
22 1 6.95644 1.57289 19.4644 
25 1 5.70564 1.57118 18.7505 
27 1 6.98346 1.63885 20.9039 
28 1 1.10345 1.57297 18.7386 
30 1 7.02831 1.70397 23.5653 
10 1 7.00969 4.77457 5.15126 
13 1 7.02707 3.99224 0.336752 
15 1 7.01577 5.3202 2.48674 
16 1 7.02728 6.46901 0.254692 
26 1 7.02564 5.25674 1.00764 
29 1 5.70391 5.22051 5.8758 
31 1 7.01085 5.19508 3.68225 
32 1 1.14338 5.34114 5.84756 
33 2 7.06909 3.58813 5.18559 
1 1 4.67193 5.44315 6.46941 
3 1 3.40178 5.44514 8.60259 
4 1 2.16019 5.58029 6.44257 
6 1 3.32995 5.16298 11.2454 
9 1 3.33006 3.90875 11.962 
11 1 3.36118 5.25871 9.811 
12 1 3.33122 6.40197 11.9852 
14 1 3.42883 5.66223 7.19894 
ITEM: TIMESTEP
210
ITEM: NUMBER OF ATOMS
35
ITEM: BOX BOUNDS pp pp pp
0.0000000000000000e+00 7.0970000000000004e+00
0.0000000000000000e+00 7.0970000000000004e+00
0.0000000000000000e+00 2.4588000000000001e+01
ITEM: ATOMS id type x y z 
34 2 6.19232 1.70554 5.30012 
35 3 0.00667857 1.84805 5.23525 
2 1 3.33122 1.61445 13.3083 
5 1 4.65595 1.57292 18.1282 
7 1 3.3926 1.59056 15.9677 
8 1 2.16264 1.57344 18.1327 
18 1 3.40822 1.57475 17.4084 
21 1 3.32966 2.86209 12.5851 
23 1 3.36447 1.6034 14.7479 
24 1 3.32996 0.362046 12.5938 
17 1 7.02797 2.93472 24.3152 
19 1 7.00499 1.70102 22.1223 
20 1 7.0279 0.437259 24.2433 
22 1 6.95755 1.57313 19.4648 
25 1 5.70628 1.57282 18.7493 
27 1 6.98045 1.64055 20.9041 
28 1 1.10351 1.57202 18.7386 
30 1 7.02831 1.70495 23.5654 
10 1 7.00782 4.7742 5.15231 
13 1 7.02734 3.99359 0.336699 
15 1 7.01609 5.31815 2.48855 
16 1 7.0272 6.47019 0.256764 
26 1 7.02564 5.25754 1.00781 
29 1 5.70653 5.2206 5.87535 
31 1 7.01089 5.19222 3.68399 
32 1 1.14364 5.33999 5.84877 
33 2 7.06839 3.5879 5.18725 
1 1 4.67454 5.44404 6.46712 
3 1 3.39339 5.4476 8.60162 
4 1 2.16077 5.57948 6.44204 
6 1 3.3299 5.16249 11.242 
9 1 3.33025 3.90942 11.9599 
11 1 3.36852 5.26183 9.81141 
12 1 3.32931 6.40091 11.9857 
14 1 3.4291 5.66314 7.20022 
ITEM: TIMESTEP
220
ITEM: NUMBER OF ATOMS
35
ITEM: BOX BOUNDS pp pp pp
0.0000000000000000e+00 7.0970000000000004e+00
0.0000000000000000e+00 7.0970000000000004e+00
0.0000000000000000e+00 2.4588000000000001e+01
ITEM: ATOMS id type x y z 
34 2 6.19217 1.704 5.30019 
35 3 0.00650915 1.84738 5.23532 
2 1 3.33097 1.61431 13.3079 
5 1 4.65598 1.57332 18.1285 
7 1 3.39266 1.59039 15.9677 
8 1 2.16289 1.57323 18.1324 
18 1 3.40811 1.57447 17.4082 
21 1 3.3302 2.86191 12.5846 
23 1 3.3644 1.60369 14.7477 
24 1 3.33002 0.361781 12.5938 
17 1 7.02812 2.93506 24.315 
19 1 7.00408 1.70038 22.1224 
20 1 7.02789 0.437822 24.2436 
22 1 6.95698 1.57267 19.4648 
25 1 5.70661 1.57268 18.7492 
27 1 6.98095 1.64182 20.9041 
28 1 1.10358 1.57242 18.7385 
30 1 7.0286 1.70514 23.5656 
10 1 7.00838 4.77351 5.15276 
13 1 7.02718 3.99399 0.336641 
15 1 7.01618 5.31752 2.48903 
16 1 7.02719 6.47057 0.257331 
26 1 7.02569 5.2577 1.00841 
29 1 5.70581 5.22093 5.87573 
31 1 7.01088 5.19166 3.68339 
32 1 1.14363 5.33965 5.8488 
33 2 7.06811 3.58763 5.18774 
1 1 4.67433 5.44463 6.46743 
3 1 3.39585 5.44828 8.60104 
4 1 2.16095 5.57931 6.44205 
6 1 3.33024 5.16278 11.2422 
9 1 3.3299 3.90942 11.9592 
11 1 3.36679 5.26257 9.81121 
12 1 3.32934 6.40108 11.986 
14 1 3.42881 5.6633 7.1994 
ITEM: TIMESTEP
230
ITEM: NUMBER OF ATOMS
35
ITEM: BOX BOUNDS pp pp pp
0.0000000000000000e+00 7.0970000000000004e+00
0.0000000000000000e+00 7.0970000000000004e+00
0.0000000000000000e+00 2.4588000000000001e+01
ITEM: ATOMS id type x y z 
34 2 6.19208 1.7029 5.30023 
35 3 0.00636189 1.84689 5.23538 
2 1 3.33093 1.61433 13.3078 
5 1 4.65591 1.57331 18.1286 
7 1 3.39268 1.59038 15.9676 
8 1 2.16283 1.57318 18.1324 
18 1 3.40817 1.57434 17.4081 
21 1 3.33023 2.86188 12.5842 
23 1 3.36438 1.60383 14.7476 
24 1 3.33003 0.361839 12.5939 
17 1 7.02816 2.93537 24.3149 
19 1 7.00358 1.70037 22.1225 
20 1 7.02793 0.438054 24.2439 
22 1 6.95682 1.57276 19.4648 
25 1 5.70669 1.57279 18.7491 
27 1 6.98135 1.64192 20.9041 
28 1 1.10367 1.57252 18.7385 
30 1 7.02867 1.70529 23.5657 
10 1 7.00856 4.77313 5.15302 
13 1 7.02715 3.99422 0.336563 
15 1 7.01622 5.31715 2.48904 
16 1 7.02718 6.47094 0.25769 
26 1 7.0257 5.25784 1.00853 