ITEM: TIMESTEP
0
ITEM: NUMBER OF ATOMS
203
ITEM: BOX BOUNDS pp pp pp
0.0000000000000000e+00 1.6114000000000001e+01
0.0000000000000000e+00 1.6113000000000000e+01
0.0000000000000000e+00 1.6111999999999998e+01
ITEM: ATOMS id type x y z 
5 1 5.384 5.384 5.384 
65 1 5.66 6.662 2.461 
66 1 5.336 7.323 3.711 
68 1 4.865 6.606 4.866 
79 1 5.364 7.322 1.219 
89 1 6.662 2.461 5.66 
90 1 7.323 3.711 5.336 
92 1 6.606 4.866 4.866 
101 1 7.322 1.219 5.364 
109 1 2.461 5.66 6.662 
110 1 3.71 5.336 7.323 
112 1 4.865 4.866 6.606 
121 1 1.218 5.364 7.322 
129 1 6.662 5.66 2.461 
130 1 7.323 5.336 3.711 
137 1 7.322 5.364 1.219 
141 1 2.461 6.662 5.66 
142 1 3.71 7.323 5.336 
149 1 1.218 7.322 5.364 
153 1 5.66 2.461 6.662 
154 1 5.336 3.711 7.323 
161 1 5.364 1.219 7.322 
7 1 6.662 5.66 13.616 
8 1 7.323 5.336 12.366 
10 1 6.606 4.866 11.211 
21 1 7.322 5.364 14.858 
32 1 1.218 7.322 10.713 
40 1 2.461 6.662 10.417 
41 1 3.71 7.323 10.741 
43 1 4.865 6.606 11.211 
47 1 5.364 1.219 8.755 
55 1 5.66 2.461 9.415 
56 1 5.336 3.711 8.754 
58 1 4.865 4.866 9.471 
64 1 5.629 6.643 16.094 
75 1 5.384 5.384 10.693 
118 1 6.643 5.629 16.094 
168 1 5.66 6.662 13.616 
169 1 5.336 7.323 12.366 
176 1 5.364 7.322 14.858 
182 1 7.322 1.219 10.713 
186 1 6.662 2.461 10.417 
187 1 7.323 3.711 10.741 
191 1 1.218 5.364 8.755 
195 1 2.461 5.66 9.415 
196 1 3.71 5.336 8.754 
203 3 0.028 2.617 8.702 
9 1 7.322 10.713 1.219 
19 1 6.662 10.417 2.461 
20 1 7.323 10.741 3.711 
22 1 6.606 11.211 4.866 
27 1 1.218 8.755 5.364 
35 1 2.461 9.415 5.66 
36 1 3.71 8.754 5.336 
38 1 4.865 9.471 4.866 
44 1 6.643 16.095 5.63 
50 1 5.66 13.616 6.662 
51 1 5.336 12.366 7.323 
53 1 4.865 11.211 6.606 
62 1 5.364 14.858 7.322 
76 1 5.629 16.095 6.643 
81 1 5.384 10.693 5.384 
167 1 5.364 8.755 1.219 
171 1 5.66 9.415 2.461 
172 1 5.336 8.754 3.711 
180 1 6.662 13.616 5.66 
181 1 7.323 12.366 5.336 
188 1 7.322 14.858 5.364 
194 1 1.218 10.713 7.322 
198 1 2.461 10.417 6.662 
199 1 3.71 10.741 7.323 
17 1 5.384 10.693 10.693 
39 1 6.643 16.095 10.448 
49 1 5.629 9.434 16.095 
73 1 5.364 8.755 14.858 
82 1 5.629 16.095 9.434 
83 1 5.66 9.415 13.616 
84 1 5.336 8.754 12.366 
86 1 4.865 9.471 11.211 
91 1 7.322 14.858 10.713 
99 1 6.662 13.616 10.417 
100 1 7.323 12.366 10.741 
102 1 6.606 11.211 11.211 
113 1 6.643 10.448 16.094 
114 1 2.461 10.417 9.415 
115 1 3.71 10.741 8.754 
117 1 4.865 11.211 9.471 
126 1 1.218 10.713 8.755 
131 1 7.322 10.713 14.858 
135 1 6.662 10.417 13.616 
136 1 7.323 10.741 12.366 
144 1 2.461 9.415 10.417 
145 1 3.71 8.754 10.741 
152 1 1.218 8.755 10.713 
158 1 5.364 14.858 8.755 
162 1 5.66 13.616 9.415 
163 1 5.336 12.366 8.754 
3 1 8.755 5.364 1.219 
13 1 9.415 5.66 2.461 
14 1 8.754 5.336 3.711 
16 1 9.471 4.866 4.866 
24 1 16.095 5.629 6.643 
30 1 13.616 6.662 5.66 
31 1 12.367 7.323 5.336 
33 1 11.212 6.606 4.866 
42 1 14.859 7.322 5.364 
52 1 10.713 1.219 7.322 
60 1 10.417 2.461 6.662 
61 1 10.741 3.711 7.323 
63 1 11.212 4.866 6.606 
87 1 10.693 5.384 5.384 
98 1 16.095 6.643 5.63 
170 1 10.713 7.322 1.219 
174 1 10.417 6.662 2.461 
175 1 10.741 7.323 3.711 
179 1 8.755 1.219 5.364 
183 1 9.415 2.461 5.66 
184 1 8.754 3.711 5.336 
192 1 13.616 5.66 6.662 
193 1 12.367 5.336 7.323 
200 1 14.859 5.364 7.322 
6 1 16.096 5.629 9.434 
23 1 10.693 5.384 10.693 
59 1 10.448 6.643 16.095 
67 1 10.713 7.322 14.858 
77 1 10.417 6.662 13.616 
78 1 10.741 7.323 12.366 
80 1 11.212 6.606 11.211 
93 1 16.096 6.643 10.448 
94 1 9.415 2.461 10.417 
95 1 8.754 3.711 10.741 
97 1 9.471 4.866 11.211 
106 1 8.755 1.219 10.713 
116 1 14.859 5.364 8.755 
123 1 9.434 5.629 16.094 
124 1 13.616 5.66 9.415 
125 1 12.367 5.336 8.754 
127 1 11.212 4.866 9.471 
134 1 8.755 5.364 14.858 
138 1 9.415 5.66 13.616 
139 1 8.754 5.336 12.366 
143 1 14.859 7.322 10.713 
147 1 13.616 6.662 10.417 
148 1 12.367 7.323 10.741 
156 1 10.417 2.461 9.415 
157 1 10.741 3.711 8.754 
164 1 10.713 1.219 8.755 
201 2 16.096 4.279 9.434 
202 2 15.356 3.192 8.677 
11 1 10.693 10.693 5.384 
18 1 16.096 10.448 6.643 
29 1 9.434 16.095 5.63 
70 1 10.448 16.095 6.643 
71 1 10.417 9.415 2.461 
72 1 10.741 8.754 3.711 
74 1 11.212 9.471 4.866 
85 1 10.713 8.755 1.219 
96 1 8.755 14.858 5.364 
103 1 16.095 9.434 5.63 
104 1 9.415 13.616 5.66 
105 1 8.754 12.366 5.336 
107 1 9.471 11.211 4.866 
111 1 14.859 10.713 7.322 
119 1 13.616 10.417 6.662 
120 1 12.367 10.741 7.323 
122 1 11.212 11.211 6.606 
132 1 9.415 10.417 2.461 
133 1 8.754 10.741 3.711 
140 1 8.755 10.713 1.219 
146 1 14.859 8.755 5.364 
150 1 13.616 9.415 5.66 
151 1 12.367 8.754 5.336 
155 1 10.713 14.858 7.322 
159 1 10.417 13.616 6.662 
160 1 10.741 12.366 7.323 
1 1 9.415 10.417 13.616 
2 1 8.754 10.741 12.366 
4 1 9.471 11.211 11.211 
12 1 16.096 10.448 9.434 
15 1 8.755 10.713 14.858 
25 1 13.616 9.415 10.417 
26 1 12.367 8.754 10.741 
28 1 11.212 9.471 11.211 
34 1 9.434 16.095 10.448 
37 1 14.859 8.755 10.713 
45 1 10.417 13.616 9.415 
46 1 10.741 12.366 8.754 
48 1 11.212 11.211 9.471 
54 1 10.448 9.434 16.094 
57 1 10.713 14.858 8.755 
69 1 10.693 10.693 10.693 
88 1 10.448 16.095 9.434 
108 1 16.096 9.434 10.448 
128 1 9.434 10.448 16.094 
165 1 10.417 9.415 13.616 
166 1 10.741 8.754 12.366 
173 1 10.713 8.755 14.858 
177 1 9.415 13.616 10.417 
178 1 8.754 12.366 10.741 
185 1 8.755 14.858 10.713 
189 1 13.616 10.417 9.415 
190 1 12.367 10.741 8.754 
197 1 14.859 10.713 8.755 
ITEM: TIMESTEP
10
ITEM: NUMBER OF ATOMS
203
ITEM: BOX BOUNDS pp pp pp
0.0000000000000000e+00 1.6114000000000001e+01
0.0000000000000000e+00 1.6113000000000000e+01
0.0000000000000000e+00 1.6111999999999998e+01
ITEM: ATOMS id type x y z 
5 1 5.38454 5.38345 5.38168 
65 1 5.65925 6.66151 2.4603 
66 1 5.33742 7.32377 3.70987 
68 1 4.86679 6.60718 4.86478 
79 1 5.36298 7.3222 1.21862 
89 1 6.66175 2.46019 5.65878 
90 1 7.32338 3.71021 5.33697 
92 1 6.60759 4.86554 4.86542 
101 1 7.32222 1.2183 5.36307 
109 1 2.47065 5.65827 6.64962 
110 1 3.71629 5.33758 7.32047 
112 1 4.86941 4.86428 6.60479 
121 1 1.22217 5.35892 7.3041 
129 1 6.66138 5.65921 2.46033 
130 1 7.32325 5.33703 3.71014 
137 1 7.32214 5.36298 1.2187 
141 1 2.46203 6.66404 5.65244 
142 1 3.71427 7.32588 5.33593 
149 1 1.21923 7.32518 5.36154 
153 1 5.65933 2.45931 6.66085 
154 1 5.33824 3.70917 7.32269 
161 1 5.36289 1.21798 7.32231 
7 1 6.66128 5.65961 13.6163 
8 1 7.32326 5.33669 12.3665 
10 1 6.6074 4.86574 11.2117 
21 1 7.32213 5.36302 14.8578 
32 1 1.20028 7.31771 10.7123 
40 1 2.45992 6.66865 10.4268 
41 1 3.70829 7.32465 10.7422 
43 1 4.86666 6.60645 11.2125 
47 1 5.36311 1.21802 8.75504 
55 1 5.65949 2.45955 9.41599 
56 1 5.33787 3.70878 8.75355 
58 1 4.87068 4.86442 9.4718 
64 1 5.62849 6.64244 16.0942 
75 1 5.38424 5.38554 10.6964 
118 1 6.64227 5.62852 16.0942 
168 1 5.65956 6.66166 13.6163 
169 1 5.33671 7.32318 12.3658 
176 1 5.36307 7.32229 14.8577 
182 1 7.32209 1.21853 10.7138 
186 1 6.66215 2.46055 10.4181 
187 1 7.32332 3.71048 10.7403 
191 1 1.26205 5.40649 8.72149 
195 1 2.47844 5.66138 9.43059 
196 1 3.72193 5.33677 8.75181 
203 3 0.0271662 2.63417 8.70856 
9 1 7.32218 10.7137 1.21896 
19 1 6.66191 10.4177 2.46095 
20 1 7.32309 10.7405 3.71093 
22 1 6.60669 11.2112 4.86596 
27 1 1.21832 8.75625 5.36248 
35 1 2.4607 9.41658 5.65983 
36 1 3.71059 8.75624 5.33673 
38 1 4.86644 9.47153 4.86546 
44 1 6.64275 16.0946 5.62913 
50 1 5.65957 13.6159 6.66187 
51 1 5.33635 12.366 7.32324 
53 1 4.86496 11.2113 6.60708 
62 1 5.3633 14.8578 7.32221 
76 1 5.62854 16.0945 6.64263 
81 1 5.38391 10.6938 5.38404 
167 1 5.36318 8.7551 1.21898 
171 1 5.65952 9.41562 2.46076 
172 1 5.3368 8.75476 3.71075 
180 1 6.66168 13.6161 5.65964 
181 1 7.32303 12.3662 5.33656 
188 1 7.32221 14.858 5.36347 
194 1 1.21858 10.7136 7.32198 
198 1 2.46015 10.4182 6.6623 
199 1 3.71072 10.7409 7.32342 
17 1 5.38395 10.6938 10.6925 
39 1 6.64278 16.0947 10.4483 
49 1 5.62858 9.43452 16.0944 
73 1 5.36335 8.75519 14.8578 
82 1 5.62875 16.0946 9.43454 
83 1 5.65944 9.41508 13.6156 
84 1 5.33629 8.75417 12.3661 
86 1 4.86464 9.47031 11.2109 
91 1 7.32214 14.8581 10.7135 
99 1 6.66187 13.616 10.4173 
100 1 7.32313 12.3662 10.7405 
102 1 6.60628 11.211 11.2109 
113 1 6.64261 10.4484 16.0943 
114 1 2.46093 10.4178 9.41427 
115 1 3.70925 10.7405 8.75442 
117 1 4.86561 11.2113 9.47076 
126 1 1.21797 10.7137 8.75564 
131 1 7.32206 10.7137 14.8577 
135 1 6.66188 10.4175 13.6157 
136 1 7.32315 10.7406 12.3661 
144 1 2.45726 9.41455 10.4184 
145 1 3.71043 8.75628 10.7412 
152 1 1.21835 8.75718 10.712 
158 1 5.36344 14.8578 8.75501 
162 1 5.65964 13.6158 9.41514 
163 1 5.33624 12.3658 8.75414 
3 1 8.75482 5.36295 1.21872 
13 1 9.41561 5.65919 2.46034 
14 1 8.75372 5.33702 3.71015 
16 1 9.46938 4.86553 4.8654 
24 1 16.096 5.62781 6.62752 
30 1 13.6148 6.66411 5.65231 
31 1 12.3629 7.32584 5.33597 
33 1 11.2101 6.60712 4.86479 
42 1 14.8575 7.32507 5.36138 
52 1 10.7141 1.21795 7.32231 
60 1 10.4177 2.45929 6.66085 
61 1 10.7388 3.70908 7.32271 
63 1 11.2077 4.86432 6.60488 
87 1 10.6924 5.38349 5.38156 
98 1 16.0955 6.64314 5.6221 
170 1 10.7141 7.32233 1.2187 
174 1 10.4177 6.66148 2.46033 
175 1 10.7395 7.32381 3.70989 
179 1 8.75478 1.2183 5.36307 
183 1 9.41523 2.46019 5.65877 
184 1 8.75361 3.7102 5.33697 
192 1 13.6053 5.65845 6.64897 
193 1 12.3607 5.33756 7.32079 
200 1 14.8546 5.36083 7.3033 
6 1 16.0969 5.51276 9.48879 
23 1 10.6928 5.38553 10.6964 
59 1 10.4485 6.64242 16.0944 
67 1 10.7139 7.32216 14.8578 
77 1 10.4175 6.66164 13.6164 
78 1 10.7403 7.32311 12.3658 
80 1 11.2103 6.60651 11.2125 
93 1 16.0959 6.64762 10.4427 
94 1 9.41485 2.46054 10.4182 
95 1 8.75366 3.71048 10.7403 
97 1 9.46955 4.86571 11.2117 
106 1 8.7549 1.21852 10.7138 
116 1 14.8155 5.41186 8.72194 
123 1 9.43472 5.62851 16.0943 
124 1 13.5976 5.66223 9.43119 
125 1 12.3547 5.33674 8.75164 
127 1 11.2065 4.86446 9.47171 
134 1 8.75488 5.36303 14.8579 
138 1 9.41572 5.6596 13.6163 
139 1 8.75371 5.3367 12.3665 
143 1 14.8767 7.31762 10.7119 
147 1 13.6171 6.66903 10.4273 
148 1 12.3689 7.32464 10.7421 
156 1 10.4175 2.45948 9.41604 
157 1 10.7392 3.70883 8.7536 
164 1 10.7139 1.21802 8.75504 
201 2 16.1015 4.28316 9.52086 
202 2 15.3512 3.16715 8.67123 
11 1 10.6931 10.6938 5.38409 
18 1 16.0956 10.4492 6.64323 
29 1 9.43425 16.0946 5.62914 
70 1 10.4485 16.0945 6.64263 
71 1 10.4175 9.41562 2.46069 
72 1 10.7402 8.7548 3.71067 
74 1 11.2105 9.47154 4.86541 
85 1 10.7138 8.75523 1.2189 
96 1 8.75479 14.858 5.36347 
103 1 16.0954 9.43532 5.62935 
104 1 9.41532 13.6161 5.65964 
105 1 8.75395 12.3662 5.33656 
107 1 9.47031 11.2112 4.86597 
111 1 14.8585 10.7135 7.32206 
119 1 13.617 10.4183 6.66242 
120 1 12.3663 10.7409 7.32343 
122 1 11.2121 11.2113 6.60708 
132 1 9.4151 10.4177 2.46095 
133 1 8.75391 10.7405 3.71091 
140 1 8.75483 10.7137 1.21895 
146 1 14.8586 8.75641 5.3624 
150 1 13.6162 9.41668 5.65985 
151 1 12.3664 8.75633 5.33675 
155 1 10.7137 14.8578 7.32221 
159 1 10.4174 13.6159 6.66186 
160 1 10.7406 12.366 7.32324 
1 1 9.41511 10.4175 13.6157 
2 1 8.75383 10.7406 12.3661 
4 1 9.47069 11.211 11.2109 
12 1 16.0956 10.4494 9.43233 
15 1 8.7549 10.7137 14.8577 
25 1 13.6199 9.41442 10.4184 
26 1 12.3666 8.75636 10.7411 
28 1 11.2124 9.47032 11.2109 
34 1 9.43422 16.0947 10.4483 
37 1 14.8589 8.75708 10.7119 
45 1 10.4174 13.6158 9.41514 
46 1 10.7408 12.3658 8.75414 
48 1 11.2114 11.2113 9.47073 
54 1 10.4484 9.43454 16.0942 
57 1 10.7136 14.8578 8.755 
69 1 10.693 10.6939 10.6925 
88 1 10.4482 16.0946 9.43455 
108 1 16.0956 9.43395 10.4503 
128 1 9.43439 10.4484 16.0943 
165 1 10.4175 9.41511 13.6155 
166 1 10.7407 8.75413 12.3661 
173 1 10.7137 8.75505 14.8577 
177 1 9.41513 13.616 10.4173 
178 1 8.75385 12.3662 10.7405 
185 1 8.75486 14.8581 10.7135 
189 1 13.6162 10.4178 9.4142 
190 1 12.3678 10.7405 8.75446 
197 1 14.8591 10.7136 8.75564 
ITEM: TIMESTEP
12
ITEM: NUMBER OF ATOMS
203
ITEM: BOX BOUNDS pp pp pp
0.0000000000000000e+00 1.6114000000000001e+01
0.0000000000000000e+00 1.6113000000000000e+01
0.0000000000000000e+00 1.6111999999999998e+01
ITEM: ATOMS id type x y z 
5 1 5.38582 5.38383 5.38012 
65 1 5.65969 6.66137 2.46022 
66 1 5.33789 7.32432 3.70901 
68 1 4.86905 6.60569 4.86428 
79 1 5.36317 7.32247 1.21842 
89 1 6.66238 2.46052 5.6586 
90 1 7.32354 3.70987 5.33683 
92 1 6.60788 4.86573 4.86482 
101 1 7.32167 1.21838 5.36321 
109 1 2.47745 5.65759 6.64348 
110 1 3.71692 5.33766 7.32236 
112 1 4.86976 4.86497 6.60408 
121 1 1.2203 5.3588 7.30226 
129 1 6.66233 5.65911 2.46063 
130 1 7.32409 5.33689 3.7096 
137 1 7.32212 5.36348 1.21878 
141 1 2.46353 6.66468 5.65048 
142 1 3.71376 7.32581 5.3362 
149 1 1.22077 7.32489 5.35962 
153 1 5.65949 2.45886 6.66073 
154 1 5.33885 3.70767 7.32318 
161 1 5.36311 1.21752 7.32255 
7 1 6.66196 5.65913 13.6167 
8 1 7.32374 5.33701 12.3673 
10 1 6.60796 4.86586 11.2123 
21 1 7.32254 5.36336 14.8585 
32 1 1.19807 7.31274 10.7081 
40 1 2.45424 6.67262 10.4329 
41 1 3.7099 7.32519 10.7429 
43 1 4.86691 6.60672 11.2126 
47 1 5.36313 1.21778 8.75438 
55 1 5.65959 2.45862 9.41618 
56 1 5.33928 3.7067 8.75233 
58 1 4.87195 4.86467 9.47208 
64 1 5.62896 6.64241 16.0942 
75 1 5.38513 5.38471 10.6973 
118 1 6.64283 5.62876 16.0943 
168 1 5.65937 6.66179 13.6167 
169 1 5.33764 7.32402 12.3673 
176 1 5.36317 7.32264 14.8584 
182 1 7.32211 1.21821 10.7139 
186 1 6.6619 2.46018 10.4181 
187 1 7.32329 3.70999 10.74 
191 1 1.26797 5.41512 8.7186 
195 1 2.48012 5.66 9.427 
196 1 3.72614 5.33788 8.7489 
203 3 0.0291804 2.63646 8.71012 
9 1 7.32205 10.7136 1.21891 
19 1 6.66251 10.4179 2.46129 
20 1 7.32345 10.7407 3.71094 
22 1 6.60668 11.2113 4.86604 
27 1 1.21789 8.75812 5.36149 
35 1 2.46104 9.41737 5.65918 
36 1 3.7113 8.75677 5.33686 
38 1 4.86757 9.47307 4.86572 
44 1 6.64292 16.0943 5.62931 
50 1 5.65994 13.6157 6.66223 
51 1 5.33641 12.3667 7.32364 
53 1 4.86578 11.2115 6.60646 
62 1 5.36364 14.8572 7.32231 
76 1 5.62874 16.0946 6.64284 
81 1 5.38462 10.6948 5.38469 
167 1 5.36334 8.75467 1.21862 
171 1 5.65964 9.41576 2.46047 
172 1 5.33733 8.75364 3.70977 
180 1 6.6618 13.6158 5.66011 
181 1 7.3235 12.3664 5.33643 
188 1 7.32209 14.8578 5.36382 
194 1 1.2185 10.7146 7.32242 
198 1 2.46137 10.4193 6.66247 
199 1 3.7114 10.7411 7.3235 
17 1 5.38439 10.6939 10.6924 
39 1 6.6429 16.0943 10.4482 
49 1 5.62892 9.43457 16.0945 
73 1 5.36348 8.75482 14.858 
82 1 5.6288 16.0942 9.43438 
83 1 5.65992 9.4156 13.616 
84 1 5.33655 8.75416 12.3664 
86 1 4.86675 9.47264 11.211 
91 1 7.3222 14.8574 10.7132 
99 1 6.66216 13.6157 10.4169 
100 1 7.32342 12.3661 10.7408 
102 1 6.60677 11.2114 11.211 
113 1 6.64287 10.4482 16.094 
114 1 2.46043 10.4178 9.41519 
115 1 3.71108 10.741 8.75427 
117 1 4.86611 11.2116 9.47106 
126 1 1.21915 10.7148 8.75507 
131 1 7.3222 10.7133 14.8575 
135 1 6.66257 10.4175 13.6157 
136 1 7.32335 10.7409 12.3658 
144 1 2.46076 9.41747 10.4175 
145 1 3.70979 8.7574 10.7407 
152 1 1.21596 8.75152 10.7144 
158 1 5.36377 14.8572 8.75486 
162 1 5.66018 13.6157 9.41503 
163 1 5.33626 12.3662 8.75385 
3 1 8.75477 5.36342 1.2187 
13 1 9.41466 5.65906 2.46071 
14 1 8.75282 5.3369 3.70957 
16 1 9.46916 4.86579 4.86479 
24 1 16.0936 5.62677 6.62314 
30 1 13.6146 6.66388 5.65074 
31 1 12.3624 7.32633 5.33606 
33 1 11.2076 6.6055 4.86421 
42 1 14.8569 7.32581 5.35979 
52 1 10.7139 1.21748 7.32251 
60 1 10.4175 2.45883 6.66073 
61 1 10.7381 3.70775 7.32317 
63 1 11.2063 4.86456 6.60354 
87 1 10.6913 5.38374 5.38034 
98 1 16.0945 6.64075 5.62173 
170 1 10.7138 7.32241 1.21848 
174 1 10.4174 6.66149 2.46012 
175 1 10.739 7.3244 3.70898 
179 1 8.7553 1.21839 5.36319 
183 1 9.41458 2.4605 5.65856 
184 1 8.75336 3.70978 5.33687 
192 1 13.6022 5.65715 6.64511 
193 1 12.361 5.33804 7.32177 
200 1 14.8551 5.36303 7.30588 
6 1 16.0924 5.48963 9.49587 
23 1 10.6917 5.38503 10.6977 
59 1 10.448 6.6424 16.0946 
67 1 10.7138 7.32268 14.8584 
77 1 10.4175 6.66169 13.6167 
78 1 10.7394 7.32401 12.3673 
80 1 11.2102 6.60676 11.2125 
93 1 16.0956 6.65001 10.4438 
94 1 9.41516 2.46014 10.4181 
95 1 8.7537 3.71011 10.74 
97 1 9.46925 4.86594 11.2122 
106 1 8.75486 1.21817 10.7139 
116 1 14.8112 5.4214 8.71808 
123 1 9.43418 5.62879 16.0943 
124 1 13.6001 5.65964 9.42412 
125 1 12.3521 5.33817 8.75007 
127 1 11.205 4.86476 9.47234 
134 1 8.75456 5.36341 14.8585 
138 1 9.41515 5.65928 13.6168 
139 1 8.75328 5.33703 12.3673 
143 1 14.8802 7.31262 10.708 
147 1 13.6228 6.67204 10.4331 
148 1 12.366 7.32581 10.7433 
156 1 10.4174 2.45872 9.41618 
157 1 10.7376 3.70633 8.7522 
164 1 10.7139 1.21783 8.75438 
201 2 16.1003 4.28325 9.54604 
202 2 15.3479 3.16219 8.66975 
11 1 10.6923 10.6947 5.3846 
18 1 16.0959 10.4495 6.64204 
29 1 9.43406 16.0943 5.62928 
70 1 10.4483 16.0946 6.64285 
71 1 10.4173 9.41589 2.46058 
72 1 10.7397 8.75369 3.70976 
74 1 11.2094 9.47313 4.86569 
85 1 10.7137 8.75466 1.21845 
96 1 8.75491 14.8578 5.36382 
103 1 16.0951 9.43593 5.62873 
104 1 9.41519 13.6158 5.66009 
105 1 8.75349 12.3664 5.33643 
107 1 9.4704 11.2113 4.86613 
111 1 14.8587 10.7147 7.32232 
119 1 13.6153 10.4192 6.66233 
120 1 12.3657 10.7411 7.32354 
122 1 11.2113 11.2115 6.60648 
132 1 9.4145 10.4179 2.46115 
133 1 8.75349 10.7407 3.71092 
140 1 8.75503 10.7135 1.21892 
146 1 14.8589 8.75716 5.36159 
150 1 13.6163 9.4172 5.65909 
151 1 12.3656 8.75721 5.33685 
155 1 10.7134 14.8572 7.32235 
159 1 10.4171 13.6156 6.66225 
160 1 10.7406 12.3667 7.32372 
1 1 9.41437 10.4175 13.6155 
2 1 8.75377 10.7409 12.3658 
4 1 9.47021 11.2113 11.211 
12 1 16.0957 10.4492 9.43444 
15 1 8.75478 10.7133 14.8574 
25 1 13.6157 9.41749 10.4173 
26 1 12.3673 8.75742 10.7408 
28 1 11.2103 9.4725 11.2111 
34 1 9.43409 16.0943 10.4483 
37 1 14.861 8.75159 10.7145 
45 1 10.4168 13.6157 9.41505 
46 1 10.7408 12.3661 8.75388 
48 1 11.2109 11.2116 9.47112 
54 1 10.4481 9.43453 16.094 
57 1 10.7132 14.8572 8.75485 
69 1 10.6927 10.6939 10.6923 
88 1 10.4482 16.0941 9.43441 
108 1 16.0961 9.43886 10.4488 
128 1 9.43415 10.4481 16.094 
165 1 10.4172 9.4154 13.6159 
166 1 10.7406 8.75418 12.3662 
173 1 10.7134 8.75485 14.8579 
177 1 9.4148 13.6156 10.4169 
178 1 8.75365 12.3661 10.7408 
185 1 8.75481 14.8574 10.7131 
189 1 13.6166 10.4175 9.41545 
190 1 12.3659 10.741 8.7543 
197 1 14.858 10.7147 8.75555 
ITEM: TIMESTEP
20
ITEM: NUMBER OF ATOMS
203
ITEM: BOX BOUNDS pp pp pp
0.0000000000000000e+00 1.6114000000000001e+01
0.0000000000000000e+00 1.6113000000000000e+01
0.0000000000000000e+00 1.6111999999999998e+01
ITEM: ATOMS id type x y z 
5 1 5.38581 5.38275 5.38196 
65 1 5.65961 6.66148 2.45946 
66 1 5.33879 7.32423 3.70888 
68 1 4.86846 6.60826 4.86509 
79 1 5.36266 7.32248 1.21831 
89 1 6.66138 2.45984 5.65909 
90 1 7.32309 3.70993 5.33675 
92 1 6.60879 4.86496 4.86442 
101 1 7.32197 1.21822 5.36264 
109 1 2.47875 5.65559 6.63807 
110 1 3.7174 5.3379 7.32246 
112 1 4.86923 4.86504 6.60613 
121 1 1.22478 5.37784 7.30364 
129 1 6.66154 5.65906 2.4601 
130 1 7.32332 5.33684 3.70987 
137 1 7.32219 5.36267 1.2187 
141 1 2.46337 6.66637 5.64768 
142 1 3.71428 7.3268 5.33495 
149 1 1.22113 7.32507 5.36095 
153 1 5.65969 2.45853 6.66073 
154 1 5.33857 3.70885 7.32276 
161 1 5.36297 1.21803 7.32225 
7 1 6.66085 5.66 13.6169 
8 1 7.32312 5.33666 12.3667 
10 1 6.60779 4.8658 11.2125 
21 1 7.32231 5.3629 14.8581 
32 1 1.18702 7.30349 10.6921 
40 1 2.45833 6.66593 10.4281 
41 1 3.70457 7.3258 10.7472 
43 1 4.86412 6.6081 11.2119 
47 1 5.36319 1.21788 8.75505 
55 1 5.66001 2.45865 9.41549 
56 1 5.33997 3.708 8.75399 
58 1 4.87322 4.86553 9.46926 
64 1 5.62847 6.64268 16.094 
75 1 5.38492 5.38726 10.6972 
118 1 6.6423 5.62849 16.0942 
168 1 5.65966 6.66232 13.6162 
169 1 5.3365 7.32331 12.3649 
176 1 5.36295 7.32261 14.8572 
182 1 7.32191 1.218 10.7143 
186 1 6.66177 2.46019 10.418 
187 1 7.32311 3.71073 10.7404 
191 1 1.25076 5.43933 8.71802 
195 1 2.4824 5.6766 9.41166 
196 1 3.72981 5.34371 8.74892 
203 3 0.0386136 2.64324 8.71546 
9 1 7.32234 10.7138 1.21885 
19 1 6.66237 10.418 2.46065 
20 1 7.32335 10.7403 3.71075 
22 1 6.60695 11.2111 4.86595 
27 1 1.21779 8.75606 5.36214 
35 1 2.4607 9.41764 5.66007 
36 1 3.71081 8.75681 5.3373 
38 1 4.86808 9.47343 4.86534 
44 1 6.64243 16.0945 5.62902 
50 1 5.65956 13.6157 6.66203 
51 1 5.33645 12.3661 7.32385 
53 1 4.86495 11.2109 6.60764 
62 1 5.36309 14.8576 7.32246 
76 1 5.62858 16.0944 6.6427 
81 1 5.38479 10.6953 5.38497 
167 1 5.36317 8.75516 1.21846 
171 1 5.65958 9.41616 2.46009 
172 1 5.33778 8.75469 3.70955 
180 1 6.66144 13.6161 5.65983 
181 1 7.32308 12.3662 5.33679 
188 1 7.32199 14.8579 5.36328 
194 1 1.21843 10.7135 7.32239 
198 1 2.45967 10.419 6.66326 
199 1 3.71049 10.7409 7.32509 
17 1 5.38413 10.6934 10.692 
39 1 6.64283 16.0946 10.4481 
49 1 5.62875 9.43442 16.0938 
73 1 5.3636 8.75526 14.8572 
82 1 5.62889 16.0941 9.43462 
83 1 5.65964 9.41485 13.6149 
84 1 5.33557 8.75422 12.3657 
86 1 4.86246 9.47002 11.2101 
91 1 7.32191 14.8581 10.7136 
99 1 6.66211 13.6155 10.4173 
100 1 7.32326 12.3656 10.7406 
102 1 6.60615 11.2108 11.2105 
113 1 6.64296 10.4483 16.0942 
114 1 2.46011 10.415 9.41434 
115 1 3.70666 10.7397 8.75666 
117 1 4.86495 11.2106 9.47092 
126 1 1.21913 10.7134 8.75662 
131 1 7.32201 10.7134 14.8572 
135 1 6.66205 10.417 13.6156 
136 1 7.3229 10.7405 12.3658 
144 1 2.45401 9.41167 10.4179 
145 1 3.70786 8.75544 10.7427 
152 1 1.2156 8.74623 10.7075 
158 1 5.36341 14.8574 8.75507 
162 1 5.65964 13.6155 9.41506 
163 1 5.33587 12.3651 8.75453 
3 1 8.75483 5.36269 1.21879 
13 1 9.41552 5.65916 2.45995 
14 1 8.75347 5.33695 3.7097 
16 1 9.46866 4.86514 4.86465 
24 1 16.095 5.62428 6.62291 
30 1 13.6142 6.66423 5.64847 
31 1 12.3614 7.32686 5.33476 
33 1 11.2076 6.60752 4.86489 
42 1 14.8568 7.32562 5.36073 
52 1 10.7141 1.21773 7.32226 
60 1 10.4173 2.45844 6.6606 
61 1 10.738 3.70804 7.32304 
63 1 11.2063 4.86485 6.60491 
87 1 10.6911 5.38334 5.38129 
98 1 16.0957 6.64205 5.62024 
170 1 10.7143 7.32245 1.21844 
174 1 10.4173 6.66148 2.45948 
175 1 10.7381 7.32419 3.70896 
179 1 8.75516 1.21818 5.3627 
183 1 9.41554 2.45969 5.65904 
184 1 8.75375 3.70974 5.33685 
192 1 13.6003 5.65631 6.64017 
193 1 12.3618 5.33886 7.32177 
200 1 14.851 5.38411 7.31216 
6 1 16.0904 5.44982 9.50563 
23 1 10.6919 5.38798 10.698 
59 1 10.4486 6.64264 16.0942 
67 1 10.7141 7.32256 14.857 
77 1 10.4173 6.66231 13.616 
78 1 10.7406 7.32284 12.3647 
80 1 11.212 6.60773 11.2124 
93 1 16.0971 6.62119 10.418 
94 1 9.41518 2.46015 10.418 
95 1 8.75404 3.71084 10.7405 
97 1 9.46936 4.86584 11.2124 
106 1 8.75522 1.21799 10.7142 
116 1 14.8292 5.44904 8.71836 
123 1 9.43464 5.62842 16.0943 
124 1 13.6022 5.67514 9.40638 
125 1 12.3485 5.34365 8.74959 
127 1 11.2039 4.86586 9.46978 
134 1 8.75472 5.36291 14.858 
138 1 9.41626 5.6601 13.6169 
139 1 8.75401 5.33662 12.3666 
143 1 14.8924 7.30393 10.6934 
147 1 13.6184 6.66472 10.4291 
148 1 12.3699 7.32737 10.748 
156 1 10.417 2.45847 9.41564 
157 1 10.737 3.70742 8.75372 
164 1 10.7138 1.21764 8.7552 
201 2 16.1005 4.29922 9.65051 
202 2 15.3334 3.13811 8.6634 
11 1 10.6923 10.6951 5.38486 
18 1 16.0957 10.4488 6.64337 
29 1 9.43468 16.0946 5.62919 
70 1 10.4483 16.0942 6.64274 
71 1 10.4174 9.41617 2.46016 
72 1 10.7393 8.75489 3.70965 
74 1 11.2086 9.47353 4.86505 
85 1 10.7139 8.75514 1.21863 
96 1 8.75504 14.858 5.36328 
103 1 16.0954 9.43552 5.62967 
104 1 9.4155 13.6161 5.65979 
105 1 8.75398 12.3662 5.33676 
107 1 9.46994 11.2112 4.86592 
111 1 14.8587 10.7135 7.32235 
119 1 13.6172 10.4189 6.6631 
120 1 12.3665 10.7409 7.32515 
122 1 11.2121 11.2109 6.60771 
132 1 9.41467 10.418 2.46068 
133 1 8.7537 10.7403 3.71078 
140 1 8.75462 10.7138 1.2189 
146 1 14.8591 8.75627 5.36217 
150 1 13.6167 9.41771 5.66009 
151 1 12.366 8.75809 5.3373 
155 1 10.7138 14.8578 7.3225 
159 1 10.4175 13.6159 6.66206 
160 1 10.7406 12.366 7.3239 
1 1 9.41501 10.417 13.6155 
2 1 8.75402 10.7405 12.3657 
4 1 9.47075 11.2108 11.2105 
12 1 16.0957 10.451 9.42972 
15 1 8.75479 10.7135 14.8572 
25 1 13.6219 9.4119 10.4178 
26 1 12.3688 8.75648 10.743 
28 1 11.2153 9.46953 11.2098 
34 1 9.4343 16.0946 10.4479 
37 1 14.8619 8.74807 10.7076 
45 1 10.4174 13.6156 9.415 
46 1 10.7411 12.3651 8.75453 
48 1 11.2121 11.2107 9.47081 
54 1 10.4484 9.43443 16.0936 
57 1 10.7135 14.8576 8.75505 
69 1 10.6929 10.6933 10.6921 
88 1 10.448 16.0941 9.43453 
108 1 16.0961 9.4363 10.4518 
128 1 9.434 10.4484 16.0942 
165 1 10.4174 9.41477 13.6149 
166 1 10.7416 8.75413 12.3654 
173 1 10.7134 8.75522 14.857 
177 1 9.4149 13.6155 10.4173 
178 1 8.75371 12.3656 10.7406 
185 1 8.75514 14.8582 10.7136 
189 1 13.6169 10.4149 9.41416 
190 1 12.3707 10.7396 8.75681 
197 1 14.8577 10.7133 8.75695 
ITEM: TIMESTEP
30
ITEM: NUMBER OF ATOMS
203
ITEM: BOX BOUNDS pp pp pp
0.0000000000000000e+00 1.6114000000000001e+01
0.0000000000000000e+00 1.6113000000000000e+01
0.0000000000000000e+00 1.6111999999999998e+01
ITEM: ATOMS id type x y z 
5 1 5.38625 5.38412 5.38094 
65 1 5.6596 6.66182 2.45945 
66 1 5.33952 7.32467 3.70903 
68 1 4.87037 6.60837 4.86481 
79 1 5.3625 7.32255 1.21818 
89 1 6.66196 2.45951 5.65832 
90 1 7.32332 3.70916 5.33686 
92 1 6.60846 4.86489 4.86459 
101 1 7.32198 1.21783 5.36247 
109 1 2.47783 5.65751 6.63863 
110 1 3.71672 5.33992 7.31699 
112 1 4.87425 4.86307 6.60365 
121 1 1.22496 5.38288 7.3066 
129 1 6.66104 5.65912 2.45969 
130 1 7.32345 5.33701 3.70926 
137 1 7.32209 5.36232 1.21842 
141 1 2.46467 6.66325 5.64585 
142 1 3.71798 7.32894 5.33363 
149 1 1.22046 7.32701 5.35899 
153 1 5.65924 2.45875 6.66102 
154 1 5.33976 3.7083 7.32274 
161 1 5.36273 1.217 7.3224 
7 1 6.66092 5.65977 13.6169 
8 1 7.32291 5.33677 12.3671 
10 1 6.60759 4.86571 11.2121 
21 1 7.32204 5.36267 14.858 
32 1 1.19103 7.30289 10.6875 
40 1 2.45813 6.66566 10.4277 
41 1 3.70303 7.32404 10.7496 
43 1 4.86406 6.60822 11.2125 
47 1 5.36313 1.21744 8.75504 
55 1 5.66043 2.45841 9.41609 
56 1 5.34043 3.70857 8.75347 
58 1 4.87396 4.86749 9.46938 
64 1 5.62838 6.64275 16.0938 
75 1 5.38524 5.38663 10.696 
118 1 6.64186 5.62856 16.0943 
168 1 5.65946 6.66238 13.6157 
169 1 5.33697 7.32338 12.3653 
176 1 5.36268 7.32254 14.8576 
182 1 7.32219 1.21799 10.7144 
186 1 6.66215 2.46012 10.4183 
187 1 7.32322 3.71052 10.7404 
191 1 1.25169 5.43463 8.71595 
195 1 2.47463 5.6792 9.40436 
196 1 3.73104 5.34685 8.74825 
203 3 0.0427454 2.64715 8.71786 
9 1 7.32195 10.7141 1.21877 
19 1 6.66209 10.418 2.4608 
20 1 7.32316 10.7403 3.71088 
22 1 6.60705 11.2113 4.86616 
27 1 1.21881 8.75711 5.36222 
35 1 2.46129 9.41759 5.66024 
36 1 3.71187 8.75896 5.33669 
38 1 4.86795 9.47332 4.86495 
44 1 6.64252 16.0943 5.62886 
50 1 5.65958 13.6156 6.66223 
51 1 5.33626 12.3658 7.32386 
53 1 4.86473 11.2108 6.60838 
62 1 5.36306 14.8574 7.32242 
76 1 5.62857 16.0941 6.64276 
81 1 5.38461 10.6949 5.38513 
167 1 5.36315 8.75541 1.21854 
171 1 5.65946 9.41612 2.46007 
172 1 5.33765 8.75552 3.71021 
180 1 6.66154 13.6162 5.65992 
181 1 7.3231 12.3664 5.33689 
188 1 7.32205 14.8578 5.36335 
194 1 1.21835 10.7137 7.3233 
198 1 2.46036 10.4188 6.6631 
199 1 3.7103 10.7409 7.32578 
17 1 5.38345 10.6921 10.6927 
39 1 6.64291 16.0944 10.4482 
49 1 5.62871 9.4346 16.0939 
73 1 5.36336 8.75537 14.8568 
82 1 5.62893 16.0937 9.43469 
83 1 5.65949 9.41516 13.615 
84 1 5.33508 8.75492 12.3644 
86 1 4.86224 9.47058 11.2105 
91 1 7.32216 14.8577 10.7135 
99 1 6.66207 13.6157 10.4171 
100 1 7.32295 12.3655 10.7404 
102 1 6.60632 11.2107 11.2103 
113 1 6.64277 10.4483 16.0941 
114 1 2.45854 10.4126 9.4168 
115 1 3.70809 10.7396 8.75588 
117 1 4.86392 11.2104 9.47041 
126 1 1.21866 10.7136 8.7552 
131 1 7.32193 10.7136 14.8573 
135 1 6.66166 10.4169 13.6153 
136 1 7.32268 10.7404 12.3652 
144 1 2.45201 9.4089 10.4173 
145 1 3.7047 8.757 10.7435 
152 1 1.21156 8.74608 10.7029 
158 1 5.36342 14.8571 8.75516 
162 1 5.65981 13.6154 9.41532 
163 1 5.33573 12.3652 8.75462 
3 1 8.75475 5.36224 1.21836 
13 1 9.41592 5.659 2.45968 
14 1 8.7534 5.337 3.70937 
16 1 9.4684 4.86489 4.8645 
24 1 16.0938 5.62751 6.61952 
30 1 13.6121 6.66421 5.64479 
31 1 12.3593 7.32867 5.33358 
33 1 11.2068 6.60866 4.8649 
42 1 14.8563 7.32675 5.35917 
52 1 10.7144 1.21731 7.3224 
60 1 10.4176 2.45837 6.66077 
61 1 10.7372 3.70847 7.32297 
63 1 11.2038 4.86373 6.60421 
87 1 10.6908 5.3838 5.38131 
98 1 16.0956 6.64241 5.6153 
170 1 10.7146 7.32258 1.21816 
174 1 10.4174 6.66173 2.45941 
175 1 10.7374 7.32467 3.70916 
179 1 8.75484 1.2177 5.36239 
183 1 9.41539 2.45937 5.65851 
184 1 8.75338 3.70932 5.33686 
192 1 13.6006 5.65802 6.64027 
193 1 12.3591 5.33946 7.31715 
200 1 14.8536 5.39045 7.30813 
6 1 16.0969 5.44309 9.50499 
23 1 10.692 5.38661 10.6956 
59 1 10.4486 6.64254 16.0939 
67 1 10.7144 7.32245 14.8574 
77 1 10.4175 6.66217 13.616 
78 1 10.74 7.32338 12.3652 
80 1 11.2138 6.60846 11.2118 
93 1 16.0949 6.62584 10.4272 
94 1 9.4148 2.46014 10.4183 
95 1 8.75388 3.71057 10.7404 
97 1 9.4696 4.86576 11.212 
106 1 8.75484 1.21807 10.7144 
116 1 14.8255 5.44568 8.71584 
123 1 9.4351 5.62848 16.0943 
124 1 13.603 5.68198 9.40351 
125 1 12.3491 5.34709 8.74915 
127 1 11.2032 4.86681 9.46932 
134 1 8.7548 5.36259 14.8582 
138 1 9.41629 5.6598 13.6168 
139 1 8.75411 5.33671 12.3669 
143 1 14.8874 7.30335 10.6873 
147 1 13.6193 6.66497 10.4278 
148 1 12.373 7.32454 10.7504 
156 1 10.4169 2.45893 9.41584 
157 1 10.7372 3.70913 8.75427 
164 1 10.7139 1.21745 8.75524 
201 2 16.1014 4.30235 9.70953 
202 2 15.3268 3.12134 8.66017 
11 1 10.6924 10.6949 5.38504 
18 1 16.0955 10.4489 6.64333 
29 1 9.43448 16.0943 5.62881 
70 1 10.4484 16.0939 6.64259 
71 1 10.4176 9.41628 2.46005 
72 1 10.7393 8.7557 3.71033 
74 1 11.2088 9.47358 4.86492 
85 1 10.714 8.75544 1.21848 
96 1 8.75486 14.8578 5.36331 
103 1 16.0955 9.43555 5.62971 
104 1 9.41538 13.6161 5.65983 
105 1 8.75384 12.3664 5.3369 
107 1 9.46994 11.2114 4.86617 
111 1 14.8588 10.7137 7.32354 
119 1 13.6167 10.4187 6.66304 
120 1 12.3667 10.7409 7.32606 
122 1 11.2124 11.2107 6.60839 
132 1 9.41485 10.4181 2.46082 
133 1 8.75377 10.7403 3.7109 
140 1 8.75495 10.7142 1.21872 
146 1 14.858 8.75706 5.36228 
150 1 13.6159 9.41753 5.66026 
151 1 12.3652 8.75901 5.33678 
155 1 10.714 14.8575 7.3224 
159 1 10.4175 13.6156 6.66215 
160 1 10.7407 12.3657 7.32384 