LAMMPS (3 Mar 2020)
# Alpha
clear
units		real
dimension 3
boundary        p p p
atom_style	charge
newton on
read_data       OOH_3.lmp
  orthogonal box = (0 0 0) to (16.525 16.526 16.526)
  2 by 2 by 2 MPI processor grid
  reading atoms ...
  99 atoms
  read_data CPU = 0.0348306 secs

timestep 0.25

# ---------- Define Interatomic Potential ---------------------
pair_style      reax/c NULL checkqeq no
pair_coeff      * * ffield.reax C H O
WARNING: Changed valency_val to valency_boc for X (../reaxc_ffield.cpp:315)
fix             2 all qeq/reax 1 0.0 10.0 1.0e-6 reax/c

#------------ Equilibration of the system -------------------------
reset_timestep 0

dump 1 all custom 10 min.lammpstrj id type x y z

minimize 1.0e-8 1.0e-8 100000 100000
WARNING: Using 'neigh_modify every 1 delay 0 check yes' setting during minimization (../min.cpp:190)
Neighbor list info ...
  update every 1 steps, delay 0 steps, check yes
  max neighbors/atom: 2000, page size: 100000
  master list distance cutoff = 12
  ghost atom cutoff = 12
  binsize = 6, bins = 3 3 3
  2 neighbor lists, perpetual/occasional/extra = 2 0 0
  (1) pair reax/c, perpetual
      attributes: half, newton off, ghost
      pair build: half/bin/newtoff/ghost
      stencil: half/ghost/bin/3d/newtoff
      bin: standard
  (2) fix qeq/reax, perpetual, copy from (1)
      attributes: half, newton off, ghost
      pair build: copy
      stencil: none
      bin: none
Per MPI rank memory allocation (min/avg/max) = 21.13 | 21.24 | 21.35 Mbytes
Step Temp E_pair E_mol TotEng Press 
       0            0   -17314.048            0   -17314.048   -29654.802 
      38            0   -17359.964            0   -17359.964    5785.1661 
Loop time of 1.10841 on 8 procs for 38 steps with 99 atoms

99.3% CPU use with 8 MPI tasks x no OpenMP threads

Minimization stats:
  Stopping criterion = energy tolerance
  Energy initial, next-to-last, final = 
        -17314.0483828     -17359.9644044     -17359.9643999
  Force two-norm initial, final = 1047.96 169.834
  Force max component initial, final = 246.135 68.3062
  Final line search alpha, max atom move = 8.68437e-13 5.93196e-11
  Iterations, force evaluations = 38 332

MPI task timing breakdown:
Section |  min time  |  avg time  |  max time  |%varavg| %total
---------------------------------------------------------------
Pair    | 0.88541    | 0.89821    | 0.90652    |   0.6 | 81.04
Neigh   | 0          | 0          | 0          |   0.0 |  0.00
Comm    | 0.014787   | 0.023045   | 0.035737   |   3.8 |  2.08
Output  | 8.1773e-05 | 0.00010316 | 0.00016655 |   0.0 |  0.01
Modify  | 0.18402    | 0.18414    | 0.1843     |   0.0 | 16.61
Other   |            | 0.002913   |            |       |  0.26

Nlocal:    12.375 ave 15 max 12 min
Histogram: 7 0 0 0 0 0 0 0 0 1
Nghost:    731.875 ave 739 max 723 min
Histogram: 1 1 0 1 0 1 0 1 2 1
Neighs:    1672.88 ave 2037 max 1608 min
Histogram: 7 0 0 0 0 0 0 0 0 1

Total # of neighbors = 13383
Ave neighs/atom = 135.182
Neighbor list builds = 0
Dangerous builds = 0

###
min_style cg
minimize 1.0e-8 1.0e-8 100000 100000
WARNING: Using 'neigh_modify every 1 delay 0 check yes' setting during minimization (../min.cpp:190)
Per MPI rank memory allocation (min/avg/max) = 21.13 | 21.24 | 21.35 Mbytes
Step Temp E_pair E_mol TotEng Press 
      38            0   -17359.964            0   -17359.964    5785.1607 
      42            0   -17360.088            0   -17360.088    5643.2115 
Loop time of 0.26663 on 8 procs for 4 steps with 99 atoms

99.2% CPU use with 8 MPI tasks x no OpenMP threads

Minimization stats:
  Stopping criterion = linesearch alpha is zero
  Energy initial, next-to-last, final = 
        -17359.9644038     -17360.0876519     -17360.0876522
  Force two-norm initial, final = 169.834 178.197
  Force max component initial, final = 68.3062 52.1635
  Final line search alpha, max atom move = 2.22532e-13 1.1608e-11
  Iterations, force evaluations = 4 84

MPI task timing breakdown:
Section |  min time  |  avg time  |  max time  |%varavg| %total
---------------------------------------------------------------
Pair    | 0.22185    | 0.22423    | 0.22641    |   0.3 | 84.10
Neigh   | 0          | 0          | 0          |   0.0 |  0.00
Comm    | 0.0027242  | 0.0049039  | 0.0072982  |   1.7 |  1.84
Output  | 2.9455e-05 | 3.6567e-05 | 5.9491e-05 |   0.0 |  0.01
Modify  | 0.036752   | 0.036776   | 0.036804   |   0.0 | 13.79
Other   |            | 0.0006803  |            |       |  0.26

Nlocal:    12.375 ave 15 max 12 min
Histogram: 7 0 0 0 0 0 0 0 0 1
Nghost:    731.875 ave 739 max 723 min
Histogram: 1 1 0 1 0 1 0 1 2 1
Neighs:    1671.38 ave 2033 max 1607 min
Histogram: 7 0 0 0 0 0 0 0 0 1

Total # of neighbors = 13371
Ave neighs/atom = 135.061
Neighbor list builds = 0
Dangerous builds = 0

###
fix 1 all box/relax aniso 0.0
min_style cg
minimize 1.0e-8 1.0e-8 100000 100000
WARNING: Using 'neigh_modify every 1 delay 0 check yes' setting during minimization (../min.cpp:190)
Per MPI rank memory allocation (min/avg/max) = 21.13 | 21.24 | 21.35 Mbytes
Step Temp E_pair E_mol TotEng Press Volume 
      42            0   -17360.088            0   -17360.088    5643.2077    4513.1209 
      47            0   -17360.362            0   -17360.362   -657.92777    4514.8063 
Loop time of 0.122232 on 8 procs for 5 steps with 99 atoms

99.4% CPU use with 8 MPI tasks x no OpenMP threads

Minimization stats:
  Stopping criterion = energy tolerance
  Energy initial, next-to-last, final = 
        -17360.0876547     -17360.3615225     -17360.3615554
  Force two-norm initial, final = 670.89 277.238
  Force max component initial, final = 399.008 109.574
  Final line search alpha, max atom move = 4.45214e-10 4.87838e-08
  Iterations, force evaluations = 5 40

MPI task timing breakdown:
Section |  min time  |  avg time  |  max time  |%varavg| %total
---------------------------------------------------------------
Pair    | 0.10634    | 0.10792    | 0.10906    |   0.2 | 88.29
Neigh   | 0          | 0          | 0          |   0.0 |  0.00
Comm    | 0.0012104  | 0.0023595  | 0.0039427  |   1.5 |  1.93
Output  | 0          | 0          | 0          |   0.0 |  0.00
Modify  | 0.011086   | 0.011099   | 0.011115   |   0.0 |  9.08
Other   |            | 0.0008565  |            |       |  0.70

Nlocal:    12.375 ave 15 max 12 min
Histogram: 7 0 0 0 0 0 0 0 0 1
Nghost:    731.875 ave 739 max 723 min
Histogram: 1 1 0 1 0 1 0 1 2 1
Neighs:    1671.38 ave 2033 max 1607 min
Histogram: 7 0 0 0 0 0 0 0 0 1

Total # of neighbors = 13371
Ave neighs/atom = 135.061
Neighbor list builds = 0
Dangerous builds = 0

unfix 1
###
min_style cg
minimize 1.0e-8 1.0e-8 100000 100000
WARNING: Using 'neigh_modify every 1 delay 0 check yes' setting during minimization (../min.cpp:190)
Per MPI rank memory allocation (min/avg/max) = 21.13 | 21.24 | 21.35 Mbytes
Step Temp E_pair E_mol TotEng Press 
      47            0   -17360.362            0   -17360.362   -657.92658 
      48            0   -17360.362            0   -17360.362   -657.92848 
Loop time of 0.182119 on 8 procs for 1 steps with 99 atoms

99.5% CPU use with 8 MPI tasks x no OpenMP threads

Minimization stats:
  Stopping criterion = linesearch alpha is zero
  Energy initial, next-to-last, final = 
        -17360.3615545     -17360.3615545     -17360.3615556
  Force two-norm initial, final = 251.823 251.823
  Force max component initial, final = 65.3066 65.3066
  Final line search alpha, max atom move = 1.7826e-13 1.16415e-11
  Iterations, force evaluations = 1 59

MPI task timing breakdown:
Section |  min time  |  avg time  |  max time  |%varavg| %total
---------------------------------------------------------------
Pair    | 0.15566    | 0.15746    | 0.15888    |   0.2 | 86.46
Neigh   | 0          | 0          | 0          |   0.0 |  0.00
Comm    | 0.0018764  | 0.0033062  | 0.005104   |   1.6 |  1.82
Output  | 0          | 0          | 0          |   0.0 |  0.00
Modify  | 0.020856   | 0.020891   | 0.020917   |   0.0 | 11.47
Other   |            | 0.0004645  |            |       |  0.26

Nlocal:    12.375 ave 15 max 12 min
Histogram: 7 0 0 0 0 0 0 0 0 1
Nghost:    731.875 ave 739 max 723 min
Histogram: 1 1 0 1 0 1 0 1 2 1
Neighs:    1671.38 ave 2033 max 1607 min
Histogram: 7 0 0 0 0 0 0 0 0 1

Total # of neighbors = 13371
Ave neighs/atom = 135.061
Neighbor list builds = 0
Dangerous builds = 0

###
fix 1 all box/relax aniso 0.0
min_style cg
minimize 1.0e-8 1.0e-8 100000 100000
WARNING: Using 'neigh_modify every 1 delay 0 check yes' setting during minimization (../min.cpp:190)
Per MPI rank memory allocation (min/avg/max) = 21.13 | 21.24 | 21.35 Mbytes
Step Temp E_pair E_mol TotEng Press Volume 
      48            0   -17360.362            0   -17360.362   -657.92897    4514.8063 
      49            0   -17360.362            0   -17360.362   -656.76626     4514.806 
Loop time of 0.0565809 on 8 procs for 1 steps with 99 atoms

99.4% CPU use with 8 MPI tasks x no OpenMP threads

Minimization stats:
  Stopping criterion = energy tolerance
  Energy initial, next-to-last, final = 
        -17360.3615567     -17360.3615567     -17360.3615891
  Force two-norm initial, final = 277.242 277.168
  Force max component initial, final = 109.58 109.481
  Final line search alpha, max atom move = 4.45592e-10 4.87838e-08
  Iterations, force evaluations = 1 18

MPI task timing breakdown:
Section |  min time  |  avg time  |  max time  |%varavg| %total
---------------------------------------------------------------
Pair    | 0.049265   | 0.049997   | 0.050649   |   0.2 | 88.36
Neigh   | 0          | 0          | 0          |   0.0 |  0.00
Comm    | 0.00056578 | 0.0012133  | 0.0019517  |   1.1 |  2.14
Output  | 0          | 0          | 0          |   0.0 |  0.00
Modify  | 0.0049449  | 0.0049479  | 0.0049548  |   0.0 |  8.74
Other   |            | 0.0004229  |            |       |  0.75

Nlocal:    12.375 ave 15 max 12 min
Histogram: 7 0 0 0 0 0 0 0 0 1
Nghost:    731.875 ave 739 max 723 min
Histogram: 1 1 0 1 0 1 0 1 2 1
Neighs:    1671.38 ave 2033 max 1607 min
Histogram: 7 0 0 0 0 0 0 0 0 1

Total # of neighbors = 13371
Ave neighs/atom = 135.061
Neighbor list builds = 0
Dangerous builds = 0

unfix 1
###
min_style cg
minimize 1.0e-8 1.0e-8 100000 100000
WARNING: Using 'neigh_modify every 1 delay 0 check yes' setting during minimization (../min.cpp:190)
Per MPI rank memory allocation (min/avg/max) = 21.13 | 21.24 | 21.35 Mbytes
Step Temp E_pair E_mol TotEng Press 
      49            0   -17360.362            0   -17360.362   -656.76901 
      50            0   -17360.362            0   -17360.362   -656.76792 
Loop time of 0.181834 on 8 procs for 1 steps with 99 atoms

99.5% CPU use with 8 MPI tasks x no OpenMP threads

Minimization stats:
  Stopping criterion = linesearch alpha is zero
  Energy initial, next-to-last, final = 
        -17360.3615915     -17360.3615915     -17360.3615901
  Force two-norm initial, final = 251.793 251.793
  Force max component initial, final = 65.3003 65.3003
  Final line search alpha, max atom move = 1.78277e-13 1.16415e-11
  Iterations, force evaluations = 1 59

MPI task timing breakdown:
Section |  min time  |  avg time  |  max time  |%varavg| %total
---------------------------------------------------------------
Pair    | 0.15595    | 0.15759    | 0.15897    |   0.2 | 86.67
Neigh   | 0          | 0          | 0          |   0.0 |  0.00
Comm    | 0.0017497  | 0.0031248  | 0.0047566  |   1.6 |  1.72
Output  | 0          | 0          | 0          |   0.0 |  0.00
Modify  | 0.020641   | 0.020656   | 0.02069    |   0.0 | 11.36
Other   |            | 0.0004612  |            |       |  0.25

Nlocal:    12.375 ave 15 max 12 min
Histogram: 7 0 0 0 0 0 0 0 0 1
Nghost:    731.875 ave 739 max 723 min
Histogram: 1 1 0 1 0 1 0 1 2 1
Neighs:    1671.38 ave 2033 max 1607 min
Histogram: 7 0 0 0 0 0 0 0 0 1

Total # of neighbors = 13371
Ave neighs/atom = 135.061
Neighbor list builds = 0
Dangerous builds = 0

undump 1
#############
#----------- Thermo ------------
reset_timestep 0
thermo  200

thermo_style    custom step temp etotal ke pe press
velocity all create 300 12345 mom yes rot yes
fix 1 all npt temp 300 300 25.0 iso 0.0 0.0 250.0

variable vpe equal pe
variable vtemp equal temp
variable vstep equal step

fix output all print 2500 "${vstep} ${vtemp} ${vpe}" file temp-tpdh-Pt.dat screen no

dump 1 all custom 2500 thermo-tpdh-Pt.lammpstrj id type x y z

run 1000000
Per MPI rank memory allocation (min/avg/max) = 20 | 20.11 | 20.23 Mbytes
Step Temp TotEng KinEng PotEng Press 
       0          300   -17272.726    87.635815   -17360.362     230.5424 
     200    264.69577   -17241.233    77.322767   -17318.556    5260.6859 
     400    312.46817   -17207.907    91.278009   -17299.185    7175.7197 
     600    270.97719   -17212.857    79.157691   -17292.015   -5128.7679 
     800    299.08109   -17223.137    87.367383   -17310.505    2938.1931 
    1000    268.04051   -17243.874    78.299829   -17322.174   -587.85643 
    1200    318.72106   -17220.435    93.104601   -17313.539    1509.9503 
    1400    289.10891    -17230.91    84.454318   -17315.364    1592.1348 
    1600    315.69933   -17210.702    92.221895   -17302.924   -7536.5034 
    1800    309.97645   -17216.403     90.55013   -17306.953    4197.1901 
    2000    278.11611   -17231.252    81.243107   -17312.495    1367.7027 
    2200    313.07592   -17201.963    91.455544   -17293.418    -3083.817 
    2400    307.40527   -17219.917    89.799037   -17309.716    967.43984 
    2600    294.58255   -17225.424    86.053274   -17311.477    5514.1204 
    2800    337.50385   -17208.689    98.591416    -17307.28   -3201.2583 
    3000    260.82141   -17231.289     76.19099    -17307.48   -8395.7968 
    3200    326.06841    -17213.49    95.250902   -17308.741   -2934.4113 
    3400    333.99092   -17227.815    97.565221    -17325.38   -466.02246 
    3600    296.15989   -17234.274    86.514044   -17320.788   -10748.647 
    3800    291.97931   -17220.405    85.292816   -17305.697     -11576.8 
    4000    305.38126   -17204.023    89.207786    -17293.23   -17547.261 
    4200    275.35368   -17212.163    80.436148   -17292.599    12328.211 
    4400    282.46997   -17226.257    82.514955   -17308.772    1594.8672 
    4600    336.26714    -17203.61    98.230151    -17301.84    -7905.971 
    4800     312.7421     -17225.7    91.358029   -17317.058   -14751.453 
    5000    284.89552   -17219.101    83.223503   -17302.325    4459.4364 
    5200    309.01314   -17215.206    90.268728   -17305.475    6797.3369 
    5400    240.23647   -17240.483    70.177729   -17310.661    -12261.54 
    5600    315.25246   -17214.791    92.091353   -17306.882   -4727.8454 
    5800    301.73904   -17214.767    88.143824   -17302.911    799.46603 
    6000    300.36813   -17231.855    87.743354   -17319.599     8637.174 
    6200    336.39371   -17203.787    98.267123   -17302.054    8286.2864 
    6400    292.05774   -17217.057    85.315727   -17302.373   -2935.6785 
    6600    309.06707   -17222.789    90.284481   -17313.073    6903.3784 
    6800    326.59195   -17205.745    95.403839   -17301.148   -590.36747 
    7000    303.65641   -17224.889    88.703923   -17313.593    1477.9801 
    7200    320.72998   -17214.044    93.691446   -17307.735    5929.6856 
    7400    278.59666   -17221.702    81.383485   -17303.085    764.22884 
    7600    312.18983   -17219.112      91.1967   -17310.308   -6930.1405 
    7800       338.47   -17205.975    98.873648   -17304.849    -7770.693 
    8000    306.63315   -17222.649    89.573488   -17312.222    5948.1908 
    8200    314.20244   -17220.575    91.784623    -17312.36   -10181.746 
    8400    323.47709   -17199.906    94.493929     -17294.4   -492.76844 
    8600    268.86905   -17224.359     78.54186   -17302.901    13900.949 
    8800    302.52674   -17222.281    88.373925   -17310.655    3198.4642 
    9000    249.23833   -17239.617    72.807347   -17312.424   -9865.3322 
    9200    318.91818   -17214.995    93.162182   -17308.158   -7607.8414 
    9400     273.6304   -17222.227    79.932743    -17302.16   -2843.5417 
    9600    334.13476   -17200.928    97.607241   -17298.535   -463.06839 
    9800    318.17984   -17214.701    92.946499   -17307.647    -490.8435 
   10000    284.36057   -17221.188    83.067233   -17304.255   -6315.3094 
   10200    339.33805   -17203.983    99.127221    -17303.11   -4229.5383 
   10400    355.29104   -17193.684     103.7874   -17297.472   -2031.8978 
   10600    287.12645   -17223.292    83.875202   -17307.168   -7188.5659 
   10800    306.27699   -17210.729    89.469447   -17300.199    9702.6191 
   11000    351.16526   -17202.405    102.58218   -17304.987    4096.6186 
   11200    301.27728   -17208.091    88.008933     -17296.1    2527.4877 
   11400    290.98389    -17216.96    85.002036   -17301.962   -17632.259 
   11600    262.43871   -17233.888    76.663436   -17310.551   -2156.0653 
   11800    305.10826   -17210.334    89.128038   -17299.462   -9407.2152 
   12000     313.1979   -17210.476    91.491178   -17301.967   -2864.1389 
   12200    261.30039   -17237.139    76.330911    -17313.47    11706.045 
   12400    274.14068   -17224.027    80.081808   -17304.109    209.87043 
   12600    318.76966   -17208.702    93.118796    -17301.82   -9937.6597 
   12800    277.65323   -17223.981    81.107891   -17305.089    95.198695 
   13000     270.9958   -17236.624    79.163125   -17315.788    14047.393 
   13200    294.72686   -17207.104    86.095428     -17293.2     6717.995 
   13400    277.48434   -17213.567    81.058554   -17294.625    1035.8917 
   13600    293.35504   -17227.021    85.694693   -17312.715   -138.63968 
   13800    295.95648   -17214.619    86.454624   -17301.074    4768.7772 
   14000    282.41262   -17216.432      82.4982   -17298.931    3150.3627 
   14200    306.54139   -17214.231    89.546681   -17303.778    7171.3456 
   14400    307.67481   -17197.387    89.877777   -17287.264   -285.68298 
   14600    312.18238   -17213.047    91.194524   -17304.241    10920.893 
   14800    299.02466    -17222.13    87.350899   -17309.481    3122.7742 
   15000    308.76546   -17218.521    90.196377   -17308.718    -4420.056 
   15200    337.53513   -17200.408    98.600554   -17299.008    6429.6522 
   15400     281.2795   -17220.015    82.167194   -17302.182    352.09341 
   15600    292.43186   -17209.462    85.425016   -17294.887    6102.9336 
   15800    308.02826   -17214.517    89.981027   -17304.498     2604.467 
   16000    288.86962   -17234.505    84.384417   -17318.889    12633.005 
   16200    251.35755    -17230.38    73.426413   -17303.806     2932.586 
   16400    277.91559   -17208.099     81.18453   -17289.283    5308.9381 
   16600    332.09687   -17201.107    97.011932   -17298.119    9147.8958 
   16800    292.69005   -17217.117    85.500436   -17302.617    -11896.95 
   17000    307.29192   -17219.331    89.765927   -17309.097   -113.85142 
   17200    309.30138   -17212.984    90.352928   -17303.337    5380.7536 
   17400    317.16564    -17204.21    92.650231    -17296.86    1025.5581 
   17600    272.38786   -17223.311    79.569775   -17302.881   -2417.5552 
   17800     340.1663   -17213.992    99.369171   -17313.362    7612.5756 
   18000    307.17987   -17197.464    89.733194   -17287.197    4930.6696 
   18200     290.4786   -17227.124    84.854431   -17311.978    5179.9484 
   18400    306.43212   -17209.575    89.514761    -17299.09    -7126.895 
   18600    305.24139   -17204.469    89.166928   -17293.635   -7083.7406 
   18800    301.01828   -17212.967    87.933274     -17300.9   -9911.2095 
   19000    258.52306    -17222.38    75.519598     -17297.9   -7880.9209 
   19200    318.57562   -17203.903    93.062114   -17296.965   -5547.8922 
   19400    302.78306   -17214.375    88.448802   -17302.824    -4134.647 
   19600    279.31405   -17227.303    81.593049   -17308.896   -6988.7578 
   19800    303.85293   -17210.022    88.761332   -17298.784     8752.843 
   20000    310.25852   -17205.671    90.632527   -17296.303   -6008.2572 
   20200    279.81558   -17222.656    81.739556   -17304.395   -2981.5512 
   20400    300.17943   -17217.516     87.68823   -17305.205   -3511.2716 
   20600    293.33275   -17208.977    85.688182   -17294.665    2684.8822 
   20800     253.1566   -17234.352     73.95195   -17308.304    11989.756 
   21000    295.58084   -17215.639    86.344892   -17301.984   -1090.5843 
   21200    292.36268   -17216.154    85.404805   -17301.559   -6255.9916 
   21400    275.58503   -17230.649     80.50373   -17311.152    12694.748 
   21600    309.93508   -17204.942    90.538044    -17295.48   -3666.5333 
   21800    290.22566   -17220.692    84.780542   -17305.473   -3964.2494 
   22000    316.53376   -17211.425    92.465648    -17303.89    9539.2731 
   22200    318.32612   -17212.243    92.989231   -17305.233    7418.5458 
   22400    332.34182    -17216.27    97.083487   -17313.353    7910.3017 
   22600    278.06528   -17216.638    81.228259   -17297.866    307.71028 
   22800    329.25645   -17203.335    96.182191   -17299.517    4085.0466 
   23000    283.19362   -17224.089    82.726346   -17306.815   -5938.0174 
   23200    315.54667   -17202.443      92.1773    -17294.62   -6424.5733 
   23400    294.10812   -17206.257    85.914683   -17292.172   -940.36905 
   23600    300.57281   -17217.231    87.803145   -17305.035   -314.48701 
   23800    347.27149   -17197.357    101.44474   -17298.802    15645.572 
   24000    271.72522   -17216.893    79.376205   -17296.269   -1160.5592 
   24200    283.92676   -17222.078    82.940511   -17305.018   -21758.391 
   24400    302.73749   -17201.438     88.43549   -17289.873   -13522.318 
   24600    282.21259   -17220.358    82.439769   -17302.798    2446.2378 
   24800    336.65303   -17205.784    98.342875   -17304.127    -496.7558 
   25000    248.41785   -17221.503    72.567669    -17294.07   -4562.0681 
   25200    335.90358   -17209.093    98.123948   -17307.217    563.12056 
   25400     330.3868   -17199.632     96.51239   -17296.145     2816.702 
   25600    262.12896   -17219.392     76.57295   -17295.965    5407.6806 
   25800    338.56743   -17216.644    98.902109   -17315.546    1620.3848 
   26000    302.41498   -17205.963    88.341277   -17294.304    237.27959 
   26200    280.11806   -17227.248    81.827914   -17309.076   -9705.4121 
   26400     320.5261   -17205.197    93.631887   -17298.829    6645.7166 
   26600    281.01325   -17211.235    82.089416   -17293.325    11642.977 
   26800     294.4908   -17215.239     86.02647   -17301.265    -9469.852 
   27000    314.77435   -17196.189     91.95169   -17288.141    3820.2207 
   27200    295.35341   -17222.682    86.278458   -17308.961    110.41075 
   27400    294.48425   -17209.973    86.024559   -17295.998    5238.4543 
   27600    354.44437   -17190.877    103.54007   -17294.417    2279.6302 
   27800    325.52527   -17201.348    95.092242   -17296.441   -2674.7507 
   28000    302.79912   -17218.263    88.453493   -17306.716   -3373.2616 
   28200    312.71602   -17212.263    91.350412   -17303.613    7163.0399 
   28400    326.22585   -17200.801    95.296894   -17296.098    3900.2263 
   28600    284.14859   -17216.247    83.005312   -17299.252   -10142.965 
   28800    308.09994   -17212.631    90.001965   -17302.632   -8608.5874 
   29000    295.60485   -17197.315    86.351906   -17283.666    3525.4916 
   29200    300.32415   -17225.964    87.730506   -17313.694     4485.044 
   29400    310.70116   -17217.324    90.761831   -17308.086    1456.0351 
   29600    310.51468   -17197.786    90.707358   -17288.493    -1301.439 
   29800    336.49136   -17211.902     98.29565   -17310.197    4568.1962 
   30000    328.90722   -17215.871    96.080173   -17311.951   -1281.1665 
   30200    293.39183   -17204.162    85.705442   -17289.868   -289.62633 
   30400    274.65331    -17206.68    80.231556   -17286.911   -3937.3604 
   30600     275.3689   -17217.362    80.440593   -17297.803   -2024.4434 
   30800    339.11015   -17196.072    99.060647   -17295.133     4786.715 
   31000    280.11286   -17212.798    81.826398   -17294.625    13795.827 
   31200    310.06576   -17206.218     90.57622   -17296.794   -3880.9678 
   31400    307.16885   -17214.583    89.729974   -17304.313    6524.4355 
   31600    283.28489   -17216.921    82.753007   -17299.674    1504.2617 
   31800    305.25546   -17204.134    89.171037   -17293.305   -8062.6293 
   32000    288.15572   -17225.464    84.175873   -17309.639   -7037.7941 
   32200    325.84312   -17213.844    95.185091   -17309.029    4540.0401 
   32400    304.96199    -17203.68    89.085308   -17292.766     7773.557 
   32600    359.29289   -17195.242    104.95642   -17300.198   -6208.0759 
   32800     288.8152   -17220.998    84.368518   -17305.367    4482.2097 
   33000    317.92078   -17203.294    92.870823   -17296.165   -4659.0119 
   33200    274.28218   -17224.148    80.123143   -17304.272    -4255.993 
   33400     283.4085   -17219.808    82.789117   -17302.597    5448.7699 
   33600    318.07542   -17208.881    92.915996   -17301.797     -6765.36 
   33800     269.8564   -17217.269    78.830286   -17296.099   -4465.8919 
   34000    317.16359   -17200.335    92.649633   -17292.984    8009.3402 
   34200    339.45377   -17199.917    99.161026   -17299.078   -2659.2559 
   34400    289.86666   -17216.189    84.675671   -17300.865   -12515.869 
   34600    285.09599   -17219.601    83.282066   -17302.883    4056.9127 
   34800    283.99871   -17218.593    82.961529   -17301.554   -17272.856 
   35000    305.84694    -17200.63    89.343821   -17289.973   -4271.3609 
   35200    279.37889   -17221.765    81.611988   -17303.377   -7216.7826 
   35400    277.20876   -17212.421    80.978052   -17293.399   -7200.6376 
   35600    308.94075    -17208.68    90.247583   -17298.928   -2658.9148 
   35800    274.91175   -17223.625    80.307051   -17303.932    5877.7348 
   36000     282.4525   -17210.358     82.50985   -17292.868   -2280.3168 
   36200    334.72901   -17195.452    97.780833   -17293.232    14764.377 
   36400    299.90464   -17218.195    87.607958   -17305.803   -6601.1411 
   36600    309.05324   -17207.599    90.280443   -17297.879   -526.98637 
   36800     301.6445    -17208.87    88.116205   -17296.987    7003.4301 
   37000    259.22567   -17225.198    75.724844   -17300.923    110.00171 
   37200    310.69784   -17207.479     90.76086    -17298.24    -11557.83 
   37400    275.68942   -17212.868    80.534222   -17293.402    169.12354 
   37600    274.58403   -17228.928    80.211319   -17309.139   -414.71674 
   37800     316.1115   -17215.384    92.342298   -17307.726   -596.52944 
   38000    307.00813   -17205.232    89.683025   -17294.915    5147.8361 
   38200    277.17633   -17232.737    80.968578   -17313.705   -12474.124 
   38400    267.69423   -17223.952    78.198674    -17302.15    1468.4493 
   38600    298.97695   -17207.482    87.336964   -17294.818    3138.7157 
   38800    274.15836   -17223.858    80.086972   -17303.945   -11582.444 
   39000    259.87615   -17226.615     75.91486    -17302.53     10035.92 
   39200    298.72274    -17210.88    87.262702   -17298.143    4608.5224 
   39400    272.16255   -17227.528    79.503955   -17307.032    10669.655 
   39600    310.23988   -17205.816    90.627082   -17296.443    3126.5595 
   39800    325.87831   -17204.273    95.195372   -17299.468    7999.4049 
   40000    281.29872   -17222.616     82.17281   -17304.789   -838.41888 
   40200    321.25037   -17205.096    93.843461   -17298.939    13342.358 
   40400    345.24188   -17195.043    100.85185   -17295.895   -2222.5175 
   40600     297.4169   -17222.876    86.881242   -17309.757    -277.6475 
   40800    279.07336   -17212.623    81.522737   -17294.145   -5103.7605 
   41000    336.46083   -17203.822    98.286732   -17302.109     4580.862 
   41200    280.44098   -17224.789    81.922247   -17306.711   -12942.475 
   41400    283.97599   -17213.484    82.954893   -17296.439   -5605.3589 
   41600     276.2744   -17217.133    80.705108   -17297.839   -12816.573 
   41800    275.95909   -17219.425    80.613001   -17300.038    804.48407 
   42000     326.3214   -17190.665    95.324807    -17285.99    5315.4839 
   42200    266.01131   -17215.723    77.707061    -17293.43   -20546.284 
   42400    263.32888   -17227.087    76.923471    -17304.01    5226.4802 
   42600     312.7756   -17200.565    91.367816   -17291.932    1356.7162 
   42800    280.91398   -17221.324    82.060419   -17303.385    4880.8576 
   43000    281.36236    -17219.05      82.1914   -17301.241    3007.1226 
   43200     320.2027   -17209.547    93.537416   -17303.084    9184.5582 
   43400    321.89707   -17208.352    94.032374   -17302.384   -4375.1158 
   43600    271.20833   -17228.092     79.22521   -17307.318    -6285.408 
   43800    289.53661   -17224.913    84.579256   -17309.493    6121.7456 
   44000    315.21819   -17209.421    92.081344   -17301.503   -3111.3492 
   44200    278.10882   -17219.284    81.240978   -17300.525   -295.05245 
   44400     340.9373   -17202.947    99.594394   -17302.542    4882.7684 
   44600    287.95534   -17217.659    84.117337   -17301.777    3547.8131 
   44800    298.15562   -17220.428    87.097037   -17307.525    6867.2033 
   45000     277.9993   -17212.758    81.208985   -17293.967     4696.149 
   45200    338.03407   -17201.246    98.746306   -17299.992    5093.0287 
   45400    280.95924   -17225.694     82.07364   -17307.768    3148.2417 
   45600    328.58789   -17207.442    95.986893   -17303.429   -1215.5992 
   45800     293.5319   -17211.339    85.746358   -17297.086   -528.78922 
   46000    280.87837   -17231.086    82.050018   -17313.136    9875.2226 
   46200    264.18056   -17229.634    77.172264   -17306.806    3228.8187 
   46400     309.0515   -17210.034    90.279935   -17300.314    3372.1497 
   46600    304.98165   -17193.691    89.091053   -17282.782   -2592.6498 
   46800    288.52497   -17200.583    84.283735   -17284.866   -11184.252 
   47000    313.93246    -17215.42    91.705756   -17307.126   -3078.9875 
   47200    273.33303   -17229.298    79.845878   -17309.144    793.33469 
   47400    301.45966   -17216.409     88.06221   -17304.471    5666.2899 
   47600    317.23876   -17202.932    92.671593   -17295.604    1913.4802 
   47800    287.50218   -17221.351    83.984959   -17305.336   -6269.8145 
   48000    264.66625   -17233.033    77.314143   -17310.347   -1917.9798 
   48200    330.03744   -17204.656    96.410334   -17301.066   -2156.2733 
   48400    267.66644   -17217.291    78.190556   -17295.482   -13762.092 
   48600    263.21947   -17221.433     76.89151   -17298.325   -1640.5039 
   48800    316.14177   -17205.887    92.351138   -17298.238   -1144.2928 
   49000    317.46503   -17213.294     92.73769   -17306.032   -3118.0072 
   49200     272.2709   -17227.003    79.535608   -17306.538    388.32384 
   49400    305.59933   -17213.926    89.271489   -17303.198    11104.357 
   49600    282.47906   -17207.343    82.517608   -17289.861    1946.7277 
   49800    256.52956     -17231.7    74.937258   -17306.637    10381.822 
   50000    331.84438   -17210.717    96.938176   -17307.655   -1497.4997 
   50200    332.28248    -17204.33    97.066153   -17301.396     3946.219 
   50400    277.14921   -17227.118    80.960658   -17308.079   -1430.0121 
   50600    305.86913   -17207.948    89.350301   -17297.299   -9851.1806 
   50800    301.77186    -17207.69    88.153411   -17295.843    11465.195 
   51000    279.85593   -17218.034    81.751343   -17299.786    9269.0559 
   51200    251.24119   -17224.822    73.392423   -17298.214   -2926.8884 
   51400    332.60941   -17203.374    97.161655   -17300.536    9380.8318 
   51600    314.68086   -17214.029    91.924379   -17305.953    2425.0259 
   51800    293.55015   -17234.756    85.751688   -17320.508   -9100.6602 
   52000    287.96328   -17209.204    84.119656   -17293.323    3714.0269 
   52200    280.65636   -17207.367    81.985164   -17289.352    1482.4408 
   52400    277.42417   -17212.783    81.040978   -17293.824   -2002.5253 
   52600    330.17914   -17196.582    96.451726   -17293.034   -4537.5181 
   52800    277.03704   -17219.998     80.92789   -17300.926   -119.84681 
   53000    280.18234   -17216.489    81.846694   -17298.335   -1124.3403 
   53200    283.36778    -17197.69    82.777221   -17280.468   -8915.4052 
   53400    318.28266   -17201.997    92.976535   -17294.973    10551.114 
   53600    302.96448   -17227.365    88.501796   -17315.867   -4147.5655 
   53800    311.78302   -17209.939    91.077863   -17301.017   -4162.6867 
   54000    340.84082   -17200.539     99.56621   -17300.105   -2716.7209 
   54200    294.80848   -17219.316    86.119272   -17305.435   -7588.6052 
   54400    337.73119   -17205.476    98.657828   -17304.134    -2393.879 
   54600    315.83302   -17200.327    92.260948   -17292.588    3541.9181 
   54800    262.32616   -17212.899    76.630555   -17289.529    4973.7231 
   55000     291.5763   -17214.756    85.175091   -17299.932     10069.58 
   55200    242.07444   -17234.136    70.714635   -17304.851   -2051.7709 
   55400    307.59542   -17211.128    89.854584   -17300.983   -6551.4942 
   55600     272.9659    -17216.32    79.738632   -17296.058      2.92643 
   55800    288.15422   -17207.364    84.175434    -17291.54    -5508.087 
   56000    326.45979   -17203.354    95.365232   -17298.719   -2395.2833 
   56200    329.29589   -17211.378    96.193712   -17307.572    5588.0202 
   56400    327.30719   -17213.753    95.612774   -17309.366   -4997.9514 
   56600    280.09124   -17226.241    81.820081   -17308.061    2984.9278 
   56800    310.39804   -17202.166    90.673284    -17292.84   -470.06332 
   57000    327.18993   -17214.732    95.578521   -17310.311   -1508.8628 
   57200    286.87307   -17225.531    83.801185   -17309.332     5358.128 
   57400    274.05287   -17206.214    80.056157    -17286.27   -8797.8615 
   57600    295.48575   -17205.175    86.317116   -17291.492    6004.4923 
   57800    306.80388   -17213.631    89.623362   -17303.254   -9153.7984 
   58000      227.293   -17231.868    66.396693   -17298.264   -952.28495 
   58200    289.34295   -17229.313    84.522685   -17313.836   -12207.215 
   58400    295.84925   -17206.569      86.4233   -17292.992    5872.2079 
   58600    302.24981   -17200.377    88.293028    -17288.67   -8993.6988 
   58800    283.49427   -17222.436    82.814172    -17305.25    5307.5398 
   59000    290.44676   -17204.449     84.84513   -17289.294   -1759.9143 
   59200    295.78599   -17210.146    86.404822   -17296.551     2399.965 
   59400    321.30348   -17211.702    93.858974   -17305.561   -1264.2685 
   59600    321.50602   -17189.111    93.918142   -17283.029    1173.3621 
   59800    287.75472   -17205.713    84.058732   -17289.772   -13400.848 
   60000    298.37386   -17210.702    87.160788   -17297.863    1410.4187 
   60200    337.22205   -17190.488    98.509097   -17288.997   -2312.1189 
   60400    298.25524    -17211.11    87.126136   -17298.236   -3405.5826 
   60600    280.82035   -17216.645    82.033068   -17298.678    7722.9975 
   60800    320.29767   -17194.047    93.565158   -17287.612    5396.2379 
   61000    298.33676   -17204.598    87.149951   -17291.748    9821.7521 
   61200     341.8886   -17207.252    99.872288   -17307.124    -1311.223 
   61400    284.63285   -17213.799    83.146773   -17296.945   -332.76198 
   61600    272.98389   -17230.222    79.743886   -17309.965    5673.4791 
   61800    301.72841   -17208.368    88.140716   -17296.509     2912.268 
   62000    260.76662   -17212.781    76.174983   -17288.956    7247.3729 
   62200    303.11415   -17219.217    88.545519   -17307.763    5485.2296 
   62400    294.03357   -17198.519    85.892906   -17284.412   -12451.141 
   62600    311.70625   -17218.152    91.055439   -17309.208   -2283.7754 
   62800    284.91752   -17222.617     83.22993   -17305.847    2191.7145 
   63000    323.70471    -17203.04     94.56042   -17297.601    3852.2674 
   63200    286.27352   -17202.469    83.626044   -17286.095   -767.09919 
   63400    286.49245   -17225.127    83.689997   -17308.817    7647.6618 
   63600    322.24966   -17202.527    94.135373   -17296.663   -5015.6127 
   63800    304.81396   -17209.787    89.042065   -17298.829   -6630.3284 
   64000    230.13746    -17229.61    67.227614   -17296.838    19528.886 
   64200    271.89122   -17213.171    79.424696   -17292.596   -7933.6881 
   64400    290.25629     -17208.3     84.78949    -17293.09   -2940.0845 
   64600    278.07876   -17212.847    81.232195   -17294.079     2255.847 
   64800    290.20177    -17222.45    84.773564   -17307.224   -9848.3581 
   65000     334.0993   -17200.208    97.596881   -17297.805    5326.4297 
   65200    273.93987   -17213.405    80.023148   -17293.428   -14784.823 
   65400    282.01987   -17219.842    82.383472   -17302.225    1980.8575 
   65600    299.29667   -17202.555    87.430361   -17289.985   -7674.7151 
   65800     336.8102   -17207.057    98.388789   -17305.446    2458.1113 
   66000    264.33486   -17235.102    77.217337    -17312.32    -1691.184 
   66200    300.96606   -17208.011    87.918021   -17295.929   -2546.3073 
   66400    247.22869   -17207.778    72.220294   -17279.998     7820.034 
   66600    239.36116   -17233.177    69.922036   -17303.099   -4138.9382 
   66800    279.46153   -17219.977    81.636132   -17301.613    5541.9198 
   67000     331.8866   -17205.425     96.95051   -17302.375    2286.6727 
   67200    284.90341   -17228.707     83.22581   -17311.933   -7112.7582 
   67400    308.10216    -17221.05    90.002614   -17311.053    3405.3232 
   67600     312.4363   -17205.486    91.268701   -17296.755   -509.20376 
   67800    294.75068   -17219.347    86.102387   -17305.449     4751.296 
   68000    314.16347   -17222.876     91.77324   -17314.649   -5928.7154 
   68200    291.87899    -17206.63    85.263512   -17291.894   -4282.6098 
   68400    294.04083   -17216.094    85.895026   -17301.989    132.26025 
   68600     264.7222   -17225.367    77.330485   -17302.698    6921.4369 
   68800    310.02686   -17202.774    90.564855   -17293.339    8753.7755 
   69000    302.50799   -17210.948    88.368448   -17299.317   -8713.6345 
   69200     261.7268   -17224.929    76.455472   -17301.385   -5724.4114 
   69400    287.95527   -17208.907    84.117317   -17293.024   -5730.2469 
   69600    309.34833   -17200.329    90.366644   -17290.695    10911.029 
   69800    314.42632   -17205.464    91.850023   -17297.314     343.4626 
   70000    273.23254     -17222.9    79.816521   -17302.716    6396.7134 
   70200    326.01589   -17205.108     95.23556   -17300.343   -7540.0997 
   70400    317.96191   -17195.776    92.882836   -17288.659    3304.9935 
   70600    323.82255   -17220.287    94.594844   -17314.882    4450.7557 
   70800    286.73104   -17214.532    83.759694   -17298.291    2368.4024 
   71000    339.15699    -17191.14    99.074332   -17290.214    3498.7323 
   71200    300.58012   -17219.126     87.80528   -17306.931   -3402.6638 
   71400    323.10942   -17213.274    94.386526   -17307.661    3218.0691 
   71600    274.68708   -17215.359    80.241421     -17295.6   -4357.4586 
   71800    355.88787   -17192.744    103.96175   -17296.706   -5968.4525 
   72000      306.129   -17212.298    89.426214   -17301.724    394.45137 
   72200    297.45029   -17215.241    86.890997   -17302.132    3094.2115 
   72400    323.47325   -17193.836    94.492806   -17288.329       1705.5 
   72600    335.45533   -17180.684    97.993005   -17278.678   -8538.4299 
   72800    283.76809   -17215.699     82.89416   -17298.593   -1999.5439 
   73000    286.11643   -17212.563    83.580157   -17296.143   -1068.9328 
   73200    301.56843   -17194.968    88.093985   -17283.062    2027.0967 
   73400    291.63467   -17209.679    85.192141   -17294.871   -6068.9173 
   73600    252.77388    -17217.91     73.84015    -17291.75    1367.1887 
   73800    315.56248   -17191.632    92.181919   -17283.813    7828.5978 
   74000    292.77109   -17208.842     85.52411   -17294.366    9246.6295 
   74200    307.10225   -17216.563    89.710519   -17306.273    7727.0677 
   74400     332.4988   -17206.049    97.129346   -17303.178   -25621.433 
   74600    332.62698   -17193.045    97.166789   -17290.212   -2299.5691 
   74800    294.54482   -17211.372    86.042252   -17297.415    3399.0364 
   75000    297.27452   -17209.428    86.839651   -17296.268   -7752.3095 
   75200    325.08299   -17192.544    94.963042   -17287.507   -20588.846 
   75400    281.17361   -17214.698    82.136263   -17296.835   -52.728141 
   75600    307.96104   -17205.815    89.961389   -17295.776   -7560.8462 
   75800     269.0634   -17220.975    78.598635   -17299.573   -12693.773 
   76000     294.1743   -17214.658    85.934014   -17300.592    13617.609 
   76200    296.46391   -17205.008    86.602854   -17291.611   -1550.0647 
   76400    242.64546   -17230.432    70.881444   -17301.314   -23142.794 
   76600    344.18495   -17200.797     100.5431    -17301.34    -2614.038 
   76800    314.39731   -17206.497     91.84155   -17298.339    4706.0788 
   77000    287.76233    -17223.28    84.060955   -17307.341    1196.2476 
   77200    261.47439   -17227.374    76.381737   -17303.756   -2850.7309 
   77400    297.42153   -17210.496    86.882594   -17297.378    4637.4096 
   77600    299.84774   -17210.638    87.591337   -17298.229   -9363.9404 
   77800    275.45507   -17223.339    80.465765   -17303.805   -1227.7913 
   78000    304.37713   -17202.995     88.91446    -17291.91    1931.1066 
   78200    305.95297   -17215.458    89.374794   -17304.833   -2426.3019 
   78400     278.8075   -17226.673    81.445075   -17308.118   -2772.0101 
   78600    316.04312   -17201.164    92.322322   -17293.487    4441.7545 
   78800     299.1065   -17209.639    87.374806   -17297.014    3935.3001 
   79000    261.71245    -17227.42    76.451279   -17303.871    3202.5016 
   79200    308.78804   -17200.598    90.202972   -17290.801   -1948.7085 
   79400    298.84176   -17213.781     87.29747   -17301.079   -645.80369 
   79600    288.54675   -17226.199      84.2901   -17310.489    4911.5665 
   79800    292.56541   -17215.286    85.464029    -17300.75   -7109.6565 
   80000    303.97629   -17201.143    88.797367    -17289.94    7132.7097 
   80200    298.96559   -17208.636    87.333644   -17295.969    1460.1592 
   80400    296.70296   -17226.314    86.672687   -17312.987    1403.4869 
   80600    298.33949   -17210.411    87.150748   -17297.562   -23.174072 
   80800    272.22321   -17195.866    79.521678   -17275.387    7989.3717 
   81000    271.14753   -17222.299     79.20745   -17301.506    -3506.382 
   81200    310.13997   -17212.685    90.597898   -17303.283   -1017.4587 
   81400    275.14533   -17225.876    80.375285   -17306.251   -4593.6928 
   81600    307.38203   -17202.017     89.79225   -17291.809    1718.5493 
   81800    275.07044   -17219.093    80.353409   -17299.446   -7460.4813 
   82000    324.11481   -17199.085    94.680218   -17293.765    7050.1759 
   82200     337.0526   -17198.216    98.459598   -17296.676   -639.32252 
   82400    316.11695   -17215.497    92.343889   -17307.841    3802.7027 
   82600    271.37158   -17221.375      79.2729   -17300.648   -3250.0776 
   82800     341.4503   -17193.396    99.744252    -17293.14   -721.87748 
   83000    314.43926   -17208.257    91.853802   -17300.111   -14409.735 
   83200    282.45016   -17234.427    82.509167   -17316.937   -5957.0889 
   83400    271.20499   -17219.607    79.224234   -17298.831   -2799.3318 
   83600    304.14978    -17203.03    88.848048   -17291.878    -2902.637 
   83800    291.62962   -17215.168    85.190666   -17300.359    4566.6151 
   84000    249.79898   -17219.789    72.971123   -17292.761    14270.616 
   84200    273.69944   -17204.777    79.952913    -17284.73    3459.0594 
   84400    315.01067   -17216.165    92.020724   -17308.186   -18096.884 
   84600    273.00327   -17225.247    79.749548   -17304.997    4874.6872 
   84800    335.30896   -17203.737    97.950248   -17301.688    3901.1219 
   85000    322.98271   -17211.591     94.34951   -17305.941    6163.9433 
   85200    255.94104   -17226.308     74.76534   -17301.074   -3000.1601 
   85400    304.78244   -17209.921    89.032858   -17298.954    2932.5219 
   85600    299.43553   -17210.811    87.470922   -17298.282     -8717.59 
   85800    258.16758   -17225.286    75.415755   -17300.701    6647.7419 
   86000    302.28973   -17205.666     88.30469   -17293.971    4771.3482 
   86200    325.25778   -17203.126    95.014103    -17298.14   -2929.5265 
   86400    277.50982   -17221.773    81.065998   -17302.839    7085.3917 
   86600    285.47484   -17217.071    83.392735   -17300.464   -9473.2232 
   86800    331.15167   -17205.073    96.735823   -17301.809    2581.0164 
   87000    286.40255   -17226.582    83.663737   -17310.245   -1323.2786 
   87200    335.80419   -17197.917    98.094913   -17296.012   -3572.4466 
   87400    300.17639   -17211.754    87.687342   -17299.441    2710.8088 
   87600     305.8816   -17207.126    89.353943    -17296.48    2009.6738 
   87800    271.16111   -17213.854    79.211416   -17293.065   -8667.9754 
   88000    328.48604   -17202.978    95.957141   -17298.935   -1960.7694 
   88200    333.57881   -17199.775    97.444838    -17297.22    7179.9905 
   88400    267.69832   -17220.646    78.199867   -17298.845    3985.2496 
   88600    294.92359   -17201.868    86.152898    -17288.02   -1910.9861 
   88800    277.58019   -17209.459    81.086554   -17290.546   -19764.919 
   89000     331.4398    -17223.58    96.819991     -17320.4    2376.6972 
   89200    305.25511    -17199.54    89.170934   -17288.711    7004.6554 
   89400    293.27668   -17206.525    85.671802   -17292.197   -19822.023 
   89600    265.15213   -17224.473    77.456077   -17301.929   -6146.3924 
   89800      308.694   -17213.802    90.175501   -17303.978    -8562.425 
   90000     272.9781   -17209.731    79.742196   -17289.473   -19431.168 
   90200    318.28259   -17207.066    92.976514   -17300.042   -7675.7003 
   90400    273.89431   -17223.296    80.009838   -17303.306   -12903.711 
   90600    347.25865   -17200.604    101.44098   -17302.045    4813.9894 
   90800    303.04211    -17205.32    88.524476   -17293.844   -5704.7743 
   91000    252.04743   -17232.883     73.62794   -17306.511    3911.9566 
   91200    301.24518    -17218.16    87.999556    -17306.16   -12379.707 
   91400     316.1666   -17206.707    92.358393   -17299.066    1322.3526 
   91600    281.48661     -17216.7    82.227696   -17298.927    263.34957 
   91800    280.06359   -17219.574    81.812005   -17301.386    5216.9046 
   92000    298.00306   -17198.642     87.05247   -17285.694    48.253955 
   92200     305.6108   -17206.777    89.274838   -17296.052    13512.451 
   92400     349.0755   -17203.049    101.97172   -17305.021   -803.85592 
   92600    260.44271    -17223.35    76.080365   -17299.431   -164.69807 
   92800    318.80979   -17208.014     93.13052   -17301.145    7552.1727 
   93000    289.47786   -17198.481    84.562093   -17283.043   -11380.989 
   93200    292.32265   -17211.996    85.393113   -17297.389   -2126.7165 
   93400    265.00032   -17229.372     77.41173   -17306.784    7554.4087 
   93600    283.39729   -17204.854    82.785843    -17287.64   -1208.0396 
   93800    319.78236   -17210.033    93.414627   -17303.448   -7445.7888 
   94000    271.31054   -17215.514    79.255068   -17294.769   -996.59668 
   94200    350.35434    -17190.57    102.34529   -17292.915    650.83958 
   94400    283.99201   -17212.077    82.959572   -17295.036    4185.9859 
   94600    282.54521     -17216.5    82.536933   -17299.037   -15952.052 
   94800    341.82108    -17192.28    99.852562   -17292.133   -1220.7948 
   95000    323.65187   -17205.861    94.544987   -17300.406    1563.6873 
   95200    306.04412    -17216.62    89.401421   -17306.021   -1507.1155 
   95400    250.89642   -17235.988    73.291709    -17309.28    1596.8227 
   95600    297.10517   -17211.162     86.79018   -17297.952    13071.938 
   95800    290.29107   -17215.464    84.799648   -17300.263    2140.4378 
   96000    323.77302   -17206.164    94.580375   -17300.745    1982.7062 
   96200    331.46163   -17197.103    96.826368   -17293.929    4346.0538 
   96400    303.82666   -17212.277    88.753656   -17301.031    157.08132 
   96600    298.90239   -17200.487    87.315181   -17287.802   -3725.8803 
   96800    334.62909   -17205.035    97.751644   -17302.786   -6628.6122 
   97000    262.72323    -17213.86    76.746549   -17290.607   -2873.2651 
   97200    318.72994   -17202.754    93.107195   -17295.861    -7263.061 
   97400    278.07013   -17221.198    81.229676   -17302.428   -3696.2976 
   97600    282.12389   -17216.203    82.413858   -17298.617    -1415.896 
   97800    320.16985   -17201.835     93.52782   -17295.363   -721.90305 
   98000    279.16746   -17212.235    81.550226   -17293.785    11483.241 
   98200    266.27902   -17227.448    77.785263   -17305.233    15639.554 
   98400    289.47357   -17203.716    84.560842   -17288.277   -2453.4223 
   98600    260.20698   -17208.563    76.011502   -17284.574    1839.1816 
   98800    280.35688   -17220.413    81.897679   -17302.311    7559.5612 
   99000    286.31862   -17212.835    83.639219   -17296.474    2394.3828 
   99200    314.63136   -17195.928     91.90992   -17287.838   -7200.6587 
   99400    312.93738   -17201.929    91.415075   -17293.344    5768.0301 
   99600    275.56953   -17221.157    80.499202   -17301.656   -1147.0887 
   99800    318.64679   -17200.218    93.082903   -17293.301   -850.12717 
  100000    299.11367   -17207.308    87.376902   -17294.685   -1114.5977 
  100200    299.42953   -17216.524     87.46917   -17303.994    115.38011 
  100400    325.04152   -17190.892    94.950928   -17285.843    10365.747 
  100600     305.9174   -17202.097    89.364403   -17291.462    1184.7027 
  100800    301.73142   -17211.577    88.141596   -17299.719   -3942.0009 
  101000    274.68378   -17222.323    80.240457   -17302.563    5024.8728 
  101200    336.48629   -17198.301    98.294168   -17296.595    2403.0955 
  101400    284.16499   -17214.311    83.010101   -17297.321    6553.8814 
  101600    307.82425   -17218.679    89.921432     -17308.6   -10438.914 
  101800    279.17427   -17212.242    81.552217   -17293.794    5320.8893 
  102000    319.76026   -17197.991     93.40817     -17291.4    5586.3853 
  102200     310.2721   -17206.675    90.636496   -17297.312    680.84016 
  102400    291.10261   -17208.956    85.036716   -17293.993    9762.8369 
  102600    285.63109   -17213.433    83.438378   -17296.871    2030.3537 
  102800    272.77825   -17221.589    79.683815   -17301.272   -4644.7985 
  103000    286.71066   -17203.281    83.753741   -17287.035   -7645.1409 
  103200    352.99251   -17194.055    103.11595   -17297.171   -4830.0261 
  103400    287.22595   -17221.487    83.904268   -17305.391   -5596.5359 
  103600    262.42153   -17216.162    76.658417    -17292.82    4815.9212 
  103800    317.22462   -17200.072    92.667462   -17292.739    11221.177 
  104000    278.10139   -17218.994    81.238808   -17300.233    5587.4217 
  104200    345.76043   -17201.954    101.00332   -17302.957   -5079.0903 
  104400    313.74815   -17203.769    91.651918   -17295.421   -854.90988 
  104600    302.07851   -17222.113    88.242987   -17310.356      1887.21 
  104800    260.59186   -17238.401    76.123935   -17314.524    3465.1305 
  105000    290.07697   -17209.816    84.737107   -17294.553   -3764.3829 
  105200     344.4893   -17204.336      100.632   -17304.968    5450.9199 
  105400    316.80853   -17219.452    92.545911   -17311.998   -694.49526 
  105600    286.28362   -17220.761    83.628996    -17304.39   -2491.8033 
  105800    328.42908   -17203.558    95.940502   -17299.499   -6934.5955 
  106000    279.59291   -17214.734    81.674509   -17296.408    -57.83714 
  106200    280.31111   -17227.649    81.884308   -17309.533    6239.7092 
  106400    287.64539   -17203.975    84.026793   -17288.002   -4434.0073 
  106600    323.95766   -17203.175    94.634313    -17297.81     -11030.2 
  106800    284.19551   -17211.058    83.019017   -17294.077   -4968.6366 
  107000     274.2957   -17221.843    80.127092    -17301.97   -11423.892 
  107200    299.43731    -17222.37    87.471443   -17309.842    -9473.073 
  107400    349.66932   -17202.213    102.14519   -17304.359    -6169.656 
  107600    250.33739   -17228.158    73.128405   -17301.286    15765.441 
  107800    270.37918    -17217.55    78.983001   -17296.533   -2465.9335 
  108000    285.79464   -17208.611    83.486154   -17292.097    7405.4986 
  108200    353.17276   -17185.257    103.16861   -17288.426    -8674.372 
  108400    318.24995   -17208.827    92.966979   -17301.794    691.25935 
  108600     301.6995   -17216.975    88.132274   -17305.108    708.52305 
  108800    344.17874   -17197.912    100.54128   -17298.454    -3755.238 
  109000    313.02126   -17206.807    91.439577   -17298.247   -5421.9628 
  109200    314.21908   -17217.849    91.789485   -17309.638    2753.9748 
  109400    289.52262   -17199.998     84.57517   -17284.573    9470.2391 
  109600    304.56215   -17212.135    88.968507   -17301.103    11170.484 
  109800    259.50892   -17218.134    75.807587   -17293.942   -11003.961 
  110000    305.34694   -17212.102    89.197761   -17301.299    1229.9041 
  110200    277.65304   -17235.814    81.107836   -17316.922   -5819.9541 
  110400    270.64151   -17230.459    79.059631   -17309.519   -6697.7717 
  110600    276.24393   -17210.139    80.696208   -17290.835    4401.9294 
  110800    299.14495   -17213.878    87.386038   -17301.264    8639.9596 
  111000    294.02666    -17226.74    85.890888   -17312.631    4835.1253 
  111200    328.50647   -17209.027    95.963107    -17304.99    2415.8555 
  111400    314.07574   -17210.877    91.747612   -17302.625     -2419.42 
  111600    274.41683   -17219.766    80.162475   -17299.928    2331.4657 
  111800    266.82349    -17238.72    77.944314   -17316.665    12429.428 
  112000    323.28457   -17213.705    94.437691   -17308.143   -641.72239 
  112200    296.27284   -17201.267    86.547039   -17287.814   -8364.8205 
  112400    310.34237   -17211.589    90.657024   -17302.246    13258.397 
  112600    283.10243   -17224.441    82.699709   -17307.141   -5496.4946 
  112800    304.93278   -17204.252    89.076775   -17293.329   -5843.2906 
  113000    271.37311   -17210.264    79.273345   -17289.537   -6120.7929 
  113200    293.09194   -17223.428    85.617838   -17309.046    7760.9931 
  113400    297.76993   -17225.251    86.984368   -17312.236    9968.4484 
  113600    326.77588   -17199.296    95.457568   -17294.754   -4420.7191 
  113800    278.47576   -17213.234    81.348166   -17294.582    2842.0261 
  114000    222.71684   -17238.435    65.059905   -17303.495    13315.757 
  114200    283.23733   -17224.106    82.739114   -17306.845    7796.6012 
  114400    309.86189   -17210.905    90.516663   -17301.422   -10665.134 
  114600    287.03523   -17226.404    83.848554   -17310.252    8151.5944 
  114800    301.48373    -17222.27    88.069241    -17310.34    6656.6304 
  115000    304.07198   -17213.123    88.825321   -17301.948   -11372.354 
  115200    297.72358   -17219.189     86.97083    -17306.16    7935.1309 
  115400    285.57506     -17237.8    83.422011   -17321.222    633.06356 
  115600    283.80204   -17216.015    82.904078   -17298.919   -8205.0972 
  115800    309.54317   -17203.387     90.42356   -17293.811   -4410.7844 
  116000    312.38293   -17221.068     91.25311   -17312.321    1898.1141 
  116200    306.39459   -17216.931    89.503799   -17306.435   -4960.1261 
  116400    297.43405   -17206.612    86.886251   -17293.498   -8906.4157 
  116600     350.2101   -17179.862    102.30316   -17282.165     837.0837 
  116800    318.92725   -17201.987    93.164833   -17295.151     9207.617 
  117000    247.97328   -17219.071    72.437803   -17291.509    -2190.941 
  117200    327.79504   -17196.467    95.755285   -17292.222   -122.51986 
  117400    313.19781   -17213.873    91.491153   -17305.364   -7214.6168 
  117600    288.77987   -17212.576    84.358198   -17296.934     1084.758 
  117800    314.95398   -17207.372    92.004163   -17299.376    4119.9717 
  118000    274.04899   -17212.118    80.055023   -17292.173   -12487.032 
  118200     300.3452   -17207.134    87.736656   -17294.871   -11301.118 
  118400     324.0735   -17211.729    94.668152   -17306.397    8714.4733 
  118600    278.37823   -17218.901    81.319678   -17300.221   -8975.6909 
  118800    321.90997   -17194.595    94.036141   -17288.631   -4238.1254 
  119000     322.7921   -17195.736    94.293829    -17290.03    8422.7335 
  119200     314.6036   -17215.025     91.90181   -17306.927    7396.4634 
  119400    268.01798   -17224.687    78.293247    -17302.98   -5876.0744 
  119600    330.93467   -17200.946    96.672432   -17297.619   -14911.813 
  119800    314.76833    -17211.69    91.949931    -17303.64    3858.0173 
  120000    269.01522    -17232.07     78.58456   -17310.655   -10114.137 
  120200    286.41381   -17235.927    83.667026   -17319.594    10417.268 
  120400    289.62674   -17218.137    84.605586   -17302.743   -569.61816 
  120600    323.57162   -17208.725    94.521543   -17303.247    6672.0368 
  120800    292.18912   -17231.196    85.354105    -17316.55    6216.7828 
  121000    320.00123   -17209.214    93.478564   -17302.693   -2547.1482 
  121200    308.07387   -17211.044     89.99435   -17301.039   -7840.7661 
  121400    276.74804    -17222.96    80.843468   -17303.803   -3307.1952 
  121600    309.83186   -17215.772    90.507894    -17306.28    4130.1561 
  121800    305.22435   -17203.269    89.161949   -17292.431    4940.2123 
  122000    272.63284   -17212.015    79.641336   -17291.656   -6029.2515 
  122200    275.93279   -17230.595    80.605317     -17311.2   -5200.9213 
  122400    310.12826   -17217.142    90.594477   -17307.736   -7298.6828 
  122600     286.0528   -17204.539    83.561567     -17288.1    9129.0637 
  122800    290.48527   -17214.135    84.856379   -17298.991   -8606.5662 
  123000    296.98915   -17226.706    86.756289   -17313.462    3109.4972 
  123200    286.61932   -17198.513    83.727061    -17282.24   -18283.631 
  123400    292.82164    -17216.05    85.538878   -17301.589   -3943.1649 
  123600     302.6357   -17221.318    88.405754   -17309.723   -7518.0824 
  123800    328.83929   -17196.091    96.060332   -17292.151   -4686.7801 
  124000    288.05172   -17208.708    84.145491   -17292.854   -23936.335 
  124200    268.83115   -17220.173    78.530792   -17298.703    8082.0993 
  124400    306.40184   -17224.475    89.505916   -17313.981   -2391.7127 
  124600    306.13617   -17207.062    89.428311    -17296.49    4392.7459 
  124800    309.20062   -17206.871    90.323496   -17297.195    457.61097 
  125000    344.35578   -17192.433      100.593   -17293.026   -13782.961 
  125200    276.35052   -17212.536    80.727345   -17293.264   -2882.4066 
  125400    300.40527   -17198.042    87.754203   -17285.796    -2135.123 
  125600    281.55585   -17223.321    82.247921   -17305.569    -2147.491 
  125800    310.39586   -17207.688    90.672647    -17298.36    2435.9663 
  126000    291.25585   -17208.206    85.081481   -17293.288    8453.2315 
  126200    336.58918   -17209.354    98.324224   -17307.678     12164.38 
  126400    296.85148   -17217.135    86.716072   -17303.851    6848.8087 
  126600    310.12974   -17214.769    90.594909   -17305.364   -3711.2084 
  126800    332.60051   -17196.188    97.159056   -17293.347   -18061.746 
  127000    291.51774   -17218.753    85.157982   -17303.911    2188.3002 
  127200    296.30496   -17223.759    86.556424   -17310.315    2936.5218 
  127400    316.50402   -17200.438     92.45696   -17292.895     114.9792 
  127600    292.60234   -17215.385    85.474814    -17300.86   -8349.1505 
  127800     257.9868   -17226.971    75.362946   -17302.334    5378.0368 
  128000    298.97007   -17206.774    87.334954   -17294.109   -1580.9657 
  128200    328.55468   -17207.186    95.977191   -17303.163    5117.9709 
  128400    247.37271   -17220.859    72.262363   -17293.121    6387.5657 
  128600    339.95542    -17189.88    99.307568   -17289.187     8342.376 
  128800    285.55947   -17212.019    83.417457   -17295.436    1129.4664 
  129000     271.3997   -17224.966    79.281113   -17304.247    1998.4259 
  129200    280.18339   -17207.014       81.847   -17288.861    10130.743 
  129400    300.46686   -17202.594    87.772195   -17290.366   -5363.4474 
  129600    304.99991    -17216.53    89.096387   -17305.626   -1507.6263 
  129800    264.91401   -17237.318    77.386517   -17314.704   -3916.6913 
  130000    268.79262   -17215.807    78.519535   -17294.326    3050.9883 
  130200    288.60577   -17207.043     84.30734   -17291.351    2499.8365 
  130400    273.51501   -17216.792    79.899036   -17296.691    854.80205 
  130600    285.86995    -17221.04    83.508155   -17304.548    7973.3483 
  130800    343.11461   -17196.291    100.23043   -17296.522    -12489.69 
  131000    329.95234   -17215.185    96.385474    -17311.57   -19599.611 
  131200    273.01677   -17220.133     79.75349   -17299.886    480.63183 
  131400    332.23532   -17189.282    97.052378   -17286.334   -13465.713 
  131600     288.4787   -17206.077    84.270219   -17290.348   -5190.2948 
  131800    314.38174   -17213.535    91.836999   -17305.372    8862.2648 
  132000    275.38267   -17220.608    80.444617   -17301.053    7030.1983 
  132200    316.12987   -17192.927    92.347664   -17285.275   -5051.5053 
  132400    274.28053   -17215.943    80.122659   -17296.066   -3769.1429 
  132600    300.44627   -17216.195    87.766181   -17303.961    3814.1966 
  132800     304.8504    -17206.17    89.052712   -17295.222   -4771.6332 
  133000    335.37534   -17198.201    97.969639   -17296.171    15397.528 
  133200    286.66363   -17223.805    83.740003   -17307.545    1211.8291 
  133400    309.99578   -17209.862    90.555778   -17300.418    1013.7491 
  133600    353.67195   -17182.185    103.31443     -17285.5    -6523.163 
  133800    322.26477   -17205.846    94.139786   -17299.986    -8739.046 
  134000    317.60629   -17217.565    92.778953   -17310.344   -145.13703 
  134200    263.04014   -17230.234    76.839125   -17307.074   -4792.6931 
  134400    343.21452   -17202.013    100.25962   -17302.273    10456.606 
  134600    275.03687   -17218.147      80.3436   -17298.491    3027.7698 
  134800    284.74132    -17214.24     83.17846   -17297.419   -8453.8376 
  135000    315.42644   -17203.303    92.142177   -17295.445    1350.0783 
  135200    311.67529   -17215.276    91.046394   -17306.323   -3007.1137 
  135400    286.84871   -17218.569    83.794068   -17302.363    13469.473 
  135600    264.15923   -17219.593    77.166032   -17296.759   -7781.1877 
  135800    282.03979   -17205.184     82.38929   -17287.573    11924.137 
  136000    298.90926   -17217.098     87.31719   -17304.415   -6921.4869 
  136200    304.86462   -17209.329    89.056867   -17298.386   -10558.485 
  136400    245.03345   -17218.608     71.57902   -17290.187    -187.2613 
  136600    351.28492   -17200.062    102.61713   -17302.679   -2599.0173 
  136800    290.45172   -17216.593    84.846579    -17301.44   -6600.9627 
  137000    295.98083   -17213.423    86.461737   -17299.885    -9628.238 
  137200    303.63414    -17211.41    88.697418   -17300.108    8703.6395 
  137400    285.87116   -17206.215    83.508508   -17289.723   -8157.1421 
  137600    294.00958   -17204.995    85.885898   -17290.881    174.78205 
  137800    284.33032   -17223.185      83.0584   -17306.244    686.01552 
  138000     314.3773   -17199.764    91.835703     -17291.6    6150.5922 
  138200    306.14782   -17207.058    89.431713    -17296.49    7557.3788 
  138400    267.43648   -17236.251    78.123381   -17314.375    2741.3067 
  138600    261.14097   -17221.985     76.28434    -17298.27   -3220.4589 
  138800    322.15921   -17205.221     94.10895    -17299.33   -14248.472 
  139000     286.8069    -17215.51    83.781856   -17299.292    8612.0948 
  139200    297.27648   -17220.556    86.840222   -17307.396   -2363.9241 
  139400    291.83331   -17203.734    85.250167   -17288.984   -7204.9043 
  139600    330.37447   -17209.855    96.508786   -17306.364    2841.6177 
  139800    280.42809    -17213.09    81.918481   -17295.009    15785.726 
  140000    356.28409   -17186.021    104.07749   -17290.098   -8426.7373 
  140200    283.47062   -17206.778    82.807264   -17289.585    2136.7762 
  140400    284.22048   -17213.162     83.02631   -17296.188   -8537.8582 
  140600    335.57617   -17201.486    98.028303   -17299.514    3989.9045 
  140800    275.83049   -17200.318    80.575433   -17280.893   -9298.9145 
  141000    292.69514   -17216.521    85.501924   -17302.023   -483.67228 
  141200    351.89403    -17196.55    102.79507   -17299.345    3489.2079 
  141400    286.58232   -17219.359     83.71625   -17303.076   -2903.5398 
  141600    318.55109   -17211.607    93.054948   -17304.662   -9727.8412 
  141800    334.43834   -17204.965    97.695921   -17302.661    8085.7027 
  142000    271.09309   -17227.137    79.191545   -17306.328   -935.14937 
  142200    318.95823   -17208.504    93.173882   -17301.678   -14387.153 
  142400    306.60989   -17207.124    89.566692   -17296.691    7440.9568 
  142600    319.73384   -17211.656    93.400452   -17305.057    4820.1734 
  142800    265.33431   -17228.925    77.509295   -17306.434    4083.8469 
  143000    283.95486   -17203.447    82.948718   -17286.395   -3441.4684 
  143200    300.96763   -17212.766    87.918478   -17300.685   -5366.7128 
  143400    288.77203   -17218.505    84.355909   -17302.861   -6721.2957 
  143600    336.59041   -17198.283    98.324582   -17296.608     2192.682 
  143800    269.41631   -17218.873    78.701728   -17297.575   -1618.0202 
  144000    358.70157   -17205.973    104.78368   -17310.756    2917.9312 
  144200    303.49833   -17203.012    88.657747   -17291.669   -13090.297 
  144400    297.59653   -17216.741    86.933715   -17303.675    12122.872 
  144600    385.72988   -17189.845    112.67918   -17302.524    4233.2013 
  144800    282.43228   -17197.951    82.503943   -17280.455   -4565.0487 
  145000    318.81713   -17211.517    93.132664    -17304.65    4933.0618 
  145200    265.92473    -17223.93    77.681769   -17301.612   -2292.8806 
  145400    322.38791   -17195.408    94.175758   -17289.583   -929.13973 
  145600    263.42743   -17216.735    76.952259   -17293.687    3449.2301 
  145800    317.76798   -17207.058    92.826188   -17299.884   -8272.6294 
  146000    344.73652   -17184.601    100.70422   -17285.305    1727.9348 
  146200    300.97474   -17210.958    87.920555   -17298.878    22752.619 
  146400    281.18662   -17220.772    82.140061   -17302.912   -6550.9386 
  146600    301.10021   -17210.834    87.957207   -17298.791   -5090.9189 
  146800    306.98085   -17198.067    89.675056   -17287.742    3289.6035 
  147000    311.99508   -17219.305    91.139811   -17310.445    4284.0439 
  147200    316.59143   -17208.795    92.482495   -17301.278   -406.47224 
  147400    309.84267   -17190.739    90.511051    -17281.25   -555.22461 
  147600    305.71873   -17209.822    89.306368   -17299.129   -2433.6093 
  147800    269.22453   -17216.908    78.645704   -17295.554    8207.7684 
  148000    281.86283   -17211.624    82.337596   -17293.962   -2403.1402 
  148200    303.89742    -17195.04    88.774326   -17283.814    12439.723 
  148400    307.38921   -17216.417    89.794347   -17306.212    388.74945 
  148600    293.07548   -17211.124     85.61303   -17296.737   -748.03585 
  148800    355.05669   -17191.907    103.71894   -17295.626    2010.2939 
  149000    291.90026   -17197.429    85.269724   -17282.699     14397.05 
  149200    291.90035   -17214.972     85.26975   -17300.242   -7293.1391 
  149400    333.74127   -17208.099    97.492294   -17305.591    2754.4828 
  149600     390.2312   -17193.708     113.9941   -17307.702    1762.1807 
  149800    283.99415   -17211.635    82.960197   -17294.596    3215.2447 
  150000    325.93811   -17202.857    95.212839   -17298.069   -4101.8372 
  150200    289.38101   -17209.257    84.533802   -17293.791    -7971.197 
  150400     302.6935   -17215.002    88.422638   -17303.425   -2600.2146 
  150600    358.35203   -17196.958    104.68158    -17301.64    493.63637 
  150800    278.12618   -17203.208    81.246048   -17284.454   -2086.9683 
  151000    273.14371   -17227.825    79.790572   -17307.615    7874.8695 
  151200     278.4062   -17215.174    81.327847   -17296.501    6662.2205 
  151400    319.71968   -17207.393    93.396317    -17300.79   -5206.9732 
  151600    296.48836   -17218.008    86.609998   -17304.618   -4599.0948 
  151800    257.82016   -17232.333    75.314268   -17307.647   -20490.639 
  152000    297.28144   -17211.622    86.841672   -17298.464    874.24116 
  152200    353.23803   -17197.375    103.18768   -17300.563   -5942.5487 
  152400    295.68959   -17215.325    86.376662   -17301.702   -6732.7738 
  152600    275.78704   -17220.355     80.56274   -17300.918   -3001.0915 
  152800     329.0532   -17197.769    96.122818   -17293.892   -164.28009 
  153000    267.33113   -17217.588    78.092605    -17295.68   -12704.418 
  153200    250.28608   -17212.332    73.113415   -17285.445   -2250.5152 
  153400    259.55715   -17210.556    75.821674   -17286.378    7199.9751 
  153600    268.32605   -17211.207     78.38324    -17289.59    3023.6317 
  153800    338.16586   -17189.467    98.784802   -17288.252   -8753.1058 
  154000    301.17714   -17215.467    87.979682   -17303.447    11406.139 
  154200    307.28978   -17210.725    89.765303    -17300.49    3181.0805 
  154400    353.60496   -17188.459    103.29486   -17291.754   -20274.146 
  154600    300.39876   -17210.003    87.752301   -17297.756    3983.3242 
  154800    313.68524   -17217.865     91.63354   -17309.498    625.45446 
  155000    281.00409   -17205.771    82.086743   -17287.858    6752.6687 
  155200    324.32983   -17200.959    94.743031   -17295.702    692.99286 
  155400      264.225   -17218.499    77.185243   -17295.685    -3416.272 
  155600    330.75828   -17205.177    96.620906   -17301.798    7605.7041 
  155800    257.53855   -17232.771    75.232002   -17308.003   -3686.8673 
  156000    259.04161    -17224.42    75.671076   -17300.091   -64.694417 
  156200    299.70816   -17208.151    87.550562   -17295.702    6195.6502 
  156400    325.56993   -17188.562    95.105288   -17283.667    1174.1276 
  156600     312.0946   -17206.188    91.168883   -17297.357   -7941.4696 
  156800    292.26756   -17223.937     85.37702   -17309.314    12725.766 
  157000    273.76006   -17209.034    79.970622   -17289.005   -4854.5878 
  157200    285.12072   -17204.275    83.289288   -17287.564   -102.94859 
  157400    261.57305   -17221.779    76.410558    -17298.19     7979.403 
  157600    327.53745   -17196.071    95.680038   -17291.751    5803.1344 
  157800    238.51452   -17212.256    69.674716   -17281.931   -5282.9274 
  158000    293.92977    -17212.43    85.862583   -17298.292    1964.3361 
  158200    280.07062   -17208.086    81.814059     -17289.9   -3986.3551 
  158400     314.8749   -17199.484    91.981063   -17291.465    3827.8704 
  158600    288.57699   -17220.005    84.298933   -17304.304    -887.8818 
  158800     316.1897   -17207.676    92.365142   -17300.041   -12995.476 
  159000    322.62676    -17195.71    94.245531   -17289.956    4583.9792 
  159200    308.69645   -17214.829    90.176218   -17305.005   -7423.3138 
  159400    236.15158   -17240.723    68.984453   -17309.708    3853.6437 
  159600    285.27366   -17223.775    83.333967   -17307.109   -3670.0811 
  159800    300.69888    -17205.87    87.839972    -17293.71    -11022.18 
  160000    310.26523   -17207.467     90.63449   -17298.102    13005.766 
  160200     235.1257   -17227.415    68.684775     -17296.1   -15892.791 
  160400    302.67952   -17203.718    88.418556   -17292.136   -1914.7374 
  160600    344.65737   -17205.311     100.6811   -17305.992     8482.579 
  160800    258.43231    -17224.74    75.493088   -17300.233    8022.2423 
  161000    320.30059    -17211.04     93.56601   -17304.606   -224.52141 
  161200     313.3053   -17200.688     91.52255    -17292.21   -2291.5976 
  161400    262.59558   -17218.721     76.70926   -17295.431   -4557.9791 
  161600    280.33591   -17215.491    81.891553   -17297.383   -1949.5848 
  161800    306.32014   -17208.061     89.48205   -17297.543   -2953.8262 
  162000    305.08471   -17183.244    89.121158   -17272.366    -4529.121 
  162200    319.50715   -17209.263    93.334233   -17302.597   -2185.1084 
  162400    304.31705   -17211.209     88.89691   -17300.106    1565.4878 
  162600    265.45652   -17216.293    77.544996   -17293.838    12054.393 
  162800    277.06765   -17208.069    80.936831   -17289.006    4820.2762 
  163000    295.90509   -17201.768    86.439612   -17288.207    3724.2268 
  163200    254.27747   -17223.895    74.279377   -17298.174    2794.9502 
  163400    302.21356     -17208.5    88.282439   -17296.782    1549.9923 
  163600    319.49161   -17195.444    93.329692   -17288.773   -1106.3443 
  163800    278.57108   -17216.577    81.376014   -17297.953   -6788.0497 
  164000    301.43501   -17211.149     88.05501   -17299.204   -7323.5132 
  164200    300.18988   -17190.785    87.691283   -17278.476    -1642.733 
  164400    259.94324    -17213.49     75.93446   -17289.425    4416.9158 
  164600    298.12428   -17214.588    87.087881   -17301.676    2025.2416 
  164800    299.00199   -17193.242    87.344277   -17280.586     2250.768 
  165000    291.10687    -17217.67     85.03796   -17302.708   -2477.9563 
  165200    306.96953   -17212.819    89.671752    -17302.49   -5161.9384 
  165400    320.31198   -17200.278    93.569338   -17293.847    187.38223 
  165600    327.62283    -17194.95    95.704978   -17290.655    12499.181 
  165800    308.88341    -17219.16    90.230832   -17309.391   -12305.783 
  166000    286.65959   -17215.428    83.738822   -17299.167   -6132.6949 
  166200    352.12961   -17203.223    102.86388   -17306.087   -2109.7276 
  166400    276.52603   -17219.489    80.778615   -17300.268     848.0927 
  166600    263.37758   -17226.133    76.937697    -17303.07    4655.4744 
  166800    328.03135   -17204.515    95.824316   -17300.339   -9956.1974 
  167000    283.31686   -17205.534    82.762347   -17288.296    9683.6954 
  167200    291.93314   -17221.239    85.279329   -17306.518    6415.4802 
  167400    351.04702   -17195.991    102.54764   -17298.539    6037.9461 
  167600    299.03506    -17211.99    87.353937   -17299.344    5261.3926 
  167800    302.84285   -17208.238    88.466267   -17296.704    -5602.078 
  168000    338.32067   -17183.896    98.830026   -17282.726    6401.8865 
  168200    285.18176   -17209.429     83.30712   -17292.736    4440.3495 
  168400    317.81749    -17209.92    92.840651   -17302.761      7754.01 
  168600    286.79226   -17197.317    83.777579   -17281.095    1793.8811 
  168800    300.31862   -17217.687     87.72889   -17305.416    3783.4186 
  169000    288.36473   -17211.438    84.236929   -17295.675     3126.783 
  169200    268.01148    -17226.77    78.291349   -17305.061   -3857.8477 
  169400    302.25855    -17218.15    88.295583   -17306.445    2802.3368 
  169600    303.21711   -17204.535    88.575597    -17293.11    990.24544 
  169800    271.64878   -17211.367    79.353874   -17290.721    7248.1559 
  170000    295.00443   -17224.422    86.176512   -17310.599   -6572.4297 
  170200    323.52229   -17199.046    94.507133   -17293.553    -8334.288 
  170400    286.30854   -17212.979    83.636274   -17296.615    4161.8121 
  170600     330.9011   -17207.467    96.662624    -17304.13   -2563.4809 
  170800    302.22961    -17210.06    88.287129   -17298.347    -1293.422 
  171000    285.97648   -17214.888    83.539274   -17298.427    3382.0062 
  171200      337.227   -17199.594    98.510544   -17298.104   -14753.332 
  171400     309.1102   -17214.393    90.297083    -17304.69   -554.12665 
  171600    282.14187   -17214.457    82.419109   -17296.876    7453.0578 
  171800    307.51724   -17206.804    89.831748   -17296.635   -5110.6319 
  172000    267.32373   -17230.827    78.090442   -17308.917    8986.0079 
  172200    258.12599   -17223.562    75.403606   -17298.966   -11885.498 
  172400    329.63037   -17210.143    96.291421   -17306.434    6181.7053 
  172600    293.04906   -17219.448     85.60531   -17305.054    4864.9584 
  172800    283.33081   -17215.748    82.766423   -17298.515    12488.106 
  173000    329.25793   -17206.914    96.182625   -17303.097   -3576.4094 
  173200     300.3357   -17225.757    87.733879    -17313.49    5762.5377 
  173400    308.85169   -17218.114    90.221567   -17308.336    -5318.779 
  173600    324.63272   -17213.089    94.831512   -17307.921    1589.3829 
  173800    339.39423   -17195.609    99.143633   -17294.753   -2541.5782 
  174000    275.11159   -17219.086    80.365428   -17299.451    11040.671 
  174200    307.71013   -17218.213    89.888094   -17308.101   -4916.8085 
  174400    353.81229   -17200.739    103.35543   -17304.094   -1721.7178 
  174600    296.54761   -17208.359    86.627304   -17294.987   -1909.8949 
  174800    302.75432   -17225.002    88.440404   -17313.443   -1032.4897 
  175000    285.73743   -17210.859    83.469443   -17294.328   -9314.1169 
  175200    313.01847   -17191.694    91.438763   -17283.133   -1610.2471 
  175400    287.94869   -17221.183    84.115394   -17305.298   -481.00804 
  175600    310.54303   -17211.345    90.715638    -17302.06    4268.7712 
  175800    301.38647   -17207.288    88.040829   -17295.329   -4389.4964 
  176000    268.97163   -17225.776    78.571826   -17304.348    3181.7785 
  176200    322.17643   -17198.099    94.113981   -17292.213    5297.4628 
  176400    292.64717   -17204.385    85.487912   -17289.873   -3160.5404 
  176600    291.65465   -17221.994    85.197977   -17307.192   -2644.9195 
  176800     318.8759   -17203.372    93.149832   -17296.522    8165.0163 
  177000    314.32139   -17203.472    91.819371   -17295.292   -5727.1973 
  177200    300.98368   -17207.587    87.923167    -17295.51    11640.585 
  177400    328.50784   -17207.922     95.96351   -17303.886    3184.3445 
  177600    277.35363   -17223.307    81.020372   -17304.328   -989.39935 
  177800    310.91401   -17204.234    90.824009   -17295.058    5480.9245 
  178000    254.87612   -17229.823    74.454255   -17304.277    4829.1066 
  178200     317.5196    -17222.01    92.753629   -17314.763   -1328.3022 
  178400    300.96552   -17208.541    87.917863   -17296.459    5319.5064 
  178600    285.84506   -17208.217    83.500883   -17291.717    9746.2754 
  178800      320.731   -17215.138    93.691741   -17308.829    4409.3137 
  179000    294.33765   -17218.474    85.981734   -17304.456    12882.858 
  179200    335.30423    -17194.29    97.948865   -17292.239   -3347.2793 
  179400     296.0049   -17207.548     86.46877   -17294.016    13082.015 
  179600    305.73859   -17219.966    89.312168   -17309.278    1798.1625 
[...]
  950000    292.89482   -17270.578    85.560254   -17356.138    -1868.854 
  950200    259.80725   -17273.919    75.894733   -17349.814    10019.212 
  950400    321.69392   -17258.143    93.973031   -17352.116    476.57091 
  950600    316.07864    -17279.03    92.332698   -17371.363   -16029.261 
  950800    294.03886   -17276.059    85.894452   -17361.953    8932.0251 
  951000    335.76979   -17256.556    98.084866   -17354.641    1739.9472 
  951200    296.38762    -17282.41    86.580568    -17368.99    3487.3245 
  951400    316.90681   -17275.452    92.574622   -17368.027    4588.9924 
  951600    323.77226   -17262.203    94.580154   -17356.784    11738.518 
  951800    255.11995    -17284.68    74.525483   -17359.206    14792.603 
  952000    326.20114   -17273.711    95.289677       -17369   -6099.7672 
  952200     276.4659   -17268.221    80.761048   -17348.982   -3576.8729 
  952400    313.06068   -17269.532    91.451094   -17360.983    6665.6473 
  952600    247.88613   -17296.236    72.412345   -17368.648   -1930.0431 
  952800    316.50473   -17276.789    92.457168   -17369.246    4936.6092 
  953000    302.08708   -17269.525    88.245493    -17357.77   -758.31767 
  953200    325.10526   -17264.926    94.969549   -17359.895    7365.7738 
  953400    305.14388   -17282.201    89.138444   -17371.339   -2.0310428 
  953600    339.59063   -17260.185    99.201007   -17359.386    6788.7678 
  953800    280.86722   -17271.129    82.046758   -17353.176   -1983.7966 
  954000    303.46236   -17280.056    88.647239   -17368.703    326.46488 
  954200    285.10369    -17277.72    83.284314   -17361.004   -4694.3575 
  954400    282.20131   -17262.871    82.436472   -17345.308    4991.0496 
  954600    300.88762   -17284.142    87.895106   -17372.037     9269.572 
  954800    289.51605   -17277.679    84.573249   -17362.252   -12734.543 
  955000    293.00548   -17275.949    85.592582   -17361.542   -2470.9433 
  955200     377.9028   -17244.854    110.39273   -17355.247    2834.6127 
  955400    276.52763   -17264.975    80.779081   -17345.754   -4045.6408 
  955600    291.25048    -17279.55     85.07991    -17364.63   -14165.443 
  955800    340.61338   -17263.151    99.499772   -17362.651   -5332.1486 
  956000     273.4039   -17265.117     79.86658   -17344.984    2571.1197 
  956200    303.20011   -17271.384    88.570628   -17359.954    1607.0444 
  956400    277.45205   -17276.281    81.049123    -17357.33   -2681.9543 
  956600    266.42505   -17290.776    77.827921   -17368.604    1520.9172 
  956800    325.43546   -17267.806    95.066005   -17362.872    3357.0065 
  957000    318.80172   -17270.963    93.128161   -17364.091    2681.2883 
  957200    264.65646   -17291.205    77.311283   -17368.516   -3797.0719 
  957400    293.76903   -17267.461    85.815627   -17353.276   -5149.7814 
  957600    300.97891   -17276.833    87.921774   -17364.755    8632.8756 
  957800    299.82346   -17280.947    87.584246   -17368.531   -13964.103 
  958000    328.60148   -17262.219    95.990862    -17358.21    1837.4131 
  958200     267.8364   -17276.847    78.240204   -17355.088    3958.1678 
  958400    298.62479   -17272.717     87.23409   -17359.951    8171.5724 
  958600    289.39362   -17274.315    84.537487   -17358.852    7626.2279 
  958800    259.56996   -17282.214    75.825417    -17358.04   -2653.3486 
  959000    338.72932   -17268.421      98.9494    -17367.37    847.81155 
  959200    273.44466   -17278.826    79.878485   -17358.704    -3539.736 
  959400    288.44916   -17279.709     84.26159   -17363.971      6579.51 
  959600    324.96082   -17271.016    94.927355   -17365.944    6338.9469 
  959800    317.79218   -17271.256    92.833258   -17364.089   -4852.7126 
  960000    304.07265   -17261.137    88.825515   -17349.962   -8856.7685 
  960200    259.96058   -17283.885    75.939525   -17359.824   -3443.8521 
  960400    309.16559   -17269.384    90.313263   -17359.698   -10578.515 
  960600    309.54414   -17246.866    90.423844    -17337.29    9019.7123 
  960800     321.6409   -17256.272    93.957541   -17350.229   -2003.9788 
  961000    298.61955    -17275.99    87.232561   -17363.223   -1796.9673 
  961200    298.26256   -17283.716    87.128275   -17370.844   -3991.6672 
  961400     335.3664   -17259.394    97.967026   -17357.361    11493.491 
  961600    302.29853   -17267.212    88.307261   -17355.519   -2957.6817 
  961800    307.40948   -17287.536    89.800267   -17377.337    4124.4904 
  962000    316.23006   -17268.406     92.37693   -17360.783    6589.6048 
  962200    306.88776   -17265.789    89.647863   -17355.437    2522.7872 
  962400    297.60057   -17275.815    86.934895    -17362.75   -15945.197 
  962600    285.34771   -17272.016    83.355598   -17355.372    4803.3917 
  962800    377.71906   -17249.091    110.33906    -17359.43    4338.1785 
  963000    260.36504   -17274.221    76.057676   -17350.279   -7976.8412 
  963200    300.32145    -17269.42    87.729717   -17357.149    2070.4399 
  963400    261.37459   -17279.527    76.352586    -17355.88   -5000.5152 
  963600    323.96957   -17262.907    94.637793   -17357.545    2867.6621 
  963800    326.29364   -17261.617    95.316697   -17356.934   -518.46809 
  964000    293.89136   -17280.393    85.851364   -17366.244    6299.3397 
  964200    303.19928    -17262.44    88.570386    -17351.01   -377.51213 
  964400    344.11789   -17250.704    100.52351   -17351.228   -3877.3534 
  964600    283.25058   -17279.688    82.742986   -17362.431    800.92802 
  964800     310.3578   -17271.013     90.66153   -17361.675   -11332.468 
  965000     313.3139   -17263.517    91.525065   -17355.042   -1516.8921 
  965200    315.33003   -17270.298    92.114016   -17362.412    10064.908 
  965400    297.81158    -17281.37    86.996535   -17368.366   -5252.9147 
  965600    308.39823   -17280.606    90.089103   -17370.695    2631.5686 
  965800    363.90697   -17264.347    106.30428   -17370.651   -4344.5575 
  966000    319.78954   -17276.636    93.416723   -17370.053    8721.0198 
  966200    329.71259   -17253.347    96.315438   -17349.663   -6197.0238 
  966400    292.19757    -17270.12    85.356575   -17355.476    1540.3876 
  966600    294.28364   -17279.495    85.965957   -17365.461    5329.9881 
  966800    305.39591   -17255.433    89.212064   -17344.645    15095.411 
  967000    327.52789   -17267.718    95.677246   -17363.395    -13017.46 
  967200    265.77813   -17276.675    77.638945   -17354.313    7624.9308 
  967400    369.90396   -17252.564    108.05612    -17360.62    2453.6787 
  967600    298.98134   -17264.102    87.338245   -17351.441   -9394.2225 
  967800    264.74575   -17274.733    77.337366   -17352.071    5807.1835 
  968000    288.63989   -17267.575    84.317306   -17351.892   -9129.1762 
  968200    345.72913   -17250.421    100.99418   -17351.415   -1199.9524 
  968400    307.60694   -17278.335     89.85795   -17368.193    2856.8776 
  968600    308.02299   -17262.917    89.979486   -17352.896    1660.8736 
  968800    273.78055   -17270.623    79.976607   -17350.599   -4863.1807 
  969000    310.55823     -17282.2    90.720078    -17372.92    4561.1632 
  969200    328.33127   -17256.123     95.91193   -17352.035   -1539.0258 
  969400    306.59777   -17264.902    89.563153   -17354.465    5612.5904 
  969600    266.07182   -17273.761    77.724736   -17351.485   -500.60371 
  969800    293.73403   -17266.455    85.805403   -17352.261    14087.009 
  970000    298.30066   -17259.817    87.139405   -17346.956   -15145.537 
  970200    280.44452   -17279.608    81.923282   -17361.531    12325.866 
  970400    292.16215    -17273.66    85.346228   -17359.006     249.9968 
  970600     331.7857   -17260.381    96.921034   -17357.302    6820.3132 
  970800    248.87006   -17276.586    72.699768   -17349.286    -2324.656 
  971000    299.81183   -17277.152    87.580848   -17364.733    4013.4622 
  971200    356.21805   -17253.681     104.0582   -17357.739    5287.6039 
  971400    267.09271   -17279.909    78.022957   -17357.932   -1428.7815 
  971600     280.9093   -17273.777    82.059053   -17355.836    8801.6644 
  971800    343.36232   -17255.785    100.30279   -17356.088     1682.652 
  972000    296.90009   -17274.882    86.730272   -17361.612    5017.1548 
  972200     286.7881   -17278.815    83.776364   -17362.591    4312.8281 
  972400    322.79318   -17261.017    94.294145   -17355.311   -3431.5447 
  972600    247.44425   -17286.922    72.283263   -17359.205    4247.6618 
  972800    321.97847   -17271.012    94.056154   -17365.068    2483.4031 
  973000    345.56896   -17254.495    100.94739   -17355.442   -3658.8988 
  973200     339.3607    -17262.43     99.13384   -17361.564    -5127.105 
  973400    293.17325   -17277.921    85.641588   -17363.562   -10356.735 
  973600    270.64867   -17266.793    79.061724   -17345.855   -3150.7666 
  973800    298.53316   -17271.099    87.207324   -17358.306   -8237.2352 
  974000     292.9753   -17271.409    85.583765   -17356.993    -2148.274 
  974200    324.55286   -17269.512    94.808181    -17364.32    3823.6649 
  974400    295.44191   -17288.969    86.304308   -17375.273   -1725.8813 
  974600     310.9684   -17267.602    90.839898   -17358.442    3900.6455 
  974800    301.02463   -17264.285     87.93513    -17352.22    2693.2152 
  975000    291.76797   -17280.085     85.23108   -17365.316    911.26149 
  975200    293.29732   -17279.754    85.677834   -17365.432   -8315.7476 
  975400    294.43201   -17267.944    86.009298   -17353.953   -4611.8747 
  975600    281.68431   -17277.083    82.285447   -17359.369   -3514.6751 
  975800    280.96036   -17267.964    82.073967   -17350.038   -11907.927 
  976000    301.69279   -17259.093    88.130311   -17347.223    10181.348 
  976200    292.97399   -17282.755    85.583383   -17368.339   -3787.5294 
  976400    283.29213    -17277.36    82.755123   -17360.115    8848.1307 
  976600    289.88451   -17271.568    84.680885   -17356.249    -2450.125 
  976800    310.17957   -17243.585    90.609465   -17334.194   -5640.8596 
  977000    297.97142   -17269.626    87.043228   -17356.669   -1957.9306 
  977200    280.80806   -17276.397    82.029477   -17358.427    7898.9519 
  977400    333.69263   -17257.915    97.478085   -17355.394    623.61997 
  977600    306.39076   -17282.899    89.502682   -17372.401   -7527.7686 
  977800    306.10493   -17273.986    89.419183   -17363.405    125.78098 
  978000    295.77896   -17270.859    86.402767   -17357.262    1994.7134 
  978200    387.98185   -17246.046    113.33702   -17359.383    7391.2456 
  978400    273.19894   -17273.772    79.806708   -17353.579    4395.6369 
  978600    293.82002   -17267.165    85.830524   -17352.996   -3951.0202 
  978800    309.38262   -17269.037    90.376661   -17359.413     2412.582 
  979000    265.76174   -17280.266    77.634156     -17357.9   -9973.9114 
  979200    316.89782    -17268.89    92.571997   -17361.462      2126.41 
  979400    294.68815   -17269.814    86.084121   -17355.898    1392.0955 
  979600    301.00788   -17277.975    87.930236   -17365.906    7448.0564 
  979800    282.77276   -17283.229    82.603404   -17365.833   -4166.2511 
  980000    345.26007   -17261.359    100.85716   -17362.216    7511.4757 
  980200    285.79459   -17273.332     83.48614   -17356.819    1517.6667 
  980400    254.26945   -17281.974    74.277035   -17356.251    6365.3042 
  980600    321.98339   -17270.712    94.057591   -17364.769    3687.1804 
  980800     284.6996   -17263.254    83.166273    -17346.42    9192.6819 
  981000    306.46023    -17273.92    89.522973   -17363.443   -5176.7208 
  981200     248.7046   -17284.888    72.651435   -17357.539   -10223.472 
  981400    331.85415   -17262.644     96.94103   -17359.585    292.81177 
  981600    287.62645   -17283.885    84.021262   -17367.907     2958.562 
  981800     282.1223   -17268.588    82.413394   -17351.001    5025.1251 
  982000     323.0208   -17261.783    94.360636   -17356.144    3510.6619 
  982200    284.62371   -17275.674    83.144103   -17358.818   -14090.628 
  982400     322.9504    -17259.88    94.340071    -17354.22    7867.3315 
  982600    275.97901   -17275.291    80.618819    -17355.91    -5835.663 
  982800    287.14092   -17277.195    83.879429   -17361.075    8750.2673 
  983000    275.34039    -17271.01    80.432264   -17351.442    8560.1545 
  983200    309.61677   -17270.274    90.445061   -17360.719   -3163.5372 
  983400    256.86812   -17293.382    75.036158   -17368.419   -6358.5108 
  983600    270.41229   -17285.684    78.992673   -17364.677   -9254.4332 
  983800    313.62685   -17266.533    91.616481   -17358.149    2545.0943 
  984000    310.59618   -17264.671    90.731166   -17355.402    4398.9229 
  984200     274.6014    -17284.85    80.216391   -17365.067     1028.929 
  984400    339.74156   -17270.578    99.245096   -17369.824    12089.064 
  984600    290.34691   -17261.886     84.81596   -17346.702     5469.414 
  984800    304.01002   -17272.504     88.80722   -17361.311   -12694.233 
  985000     305.5406   -17284.974    89.254332   -17374.228    773.29391 
  985200    302.62987   -17275.136    88.404051    -17363.54     5053.192 
  985400    295.87909   -17268.885    86.432019   -17355.317   -11158.793 
  985600     299.0839   -17264.467    87.368206   -17351.836    12466.915 
  985800    334.39944   -17276.062     97.68456   -17373.747   -1925.3274 
  986000    281.53392   -17275.296    82.241516   -17357.538   -630.93278 
  986200    312.96736   -17271.669    91.423834   -17363.093    1884.4284 
  986400    310.58743   -17269.242    90.728609   -17359.971    2330.5101 
  986600    332.88846   -17252.183    97.243174   -17349.426    4397.5907 
  986800    282.00884   -17277.904    82.380249   -17360.285    -1248.112 
  987000    338.31729    -17266.77    98.829038   -17365.599   -5638.8636 
  987200    280.02445   -17289.818    81.800569   -17371.619    4088.2592 
  987400    300.84137   -17269.698    87.881596   -17357.579   -8684.7741 
  987600    305.42514   -17273.145    89.220604   -17362.366    7856.0438 
  987800    292.62277   -17272.562    85.480782   -17358.043    3148.8907 
  988000    264.27917   -17278.392     77.20107   -17355.593   -3507.8647 
  988200     323.6023    -17266.74    94.530506    -17361.27   -5419.7611 
  988400    302.67456   -17263.462    88.417105   -17351.879    10047.062 
  988600    311.90725   -17272.743    91.114153   -17363.857   -6895.2984 
  988800    250.41575   -17284.653    73.151296   -17357.804   -1264.0916 
  989000    307.42717   -17283.377    89.805436   -17373.182    4004.2894 
  989200    322.60236   -17259.639    94.238404   -17353.877    620.21428 
  989400    279.65198   -17268.907    81.691763   -17350.599   -3808.5264 
  989600    265.76257   -17286.068    77.634399   -17363.703    725.31323 
  989800    337.81682   -17268.472    98.682843   -17367.155   -5578.2144 
  990000    252.24127    -17287.36    73.684563   -17361.045   -3214.7637 
  990200    339.09991   -17276.655    99.057656   -17375.712   -9338.5504 
  990400    336.79405   -17268.663     98.38407   -17367.047    7408.3384 
  990600    283.57734   -17281.592    82.838437    -17364.43    4357.0487 
  990800    344.67284   -17266.646    100.68562   -17367.331    4214.5309 
  991000    368.94444   -17247.556    107.77582   -17355.331    4637.9196 
  991200    294.84816    -17276.79    86.130863   -17362.921   -1268.8115 
  991400    329.58619   -17267.804    96.278516   -17364.083    8667.1472 
  991600    355.82255   -17249.008    103.94266   -17352.951     1766.468 
  991800    290.47032   -17275.995    84.852011   -17360.847   -1287.4665 
  992000    301.91352   -17264.912    88.194793   -17353.107   -5013.5568 
  992200    379.77326   -17248.102    110.93913   -17359.042    4900.7022 
  992400    310.79042    -17274.11    90.787906   -17364.898    1096.2128 
  992600    305.88419    -17285.21    89.354703   -17374.565    6122.8726 
  992800    282.60406   -17277.778    82.554125   -17360.333   -10647.276 
  993000    295.19877   -17267.608    86.233282   -17353.841    1691.7845 
  993200    263.29204   -17285.909     76.91271   -17362.822   -4467.2511 
  993400    308.82998   -17262.733    90.215223   -17352.948   -2763.4486 
  993600    298.29945     -17275.4    87.139051   -17362.539    3271.9339 
  993800    253.21707   -17290.062    73.969616   -17364.032   -15314.669 
  994000    330.46073   -17264.874    96.533984   -17361.408   -384.61708 
  994200    301.71023   -17268.382    88.135407   -17356.518    3893.7229 
  994400    261.91632   -17286.622    76.510835   -17363.133   -15987.252 
  994600    332.91466   -17269.535    97.250827   -17366.786    7612.9389 
  994800    305.79087   -17266.896    89.327442   -17356.223   -12559.884 
  995000    256.19861   -17276.388    74.840581   -17351.228    9337.3271 
  995200    287.02217   -17276.837    83.844741   -17360.681    4557.2477 
  995400    336.85775   -17254.423     98.40268   -17352.825    2906.5185 
  995600    296.65979   -17274.179    86.660075   -17360.839    4364.9869 
  995800    295.09673   -17274.345    86.203476   -17360.548   -5059.4511 
  996000    321.17926   -17267.133    93.822689   -17360.956   -12069.394 
  996200    321.35626   -17250.311    93.874393   -17344.185   -8673.1926 
  996400    277.55838   -17278.286    81.080183   -17359.366    5812.9398 
  996600    285.30466   -17269.049    83.343021   -17352.392   -7767.6527 
  996800    340.14929   -17246.215    99.364201    -17345.58   -11308.393 
  997000    279.97088   -17271.486    81.784921   -17353.271     6561.869 
  997200    305.58551   -17275.557    89.267452   -17364.824    5943.1627 
  997400    297.08515   -17279.853    86.784333   -17366.638    30.053828 
  997600    294.81938   -17262.469    86.122456   -17348.591   -10063.045 
  997800    329.25057    -17273.19    96.180473    -17369.37   -8862.8939 
  998000    314.72688   -17276.837    91.937822   -17368.775   -3028.0159 
  998200    300.08731   -17264.391     87.66132   -17352.052    -3896.013 
  998400    357.95561   -17247.434    104.56577       -17352    423.98179 
  998600    296.24407   -17275.512    86.538634   -17362.051   -1943.6471 
  998800    271.71183   -17282.089    79.372292   -17361.461    5904.4798 
  999000    336.54201   -17260.935    98.310445   -17359.246     2744.163 
  999200    297.47498   -17273.719    86.898208   -17360.617    4646.1595 
  999400     288.8514    -17282.03    84.379093    -17366.41   -21914.298 
  999600     324.5383    -17256.13    94.803929   -17350.934   -1005.8609 
  999800    273.34553   -17280.292    79.849527   -17360.141   -845.36916 
 1000000     302.7719   -17271.672    88.445542   -17360.118    3621.1738 
Loop time of 2951.68 on 8 procs for 1000000 steps with 99 atoms

Performance: 7.318 ns/day, 3.280 hours/ns, 338.790 timesteps/s
99.2% CPU use with 8 MPI tasks x no OpenMP threads

MPI task timing breakdown:
Section |  min time  |  avg time  |  max time  |%varavg| %total
---------------------------------------------------------------
Pair    | 2526.8     | 2568.6     | 2611.4     |  61.0 | 87.02
Neigh   | 3.5345     | 3.5546     | 3.6257     |   1.5 |  0.12
Comm    | 45.188     | 88.278     | 129.91     | 331.0 |  2.99
Output  | 0.092518   | 0.10258    | 0.16232    |   7.1 |  0.00
Modify  | 287.42     | 288.06     | 288.59     |   1.9 |  9.76
Other   |            | 3.121      |            |       |  0.11

Nlocal:    12.375 ave 26 max 2 min
Histogram: 3 1 0 0 0 0 2 0 0 2
Nghost:    751.625 ave 762 max 738 min
Histogram: 2 0 0 2 0 0 0 0 1 3
Neighs:    1641.12 ave 3253 max 334 min
Histogram: 3 1 0 0 0 0 2 0 0 2

Total # of neighbors = 13129
Ave neighs/atom = 132.616
Neighbor list builds = 3318
Dangerous builds = 0

unfix 1
unfix output
undump 1

Please see the log.cite file for references relevant to this simulation

Total wall time: 0:49:13
