ITEM: TIMESTEP
0
ITEM: NUMBER OF ATOMS
99
ITEM: BOX BOUNDS pp pp pp
0.0000000000000000e+00 1.6524999999999999e+01
0.0000000000000000e+00 1.6526000000000000e+01
0.0000000000000000e+00 1.6526000000000000e+01
ITEM: ATOMS id type x y z 
1 1 1.813 1.813 1.813 
10 1 5.821 5.821 5.821 
17 1 3.388 3.388 3.388 
26 1 4.246 4.246 4.246 
33 1 0.284 2 2 
41 1 2 0.284 2 
49 1 2 2 0.283 
58 1 7.351 5.634 5.634 
66 1 5.634 7.351 5.634 
74 1 5.634 5.634 7.351 
81 1 2.689 2.689 2.689 
90 1 4.945 4.945 4.945 
4 1 1.813 1.813 14.084 
11 1 5.821 5.821 10.076 
20 1 3.388 3.388 12.509 
27 1 4.246 4.246 11.651 
36 1 0.284 2 13.897 
46 1 2 0.284 13.897 
56 1 2 2 15.614 
59 1 7.351 5.634 10.263 
69 1 5.634 7.351 10.263 
79 1 5.634 5.634 8.546 
84 1 2.689 2.689 13.208 
91 1 4.945 4.945 10.952 
6 1 1.813 14.084 1.813 
13 1 5.821 10.076 5.821 
22 1 3.388 12.509 3.388 
29 1 4.246 11.651 4.246 
38 1 0.284 13.897 2 
48 1 2 15.614 2 
52 1 2 13.897 0.283 
61 1 7.351 10.263 5.634 
71 1 5.634 8.546 5.634 
75 1 5.634 10.263 7.351 
86 1 2.689 13.208 2.689 
93 1 4.945 10.952 4.945 
7 1 1.813 14.084 14.084 
16 1 5.821 10.076 10.076 
23 1 3.388 12.509 12.509 
32 1 4.246 11.651 11.651 
39 1 0.284 13.897 13.897 
43 1 2 15.614 13.897 
53 1 2 13.897 15.614 
64 1 7.351 10.263 10.263 
68 1 5.634 8.547 10.263 
78 1 5.634 10.263 8.546 
87 1 2.689 13.208 13.208 
96 1 4.945 10.952 10.952 
97 2 2 15.614 12.547 
98 2 3.086 15.938 11.546 
99 3 3.869 15.845 12.132 
8 1 14.084 1.813 1.813 
15 1 10.076 5.821 5.821 
24 1 12.509 3.388 3.388 
31 1 11.651 4.246 4.246 
40 1 15.613 2 2 
44 1 13.897 0.284 2 
54 1 13.897 2 0.283 
63 1 8.547 5.634 5.634 
67 1 10.263 7.351 5.634 
77 1 10.263 5.634 7.351 
88 1 13.208 2.689 2.689 
95 1 10.952 4.945 4.945 
5 1 14.084 1.813 14.084 
14 1 10.076 5.821 10.076 
21 1 12.509 3.388 12.509 
30 1 11.651 4.246 11.651 
37 1 15.613 2 13.897 
47 1 13.897 0.284 13.897 
51 1 13.897 2 15.614 
62 1 8.546 5.634 10.263 
72 1 10.263 7.351 10.263 
76 1 10.263 5.634 8.546 
85 1 13.208 2.689 13.208 
94 1 10.952 4.945 10.952 
3 1 14.084 14.084 1.813 
12 1 10.076 10.076 5.821 
19 1 12.509 12.509 3.388 
28 1 11.651 11.651 4.246 
35 1 15.613 13.897 2 
45 1 13.897 15.614 2 
55 1 13.897 13.897 0.283 
60 1 8.547 10.263 5.634 
70 1 10.263 8.547 5.634 
80 1 10.263 10.263 7.351 
83 1 13.208 13.208 2.689 
92 1 10.952 10.952 4.945 
2 1 14.084 14.084 14.084 
9 1 10.076 10.076 10.076 
18 1 12.509 12.509 12.509 
25 1 11.651 11.651 11.651 
34 1 15.613 13.897 13.897 
42 1 13.897 15.614 13.897 
50 1 13.897 13.897 15.614 
57 1 8.546 10.263 10.263 
65 1 10.263 8.546 10.263 
73 1 10.263 10.263 8.547 
82 1 13.208 13.208 13.208 
89 1 10.952 10.952 10.952 
ITEM: TIMESTEP
10
ITEM: NUMBER OF ATOMS
99
ITEM: BOX BOUNDS pp pp pp
0.0000000000000000e+00 1.6524999999999999e+01
0.0000000000000000e+00 1.6526000000000000e+01
0.0000000000000000e+00 1.6526000000000000e+01
ITEM: ATOMS id type x y z 
1 1 1.81513 1.81519 1.82303 
10 1 5.81825 5.81747 5.81739 
17 1 3.39394 3.394 3.39471 
26 1 4.24047 4.23979 4.23978 
33 1 0.282665 2.00615 2.00648 
41 1 2.00618 0.281093 2.00651 
49 1 2.00592 2.00887 0.294915 
58 1 7.35271 5.62753 5.62756 
66 1 5.62755 7.35243 5.62755 
74 1 5.62756 5.62751 7.35205 
81 1 2.69589 2.69575 2.69468 
90 1 4.93771 4.93891 4.93892 
4 1 1.82238 1.80492 14.0824 
11 1 5.81837 5.81915 10.0786 
20 1 3.40122 3.40341 12.4953 
27 1 4.24559 4.24631 11.6513 
36 1 0.273769 2.01073 13.8899 
46 1 1.93843 0.354341 13.9402 
56 1 2.00993 2.01198 15.6376 
59 1 7.35294 5.62748 10.2695 
69 1 5.62747 7.35322 10.2695 
79 1 5.62745 5.6275 8.54409 
84 1 2.70506 2.70498 13.1923 
91 1 4.94558 4.94443 10.9514 
6 1 1.81604 14.0809 1.81378 
13 1 5.81824 10.0795 5.81739 
22 1 3.39406 12.503 3.39447 
29 1 4.2404 11.6573 4.23973 
38 1 0.281994 13.8907 2.00639 
48 1 2.00625 15.6158 2.00625 
52 1 2.00889 13.8952 0.285858 
61 1 7.35271 10.2694 5.62752 
71 1 5.62755 8.54457 5.62755 
75 1 5.62756 10.2695 7.35243 
86 1 2.69582 13.201 2.69508 
93 1 4.9377 10.9581 4.93889 
7 1 1.78856 13.953 14.1226 
16 1 5.81729 10.0795 10.0797 
23 1 3.39519 12.5054 12.5015 
32 1 4.23829 11.6583 11.6587 
39 1 0.285556 13.8849 13.8947 
43 1 2.06628 15.6665 13.7524 
53 1 2.00241 13.8857 15.612 
64 1 7.35241 10.2695 10.2695 
68 1 5.62748 8.54495 10.2695 
78 1 5.62753 10.2695 8.54454 
87 1 2.69081 13.1941 13.2065 
96 1 4.93783 10.9604 10.9591 
97 2 1.9897 15.584 12.5965 
98 2 3.12678 15.9368 11.5633 
99 3 3.85797 15.8523 12.0937 
8 1 14.0804 1.8166 1.81638 
15 1 10.0795 5.81817 5.81725 
24 1 12.503 3.39416 3.39442 
31 1 11.6569 4.24022 4.23937 
40 1 15.6158 2.00663 2.00645 
44 1 13.8905 0.28136 2.00652 
54 1 13.8906 2.00656 0.280965 
63 1 8.54459 5.62754 5.62751 
67 1 10.2695 7.35271 5.62755 
77 1 10.2695 5.62758 7.35244 
88 1 13.2011 2.69561 2.69512 
95 1 10.9588 4.93793 4.93942 
5 1 14.073 1.81547 14.0815 
14 1 10.0796 5.81793 10.0794 
21 1 12.5037 3.39413 12.5027 
30 1 11.6576 4.24018 11.6574 
37 1 15.6097 2.00868 13.8905 
47 1 13.8906 0.281803 13.8908 
51 1 13.8906 2.00613 15.6142 
62 1 8.54486 5.62748 10.2695 
72 1 10.2695 7.35248 10.2695 
76 1 10.2695 5.6275 8.54454 
85 1 13.2007 2.69474 13.2026 
94 1 10.9581 4.9375 10.9585 
3 1 14.0802 14.0807 1.81603 
12 1 10.0798 10.0798 5.81825 
19 1 12.5028 12.5026 3.39358 
28 1 11.6574 11.6574 4.24026 
35 1 15.6155 13.8905 2.0065 
45 1 13.8905 15.6156 2.00639 
55 1 13.8905 13.8906 0.281241 
60 1 8.54456 10.2695 5.62757 
70 1 10.2695 8.54464 5.62757 
80 1 10.2695 10.2695 7.35276 
83 1 13.2018 13.2022 2.69641 
92 1 10.9582 10.9582 4.93765 
2 1 14.0826 14.0813 14.0809 
9 1 10.0795 10.0795 10.0792 
18 1 12.503 12.5033 12.5024 
25 1 11.6574 11.6574 11.6567 
34 1 15.6149 13.8954 13.8877 
42 1 13.8908 15.6155 13.8908 
50 1 13.8907 13.8908 15.615 
57 1 8.54448 10.2695 10.2695 
65 1 10.2695 8.54448 10.2695 
73 1 10.2695 10.2695 8.54463 
82 1 13.2013 13.2009 13.2025 
89 1 10.9582 10.9581 10.9594 
ITEM: TIMESTEP
20
ITEM: NUMBER OF ATOMS
99
ITEM: BOX BOUNDS pp pp pp
0.0000000000000000e+00 1.6524999999999999e+01
0.0000000000000000e+00 1.6526000000000000e+01
0.0000000000000000e+00 1.6526000000000000e+01
ITEM: ATOMS id type x y z 
1 1 1.81603 1.81595 1.82652 
10 1 5.81713 5.8173 5.81689 
17 1 3.39306 3.39303 3.39325 
26 1 4.2417 4.24146 4.24148 
33 1 0.281202 2.00733 2.00815 
41 1 2.0073 0.279473 2.00823 
49 1 2.00752 2.01086 0.295504 
58 1 7.3529 5.62642 5.62646 
66 1 5.62652 7.35292 5.62647 
74 1 5.6265 5.62637 7.35199 
81 1 2.69516 2.69508 2.69509 
90 1 4.93922 4.93972 4.93968 
4 1 1.81506 1.8085 14.0895 
11 1 5.81881 5.81887 10.0782 
20 1 3.40154 3.40393 12.4948 
27 1 4.24879 4.24906 11.6481 
36 1 0.267505 2.01314 13.8885 
46 1 1.94556 0.353037 13.9459 
56 1 2.01137 2.01375 15.6379 
59 1 7.3535 5.62631 10.2707 
69 1 5.62626 7.35401 10.2707 
79 1 5.62624 5.62634 8.54272 
84 1 2.70577 2.70472 13.1918 
91 1 4.94736 4.94709 10.9496 
6 1 1.8162 14.0804 1.81224 
13 1 5.81742 10.0798 5.81682 
22 1 3.39245 12.5046 3.39304 
29 1 4.24171 11.6556 4.2415 
38 1 0.281999 13.8899 2.00726 
48 1 2.0071 15.6147 2.00703 
52 1 2.01079 13.8968 0.288037 
61 1 7.35282 10.2705 5.62647 
71 1 5.6265 8.54412 5.62651 
75 1 5.62653 10.2705 7.35263 
86 1 2.69528 13.2017 2.69403 
93 1 4.93915 10.9574 4.9396 
7 1 1.79049 13.9577 14.1187 
16 1 5.81651 10.0809 10.0802 
23 1 3.39542 12.5065 12.5011 
32 1 4.23966 11.6576 11.6573 
39 1 0.282875 13.8801 13.8953 
43 1 2.0617 15.6651 13.7483 
53 1 2.00249 13.8812 15.6173 
64 1 7.3521 10.2706 10.2706 
68 1 5.62638 8.54574 10.2706 
78 1 5.62646 10.2705 8.5447 
87 1 2.68888 13.1904 13.2091 
96 1 4.93832 10.9592 10.9586 
97 2 1.98982 15.5744 12.5887 
98 2 3.12346 15.9371 11.5611 
99 3 3.8673 15.8526 12.0912 
8 1 14.0801 1.81658 1.81617 
15 1 10.0801 5.81738 5.81744 
24 1 12.5044 3.39261 3.39266 
31 1 11.6555 4.24151 4.24114 
40 1 15.6142 2.00764 2.00722 
44 1 13.8896 0.282593 2.00742 
54 1 13.8899 2.00754 0.281902 
63 1 8.54491 5.62655 5.62646 
67 1 10.2705 7.35324 5.62647 
77 1 10.2705 5.6266 7.35252 
88 1 13.2022 2.69475 2.69455 
95 1 10.9579 4.93908 4.93979 
5 1 14.0724 1.81636 14.0806 
14 1 10.0803 5.81683 10.0801 
21 1 12.5051 3.39315 12.5039 
30 1 11.6561 4.24134 11.6558 
37 1 15.6113 2.0103 13.8894 
47 1 13.889 0.279936 13.8898 
51 1 13.8892 2.00723 15.6156 
62 1 8.54549 5.62635 10.2706 
72 1 10.2706 7.35307 10.2706 
76 1 10.2706 5.6264 8.54364 
85 1 13.2006 2.69386 13.2032 
94 1 10.9575 4.93881 10.9577 
3 1 14.0795 14.0798 1.81682 
12 1 10.08 10.08 5.81745 
19 1 12.5044 12.5043 3.3924 
28 1 11.6558 11.6558 4.24143 
35 1 15.6162 13.8895 2.0077 
45 1 13.8894 15.6157 2.00751 
55 1 13.8893 13.8896 0.280068 
60 1 8.54471 10.2705 5.62659 
70 1 10.2705 8.54437 5.62658 
80 1 10.2705 10.2705 7.35221 
83 1 13.2024 13.2028 2.69503 
92 1 10.9576 10.9576 4.93895 
2 1 14.084 14.0809 14.0808 
9 1 10.08 10.0795 10.0802 
18 1 12.5045 12.5048 12.5043 
25 1 11.6557 11.6557 11.6554 
34 1 15.6128 13.8971 13.8858 
42 1 13.8901 15.6152 13.89 
50 1 13.8899 13.89 15.6154 
57 1 8.54474 10.2705 10.2705 
65 1 10.2705 8.54468 10.2705 
73 1 10.2706 10.2706 8.5449 
82 1 13.2024 13.2018 13.2028 
89 1 10.9575 10.9575 10.9581 
ITEM: TIMESTEP
30
ITEM: NUMBER OF ATOMS
99
ITEM: BOX BOUNDS pp pp pp
0.0000000000000000e+00 1.6524999999999999e+01
0.0000000000000000e+00 1.6526000000000000e+01
0.0000000000000000e+00 1.6526000000000000e+01
ITEM: ATOMS id type x y z 
1 1 1.81613 1.81603 1.82838 
10 1 5.81693 5.81724 5.81658 
17 1 3.3932 3.39313 3.39302 
26 1 4.24188 4.24186 4.24195 
33 1 0.280946 2.00808 2.00926 
41 1 2.00801 0.279499 2.0094 
49 1 2.00869 2.01211 0.295477 
58 1 7.35329 5.62571 5.62573 
66 1 5.62579 7.35254 5.62575 
74 1 5.62572 5.62561 7.3509 
81 1 2.6949 2.69483 2.69565 
90 1 4.93983 4.93998 4.93976 
4 1 1.81183 1.80998 14.0942 
11 1 5.8193 5.81935 10.0777 
20 1 3.40179 3.40406 12.4944 
27 1 4.25002 4.25014 11.6468 
36 1 0.266845 2.01459 13.8881 
46 1 1.94569 0.352384 13.9478 
56 1 2.01189 2.01506 15.6381 
59 1 7.35406 5.62553 10.2715 
69 1 5.6255 7.35448 10.2715 
79 1 5.62548 5.62554 8.54305 
84 1 2.70644 2.70528 13.1913 
91 1 4.94822 4.94832 10.9487 
6 1 1.81655 14.0801 1.8121 
13 1 5.81723 10.0799 5.81687 
22 1 3.39221 12.5049 3.39292 
29 1 4.24191 11.6551 4.24199 
38 1 0.281911 13.8892 2.00792 
48 1 2.00786 15.6142 2.00766 
52 1 2.01197 13.8972 0.288562 
61 1 7.35311 10.2712 5.62576 
71 1 5.6258 8.54458 5.6258 
75 1 5.62583 10.2712 7.35285 
86 1 2.69522 13.2017 2.69363 
93 1 4.93977 10.9572 4.93973 
7 1 1.79089 13.9599 14.118 
16 1 5.81644 10.0816 10.0804 
23 1 3.39548 12.5072 12.5009 
32 1 4.23999 11.6576 11.657 
39 1 0.282682 13.8775 13.8956 
43 1 2.06102 15.6637 13.7451 
53 1 2.00251 13.8789 15.6178 
64 1 7.3523 10.2713 10.2712 
68 1 5.62563 8.54618 10.2714 
78 1 5.62576 10.2712 8.54464 
87 1 2.68768 13.1879 13.2106 
96 1 4.93849 10.959 10.9584 
97 2 1.98898 15.569 12.586 
98 2 3.12285 15.9374 11.56 
99 3 3.8728 15.8531 12.0885 
8 1 14.0798 1.81686 1.81636 
15 1 10.08 5.81739 5.81722 
24 1 12.5047 3.39236 3.3924 
31 1 11.6553 4.24171 4.24163 
40 1 15.6136 2.00844 2.00787 
44 1 13.8888 0.281663 2.00815 
54 1 13.8892 2.0083 0.281988 
63 1 8.54484 5.62585 5.62581 
67 1 10.2712 7.35265 5.62583 
77 1 10.2712 5.6259 7.35218 
88 1 13.2023 2.69455 2.69434 
95 1 10.9576 4.93953 4.93973 
5 1 14.0717 1.81645 14.0805 
14 1 10.0806 5.81701 10.0801 
21 1 12.5053 3.39309 12.504 
30 1 11.6556 4.24149 11.6555 
37 1 15.6108 2.01137 13.8885 
47 1 13.888 0.28033 13.8891 
51 1 13.8882 2.00795 15.6157 
62 1 8.54593 5.6256 10.2714 
72 1 10.2713 7.35279 10.2713 
76 1 10.2713 5.62569 8.54426 
85 1 13.2004 2.69357 13.2035 
94 1 10.9576 4.93935 10.9575 
3 1 14.0796 14.0803 1.81708 
12 1 10.0799 10.0803 5.81713 
19 1 12.5048 12.5047 3.39227 
28 1 11.6555 11.6554 4.2415 
35 1 15.6154 13.8889 2.00839 
45 1 13.8888 15.6156 2.00814 
55 1 13.8886 13.8889 0.280829 
60 1 8.54447 10.2712 5.62587 
70 1 10.2713 8.54448 5.62586 
80 1 10.2712 10.2712 7.35329 
83 1 13.2025 13.2028 2.69448 
92 1 10.9575 10.9576 4.93946 
2 1 14.0845 14.0806 14.0806 
9 1 10.0799 10.0799 10.0799 
18 1 12.5047 12.505 12.5047 
25 1 11.6553 11.6553 11.6552 
34 1 15.6126 13.8975 13.8847 
42 1 13.8895 15.6146 13.8893 
50 1 13.8893 13.8893 15.6151 
57 1 8.54442 10.2712 10.2712 
65 1 10.2712 8.54435 10.2713 
73 1 10.2712 10.2712 8.54437 
82 1 13.2029 13.202 13.2027 
89 1 10.9574 10.9574 10.9575 
ITEM: TIMESTEP
38
ITEM: NUMBER OF ATOMS
99
ITEM: BOX BOUNDS pp pp pp
0.0000000000000000e+00 1.6524999999999999e+01
0.0000000000000000e+00 1.6526000000000000e+01
0.0000000000000000e+00 1.6526000000000000e+01
ITEM: ATOMS id type x y z 
1 1 1.81615 1.81604 1.82893 
10 1 5.81701 5.81727 5.81629 
17 1 3.39329 3.39322 3.393 
26 1 4.24191 4.24191 4.24207 
33 1 0.280609 2.00834 2.00966 
41 1 2.00825 0.279562 2.00981 
49 1 2.00909 2.01254 0.295691 
58 1 7.35256 5.62545 5.62549 
66 1 5.62551 7.3528 5.6255 
74 1 5.62543 5.62532 7.35127 
81 1 2.69484 2.69477 2.69588 
90 1 4.93996 4.94009 4.93974 
4 1 1.81091 1.81009 14.0954 
11 1 5.81948 5.81958 10.0772 
20 1 3.40191 3.40411 12.4943 
27 1 4.25037 4.25049 11.6465 
36 1 0.266595 2.01506 13.888 
46 1 1.94541 0.351999 13.9484 
56 1 2.01206 2.01551 15.6382 
59 1 7.35371 5.62528 10.2718 
69 1 5.62527 7.35479 10.2718 
79 1 5.62525 5.6253 8.5429 
84 1 2.70664 2.70556 13.1912 
91 1 4.9485 4.94863 10.9483 
6 1 1.81658 14.08 1.81201 
13 1 5.81713 10.0799 5.81705 
22 1 3.39221 12.5049 3.39291 
29 1 4.24196 11.655 4.24209 
38 1 0.282003 13.889 2.00815 
48 1 2.00814 15.614 2.00789 
52 1 2.01235 13.8973 0.288575 
61 1 7.35313 10.2714 5.62551 
71 1 5.62557 8.54439 5.62555 
75 1 5.6256 10.2714 7.35262 
86 1 2.6952 13.2017 2.69358 
93 1 4.93988 10.9572 4.93979 
7 1 1.79098 13.9604 14.1178 
16 1 5.81643 10.0816 10.0807 
23 1 3.39549 12.5074 12.5009 
32 1 4.24001 11.6576 11.6569 
39 1 0.282791 13.8767 13.8957 
43 1 2.06088 15.6637 13.744 
53 1 2.00255 13.8781 15.618 
64 1 7.35244 10.2715 10.2715 
68 1 5.62534 8.54616 10.2716 
78 1 5.62549 10.2715 8.5445 
87 1 2.68726 13.187 13.2111 
96 1 4.93858 10.959 10.9584 
97 2 1.98859 15.5673 12.5853 
98 2 3.12286 15.9375 11.5597 
99 3 3.8746 15.8532 12.0875 
8 1 14.0797 1.81687 1.81635 
15 1 10.0803 5.81732 5.8172 
24 1 12.5047 3.39233 3.39238 
31 1 11.6552 4.24172 4.24174 
40 1 15.6137 2.00871 2.00808 
44 1 13.8886 0.281375 2.00839 
54 1 13.889 2.00855 0.281911 
63 1 8.54523 5.62556 5.62553 
67 1 10.2714 7.35281 5.62555 
77 1 10.2714 5.62562 7.35221 
88 1 13.2023 2.69451 2.69428 
95 1 10.9576 4.93965 4.93968 
5 1 14.0715 1.81647 14.0805 
14 1 10.0808 5.81694 10.08 
21 1 12.5054 3.39309 12.504 
30 1 11.6555 4.24151 11.6554 
37 1 15.6107 2.01175 13.8881 
47 1 13.8877 0.280196 13.8889 
51 1 13.8879 2.0082 15.6159 
62 1 8.54637 5.62532 10.2717 
72 1 10.2716 7.35278 10.2716 
76 1 10.2715 5.62543 8.54432 
85 1 13.2003 2.69353 13.2035 
94 1 10.9576 4.93948 10.9575 
3 1 14.0794 14.0803 1.81707 
12 1 10.0799 10.0802 5.81714 
19 1 12.5048 12.5047 3.39228 
28 1 11.6554 11.6553 4.24153 
35 1 15.6153 13.8886 2.00868 
45 1 13.8886 15.6158 2.0084 
55 1 13.8884 13.8887 0.280922 
60 1 8.54457 10.2715 5.62564 
70 1 10.2715 8.54455 5.62563 
80 1 10.2714 10.2714 7.35276 
83 1 13.2025 13.2028 2.69435 
92 1 10.9575 10.9576 4.93953 
2 1 14.0847 14.0806 14.0804 
9 1 10.0799 10.0799 10.0801 
18 1 12.5047 12.5051 12.5048 
25 1 11.6552 11.6552 11.6552 
34 1 15.6125 13.8975 13.8843 
42 1 13.8893 15.6145 13.889 
50 1 13.8891 13.8891 15.6151 
57 1 8.54418 10.2714 10.2715 
65 1 10.2714 8.54446 10.2715 
73 1 10.2715 10.2715 8.54466 
82 1 13.203 13.2021 13.2026 
89 1 10.9574 10.9574 10.9574 
ITEM: TIMESTEP
40
ITEM: NUMBER OF ATOMS
99
ITEM: BOX BOUNDS pp pp pp
0.0000000000000000e+00 1.6524999999999999e+01
0.0000000000000000e+00 1.6526000000000000e+01
0.0000000000000000e+00 1.6526000000000000e+01
ITEM: ATOMS id type x y z 
1 1 1.81615 1.81604 1.82906 
10 1 5.8171 5.81727 5.81628 
17 1 3.39331 3.39324 3.39299 
26 1 4.24192 4.24194 4.24209 
33 1 0.280837 2.00841 2.00977 
41 1 2.00832 0.279357 2.00992 
49 1 2.0092 2.01266 0.29571 
58 1 7.35317 5.62539 5.62543 
66 1 5.62545 7.35256 5.62544 
74 1 5.62536 5.62526 7.35126 
81 1 2.69483 2.69475 2.69594 
90 1 4.94001 4.94009 4.93975 
4 1 1.81067 1.81013 14.0957 
11 1 5.8196 5.81966 10.0772 
20 1 3.40194 3.40413 12.4942 
27 1 4.25044 4.2506 11.6464 
36 1 0.266527 2.01518 13.888 
46 1 1.94532 0.351967 13.9485 
56 1 2.01211 2.01564 15.6383 
59 1 7.35435 5.62522 10.2718 
69 1 5.6252 7.35459 10.2718 
79 1 5.62518 5.62523 8.54281 
84 1 2.70669 2.70563 13.1912 
91 1 4.94861 4.94869 10.9482 
6 1 1.81664 14.08 1.81197 
13 1 5.81714 10.08 5.81704 
22 1 3.39219 12.5049 3.39291 
29 1 4.24199 11.655 4.2421 
38 1 0.281964 13.8889 2.00821 
48 1 2.00821 15.6141 2.00794 
52 1 2.01243 13.8973 0.288566 
61 1 7.3528 10.2715 5.62544 
71 1 5.6255 8.54454 5.62547 
75 1 5.62552 10.2715 7.35259 
86 1 2.69522 13.2017 2.69357 
93 1 4.93987 10.9572 4.93982 
7 1 1.79099 13.9606 14.1178 
16 1 5.81641 10.0817 10.0807 
23 1 3.39549 12.5075 12.5009 
32 1 4.24001 11.6576 11.6569 
39 1 0.282394 13.8765 13.8957 
43 1 2.06085 15.6636 13.7437 
53 1 2.00256 13.878 15.6181 
64 1 7.35244 10.2716 10.2716 
68 1 5.62527 8.54637 10.2717 
78 1 5.62542 10.2716 8.54455 
87 1 2.68715 13.1868 13.2113 
96 1 4.93861 10.9591 10.9584 
97 2 1.98848 15.5668 12.5851 
98 2 3.12288 15.9375 11.5596 
99 3 3.87508 15.8533 12.0872 
8 1 14.0797 1.81693 1.81641 
15 1 10.0802 5.8173 5.81721 
24 1 12.5047 3.39233 3.39235 
31 1 11.6552 4.24171 4.24176 
40 1 15.6135 2.0088 2.00816 
44 1 13.8885 0.281759 2.00847 
54 1 13.8889 2.00864 0.282138 
63 1 8.54463 5.62551 5.62548 
67 1 10.2715 7.35258 5.6255 
77 1 10.2715 5.62556 7.35234 
88 1 13.2024 2.69449 2.69431 
95 1 10.9575 4.93969 4.93967 
5 1 14.0715 1.81647 14.0805 
14 1 10.0807 5.81692 10.08 
21 1 12.5053 3.39309 12.504 
30 1 11.6555 4.24152 11.6554 
37 1 15.6107 2.01185 13.888 
47 1 13.8876 0.280006 13.8888 
51 1 13.8878 2.00827 15.6156 
62 1 8.54586 5.62526 10.2717 
72 1 10.2716 7.35252 10.2716 
76 1 10.2716 5.62538 8.5442 
85 1 13.2003 2.69352 13.2035 
94 1 10.9576 4.93951 10.9574 
3 1 14.0794 14.0802 1.81706 
12 1 10.08 10.0803 5.81709 
19 1 12.5049 12.5047 3.39228 
28 1 11.6554 11.6553 4.24156 
35 1 15.6153 13.8886 2.00876 
45 1 13.8885 15.6154 2.00848 
55 1 13.8883 13.8886 0.280713 
60 1 8.54483 10.2715 5.62556 
70 1 10.2716 8.54468 5.62555 
80 1 10.2715 10.2715 7.35262 
83 1 13.2025 13.2028 2.69434 
92 1 10.9575 10.9576 4.93952 
2 1 14.0848 14.0806 14.0805 
9 1 10.0799 10.08 10.0801 
18 1 12.5047 12.5051 12.5048 
25 1 11.6552 11.6552 11.6552 
34 1 15.6127 13.8976 13.8843 
42 1 13.8892 15.6146 13.889 
50 1 13.889 13.889 15.6153 
57 1 8.54419 10.2715 10.2716 
65 1 10.2715 8.54463 10.2716 
73 1 10.2716 10.2715 8.54487 
82 1 13.2031 13.2021 13.2026 
89 1 10.9574 10.9574 10.9574 
ITEM: TIMESTEP
42
ITEM: NUMBER OF ATOMS
99
ITEM: BOX BOUNDS pp pp pp
0.0000000000000000e+00 1.6524999999999999e+01
0.0000000000000000e+00 1.6526000000000000e+01
0.0000000000000000e+00 1.6526000000000000e+01
ITEM: ATOMS id type x y z 
1 1 1.81615 1.81604 1.8291 
10 1 5.8171 5.81727 5.81627 
17 1 3.39332 3.39324 3.39299 
26 1 4.24192 4.24194 4.2421 
33 1 0.280868 2.00843 2.00979 
41 1 2.00833 0.279335 2.00995 
49 1 2.00923 2.01268 0.295715 
58 1 7.3532 5.62538 5.62541 
66 1 5.62543 7.35253 5.62543 
74 1 5.62534 5.62525 7.35121 
81 1 2.69483 2.69475 2.69596 
90 1 4.94002 4.94009 4.93975 
4 1 1.81062 1.81015 14.0958 
11 1 5.81962 5.81967 10.0772 
20 1 3.40195 3.40413 12.4942 
27 1 4.25046 4.25063 11.6464 
36 1 0.26651 2.01521 13.888 
46 1 1.9453 0.351958 13.9486 
56 1 2.01212 2.01567 15.6383 
59 1 7.35439 5.6252 10.2719 
69 1 5.62518 7.35453 10.2719 
79 1 5.62516 5.62521 8.54283 
84 1 2.7067 2.70565 13.1912 
91 1 4.94863 4.9487 10.9482 
6 1 1.81665 14.08 1.81197 
13 1 5.81716 10.08 5.81704 
22 1 3.39219 12.5049 3.39291 
29 1 4.242 11.655 4.2421 
38 1 0.281921 13.8889 2.00822 
48 1 2.00822 15.6142 2.00796 
52 1 2.01246 13.8973 0.288577 
61 1 7.35281 10.2715 5.62542 
71 1 5.62548 8.54458 5.62546 
75 1 5.62551 10.2715 7.35262 
86 1 2.69522 13.2017 2.69357 
93 1 4.93987 10.9572 4.93983 
7 1 1.79099 13.9606 14.1178 
16 1 5.8164 10.0818 10.0807 
23 1 3.3955 12.5075 12.5009 
32 1 4.24001 11.6576 11.6569 
39 1 0.28236 13.8765 13.8957 
43 1 2.06084 15.6636 13.7436 
53 1 2.00256 13.8779 15.6181 
64 1 7.35247 10.2716 10.2716 
68 1 5.62525 8.54644 10.2717 
78 1 5.6254 10.2716 8.54451 
87 1 2.68712 13.1868 13.2113 
96 1 4.93862 10.9591 10.9584 
97 2 1.98845 15.5667 12.5851 
98 2 3.12288 15.9376 11.5596 
99 3 3.87519 15.8533 12.0871 
8 1 14.0796 1.81694 1.81642 
15 1 10.0802 5.81729 5.8172 
24 1 12.5047 3.39233 3.39235 
31 1 11.6552 4.24171 4.24176 
40 1 15.6134 2.00882 2.00817 
44 1 13.8885 0.281776 2.00849 
54 1 13.8889 2.00866 0.282174 
63 1 8.5446 5.62549 5.62547 
67 1 10.2715 7.35256 5.62548 
77 1 10.2715 5.62554 7.35233 
88 1 13.2024 2.69448 2.69431 
95 1 10.9575 4.93969 4.93967 
5 1 14.0714 1.81647 14.0805 
14 1 10.0807 5.81692 10.08 
21 1 12.5053 3.39309 12.504 
30 1 11.6555 4.24152 11.6554 
37 1 15.6107 2.01187 13.888 
47 1 13.8876 0.279992 13.8888 
51 1 13.8878 2.00829 15.6156 
62 1 8.54584 5.62524 10.2717 
72 1 10.2716 7.35249 10.2716 
76 1 10.2716 5.62536 8.54421 
85 1 13.2003 2.69352 13.2035 
94 1 10.9576 4.93951 10.9574 
3 1 14.0794 14.0802 1.81706 
12 1 10.08 10.0803 5.81709 
19 1 12.5049 12.5047 3.39227 
28 1 11.6554 11.6553 4.24156 
35 1 15.6153 13.8886 2.00878 
45 1 13.8885 15.6154 2.0085 
55 1 13.8883 13.8886 0.280678 
60 1 8.54481 10.2716 5.62555 
70 1 10.2716 8.54471 5.62553 
80 1 10.2715 10.2715 7.35267 
83 1 13.2025 13.2028 2.69433 
92 1 10.9575 10.9576 4.93951 
2 1 14.0848 14.0806 14.0805 
9 1 10.0799 10.08 10.0801 
18 1 12.5047 12.5051 12.5049 
25 1 11.6552 11.6552 11.6551 
34 1 15.6128 13.8976 13.8842 
42 1 13.8892 15.6146 13.889 
50 1 13.889 13.889 15.6153 
57 1 8.54416 10.2715 10.2716 
65 1 10.2715 8.54466 10.2716 
73 1 10.2716 10.2716 8.54483 
82 1 13.2031 13.2021 13.2026 
89 1 10.9574 10.9574 10.9574 
ITEM: TIMESTEP
47
ITEM: NUMBER OF ATOMS
99
ITEM: BOX BOUNDS pp pp pp
-1.6432220450778091e-03 1.6526643222045077e+01
-4.8240482454343312e-04 1.6526482404824545e+01
-9.5968275715260830e-04 1.6526959682757148e+01
ITEM: ATOMS id type x y z 
1 1 1.81487 1.81567 1.82836 
10 1 5.81661 5.81712 5.81599 
17 1 3.39235 3.39296 3.39242 
26 1 4.24112 4.24171 4.24163 
33 1 0.279228 2.00807 2.00907 
41 1 2.00709 0.278867 2.00923 
49 1 2.00799 2.01232 0.294785 
58 1 7.353 5.62522 5.6251 
66 1 5.6249 7.35252 5.62511 
74 1 5.62481 5.62509 7.35108 
81 1 2.69372 2.69442 2.69532 
90 1 4.93936 4.9399 4.93936 
4 1 1.80932 1.80977 14.0965 
11 1 5.81913 5.81952 10.0774 
20 1 3.40099 3.40385 12.4947 
27 1 4.24967 4.2504 11.6468 
36 1 0.264912 2.01485 13.8886 
46 1 1.94404 0.351488 13.9492 
56 1 2.01088 2.01531 15.6391 
59 1 7.35419 5.62504 10.2721 
69 1 5.62465 7.3545 10.2721 
79 1 5.62463 5.62505 8.54288 
84 1 2.7056 2.70533 13.1917 
91 1 4.94797 4.94851 10.9485 
6 1 1.81537 14.0803 1.81121 
13 1 5.81668 10.0801 5.81677 
22 1 3.39122 12.5051 3.39234 
29 1 4.2412 11.6552 4.24163 
38 1 0.280307 13.8892 2.0075 
48 1 2.00698 15.6146 2.00724 
52 1 2.01122 13.8976 0.287648 
61 1 7.3527 10.2716 5.62511 
71 1 5.62495 8.54458 5.62515 
75 1 5.62498 10.2716 7.35258 
86 1 2.69412 13.202 2.69292 
93 1 4.93921 10.9573 4.93945 
7 1 1.78971 13.961 14.1185 
16 1 5.81592 10.0819 10.0809 
23 1 3.39453 12.5077 12.5014 
32 1 4.23921 11.6578 11.6573 
39 1 0.280816 13.8768 13.8964 
43 1 2.0596 15.664 13.7442 
53 1 2.00132 13.8782 15.6189 
64 1 7.35233 10.2717 10.2718 
68 1 5.62472 8.54645 10.272 
78 1 5.62487 10.2717 8.54448 
87 1 2.68601 13.187 13.2119 
96 1 4.93796 10.9592 10.9587 
97 2 1.9872 15.5671 12.5856 
98 2 3.12186 15.938 11.56 
99 3 3.87435 15.8537 12.0875 
8 1 14.0808 1.81655 1.81566 
15 1 10.0806 5.81715 5.81692 
24 1 12.5056 3.39204 3.39178 
31 1 11.6559 4.24148 4.2413 
40 1 15.6149 2.00846 2.00745 
44 1 13.8896 0.281232 2.00776 
54 1 13.89 2.00829 0.281215 
63 1 8.54468 5.62533 5.62516 
67 1 10.2719 7.35257 5.62517 
77 1 10.2719 5.62539 7.35225 
88 1 13.2033 2.69416 2.69367 
95 1 10.9581 4.9395 4.93928 
5 1 14.0726 1.8161 14.0811 
14 1 10.0811 5.81678 10.0802 
21 1 12.5062 3.39281 12.5045 
30 1 11.6562 4.24129 11.6558 
37 1 15.6121 2.01151 13.8887 
47 1 13.8887 0.279548 13.8894 
51 1 13.8889 2.00793 15.6165 
62 1 8.54593 5.62509 10.272 
72 1 10.272 7.35249 10.2719 
76 1 10.272 5.6252 8.54422 
85 1 13.2013 2.6932 13.2041 
94 1 10.9582 4.93932 10.9578 
3 1 14.0806 14.0806 1.81631 
12 1 10.0803 10.0804 5.81682 
19 1 12.5057 12.505 3.39171 
28 1 11.6561 11.6555 4.2411 
35 1 15.6168 13.8889 2.00805 
45 1 13.8896 15.6159 2.00777 
55 1 13.8894 13.8889 0.279764 
60 1 8.54478 10.2717 5.62524 
70 1 10.272 8.54468 5.62522 
80 1 10.2719 10.2717 7.35265 
83 1 13.2035 13.2031 2.69369 
92 1 10.958 10.9577 4.93913 
2 1 14.086 14.081 14.0811 
9 1 10.0803 10.0801 10.0803 
18 1 12.5055 12.5053 12.5054 
25 1 11.6558 11.6554 11.6555 
34 1 15.6142 13.8979 13.8849 
42 1 13.8903 15.615 13.8896 
50 1 13.8901 13.8893 15.6162 
57 1 8.54417 10.2716 10.2718 
65 1 10.2719 8.54463 10.2718 
73 1 10.272 10.2717 8.54478 
82 1 13.2041 13.2024 13.2032 
89 1 10.9579 10.9575 10.9577 
ITEM: TIMESTEP
48
ITEM: NUMBER OF ATOMS
99
ITEM: BOX BOUNDS pp pp pp
-1.6432220450778091e-03 1.6526643222045077e+01
-4.8240482454343312e-04 1.6526482404824545e+01
-9.5968275715260830e-04 1.6526959682757148e+01
ITEM: ATOMS id type x y z 
1 1 1.81487 1.81567 1.82836 
10 1 5.81661 5.81712 5.81599 
17 1 3.39235 3.39296 3.39242 
26 1 4.24112 4.24171 4.24163 
33 1 0.279228 2.00807 2.00907 
41 1 2.00709 0.278867 2.00923 
49 1 2.00799 2.01232 0.294785 
58 1 7.353 5.62522 5.6251 
66 1 5.6249 7.35252 5.62511 
74 1 5.62481 5.62509 7.35108 
81 1 2.69372 2.69442 2.69532 
90 1 4.93936 4.9399 4.93936 
4 1 1.80932 1.80977 14.0965 
11 1 5.81913 5.81952 10.0774 
20 1 3.40099 3.40385 12.4947 
27 1 4.24967 4.2504 11.6468 
36 1 0.264912 2.01485 13.8886 
46 1 1.94404 0.351488 13.9492 
56 1 2.01088 2.01531 15.6391 
59 1 7.35419 5.62504 10.2721 
69 1 5.62465 7.3545 10.2721 
79 1 5.62463 5.62505 8.54288 
84 1 2.7056 2.70533 13.1917 
91 1 4.94797 4.94851 10.9485 
6 1 1.81537 14.0803 1.81121 
13 1 5.81668 10.0801 5.81677 
22 1 3.39122 12.5051 3.39234 
29 1 4.2412 11.6552 4.24163 
38 1 0.280307 13.8892 2.0075 
48 1 2.00698 15.6146 2.00724 
52 1 2.01122 13.8976 0.287648 
61 1 7.3527 10.2716 5.62511 
71 1 5.62495 8.54458 5.62515 
75 1 5.62498 10.2716 7.35258 
86 1 2.69412 13.202 2.69292 
93 1 4.93921 10.9573 4.93945 
7 1 1.78971 13.961 14.1185 
16 1 5.81592 10.0819 10.0809 
23 1 3.39453 12.5077 12.5014 
32 1 4.23921 11.6578 11.6573 
39 1 0.280816 13.8768 13.8964 
43 1 2.0596 15.664 13.7442 
53 1 2.00132 13.8782 15.6189 
64 1 7.35233 10.2717 10.2718 
68 1 5.62472 8.54645 10.272 
78 1 5.62487 10.2717 8.54448 
87 1 2.68601 13.187 13.2119 
96 1 4.93796 10.9592 10.9587 
97 2 1.9872 15.5671 12.5856 
98 2 3.12186 15.938 11.56 
99 3 3.87435 15.8537 12.0875 
8 1 14.0808 1.81655 1.81566 
15 1 10.0806 5.81715 5.81692 
24 1 12.5056 3.39204 3.39178 
31 1 11.6559 4.24148 4.2413 
40 1 15.6149 2.00846 2.00745 
44 1 13.8896 0.281232 2.00776 
54 1 13.89 2.00829 0.281215 
63 1 8.54468 5.62533 5.62516 
67 1 10.2719 7.35257 5.62517 
77 1 10.2719 5.62539 7.35225 
88 1 13.2033 2.69416 2.69367 
95 1 10.9581 4.9395 4.93928 
5 1 14.0726 1.8161 14.0811 
14 1 10.0811 5.81678 10.0802 
21 1 12.5062 3.39281 12.5045 
30 1 11.6562 4.24129 11.6558 
37 1 15.6121 2.01151 13.8887 
47 1 13.8887 0.279548 13.8894 
51 1 13.8889 2.00793 15.6165 
62 1 8.54593 5.62509 10.272 
72 1 10.272 7.35249 10.2719 
76 1 10.272 5.6252 8.54422 
85 1 13.2013 2.6932 13.2041 
94 1 10.9582 4.93932 10.9578 
3 1 14.0806 14.0806 1.81631 
12 1 10.0803 10.0804 5.81682 
19 1 12.5057 12.505 3.39171 
28 1 11.6561 11.6555 4.2411 
35 1 15.6168 13.8889 2.00805 
45 1 13.8896 15.6159 2.00777 
55 1 13.8894 13.8889 0.279764 
60 1 8.54478 10.2717 5.62524 
70 1 10.272 8.54468 5.62522 
80 1 10.2719 10.2717 7.35265 
83 1 13.2035 13.2031 2.69369 
92 1 10.958 10.9577 4.93913 
2 1 14.086 14.081 14.0811 
9 1 10.0803 10.0801 10.0803 
18 1 12.5055 12.5053 12.5054 
25 1 11.6558 11.6554 11.6555 
34 1 15.6142 13.8979 13.8849 
42 1 13.8903 15.615 13.8896 
50 1 13.8901 13.8893 15.6162 
57 1 8.54417 10.2716 10.2718 
65 1 10.2719 8.54463 10.2718 
73 1 10.272 10.2717 8.54478 
82 1 13.2041 13.2024 13.2032 
89 1 10.9579 10.9575 10.9577 
ITEM: TIMESTEP
49
ITEM: NUMBER OF ATOMS
99
ITEM: BOX BOUNDS pp pp pp
-1.6430930964587147e-03 1.6526643093096457e+01
-4.8200133419163505e-04 1.6526482001334195e+01
-9.5973665133132090e-04 1.6526959736651328e+01
ITEM: ATOMS id type x y z 
1 1 1.81487 1.81567 1.82836 
10 1 5.81661 5.81712 5.81599 
17 1 3.39235 3.39296 3.39242 
26 1 4.24112 4.24171 4.24163 
33 1 0.279228 2.00807 2.00907 
41 1 2.00709 0.278867 2.00923 
49 1 2.00799 2.01233 0.294785 
58 1 7.353 5.62522 5.6251 
66 1 5.6249 7.35252 5.62511 
74 1 5.62481 5.62509 7.35108 
81 1 2.69372 2.69442 2.69532 
90 1 4.93936 4.9399 4.93936 
4 1 1.80932 1.80977 14.0965 
11 1 5.81913 5.81952 10.0774 
20 1 3.40099 3.40385 12.4947 
27 1 4.24967 4.2504 11.6468 
36 1 0.264912 2.01486 13.8886 
46 1 1.94404 0.351488 13.9492 
56 1 2.01088 2.01531 15.6391 
59 1 7.35419 5.62504 10.2721 
69 1 5.62465 7.3545 10.2721 
79 1 5.62463 5.62505 8.54288 
84 1 2.7056 2.70533 13.1917 
91 1 4.94797 4.94851 10.9485 
6 1 1.81537 14.0803 1.81121 
13 1 5.81668 10.0801 5.81677 
22 1 3.39122 12.5051 3.39234 
29 1 4.2412 11.6552 4.24163 
38 1 0.280307 13.8892 2.0075 
48 1 2.00698 15.6146 2.00724 
52 1 2.01122 13.8976 0.287648 
61 1 7.3527 10.2716 5.62511 
71 1 5.62495 8.54458 5.62515 
75 1 5.62498 10.2716 7.35258 
86 1 2.69412 13.202 2.69292 
93 1 4.93921 10.9573 4.93945 
7 1 1.78971 13.961 14.1185 
16 1 5.81592 10.0819 10.0809 
23 1 3.39453 12.5077 12.5014 
32 1 4.23921 11.6578 11.6573 
39 1 0.280816 13.8768 13.8964 
43 1 2.0596 15.664 13.7442 
53 1 2.00132 13.8782 15.6189 
64 1 7.35233 10.2717 10.2718 
68 1 5.62472 8.54645 10.272 
78 1 5.62487 10.2717 8.54448 
87 1 2.68601 13.187 13.2119 
96 1 4.93796 10.9592 10.9587 
97 2 1.9872 15.5671 12.5856 
98 2 3.12186 15.938 11.56 
99 3 3.87435 15.8537 12.0875 
8 1 14.0808 1.81655 1.81566 
15 1 10.0806 5.81715 5.81692 
24 1 12.5056 3.39204 3.39178 
31 1 11.6559 4.24148 4.2413 
40 1 15.6149 2.00846 2.00745 
44 1 13.8896 0.281232 2.00776 
54 1 13.89 2.0083 0.281215 