ITEM: TIMESTEP
0
ITEM: NUMBER OF ATOMS
2
ITEM: BOX BOUNDS pp pp pp
0.0000000000000000e+00 8.0000000000000000e+00
0.0000000000000000e+00 8.0000000000000000e+00
0.0000000000000000e+00 8.0000000000000000e+00
ITEM: ATOMS id type x y z 
1 1 4 4 3.631 
2 1 4 4 4.369 
ITEM: TIMESTEP
4
ITEM: NUMBER OF ATOMS
2
ITEM: BOX BOUNDS pp pp pp
0.0000000000000000e+00 8.0000000000000000e+00
0.0000000000000000e+00 8.0000000000000000e+00
0.0000000000000000e+00 8.0000000000000000e+00
ITEM: ATOMS id type x y z 
1 1 4 4 3.6211 
2 1 4 4 4.3789 
ITEM: TIMESTEP
5
ITEM: NUMBER OF ATOMS
2
ITEM: BOX BOUNDS pp pp pp
0.0000000000000000e+00 8.0000000000000000e+00
0.0000000000000000e+00 8.0000000000000000e+00
0.0000000000000000e+00 8.0000000000000000e+00
ITEM: ATOMS id type x y z 
1 1 4 4 3.6211 
2 1 4 4 4.3789 
ITEM: TIMESTEP
6
ITEM: NUMBER OF ATOMS
2
ITEM: BOX BOUNDS pp pp pp
2.0922148114234226e-06 7.9999979077851888e+00
2.0922148114234226e-06 7.9999979077851888e+00
5.3153045409659095e-06 7.9999946846954586e+00
ITEM: ATOMS id type x y z 
1 1 4 4 3.62111 
2 1 4 4 4.37889 
ITEM: TIMESTEP
7
ITEM: NUMBER OF ATOMS
2
ITEM: BOX BOUNDS pp pp pp
2.0922148114234226e-06 7.9999979077851888e+00
2.0922148114234226e-06 7.9999979077851888e+00
5.3153045409659095e-06 7.9999946846954586e+00
ITEM: ATOMS id type x y z 
1 1 4 4 3.6211 
2 1 4 4 4.3789 
ITEM: TIMESTEP
8
ITEM: NUMBER OF ATOMS
2
ITEM: BOX BOUNDS pp pp pp
4.2006118901614493e-06 7.9999957993881097e+00
4.2006118901614493e-06 7.9999957993881097e+00
1.0666264543612628e-05 7.9999893337354564e+00
ITEM: ATOMS id type x y z 
1 1 4 4 3.62111 
2 1 4 4 4.37889 
ITEM: TIMESTEP
9
ITEM: NUMBER OF ATOMS
2
ITEM: BOX BOUNDS pp pp pp
4.2006118901614493e-06 7.9999957993881097e+00
4.2006118901614493e-06 7.9999957993881097e+00
1.0666264543612628e-05 7.9999893337354564e+00
ITEM: ATOMS id type x y z 
1 1 4 4 3.6211 
2 1 4 4 4.3789 
