ITEM: TIMESTEP
0
ITEM: NUMBER OF ATOMS
58
ITEM: BOX BOUNDS pp pp pp
0.0000000000000000e+00 3.2808000000000000e+01
0.0000000000000000e+00 1.7780000000000001e+01
0.0000000000000000e+00 2.4729999999999999e+00
ITEM: ATOMS id type x y z 
13 1 7.043 0.849 2.464 
29 1 7.397 1.432 1.228 
37 1 8.035 2.733 1.228 
57 2 1.81 0.968 2.464 
58 3 1.81 1.944 2.464 
1 1 6.173 17.398 2.464 
5 1 5.371 17.398 1.228 
9 1 3.973 17.398 1.228 
16 1 7.043 16.167 2.464 
32 1 7.397 15.584 1.228 
40 1 8.035 14.283 1.228 
45 1 3.236 17.398 2.464 
49 1 1.81 17.398 2.464 
53 1 1.083 17.398 1.228 
4 1 10.968 8.508 2.464 
8 1 11.771 8.508 1.228 
12 1 13.168 8.508 1.228 
18 1 10.098 7.277 2.464 
21 1 8.308 3.392 2.464 
26 1 8.833 4.734 2.464 
34 1 9.745 6.694 1.228 
42 1 9.106 5.393 1.228 
48 1 13.906 8.508 2.464 
52 1 15.331 8.508 2.464 
56 1 16.058 8.508 1.228 
19 1 10.098 9.739 2.464 
24 1 8.308 13.624 2.464 
27 1 8.833 12.282 2.464 
35 1 9.745 10.322 1.228 
43 1 9.106 11.623 1.228 
3 1 22.577 8.508 2.464 
7 1 21.775 8.508 1.228 
11 1 20.377 8.508 1.228 
20 1 23.447 7.277 2.464 
36 1 23.801 6.694 1.228 
44 1 24.439 5.393 1.228 
47 1 19.64 8.508 2.464 
51 1 18.214 8.508 2.464 
55 1 17.487 8.508 1.228 
17 1 23.447 9.739 2.464 
33 1 23.801 10.322 1.228 
41 1 24.439 11.623 1.228 
15 1 26.502 0.849 2.464 
23 1 25.237 3.392 2.464 
28 1 24.712 4.734 2.464 
31 1 26.149 1.432 1.228 
39 1 25.511 2.733 1.228 
2 1 27.373 17.398 2.464 
6 1 28.175 17.398 1.228 
10 1 29.572 17.398 1.228 
14 1 26.502 16.167 2.464 
22 1 25.237 13.624 2.464 
25 1 24.712 12.282 2.464 
30 1 26.149 15.584 1.228 
38 1 25.511 14.283 1.228 
46 1 30.31 17.398 2.464 
50 1 31.735 17.398 2.464 
54 1 32.462 17.398 1.228 
ITEM: TIMESTEP
10
ITEM: NUMBER OF ATOMS
58
ITEM: BOX BOUNDS pp pp pp
0.0000000000000000e+00 3.2808000000000000e+01
0.0000000000000000e+00 1.7780000000000001e+01
0.0000000000000000e+00 2.4729999999999999e+00
ITEM: ATOMS id type x y z 
13 1 7.07791 0.833548 2.46421 
29 1 7.43182 1.42321 1.22784 
37 1 8.05105 2.69289 1.22781 
57 2 1.81339 1.19415 2.46411 
58 3 1.8131 2.08002 2.46398 
1 1 6.13145 17.4006 2.46413 
5 1 5.38879 17.4019 1.22777 
9 1 3.95638 17.3989 1.22783 
16 1 7.07796 16.1832 2.46421 
32 1 7.43362 15.5897 1.22784 
40 1 8.05084 14.3238 1.22781 
45 1 3.17637 17.3148 2.46421 
49 1 1.81265 17.3041 2.46411 
53 1 1.12382 17.1973 1.2278 
4 1 10.9643 8.50796 2.46412 
8 1 11.7927 8.508 1.22785 
12 1 13.1896 8.508 1.22781 
18 1 10.0468 7.28548 2.46421 
21 1 8.30823 3.35994 2.46418 
26 1 8.82779 4.75404 2.46418 
34 1 9.68908 6.66433 1.22782 
42 1 9.09258 5.44062 1.22781 
48 1 13.8982 8.508 2.46419 
52 1 15.3457 8.508 2.46419 
56 1 16.0719 8.508 1.22781 
19 1 10.0468 9.73052 2.46421 
24 1 8.30821 13.6562 2.46418 
27 1 8.82819 12.2609 2.46418 
35 1 9.68904 10.3517 1.22782 
43 1 9.09256 11.5754 1.22781 
3 1 22.5773 8.508 2.46411 
7 1 21.7492 8.508 1.22785 
11 1 20.3545 8.508 1.22781 
20 1 23.5 7.28532 2.46421 
36 1 23.8625 6.65407 1.22782 
44 1 24.4552 5.43387 1.22781 
47 1 19.6525 8.508 2.46418 
51 1 18.1995 8.508 2.46419 
55 1 17.4641 8.508 1.22781 
17 1 23.5 9.73068 2.46421 
33 1 23.8625 10.3619 1.22782 
41 1 24.4552 11.5821 1.22781 
15 1 26.4496 0.841385 2.46421 
23 1 25.2347 3.36464 2.46418 
28 1 24.7107 4.7699 2.46418 
31 1 26.0902 1.4672 1.22782 
39 1 25.4988 2.68278 1.22781 
2 1 27.3482 17.398 2.4641 
6 1 28.2067 17.3979 1.22785 
10 1 29.6018 17.3979 1.22783 
14 1 26.4496 16.1746 2.46421 
22 1 25.2347 13.6514 2.46418 
25 1 24.7107 12.2461 2.46418 
30 1 26.0902 15.5488 1.22782 
38 1 25.4988 14.3332 1.22781 
46 1 30.3184 17.4001 2.46418 
50 1 31.765 17.4093 2.46416 
54 1 32.5199 17.3956 1.22781 
ITEM: TIMESTEP
20
ITEM: NUMBER OF ATOMS
58
ITEM: BOX BOUNDS pp pp pp
0.0000000000000000e+00 3.2808000000000000e+01
0.0000000000000000e+00 1.7780000000000001e+01
0.0000000000000000e+00 2.4729999999999999e+00
ITEM: ATOMS id type x y z 
13 1 7.07923 0.826703 2.46424 
29 1 7.44699 1.42527 1.2278 
37 1 8.06014 2.68852 1.22778 
57 2 1.81105 1.273 2.4641 
58 3 1.81386 2.1462 2.46398 
1 1 6.12648 17.3978 2.46416 
5 1 5.37591 17.405 1.22776 
9 1 3.95424 17.3976 1.2278 
16 1 7.07794 16.1892 2.46424 
32 1 7.44617 15.5918 1.2278 
40 1 8.06004 14.3276 1.22778 
45 1 3.17958 17.3072 2.46422 
49 1 1.82725 17.1831 2.46418 
53 1 1.14953 17.1684 1.22776 
4 1 10.9437 8.50802 2.46418 
8 1 11.7743 8.50801 1.2278 
12 1 13.1698 8.508 1.22779 
18 1 10.0358 7.28555 2.46423 
21 1 8.31578 3.36664 2.46421 
26 1 8.82396 4.75732 2.46421 
34 1 9.67944 6.67193 1.22778 
42 1 9.07729 5.42743 1.22778 
48 1 13.8848 8.508 2.4642 
52 1 15.3604 8.508 2.46421 
56 1 16.0985 8.508 1.22779 
19 1 10.0357 9.7305 2.46423 
24 1 8.31565 13.6497 2.46421 
27 1 8.82378 12.2592 2.46421 
35 1 9.6795 10.3439 1.22778 
43 1 9.07739 11.5883 1.22778 
3 1 22.6007 8.508 2.46418 
7 1 21.7712 8.508 1.2278 
11 1 20.3667 8.508 1.22779 
20 1 23.5096 7.28607 2.46423 
36 1 23.8659 6.67426 1.22778 
44 1 24.4653 5.43439 1.22778 
47 1 19.6604 8.508 2.4642 
51 1 18.1918 8.508 2.46421 
55 1 17.4463 8.508 1.22779 
17 1 23.5096 9.72993 2.46423 
33 1 23.8659 10.3417 1.22778 
41 1 24.4653 11.5816 1.22778 
15 1 26.4423 0.837988 2.46423 
23 1 25.2302 3.36271 2.46421 
28 1 24.7209 4.75715 2.46421 
31 1 26.0841 1.45264 1.22778 
39 1 25.485 2.69218 1.22778 
2 1 27.3569 17.398 2.46416 
6 1 28.1826 17.3977 1.22783 
10 1 29.5793 17.3977 1.2278 
14 1 26.4423 16.178 2.46423 
22 1 25.2302 13.6533 2.46421 
25 1 24.7209 12.2589 2.46421 
30 1 26.0841 15.5633 1.22778 
38 1 25.485 14.3238 1.22778 
46 1 30.3347 17.4026 2.4642 
50 1 31.7759 17.418 2.46419 
54 1 32.5136 17.3941 1.22779 
ITEM: TIMESTEP
30
ITEM: NUMBER OF ATOMS
58
ITEM: BOX BOUNDS pp pp pp
0.0000000000000000e+00 3.2808000000000000e+01
0.0000000000000000e+00 1.7780000000000001e+01
0.0000000000000000e+00 2.4729999999999999e+00
ITEM: ATOMS id type x y z 
13 1 7.08886 0.830666 2.46427 
29 1 7.46042 1.4333 1.22776 
37 1 8.06429 2.68087 1.22774 
57 2 1.80987 1.26695 2.4641 
58 3 1.81384 2.16936 2.46397 
1 1 6.15398 17.3978 2.46422 
5 1 5.36661 17.4082 1.22771 
9 1 3.92853 17.4025 1.22776 
16 1 7.08582 16.1855 2.46427 
32 1 7.45948 15.5836 1.22776 
40 1 8.0641 14.3355 1.22774 
45 1 3.17146 17.3021 2.46426 
49 1 1.8325 17.1624 2.46423 
53 1 1.14993 17.1592 1.22772 
4 1 10.9392 8.50806 2.46424 
8 1 11.7719 8.50802 1.22773 
12 1 13.1639 8.508 1.22775 
18 1 10.0274 7.2864 2.46426 
21 1 8.31651 3.35915 2.46425 
26 1 8.81894 4.75385 2.46425 
34 1 9.67014 6.6719 1.22776 
42 1 9.07286 5.43405 1.22774 
48 1 13.8933 8.508 2.46425 
52 1 15.367 8.508 2.46426 
56 1 16.1039 8.508 1.22775 
19 1 10.0274 9.7296 2.46426 
24 1 8.31642 13.6571 2.46425 
27 1 8.81879 12.2626 2.46425 
35 1 9.67011 10.3442 1.22776 
43 1 9.07273 11.5823 1.22774 
3 1 22.6017 8.508 2.46424 
7 1 21.7718 8.508 1.22773 
11 1 20.3798 8.508 1.22774 
20 1 23.5167 7.28792 2.46426 
36 1 23.8751 6.67447 1.22776 
44 1 24.471 5.43827 1.22774 
47 1 19.6556 8.508 2.46425 
51 1 18.1789 8.508 2.46426 
55 1 17.444 8.508 1.22775 
17 1 23.5167 9.72808 2.46426 
33 1 23.8751 10.3415 1.22776 
41 1 24.471 11.5777 1.22774 
15 1 26.4375 0.836093 2.46426 
23 1 25.2262 3.36352 2.46425 
28 1 24.7239 4.75905 2.46425 
31 1 26.0785 1.4462 1.22776 
39 1 25.4807 2.6849 1.22774 
2 1 27.3576 17.398 2.46424 
6 1 28.1897 17.3974 1.22773 
10 1 29.5763 17.3975 1.22775 
14 1 26.4374 16.1799 2.46426 
22 1 25.2262 13.6525 2.46425 
25 1 24.7239 12.2569 2.46425 
30 1 26.0784 15.5698 1.22776 
38 1 25.4807 14.3311 1.22774 
46 1 30.3348 17.4049 2.46426 
50 1 31.7746 17.4238 2.46424 
54 1 32.5074 17.3953 1.22773 
ITEM: TIMESTEP
40
ITEM: NUMBER OF ATOMS
58
ITEM: BOX BOUNDS pp pp pp
0.0000000000000000e+00 3.2808000000000000e+01
0.0000000000000000e+00 1.7780000000000001e+01
0.0000000000000000e+00 2.4729999999999999e+00
ITEM: ATOMS id type x y z 
13 1 7.11136 0.822359 2.46425 
29 1 7.49971 1.4174 1.22775 
37 1 8.10081 2.66336 1.22775 
57 2 1.80376 1.29592 2.46411 
58 3 1.81348 2.2188 2.46396 
1 1 6.16479 17.3986 2.46424 
5 1 5.38042 17.4247 1.22774 
9 1 3.94049 17.4309 1.22775 
16 1 7.09909 16.1916 2.46425 
32 1 7.49526 15.6015 1.22775 
40 1 8.10017 14.354 1.22775 
45 1 3.19273 17.2772 2.46425 
49 1 1.85171 17.0625 2.46424 
53 1 1.12546 17.0966 1.22773 
4 1 10.9318 8.50856 2.46425 
8 1 11.7573 8.50815 1.22774 
12 1 13.1499 8.50799 1.22775 
18 1 10.0043 7.301 2.46426 
21 1 8.33535 3.3536 2.46425 
26 1 8.79976 4.75746 2.46425 
34 1 9.63655 6.70149 1.22775 
42 1 9.03637 5.44025 1.22775 
48 1 13.8842 8.50799 2.46425 
52 1 15.3515 8.508 2.46425 
56 1 16.0856 8.508 1.22775 
19 1 10.0043 9.71549 2.46426 
24 1 8.33491 13.6637 2.46425 
27 1 8.79907 12.261 2.46425 
35 1 9.63642 10.3151 1.22775 
43 1 9.03581 11.5775 1.22775 
3 1 22.6039 8.50797 2.46425 
7 1 21.7834 8.50799 1.22775 
11 1 20.392 8.508 1.22774 
20 1 23.5441 7.3002 2.46425 
36 1 23.9147 6.69712 1.22775 
44 1 24.5086 5.4476 1.22775 
47 1 19.6535 8.508 2.46425 
51 1 18.1847 8.508 2.46425 
55 1 17.4495 8.508 1.22775 
17 1 23.5441 9.71578 2.46425 
33 1 23.9147 10.3188 1.22775 
41 1 24.5086 11.5683 1.22775 
15 1 26.4187 0.826603 2.46426 
23 1 25.2074 3.35698 2.46425 
28 1 24.7435 4.76249 2.46425 
31 1 26.04 1.42348 1.22775 
39 1 25.4451 2.66855 1.22775 
2 1 27.3559 17.398 2.46425 
6 1 28.1882 17.3947 1.22775 
10 1 29.5727 17.396 1.22775 
14 1 26.4177 16.1895 2.46426 
22 1 25.2074 13.6589 2.46425 
25 1 24.7435 12.2533 2.46425 
30 1 26.0397 15.5922 1.22775 
38 1 25.445 14.3473 1.22775 
46 1 30.3326 17.4201 2.46425 
50 1 31.7727 17.4592 2.46424 
54 1 32.4966 17.406 1.22773 
ITEM: TIMESTEP
50
ITEM: NUMBER OF ATOMS
58
ITEM: BOX BOUNDS pp pp pp
0.0000000000000000e+00 3.2808000000000000e+01
0.0000000000000000e+00 1.7780000000000001e+01
0.0000000000000000e+00 2.4729999999999999e+00
ITEM: ATOMS id type x y z 
13 1 7.12857 0.828659 2.46425 
29 1 7.51757 1.40657 1.22776 
37 1 8.12146 2.65828 1.22775 
57 2 1.80204 1.31352 2.46411 
58 3 1.81327 2.22511 2.46396 
1 1 6.16836 17.3996 2.46424 
5 1 5.36555 17.4336 1.22774 
9 1 3.94933 17.4493 1.22775 
16 1 7.10793 16.1833 2.46425 
32 1 7.5105 15.6119 1.22776 
40 1 8.12028 14.3607 1.22775 
45 1 3.18902 17.2634 2.46424 
49 1 1.86269 17.0229 2.46423 
53 1 1.10701 17.0632 1.22774 
4 1 10.9244 8.50897 2.46424 
8 1 11.7528 8.50838 1.22775 
12 1 13.148 8.50796 1.22775 
18 1 9.99235 7.29803 2.46425 
21 1 8.34553 3.34889 2.46425 
26 1 8.78999 4.76093 2.46425 
34 1 9.61165 6.69966 1.22776 
42 1 9.01945 5.44965 1.22775 
48 1 13.8899 8.50797 2.46425 
52 1 15.3533 8.508 2.46425 
56 1 16.0973 8.508 1.22775 
19 1 9.9921 9.71917 2.46425 
24 1 8.34496 13.6694 2.46425 
27 1 8.78912 12.2585 2.46425 
35 1 9.61135 10.3176 1.22776 
43 1 9.0188 11.5689 1.22775 
3 1 22.6151 8.50793 2.46425 
7 1 21.7848 8.50798 1.22775 
11 1 20.3892 8.508 1.22775 
20 1 23.5487 7.30333 2.46425 
36 1 23.934 6.70572 1.22776 
44 1 24.5273 5.45405 1.22775 
47 1 19.6568 8.508 2.46424 
51 1 18.1883 8.508 2.46425 
55 1 17.4488 8.508 1.22775 
17 1 23.5487 9.71259 2.46425 
33 1 23.9339 10.3102 1.22776 
41 1 24.5272 11.5617 1.22775 
15 1 26.4197 0.819431 2.46425 
23 1 25.1981 3.35125 2.46425 
28 1 24.7531 4.76639 2.46425 
31 1 26.0228 1.41346 1.22776 
39 1 25.4244 2.66395 1.22775 
2 1 27.3544 17.3979 2.46425 
6 1 28.1775 17.3922 1.22775 
10 1 29.5756 17.396 1.22775 
14 1 26.4175 16.1969 2.46425 
22 1 25.198 13.6645 2.46425 
25 1 24.753 12.2492 2.46425 
30 1 26.022 15.602 1.22776 
38 1 25.4242 14.3518 1.22775 
46 1 30.327 17.43 2.46425 
50 1 31.7732 17.4782 2.46423 
54 1 32.5031 17.4113 1.22774 
ITEM: TIMESTEP
60
ITEM: NUMBER OF ATOMS
58
ITEM: BOX BOUNDS pp pp pp
0.0000000000000000e+00 3.2808000000000000e+01
0.0000000000000000e+00 1.7780000000000001e+01
0.0000000000000000e+00 2.4729999999999999e+00
ITEM: ATOMS id type x y z 
13 1 7.16209 0.780195 2.46426 
29 1 7.62141 1.33311 1.22773 
37 1 8.25668 2.61786 1.22774 
57 2 1.79407 1.35397 2.46412 
58 3 1.81253 2.30739 2.46394 
1 1 6.15983 17.4071 2.46426 
5 1 5.36343 17.4967 1.22775 
9 1 3.9303 17.5127 1.22774 
16 1 7.08393 16.2109 2.46426 
32 1 7.58161 15.687 1.22774 
40 1 8.25274 14.4095 1.22774 
45 1 3.24379 17.222 2.46424 
49 1 1.79287 16.7956 2.46425 
53 1 1.0597 16.8725 1.22774 
4 1 10.9298 8.51279 2.46426 
8 1 11.7508 8.51092 1.22774 
12 1 13.1559 8.5078 1.22775 
18 1 9.97192 7.33084 2.46426 
21 1 8.42433 3.33879 2.46426 
26 1 8.71703 4.76827 2.46426 
34 1 9.5143 6.7789 1.22774 
42 1 8.89103 5.48723 1.22774 
48 1 13.8268 8.50758 2.46425 
52 1 15.3014 8.50793 2.46426 
56 1 16.0282 8.50801 1.22774 
19 1 9.97069 9.69163 2.46426 
24 1 8.4241 13.6876 2.46426 
27 1 8.7155 12.2602 2.46426 
35 1 9.51323 10.2436 1.22774 
43 1 8.88903 11.5398 1.22774 
3 1 22.6308 8.5073 2.46426 
7 1 21.8112 8.50769 1.22774 
11 1 20.4029 8.50802 1.22774 
20 1 23.5793 7.31203 2.46426 
36 1 24.0424 6.77017 1.22774 
44 1 24.6621 5.4868 1.22774 
47 1 19.6631 8.50803 2.46425 
51 1 18.2082 8.508 2.46426 
55 1 17.4651 8.50801 1.22774 
17 1 23.5791 9.70313 2.46426 
33 1 24.0423 10.2448 1.22774 
41 1 24.6617 11.527 1.22774 
15 1 26.4202 0.798628 2.46426 
23 1 25.1238 3.33198 2.46426 
28 1 24.8299 4.7664 2.46426 
31 1 25.9399 1.32688 1.22774 
39 1 25.2901 2.61951 1.22774 
2 1 27.3753 17.3955 2.46426 
6 1 28.1853 17.3725 1.22774 
10 1 29.5984 17.406 1.22774 
14 1 26.4052 16.2202 2.46426 
22 1 25.1233 13.6823 2.46426 
25 1 24.8293 12.2465 2.46426 
30 1 25.9323 15.6857 1.22774 
38 1 25.2889 14.3944 1.22774 
46 1 30.3494 17.4975 2.46425 
50 1 31.7892 17.6028 2.46425 
54 1 32.5233 17.4135 1.22773 
ITEM: TIMESTEP
70
ITEM: NUMBER OF ATOMS
58
ITEM: BOX BOUNDS pp pp pp
0.0000000000000000e+00 3.2808000000000000e+01
0.0000000000000000e+00 1.7780000000000001e+01
0.0000000000000000e+00 2.4729999999999999e+00
ITEM: ATOMS id type x y z 
13 1 7.17775 0.753603 2.46424 
29 1 7.63778 1.29679 1.22775 
37 1 8.30656 2.60112 1.22775 
57 2 1.79108 1.40171 2.46413 
58 3 1.81127 2.30335 2.46393 
1 1 6.13175 17.4216 2.46425 
5 1 5.32019 17.5109 1.22776 
9 1 3.92458 17.4221 1.22774 
16 1 7.09839 16.2272 2.46424 
32 1 7.55785 15.7008 1.22775 
40 1 8.28149 14.4363 1.22775 
45 1 3.18686 17.223 2.46424 
49 1 1.81821 16.79 2.46425 
53 1 1.06217 16.8553 1.22774 
4 1 10.8714 8.51987 2.46424 
8 1 11.6948 8.51542 1.22776 
12 1 13.0951 8.50761 1.22775 
18 1 9.92827 7.31967 2.46424 
21 1 8.4646 3.31379 2.46425 
26 1 8.67268 4.7543 2.46425 
34 1 9.46994 6.78667 1.22775 
42 1 8.81547 5.47405 1.22775 
48 1 13.8684 8.50679 2.46425 
52 1 15.2907 8.50772 2.46424 
56 1 16.0555 8.50805 1.22775 
19 1 9.92297 9.71426 2.46424 
24 1 8.46302 13.7162 2.46425 
27 1 8.6736 12.2862 2.46425 
35 1 9.46635 10.2493 1.22775 
43 1 8.81853 11.5658 1.22775 
3 1 22.6609 8.50436 2.46424 
7 1 21.8276 8.50633 1.22776 
11 1 20.4422 8.50807 1.22775 
20 1 23.6156 7.31916 2.46425 
36 1 24.073 6.78008 1.22775 
44 1 24.7317 5.47226 1.22775 
47 1 19.6804 8.50812 2.46425 
51 1 18.2388 8.50803 2.46425 
55 1 17.4893 8.50804 1.22775 
17 1 23.6139 9.69215 2.46425 
33 1 24.0725 10.2307 1.22775 
41 1 24.7337 11.5391 1.22775 
15 1 26.4026 0.786684 2.46425 
23 1 25.0828 3.31357 2.46425 
28 1 24.8765 4.75143 2.46425 
31 1 25.943 1.3071 1.22775 
39 1 25.2476 2.59254 1.22775 
2 1 27.4025 17.3908 2.46425 
6 1 28.2258 17.3719 1.22775 
10 1 29.6182 17.4431 1.22775 
14 1 26.3853 16.2355 2.46425 
22 1 25.0807 13.6976 2.46425 
25 1 24.8763 12.2581 2.46425 
30 1 25.9245 15.7109 1.22775 
38 1 25.2405 14.4186 1.22775 
46 1 30.3792 17.5332 2.46424 
50 1 31.807 17.5766 2.46424 
54 1 32.5415 17.3866 1.22775 
ITEM: TIMESTEP
80
ITEM: NUMBER OF ATOMS
58
ITEM: BOX BOUNDS pp pp pp
0.0000000000000000e+00 3.2808000000000000e+01
0.0000000000000000e+00 1.7780000000000001e+01
0.0000000000000000e+00 2.4729999999999999e+00
ITEM: ATOMS id type x y z 
13 1 7.17926 0.761437 2.46425 
29 1 7.64489 1.2998 1.22775 
37 1 8.31143 2.59863 1.22775 
57 2 1.79077 1.39535 2.46413 
58 3 1.81136 2.30998 2.46393 
1 1 6.13428 17.4229 2.46425 
5 1 5.32531 17.512 1.22775 
9 1 3.923 17.4222 1.22774 
16 1 7.0911 16.2235 2.46425 
32 1 7.56018 15.6995 1.22775 
40 1 8.28761 14.4364 1.22775 
45 1 3.18647 17.2193 2.46424 
49 1 1.81663 16.7851 2.46425 
53 1 1.06323 16.8491 1.22775 
4 1 10.8769 8.51948 2.46425 
8 1 11.6963 8.51581 1.22775 
12 1 13.0988 8.50777 1.22775 
18 1 9.9257 7.32365 2.46425 
21 1 8.46852 3.32005 2.46425 
26 1 8.67055 4.75649 2.46425 
34 1 9.47255 6.7856 1.22775 
42 1 8.8161 5.48139 1.22775 
48 1 13.8594 8.50673 2.46425 
52 1 15.2982 8.50766 2.46425 
56 1 16.0469 8.50804 1.22775 
19 1 9.92093 9.71025 2.46425 
24 1 8.46606 13.7157 2.46425 
27 1 8.6724 12.2824 2.46425 
35 1 9.4692 10.25 1.22775 
43 1 8.8192 11.5561 1.22775 
3 1 22.6588 8.50495 2.46425 
7 1 21.8357 8.50622 1.22775 
11 1 20.4375 8.50804 1.22775 
20 1 23.6189 7.31916 2.46425 
36 1 24.0719 6.77798 1.22775 
44 1 24.7313 5.47544 1.22775 
47 1 19.6773 8.50816 2.46425 
51 1 18.2375 8.50804 2.46425 
55 1 17.4894 8.50805 1.22775 
17 1 23.6174 9.69231 2.46425 
33 1 24.0713 10.2328 1.22775 
41 1 24.7326 11.5345 1.22775 
15 1 26.4092 0.783517 2.46425 
23 1 25.0809 3.31418 2.46425 
28 1 24.8785 4.75029 2.46425 
31 1 25.9424 1.3104 1.22775 
39 1 25.2451 2.59313 1.22775 
2 1 27.3996 17.3907 2.46425 
6 1 28.2156 17.3726 1.22775 
10 1 29.6138 17.4465 1.22775 
14 1 26.3903 16.2374 2.46425 
22 1 25.0785 13.6963 2.46425 
25 1 24.8787 12.2595 2.46425 
30 1 25.9225 15.7073 1.22775 
38 1 25.2376 14.418 1.22775 
46 1 30.3701 17.5367 2.46424 
50 1 31.8091 17.5783 2.46424 
54 1 32.5363 17.3875 1.22774 
ITEM: TIMESTEP
90
ITEM: NUMBER OF ATOMS
58
ITEM: BOX BOUNDS pp pp pp
0.0000000000000000e+00 3.2808000000000000e+01
0.0000000000000000e+00 1.7780000000000001e+01
0.0000000000000000e+00 2.4729999999999999e+00
ITEM: ATOMS id type x y z 
13 1 7.18212 0.7727 2.46425 
29 1 7.65221 1.30451 1.22775 
37 1 8.32917 2.59649 1.22775 
57 2 1.78969 1.39358 2.46413 
58 3 1.81107 2.31333 2.46393 
1 1 6.14427 17.4305 2.46425 
5 1 5.33182 17.5051 1.22775 
9 1 3.93244 17.4003 1.22774 
16 1 7.07942 16.2151 2.46425 
32 1 7.54692 15.6924 1.22775 
40 1 8.29036 14.4407 1.22775 
45 1 3.19696 17.1968 2.46424 
49 1 1.81621 16.7946 2.46425 
53 1 1.06285 16.8511 1.22774 
4 1 10.8771 8.52158 2.46425 
8 1 11.6962 8.51816 1.22775 
12 1 13.099 8.50852 1.22775 
18 1 9.91539 7.33157 2.46425 
21 1 8.48014 3.32058 2.46425 
26 1 8.65949 4.76252 2.46425 
34 1 9.4771 6.78228 1.22775 
42 1 8.80755 5.48491 1.22775 
48 1 13.8622 8.5063 2.46425 
52 1 15.2975 8.50721 2.46425 
56 1 16.0463 8.50792 1.22775 
19 1 9.91091 9.70617 2.46425 
24 1 8.4736 13.7201 2.46425 
27 1 8.66548 12.2829 2.46425 
35 1 9.47303 10.2582 1.22775 
43 1 8.81356 11.5573 1.22775 
3 1 22.6596 8.50384 2.46425 
7 1 21.8359 8.50529 1.22775 
11 1 20.4415 8.50782 1.22775 
20 1 23.6256 7.32187 2.46425 
36 1 24.0676 6.773 1.22775 
44 1 24.7377 5.47585 1.22775 
47 1 19.6782 8.50832 2.46425 
51 1 18.2387 8.50817 2.46425 
55 1 17.4887 8.50812 1.22775 
17 1 23.6243 9.68805 2.46425 
33 1 24.0671 10.2366 1.22775 
41 1 24.7398 11.5323 1.22775 
15 1 26.4146 0.792803 2.46425 
23 1 25.0718 3.3115 2.46425 
28 1 24.8872 4.75043 2.46425 
31 1 25.9503 1.31693 1.22775 
39 1 25.2376 2.59052 1.22775 
2 1 27.392 17.3876 2.46425 
6 1 28.2109 17.3776 1.22775 
10 1 29.609 17.4697 1.22775 
14 1 26.3919 16.2267 2.46425 
22 1 25.0679 13.6974 2.46425 
25 1 24.8886 12.2574 2.46425 
30 1 25.9244 15.7011 1.22775 
38 1 25.2257 14.4197 1.22775 
46 1 30.3625 17.5533 2.46424 
50 1 31.8009 17.5645 2.46424 
54 1 32.5309 17.3698 1.22774 
ITEM: TIMESTEP
100
ITEM: NUMBER OF ATOMS
58
ITEM: BOX BOUNDS pp pp pp
0.0000000000000000e+00 3.2808000000000000e+01
0.0000000000000000e+00 1.7780000000000001e+01
0.0000000000000000e+00 2.4729999999999999e+00
ITEM: ATOMS id type x y z 
13 1 7.19595 0.788218 2.46425 
29 1 7.66294 1.31452 1.22775 
37 1 8.35756 2.59787 1.22775 
57 2 1.78787 1.38907 2.46415 
58 3 1.81069 2.32031 2.46391 
1 1 6.15727 17.4429 2.46425 
5 1 5.34834 17.5052 1.22775 
9 1 3.94706 17.3581 1.22775 
16 1 7.06946 16.2093 2.46425 
32 1 7.52654 15.6815 1.22775 
40 1 8.29669 14.4416 1.22775 
45 1 3.20859 17.1593 2.46425 
49 1 1.81743 16.8047 2.46425 
53 1 1.06303 16.8571 1.22774 
4 1 10.8777 8.52342 2.46425 
8 1 11.7005 8.52149 1.22775 
12 1 13.0991 8.50977 1.22775 
18 1 9.91337 7.33652 2.46425 
21 1 8.49898 3.32468 2.46425 
26 1 8.64622 4.7698 2.46425 
34 1 9.47735 6.78381 1.22775 
42 1 8.79674 5.49063 1.22775 
48 1 13.8631 8.50608 2.46425 
52 1 15.2977 8.50634 2.46425 
56 1 16.0463 8.50746 1.22775 
19 1 9.91031 9.7053 2.46425 
24 1 8.48298 13.7245 2.46425 
27 1 8.65925 12.2826 2.46425 
35 1 9.47424 10.2616 1.22775 
43 1 8.8068 11.5601 1.22775 
3 1 22.6594 8.50281 2.46425 
7 1 21.8386 8.50407 1.22775 
11 1 20.4391 8.50743 1.22775 
20 1 23.6288 7.31877 2.46425 
36 1 24.0642 6.77134 1.22775 
44 1 24.744 5.47845 1.22775 
47 1 19.6787 8.50847 2.46425 
51 1 18.236 8.50852 2.46425 
55 1 17.4908 8.50829 1.22775 
17 1 23.628 9.68946 2.46425 
33 1 24.0643 10.2367 1.22775 
41 1 24.7474 11.527 1.22775 
15 1 26.4175 0.800749 2.46425 
23 1 25.0591 3.31083 2.46425 
28 1 24.896 4.75212 2.46425 
31 1 25.9603 1.32911 1.22775 
39 1 25.2246 2.59077 1.22775 
2 1 27.3816 17.3833 2.46425 
6 1 28.1989 17.3851 1.22775 
10 1 29.5955 17.5075 1.22775 
14 1 26.3904 16.2147 2.46425 
22 1 25.052 13.6956 2.46425 
25 1 24.8992 12.2532 2.46425 
30 1 25.9264 15.6888 1.22775 
38 1 25.2061 14.4185 1.22775 
46 1 30.3564 17.5844 2.46425 
50 1 31.7882 17.5419 2.46424 
54 1 32.5194 17.3385 1.22775 
ITEM: TIMESTEP
110
ITEM: NUMBER OF ATOMS
58
ITEM: BOX BOUNDS pp pp pp
0.0000000000000000e+00 3.2808000000000000e+01
0.0000000000000000e+00 1.7780000000000001e+01
0.0000000000000000e+00 2.4729999999999999e+00
ITEM: ATOMS id type x y z 
13 1 7.20482 0.793817 2.46425 
29 1 7.67189 1.32372 1.22775 
37 1 8.37677 2.59983 1.22775 
57 2 1.7865 1.39397 2.46415 
58 3 1.81019 2.31748 2.46391 
1 1 6.16645 17.4556 2.46425 
5 1 5.3541 17.5035 1.22775 
9 1 3.95985 17.3175 1.22775 
16 1 7.06433 16.2086 2.46425 
32 1 7.51225 15.6739 1.22775 
40 1 8.29402 14.442 1.22775 
45 1 3.22338 17.1265 2.46425 
49 1 1.81884 16.8183 2.46425 
53 1 1.06663 16.8687 1.22774 
4 1 10.8773 8.52586 2.46425 
8 1 11.6963 8.52387 1.22775 
12 1 13.0979 8.51088 1.22775 
18 1 9.91234 7.33748 2.46425 
21 1 8.51428 3.329 2.46425 
26 1 8.63932 4.77311 2.46425 
34 1 9.47733 6.78706 1.22775 
42 1 8.78979 5.49678 1.22775 
48 1 13.8603 8.50613 2.46425 
52 1 15.2983 8.50556 2.46425 
56 1 16.0474 8.5069 1.22775 
19 1 9.90901 9.70965 2.46425 
24 1 8.48789 13.7249 2.46425 
27 1 8.65758 12.2852 2.46425 
35 1 9.47634 10.2627 1.22775 
43 1 8.80613 11.5611 1.22775 
3 1 22.6589 8.5031 2.46425 
7 1 21.8409 8.50338 1.22775 
11 1 20.4381 8.5071 1.22775 
20 1 23.6279 7.31741 2.46425 
36 1 24.0649 6.76761 1.22775 
44 1 24.7485 5.479 1.22775 
47 1 19.6797 8.50853 2.46425 
51 1 18.2382 8.50886 2.46425 
55 1 17.4916 8.50844 1.22775 
17 1 23.6273 9.68951 2.46425 
33 1 24.0649 10.2384 1.22775 
41 1 24.7532 11.5243 1.22775 
15 1 26.4184 0.801944 2.46425 
23 1 25.0504 3.31111 2.46425 
28 1 24.8997 4.75246 2.46425 
31 1 25.968 1.33591 1.22775 
39 1 25.2198 2.58959 1.22775 
2 1 27.3739 17.38 2.46425 
6 1 28.1928 17.3938 1.22775 
10 1 29.5855 17.5403 1.22775 
14 1 26.3905 16.2105 2.46425 
22 1 25.0402 13.6936 2.46425 
25 1 24.9041 12.2512 2.46425 
30 1 25.9294 15.6802 1.22775 
38 1 25.1956 14.4192 1.22775 
46 1 30.3462 17.6073 2.46425 
50 1 31.7801 17.5161 2.46425 
54 1 32.5047 17.3114 1.22775 
ITEM: TIMESTEP
120
ITEM: NUMBER OF ATOMS
58
ITEM: BOX BOUNDS pp pp pp
0.0000000000000000e+00 3.2808000000000000e+01
0.0000000000000000e+00 1.7780000000000001e+01
0.0000000000000000e+00 2.4729999999999999e+00
ITEM: ATOMS id type x y z 
13 1 7.20817 0.795248 2.46425 
29 1 7.67632 1.32505 1.22775 
37 1 8.38059 2.6011 1.22775 
57 2 1.7861 1.39449 2.46416 
58 3 1.81012 2.31748 2.4639 
1 1 6.16893 17.4576 2.46425 
5 1 5.35509 17.5053 1.22775 
9 1 3.9637 17.306 1.22775 
16 1 7.06485 16.2096 2.46425 
32 1 7.51243 15.6743 1.22775 
40 1 8.29051 14.441 1.22775 
45 1 3.22641 17.1153 2.46425 
49 1 1.81793 16.8208 2.46424 
53 1 1.06742 16.8731 1.22775 
4 1 10.8784 8.52559 2.46425 
8 1 11.6965 8.52396 1.22775 
12 1 13.0992 8.51119 1.22775 
18 1 9.91354 7.33714 2.46425 
21 1 8.51838 3.33108 2.46425 
26 1 8.64091 4.77416 2.46425 
34 1 9.47594 6.78781 1.22775 
42 1 8.78923 5.50182 1.22775 
48 1 13.8582 8.50639 2.46425 
52 1 15.2995 8.50535 2.46425 
56 1 16.0465 8.50661 1.22775 
19 1 9.91068 9.71028 2.46425 
24 1 8.48663 13.7245 2.46425 
27 1 8.65992 12.2863 2.46425 
35 1 9.47623 10.263 1.22775 
43 1 8.80764 11.5593 1.22775 
3 1 22.6591 8.50314 2.46425 
7 1 21.841 8.50344 1.22775 
11 1 20.4388 8.50701 1.22775 
20 1 23.6264 7.31739 2.46425 
36 1 24.065 6.76829 1.22775 
44 1 24.7485 5.47963 1.22775 
47 1 19.6786 8.50849 2.46425 
51 1 18.2378 8.50897 2.46425 
55 1 17.4906 8.50846 1.22775 
17 1 23.626 9.68957 2.46425 
33 1 24.0656 10.2377 1.22775 
41 1 24.7537 11.5236 1.22775 
15 1 26.4166 0.80066 2.46425 
23 1 25.0498 3.31237 2.46425 
28 1 24.8977 4.75315 2.46425 
31 1 25.966 1.33619 1.22775 
39 1 25.2209 2.58971 1.22775 
2 1 27.3726 17.3794 2.46425 
6 1 28.1903 17.3963 1.22775 
10 1 29.5846 17.5489 1.22775 
14 1 26.3905 16.2101 2.46425 
22 1 25.0385 13.6928 2.46425 
25 1 24.9021 12.2508 2.46425 
30 1 25.9285 15.6788 1.22775 
38 1 25.1958 14.4191 1.22775 
46 1 30.3417 17.6128 2.46425 
50 1 31.7785 17.5079 2.46425 
54 1 32.4998 17.3043 1.22775 
ITEM: TIMESTEP
130
ITEM: NUMBER OF ATOMS
58
ITEM: BOX BOUNDS pp pp pp
0.0000000000000000e+00 3.2808000000000000e+01
0.0000000000000000e+00 1.7780000000000001e+01
0.0000000000000000e+00 2.4729999999999999e+00
ITEM: ATOMS id type x y z 
13 1 7.21191 0.797423 2.46425 
29 1 7.68113 1.32586 1.22775 
37 1 8.38621 2.60187 1.22775 
57 2 1.78559 1.39352 2.46416 
58 3 1.81009 2.31907 2.4639 
1 1 6.17084 17.4616 2.46425 
5 1 5.35783 17.5065 1.22775 
9 1 3.9673 17.2923 1.22775 
16 1 7.06512 16.2119 2.46425 
32 1 7.51151 15.6758 1.22775 
40 1 8.28792 14.4407 1.22775 
45 1 3.23027 17.1018 2.46425 
49 1 1.81895 16.8236 2.46425 
53 1 1.06817 16.8769 1.22774 
4 1 10.8783 8.52579 2.46425 
8 1 11.6974 8.5242 1.22775 
12 1 13.0992 8.51154 1.22775 
18 1 9.9137 7.3375 2.46425 
21 1 8.52319 3.33165 2.46425 
26 1 8.64149 4.7757 2.46425 
34 1 9.47442 6.78945 1.22775 
42 1 8.78588 5.50356 1.22775 
48 1 13.8587 8.5066 2.46425 
52 1 15.2995 8.50509 2.46425 
56 1 16.0466 8.50629 1.22775 
19 1 9.91169 9.7105 2.46425 
24 1 8.48494 13.725 2.46425 
27 1 8.66166 12.2864 2.46425 
35 1 9.47646 10.263 1.22775 
43 1 8.80757 11.5601 1.22775 
3 1 22.659 8.5034 2.46425 
7 1 21.8402 8.50358 1.22775 
11 1 20.4382 8.50694 1.22775 
20 1 23.6258 7.31749 2.46425 
36 1 24.0652 6.76911 1.22775 
44 1 24.7493 5.48074 1.22775 
47 1 19.679 8.50846 2.46425 
51 1 18.2379 8.50907 2.46425 
55 1 17.491 8.50846 1.22775 
17 1 23.6258 9.68965 2.46425 
33 1 24.0664 10.2369 1.22775 
41 1 24.755 11.5225 1.22775 
15 1 26.4135 0.800254 2.46425 
23 1 25.0489 3.31281 2.46425 
28 1 24.8967 4.75387 2.46425 
31 1 25.9635 1.33558 1.22775 
39 1 25.2196 2.59051 1.22775 
2 1 27.3708 17.3792 2.46425 
6 1 28.1882 17.3993 1.22775 
10 1 29.5819 17.5587 1.22775 
14 1 26.39 16.2083 2.46425 
22 1 25.0362 13.6925 2.46425 
25 1 24.9009 12.2502 2.46425 
30 1 25.9277 15.678 1.22775 
38 1 25.1937 14.4186 1.22775 
46 1 30.3407 17.6197 2.46425 
50 1 31.7749 17.4996 2.46425 
54 1 32.4973 17.2954 1.22775 
ITEM: TIMESTEP
140
ITEM: NUMBER OF ATOMS
58
ITEM: BOX BOUNDS pp pp pp
0.0000000000000000e+00 3.2808000000000000e+01
0.0000000000000000e+00 1.7780000000000001e+01
0.0000000000000000e+00 2.4729999999999999e+00
ITEM: ATOMS id type x y z 
13 1 7.21848 0.802051 2.46425 
29 1 7.69033 1.32791 1.22775 
37 1 8.39783 2.60268 1.22775 
57 2 1.78457 1.39289 2.46418 
58 3 1.81008 2.32092 2.46388 
1 1 6.17377 17.47 2.46425 
5 1 5.36175 17.5065 1.22775 
9 1 3.97466 17.2637 1.22775 
16 1 7.06629 16.2177 2.46425 
32 1 7.5092 15.679 1.22775 
40 1 8.28119 14.4404 1.22775 
45 1 3.23732 17.0751 2.46425 
49 1 1.82047 16.8293 2.46425 
53 1 1.06981 16.885 1.22774 
4 1 10.8782 8.526 2.46425 
8 1 11.6989 8.52426 1.22775 
12 1 13.0991 8.51219 1.22775 
18 1 9.91219 7.33876 2.46425 
21 1 8.53323 3.33284 2.46425 
26 1 8.64125 4.77778 2.46425 
34 1 9.47095 6.792 1.22775 
42 1 8.78079 5.50641 1.22775 
48 1 13.8593 8.50703 2.46425 
52 1 15.2999 8.50462 2.46425 
56 1 16.0473 8.50569 1.22775 
19 1 9.91256 9.7108 2.46425 
24 1 8.48032 13.7263 2.46425 
27 1 8.66344 12.2878 2.46425 
35 1 9.47746 10.2639 1.22775 
43 1 8.80946 11.5626 1.22775 
3 1 22.6583 8.5041 2.46425 
7 1 21.8391 8.50413 1.22775 
11 1 20.4379 8.50693 1.22775 
20 1 23.6258 7.31822 2.46425 
36 1 24.0653 6.77041 1.22775 
44 1 24.7497 5.48197 1.22775 
47 1 19.6795 8.50841 2.46425 
51 1 18.2382 8.50916 2.46425 
55 1 17.4914 8.50837 1.22775 
17 1 23.6267 9.68939 2.46425 
33 1 24.0676 10.2357 1.22775 
41 1 24.7563 11.5216 1.22775 
15 1 26.4065 0.798671 2.46425 
23 1 25.0472 3.31398 2.46425 
28 1 24.896 4.75538 2.46425 
31 1 25.9579 1.33388 1.22775 
39 1 25.2172 2.59164 1.22775 
2 1 27.368 17.3793 2.46425 
6 1 28.1856 17.4074 1.22775 
10 1 29.5774 17.5772 1.22775 
14 1 26.3899 16.205 2.46425 
22 1 25.0317 13.6922 2.46425 
25 1 24.8998 12.2493 2.46425 
30 1 25.9274 15.6764 1.22775 
38 1 25.1902 14.4181 1.22775 
46 1 30.3392 17.6306 2.46425 
50 1 31.7687 17.4821 2.46425 
54 1 32.4926 17.2784 1.22775 
ITEM: TIMESTEP
150
ITEM: NUMBER OF ATOMS
58
ITEM: BOX BOUNDS pp pp pp
0.0000000000000000e+00 3.2808000000000000e+01
0.0000000000000000e+00 1.7780000000000001e+01
0.0000000000000000e+00 2.4729999999999999e+00
ITEM: ATOMS id type x y z 
13 1 7.22505 0.807919 2.46425 
29 1 7.70135 1.33161 1.22775 
37 1 8.41419 2.6027 1.22775 
57 2 1.78324 1.397 2.4642 
58 3 1.81003 2.31853 2.46386 
1 1 6.17644 17.4826 2.46425 
5 1 5.36253 17.5021 1.22775 
9 1 3.98376 17.223 1.22775 
16 1 7.06876 16.2278 2.46425 
32 1 7.50537 15.6849 1.22775 
40 1 8.26927 14.4408 1.22775 
45 1 3.24685 17.0398 2.46425 
49 1 1.82096 16.8373 2.46425 
53 1 1.07329 16.8961 1.22775 
4 1 10.8775 8.52502 2.46425 
8 1 11.6955 8.52351 1.22775 
12 1 13.0988 8.51288 1.22775 
18 1 9.90851 7.34015 2.46425 
21 1 8.54744 3.33403 2.46425 
26 1 8.64092 4.7795 2.46425 
34 1 9.46533 6.79493 1.22775 
42 1 8.77563 5.50986 1.22775 
48 1 13.8581 8.50768 2.46425 
52 1 15.2991 8.50405 2.46425 
56 1 16.0466 8.50485 1.22775 
19 1 9.91303 9.71305 2.46425 
24 1 8.47124 13.7283 2.46425 
27 1 8.66503 12.2911 2.46425 