ITEM: TIMESTEP
0
ITEM: NUMBER OF ATOMS
50
ITEM: BOX BOUNDS pp pp pp
0.0000000000000000e+00 1.1000000000000000e+01
0.0000000000000000e+00 1.1002000000000001e+01
0.0000000000000000e+00 1.1000000000000000e+01
ITEM: ATOMS id type x y z 
10 1 4.603 4.603 4.603 
11 1 3.085 3.085 3.085 
12 1 3.796 3.796 3.796 
46 1 0.726 0.725 0.725 
47 1 2.26 2.259 2.26 
48 1 1.551 1.55 1.55 
19 1 4.546 4.545 6.226 
20 1 3.013 3.013 7.764 
21 1 3.721 3.721 7.053 
31 1 0.668 0.667 10.103 
32 1 2.187 2.187 8.589 
33 1 1.476 1.475 9.298 
16 1 4.546 6.225 4.546 
17 1 3.013 7.765 3.013 
18 1 3.721 7.053 3.722 
25 1 0.668 10.103 0.668 
26 1 2.188 8.589 2.188 
27 1 1.476 9.298 1.476 
4 1 4.608 6.169 6.169 
5 1 3.086 7.684 7.684 
6 1 3.799 6.974 6.974 
37 1 0.729 10.046 10.046 
38 1 2.259 8.509 8.508 
39 1 1.552 9.219 9.219 
13 1 6.225 4.546 4.546 
14 1 7.764 3.013 3.013 
15 1 7.053 3.721 3.722 
28 1 10.102 0.667 0.668 
29 1 8.589 2.187 2.188 
30 1 9.298 1.475 1.476 
1 1 6.168 4.608 6.169 
2 1 7.684 3.086 7.684 
3 1 6.974 3.799 6.974 
40 1 10.045 0.728 10.046 
41 1 8.508 2.259 8.508 
42 1 9.218 1.551 9.218 
49 2 7.496 3.486 8.967 
50 3 6.52 3.486 8.967 
7 1 6.169 6.169 4.608 
8 1 7.684 7.684 3.086 
9 1 6.974 6.974 3.799 
43 1 10.046 10.047 0.729 
44 1 8.508 8.509 2.259 
45 1 9.219 9.219 1.552 
22 1 6.229 6.229 6.229 
23 1 7.764 7.765 7.765 
24 1 7.055 7.056 7.055 
34 1 10.108 10.108 10.107 
35 1 8.59 8.59 8.59 
36 1 9.301 9.301 9.3 
ITEM: TIMESTEP
10
ITEM: NUMBER OF ATOMS
50
ITEM: BOX BOUNDS pp pp pp
0.0000000000000000e+00 1.1000000000000000e+01
0.0000000000000000e+00 1.1002000000000001e+01
0.0000000000000000e+00 1.1000000000000000e+01
ITEM: ATOMS id type x y z 
10 1 4.59396 4.59138 4.60723 
11 1 3.09167 3.08892 3.0911 
12 1 3.79143 3.79668 3.79346 
46 1 0.743551 0.737234 0.739951 
47 1 2.26668 2.26873 2.2645 
48 1 1.56204 1.55491 1.56438 
19 1 4.50246 4.55012 6.22866 
20 1 3.01192 3.00245 7.77231 
21 1 3.70577 3.72559 7.05359 
31 1 0.697122 0.670537 10.1004 
32 1 2.18509 2.19322 8.58186 
33 1 1.49464 1.47579 9.29766 
16 1 4.53257 6.2367 4.53316 
17 1 3.00938 7.76703 3.01096 
18 1 3.71664 7.06003 3.7147 
25 1 0.680671 10.0936 0.681365 
26 1 2.18642 8.59153 2.18723 
27 1 1.47708 9.29518 1.47571 
4 1 4.60549 6.16975 6.18121 
5 1 3.08928 7.68095 7.67765 
6 1 3.79809 6.9741 6.98044 
37 1 0.743661 10.0316 10.0339 
38 1 2.26662 8.50139 8.49814 
39 1 1.56128 9.2103 9.21476 
13 1 6.22922 4.54677 4.49194 
14 1 7.77651 2.99922 3.00879 
15 1 7.05648 3.72004 3.70067 
28 1 10.1004 0.671509 0.698679 
29 1 8.58353 2.193 2.18438 
30 1 9.29923 1.47226 1.49333 
1 1 6.18724 4.6 6.14206 
2 1 7.67377 3.06261 7.6211 
3 1 6.97478 3.79253 6.87954 
40 1 10.0594 0.713528 10.0714 
41 1 8.57972 2.20524 8.39866 
42 1 9.21708 1.54775 9.19309 
49 2 7.43951 3.61271 9.15366 
50 3 6.45792 3.47923 9.05913 
7 1 6.17913 6.17792 4.60729 
8 1 7.68082 7.67904 3.08693 
9 1 6.97572 6.97948 3.80123 
43 1 10.0341 10.0293 0.744525 
44 1 8.49922 8.5023 2.26564 
45 1 9.21292 9.20858 1.56294 
22 1 6.22636 6.27466 6.22937 
23 1 7.76676 7.75959 7.76775 
24 1 7.05802 7.07702 7.05933 
34 1 10.1049 10.0783 10.102 
35 1 8.58441 8.59156 8.5812 
36 1 9.29733 9.28118 9.30106 
ITEM: TIMESTEP
20
ITEM: NUMBER OF ATOMS
50
ITEM: BOX BOUNDS pp pp pp
0.0000000000000000e+00 1.1000000000000000e+01
0.0000000000000000e+00 1.1002000000000001e+01
0.0000000000000000e+00 1.1000000000000000e+01
ITEM: ATOMS id type x y z 
10 1 4.5876 4.5972 4.60535 
11 1 3.08453 3.08395 3.08236 
12 1 3.7885 3.79237 3.79583 
46 1 0.745454 0.730439 0.741165 
47 1 2.27467 2.27523 2.27418 
48 1 1.56923 1.56227 1.56713 
19 1 4.50946 4.54709 6.2293 
20 1 3.0074 3.00383 7.77182 
21 1 3.70231 3.71667 7.06165 
31 1 0.68335 0.666244 10.1005 
32 1 2.19078 2.18989 8.58291 
33 1 1.48913 1.48173 9.29513 
16 1 4.52873 6.23966 4.52944 
17 1 3.00038 7.77745 3.00065 
18 1 3.70812 7.06575 3.70825 
25 1 0.675381 10.0953 0.675179 
26 1 2.19145 8.58552 2.19203 
27 1 1.4827 9.2912 1.48228 
4 1 4.59015 6.17043 6.17955 
5 1 3.08309 7.68774 7.68572 
6 1 3.79221 6.97798 6.98206 
37 1 0.742865 10.0326 10.0395 
38 1 2.2682 8.50038 8.49838 
39 1 1.5679 9.20346 9.20574 
13 1 6.22744 4.5482 4.48571 
14 1 7.77946 2.99712 3.00385 
15 1 7.06315 3.71217 3.69068 
28 1 10.1015 0.665632 0.684369 
29 1 8.58646 2.18799 2.18752 
30 1 9.29842 1.47646 1.48801 
1 1 6.1767 4.61853 6.12357 
2 1 7.74744 2.96165 7.50699 
3 1 6.97271 3.77022 6.81432 
40 1 10.0474 0.725003 10.0563 
41 1 8.57598 2.20425 8.37475 
42 1 9.22963 1.54485 9.17825 
49 2 7.37738 3.68055 9.35948 
50 3 6.47068 3.47738 9.13096 
7 1 6.17388 6.18544 4.5934 
8 1 7.68786 7.68663 3.08256 
9 1 6.97828 6.98312 3.79298 
43 1 10.041 10.0277 0.743545 
44 1 8.49698 8.49914 2.26952 
45 1 9.20588 9.20172 1.56788 
22 1 6.23351 6.27259 6.2353 
23 1 7.77879 7.77585 7.78016 
24 1 7.06364 7.07893 7.0644 
34 1 10.1082 10.0908 10.1079 
35 1 8.58744 8.5852 8.58537 
36 1 9.29464 9.29143 9.29616 
ITEM: TIMESTEP
30
ITEM: NUMBER OF ATOMS
50
ITEM: BOX BOUNDS pp pp pp
0.0000000000000000e+00 1.1000000000000000e+01
0.0000000000000000e+00 1.1002000000000001e+01
0.0000000000000000e+00 1.1000000000000000e+01
ITEM: ATOMS id type x y z 
10 1 4.58635 4.59898 4.60278 
11 1 3.08455 3.08415 3.08394 
12 1 3.78707 3.79312 3.79431 
46 1 0.742244 0.730756 0.736908 
47 1 2.27268 2.27166 2.27177 
48 1 1.56811 1.56216 1.56551 
19 1 4.52038 4.55026 6.22773 
20 1 3.00482 3.00238 7.77425 
21 1 3.70072 3.71482 7.06213 
31 1 0.671568 0.67184 10.1001 
32 1 2.19115 2.18594 8.58868 
33 1 1.48096 1.47895 9.29422 
16 1 4.52997 6.24083 4.53422 
17 1 2.99967 7.77774 2.99929 
18 1 3.70515 7.06902 3.70706 
25 1 0.677234 10.0961 0.676143 
26 1 2.18943 8.58701 2.18971 
27 1 1.48137 9.29371 1.48104 
4 1 4.60096 6.17265 6.17862 
5 1 3.08271 7.68698 7.68599 
6 1 3.79223 6.9792 6.98161 
37 1 0.739094 10.0371 10.0386 
38 1 2.26915 8.49942 8.49852 
39 1 1.5653 9.20684 9.20718 
13 1 6.21988 4.55704 4.48785 
14 1 7.78185 2.99349 3.00248 
15 1 7.06289 3.71484 3.68197 
28 1 10.1028 0.668711 0.671015 
29 1 8.59309 2.18219 2.18829 
30 1 9.29847 1.47439 1.47838 
1 1 6.17965 4.60747 6.12362 
2 1 7.77288 2.94316 7.51164 
3 1 7.01715 3.74795 6.83031 
40 1 10.036 0.741528 10.0398 
41 1 8.55784 2.19293 8.362 
42 1 9.23502 1.54744 9.15872 
49 2 7.33965 3.69125 9.38864 
50 3 6.49308 3.47436 9.17904 
7 1 6.17024 6.18764 4.60191 
8 1 7.68708 7.68635 3.08225 
9 1 6.97782 6.98547 3.79417 
43 1 10.0413 10.0317 0.739441 
44 1 8.4979 8.49869 2.26953 
45 1 9.20852 9.20452 1.56506 
22 1 6.22453 6.26199 6.22479 
23 1 7.77492 7.77283 7.77609 
24 1 7.06228 7.07865 7.06305 
34 1 10.1031 10.1052 10.1035 
35 1 8.59035 8.58614 8.58968 
36 1 9.29685 9.29546 9.29647 
ITEM: TIMESTEP
40
ITEM: NUMBER OF ATOMS
50
ITEM: BOX BOUNDS pp pp pp
0.0000000000000000e+00 1.1000000000000000e+01
0.0000000000000000e+00 1.1002000000000001e+01
0.0000000000000000e+00 1.1000000000000000e+01
ITEM: ATOMS id type x y z 
10 1 4.58473 4.6024 4.60353 
11 1 3.0839 3.0841 3.08544 
12 1 3.78703 3.79451 3.79431 
46 1 0.739511 0.73478 0.733605 
47 1 2.27382 2.27059 2.27182 
48 1 1.56632 1.5633 1.56436 
19 1 4.54134 4.54215 6.23252 
20 1 3.00239 3.00555 7.77162 
21 1 3.70886 3.71153 7.064 
31 1 0.670959 0.675388 10.0966 
32 1 2.19563 2.18905 8.58635 
33 1 1.48218 1.48296 9.2895 
16 1 4.52866 6.24198 4.53804 
17 1 3.00068 7.77751 2.999 
18 1 3.70254 7.06891 3.70856 
25 1 0.675614 10.0982 0.673695 
26 1 2.18885 8.58843 2.18904 
27 1 1.48052 9.29369 1.47914 
4 1 4.6028 6.17187 6.17853 
5 1 3.08195 7.68737 7.685 
6 1 3.79382 6.97756 6.98464 
37 1 0.73496 10.0408 10.0336 
38 1 2.26936 8.50046 8.5002 
39 1 1.56271 9.20787 9.20576 
13 1 6.22379 4.55378 4.49971 
14 1 7.77956 2.99662 2.99587 
15 1 7.06392 3.71195 3.68646 
28 1 10.1009 0.672179 0.667141 
29 1 8.59327 2.18286 2.19232 
30 1 9.29494 1.47601 1.47802 
1 1 6.18772 4.59951 6.12647 
2 1 7.74945 2.97335 7.48447 
3 1 7.03248 3.72307 6.82217 
40 1 10.0394 0.74028 10.0394 
41 1 8.56628 2.19479 8.35537 
42 1 9.23062 1.53467 9.13932 
49 2 7.34658 3.71168 9.42807 
50 3 6.47079 3.46145 9.21613 
7 1 6.16711 6.18966 4.60203 
8 1 7.6876 7.68726 3.08151 
9 1 6.97691 6.98842 3.79407 
43 1 10.0379 10.036 0.734167 
44 1 8.50166 8.4995 2.26891 
45 1 9.20751 9.20695 1.56175 
22 1 6.23358 6.24056 6.23067 
23 1 7.77091 7.77454 7.77221 
24 1 7.0644 7.07147 7.06453 
34 1 10.0997 10.1083 10.0999 
35 1 8.58785 8.58265 8.58822 
36 1 9.29397 9.29455 9.29222 
ITEM: TIMESTEP
50
ITEM: NUMBER OF ATOMS
50
ITEM: BOX BOUNDS pp pp pp
0.0000000000000000e+00 1.1000000000000000e+01
0.0000000000000000e+00 1.1002000000000001e+01
0.0000000000000000e+00 1.1000000000000000e+01
ITEM: ATOMS id type x y z 
10 1 4.5853 4.60285 4.60317 
11 1 3.08388 3.08384 3.08477 
12 1 3.78607 3.79426 3.79492 
46 1 0.739235 0.734379 0.733733 
47 1 2.27289 2.27004 2.27155 
48 1 1.56692 1.56315 1.56365 
19 1 4.54113 4.5409 6.23327 
20 1 3.00271 3.00606 7.77099 
21 1 3.71003 3.71178 7.06394 
31 1 0.671151 0.67582 10.0965 
32 1 2.19444 2.18882 8.58594 
33 1 1.48329 1.48257 9.29112 
16 1 4.52764 6.24185 4.5383 
17 1 2.99969 7.77729 2.99898 
18 1 3.704 7.0696 3.7085 
25 1 0.675217 10.099 0.672884 
26 1 2.18842 8.58813 2.18836 
27 1 1.48063 9.29499 1.47954 
4 1 4.60274 6.17116 6.1797 
5 1 3.08238 7.68693 7.68651 
6 1 3.79265 6.97879 6.98254 
37 1 0.734992 10.0403 10.0338 
38 1 2.26916 8.49987 8.49995 
39 1 1.56333 9.20869 9.20572 
13 1 6.22433 4.55282 4.49882 
14 1 7.7784 2.99749 2.99639 
15 1 7.06404 3.71243 3.68701 
28 1 10.1005 0.672383 0.667238 
29 1 8.59262 2.18201 2.19122 
30 1 9.29737 1.47637 1.47881 
1 1 6.18737 4.59817 6.12563 
2 1 7.75021 2.97388 7.48298 
3 1 7.03225 3.72431 6.82156 
40 1 10.0383 0.741154 10.0379 
41 1 8.56599 2.19311 8.35477 
42 1 9.23197 1.53422 9.13888 
49 2 7.34414 3.71227 9.43014 
50 3 6.47169 3.4616 9.21991 
7 1 6.16702 6.19015 4.60169 
8 1 7.68804 7.68823 3.08194 
9 1 6.97669 6.98761 3.79266 
43 1 10.0377 10.0359 0.73411 
44 1 8.5011 8.49951 2.26867 
45 1 9.20829 9.20661 1.5624 
22 1 6.23478 6.24093 6.23188 
23 1 7.77094 7.77534 7.77253 
24 1 7.06462 7.06983 7.06415 
34 1 10.0995 10.1076 10.0989 
35 1 8.58831 8.58312 8.58804 
36 1 9.29383 9.29478 9.29334 
ITEM: TIMESTEP
60
ITEM: NUMBER OF ATOMS
50
ITEM: BOX BOUNDS pp pp pp
0.0000000000000000e+00 1.1000000000000000e+01
0.0000000000000000e+00 1.1002000000000001e+01
0.0000000000000000e+00 1.1000000000000000e+01
ITEM: ATOMS id type x y z 
10 1 4.58498 4.60381 4.60273 
11 1 3.08339 3.0834 3.08471 
12 1 3.78544 3.79433 3.79458 
46 1 0.739372 0.734317 0.733462 
47 1 2.27299 2.27008 2.2716 
48 1 1.56702 1.56315 1.56351 
19 1 4.54241 4.53916 6.23454 
20 1 3.00323 3.00635 7.77092 
21 1 3.71106 3.71149 7.0637 
31 1 0.671259 0.676048 10.0962 
32 1 2.1939 2.18857 8.58612 
33 1 1.48283 1.48244 9.29145 
16 1 4.52763 6.24215 4.53956 
17 1 2.99961 7.77723 2.99896 
18 1 3.70359 7.07002 3.70871 
25 1 0.674365 10.1 0.671741 
26 1 2.1878 8.58883 2.18764 
27 1 1.48012 9.29542 1.47877 
4 1 4.60333 6.17121 6.18 
5 1 3.08227 7.6869 7.68681 
6 1 3.79283 6.97886 6.98282 
37 1 0.735151 10.0404 10.0336 
38 1 2.269 8.49988 8.49982 
39 1 1.56356 9.20883 9.20564 
13 1 6.22505 4.55218 4.49791 
14 1 7.77802 2.99777 2.99619 
15 1 7.06375 3.71287 3.68677 
28 1 10.1003 0.67279 0.666806 
29 1 8.59326 2.1814 2.19083 
30 1 9.2977 1.47604 1.47785 
1 1 6.18681 4.59723 6.12417 
2 1 7.75235 2.9752 7.4803 
3 1 7.03287 3.72558 6.82144 
40 1 10.0374 0.741533 10.036 
41 1 8.56552 2.18987 8.35287 
42 1 9.23432 1.53273 9.13628 
49 2 7.33898 3.71435 9.43634 
50 3 6.47284 3.46143 9.22992 
7 1 6.1664 6.19091 4.60152 
8 1 7.68832 7.68875 3.08174 
9 1 6.97659 6.9883 3.79242 
43 1 10.0378 10.0361 0.733888 
44 1 8.50134 8.49961 2.26851 
45 1 9.20845 9.2067 1.56221 
22 1 6.23644 6.23922 6.23292 
23 1 7.7703 7.77478 7.77213 
24 1 7.06483 7.06849 7.06368 
34 1 10.0991 10.1076 10.0983 
35 1 8.58829 8.58351 8.58812 
36 1 9.29388 9.29519 9.29333 
ITEM: TIMESTEP
70
ITEM: NUMBER OF ATOMS
50
ITEM: BOX BOUNDS pp pp pp
0.0000000000000000e+00 1.1000000000000000e+01
0.0000000000000000e+00 1.1002000000000001e+01
0.0000000000000000e+00 1.1000000000000000e+01
ITEM: ATOMS id type x y z 
10 1 4.58355 4.61198 4.59944 
11 1 3.08063 3.08366 3.08719 
12 1 3.78185 3.79736 3.79588 
46 1 0.737993 0.739705 0.728041 
47 1 2.27378 2.26957 2.27058 
48 1 1.567 1.56255 1.5633 
19 1 4.55653 4.52857 6.235 
20 1 3.0056 3.00438 7.77253 
21 1 3.72172 3.70516 7.06815 
31 1 0.668302 0.677707 10.0931 
32 1 2.19212 2.19115 8.5847 
33 1 1.48049 1.48432 9.28899 
16 1 4.52566 6.24725 4.55382 
17 1 2.99586 7.77894 2.99752 
18 1 3.69894 7.07501 3.71053 
25 1 0.669453 10.1054 0.662836 
26 1 2.18262 8.59344 2.18095 
27 1 1.47645 9.30073 1.47211 
4 1 4.61312 6.16711 6.18694 
5 1 3.08475 7.68467 7.6875 
6 1 3.79563 6.97499 6.98602 
37 1 0.735474 10.0427 10.0278 
38 1 2.27007 8.49943 8.49831 
39 1 1.56337 9.20943 9.2015 
13 1 6.222 4.55585 4.48679 
14 1 7.77846 2.99731 2.98962 
15 1 7.06311 3.71362 3.67773 
28 1 10.0992 0.675765 0.654183 
29 1 8.59575 2.17837 2.18954 
30 1 9.29844 1.47658 1.47117 
1 1 6.18864 4.58349 6.11291 
2 1 7.77879 2.98441 7.46359 
3 1 7.04046 3.72943 6.82689 
40 1 10.0366 0.739171 10.0203 
41 1 8.56619 2.1783 8.32457 
42 1 9.24254 1.51018 9.0933 
49 2 7.30937 3.74213 9.51507 
50 3 6.45749 3.45085 9.34698 
7 1 6.16073 6.19484 4.59926 
8 1 7.68735 7.69326 3.08056 
9 1 6.97626 6.99537 3.79425 
43 1 10.0345 10.0403 0.728028 
44 1 8.50478 8.49978 2.26689 
45 1 9.20877 9.20916 1.55955 
22 1 6.24841 6.21906 6.23331 
23 1 7.77003 7.77149 7.77043 
24 1 7.0693 7.05652 7.06695 
34 1 10.0963 10.1109 10.092 
35 1 8.58376 8.58446 8.58503 
36 1 9.28979 9.2971 9.28842 
ITEM: TIMESTEP
80
ITEM: NUMBER OF ATOMS
50
ITEM: BOX BOUNDS pp pp pp
0.0000000000000000e+00 1.1000000000000000e+01
0.0000000000000000e+00 1.1002000000000001e+01
0.0000000000000000e+00 1.1000000000000000e+01
ITEM: ATOMS id type x y z 
10 1 4.58399 4.61225 4.59988 
11 1 3.08041 3.08389 3.08814 
12 1 3.78258 3.798 3.79468 
46 1 0.737056 0.738459 0.72846 
47 1 2.27362 2.26813 2.27148 
48 1 1.56657 1.56467 1.56131 
19 1 4.55551 4.52856 6.23514 
20 1 3.00759 3.0047 7.77304 
21 1 3.72038 3.7055 7.0659 
31 1 0.669084 0.677737 10.0928 
32 1 2.19178 2.19114 8.58458 
33 1 1.4807 1.4844 9.28929 
16 1 4.52505 6.24801 4.55249 
17 1 2.9964 7.77839 2.99772 
18 1 3.69876 7.07524 3.71189 
25 1 0.669664 10.1058 0.663356 
26 1 2.18313 8.59318 2.18166 
27 1 1.47697 9.2996 1.47202 
4 1 4.61235 6.16609 6.18636 
5 1 3.08429 7.68383 7.68709 
6 1 3.79784 6.97535 6.98663 
37 1 0.735047 10.0426 10.0278 
38 1 2.27006 8.49936 8.4979 
39 1 1.56362 9.20939 9.20167 
13 1 6.22153 4.55629 4.48562 
14 1 7.77791 2.99805 2.99021 
15 1 7.06206 3.71431 3.67768 
28 1 10.0992 0.676149 0.654233 
29 1 8.59583 2.17852 2.18886 
30 1 9.2986 1.47607 1.47128 
1 1 6.19085 4.58265 6.11352 
2 1 7.77871 2.98358 7.46294 
3 1 7.03899 3.72987 6.82821 
40 1 10.036 0.738431 10.0181 
41 1 8.56981 2.17742 8.32189 
42 1 9.24164 1.51174 9.09664 
49 2 7.31108 3.7433 9.51669 
50 3 6.45388 3.45031 9.3501 
7 1 6.16097 6.19449 4.60007 
8 1 7.6876 7.69404 3.08231 
9 1 6.97484 6.9937 3.79191 
43 1 10.0346 10.0411 0.727711 
44 1 8.50511 8.50023 2.26674 
45 1 9.20877 9.20924 1.55898 
22 1 6.24793 6.22035 6.23379 
23 1 7.76959 7.77018 7.77157 
24 1 7.06989 7.05717 7.06426 
34 1 10.0963 10.1101 10.0917 
35 1 8.58347 8.58513 8.58472 
36 1 9.29029 9.29641 9.28895 
ITEM: TIMESTEP
90
ITEM: NUMBER OF ATOMS
50
ITEM: BOX BOUNDS pp pp pp
0.0000000000000000e+00 1.1000000000000000e+01
0.0000000000000000e+00 1.1002000000000001e+01
0.0000000000000000e+00 1.1000000000000000e+01
ITEM: ATOMS id type x y z 
10 1 4.5839 4.61235 4.60005 
11 1 3.08035 3.08401 3.08825 
12 1 3.78274 3.79799 3.7946 
46 1 0.736816 0.738591 0.728281 
47 1 2.2735 2.26814 2.27133 
48 1 1.56662 1.56455 1.5615 
19 1 4.55552 4.52859 6.23497 
20 1 3.00817 3.00474 7.77304 
21 1 3.71995 3.70575 7.06548 
31 1 0.669222 0.677784 10.0928 
32 1 2.19185 2.19125 8.58467 
33 1 1.48065 1.48433 9.28902 
16 1 4.52493 6.24814 4.55234 
17 1 2.99642 7.77837 2.99776 
18 1 3.69875 7.07524 3.7121 
25 1 0.669926 10.1057 0.663272 
26 1 2.18347 8.59305 2.18154 
27 1 1.47665 9.29946 1.47251 
4 1 4.61233 6.16584 6.18641 
5 1 3.08451 7.68379 7.68714 
6 1 3.79775 6.97513 6.98651 
37 1 0.73498 10.0425 10.0278 
38 1 2.27004 8.49932 8.49777 
39 1 1.56376 9.20935 9.20173 
13 1 6.22131 4.55632 4.48543 
14 1 7.77785 2.99797 2.9901 
15 1 7.06212 3.71451 3.67765 
28 1 10.0992 0.676126 0.654157 
29 1 8.59579 2.17853 2.18881 
30 1 9.2986 1.47614 1.47123 
1 1 6.19105 4.58248 6.11374 
2 1 7.77871 2.98336 7.46296 
3 1 7.03877 3.72991 6.82872 
40 1 10.0358 0.738134 10.0178 
41 1 8.57035 2.17725 8.32117 
42 1 9.24174 1.51229 9.09732 
49 2 7.31132 3.74345 9.5169 
50 3 6.4532 3.45025 9.35096 
7 1 6.16107 6.1945 4.60004 
8 1 7.68769 7.6941 3.0826 
9 1 6.97448 6.99355 3.79154 
43 1 10.0347 10.0413 0.727689 
44 1 8.50519 8.50037 2.26676 
45 1 9.20873 9.20917 1.55881 
22 1 6.24795 6.22057 6.23365 
23 1 7.76975 7.77001 7.77165 
24 1 7.06976 7.0573 7.06421 
34 1 10.0965 10.1097 10.0918 
35 1 8.58351 8.58487 8.58482 
36 1 9.29006 9.29686 9.28861 
ITEM: TIMESTEP
100
ITEM: NUMBER OF ATOMS
50
ITEM: BOX BOUNDS pp pp pp
0.0000000000000000e+00 1.1000000000000000e+01
0.0000000000000000e+00 1.1002000000000001e+01
0.0000000000000000e+00 1.1000000000000000e+01
ITEM: ATOMS id type x y z 
10 1 4.584 4.61261 4.59985 
11 1 3.08039 3.08453 3.08843 
12 1 3.78274 3.7982 3.79493 
46 1 0.735478 0.738812 0.727428 
47 1 2.27324 2.26781 2.2712 
48 1 1.56612 1.5647 1.56134 
19 1 4.55434 4.52909 6.23325 
20 1 3.00948 3.00486 7.77287 
21 1 3.72021 3.70605 7.06464 
31 1 0.669704 0.677495 10.0925 
32 1 2.19203 2.19174 8.58436 
33 1 1.48104 1.48457 9.2887 
16 1 4.52412 6.24921 4.55164 
17 1 2.99624 7.77846 2.99834 
18 1 3.6989 7.07535 3.71255 
25 1 0.670561 10.1053 0.663788 
26 1 2.18418 8.59219 2.18207 
27 1 1.47733 9.29879 1.47306 
4 1 4.61229 6.16475 6.18669 
5 1 3.08545 7.68319 7.68713 
6 1 3.79829 6.97427 6.98645 
37 1 0.73511 10.0424 10.028 
38 1 2.27039 8.4992 8.49747 
39 1 1.56362 9.20911 9.20122 
13 1 6.22053 4.55703 4.48467 
14 1 7.77757 2.99837 2.98987 
15 1 7.06158 3.71474 3.67711 
28 1 10.0991 0.676276 0.653581 
29 1 8.59556 2.17876 2.18843 
30 1 9.29845 1.47649 1.4709 
1 1 6.19306 4.58214 6.11467 
2 1 7.77871 2.98183 7.46301 
3 1 7.03731 3.7302 6.83239 
40 1 10.0346 0.736301 10.0161 
41 1 8.574 2.17584 8.3171 
42 1 9.24279 1.51651 9.1005 
49 2 7.31238 3.74436 9.51826 
50 3 6.44896 3.45004 9.35715 
7 1 6.16103 6.19399 4.59927 
8 1 7.68723 7.69432 3.08307 
9 1 6.97422 6.99319 3.79149 
43 1 10.0346 10.0421 0.727256 
44 1 8.50532 8.50072 2.26663 
45 1 9.20867 9.20952 1.5587 
22 1 6.24763 6.22197 6.23231 
23 1 7.77 7.76893 7.77174 
24 1 7.06953 7.05706 7.06362 
34 1 10.097 10.1083 10.0915 
35 1 8.58301 8.58487 8.58442 
36 1 9.28986 9.29647 9.28828 
ITEM: TIMESTEP
110
ITEM: NUMBER OF ATOMS
50
ITEM: BOX BOUNDS pp pp pp
0.0000000000000000e+00 1.1000000000000000e+01
0.0000000000000000e+00 1.1002000000000001e+01
0.0000000000000000e+00 1.1000000000000000e+01
ITEM: ATOMS id type x y z 
10 1 4.58397 4.61254 4.59991 
11 1 3.08032 3.08443 3.08856 
12 1 3.78282 3.79837 3.79464 
46 1 0.735465 0.738825 0.727417 
47 1 2.27324 2.2678 2.27122 
48 1 1.56612 1.56474 1.56134 
19 1 4.55436 4.52908 6.23324 
20 1 3.0095 3.00484 7.77291 
21 1 3.72017 3.70602 7.06463 
31 1 0.669657 0.677488 10.0924 
32 1 2.19204 2.19176 8.58437 
33 1 1.48105 1.48456 9.28866 
16 1 4.52415 6.24926 4.55162 
17 1 2.99626 7.7785 2.99833 
18 1 3.69883 7.0753 3.71259 
25 1 0.670572 10.1053 0.663807 
26 1 2.18418 8.59218 2.18208 
27 1 1.47734 9.29877 1.47304 
4 1 4.61228 6.16479 6.18666 
5 1 3.08544 7.68319 7.68711 
6 1 3.79834 6.97423 6.98653 
37 1 0.735057 10.0424 10.028 
38 1 2.2703 8.49921 8.4974 
39 1 1.56379 9.20909 9.20131 
13 1 6.22048 4.55697 4.48472 
14 1 7.77751 2.99829 2.98986 
15 1 7.06165 3.71491 3.6771 
28 1 10.0991 0.676308 0.653497 
29 1 8.59557 2.1788 2.18841 
30 1 9.29841 1.47645 1.4709 
1 1 6.19313 4.58219 6.11468 
2 1 7.7787 2.9818 7.46304 
3 1 7.03727 3.73017 6.83244 
40 1 10.0346 0.736331 10.0162 
41 1 8.5741 2.17592 8.31707 
42 1 9.24286 1.5164 9.10043 
49 2 7.31233 3.74436 9.51829 
50 3 6.44889 3.45006 9.35738 
7 1 6.16105 6.19394 4.59925 
8 1 7.68726 7.69431 3.08306 
9 1 6.97417 6.99327 3.79148 
43 1 10.0347 10.0421 0.727252 
44 1 8.50532 8.50069 2.26664 
45 1 9.20864 9.20958 1.55869 
22 1 6.24761 6.22192 6.23232 
23 1 7.76996 7.76882 7.77177 
24 1 7.06958 7.05715 7.06351 
34 1 10.0969 10.1083 10.0915 
35 1 8.58292 8.58491 8.58442 
36 1 9.28997 9.29635 9.28824 
ITEM: TIMESTEP
115
ITEM: NUMBER OF ATOMS
50
ITEM: BOX BOUNDS pp pp pp
0.0000000000000000e+00 1.1000000000000000e+01
0.0000000000000000e+00 1.1002000000000001e+01
0.0000000000000000e+00 1.1000000000000000e+01
ITEM: ATOMS id type x y z 
10 1 4.58397 4.61255 4.5999 
11 1 3.08032 3.08444 3.08856 
12 1 3.78282 3.79836 3.79465 
46 1 0.735463 0.738828 0.727415 
47 1 2.27324 2.2678 2.27122 
48 1 1.56613 1.56474 1.56134 
19 1 4.55436 4.52908 6.23324 
20 1 3.0095 3.00483 7.77291 
21 1 3.72017 3.70602 7.06463 
31 1 0.669656 0.677488 10.0924 
32 1 2.19204 2.19176 8.58437 
33 1 1.48105 1.48456 9.28866 
16 1 4.52414 6.24926 4.55162 
17 1 2.99626 7.7785 2.99833 
18 1 3.69883 7.0753 3.71259 
25 1 0.670574 10.1052 0.663804 
26 1 2.18418 8.59218 2.18208 
27 1 1.47734 9.29878 1.47305 
4 1 4.61228 6.16479 6.18666 
5 1 3.08544 7.68319 7.68711 
6 1 3.79834 6.97423 6.98654 
37 1 0.735055 10.0424 10.028 
38 1 2.2703 8.49921 8.4974 
39 1 1.5638 9.20909 9.20131 
13 1 6.22048 4.55697 4.48471 
14 1 7.77751 2.99829 2.98985 
15 1 7.06165 3.71491 3.6771 
28 1 10.0991 0.676309 0.653492 
29 1 8.59557 2.1788 2.18841 
30 1 9.29841 1.47645 1.4709 
1 1 6.19314 4.58219 6.11468 
2 1 7.7787 2.9818 7.46304 
3 1 7.03727 3.73018 6.83245 
40 1 10.0346 0.736333 10.0162 
41 1 8.57411 2.17593 8.31707 
42 1 9.24287 1.5164 9.10043 
49 2 7.31233 3.74436 9.5183 
50 3 6.44889 3.45007 9.35739 
7 1 6.16106 6.19393 4.59925 
8 1 7.68727 7.6943 3.08306 
9 1 6.97416 6.99327 3.79148 
43 1 10.0347 10.0421 0.727252 
44 1 8.50532 8.5007 2.26664 
45 1 9.20864 9.20958 1.55869 
22 1 6.24761 6.22192 6.23232 
23 1 7.76996 7.76883 7.77177 
24 1 7.06958 7.05714 7.06351 
34 1 10.0969 10.1083 10.0915 
35 1 8.58292 8.58491 8.58442 
36 1 9.28997 9.29635 9.28824 
ITEM: TIMESTEP
117
ITEM: NUMBER OF ATOMS
50
ITEM: BOX BOUNDS pp pp pp
0.0000000000000000e+00 1.1000000000000000e+01
0.0000000000000000e+00 1.1002000000000001e+01
0.0000000000000000e+00 1.1000000000000000e+01
ITEM: ATOMS id type x y z 
10 1 4.58397 4.61255 4.5999 
11 1 3.08032 3.08444 3.08856 
12 1 3.78282 3.79836 3.79465 
46 1 0.735463 0.738828 0.727415 
47 1 2.27324 2.2678 2.27122 
48 1 1.56613 1.56474 1.56134 
19 1 4.55436 4.52908 6.23324 
20 1 3.0095 3.00483 7.77291 
21 1 3.72017 3.70602 7.06463 
31 1 0.669656 0.677488 10.0924 
32 1 2.19204 2.19176 8.58437 
33 1 1.48105 1.48456 9.28866 
16 1 4.52414 6.24926 4.55162 
17 1 2.99626 7.7785 2.99833 
18 1 3.69883 7.0753 3.71259 
25 1 0.670574 10.1052 0.663805 
26 1 2.18418 8.59218 2.18208 
27 1 1.47734 9.29878 1.47305 
4 1 4.61228 6.16479 6.18666 
5 1 3.08544 7.68319 7.68711 
6 1 3.79834 6.97423 6.98653 
37 1 0.735055 10.0424 10.028 
38 1 2.2703 8.49921 8.4974 
39 1 1.5638 9.20909 9.20131 
13 1 6.22048 4.55697 4.48471 
14 1 7.77751 2.99829 2.98985 
15 1 7.06165 3.71491 3.6771 
28 1 10.0991 0.676309 0.653493 
29 1 8.59557 2.1788 2.18841 
30 1 9.29841 1.47645 1.4709 
1 1 6.19314 4.58219 6.11468 
2 1 7.7787 2.9818 7.46304 
3 1 7.03727 3.73018 6.83245 
40 1 10.0346 0.736333 10.0162 
41 1 8.57411 2.17593 8.31707 
42 1 9.24287 1.51639 9.10042 
49 2 7.31233 3.74436 9.5183 
50 3 6.44889 3.45007 9.3574 
7 1 6.16105 6.19393 4.59925 
8 1 7.68727 7.69431 3.08306 
9 1 6.97416 6.99327 3.79148 
43 1 10.0347 10.0421 0.727252 
44 1 8.50532 8.5007 2.26664 
45 1 9.20864 9.20958 1.55869 
22 1 6.24761 6.22192 6.23232 
23 1 7.76996 7.76883 7.77177 
24 1 7.06958 7.05714 7.06351 
34 1 10.0969 10.1083 10.0915 
35 1 8.58292 8.58491 8.58442 
36 1 9.28997 9.29635 9.28824 
ITEM: TIMESTEP
120
ITEM: NUMBER OF ATOMS
50
ITEM: BOX BOUNDS pp pp pp
-1.5740865270234623e-03 1.1001574086527024e+01
-1.5823298162619872e-03 1.1003582329816265e+01
-1.6499999999999998e-03 1.1001650000000001e+01
ITEM: ATOMS id type x y z 
10 1 4.58371 4.61229 4.59963 
11 1 3.07963 3.08374 3.08783 
12 1 3.78233 3.79787 3.79414 
46 1 0.734096 0.737457 0.72598 
47 1 2.27231 2.26687 2.27025 
48 1 1.565 1.5636 1.56015 
19 1 4.55409 4.5288 6.23346 
20 1 3.00879 3.00412 7.77359 
21 1 3.71966 3.7055 7.0651 
31 1 0.668269 0.676097 10.0938 
32 1 2.19109 2.19081 8.5853 
33 1 1.4799 1.48341 9.2898 
16 1 4.52387 6.24947 4.55134 
17 1 2.99554 7.77916 2.99758 
18 1 3.69832 7.07575 3.71206 
25 1 0.66919 10.1066 0.66235 
26 1 2.18324 8.59307 2.18108 
27 1 1.47618 9.29987 1.47185 
4 1 4.61203 6.16498 6.18687 
5 1 3.08475 7.68382 7.68777 
6 1 3.79786 6.97466 6.98698 
37 1 0.733688 10.0437 10.0294 
38 1 2.26937 8.50007 8.4983 
39 1 1.56267 9.21016 9.20243 
13 1 6.22068 4.5567 4.48441 
14 1 7.77816 2.99758 2.9891 
15 1 7.0621 3.7144 3.67656 
28 1 10.1004 0.674918 0.652036 
29 1 8.59646 2.17785 2.18741 
30 1 9.29949 1.47529 1.46969 
1 1 6.19333 4.58193 6.11486 
2 1 7.77935 2.98107 7.46363 
3 1 7.03771 3.72967 6.83285 
40 1 10.0359 0.734961 10.0176 
41 1 8.57499 2.17497 8.31792 
42 1 9.24394 1.51524 9.1015 
49 2 7.31285 3.74386 9.5195 
50 3 6.44916 3.44948 9.35856 
7 1 6.16124 6.19413 4.59898 
8 1 7.68789 7.69493 3.08234 
9 1 6.97458 6.99371 3.79097 
43 1 10.036 10.0434 0.725818 
44 1 8.50618 8.50156 2.26567 
45 1 9.20971 9.21064 1.55751 
22 1 6.24783 6.22213 6.23254 
23 1 7.77061 7.76948 7.77245 
24 1 7.07002 7.05759 7.06398 
34 1 10.0982 10.1097 10.0929 
35 1 8.58381 8.5858 8.58534 
36 1 9.29105 9.29744 9.28937 
ITEM: TIMESTEP
130
ITEM: NUMBER OF ATOMS
50
ITEM: BOX BOUNDS pp pp pp
-3.2834825753777501e-03 1.1003283482575378e+01
-3.6277195954640281e-03 1.1005627719595470e+01
-6.0574013875126214e-03 1.1006057401387517e+01
ITEM: ATOMS id type x y z 
10 1 4.58399 4.61249 4.59939 
11 1 3.07902 3.08297 3.08605 
12 1 3.78159 3.79709 3.79257 
46 1 0.732163 0.735257 0.721691 
47 1 2.27105 2.26542 2.26742 
48 1 1.5635 1.56187 1.55671 
19 1 4.5542 4.52889 6.23356 
20 1 3.00827 3.00341 7.77517 
21 1 3.7194 3.7051 7.0661 
31 1 0.66623 0.673737 10.098 
32 1 2.18994 2.18944 8.58792 
33 1 1.4788 1.48211 9.29263 
16 1 4.52402 6.24932 4.55098 
17 1 2.995 7.77977 2.99585 
18 1 3.69804 7.07606 3.71091 
25 1 0.667151 10.1088 0.657951 
26 1 2.18205 8.59435 2.17829 
27 1 1.47514 9.3011 1.46877 
4 1 4.61229 6.16472 6.18685 
5 1 3.08417 7.68449 7.68937 
6 1 3.79716 6.97533 6.98839 
37 1 0.73171 10.0458 10.0334 
38 1 2.26803 8.50143 8.50087 
39 1 1.56135 9.21183 9.2058 
13 1 6.2205 4.55675 4.48413 
14 1 7.77858 2.99693 2.98729 
15 1 7.06231 3.71401 3.67541 
28 1 10.1023 0.672583 0.647576 
29 1 8.59754 2.17646 2.18459 
30 1 9.30051 1.474 1.46663 
1 1 6.19305 4.58218 6.11488 
2 1 7.77985 2.9803 7.46518 
3 1 7.0384 3.72875 6.83404 
40 1 10.0378 0.732752 10.0216 
41 1 8.5763 2.1736 8.32043 
42 1 9.24542 1.51341 9.10457 
49 2 7.31335 3.7432 9.52276 
50 3 6.4494 3.44874 9.3619 
7 1 6.16091 6.19381 4.59877 
8 1 7.68843 7.69563 3.08054 
9 1 6.97522 6.99445 3.78941 
43 1 10.0378 10.0455 0.721552 
44 1 8.50736 8.50294 2.26282 
45 1 9.21113 9.21232 1.55407 
22 1 6.2476 6.22199 6.23262 
23 1 7.77107 7.77002 7.774 
24 1 7.07024 7.05789 7.06497 
34 1 10.1002 10.1119 10.0971 
35 1 8.58487 8.5871 8.58795 
36 1 9.29207 9.29864 9.2922 
ITEM: TIMESTEP
140
ITEM: NUMBER OF ATOMS
50
ITEM: BOX BOUNDS pp pp pp
-4.1644459846568952e-03 1.1004164445984658e+01
-5.0644055606014135e-03 1.1007064405560609e+01
-1.0875459031171439e-02 1.1010875459031181e+01
ITEM: ATOMS id type x y z 
10 1 4.58473 4.61309 4.59935 
11 1 3.07882 3.08254 3.08413 
12 1 3.78099 3.79639 3.79077 
46 1 0.730637 0.733306 0.716722 
47 1 2.26983 2.26391 2.26393 
48 1 1.56268 1.56065 1.55305 
19 1 4.55473 4.52937 6.23336 
20 1 3.00856 3.00336 7.7765 
21 1 3.71931 3.70482 7.06731 
31 1 0.664582 0.671606 10.1028 
32 1 2.18921 2.18839 8.59083 
33 1 1.47845 1.48134 9.29564 
16 1 4.52462 6.24881 4.5508 
17 1 2.99525 7.77973 2.99436 
18 1 3.69789 7.0763 3.70956 
25 1 0.665555 10.1108 0.652877 
26 1 2.18132 8.59535 2.17516 
27 1 1.47478 9.3018 1.46553 
4 1 4.61298 6.16405 6.18658 
5 1 3.08404 7.68483 7.6911 
6 1 3.79662 6.97596 6.98999 
37 1 0.730257 10.0477 10.0381 
38 1 2.26685 8.50288 8.50413 
39 1 1.56057 9.21296 9.20921 
13 1 6.21996 4.55717 4.48417 
14 1 7.77821 2.99702 2.98567 
15 1 7.06236 3.71371 3.67407 
28 1 10.1039 0.670485 0.642413 
29 1 8.59824 2.17542 2.18144 
30 1 9.3008 1.47325 1.46334 
1 1 6.19239 4.58289 6.11468 
2 1 7.77991 2.97986 7.46696 
3 1 7.03894 3.72786 6.83541 
40 1 10.0393 0.730783 10.0263 
41 1 8.57764 2.17228 8.32363 
42 1 9.24632 1.51206 9.10767 
49 2 7.31351 3.74274 9.52634 
50 3 6.44945 3.44825 9.36577 
7 1 6.1602 6.19306 4.59875 
8 1 7.6886 7.69601 3.07862 
9 1 6.97571 6.99518 3.78761 
43 1 10.0393 10.0475 0.716625 
44 1 8.50849 8.50442 2.25932 
45 1 9.21193 9.21349 1.55042 
22 1 6.24695 6.22151 6.23242 
23 1 7.77079 7.76987 7.77531 
24 1 7.07031 7.05809 7.06615 
34 1 10.1018 10.1139 10.102 
35 1 8.58554 8.5881 8.59083 
36 1 9.29236 9.29932 9.29521 
ITEM: TIMESTEP
150
ITEM: NUMBER OF ATOMS
50
ITEM: BOX BOUNDS pp pp pp
-4.8708308572241532e-03 1.1004870830857223e+01
-6.1992787918936894e-03 1.1008199278791899e+01
-1.4517568076849957e-02 1.1014517568076863e+01
ITEM: ATOMS id type x y z 
10 1 4.58531 4.61362 4.59941 
11 1 3.07863 3.08221 3.08271 
12 1 3.78052 3.79579 3.78935 
46 1 0.72934 0.731672 0.712813 
47 1 2.26876 2.26261 2.26116 
48 1 1.562 1.55973 1.55029 
19 1 4.55526 4.52987 6.23309 
20 1 3.00894 3.00345 7.77744 
21 1 3.71918 3.70455 7.06811 
31 1 0.663252 0.669882 10.1066 
32 1 2.18865 2.18756 8.59308 
33 1 1.47814 1.48076 9.29782 
16 1 4.52514 6.24832 4.55081 
17 1 2.99549 7.7796 2.99341 
18 1 3.69783 7.07652 3.70848 
25 1 0.66424 10.1125 0.649005 
26 1 2.1807 8.59616 2.17282 
27 1 1.47457 9.3023 1.46303 
4 1 4.61355 6.16345 6.18632 
5 1 3.08396 7.68506 7.69244 
6 1 3.79615 6.97651 6.99118 
37 1 0.729013 10.0493 10.0418 
38 1 2.2658 8.5041 8.50669 
39 1 1.55998 9.21386 9.2118 
13 1 6.21946 4.55753 4.48441 
14 1 7.77782 2.99715 2.98458 