ITEM: TIMESTEP
0
ITEM: NUMBER OF ATOMS
49
ITEM: BOX BOUNDS pp pp pp
0.0000000000000000e+00 1.1000000000000000e+01
0.0000000000000000e+00 1.1002000000000001e+01
0.0000000000000000e+00 1.1000000000000000e+01
ITEM: ATOMS id type x y z 
10 1 4.603 4.603 4.603 
11 1 3.085 3.085 3.085 
12 1 3.796 3.796 3.796 
46 1 0.726 0.725 0.725 
47 1 2.26 2.259 2.26 
48 1 1.551 1.55 1.55 
19 1 4.546 4.545 6.226 
20 1 3.013 3.013 7.764 
21 1 3.721 3.721 7.053 
31 1 0.668 0.667 10.103 
32 1 2.187 2.187 8.589 
33 1 1.476 1.475 9.298 
16 1 4.546 6.225 4.546 
17 1 3.013 7.765 3.013 
18 1 3.721 7.053 3.722 
25 1 0.668 10.103 0.668 
26 1 2.188 8.589 2.188 
27 1 1.476 9.298 1.476 
4 1 4.608 6.169 6.169 
5 1 3.086 7.684 7.684 
6 1 3.799 6.974 6.974 
37 1 0.729 10.046 10.046 
38 1 2.259 8.509 8.508 
39 1 1.552 9.219 9.219 
13 1 6.225 4.546 4.546 
14 1 7.764 3.013 3.013 
15 1 7.053 3.721 3.722 
28 1 10.102 0.667 0.668 
29 1 8.589 2.187 2.188 
30 1 9.298 1.475 1.476 
1 1 6.168 4.608 6.169 
2 1 7.684 3.086 7.684 
3 1 6.974 3.799 6.974 
40 1 10.045 0.728 10.046 
41 1 8.508 2.259 8.508 
42 1 9.218 1.551 9.218 
7 1 6.169 6.169 4.608 
8 1 7.684 7.684 3.086 
9 1 6.974 6.974 3.799 
43 1 10.046 10.047 0.729 
44 1 8.508 8.509 2.259 
45 1 9.219 9.219 1.552 
22 1 6.229 6.229 6.229 
23 1 7.764 7.765 7.765 
24 1 7.055 7.056 7.055 
34 1 10.108 10.108 10.107 
35 1 8.59 8.59 8.59 
36 1 9.301 9.301 9.3 
49 2 6.457 6.974 8.272 
ITEM: TIMESTEP
10
ITEM: NUMBER OF ATOMS
49
ITEM: BOX BOUNDS pp pp pp
0.0000000000000000e+00 1.1000000000000000e+01
0.0000000000000000e+00 1.1002000000000001e+01
0.0000000000000000e+00 1.1000000000000000e+01
ITEM: ATOMS id type x y z 
10 1 4.59319 4.59862 4.59303 
11 1 3.08038 3.08309 3.0825 
12 1 3.79057 3.78548 3.78674 
46 1 0.736401 0.735617 0.734794 
47 1 2.26881 2.26835 2.26771 
48 1 1.56309 1.56119 1.56406 
19 1 4.52853 4.52852 6.233 
20 1 3.00513 3.00448 7.77466 
21 1 3.70653 3.70759 7.06236 
31 1 0.674941 0.674782 10.0936 
32 1 2.18761 2.18916 8.58627 
33 1 1.48502 1.48123 9.29277 
16 1 4.52317 6.23006 4.52866 
17 1 3.00621 7.77457 3.00561 
18 1 3.70853 7.05988 3.71075 
25 1 0.678285 10.0956 0.674935 
26 1 2.19082 8.58729 2.18941 
27 1 1.48102 9.29102 1.48362 
4 1 4.58032 6.17547 6.17792 
5 1 3.08126 7.69252 7.69305 
6 1 3.78179 6.98458 6.98395 
37 1 0.746651 10.0372 10.0372 
38 1 2.26554 8.50079 8.5003 
39 1 1.5657 9.20892 9.20782 
13 1 6.23055 4.52168 4.52631 
14 1 7.77495 3.00504 3.00476 
15 1 7.06167 3.70644 3.70826 
28 1 10.0955 0.677881 0.675407 
29 1 8.58833 2.1907 2.1894 
30 1 9.28902 1.47833 1.48341 
1 1 6.17572 4.57789 6.1759 
2 1 7.69238 3.07976 7.69193 
3 1 6.98541 3.78515 6.98704 
40 1 10.0362 0.745482 10.0364 
41 1 8.49929 2.26558 8.49914 
42 1 9.2083 1.56459 9.20857 
7 1 6.17847 6.17549 4.5717 
8 1 7.69484 7.69361 3.07939 
9 1 6.98434 6.98669 3.78117 
43 1 10.0365 10.0365 0.746653 
44 1 8.5003 8.50022 2.26445 
45 1 9.20831 9.21046 1.56683 
22 1 6.2064 6.20181 6.16206 
23 1 7.74006 7.78759 7.90684 
24 1 7.04311 7.026 6.98477 
34 1 10.1017 10.1022 10.1061 
35 1 8.62472 8.61068 8.58028 
36 1 9.32277 9.31982 9.30264 
49 2 6.50061 7.01938 8.32386 
ITEM: TIMESTEP
20
ITEM: NUMBER OF ATOMS
49
ITEM: BOX BOUNDS pp pp pp
0.0000000000000000e+00 1.1000000000000000e+01
0.0000000000000000e+00 1.1002000000000001e+01
0.0000000000000000e+00 1.1000000000000000e+01
ITEM: ATOMS id type x y z 
10 1 4.58992 4.59166 4.58974 
11 1 3.0798 3.07787 3.08045 
12 1 3.78653 3.79006 3.78534 
46 1 0.738002 0.736648 0.736784 
47 1 2.27039 2.26964 2.27025 
48 1 1.56323 1.56231 1.56298 
19 1 4.52464 4.52491 6.23375 
20 1 3.00128 3.00071 7.77888 
21 1 3.70292 3.70409 7.06312 
31 1 0.677679 0.678935 10.0951 
32 1 2.18766 2.19011 8.58514 
33 1 1.48533 1.47943 9.29601 
16 1 4.51076 6.22708 4.5226 
17 1 3.00275 7.78022 3.00118 
18 1 3.70027 7.06117 3.70513 
25 1 0.683073 10.0972 0.679317 
26 1 2.18965 8.5864 2.19023 
27 1 1.48292 9.29505 1.48124 
4 1 4.54902 6.16389 6.1704 
5 1 3.08366 7.69678 7.69724 
6 1 3.77293 6.9784 6.97924 
37 1 0.753675 10.0403 10.0409 
38 1 2.26679 8.49876 8.49902 
39 1 1.56783 9.21163 9.20867 
13 1 6.22673 4.50808 4.51922 
14 1 7.78213 3.00057 2.9992 
15 1 7.06197 3.69846 3.703 
28 1 10.0968 0.681489 0.678574 
29 1 8.58678 2.18843 2.18933 
30 1 9.29545 1.4807 1.48126 
1 1 6.16577 4.54583 6.16727 
2 1 7.6972 3.08487 7.69731 
3 1 6.97744 3.77261 6.97939 
40 1 10.0394 0.753412 10.041 
41 1 8.49794 2.267 8.49943 
42 1 9.21105 1.56487 9.20798 
7 1 6.16853 6.16375 4.52468 
8 1 7.70123 7.70182 3.08263 
9 1 6.97968 6.97887 3.76274 
43 1 10.04 10.0407 0.754047 
44 1 8.49961 8.50012 2.26503 
45 1 9.21224 9.21309 1.56647 
22 1 6.21751 6.21075 6.14707 
23 1 7.69838 7.77783 7.97845 
24 1 7.06505 7.03817 6.98213 
34 1 10.1166 10.1159 10.1196 
35 1 8.65769 8.62664 8.56319 
36 1 9.33937 9.33432 9.29764 
49 2 6.50377 7.03344 8.36871 
ITEM: TIMESTEP
30
ITEM: NUMBER OF ATOMS
49
ITEM: BOX BOUNDS pp pp pp
0.0000000000000000e+00 1.1000000000000000e+01
0.0000000000000000e+00 1.1002000000000001e+01
0.0000000000000000e+00 1.1000000000000000e+01
ITEM: ATOMS id type x y z 
10 1 4.58608 4.58923 4.58695 
11 1 3.07951 3.07882 3.07957 
12 1 3.78681 3.78833 3.7872 
46 1 0.73973 0.737992 0.738227 
47 1 2.27165 2.2709 2.27172 
48 1 1.56471 1.56362 1.564 
19 1 4.52467 4.52572 6.23423 
20 1 2.99707 2.99725 7.77996 
21 1 3.70224 3.70205 7.06842 
31 1 0.68068 0.67793 10.0972 
32 1 2.19049 2.18836 8.58753 
33 1 1.47901 1.48161 9.29347 
16 1 4.50797 6.22565 4.52262 
17 1 2.99849 7.78401 2.99694 
18 1 3.69609 7.06394 3.70196 
25 1 0.684008 10.0981 0.679222 
26 1 2.18942 8.58681 2.18981 
27 1 1.48308 9.29633 1.48097 
4 1 4.55211 6.15964 6.16558 
5 1 3.08575 7.69478 7.69459 
6 1 3.77352 6.97481 6.97748 
37 1 0.75637 10.0423 10.0415 
38 1 2.26771 8.49876 8.49753 
39 1 1.57031 9.21035 9.20999 
13 1 6.22508 4.50483 4.51861 
14 1 7.78588 2.99674 2.99527 
15 1 7.06445 3.69366 3.69938 
28 1 10.098 0.682126 0.678774 
29 1 8.58766 2.18764 2.1891 
30 1 9.29673 1.48108 1.47991 
1 1 6.16085 4.54809 6.16189 
2 1 7.69494 3.08674 7.69603 
3 1 6.97541 3.77227 6.97652 
40 1 10.0412 0.754996 10.041 
41 1 8.49805 2.26694 8.49776 
42 1 9.20981 1.5691 9.20957 
7 1 6.16289 6.15709 4.52065 
8 1 7.70057 7.70167 3.08337 
9 1 6.97826 6.97646 3.75884 
43 1 10.0421 10.0426 0.756172 
44 1 8.50012 8.5008 2.26549 
45 1 9.21236 9.21294 1.56766 
22 1 6.2169 6.20706 6.13016 
23 1 7.69066 7.77934 8.0054 
24 1 7.06303 7.03661 6.98433 
34 1 10.1203 10.123 10.1232 
35 1 8.66627 8.63373 8.55576 
36 1 9.34997 9.33489 9.29282 
49 2 6.49998 7.03731 8.39364 
ITEM: TIMESTEP
40
ITEM: NUMBER OF ATOMS
49
ITEM: BOX BOUNDS pp pp pp
0.0000000000000000e+00 1.1000000000000000e+01
0.0000000000000000e+00 1.1002000000000001e+01
0.0000000000000000e+00 1.1000000000000000e+01
ITEM: ATOMS id type x y z 
10 1 4.58059 4.5856 4.58938 
11 1 3.07948 3.07973 3.0792 
12 1 3.78535 3.78692 3.79081 
46 1 0.74895 0.745431 0.744672 
47 1 2.27612 2.27468 2.27651 
48 1 1.56875 1.56837 1.5662 
19 1 4.52928 4.52803 6.24472 
20 1 2.99634 2.99196 7.78634 
21 1 3.68862 3.69836 7.06506 
31 1 0.671997 0.677231 10.0993 
32 1 2.17472 2.18966 8.58582 
33 1 1.50001 1.46876 9.31161 
16 1 4.49606 6.21875 4.51822 
17 1 2.99273 7.78883 2.99069 
18 1 3.68297 7.06539 3.69654 
25 1 0.682871 10.106 0.676705 
26 1 2.18426 8.59428 2.18609 
27 1 1.48149 9.30385 1.47242 
4 1 4.57623 6.15033 6.15161 
5 1 3.09099 7.68077 7.68286 
6 1 3.78522 6.96437 6.96558 
37 1 0.768611 10.0457 10.0443 
38 1 2.2765 8.49312 8.49414 
39 1 1.582 9.20967 9.20427 
13 1 6.21507 4.48881 4.51078 
14 1 7.79129 2.98961 2.98959 
15 1 7.06603 3.68056 3.68992 
28 1 10.1074 0.678652 0.679164 
29 1 8.596 2.18103 2.18346 
30 1 9.30695 1.47845 1.47171 
1 1 6.15331 4.56653 6.14456 
2 1 7.68184 3.09311 7.68468 
3 1 6.96387 3.77984 6.96399 
40 1 10.0428 0.767866 10.0405 
41 1 8.49132 2.27759 8.49184 
42 1 9.20631 1.58168 9.20534 
7 1 6.14629 6.13469 4.50656 
8 1 7.69368 7.69566 3.08385 
9 1 6.96802 6.96392 3.74723 
43 1 10.0483 10.0482 0.758753 
44 1 8.50316 8.50466 2.26696 
45 1 9.21603 9.2156 1.57425 
22 1 6.23594 6.22037 6.11134 
23 1 7.64916 7.7692 8.08413 
24 1 7.02475 7.02287 7.03589 
34 1 10.1417 10.1365 10.1286 
35 1 8.69909 8.64911 8.52127 
36 1 9.37842 9.34359 9.26584 
49 2 6.48214 7.04113 8.46471 
ITEM: TIMESTEP
50
ITEM: NUMBER OF ATOMS
49
ITEM: BOX BOUNDS pp pp pp
0.0000000000000000e+00 1.1000000000000000e+01
0.0000000000000000e+00 1.1002000000000001e+01
0.0000000000000000e+00 1.1000000000000000e+01
ITEM: ATOMS id type x y z 
10 1 4.58054 4.5856 4.58943 
11 1 3.07947 3.0797 3.07922 
12 1 3.78537 3.78698 3.79078 
46 1 0.74896 0.745477 0.744655 
47 1 2.27611 2.27468 2.27649 
48 1 1.56879 1.56838 1.56624 
19 1 4.52926 4.52802 6.24472 
20 1 2.99632 2.99196 7.78633 
21 1 3.68867 3.69839 7.06506 
31 1 0.671923 0.677248 10.0993 
32 1 2.17478 2.18967 8.58582 
33 1 1.49993 1.46876 9.3116 
16 1 4.49606 6.21875 4.51823 
17 1 2.99268 7.78887 2.99067 
18 1 3.68305 7.06532 3.69659 
25 1 0.683012 10.1059 0.6767 
26 1 2.18424 8.59432 2.18602 
27 1 1.4815 9.30382 1.47251 
4 1 4.57624 6.15035 6.1516 
5 1 3.09105 7.68067 7.68274 
6 1 3.78517 6.96447 6.96571 
37 1 0.768625 10.0457 10.0443 
38 1 2.27649 8.49315 8.49415 
39 1 1.58207 9.20959 9.20422 
13 1 6.21509 4.4888 4.51075 
14 1 7.7914 2.98952 2.98949 
15 1 7.06594 3.68061 3.68999 
28 1 10.1074 0.678798 0.679022 
29 1 8.59603 2.18102 2.18341 
30 1 9.30692 1.47843 1.47178 
1 1 6.15331 4.56655 6.14462 
2 1 7.68178 3.09313 7.68463 
3 1 6.96396 3.77984 6.96404 
40 1 10.0428 0.767827 10.0405 
41 1 8.4914 2.27752 8.49191 
42 1 9.20632 1.58168 9.20536 
7 1 6.14628 6.13474 4.50657 
8 1 7.69365 7.69563 3.08382 
9 1 6.96806 6.96395 3.74725 
43 1 10.0482 10.0482 0.758785 
44 1 8.50309 8.50458 2.26705 
45 1 9.21596 9.21555 1.57428 
22 1 6.23596 6.22041 6.11141 
23 1 7.6492 7.76922 8.0841 
24 1 7.0247 7.02285 7.03591 
34 1 10.1416 10.1366 10.1285 
35 1 8.69912 8.64911 8.52129 
36 1 9.37836 9.34358 9.2658 
49 2 6.48208 7.0411 8.46474 
ITEM: TIMESTEP
60
ITEM: NUMBER OF ATOMS
49
ITEM: BOX BOUNDS pp pp pp
0.0000000000000000e+00 1.1000000000000000e+01
0.0000000000000000e+00 1.1002000000000001e+01
0.0000000000000000e+00 1.1000000000000000e+01
ITEM: ATOMS id type x y z 
10 1 4.5805 4.58559 4.58946 
11 1 3.07946 3.07968 3.07923 
12 1 3.78539 3.78702 3.79076 
46 1 0.748966 0.745509 0.744641 
47 1 2.2761 2.27468 2.27647 
48 1 1.56882 1.56838 1.56628 
19 1 4.52924 4.52802 6.24472 
20 1 2.99631 2.99196 7.78631 
21 1 3.68871 3.69841 7.06506 
31 1 0.67187 0.677257 10.0993 
32 1 2.17482 2.18967 8.58583 
33 1 1.49987 1.46877 9.31159 
16 1 4.49605 6.21875 4.51823 
17 1 2.99264 7.78889 2.99065 
18 1 3.6831 7.06527 3.69663 
25 1 0.683109 10.1059 0.676693 
26 1 2.18422 8.59435 2.18596 
27 1 1.4815 9.3038 1.47258 
4 1 4.57625 6.15036 6.1516 
5 1 3.0911 7.6806 7.68266 
6 1 3.78513 6.96455 6.9658 
37 1 0.768632 10.0457 10.0442 
38 1 2.27648 8.49317 8.49415 
39 1 1.58212 9.20953 9.2042 
13 1 6.21511 4.48879 4.51072 
14 1 7.79147 2.98946 2.98943 
15 1 7.06588 3.68063 3.69004 
28 1 10.1074 0.678899 0.678918 
29 1 8.59606 2.18102 2.18337 
30 1 9.3069 1.47841 1.47183 
1 1 6.15331 4.56656 6.14467 
2 1 7.68173 3.09314 7.6846 
3 1 6.96402 3.77984 6.96408 
40 1 10.0428 0.767798 10.0405 
41 1 8.49145 2.27746 8.49196 
42 1 9.20632 1.58169 9.20538 
7 1 6.14627 6.13477 4.50657 
8 1 7.69363 7.69561 3.0838 
9 1 6.96808 6.96397 3.74728 
43 1 10.0482 10.0482 0.758805 
44 1 8.50304 8.50453 2.26712 
45 1 9.21592 9.21551 1.57429 
22 1 6.23597 6.22044 6.11145 
23 1 7.64924 7.76924 8.08408 
24 1 7.02466 7.02283 7.03592 
34 1 10.1416 10.1366 10.1283 
35 1 8.69913 8.6491 8.52131 
36 1 9.37832 9.34358 9.26578 
49 2 6.48205 7.04107 8.46476 
ITEM: TIMESTEP
70
ITEM: NUMBER OF ATOMS
49
ITEM: BOX BOUNDS pp pp pp
0.0000000000000000e+00 1.1000000000000000e+01
0.0000000000000000e+00 1.1002000000000001e+01
0.0000000000000000e+00 1.1000000000000000e+01
ITEM: ATOMS id type x y z 
10 1 4.5805 4.58559 4.58947 
11 1 3.07946 3.07968 3.07924 
12 1 3.78539 3.78703 3.79075 
46 1 0.748966 0.745515 0.744638 
47 1 2.27609 2.27468 2.27647 
48 1 1.56882 1.56838 1.56628 
19 1 4.52924 4.52802 6.24472 
20 1 2.99631 2.99196 7.78631 
21 1 3.68871 3.69841 7.06506 
31 1 0.67186 0.677259 10.0993 
32 1 2.17483 2.18967 8.58583 
33 1 1.49986 1.46877 9.31159 
16 1 4.49605 6.21875 4.51823 
17 1 2.99264 7.78889 2.99065 
18 1 3.68311 7.06527 3.69663 
25 1 0.683126 10.1059 0.676691 
26 1 2.18422 8.59435 2.18596 
27 1 1.4815 9.3038 1.4726 
4 1 4.57625 6.15036 6.1516 
5 1 3.0911 7.68059 7.68265 
6 1 3.78513 6.96456 6.96582 
37 1 0.768633 10.0457 10.0442 
38 1 2.27647 8.49318 8.49415 
39 1 1.58213 9.20952 9.20419 
13 1 6.21511 4.48879 4.51072 
14 1 7.79149 2.98945 2.98941 
15 1 7.06587 3.68064 3.69005 
28 1 10.1074 0.678917 0.678899 
29 1 8.59606 2.18102 2.18336 
30 1 9.3069 1.47841 1.47184 
1 1 6.15331 4.56657 6.14468 
2 1 7.68172 3.09314 7.68459 
3 1 6.96403 3.77984 6.96408 
40 1 10.0429 0.767792 10.0405 
41 1 8.49146 2.27745 8.49197 
42 1 9.20632 1.58169 9.20539 
7 1 6.14627 6.13478 4.50657 
8 1 7.69363 7.69561 3.0838 
9 1 6.96809 6.96397 3.74728 
43 1 10.0482 10.0481 0.758809 
44 1 8.50304 8.50452 2.26714 
45 1 9.21591 9.21551 1.57429 
22 1 6.23597 6.22044 6.11146 
23 1 7.64925 7.76924 8.08408 
24 1 7.02465 7.02282 7.03593 
34 1 10.1416 10.1367 10.1283 
35 1 8.69914 8.6491 8.52131 
36 1 9.37831 9.34358 9.26577 
49 2 6.48204 7.04107 8.46477 
ITEM: TIMESTEP
77
ITEM: NUMBER OF ATOMS
49
ITEM: BOX BOUNDS pp pp pp
0.0000000000000000e+00 1.1000000000000000e+01
0.0000000000000000e+00 1.1002000000000001e+01
0.0000000000000000e+00 1.1000000000000000e+01
ITEM: ATOMS id type x y z 
10 1 4.5805 4.58559 4.58947 
11 1 3.07946 3.07967 3.07924 
12 1 3.78539 3.78703 3.79075 
46 1 0.748966 0.745516 0.744638 
47 1 2.27609 2.27468 2.27647 
48 1 1.56882 1.56838 1.56628 
19 1 4.52924 4.52802 6.24472 
20 1 2.99631 2.99196 7.78631 
21 1 3.68872 3.69841 7.06506 
31 1 0.671859 0.677259 10.0993 
32 1 2.17483 2.18967 8.58583 
33 1 1.49986 1.46877 9.31159 
16 1 4.49605 6.21875 4.51823 
17 1 2.99264 7.78889 2.99065 
18 1 3.68311 7.06527 3.69663 
25 1 0.683128 10.1059 0.676691 
26 1 2.18422 8.59435 2.18595 
27 1 1.4815 9.3038 1.4726 
4 1 4.57625 6.15037 6.1516 
5 1 3.0911 7.68058 7.68265 
6 1 3.78513 6.96456 6.96582 
37 1 0.768633 10.0457 10.0442 
38 1 2.27647 8.49318 8.49415 
39 1 1.58213 9.20952 9.20419 
13 1 6.21511 4.48879 4.51071 
14 1 7.79149 2.98945 2.98941 
15 1 7.06587 3.68064 3.69005 
28 1 10.1074 0.678919 0.678898 
29 1 8.59606 2.18102 2.18336 
30 1 9.3069 1.47841 1.47184 
1 1 6.15331 4.56657 6.14468 
2 1 7.68172 3.09314 7.68459 
3 1 6.96403 3.77984 6.96408 
40 1 10.0429 0.767791 10.0405 
41 1 8.49146 2.27745 8.49197 
42 1 9.20632 1.58169 9.20539 
7 1 6.14627 6.13478 4.50657 
8 1 7.69363 7.69561 3.0838 
9 1 6.96809 6.96398 3.74728 
43 1 10.0482 10.0481 0.758809 
44 1 8.50304 8.50452 2.26714 
45 1 9.21591 9.21551 1.57429 
22 1 6.23597 6.22044 6.11146 
23 1 7.64925 7.76924 8.08408 
24 1 7.02465 7.02282 7.03593 
34 1 10.1416 10.1367 10.1283 
35 1 8.69914 8.6491 8.52131 
36 1 9.37831 9.34358 9.26577 
49 2 6.48204 7.04107 8.46477 
ITEM: TIMESTEP
78
ITEM: NUMBER OF ATOMS
49
ITEM: BOX BOUNDS pp pp pp
0.0000000000000000e+00 1.1000000000000000e+01
0.0000000000000000e+00 1.1002000000000001e+01
0.0000000000000000e+00 1.1000000000000000e+01
ITEM: ATOMS id type x y z 
10 1 4.5805 4.58559 4.58947 
11 1 3.07946 3.07967 3.07924 
12 1 3.78539 3.78703 3.79075 
46 1 0.748966 0.745516 0.744638 
47 1 2.27609 2.27468 2.27647 
48 1 1.56882 1.56838 1.56628 
19 1 4.52924 4.52802 6.24472 
20 1 2.99631 2.99196 7.78631 
21 1 3.68872 3.69841 7.06506 
31 1 0.671859 0.677259 10.0993 
32 1 2.17483 2.18967 8.58583 
33 1 1.49986 1.46877 9.31159 
16 1 4.49605 6.21875 4.51823 
17 1 2.99264 7.78889 2.99065 
18 1 3.68311 7.06527 3.69663 
25 1 0.683128 10.1059 0.676691 
26 1 2.18422 8.59435 2.18595 
27 1 1.4815 9.3038 1.4726 
4 1 4.57625 6.15037 6.1516 
5 1 3.0911 7.68058 7.68265 
6 1 3.78513 6.96456 6.96582 
37 1 0.768633 10.0457 10.0442 
38 1 2.27647 8.49318 8.49415 
39 1 1.58213 9.20952 9.20419 
13 1 6.21511 4.48879 4.51071 
14 1 7.79149 2.98945 2.98941 
15 1 7.06587 3.68064 3.69005 
28 1 10.1074 0.678919 0.678898 
29 1 8.59606 2.18102 2.18336 
30 1 9.3069 1.47841 1.47184 
1 1 6.15331 4.56657 6.14468 
2 1 7.68172 3.09314 7.68459 
3 1 6.96403 3.77984 6.96408 
40 1 10.0429 0.767791 10.0405 
41 1 8.49146 2.27745 8.49197 
42 1 9.20632 1.58169 9.20539 
7 1 6.14627 6.13478 4.50657 
8 1 7.69363 7.69561 3.0838 
9 1 6.96809 6.96398 3.74728 
43 1 10.0482 10.0481 0.758809 
44 1 8.50304 8.50452 2.26714 
45 1 9.21591 9.21551 1.57429 
22 1 6.23598 6.22044 6.11146 
23 1 7.64925 7.76924 8.08408 
24 1 7.02465 7.02282 7.03593 
34 1 10.1416 10.1367 10.1283 
35 1 8.69914 8.6491 8.52131 
36 1 9.37831 9.34358 9.26577 
49 2 6.48204 7.04107 8.46477 
ITEM: TIMESTEP
80
ITEM: NUMBER OF ATOMS
49
ITEM: BOX BOUNDS pp pp pp
-1.0999999999999998e-03 1.1001100000000001e+01
-1.0914002229743145e-03 1.1003091400222974e+01
-1.0959513390509958e-03 1.1001095951339051e+01
ITEM: ATOMS id type x y z 
10 1 4.58031 4.58541 4.58929 
11 1 3.07898 3.07919 3.07876 
12 1 3.78505 3.78669 3.79041 
46 1 0.748016 0.744574 0.743689 
47 1 2.27545 2.27404 2.27582 
48 1 1.56804 1.5676 1.5655 
19 1 4.52904 4.52783 6.24486 
20 1 2.9958 2.99147 7.78676 
21 1 3.68836 3.69806 7.06537 
31 1 0.67089 0.676302 10.1002 
32 1 2.17417 2.18902 8.58644 
33 1 1.49906 1.46797 9.31234 
16 1 4.49585 6.2189 4.51803 
17 1 2.99213 7.78935 2.99015 
18 1 3.68276 7.06557 3.69627 
25 1 0.682171 10.1068 0.675729 
26 1 2.18356 8.59497 2.18529 
27 1 1.4807 9.30455 1.4718 
4 1 4.57606 6.15049 6.15172 
5 1 3.09063 7.68101 7.68308 
6 1 3.78478 6.96486 6.96612 
37 1 0.767687 10.0466 10.0451 
38 1 2.27583 8.49377 8.49475 
39 1 1.58135 9.21026 9.20493 
13 1 6.21526 4.48859 4.51052 
14 1 7.79195 2.98895 2.98891 
15 1 7.06618 3.68028 3.68969 
28 1 10.1083 0.677969 0.677929 
29 1 8.59668 2.18036 2.18269 
30 1 9.30766 1.47761 1.47104 
1 1 6.15344 4.56638 6.14481 
2 1 7.68215 3.09267 7.68502 
3 1 6.96433 3.7795 6.96438 
40 1 10.0438 0.76685 10.0414 
41 1 8.49207 2.2768 8.49257 
42 1 9.20707 1.58091 9.20613 
7 1 6.1464 6.13491 4.50638 
8 1 7.69407 7.69604 3.08332 
9 1 6.96838 6.96427 3.74693 
43 1 10.0491 10.049 0.757865 
44 1 8.50363 8.50511 2.2665 
45 1 9.21665 9.21624 1.57351 
22 1 6.23612 6.22059 6.11159 
23 1 7.64968 7.76969 8.08459 
24 1 7.02495 7.02312 7.03623 
34 1 10.1425 10.1376 10.1292 
35 1 8.69978 8.64973 8.52192 
36 1 9.37908 9.34435 9.26652 
49 2 6.48223 7.04137 8.46536 
ITEM: TIMESTEP
90
ITEM: NUMBER OF ATOMS
49
ITEM: BOX BOUNDS pp pp pp
-6.1941105812844850e-03 1.1006194110581291e+01
-5.6755000482643933e-03 1.1007675500048263e+01
-4.7963184152879012e-03 1.1004796318415289e+01
ITEM: ATOMS id type x y z 
10 1 4.57968 4.58494 4.58913 
11 1 3.07682 3.0772 3.07732 
12 1 3.78339 3.78533 3.78903 
46 1 0.74336 0.740449 0.740174 
47 1 2.27229 2.27123 2.27346 
48 1 1.56428 1.56411 1.56278 
19 1 4.52833 4.52727 6.24509 
20 1 2.99356 2.98953 7.7881 
21 1 3.68702 3.69682 7.06626 
31 1 0.666001 0.67196 10.1036 
32 1 2.17117 2.18615 8.58866 
33 1 1.49521 1.46476 9.31471 
16 1 4.49517 6.21927 4.51764 
17 1 2.98982 7.79119 2.98855 
18 1 3.68147 7.06652 3.69534 
25 1 0.677671 10.1109 0.672093 
26 1 2.18035 8.59774 2.18275 
27 1 1.47709 9.30754 1.4695 
4 1 4.57551 6.15074 6.15179 
5 1 3.08863 7.68247 7.68414 
6 1 3.78301 6.96646 6.96757 
37 1 0.763054 10.0506 10.0483 
38 1 2.2727 8.49646 8.49689 
39 1 1.57768 9.21335 9.20755 
13 1 6.21575 4.48803 4.51004 
14 1 7.79421 2.98677 2.98709 
15 1 7.06716 3.67906 3.68888 
28 1 10.1129 0.67392 0.674045 
29 1 8.59974 2.17752 2.1802 
30 1 9.311 1.47429 1.46868 
1 1 6.15369 4.56592 6.14504 
2 1 7.68388 3.09078 7.68625 
3 1 6.96605 3.77799 6.96561 
40 1 10.0483 0.762562 10.0447 
41 1 8.49519 2.27377 8.49491 
42 1 9.21062 1.57758 9.2088 
7 1 6.14668 6.13524 4.50611 
8 1 7.6959 7.69768 3.08169 
9 1 6.96997 6.96569 3.74576 
43 1 10.0534 10.053 0.754463 
44 1 8.50635 8.50753 2.26449 
45 1 9.22021 9.2195 1.57062 
22 1 6.23658 6.22103 6.11194 
23 1 7.6518 7.77165 8.08623 
24 1 7.02588 7.02401 7.03704 
34 1 10.1471 10.1418 10.1323 
35 1 8.70289 8.65241 8.52416 
36 1 9.38239 9.34745 9.26883 
49 2 6.48303 7.04257 8.46739 
ITEM: TIMESTEP
100
ITEM: NUMBER OF ATOMS
49
ITEM: BOX BOUNDS pp pp pp
-9.4779605380100260e-03 1.1009477960538019e+01
-8.2897645191951988e-03 1.1010289764519195e+01
-5.8390425638701494e-03 1.1005839042563871e+01
ITEM: ATOMS id type x y z 
10 1 4.57963 4.5851 4.58992 
11 1 3.07559 3.07608 3.07728 
12 1 3.78219 3.78469 3.78819 
46 1 0.739898 0.737765 0.738544 
47 1 2.26988 2.26934 2.2723 
48 1 1.56178 1.56184 1.56195 
19 1 4.52817 4.52738 6.24463 
20 1 2.99239 2.98885 7.78788 
21 1 3.68651 3.69633 7.06642 
31 1 0.662226 0.668913 10.1053 
32 1 2.16937 2.18431 8.58957 
33 1 1.49252 1.46324 9.31495 
16 1 4.4951 6.21913 4.51806 
17 1 2.9886 7.79184 2.98855 
18 1 3.68096 7.06681 3.6953 
25 1 0.674539 10.1138 0.670262 
26 1 2.17824 8.59947 2.1816 
27 1 1.47476 9.30912 1.46949 
4 1 4.57557 6.15042 6.15114 
5 1 3.08746 7.68294 7.68392 
6 1 3.78184 6.96775 6.9686 
37 1 0.759605 10.0534 10.0495 
38 1 2.27035 8.49842 8.49784 
39 1 1.57529 9.21508 9.2085 
13 1 6.21582 4.48818 4.51027 
14 1 7.79549 2.98577 2.98674 
15 1 7.06747 3.67845 3.68901 
28 1 10.1164 0.671399 0.671721 
29 1 8.60187 2.1759 2.17912 
30 1 9.31297 1.47231 1.46859 
1 1 6.15333 4.56613 6.14471 
2 1 7.68466 3.08975 7.68627 
3 1 6.96759 3.77715 6.96631 
40 1 10.0516 0.759547 10.0461 
41 1 8.49778 2.2715 8.49629 
42 1 9.21308 1.5755 9.20973 
7 1 6.14641 6.13512 4.50676 
8 1 7.69686 7.69838 3.08116 
9 1 6.97128 6.9668 3.7455 
43 1 10.0566 10.0556 0.753001 
44 1 8.50828 8.50903 2.264 
45 1 9.22255 9.22152 1.56942 
22 1 6.23651 6.22101 6.11196 
23 1 7.65328 7.7728 8.08648 
24 1 7.02578 7.02399 7.037 
34 1 10.1505 10.1449 10.1331 
35 1 8.705 8.65394 8.52511 
36 1 9.38417 9.34916 9.26915 
49 2 6.48346 7.04316 8.46796 
ITEM: TIMESTEP
110
ITEM: NUMBER OF ATOMS
49
ITEM: BOX BOUNDS pp pp pp
-1.1289673750369367e-02 1.1011289673750381e+01
-9.9087759786532642e-03 1.1011908775978652e+01
-6.3786973654160160e-03 1.1006378697365417e+01
ITEM: ATOMS id type x y z 
10 1 4.5799 4.58549 4.59071 
11 1 3.07503 3.07546 3.07737 
12 1 3.78139 3.78424 3.7877 
46 1 0.737638 0.735876 0.737298 
47 1 2.26823 2.26795 2.27134 
48 1 1.56039 1.56031 1.56157 
19 1 4.52829 4.52769 6.24406 
20 1 2.99199 2.98875 7.78731 
21 1 3.6864 3.69606 7.06659 
31 1 0.659782 0.666698 10.1066 
32 1 2.16849 2.18304 8.59025 
33 1 1.49085 1.4625 9.31477 
16 1 4.49533 6.21882 4.51859 
17 1 2.98822 7.79187 2.98899 
18 1 3.68079 7.06698 3.69524 
25 1 0.67253 10.1158 0.66881 
26 1 2.17714 8.60054 2.18082 
27 1 1.4734 9.31012 1.46982 
4 1 4.57597 6.15002 6.15053 
5 1 3.08693 7.68323 7.68379 
6 1 3.78104 6.96854 6.96909 
37 1 0.757343 10.0553 10.0502 
38 1 2.2688 8.49993 8.49858 
39 1 1.57399 9.21608 9.2091 
13 1 6.21563 4.4885 4.51063 
14 1 7.79582 2.98542 2.98689 
15 1 7.06764 3.67807 3.68909 
28 1 10.1186 0.669601 0.669811 
29 1 8.60312 2.17498 2.17839 
30 1 9.31398 1.47095 1.46884 
1 1 6.15279 4.56645 6.14427 
2 1 7.68493 3.08905 7.68618 
3 1 6.96868 3.77677 6.96678 
40 1 10.0539 0.757322 10.0472 
41 1 8.49962 2.26981 8.49746 
42 1 9.21451 1.57412 9.21028 
7 1 6.14599 6.13484 4.50741 
8 1 7.69726 7.69869 3.08075 
9 1 6.97217 6.96762 3.74548 
43 1 10.0586 10.0574 0.751861 
44 1 8.50967 8.51025 2.26358 
45 1 9.22382 9.22279 1.56863 
22 1 6.23623 6.22085 6.11196 
23 1 7.65412 7.77346 8.08641 
24 1 7.02529 7.02378 7.03708 
34 1 10.1527 10.1472 10.1336 
35 1 8.70616 8.65481 8.52575 
36 1 9.38496 9.35024 9.26919 
49 2 6.48371 7.04351 8.46819 
ITEM: TIMESTEP
120
ITEM: NUMBER OF ATOMS
49
ITEM: BOX BOUNDS pp pp pp
-1.3678313171582926e-02 1.1013678313171594e+01
-1.2497696563669702e-02 1.1014497696563669e+01
-8.2710242858301097e-03 1.1008271024285829e+01
ITEM: ATOMS id type x y z 
10 1 4.5802 4.58588 4.59125 
11 1 3.07424 3.07456 3.07676 
12 1 3.78038 3.78325 3.787 
46 1 0.734769 0.733057 0.734778 
47 1 2.26615 2.26593 2.26947 
48 1 1.55862 1.55806 1.56026 
19 1 4.52837 4.52792 6.24356 
20 1 2.9914 2.98834 7.78714 
21 1 3.68615 3.69546 7.06722 
31 1 0.656872 0.663554 10.1092 
32 1 2.16733 2.18112 8.59176 
33 1 1.48866 1.46113 9.31542 
16 1 4.49555 6.21855 4.51896 
17 1 2.98767 7.79215 2.98896 
18 1 3.68044 7.06747 3.69467 
25 1 0.669839 10.1186 0.666059 
26 1 2.17575 8.60211 2.1792 
27 1 1.47154 9.31183 1.46926 
4 1 4.57632 6.14973 6.15004 
5 1 3.0861 7.68396 7.68425 
6 1 3.78006 6.96948 6.96986 
37 1 0.754469 10.0582 10.0522 
38 1 2.26686 8.50207 8.50011 
39 1 1.57229 9.2177 9.21064 
13 1 6.21539 4.48871 4.51086 
14 1 7.79617 2.98474 2.98663 
15 1 7.06807 3.67746 3.68863 
28 1 10.1214 0.666796 0.66663 
29 1 8.60471 2.17353 2.1768 
30 1 9.31537 1.46879 1.4682 
1 1 6.15225 4.56658 6.14388 
2 1 7.68541 3.08783 7.68664 
3 1 6.96999 3.77619 6.9676 
40 1 10.0566 0.754146 10.0494 
41 1 8.50184 2.26751 8.49943 
42 1 9.21631 1.57205 9.2117 
7 1 6.1456 6.13457 4.50782 
8 1 7.69788 7.69936 3.07967 
9 1 6.97324 6.96877 3.74509 
43 1 10.0613 10.0602 0.749396 
44 1 8.5116 8.51221 2.26221 
45 1 9.22543 9.2247 1.56682 
22 1 6.23595 6.22076 6.11214 
23 1 7.65513 7.77444 8.08686 
24 1 7.02487 7.02386 7.0378 
34 1 10.1555 10.1502 10.1354 
35 1 8.70759 8.65619 8.52718 
36 1 9.38612 9.35199 9.27014 
49 2 6.48416 7.04416 8.46908 
ITEM: TIMESTEP
130
ITEM: NUMBER OF ATOMS
49
ITEM: BOX BOUNDS pp pp pp
-1.6440952366443436e-02 1.1016440952366452e+01
-1.6088560862631281e-02 1.1018088560862632e+01
-1.1344393032201458e-02 1.1011344393032202e+01
ITEM: ATOMS id type x y z 
10 1 4.58115 4.58671 4.59208 
11 1 3.07357 3.0734 3.07572 
12 1 3.77887 3.78179 3.78603 
46 1 0.731003 0.728614 0.73071 
47 1 2.26341 2.26266 2.2665 
48 1 1.55637 1.55528 1.55782 
19 1 4.52884 4.52855 6.24257 
20 1 2.99096 2.98806 7.78667 
21 1 3.68623 3.69471 7.06834 
31 1 0.653392 0.65893 10.1133 
32 1 2.16626 2.17828 8.59434 
33 1 1.48568 1.45952 9.31628 
16 1 4.49628 6.21789 4.51969 
17 1 2.98737 7.79218 2.9891 
18 1 3.68035 7.06807 3.69369 
25 1 0.666178 10.1228 0.661492 
26 1 2.17425 8.60434 2.17646 
27 1 1.4692 9.31417 1.46856 
4 1 4.57712 6.14933 6.1491 
5 1 3.08521 7.68502 7.68489 
6 1 3.77889 6.97062 6.97128 
37 1 0.750602 10.0624 10.0554 
38 1 2.26431 8.50531 8.50262 
39 1 1.57033 9.21984 9.21322 
13 1 6.21468 4.48941 4.51142 
14 1 7.79598 2.98412 2.98645 
15 1 7.06841 3.67672 3.68792 
28 1 10.125 0.662551 0.661536 
29 1 8.60678 2.17166 2.17417 
30 1 9.31664 1.46553 1.46725 
1 1 6.15122 4.56694 6.14315 
2 1 7.68562 3.08608 7.68746 
3 1 6.97201 3.7755 6.96876 
40 1 10.0602 0.749384 10.0531 
41 1 8.50484 2.26424 8.50263 
42 1 9.21838 1.56907 9.21395 
7 1 6.14486 6.13391 4.5085 
8 1 7.69836 7.70008 3.07778 
9 1 6.97475 6.97061 3.74454 
43 1 10.0649 10.0644 0.74512 
44 1 8.51451 8.5154 2.25976 
45 1 9.22727 9.22742 1.56373 
22 1 6.23524 6.22044 6.11252 
23 1 7.65622 7.77562 8.08732 
24 1 7.02366 7.02384 7.03946 
34 1 10.1589 10.1544 10.1383 
35 1 8.70911 8.65803 8.52964 
36 1 9.38721 9.35433 9.27168 
49 2 6.4849 7.04513 8.47035 
ITEM: TIMESTEP
140
ITEM: NUMBER OF ATOMS
49
ITEM: BOX BOUNDS pp pp pp
-1.9352040321615853e-02 1.1019352040321627e+01
-1.9860298237169366e-02 1.1021860298237170e+01
-1.5557249862303205e-02 1.1015557249862306e+01
ITEM: ATOMS id type x y z 
10 1 4.58126 4.58711 4.59297 
11 1 3.07213 3.07205 3.07472 
12 1 3.77856 3.78038 3.7836 
46 1 0.727295 0.724497 0.725791 
47 1 2.26074 2.25984 2.26296 
48 1 1.55431 1.55191 1.55494 
19 1 4.52913 4.52895 6.24195 
20 1 2.99023 2.98744 7.78697 
21 1 3.68619 3.69387 7.06979 
31 1 0.650296 0.654487 10.118 
32 1 2.16513 2.17544 8.59744 
33 1 1.48259 1.45764 9.31808 
16 1 4.49681 6.21743 4.51998 
17 1 2.98674 7.79257 2.98839 
18 1 3.68012 7.06881 3.69232 
25 1 0.662502 10.1267 0.656507 
26 1 2.1725 8.60662 2.17341 
27 1 1.46712 9.31663 1.46641 
4 1 4.57755 6.14884 6.14909 
5 1 3.0842 7.68579 7.68658 
6 1 3.77769 6.97258 6.97197 
37 1 0.746874 10.0665 10.0595 
38 1 2.26194 8.50838 8.50553 
39 1 1.56821 9.22216 9.21655 
13 1 6.21415 4.48986 4.51167 
14 1 7.79605 2.98315 2.98561 
15 1 7.06885 3.676 3.68667 
28 1 10.1283 0.657558 0.656827 
29 1 8.60875 2.16871 2.17187 
30 1 9.3183 1.46401 1.46364 
1 1 6.15124 4.56757 6.14273 
2 1 7.68683 3.08495 7.68873 
3 1 6.9724 3.77339 6.97029 
40 1 10.0636 0.744656 10.0575 
41 1 8.50739 2.26114 8.50599 
42 1 9.2207 1.56625 9.21699 
7 1 6.14458 6.13362 4.50881 
8 1 7.69912 7.70108 3.07559 
9 1 6.97598 6.9722 3.74319 
43 1 10.0684 10.0685 0.740108 
44 1 8.51733 8.51862 2.25672 
45 1 9.22917 9.23006 1.56 
22 1 6.23475 6.22029 6.11316 
23 1 7.65729 7.77681 8.08831 
24 1 7.02281 7.02418 7.04177 
34 1 10.1621 10.1584 10.1419 
35 1 8.71054 8.66 8.53268 
36 1 9.38864 9.35673 9.27414 
49 2 6.48577 7.04622 8.4722 
ITEM: TIMESTEP
150
ITEM: NUMBER OF ATOMS
49
ITEM: BOX BOUNDS pp pp pp
-2.1357111441021138e-02 1.1021357111441031e+01
-2.2453933865584527e-02 1.1024453933865587e+01
-1.9009764080587428e-02 1.1019009764080595e+01
ITEM: ATOMS id type x y z 
10 1 4.58193 4.58751 4.59308 
11 1 3.07173 3.07119 3.07325 
12 1 3.77722 3.77931 3.78282 
46 1 0.72464 0.721167 0.721862 
47 1 2.25886 2.25745 2.26026 
48 1 1.55265 1.55013 1.55215 
19 1 4.5295 4.52945 6.24134 
20 1 2.98973 2.98719 7.78711 
21 1 3.68645 3.6934 7.07105 
31 1 0.648344 0.651315 10.1217 
32 1 2.16465 2.17334 8.60007 
33 1 1.48004 1.45662 9.31935 
16 1 4.49745 6.2169 4.52026 
17 1 2.98638 7.79253 2.9879 
18 1 3.68018 7.06933 3.6912 
25 1 0.659583 10.1297 0.652948 
26 1 2.17106 8.6085 2.17153 
27 1 1.46627 9.31772 1.46359 
4 1 4.57786 6.14895 6.14866 
5 1 3.08342 7.68667 7.6874 
6 1 3.77701 6.97321 6.97356 
37 1 0.744098 10.0695 10.0627 
38 1 2.26026 8.51071 8.50793 
39 1 1.56669 9.22362 9.21934 
13 1 6.21361 4.49072 4.51175 
14 1 7.79581 2.98287 2.98477 
15 1 7.0691 3.67512 3.68608 
28 1 10.1306 0.654484 0.652476 
29 1 8.6102 2.16726 2.16942 
30 1 9.31928 1.46198 1.46179 
1 1 6.15091 4.56776 6.14249 
2 1 7.68715 3.08372 7.68985 
3 1 6.97361 3.77267 6.97142 
40 1 10.0661 0.74112 10.0611 
41 1 8.50934 2.25896 8.50882 
42 1 9.22229 1.56419 9.21943 
7 1 6.14461 6.13369 4.50959 
8 1 7.69974 7.70196 3.07418 
9 1 6.97658 6.97283 3.74109 
43 1 10.0708 10.0714 0.735552 
44 1 8.51925 8.52093 2.25397 