LAMMPS (3 Mar 2020)
Reading data file ...
  orthogonal box = (0 0 0) to (11 11.002 11)
  2 by 2 by 2 MPI processor grid
  reading atoms ...
  49 atoms
  read_data CPU = 0.00366826 secs
WARNING: Changed valency_val to valency_boc for X (../reaxc_ffield.cpp:315)
WARNING: Using 'neigh_modify every 1 delay 0 check yes' setting during minimization (../min.cpp:190)
Neighbor list info ...
  update every 1 steps, delay 0 steps, check yes
  max neighbors/atom: 2000, page size: 100000
  master list distance cutoff = 12
  ghost atom cutoff = 12
  binsize = 6, bins = 2 2 2
  2 neighbor lists, perpetual/occasional/extra = 2 0 0
  (1) pair reax/c, perpetual
      attributes: half, newton off, ghost
      pair build: half/bin/newtoff/ghost
      stencil: half/ghost/bin/3d/newtoff
      bin: standard
  (2) fix qeq/reax, perpetual, copy from (1)
      attributes: half, newton off, ghost
      pair build: copy
      stencil: none
      bin: none
Setting up cg style minimization ...
  Unit style    : real
  Current step  : 0
Per MPI rank memory allocation (min/avg/max) = 24.7 | 24.82 | 24.96 Mbytes
Step Temp E_pair E_mol TotEng Press 
       0            0   -8595.0885            0   -8595.0885    123175.82 
      77            0   -8763.8497            0   -8763.8497    58463.759 
Loop time of 2.28266 on 8 procs for 77 steps with 49 atoms

99.0% CPU use with 8 MPI tasks x no OpenMP threads

Minimization stats:
  Stopping criterion = energy tolerance
  Energy initial, next-to-last, final = 
        -8595.08847018     -8763.84962818     -8763.84970056
  Force two-norm initial, final = 1390.39 179.459
  Force max component initial, final = 492.941 48.324
  Final line search alpha, max atom move = 0.000129328 0.00624963
  Iterations, force evaluations = 77 448

MPI task timing breakdown:
Section |  min time  |  avg time  |  max time  |%varavg| %total
---------------------------------------------------------------
Pair    | 1.8435     | 1.8756     | 1.9031     |   1.4 | 82.17
Neigh   | 0          | 0          | 0          |   0.0 |  0.00
Comm    | 0.026849   | 0.053816   | 0.085217   |   8.3 |  2.36
Output  | 0.00023144 | 0.00029492 | 0.0005175  |   0.0 |  0.01
Modify  | 0.34729    | 0.34765    | 0.34803    |   0.1 | 15.23
Other   |            | 0.005345   |            |       |  0.23

Nlocal:    6.125 ave 7 max 6 min
Histogram: 7 0 0 0 0 0 0 0 0 1
Nghost:    944.625 ave 953 max 938 min
Histogram: 2 0 0 0 4 0 0 0 0 2
Neighs:    1694.5 ave 1930 max 1655 min
Histogram: 7 0 0 0 0 0 0 0 0 1

Total # of neighbors = 13556
Ave neighs/atom = 276.653
Neighbor list builds = 0
Dangerous builds = 0
WARNING: Using 'neigh_modify every 1 delay 0 check yes' setting during minimization (../min.cpp:190)
Setting up cg style minimization ...
  Unit style    : real
  Current step  : 77
Per MPI rank memory allocation (min/avg/max) = 24.7 | 24.82 | 24.96 Mbytes
Step Temp E_pair E_mol TotEng Press 
      77            0   -8763.8497            0   -8763.8497     58463.76 
      78            0   -8763.8498            0   -8763.8498    58463.517 
Loop time of 0.0394818 on 8 procs for 1 steps with 49 atoms

98.5% CPU use with 8 MPI tasks x no OpenMP threads

Minimization stats:
  Stopping criterion = energy tolerance
  Energy initial, next-to-last, final = 
        -8763.84970071     -8763.84970071     -8763.84975794
  Force two-norm initial, final = 179.459 179.451
  Force max component initial, final = 48.324 48.3217
  Final line search alpha, max atom move = 0.000129335 0.0062497
  Iterations, force evaluations = 1 7

MPI task timing breakdown:
Section |  min time  |  avg time  |  max time  |%varavg| %total
---------------------------------------------------------------
Pair    | 0.031743   | 0.032361   | 0.032819   |   0.2 | 81.96
Neigh   | 0          | 0          | 0          |   0.0 |  0.00
Comm    | 0.0004549  | 0.00090773 | 0.0015216  |   0.0 |  2.30
Output  | 0          | 0          | 0          |   0.0 |  0.00
Modify  | 0.0060125  | 0.0060162  | 0.0060222  |   0.0 | 15.24
Other   |            | 0.0001969  |            |       |  0.50

Nlocal:    6.125 ave 7 max 6 min
Histogram: 7 0 0 0 0 0 0 0 0 1
Nghost:    935.625 ave 944 max 926 min
Histogram: 1 1 0 0 1 2 1 0 0 2
Neighs:    1699.75 ave 1922 max 1660 min
Histogram: 7 0 0 0 0 0 0 0 0 1

Total # of neighbors = 13598
Ave neighs/atom = 277.51
Neighbor list builds = 0
Dangerous builds = 0
WARNING: Using 'neigh_modify every 1 delay 0 check yes' setting during minimization (../min.cpp:190)
Setting up cg style minimization ...
  Unit style    : real
  Current step  : 78
WARNING: Energy due to 3 extra global DOFs will be included in minimizer energies
Per MPI rank memory allocation (min/avg/max) = 24.7 | 24.82 | 24.96 Mbytes
Step Temp E_pair E_mol TotEng Press Volume 
      78            0   -8763.8498            0   -8763.8498    58463.518     1331.242 
     243            0    -8775.847            0    -8775.847    972.65079    1353.2934 
Loop time of 1.35228 on 8 procs for 165 steps with 49 atoms

99.0% CPU use with 8 MPI tasks x no OpenMP threads

Minimization stats:
  Stopping criterion = linesearch alpha is zero
  Energy initial, next-to-last, final = 
         -8763.8497581     -8775.84698951     -8775.84698945
  Force two-norm initial, final = 1974.16 986.255
  Force max component initial, final = 1138.53 577.239
  Final line search alpha, max atom move = 9.4564e-15 5.45861e-12
  Iterations, force evaluations = 165 295

MPI task timing breakdown:
Section |  min time  |  avg time  |  max time  |%varavg| %total
---------------------------------------------------------------
Pair    | 1.1875     | 1.2014     | 1.2141     |   0.9 | 88.84
Neigh   | 0          | 0          | 0          |   0.0 |  0.00
Comm    | 0.016386   | 0.029175   | 0.043109   |   6.0 |  2.16
Output  | 0.00048462 | 0.00066397 | 0.0011476  |   0.0 |  0.05
Modify  | 0.11249    | 0.11261    | 0.11276    |   0.0 |  8.33
Other   |            | 0.008419   |            |       |  0.62

Nlocal:    6.125 ave 7 max 6 min
Histogram: 7 0 0 0 0 0 0 0 0 1
Nghost:    935.625 ave 944 max 926 min
Histogram: 1 1 0 0 1 2 1 0 0 2
Neighs:    1699.75 ave 1922 max 1660 min
Histogram: 7 0 0 0 0 0 0 0 0 1

Total # of neighbors = 13598
Ave neighs/atom = 277.51
Neighbor list builds = 0
Dangerous builds = 0
WARNING: Using 'neigh_modify every 1 delay 0 check yes' setting during minimization (../min.cpp:190)
Setting up cg style minimization ...
  Unit style    : real
  Current step  : 243
Per MPI rank memory allocation (min/avg/max) = 24.7 | 24.82 | 24.96 Mbytes
Step Temp E_pair E_mol TotEng Press 
     243            0    -8775.847            0    -8775.847    972.64994 
     244            0    -8775.847            0    -8775.847    972.64494 
Loop time of 0.209993 on 8 procs for 1 steps with 49 atoms

99.1% CPU use with 8 MPI tasks x no OpenMP threads

Minimization stats:
  Stopping criterion = linesearch alpha is zero
  Energy initial, next-to-last, final = 
        -8775.84698947     -8775.84698947     -8775.84699023
  Force two-norm initial, final = 985.7 985.7
  Force max component initial, final = 577.239 577.239
  Final line search alpha, max atom move = 1.00838e-14 5.82077e-12
  Iterations, force evaluations = 1 50

MPI task timing breakdown:
Section |  min time  |  avg time  |  max time  |%varavg| %total
---------------------------------------------------------------
Pair    | 0.18415    | 0.18709    | 0.1892     |   0.4 | 89.09
Neigh   | 0          | 0          | 0          |   0.0 |  0.00
Comm    | 0.0027792  | 0.0048565  | 0.0077719  |   2.5 |  2.31
Output  | 0          | 0          | 0          |   0.0 |  0.00
Modify  | 0.017539   | 0.017583   | 0.017614   |   0.0 |  8.37
Other   |            | 0.0004646  |            |       |  0.22

Nlocal:    6.125 ave 7 max 6 min
Histogram: 7 0 0 0 0 0 0 0 0 1
Nghost:    887.5 ave 898 max 878 min
Histogram: 1 0 0 2 2 1 0 1 0 1
Neighs:    1681.75 ave 1895 max 1646 min
Histogram: 7 0 0 0 0 0 0 0 0 1

Total # of neighbors = 13454
Ave neighs/atom = 274.571
Neighbor list builds = 0
Dangerous builds = 0
WARNING: Using 'neigh_modify every 1 delay 0 check yes' setting during minimization (../min.cpp:190)
Setting up cg style minimization ...
  Unit style    : real
  Current step  : 244
WARNING: Energy due to 3 extra global DOFs will be included in minimizer energies
Per MPI rank memory allocation (min/avg/max) = 24.7 | 24.82 | 24.96 Mbytes
Step Temp E_pair E_mol TotEng Press Volume 
     244            0    -8775.847            0    -8775.847    972.64992    1353.2934 
     245            0    -8775.847            0    -8775.847    972.65518    1353.2934 
Loop time of 0.172215 on 8 procs for 1 steps with 49 atoms

98.4% CPU use with 8 MPI tasks x no OpenMP threads

Minimization stats:
  Stopping criterion = linesearch alpha is zero
  Energy initial, next-to-last, final = 
        -8775.84698957     -8775.84698957     -8775.84698885
  Force two-norm initial, final = 986.261 986.261
  Force max component initial, final = 577.239 577.239
  Final line search alpha, max atom move = 9.39085e-15 5.42077e-12
  Iterations, force evaluations = 1 40

MPI task timing breakdown:
Section |  min time  |  avg time  |  max time  |%varavg| %total
---------------------------------------------------------------
Pair    | 0.14988    | 0.15215    | 0.15386    |   0.4 | 88.35
Neigh   | 0          | 0          | 0          |   0.0 |  0.00
Comm    | 0.0021469  | 0.0038394  | 0.0060853  |   2.2 |  2.23
Output  | 0          | 0          | 0          |   0.0 |  0.00
Modify  | 0.015232   | 0.015259   | 0.015272   |   0.0 |  8.86
Other   |            | 0.0009662  |            |       |  0.56

Nlocal:    6.125 ave 7 max 6 min
Histogram: 7 0 0 0 0 0 0 0 0 1
Nghost:    887.5 ave 898 max 878 min
Histogram: 1 0 0 2 2 1 0 1 0 1
Neighs:    1681.75 ave 1895 max 1646 min
Histogram: 7 0 0 0 0 0 0 0 0 1

Total # of neighbors = 13454
Ave neighs/atom = 274.571
Neighbor list builds = 0
Dangerous builds = 0
WARNING: Using 'neigh_modify every 1 delay 0 check yes' setting during minimization (../min.cpp:190)
Setting up cg style minimization ...
  Unit style    : real
  Current step  : 245
Per MPI rank memory allocation (min/avg/max) = 24.7 | 24.82 | 24.96 Mbytes
Step Temp E_pair E_mol TotEng Press 
     245            0    -8775.847            0    -8775.847    972.65471 
     246            0    -8775.847            0    -8775.847    972.65355 
Loop time of 0.1329 on 8 procs for 1 steps with 49 atoms

99.0% CPU use with 8 MPI tasks x no OpenMP threads

Minimization stats:
  Stopping criterion = energy tolerance
  Energy initial, next-to-last, final = 
        -8775.84698875     -8775.84698875     -8775.84698889
  Force two-norm initial, final = 985.7 46.5032
  Force max component initial, final = 577.239 10.6886
  Final line search alpha, max atom move = 2.06516e-11 2.20736e-10
  Iterations, force evaluations = 1 31

MPI task timing breakdown:
Section |  min time  |  avg time  |  max time  |%varavg| %total
---------------------------------------------------------------
Pair    | 0.11631    | 0.118      | 0.1191     |   0.3 | 88.79
Neigh   | 0          | 0          | 0          |   0.0 |  0.00
Comm    | 0.0014877  | 0.0026255  | 0.0043089  |   1.8 |  1.98
Output  | 0          | 0          | 0          |   0.0 |  0.00
Modify  | 0.011916   | 0.01194    | 0.011954   |   0.0 |  8.98
Other   |            | 0.0003386  |            |       |  0.25

Nlocal:    6.125 ave 7 max 6 min
Histogram: 7 0 0 0 0 0 0 0 0 1
Nghost:    887.5 ave 898 max 878 min
Histogram: 1 0 0 2 2 1 0 1 0 1
Neighs:    1681.75 ave 1895 max 1646 min
Histogram: 7 0 0 0 0 0 0 0 0 1

Total # of neighbors = 13454
Ave neighs/atom = 274.571
Neighbor list builds = 0
Dangerous builds = 0
Setting up Verlet run ...
  Unit style    : real
  Current step  : 0
  Time step     : 0.25
Per MPI rank memory allocation (min/avg/max) = 23.57 | 23.69 | 23.83 Mbytes
Step Temp TotEng KinEng PotEng Press 
       0          300   -8732.9233    42.923665    -8775.847    2422.5538 
     200     277.2065   -8716.3756    39.662396    -8756.038    49037.346 
     400    307.95726   -8697.1482    44.062181   -8741.2104    -17699.67 
     600    299.33809   -8704.0159    42.828959   -8746.8449   -11987.296 
     800    255.63278   -8712.8059    36.575652   -8749.3816    23857.519 
    1000    380.54282   -8694.6434    54.447642    -8749.091    6971.5377 
    1200     254.4661   -8702.7175    36.408725   -8739.1262    1630.1294 
    1400    299.08959    -8702.556    42.793405   -8745.3494   -180.18237 
    1600    254.73513   -8716.4083    36.447218   -8752.8555   -33507.688 
    1800    280.63192   -8701.0235    40.152502    -8741.176    18048.249 
    2000    262.82784   -8704.8446    37.605113   -8742.4497   -48473.733 
    2200     251.2977   -8717.2144    35.955394   -8753.1698   -313.43573 
    2400    293.76484   -8713.8135    42.031545    -8755.845     8805.608 
    2600    319.26964   -8698.1358    45.680743   -8743.8165    9085.7706 
    2800    309.30295   -8706.6089     44.25472   -8750.8637    16580.015 
    3000    256.12747   -8716.7174    36.646432   -8753.3639    -21897.19 
    3200    288.42909   -8705.8144    41.268112   -8747.0825    51293.552 
    3400    307.66817   -8695.0068    44.020818   -8739.0276    -2974.019 
    3600     280.4357    -8708.002    40.124426   -8748.1264    16452.184 
    3800    236.82258   -8705.0987     33.88431    -8738.983   -27723.191 
    4000    336.43225   -8702.0271    48.136351   -8750.1634    5035.5932 
    4200    298.34527    -8711.713    42.686907   -8754.3999    19281.298 
    4400    282.87896   -8700.3856    40.474005   -8740.8596   -59002.314 
    4600    381.32917    -8680.558    54.560151   -8735.1182   -9324.6812 
    4800      338.403   -8701.9004    48.418323   -8750.3187   -28468.381 
    5000    311.91714   -8709.2372    44.628756   -8753.8659    9868.4006 
    5200    214.03419   -8719.4008    30.623773   -8750.0246    6680.1388 
    5400    357.18637   -8700.5641    51.105826     -8751.67    25202.261 
    5600    271.53561   -8708.4797    38.851012   -8747.3308   -6873.9467 
    5800    286.66971   -8705.8824    41.016381   -8746.8988    4620.4509 
    6000    304.53131   -8697.5399    43.571999   -8741.1119     18171.08 
    6200    300.41977   -8702.5285    42.983725   -8745.5122    16427.922 
    6400    267.68594   -8716.2695    38.300206   -8754.5697    9741.9299 
    6600    273.16256   -8706.9467    39.083794   -8746.0305    37598.294 
    6800    266.70721   -8704.9923     38.16017   -8743.1525    24063.845 
    7000    418.20824   -8690.7871    59.836768   -8750.6239   -20666.852 
    7200    253.76938   -8707.7389    36.309039    -8744.048      22097.9 
    7400     373.6143   -8695.3764    53.456317   -8748.8327   -49323.025 
    7600     230.4106   -8709.8702    32.966891   -8742.8371   -38384.674 
    7800    277.57424    -8698.788    39.715012    -8738.503    27152.874 
    8000    273.23848   -8710.9262    39.094656   -8750.0209   -20457.807 
    8200    314.32606   -8708.5748    44.973421   -8753.5482   -13270.258 
    8400    291.62826   -8706.2499    41.725846   -8747.9758    19867.809 
    8600    331.26162   -8696.2124    47.396543   -8743.6089   -16215.491 
    8800    261.89769   -8709.9807    37.472029   -8747.4528   -21607.178 
    9000    350.28161   -8705.4702    50.117902   -8755.5881    13494.453 
    9200      265.211   -8705.7044    37.946094   -8743.6505    -29002.05 
    9400    305.70884   -8696.2489    43.740479   -8739.9894      39389.2 
    9600    270.48544   -8713.0871    38.700754   -8751.7879    10505.003 
    9800    319.84277   -8703.8042    45.762746    -8749.567    706.02291 
   10000    362.17774   -8700.1173    51.819987   -8751.9373    4701.8495 
   10200    269.45483   -8719.8124    38.553296   -8758.3657   -22386.784 
   10400    264.80409   -8704.2903    37.887873   -8742.1781    18560.262 
   10600     314.2495   -8697.6255    44.962467    -8742.588    18619.615 
   10800    306.46953   -8714.0803    43.849317   -8757.9296   -34499.876 
   11000    257.90531   -8718.4835    36.900804   -8755.3843    -6404.952 
   11200    338.65109   -8699.1884     48.45382   -8747.6422     31233.47 
   11400    305.32106   -8699.8111    43.684996   -8743.4961   -35563.243 
   11600    317.43081   -8715.4526    45.417646   -8760.8703    13406.123 
   11800    317.93743   -8701.0643    45.490132   -8746.5544    -10280.84 
   12000    275.88142   -8700.2781    39.472806   -8739.7509   -52766.736 
   12200    304.04055   -8703.9932    43.501782    -8747.495   -59256.315 
   12400    315.97016   -8707.4208    45.208657   -8752.6295    6029.7232 
   12600    380.49682   -8689.4697     54.44106   -8743.9108    14582.882 
   12800    313.06758   -8706.1072     44.79336   -8750.9006    34958.295 
   13000    307.62702   -8704.1951    44.014931     -8748.21    51934.496 
   13200    425.65554   -8681.9624    60.902319   -8742.8647   -23169.362 
   13400    272.16363   -8696.0119    38.940869   -8734.9528   -37464.924 
   13600    278.60074   -8709.1023    39.861883   -8748.9641    7205.2358 
   13800    301.31314    -8699.391    43.111547   -8742.5025   -36533.483 
   14000    346.63417   -8695.4516    49.596029   -8745.0476   -39297.096 
   14200     304.6095   -8707.6519    43.583186    -8751.235   -9756.5203 
   14400    318.27798   -8705.6806    45.538858   -8751.2194    32441.133 
   14600    312.83204   -8693.0302    44.759659   -8737.7898    8890.8933 
   14800    248.36206   -8709.3354    35.535366   -8744.8708   -20866.684 
   15000    274.92845     -8701.84    39.336456   -8741.1765    6115.2108 
   15200    350.64517   -8692.9818    50.169919   -8743.1517    15969.737 
   15400     287.4009   -8711.7605       41.121   -8752.8815   -16214.905 
   15600    319.29243   -8704.9692    45.684004   -8750.6532   -13719.781 
   15800    359.17785    -8695.982    51.390766   -8747.3728    16015.074 
   16000    276.37227   -8715.4298    39.543036   -8754.9729   -19874.224 
   16200      311.493   -8700.6076    44.568071   -8745.1757    12409.202 
   16400    336.26551   -8699.0114    48.112493   -8747.1239    32585.895 
   16600    244.46214   -8716.6831     34.97737   -8751.6605   -26279.276 
   16800     309.8605   -8702.6582    44.334494   -8746.9927    30110.869 
   17000    291.44715   -8700.5389    41.699933   -8742.2389   -27614.142 
   17200    268.09888   -8710.1099    38.359289   -8748.4692    23428.876 
   17400    298.73138   -8705.1278    42.742152     -8747.87    8372.1686 
   17600    339.37384   -8694.3866    48.557229   -8742.9438   -12108.663 
   17800    272.21557   -8710.7733    38.948299   -8749.7216    17937.533 
   18000    301.77614   -8704.1822    43.177793     -8747.36    5100.9848 
   18200    364.58701   -8695.6915    52.164702   -8747.8562   -13895.667 
   18400    277.59781   -8707.4765    39.718384   -8747.1949   -3492.4328 
   18600    283.35288   -8706.5442    40.541813    -8747.086   -968.61819 
   18800    343.98395   -8695.0291    49.216839   -8744.2459    33569.297 
   19000    325.66051   -8697.9941    46.595142   -8744.5892   -17219.092 
   19200    262.20958    -8709.665    37.516653   -8747.1816    21186.339 
   19400    310.68903   -8697.1677     44.45304   -8741.6208   -8489.8192 
   19600    256.59765    -8711.394    36.713705   -8748.1078    18398.984 
   19800    340.37218   -8709.5559    48.700071   -8758.2559    4356.0548 
   20000    286.18872   -8703.0579    40.947562   -8744.0055   -14812.018 
   20200    297.69101    -8718.322    42.593297   -8760.9153    9258.3827 
   20400    323.44807   -8703.6894    46.278589    -8749.968    11477.072 
   20600    348.96579   -8701.6796    49.929635   -8751.6093    24567.019 
   20800    257.21162   -8711.9428    36.801552   -8748.7444    8659.7397 
   21000     356.1307   -8701.9922    50.954783    -8752.947    12640.723 
   21200    327.25938   -8696.6272    46.823907   -8743.4511   -7073.6927 
   21400    291.90406   -8712.7123    41.765306   -8754.4776    13998.259 
   21600    315.53814   -8711.8566    45.146844   -8757.0034     8226.457 
   21800    349.78504   -8701.6921    50.046852    -8751.739   -35808.677 
   22000    283.99879   -8707.9974     40.63423   -8748.6317    11387.225 
   22200    308.16009   -8696.5573    44.091201   -8740.6485    6520.9686 
   22400     318.2685   -8697.9214    45.537502   -8743.4589    32215.322 
   22600    267.86754   -8709.6454    38.326189   -8747.9716    -17493.28 
   22800    333.62293   -8699.3016    47.734396    -8747.036    50901.473 
   23000    272.09296   -8715.1399    38.930757   -8754.0706   -24173.818 
   23200    250.23607    -8712.879    35.803497   -8748.6825   -37228.828 
   23400    377.19197   -8700.2731    53.968206   -8754.2413    42907.131 
   23600    264.86045   -8715.3476    37.895937   -8753.2436    12226.386 
   23800    293.50284   -8708.6699    41.994059    -8750.664     3699.482 
   24000     331.5954   -8696.9546      47.4443   -8744.3989   -13087.311 
   24200    302.90003   -8703.8922    43.338598   -8747.2308   -49238.989 
   24400    297.69835   -8711.9193    42.594348   -8754.5136   -4809.6362 
   24600     344.4765   -8693.2146    49.287312   -8742.5019    1365.5966 
   24800    292.23244   -8701.3635    41.812291   -8743.1758    13705.807 
   25000    294.90324   -8711.7601    42.194426   -8753.9545   -34295.028 
   25200    269.55257   -8695.5576    38.567281   -8734.1248    10429.114 
   25400    260.31571   -8699.9597    37.245681   -8737.2054   -25101.475 
   25600     300.9319   -8706.3621       43.057   -8749.4191    23289.482 
   25800    345.88893   -8699.8736    49.489401    -8749.363   -6717.7135 
   26000    328.03031   -8706.1825     46.93421   -8753.1167    26167.701 
   26200    291.66175   -8713.7795    41.730638   -8755.5101   -19793.612 
   26400    269.92538   -8715.0045    38.620621   -8753.6251   -531.16543 
   26600    336.37245   -8700.8238    48.127794   -8748.9515   -2685.1263 
   26800    262.61258   -8710.5412    37.574315   -8748.1155    10117.917 
   27000     291.1838   -8708.8952    41.662253   -8750.5574   -20730.055 
   27200    361.46106   -8699.8844    51.717445   -8751.6018    -22097.27 
   27400    268.54421   -8706.2933    38.423006   -8744.7163    14169.484 
   27600    299.10095   -8700.8875    42.795029   -8743.6826   -21457.991 
   27800    267.80924    -8710.422    38.317847   -8748.7399   -5231.7079 
   28000    228.39529   -8714.7905    32.678543   -8747.4691   -30079.639 
   28200    324.78131   -8697.1276    46.469347    -8743.597    22955.229 
   28400    318.36606   -8708.4268     45.55146   -8753.9783    24398.736 
   28600    285.25627   -8701.6982    40.814148   -8742.5123   -2943.2301 
   28800     347.3732   -8695.7145    49.701769   -8745.4162   -22349.433 
   29000    263.20479   -8709.8089    37.659047    -8747.468   -17617.605 
   29200    233.65858   -8712.0371    33.431609   -8745.4687    7501.1006 
   29400    249.20366   -8718.5698     35.65578   -8754.2256    21001.008 
   29600    256.05106   -8704.4029    36.635499   -8741.0384    33048.355 
   29800    263.99133   -8705.5332    37.771585   -8743.3048   -5775.1054 
   30000    292.30956   -8713.2798    41.823326   -8755.1032    18659.082 
   30200     333.0632   -8697.3621    47.654311   -8745.0164    26848.614 
   30400    285.16502   -8700.8113    40.801093   -8741.6124   -38717.455 
   30600    264.27642   -8714.1553    37.812375   -8751.9677   -19452.476 
   30800    270.27529   -8721.6111    38.670687   -8760.2818   -15472.591 
   31000    326.66434   -8704.6643    46.738768    -8751.403   -39412.812 
   31200    332.17369   -8705.6243     47.52704   -8753.1513    12922.351 
   31400    277.04652   -8709.3207    39.639507   -8748.9602   -2179.3143 
   31600    374.06228    -8695.892    53.520413   -8749.4124    2445.6251 
   31800    313.52597   -8702.9727    44.858945   -8747.8317   -35874.465 
   32000    249.27732   -8714.7922     35.66632   -8750.4585    4149.0271 
   32200     275.0779   -8705.7772    39.357838   -8745.1351     22472.41 
   32400    335.90669   -8701.1172    48.061153   -8749.1783     22867.45 
   32600    255.33721   -8710.5581    36.533363   -8747.0915   -10662.485 
   32800     273.8855   -8712.7622    39.187231   -8751.9494   -17067.908 
   33000    312.17588   -8698.3536    44.665775   -8743.0194   -35141.774 
   33200    291.68156   -8702.5014    41.733472   -8744.2348   -50550.341 
   33400    302.37976    -8705.804    43.264159   -8749.0681   -26434.141 
   33600     293.5701   -8707.8669    42.003682   -8749.8706   -48952.519 
   33800    377.25359   -8694.2773    53.977022   -8748.2543    59529.429 
   34000     263.0581   -8713.5252    37.638059   -8751.1632    41021.954 
   34200     293.2558    -8708.698    41.958712   -8750.6567    7208.3948 
   34400    334.16988   -8690.8016    47.812653   -8738.6143     -54124.4 
   34600    323.26693   -8698.6172     46.25267   -8744.8699    37858.606 
   34800    300.37459    -8706.933    42.977261   -8749.9103   -1071.9257 
   35000    319.53952   -8696.5979    45.719357   -8742.3173   -10585.585 
   35200    309.52844   -8703.2401    44.286984   -8747.5271    7000.6224 
   35400    321.54612   -8706.7923     46.00646   -8752.7987    11221.473 
   35600    230.56252   -8714.8949    32.988628   -8747.8835    3631.7954 
   35800    334.34128   -8705.8768    47.837176    -8753.714   -53420.133 
   36000    313.30118   -8702.7191    44.826783   -8747.5459   -38881.757 
   36200    305.02637   -8711.1924    43.642833   -8754.8353   -5901.8488 
   36400    317.11632   -8702.1536    45.372649   -8747.5263   -27760.322 
   36600    371.50645     -8695.96    53.154728   -8749.1147   -67859.079 
   36800    274.10362   -8712.3936     39.21844    -8751.612   -24017.558 
   37000    356.09285   -8701.4855    50.949367   -8752.4349    10115.853 
   37200    351.59505   -8700.4944    50.305827   -8750.8002   -8021.4387 
   37400    308.79585   -8712.1935    44.182165   -8756.3757   -11898.293 
   37600    275.84289   -8700.2868    39.467292   -8739.7541    16919.754 
   37800     327.5228   -8679.9307    46.861596   -8726.7923    5788.8566 
   38000    316.83967   -8699.1272    45.333066   -8744.4603    35068.656 
   38200     201.3212   -8711.5575    28.804812   -8740.3623    9553.5789 
   38400    350.05335   -8700.8404    50.085242   -8750.9257      17256.3 
   38600    295.20135   -8706.8294     42.23708   -8749.0665    13483.789 
   38800    272.58891   -8709.9766    39.001717   -8748.9784   -13746.952 
   39000    291.43533   -8701.2195    41.698241   -8742.9178   -17961.409 
   39200    305.19456   -8701.9672    43.666897   -8745.6341    9592.1606 
   39400    307.43806   -8701.2547    43.987895   -8745.2426   -27944.426 
   39600    254.41316   -8717.0111     36.40115   -8753.4122    5445.7126 
   39800    257.90924   -8703.2819    36.901365   -8740.1833   -9780.0685 
   40000    335.82826   -8704.1125    48.049932   -8752.1624   -12057.816 
   40200     226.1958   -8715.5419    32.363842   -8747.9058    5011.9534 
   40400    362.09985    -8694.568    51.808841   -8746.3768   -31006.203 
   40600    327.43304    -8704.115    46.848753   -8750.9637   -24391.976 
   40800    246.71526    -8712.205    35.299743   -8747.5048   -4778.5785 
   41000    282.86338   -8715.6782    40.471777     -8756.15    47735.304 
   41200    305.51031   -8699.8781    43.712074   -8743.5902    5416.6862 
   41400    294.08248   -8704.0156    42.076992   -8746.0926      24199.7 
   41600    273.72728   -8716.4356    39.164594   -8755.6002    56266.762 
   41800          318   -8702.3193    45.499085   -8747.8184   -1464.5217 
   42000     263.5325   -8704.7686    37.705936   -8742.4745   -22076.923 
   42200    233.47322   -8718.6569    33.405088    -8752.062   -3852.1047 
   42400    296.07744   -8700.5785     42.36243    -8742.941   -35618.738 
   42600    307.33617   -8698.4245    43.973316   -8742.3979   -33563.979 
   42800    264.71459   -8715.1671    37.875067   -8753.0422    6173.2528 
   43000    332.70861   -8709.0743    47.603577   -8756.6779   -21533.265 
   43200    326.89388   -8700.7945    46.771611   -8747.5662     30568.36 
   43400    336.13803   -8700.8539    48.094253   -8748.9482    38794.368 
   43600    234.41268   -8715.2182    33.539504   -8748.7577   -25214.132 
   43800    253.01655   -8713.6662    36.201325   -8749.8675    5854.0314 
   44000    289.95877   -8700.0505    41.486976   -8741.5374    19507.218 
   44200      292.997    -8705.683    41.921684   -8747.6047    9744.1155 
   44400    278.56823   -8718.7312    39.857232   -8758.5885   -34206.628 
   44600    253.48399   -8708.2221    36.268206   -8744.4903    932.23752 
   44800    311.70044   -8703.8567     44.59775   -8748.4544    12918.101 
   45000    279.77903    -8711.049    40.030471   -8751.0794    28531.223 
   45200     263.6682   -8711.6019    37.725352   -8749.3272    26460.951 
   45400    327.43825    -8698.901    46.849499   -8745.7505    32804.131 
   45600    259.15056   -8710.7607    37.078973   -8747.8397   -71161.217 
   45800    329.07483   -8700.9248    47.083659   -8748.0085    35633.076 
   46000    334.65753    -8701.572    47.882425   -8749.4544   -9915.0458 
   46200    274.86276   -8710.6322    39.327057   -8749.9593    -32981.22 
   46400    279.97084    -8691.616    40.057915    -8731.674    19853.209 
   46600     282.9267   -8698.5635    40.480835   -8739.0444     4496.399 
   46800    271.96527   -8703.2425    38.912487    -8742.155   -14783.687 
   47000     313.0822   -8693.3756    44.795451   -8738.1711   -32221.172 
   47200    308.69762   -8702.8676     44.16811   -8747.0357    46859.564 
   47400    322.54052   -8711.1696    46.148737   -8757.3183   -4163.5803 
   47600    337.91386   -8700.6536    48.348337   -8749.0019    43435.199 
   47800    372.04293   -8698.7997    53.231487   -8752.0312   -2893.9491 
   48000    248.12916   -8708.2822    35.502043   -8743.7843    16274.961 
   48200    308.92846   -8701.5703    44.201139   -8745.7714    14116.753 
   48400    225.86163   -8708.0918    32.316029   -8740.4078   -2184.7114 
   48600      300.747   -8706.5204    43.030545   -8749.5509   -24532.613 
   48800    364.18435    -8695.946     52.10709   -8748.0531   -28210.226 
   49000    243.82556   -8714.3638    34.886289   -8749.2501    14218.635 
   49200     311.0227   -8703.3959     44.50078   -8747.8967    10378.498 
   49400    349.03981   -8696.9838    49.940225    -8746.924   -8257.2045 
   49600    310.05006   -8704.1677    44.361616   -8748.5294   -15520.432 
   49800    222.37613   -8718.8111    31.817329   -8750.6285   -11641.026 
   50000    275.13313   -8708.1649    39.365741   -8747.5307   -1790.6086 
   50200    313.18599   -8703.3383    44.810302   -8748.1486    20176.359 
   50400    247.70771   -8717.7821    35.441742   -8753.2239   -29845.543 
   50600    297.19801   -8705.0034    42.522759   -8747.5262    3376.0759 
   50800    293.35453   -8708.4748    41.972838   -8750.4476   -2975.3381 
   51000    315.46346   -8705.0025     45.13616   -8750.1387    12395.221 
   51200    364.38107   -8700.2409    52.135236   -8752.3761    619.38811 
   51400    229.09562   -8710.5908    32.778745   -8743.3696   -11400.286 
   51600    301.77169   -8698.1664    43.177155   -8741.3436   -24137.289 
   51800    262.94823   -8700.1502    37.622339   -8737.7726    12117.415 
   52000    241.98178   -8707.7468    34.622483   -8742.3692    -21870.79 
   52200    351.99485   -8697.2959     50.36303    -8747.659    16168.885 
   52400    343.09205   -8693.5363    49.089226   -8742.6255    21923.148 
   52600    314.21289   -8703.7997    44.957229   -8748.7569    3509.2899 
   52800    309.48649    -8705.333    44.280981    -8749.614    36490.073 
   53000    370.85369   -8684.1507    53.061331    -8737.212   -19398.999 
   53200     292.9101   -8707.5586     41.90925   -8749.4679    27276.466 
   53400    359.74161   -8701.4907    51.471427   -8752.9621   -42343.465 
   53600     286.8032   -8704.6884    41.035481   -8745.7239   -14877.796 
   53800    283.15538   -8715.8987    40.513555   -8756.4122    4919.8999 
   54000     277.3356    -8700.269    39.680867   -8739.9499    18933.762 
   54200    314.48655   -8705.1217    44.996385   -8750.1181    8597.8384 
   54400    267.64143    -8713.544    38.293837   -8751.8379    54375.305 
   54600    280.03161   -8707.9167    40.066609   -8747.9833    -37271.47 
   54800    348.00992    -8701.567     49.79287   -8751.3598   -23175.094 
   55000    268.60396   -8713.7082    38.431555   -8752.1398    6634.4682 
   55200    344.26229   -8704.9705    49.256663   -8754.2272   -15071.645 
   55400    328.89651   -8700.4275    47.058145   -8747.4856    3060.6521 
   55600       273.75   -8718.5064    39.167843   -8757.6742    9983.4261 
   55800    278.93083   -8715.2904    39.909111   -8755.1995    43614.588 
   56000     303.7111   -8703.8735    43.454645   -8747.3282   -41647.746 
   56200    357.26791   -8694.2939    51.117494   -8745.4114   -10313.244 
   56400    281.81123    -8711.513    40.321236   -8751.8342    27275.142 
   56600    329.35922   -8706.2884     47.12435   -8753.4127    -2175.475 
   56800    365.19563   -8686.8365    52.251782   -8739.0882   -26503.806 
   57000    332.53485   -8696.7798    47.578715   -8744.3585   -9400.2822 
   57200    280.23323   -8708.5742    40.095458   -8748.6696   -31922.897 
   57400    283.19871   -8703.0558    40.519754   -8743.5755    2591.1831 
   57600    361.62282   -8692.0933    51.740589   -8743.8339    20589.621 
   57800    248.45662   -8710.5951    35.548896    -8746.144   -21012.857 
   58000    285.94513   -8706.4405     40.91271   -8747.3532    11575.366 
   58200    337.19401   -8688.5851    48.245342   -8736.8305   -5731.9627 
   58400    265.15682   -8705.0575    37.938342   -8742.9959   -8273.3536 
   58600       301.33   -8710.1219     43.11396   -8753.2358    37964.864 
   58800    338.03382   -8700.5535    48.365501    -8748.919    33095.964 
   59000    348.03711   -8694.8126    49.796761   -8744.6093   -27196.632 
   59200    266.98491   -8710.2979    38.199903   -8748.4978    19119.135 
   59400    289.14884   -8702.8178    41.371093   -8744.1889    23906.991 
   59600    290.44932   -8689.6692    41.557164   -8731.2263     45436.27 
   59800    275.01597    -8712.302    39.348977    -8751.651    3015.4965 
   60000    291.94466   -8708.7335    41.771116   -8750.5046   -36389.722 
   60200    284.42324   -8704.2627    40.694959   -8744.9576   -17143.419 
   60400    219.08597   -8718.4097    31.346576   -8749.7563    29725.838 
   60600    271.09355   -8708.2859    38.787762   -8747.0737    32879.315 
   60800    325.13474   -8699.8964    46.519915   -8746.4163   -41698.076 
   61000    293.88556   -8701.1246    42.048817   -8743.1734    47223.329 
   61200    258.18088   -8711.4943    36.940232   -8748.4345   -18482.791 
   61400    267.98505   -8703.3335    38.343002   -8741.6765   -55810.376 
   61600    341.68466   -8694.1432     48.88786    -8743.031   -13752.714 
   61800    281.71525   -8703.0155    40.307504    -8743.323    26178.453 
   62000    281.50863   -8707.3797    40.277941   -8747.6576    -42990.31 
   62200    300.01636   -8711.4411    42.926006   -8754.3671   -4112.5056 
   62400    350.51715   -8697.9537    50.151603   -8748.1053   -8708.4451 
   62600    295.64973   -8710.7681    42.301233   -8753.0694   -19959.404 
   62800    358.80238   -8699.9535    51.337043   -8751.2906     35921.48 
   63000     330.5327   -8699.8905     47.29225   -8747.1828     -56285.6 
   63200    267.63843    -8711.791    38.293407   -8750.0844    14002.582 
   63400    321.85795   -8705.3192    46.051075   -8751.3703     36846.86 
   63600    307.06362   -8699.6222    43.934319   -8743.5566    27259.436 
   63800    341.09897   -8707.1024    48.804059   -8755.9065    8665.8472 
   64000    264.34547    -8713.576    37.822255   -8751.3982    56037.355 
   64200    295.25955   -8694.6944    42.245407   -8736.9398    16496.837 
   64400    324.39226   -8701.4799    46.413682   -8747.8936   -6996.5795 
   64600    294.58779   -8712.6821    42.149291   -8754.8314     38829.36 
   64800    254.24146   -8706.4963    36.376584   -8742.8729    33089.194 
   65000    370.13604   -8693.8601    52.958651   -8746.8187   -15336.868 
   65200    263.58095   -8712.6257    37.712868   -8750.3386   -5626.2973 
   65400    286.93342   -8707.5024    41.054113   -8748.5565   -12710.735 
   65600    337.09551    -8697.291    48.231249   -8745.5223    39745.282 
   65800    357.71011   -8689.8654    51.180763   -8741.0461    36948.685 
   66000    251.57701   -8707.9562    35.995357   -8743.9516   -32196.152 
   66200    287.84016   -8708.0403    41.183849   -8749.2241   -25285.845 
   66400     322.5316   -8692.4335    46.147461   -8738.5809     28126.72 
   66600     251.7279   -8706.6365    36.016946   -8742.6534    24426.882 
   66800    302.65015   -8710.2352    43.302845   -8753.5381    26343.725 
   67000    300.64239   -8703.5974    43.015578    -8746.613    -10034.12 
   67200     362.4197   -8696.3612    51.854606   -8748.2158    24491.371 
   67400    230.43976   -8712.6399    32.971063   -8745.6109   -30412.763 
   67600     254.9902    -8708.775    36.483713   -8745.2587    11900.403 
   67800    295.21368   -8701.5705    42.238843   -8743.8093   -20567.245 
   68000    279.42602   -8707.0325    39.979962   -8747.0125   -36677.562 
   68200    254.38942   -8716.0246    36.397754   -8752.4224    -11192.69 
   68400    252.05789    -8711.545    36.064161   -8747.6092    23144.622 
   68600    332.12036   -8701.2804     47.51941   -8748.7998     34598.68 
   68800    247.34186   -8710.5658    35.389398   -8745.9552    33383.057 
   69000    327.30668   -8695.4722    46.830674   -8742.3028     3640.412 
   69200    294.44636   -8702.5503    42.129056   -8744.6794   -10963.214 
   69400    261.06281   -8718.3809    37.352575   -8755.7335    6932.9255 
   69600    308.23468   -8702.0857    44.101874   -8746.1876    8293.6778 
   69800    302.98149   -8702.7887    43.350253    -8746.139    15039.485 
   70000    259.17722    -8714.592    37.082787   -8751.6748   -38446.195 
   70200    269.46226   -8715.6235    38.554359   -8754.1778   -16558.989 
   70400    364.67216   -8698.0188    52.176885   -8750.1957    26536.912 
   70600    317.64267   -8706.5405    45.447958   -8751.9884   -830.37765 
   70800    254.45238   -8721.3775    36.406762   -8757.7843     15195.67 
   71000    286.07156   -8702.8108    40.930798   -8743.7416    3370.0439 
   71200    300.65694   -8704.7492    43.017659   -8747.7669   -28412.919 
   71400    245.71262   -8715.0711    35.156287   -8750.2273   -15547.531 
   71600    297.12413   -8716.4552    42.512189   -8758.9674    -17408.24 
   71800    311.96992    -8698.931    44.636307   -8743.5673   -22501.527 
   72000    311.08247   -8711.8246    44.509332    -8756.334     12593.69 
   72200    258.73183   -8714.6059    37.019062   -8751.6249   -17709.438 
   72400     342.7717   -8696.1992    49.043392   -8745.2425   -14129.091 
   72600    281.01832   -8706.1298    40.207786   -8746.3376    529.54959 
   72800    268.86937   -8711.5272    38.469529   -8749.9968    24746.153 
   73000    280.86167   -8704.1098    40.185374   -8744.2952   -17565.273 
   73200    313.75094    -8697.462    44.891134   -8742.3532    -10454.83 
   73400    338.09994   -8693.3365    48.374961   -8741.7114    40853.752 
   73600     257.2463    -8711.753    36.806513   -8748.5595   -19964.334 
   73800    339.28729   -8701.3926    48.544846   -8749.9375    -14665.56 
   74000     288.6412   -8704.3638     41.29846   -8745.6623    8156.3436 
   74200    328.29609   -8705.5429    46.972238   -8752.5152    -27894.34 
   74400    284.95383   -8700.5702    40.770876   -8741.3411   -1410.1374 
   74600    264.33733   -8713.8748    37.821089   -8751.6959   -10985.816 
   74800    312.55793   -8707.1591     44.72044   -8751.8795   -5066.6766 
   75000    295.60162   -8706.9185     42.29435   -8749.2128   -10441.911 
   75200    397.50245   -8687.6542    56.874206   -8744.5284    1702.3307 
   75400    285.03531   -8709.7069    40.782534   -8750.4895    5269.2414 
   75600    264.22073   -8705.9423    37.804407   -8743.7467    5213.1396 
   75800     349.8627   -8697.3875    50.057965   -8747.4455   -2369.2058 
   76000    315.78389   -8706.3078    45.182007   -8751.4898    -29203.05 
   76200    378.41855    -8700.642    54.143703   -8754.7857   -1820.1146 
   76400    353.35966   -8692.2304    50.558305   -8742.7887    33513.661 
   76600    305.41023   -8704.8799    43.697754   -8748.5776   -1343.8316 
   76800    351.37573   -8702.2291    50.274447   -8752.5035    46813.046 
   77000    290.88167   -8714.5136    41.619025   -8756.1326    39473.906 
   77200    359.04502   -8694.9116    51.371761   -8746.2834    36795.273 
   77400    282.05605   -8705.0486    40.356264   -8745.4049   -15808.263 
   77600    268.24308   -8708.0909    38.379919   -8746.4708   -25776.677 
   77800     319.4176   -8693.6566    45.701914   -8739.3585   -30063.331 
   78000    285.73505   -8703.7985    40.882651   -8744.6811    2353.7675 
   78200     320.1836   -8709.9716    45.811512   -8755.7831    16409.919 
   78400    222.17904   -8704.8287    31.789129   -8736.6179     27422.79 
   78600    324.35896   -8704.6496    46.408917   -8751.0585    54213.616 
   78800    300.29872   -8703.9629    42.966406   -8746.9293    12790.898 
   79000     279.9083   -8714.5242    40.048967   -8754.5732   -37093.442 
   79200    350.20166    -8705.876    50.106462   -8755.9824    25348.192 
   79400    327.17822   -8697.5692    46.812294   -8744.3815    21910.662 
   79600    307.45499    -8714.211    43.990316   -8758.2014     -9621.38 
   79800    319.14046   -8708.1479     45.66226   -8753.8102    -15155.88 
   80000    301.04192   -8699.0218    43.072742   -8742.0945   -35862.769 
   80200    298.38501   -8710.1423    42.692593   -8752.8349   -24387.123 
   80400     223.9546   -8725.1969    32.043173   -8757.2401   -38975.407 
   80600    296.52137   -8709.8421    42.425946   -8752.2681   -7394.6716 
   80800     301.7261   -8701.1712    43.170633   -8744.3418    44263.609 
   81000    294.69848   -8698.5823    42.165129   -8740.7474    41076.324 
   81200    275.51388   -8711.9675    39.420218   -8751.3878   -10057.586 
   81400     351.6423   -8700.6331    50.312588   -8750.9457    5300.8234 
   81600    374.26696   -8685.7908    53.549698   -8739.3405   -7323.6524 
   81800    370.92556   -8699.5691    53.071615   -8752.6408    28285.104 
   82000    298.37245   -8704.9597    42.690797   -8747.6504    19233.271 
   82200     317.4058   -8698.2766    45.414067   -8743.6907     28192.13 
   82400    325.76663   -8694.8374    46.610325   -8741.4477   -8190.4618 
   82600     299.4306   -8709.0238    42.842196    -8751.866   -22142.698 
   82800    297.69297   -8700.0383    42.593577   -8742.6319   -2863.1987 
   83000    314.76433   -8690.3129    45.036128   -8735.3491   -31403.403 
   83200    278.04654   -8710.5005    39.782588   -8750.2831    19234.602 
   83400    270.97295   -8701.7907    38.770507   -8740.5612    4770.2205 
   83600    379.50094   -8695.0354    54.298571    -8749.334   -212.00751 
   83800    284.92296   -8703.3014    40.766458   -8744.0679    12976.013 
   84000    289.22952   -8711.5811    41.382636   -8752.9637   -9178.2823 
   84200    285.64634   -8706.4808     40.86996   -8747.3508    -32113.38 
   84400    273.38915   -8710.5799    39.116214   -8749.6961   -13328.839 
   84600    295.81308   -8718.5968    42.324605   -8760.9215   -7313.7491 
   84800    288.55458   -8701.4147    41.286067   -8742.7007   -12517.949 
   85000    303.40547   -8708.8826    43.410916   -8752.2935   -22837.936 
   85200    254.64693   -8715.1982    36.434598   -8751.6328   -2821.7939 
   85400    309.52109    -8703.873    44.285931   -8748.1589    17257.764 
   85600    280.59024   -8708.0442    40.146538   -8748.1907   -40831.791 
   85800    296.34864   -8716.5438    42.401232    -8758.945    14915.626 
   86000    293.93567   -8699.6349    42.055987   -8741.6909   -24461.771 
   86200      400.866   -8697.5511    57.355459   -8754.9065    36820.405 
   86400    253.80785    -8717.282    36.314544   -8753.5965    4473.1469 
   86600    343.14357   -8702.3318    49.096599   -8751.4284    25806.519 
   86800    355.13021   -8701.5205    50.811634   -8752.3322   -39146.856 
   87000    272.43755   -8708.9334     38.98006   -8747.9135    -31577.92 
   87200    254.54763   -8717.9047     36.42039   -8754.3251    25024.988 
   87400    322.74853   -8698.5138    46.178499   -8744.6923    40493.848 
   87600    248.93128   -8710.8551     35.61681   -8746.4719    2218.8214 
   87800    340.20483   -8695.2709    48.676127    -8743.947   -7304.2095 
   88000     284.3841   -8704.6445    40.689359   -8745.3339   -15477.762 
   88200    308.87175   -8709.0632    44.193025   -8753.2563   -32349.313 
   88400    324.06211   -8692.6545    46.366444    -8739.021   -5065.6297 
   88600    261.70059   -8711.0183    37.443828   -8748.4621   -61818.838 
   88800     233.6981   -8713.3234    33.437264   -8746.7607     1469.082 
   89000    327.40155   -8695.0487    46.844248    -8741.893   -8517.8567 
   89200    219.12996    -8713.731     31.35287   -8745.0839    8944.9309 
   89400    283.71897   -8708.7979    40.594193   -8749.3921   -17940.705 
   89600    329.13027   -8700.2834    47.091591    -8747.375    4177.0582 
   89800    428.03813   -8686.7037    61.243217    -8747.947    22582.538 
   90000     310.0413   -8704.7241    44.360362   -8749.0845   -36798.709 
   90200    307.02719   -8700.0959    43.929107    -8744.025    66010.463 
   90400    341.54645   -8694.7649    48.868084    -8743.633    29346.473 
   90600    299.58906   -8711.3923    42.864868   -8754.2572   -36705.259 
   90800      358.112   -8696.6222    51.238264   -8747.8605   -16757.897 
   91000    347.56753   -8694.0695    49.729573   -8743.7991    -19147.51 
   91200    368.54182   -8701.7794    52.730552     -8754.51   -25901.502 
   91400    329.38262   -8705.5359    47.127697   -8752.6636   -33117.281 
   91600    333.03716   -8707.7013    47.650585   -8755.3519    21872.685 
   91800    354.29934   -8695.2448    50.692753   -8745.9375    31567.324 
   92000    278.58754   -8708.1738    39.859993   -8748.0338    11038.708 
   92200    266.15081   -8715.0624     38.08056    -8753.143    48324.091 
   92400      277.231   -8704.7046    39.665902   -8744.3705   -10357.773 
   92600    351.65924   -8701.8517    50.315011   -8752.1667   -20149.543 
   92800    254.11027   -8717.9296    36.357814   -8754.2874   -15890.376 
   93000    278.30288   -8708.8057    39.819266    -8748.625   -14685.067 
   93200       321.39   -8702.4588    45.984123   -8748.4429    37977.727 
   93400    270.39911   -8706.9912    38.688403   -8745.6796   -18723.079 
   93600    264.05082   -8716.9707    37.780097   -8754.7508   -15029.832 
   93800    321.01444    -8698.188    45.930388   -8744.1184    9434.1116 
   94000    277.00075   -8706.5413    39.632957   -8746.1743    38383.761 
   94200    298.03212   -8711.8354    42.642103   -8754.4775    20534.379 
   94400    325.16834    -8695.057    46.524723   -8741.5817   -5235.8803 
   94600    247.89709   -8707.0692    35.468838    -8742.538   -33147.665 
   94800    228.25268   -8713.1024    32.658139   -8745.7605   -50180.821 
   95000    312.28798   -8699.8814    44.681815   -8744.5632     13655.04 
   95200    310.97782   -8694.9759    44.494358   -8739.4702   -39024.444 
   95400    271.73407   -8711.7609    38.879408   -8750.6403   -7506.4922 
   95600    275.73071   -8707.1739    39.451242   -8746.6251   -3144.7478 
   95800    353.80109   -8699.9915    50.621464   -8750.6129    4145.8363 
   96000    309.74503    -8707.808    44.317973    -8752.126   -31078.856 
   96200     263.5926   -8722.6534    37.714535   -8760.3679   -7735.3687 
   96400    304.06189   -8708.5669    43.504836   -8752.0717   -2935.0683 
   96600    308.99742   -8704.3494    44.211006   -8748.5604    36011.394 
   96800    352.86839   -8688.8509    50.488015   -8739.3389    457.51288 
   97000    284.02425   -8704.4546    40.637872   -8745.0925   -30710.809 
   97200    301.79268   -8703.0945     43.18016   -8746.2747   -32326.236 
   97400    347.41837   -8698.7744    49.708233   -8748.4827   -46069.499 
   97600    266.98839   -8708.9943      38.2004   -8747.1947   -18853.895 
   97800    295.81471   -8701.1511    42.324838    -8743.476    4200.4376 
   98000    238.11929   -8716.9868    34.069842   -8751.0566   -14364.623 
   98200    313.92524   -8706.9005    44.916073   -8751.8166   -21726.092 
   98400    308.03823   -8702.5077    44.073766   -8746.5815    45405.274 
   98600    329.56904   -8689.0758     47.15437   -8736.2302   -11382.341 
   98800     312.2431   -8703.8587    44.675394   -8748.5341   -24086.097 
   99000    269.57661   -8710.5569    38.570721   -8749.1276    58869.539 
   99200    305.38931   -8690.8504     43.69476   -8734.5452    24920.203 
   99400    302.45261   -8697.9943    43.274581   -8741.2689    45442.304 
   99600    262.79447   -8705.1103    37.600339   -8742.7107    33492.938 
   99800     253.3911   -8718.2496    36.254916   -8754.5046    40601.736 
  100000    367.36814   -8702.6471    52.562623   -8755.2097   -35005.683 
  100200    360.33015   -8705.1399    51.555635   -8756.6955    -12901.49 
  100400    274.94229   -8712.8729    39.338436   -8752.2113   -13029.993 
  100600    328.84435   -8699.1085    47.050682   -8746.1592    41578.265 
  100800    277.35164   -8705.7626    39.683162   -8745.4458    -17551.89 
  101000    287.01629   -8712.7582     41.06597   -8753.8241   -4038.9872 
  101200    274.83686   -8704.5081     39.32335   -8743.8315    36829.295 
  101400     415.9281   -8682.5529    59.510528   -8742.0634   -30510.018 
  101600    331.21327   -8696.4999    47.389624   -8743.8895    -30537.71 
  101800    265.42472   -8708.0177    37.976673   -8745.9943    38626.102 
  102000    316.16539    -8702.423    45.236591   -8747.6596   -14646.689 
  102200    334.96027   -8694.2514    47.925741   -8742.1771   -59205.854 
  102400    296.17819   -8709.2771    42.376844   -8751.6539    23106.768 
  102600      287.303   -8706.3237    41.106992   -8747.4307    40512.689 
  102800    353.25541   -8689.5534    50.543389   -8740.0968    9088.8666 
  103000    301.03052   -8705.7224    43.071111   -8748.7935    1139.1987 
  103200    271.34921   -8709.4293    38.824342   -8748.2536    12615.525 
  103400    358.47378   -8691.8285    51.290027   -8743.1185   -30639.181 
  103600    303.98575    -8701.158    43.493941    -8744.652    1861.8082 
  103800     297.8708   -8707.8145    42.619021   -8750.4335   -42823.064 
  104000    257.37643    -8712.564    36.825132   -8749.3891   -2940.5858 
  104200    309.33446    -8701.403    44.259229   -8745.6622    28444.943 
  104400    278.38767   -8701.4612    39.831397   -8741.2926   -38907.153 
  104600    276.92448   -8716.9569    39.622045    -8756.579   -14048.892 
  104800    229.00326   -8708.3824    32.765531    -8741.148   -41116.426 
  105000    298.46518   -8700.9292    42.704065   -8743.6333   -14987.391 
  105200    281.24949   -8704.1993    40.240863   -8744.4401   -16805.312 
  105400    223.40417   -8722.4949    31.964418   -8754.4594   -16522.102 
  105600    265.59686   -8711.0598    38.001302   -8749.0611    30068.714 
  105800    305.08382   -8700.5321    43.651053   -8744.1832   -9280.4515 
  106000    323.23931   -8703.6297     46.24872   -8749.8784     6180.485 
  106200    261.61286   -8710.9124    37.431275   -8748.3436   -17979.124 
  106400     346.4611   -8695.1876    49.571267   -8744.7589    2044.0734 
  106600    315.83723   -8702.3145    45.189637   -8747.5041    16207.482 
  106800    250.86845   -8716.6417    35.893977   -8752.5357   -12667.113 
  107000    313.82864   -8704.5996    44.902251   -8749.5019   -6901.3267 
  107200    322.98749   -8700.1673     46.21269   -8746.3799    5738.3717 
  107400    254.47928   -8714.5403    36.410611   -8750.9509   -426.52091 
  107600    297.48765   -8699.0289    42.564201   -8741.5931    1672.5423 
  107800    338.24727   -8692.9404    48.396042   -8741.3365    23384.208 
  108000    334.34791   -8709.2049    47.838126   -8757.0431    2910.3044 
  108200    326.18593   -8704.9918    46.670318   -8751.6621    -667.8626 
  108400     303.9192   -8702.8028    43.484419   -8746.2872    -6814.362 
  108600    285.27028   -8707.6834    40.816153   -8748.4996    -26747.38 
  108800    337.19109    -8698.504    48.244924   -8746.7489    27933.235 
  109000    326.17118   -8692.6637    46.668208   -8739.3319    37863.867 
  109200    294.46223   -8706.9087    42.131327     -8749.04    25353.507 
  109400    293.11079   -8702.1738    41.937964   -8744.1118   -34746.782 
  109600    332.01731   -8693.3371    47.504666   -8740.8417   -32097.087 
  109800    275.63283   -8707.4176    39.437238   -8746.8549    20897.344 
  110000    333.96506   -8697.9489    47.783347   -8745.7323    -2220.082 
  110200    290.99198   -8713.0467    41.634808   -8754.6815    22108.457 
  110400    287.68232   -8711.9267    41.161265   -8753.0879   -20147.451 
  110600    305.63401   -8706.3107    43.729773   -8750.0404     51307.26 
  110800     332.3168    -8704.852    47.547516   -8752.3995    28519.072 
  111000    231.16073   -8719.6742    33.074219   -8752.7484   -3046.3913 
  111200    306.53846   -8705.3049     43.85918   -8749.1641    42851.214 
  111400    311.07237   -8704.3348    44.507887   -8748.8426   -25852.212 
  111600    268.15459   -8712.6029    38.367259   -8750.9701    5395.3256 
  111800    364.27631   -8706.8096    52.120248   -8758.9298   -21969.974 
  112000    231.77012   -8715.0054     33.16141   -8748.1668   -3351.4739 
  112200    290.69616   -8696.5936    41.592481   -8738.1861    7174.0521 
  112400    312.48126   -8700.9266    44.709469   -8745.6361   -28821.912 
  112600     298.4479   -8710.4476    42.701592   -8753.1492    15131.947 
  112800     314.0777   -8706.8267    44.937887   -8751.7646     6916.781 
  113000      305.369   -8704.6358    43.691856   -8748.3277   -8340.3813 
  113200    361.52714   -8693.7571    51.726899    -8745.484   -19498.559 
  113400    226.65879   -8712.7292    32.430087   -8745.1592    7178.6751 
  113600    344.27163   -8697.9257       49.258   -8747.1837    20655.594 
  113800    303.82156   -8704.5631    43.470449   -8748.0335   -6404.7112 
  114000    291.30596   -8708.8666    41.679731   -8750.5464    7337.3491 
  114200    304.47859   -8705.7319    43.564456   -8749.2963    10511.119 
  114400    273.30138   -8705.5757    39.103657   -8744.6794   -24510.771 
  114600    300.78902   -8698.2513    43.036557   -8741.2878    41465.564 
  114800    279.86938   -8706.3738    40.043398   -8746.4172    5278.8958 
  115000    280.99704    -8707.697    40.204743   -8747.9017   -15021.358 
  115200    352.72361   -8691.3069      50.4673   -8741.7742   -2289.8652 
  115400    266.09766   -8708.3324    38.072956   -8746.4054    28.735614 
  115600    294.27596    -8700.827    42.104675   -8742.9317    13063.509 
  115800    321.93436    -8712.793    46.062009    -8758.855   -7269.0663 
  116000    303.45377    -8706.862    43.417826   -8750.2798   -57727.701 
  116200    342.49988   -8702.0935      49.0045    -8751.098    25034.772 
  116400    309.09154    -8714.661    44.224472   -8758.8854    -8015.524 
  116600    344.91905   -8696.2296    49.350632   -8745.5802   -25231.034 
  116800    308.58931   -8697.2892    44.152613   -8741.4418    25949.216 
  117000    394.25556    -8698.951    56.409645   -8755.3606    19956.427 
  117200    292.51441   -8714.0188    41.852635   -8755.8714   -40836.459 
  117400    274.31387    -8703.579    39.248522   -8742.8275    58870.841 
  117600    297.80182   -8705.5682    42.609152   -8748.1774   -57608.571 
  117800    277.50014   -8712.5995    39.704409   -8752.3039    16432.824 
  118000    264.34104   -8699.7073    37.821621   -8737.5289   -25728.073 
  118200     305.0348   -8704.3501    43.644039   -8747.9941   -34597.501 
  118400    199.65463   -8718.2996    28.566361    -8746.866   -40275.032 
  118600    335.43322   -8707.0242     47.99341   -8755.0176   -27612.942 
  118800    270.41895   -8704.7284    38.691242   -8743.4196    832.29075 
  119000    238.57938   -8717.6008    34.135671   -8751.7365   -45671.453 
  119200    272.49677   -8703.8083    38.988533   -8742.7968   -21170.557 
  119400    283.23797   -8697.1646    40.525372   -8737.6899   -968.63087 
  119600    301.15954   -8707.3782    43.089571   -8750.4677    15998.083 
  119800    265.00558   -8714.3104    37.916702   -8752.2271   -9653.6896 
  120000    305.30438    -8699.043     43.68261   -8742.7256    10005.517 
  120200    294.45702   -8707.9127    42.130581   -8750.0433    23260.535 
  120400    262.73769   -8711.3479    37.592215   -8748.9401    -15864.66 
  120600    285.22782   -8706.4054    40.810078   -8747.2155    4501.4961 
  120800    298.08772    -8705.537    42.650059   -8748.1871   -4879.1353 
  121000     288.8426   -8704.5124    41.327277   -8745.8397    7999.4674 
  121200     308.4509   -8699.4515     44.13281   -8743.5844    6743.3314 
  121400    259.63138    -8710.956    37.147768   -8748.1038    10372.997 
  121600    304.91843   -8700.7467    43.627389   -8744.3741   -32049.769 
  121800    360.71789   -8700.5084    51.611113   -8752.1195   -2623.5796 
  122000    290.40442   -8707.5103     41.55074    -8749.061   -21714.255 
  122200    330.91242   -8704.1484     47.34658    -8751.495   -33068.549 
  122400    282.34509   -8709.7045    40.397621   -8750.1022    54153.212 
  122600    307.74233   -8701.9627    44.031428   -8745.9941    33008.507 
  122800    348.59853   -8701.6497    49.877088   -8751.5267   -39583.106 
  123000    264.14563   -8722.2296    37.793661   -8760.0233   -9651.0738 
  123200    275.45884   -8714.6663    39.412344   -8754.0786   -12298.929 
  123400    322.84224   -8703.7027    46.191907   -8749.8946   -14710.439 
  123600    251.11824   -8705.6435    35.929718   -8741.5732   -18854.202 
  123800    239.35712   -8716.5451    34.246949   -8750.7921    37208.476 
  124000    260.91111    -8714.034     37.33087   -8751.3649   -13256.592 
  124200    326.03964   -8701.8834    46.649387   -8748.5328    21815.623 
  124400    324.91873   -8705.5827    46.489009   -8752.0717    32926.453 
  124600    233.85279   -8714.8791    33.459397   -8748.3385   -8501.0288 
  124800    263.38929   -8701.8066    37.685445   -8739.4921   -25487.834 
  125000    251.31706   -8704.8151    35.958163   -8740.7733   -29555.398 
  125200    334.99757    -8692.094    47.931077   -8740.0251    21396.349 
  125400    262.81602   -8710.1479    37.603422   -8747.7513    6741.2387 
  125600    332.68761   -8698.1783    47.600572   -8745.7788     19471.57 
  125800     248.0033   -8712.9594    35.484036   -8748.4435    13979.679 
  126000    317.23418   -8709.0901    45.389512   -8754.4796   -35065.831 
  126200    354.55287   -8700.8197    50.729028   -8751.5487   -19263.515 
  126400    312.30667   -8708.3784    44.684489   -8753.0629   -4345.6912 
  126600    293.96896   -8708.3872     42.06075    -8750.448    7475.0131 
  126800    344.89802   -8696.8459    49.347624   -8746.1935   -31627.094 
  127000    276.61778   -8707.3094    39.578163   -8746.8876   -16456.969 
  127200    324.71654   -8704.9018     46.46008   -8751.3619    24403.852 
  127400     329.2702   -8701.2627    47.111613   -8748.3743    6291.6305 
  127600    315.79653   -8701.2613    45.183814   -8746.4452   -1441.6796 
  127800    276.25429   -8713.5083    39.526154   -8753.0345   -8817.3743 
  128000    294.48358   -8704.0455    42.134381   -8746.1799    41240.209 
  128200    317.68857   -8700.0498    45.454525   -8745.5043   -27224.595 
  128400    274.74413   -8710.6337    39.310083   -8749.9438    17246.392 
  128600    287.32192   -8710.9222    41.109699   -8752.0319   -26672.606 
  128800     283.1615   -8702.8436     40.51443    -8743.358   -1019.3707 
  129000    272.61605   -8706.4607      39.0056   -8745.4663   -27368.748 
  129200    338.09913   -8704.4433    48.374846   -8752.8181   -34491.881 
  129400    300.97553   -8707.8608    43.063243    -8750.924   -32.034313 
  129600     283.5298   -8717.2268    40.567127   -8757.7939    16018.015 
  129800     360.5022   -8698.0258    51.580252   -8749.6061    21671.763 
  130000     318.5968   -8705.4164    45.584474   -8751.0009    29582.016 
  130200    262.44126   -8721.5797    37.549802   -8759.1295    2045.7233 
  130400     315.1654   -8707.6648    45.093513   -8752.7583    34760.866 
  130600    300.65567   -8702.2009    43.017477   -8745.2184   -4331.0859 
  130800    273.56176   -8709.2284     39.14091   -8748.3693    21404.981 
  131000    260.64148    -8714.604    37.292292   -8751.8963    15798.055 
  131200      297.598   -8698.3494    42.579989   -8740.9294    33013.881 
  131400    329.65413   -8700.1045    47.166544    -8747.271    15041.598 
  131600    267.24756   -8716.2708    38.237482   -8754.5083   -17175.536 
  131800    269.46811   -8706.4901    38.555196   -8745.0453   -27932.392 
  132000    269.36961   -8700.9847    38.541103   -8739.5258    37086.266 
  132200    256.38816   -8712.3012    36.683731    -8748.985    -26564.24 
  132400    301.01674   -8712.9099    43.069139    -8755.979   -4750.7858 
  132600    344.01372   -8703.0407    49.221098   -8752.2618    -16874.02 
  132800    308.25374   -8706.6491    44.104601   -8750.7537    46341.633 
  133000      286.603   -8715.4068    41.006836   -8756.4137   -7548.0473 
  133200    337.58151   -8700.6911    48.300785   -8748.9919    947.51559 
  133400    326.80484   -8708.5476    46.758871   -8755.3065    19044.232 
  133600    297.88541   -8713.3271    42.621111   -8755.9482   -15242.726 
  133800    320.53938   -8698.8438    45.862416   -8744.7062   -27810.505 
  134000    377.16527   -8682.7966    53.964386    -8736.761     30830.37 
  134200     295.2347     -8705.22    42.241851   -8747.4619    1175.0754 
  134400    277.82247   -8708.9357    39.750528   -8748.6863    39232.331 
  134600     325.2991   -8695.5856    46.543432    -8742.129   -74451.075 
  134800    262.93828   -8700.2741    37.620915    -8737.895   -4624.5313 
  135000     301.4673   -8709.5355    43.133604   -8752.6691    103.73137 
  135200    286.00056   -8708.4927     40.92064   -8749.4133    18537.605 
  135400    369.09228   -8691.9593    52.809311   -8744.7686   -36342.999 
  135600    320.07823   -8701.5911    45.796436   -8747.3875   -8462.3708 
  135800     258.7228   -8710.4833    37.017769   -8747.5011    9280.3486 
  136000     318.4537   -8696.7458    45.563999   -8742.3098     14153.21 
  136200     316.4222   -8693.9233    45.273335   -8739.1967   -23995.867 
  136400    324.66566   -8705.3531      46.4528   -8751.8059    -4222.794 
  136600     246.0193   -8717.1071    35.200167   -8752.3072   -21686.137 
  136800    221.32898   -8716.1826    31.667503   -8747.8501   -20946.679 
  137000    340.95583   -8699.6061    48.783579   -8748.3897    8467.2637 
  137200    263.55827   -8709.4144    37.709623    -8747.124   -18356.689 
  137400    287.82026   -8708.2352    41.181002   -8749.4162    39217.272 
  137600    303.40804   -8703.8521    43.411283   -8747.2634    6118.6507 
  137800    238.87816   -8710.5586     34.17842    -8744.737    8690.0406 
  138000    332.93104   -8692.9763    47.635401   -8740.6117    3859.9211 
  138200    283.49056   -8704.9666    40.561512   -8745.5281   -38002.648 
  138400    313.34693   -8706.6771    44.833329   -8751.5104     48038.79 
  138600    255.60281   -8704.2479    36.571365   -8740.8193    30175.709 
  138800    369.53037   -8691.0579    52.871992   -8743.9299    10694.998 
  139000    293.20969   -8704.5568    41.952115   -8746.5089    8455.4924 
  139200    297.64098   -8708.1124    42.586139   -8750.6985   -11359.335 
  139400    235.79497   -8709.3473     33.73728   -8743.0846    -9101.151 
  139600     345.9399   -8697.3577    49.496694   -8746.8544     10508.03 
  139800    289.25293   -8714.4816    41.385986   -8755.8676   -11660.141 
  140000    280.81817   -8709.3445    40.179151   -8749.5237    24031.778 
  140200    261.16094   -8706.0724    37.366615    -8743.439   -15796.462 
  140400    316.68877   -8699.1058    45.311475   -8744.4172   -36549.506 
  140600    274.02899   -8709.9654    39.207762   -8749.1732   -30321.427 
  140800    311.15422   -8704.6938    44.519598   -8749.2134    -20297.61 
  141000    314.52097   -8694.1079    45.001309   -8739.1092    17604.775 
  141200    278.11766   -8714.1119    39.792763   -8753.9047    -703.6665 
  141400    292.52893   -8707.1049    41.854713   -8748.9597   -7257.4102 
  141600     374.4205   -8696.7217    53.571666   -8750.2934    14880.099 
  141800    317.83836   -8709.2788    45.475957   -8754.7548    14513.028 
  142000    296.40987   -8700.1198    42.409993   -8742.5298    12902.172 
  142200    323.31004    -8694.641    46.258839   -8740.8998    4432.9781 
  142400    355.16736   -8708.1415    50.816948   -8758.9585    9349.4291 
  142600    310.23338   -8707.9643    44.387846   -8752.3522    -25656.24 
  142800    286.31511   -8703.2029    40.965646   -8744.1686   -31914.284 
  143000    296.76608   -8705.3519    42.460959   -8747.8129   -22057.329 
  143200    318.48091   -8703.2635    45.567892   -8748.8313    25297.878 
  143400    300.70311   -8696.1108    43.024265    -8739.135     5868.284 
  143600    267.60308   -8712.8051    38.288349   -8751.0934   -52927.853 
  143800    295.68251   -8706.3037    42.305922   -8748.6096    16699.072 
  144000    317.44941   -8702.7293    45.420306   -8748.1496   -8865.8561 
  144200    270.66703   -8711.2487    38.726737   -8749.9754   -8973.4877 
  144400    273.66802   -8711.7237    39.156115   -8750.8798     6460.165 
  144600    298.10274   -8701.0463    42.652207   -8743.6985    17098.833 
  144800    251.72314   -8715.9983    36.016266   -8752.0146    48248.116 
  145000    289.97745   -8713.2815     41.48965   -8754.7712   -32267.657 
  145200    330.77064    -8705.753    47.326294   -8753.0793   -16477.173 
  145400    295.59803   -8701.8077    42.293835   -8744.1015    28938.297 
  145600    323.88654   -8705.0971    46.341324   -8751.4384     -13311.6 
  145800    274.78084   -8715.0577    39.315336   -8754.3731    36634.045 
  146000    326.72359   -8700.3592    46.747245   -8747.1064    -13903.35 
  146200     312.5843   -8699.7423    44.724212   -8744.4666   -31988.409 
  146400    275.30577    -8715.491    39.390442   -8754.8814    18579.366 
  146600    234.44796   -8709.5537    33.544551   -8743.0982   -10115.163 
  146800    335.41912   -8695.3473    47.991393   -8743.3387   -15696.485 
  147000    299.12457   -8708.5547    42.798409   -8751.3531    7223.9951 
  147200    281.47658   -8711.1106    40.273354    -8751.384    13152.603 
  147400    341.62848   -8688.6005    48.879821   -8737.4804   -49107.363 
  147600    323.82744   -8702.4658    46.332868   -8748.7987    17211.393 
  147800    271.40592   -8713.6491    38.832455   -8752.4816    41792.436 
  148000    334.08234   -8695.9597    47.800128   -8743.7598   -28277.103 
  148200    280.21235    -8703.763     40.09247   -8743.8555    26007.984 
  148400    329.93485   -8706.3846     47.20671   -8753.5913   -8584.7708 
  148600    262.06233   -8714.7413    37.495585   -8752.2369    26480.057 
  148800    294.81218   -8704.7273    42.181397   -8746.9087    35392.607 
  149000    298.97048   -8698.9024    42.776362   -8741.6788   -27026.679 
  149200    254.58324   -8715.6451    36.425485   -8752.0705   -10847.665 
  149400    269.56023   -8714.2221    38.568376   -8752.7905    10530.002 
  149600    282.21262   -8702.1081    40.378667   -8742.4868    14050.146 
  149800    288.25361    -8700.216    41.243005    -8741.459   -18084.091 
  150000    248.90604   -8719.1854    35.613199   -8754.7986   -37620.187 
  150200    264.38941   -8706.9845    37.828541    -8744.813    6543.4287 
  150400    285.95025   -8695.9235    40.913442    -8736.837   -24419.232 
  150600    291.55502   -8712.7684    41.715367   -8754.4837     29982.96 
  150800    293.99018   -8705.1039    42.063786   -8747.1677   -6334.5274 
  151000    278.66113   -8702.2941    39.870523   -8742.1646    27497.464 
  151200    287.76713   -8705.0057    41.173399   -8746.1791    -9491.234 
  151400    412.57453   -8689.3643    59.030703    -8748.395   -3618.1072 
  151600    286.60331   -8707.3541    41.006881    -8748.361    5854.4523 
  151800    298.75772    -8704.599     42.74592    -8747.345    13712.005 
  152000    339.73543   -8704.2064    48.608966   -8752.8153    2015.8726 
  152200    275.85179   -8708.8647    39.468566   -8748.3333     669.7762 
  152400    342.27723   -8694.5556    48.972643   -8743.5282   -1882.6288 
  152600    248.09449   -8713.3443    35.497083   -8748.8414     6283.884 
  152800    345.38913   -8705.7623     49.41789   -8755.1802   -2572.9688 
  153000    330.69407   -8696.6268    47.315338   -8743.9421    41127.674 
  153200    370.21152   -8690.5377    52.969451   -8743.5071   -37339.187 
  153400    244.39168   -8710.9931    34.967288   -8745.9604    5726.7156 
  153600    290.47127   -8698.1621    41.560305   -8739.7224   -18782.067 
  153800    340.81863   -8698.5678    48.763949   -8747.3317    33708.893 
  154000    340.32756   -8706.1238    48.693686   -8754.8175   -29218.968 
  154200    279.94229   -8701.1913     40.05383   -8741.2452    3857.1056 
  154400    362.73275    -8690.591    51.899397   -8742.4904   -4005.0421 
  154600    266.84855   -8709.9343    38.180392   -8748.1146   -17866.434 
  154800    299.10125   -8698.7952    42.795073   -8741.5903   -27725.535 
  155000    284.09069   -8705.2032    40.647379   -8745.8506   -5961.1734 
  155200    289.27853   -8710.3791    41.389648   -8751.7688   -16497.093 
  155400    256.52137    -8706.168     36.70279   -8742.8708   -17849.466 
  155600     371.5786   -8683.0248     53.16505   -8736.1899    5295.0703 
  155800    327.12127   -8700.4796    46.804146   -8747.2838   -7946.9847 
  156000    262.31365   -8711.3204    37.531543    -8748.852     7775.321 
  156200    331.02989   -8698.4168    47.363387   -8745.7802    17508.562 
  156400    269.64583   -8704.2525    38.580623   -8742.8332    2102.7876 
  156600    291.21752   -8710.7452    41.667077   -8752.4123    7168.5918 
  156800    337.01924    -8698.185    48.220336   -8746.4053   -12747.753 
  157000    261.13588   -8709.6516     37.36303   -8747.0146   -37285.911 
  157200    303.36053   -8709.6011    43.404485   -8753.0056    15790.813 
  157400    301.35608   -8699.4953    43.117692    -8742.613    12218.782 
  157600    267.10078   -8705.0038     38.21648   -8743.2203    55773.731 
  157800    285.36114    -8707.737    40.829153   -8748.5661   -1873.4085 
  158000    305.15446   -8699.4039    43.661159    -8743.065   -33241.363 
  158200    319.55335    -8701.813    45.721336   -8747.5343    3792.0643 
  158400    238.42466   -8710.6431    34.113534   -8744.7566   -39366.963 
  158600    296.30231   -8702.7153    42.394604   -8745.1099    14308.031 
  158800    292.78669    -8705.556    41.891592   -8747.4476    30503.624 
  159000    223.14629    -8715.981    31.927521   -8747.9085    12863.875 
  159200    308.24065   -8710.0082    44.102728    -8754.111    21077.341 
  159400    294.91079   -8702.9506    42.195507   -8745.1461    8618.5004 
  159600    261.20623   -8709.6227    37.373096   -8746.9958   -15009.015 
  159800    292.96191   -8715.0661    41.916662   -8756.9828    922.06613 
  160000     320.7249   -8699.9446     45.88896   -8745.8335   -3761.1659 
  160200    248.08335   -8707.0147    35.495488   -8742.5102    29761.582 
  160400    258.04955   -8722.4322    36.921442   -8759.3537   -25439.126 
  160600    316.35717   -8707.7482    45.264031   -8753.0123   -3771.4214 
  160800    264.82562   -8702.4103    37.890953   -8740.3013   -1590.4306 
  161000    340.96311   -8697.4032    48.784621   -8746.1878    13479.132 
  161200    309.80016    -8704.468    44.325861   -8748.7939    17393.281 
  161400    281.35521   -8714.4595    40.255988   -8754.7155    16645.017 
  161600    309.34476   -8697.9662    44.260703   -8742.2269    15864.353 
  161800    312.56319   -8704.7941    44.721191   -8749.5153     6166.984 
  162000    309.02527   -8715.0883     44.21499   -8759.3033   -13849.167 
  162200    304.52265   -8700.4584     43.57076   -8744.0292    40052.964 
  162400     277.9968    -8695.929    39.775471   -8735.7045   -30742.673 
  162600    297.93817   -8712.2088     42.62866   -8754.8374    22511.025 
  162800    262.94003   -8706.1652    37.621165   -8743.7864    36458.215 
  163000    296.30562   -8698.4914    42.395077   -8740.8865   -2269.5524 
  163200     280.4211   -8708.6745    40.122338   -8748.7969   -23551.528 
  163400    332.98236    -8704.088    47.642744   -8751.7307   -5572.2303 
  163600    273.93484   -8707.1088     39.19429    -8746.303    10461.502 
  163800    316.85275   -8701.3754    45.334937   -8746.7104   -4537.8366 
  164000    272.97165   -8705.1711    39.056479   -8744.2276    11150.749 
  164200    250.15474   -8714.4982    35.791861   -8750.2901   -4936.7755 
  164400    348.66164   -8706.8819    49.886118    -8756.768    14251.682 
  164600    295.82737   -8699.7097     42.32665   -8742.0363   -15377.372 
  164800    293.83804   -8711.3198    42.042018   -8753.3618    22681.716 
  165000    342.79845   -8692.3294    49.047219   -8741.3766    10854.896 
  165200    268.18712   -8704.6151    38.371914    -8742.987   -10609.403 
  165400    244.57348   -8713.7312    34.993301   -8748.7245    22021.768 
  165600    248.49889   -8719.8714    35.554943   -8755.4264    -14369.34 
  165800    244.27356   -8705.8978    34.950388   -8740.8481    25666.507 
  166000    345.31504   -8702.0715     49.40729   -8751.4788    12749.137 
  166200    272.38093   -8716.3485    38.971959   -8755.3204    9629.0016 
  166400    353.10814   -8700.7596    50.522318    -8751.282   -21557.978 
  166600    280.34774   -8705.9553    40.111842   -8746.0671   -21644.542 
  166800    349.78286   -8694.4017    50.046541   -8744.4482    1353.4023 
  167000    296.52792   -8701.9354    42.426883   -8744.3623    16552.697 
  167200    282.94138   -8708.7036    40.482936   -8749.1866    5099.0485 
  167400    339.87652    -8695.765    48.629153   -8744.3941   -228.79934 
  167600    276.37395   -8713.5502    39.543276   -8753.0935   -7619.7489 
  167800    343.82923   -8706.7566    49.194703   -8755.9513    12942.843 
  168000    304.57501   -8701.2854    43.578253   -8744.8636    2023.6546 
  168200    358.23616   -8687.2743    51.256029   -8738.5303   -12560.384 
  168400    357.11418   -8704.1608    51.095498   -8755.2563   -3756.5845 
  168600    298.13107   -8713.5001    42.656261   -8756.1563    6563.7679 
  168800    350.73368   -8695.1443    50.182582   -8745.3269    10576.828 
  169000    271.74732   -8708.8146    38.881303   -8747.6959    2662.5081 
  169200     313.9483   -8711.3706    44.919372     -8756.29    21228.919 
  169400    333.64642   -8696.0608    47.737756   -8743.7985    -7712.673 
  169600     294.3161    -8707.153    42.110418   -8749.2635    71911.363 
  169800    247.21243   -8720.2894    35.370878   -8755.6603     -47303.9 
  170000    301.14958   -8716.1203    43.088146   -8759.2085   -17886.249 
  170200     268.8429   -8701.8064    38.465741   -8740.2721    13189.065 
  170400    347.33282   -8696.5757    49.695992   -8746.2717    2289.6282 
  170600    274.55838   -8707.7879    39.283505   -8747.0714   -47978.011 
  170800     286.4299   -8706.3914    40.982071   -8747.3734    15729.824 
  171000    307.86368   -8693.4345    44.048791   -8737.4833   -19106.004 
  171200    321.11893   -8705.2813    45.945337   -8751.2267     13425.71 
  171400    314.22818   -8704.9728    44.959417   -8749.9323    -31076.02 
  171600    267.63904   -8705.0525    38.293495    -8743.346    36364.749 
  171800    254.33374   -8716.3585    36.389787   -8752.7483   -19228.784 
  172000    257.17183   -8701.2627    36.795858   -8738.0586    5343.6354 
  172200    332.35546   -8700.7038    47.553047   -8748.2568    10922.225 
  172400     316.0256   -8708.6097     45.21659   -8753.8263     22656.33 
  172600    319.24583   -8706.3043    45.677336   -8751.9816    3557.7181 
  172800    360.53387   -8701.0982    51.584783   -8752.6829   -42331.543 
  173000    331.54136   -8695.5925    47.436568   -8743.0291   -11847.845 
  173200    249.93469   -8708.8862    35.760375   -8744.6466    -2294.371 
  173400     328.5662   -8700.6024    47.010885   -8747.6133    19294.011 
  173600    227.47847    -8715.846    32.547365   -8748.3934   -14538.783 
  173800    330.88832    -8700.332    47.343131   -8747.6752     10119.15 
  174000    284.95486   -8705.5061    40.771023   -8746.2771    34417.626 
  174200    234.48503   -8713.6231    33.549856    -8747.173    11363.064 
  174400     321.4188   -8706.8472    45.988242   -8752.8355   -11601.351 
  174600    294.14704   -8698.0794     42.08623   -8740.1656    54811.232 
  174800    352.68096   -8691.8771    50.461197   -8742.3383   -31614.216 
  175000    313.77447   -8709.6716    44.894501   -8754.5661   -25191.534 
  175200    306.88125   -8701.3205    43.908226   -8745.2287   -8919.0694 
  175400    338.76607   -8698.0912    48.470271   -8746.5615    2934.0654 
  175600    264.87425    -8710.312    37.897911   -8748.2099   -23713.981 
  175800    411.85009   -8698.3832     58.92705   -8757.3103   -40543.675 
  176000    273.06723   -8714.5119    39.070154    -8753.582    6974.1227 
  176200    284.15937   -8708.7088    40.657206    -8749.366    32457.023 
  176400    310.25226   -8706.6225    44.390547   -8751.0131   -12348.734 
  176600    343.28827   -8700.9321    49.117302   -8750.0494   -2258.4251 
  176800    372.85968   -8691.8101    53.348347   -8745.1585   -466.75135 
  177000    295.46794    -8706.411    42.275223   -8748.6862   -22598.242 
  177200    317.00611   -8708.9782     45.35688   -8754.3351   -2419.0193 
  177400    231.37194   -8720.5459    33.104439   -8753.6503   -14921.431 
  177600    282.73012   -8705.7101     40.45271   -8746.1628   -44825.204 
  177800    267.37029   -8705.6462    38.255043   -8743.9012    34001.655 
  178000    262.17735   -8716.3974    37.512042   -8753.9094   -27380.785 
  178200    349.93547   -8698.0551    50.068375   -8748.1235   -4030.4521 
  178400    289.09481   -8709.5458    41.363362   -8750.9092   -21521.138 
  178600    338.41078   -8691.5623    48.419437   -8739.9817   -9718.1299 
  178800    331.77486   -8702.3421    47.469977   -8749.8121    10305.896 
  179000    300.02952   -8707.4943    42.927888   -8750.4222    -6266.573 
  179200    346.43224   -8693.5581    49.567138   -8743.1252    31610.295 
  179400    329.07525   -8701.3432    47.083718    -8748.427    2350.0076 
  179600    280.91621   -8708.3466    40.193178   -8748.5398    18193.097 
  179800    260.52315   -8712.1658    37.275361   -8749.4412    31995.933 
  180000     279.2008   -8706.3708    39.947738   -8746.3186    10847.825 
  180200     311.3598   -8702.3729    44.549013   -8746.9219    42058.878 
  180400    291.64236   -8710.9908    41.727863   -8752.7187    40164.799 
  180600    299.24712   -8704.1995    42.815943   -8747.0154    73690.838 
  180800    299.65191   -8709.0821     42.87386   -8751.9559   -22062.349 
  181000    267.83345   -8715.6413     38.32131   -8753.9626    5738.1777 
  181200    353.23678   -8699.1585    50.540723   -8749.6993   -5541.8466 
[...]
  950000    282.60896   -8702.9396    40.435374   -8743.3749    44663.115 
  950200    327.88295   -8694.3487    46.913126   -8741.2618    21368.009 
  950400    256.20283   -8713.7637    36.657215   -8750.4209    31588.737 
  950600    301.57552    -8700.257    43.149088   -8743.4061   -32328.771 
  950800    260.65418   -8705.8479    37.294109    -8743.142    24472.876 
  951000    258.97014   -8715.8838    37.053159   -8752.9369   -26042.838 
  951200    305.90536   -8708.1684    43.768597    -8751.937    -17243.72 
  951400    342.73729   -8697.3014    49.038468   -8746.3398    43474.131 
  951600    300.78554   -8709.6057    43.036059   -8752.6418   -15481.057 
  951800    255.14698   -8717.2279    36.506145    -8753.734    1388.3908 
  952000    274.22813   -8706.8185    39.236254   -8746.0547   -939.43337 
  952200    320.07607   -8694.6608    45.796126   -8740.4569    26913.262 
  952400    286.27156   -8712.0411    40.959415   -8753.0005    10866.986 
  952600    286.64319    -8715.659    41.012587   -8756.6716   -26191.351 
  952800    320.11642   -8702.6187    45.801899   -8748.4206   -19110.854 
  953000    368.64818   -8690.2286    52.745769   -8742.9744    21911.701 
  953200    375.05386   -8703.3164    53.662287   -8756.9787   -29761.305 
  953400    298.14884   -8709.6476    42.658802   -8752.3064   -15515.953 
  953600     338.1189   -8698.6077    48.377674   -8746.9853    22310.765 
  953800    350.36987   -8688.2373     50.13053   -8738.3678   -31084.645 
  954000    265.34028   -8709.2698    37.964591   -8747.2344    35029.301 
  954200    321.18414   -8705.8522    45.954667   -8751.8069   -23980.436 
  954400    322.25728   -8691.9281    46.108212   -8738.0363    31773.586 
  954600    272.78926    -8712.602    39.030382   -8751.6323   -8269.8989 
  954800      287.796   -8707.3107     41.17753   -8748.4883   -18048.247 
  955000    310.14266   -8697.0635    44.374866   -8741.4384    8661.3074 
  955200    331.86662   -8697.8137    47.483105   -8745.2968   -30485.138 
  955400    255.10458   -8713.0385    36.500078   -8749.5386   -18732.267 
  955600    332.60561   -8698.2922     47.58884    -8745.881    64416.792 
  955800    335.25985   -8694.8813    47.968605   -8742.8499    35948.235 
  956000    338.33209    -8706.292    48.408178   -8754.7002    12145.532 
  956200    294.42191   -8712.5533    42.125558   -8754.6789    2543.6063 
  956400    332.04954   -8691.8258    47.509277   -8739.3351    -2353.913 
  956600    321.95217   -8706.8641    46.064556   -8752.9287   -6055.7186 
  956800    346.76635    -8707.089    49.614942    -8756.704   -4147.0987 
  957000    346.37543    -8687.457    49.559009    -8737.016    15375.989 
  957200    307.86805   -8703.5939    44.049416   -8747.6433    -37920.09 
  957400    311.05315   -8705.8338    44.505137   -8750.3389    11487.333 
  957600    283.82995    -8704.686    40.610072   -8745.2961   -50840.111 
  957800    286.87824   -8696.8003    41.046217   -8737.8466    226.78621 
  958000    268.27128   -8709.6577    38.383956   -8748.0417    21371.475 
  958200    301.76955   -8710.2976     43.17685   -8753.4745   -7730.5299 
  958400    327.67464    -8698.917    46.883321   -8745.8003   -47188.183 
  958600     265.5215   -8710.1098     37.99052   -8748.1003   -23749.169 
  958800    253.07774    -8715.416     36.21008   -8751.6261    -26846.32 
  959000    316.27858   -8696.0742    45.252785    -8741.327    31975.206 
  959200    254.06694   -8709.9559    36.351614   -8746.3075    177.02809 
  959400    272.39918   -8712.9515    38.974571   -8751.9261    20103.385 
  959600    334.13333   -8695.0394    47.807423   -8742.8468    26718.924 
  959800    270.95025   -8707.9522    38.767259   -8746.7194   -25100.588 
  960000    287.43798   -8708.9736    41.126305   -8750.0999   -46997.646 
  960200    327.03754   -8690.6095    46.792166   -8737.4017   -8519.3931 
  960400     283.6157   -8703.1387    40.579417   -8743.7181   -5611.9826 
  960600    287.27256   -8708.9811    41.102637   -8750.0838    24507.675 
  960800    247.29864   -8703.4571    35.383213   -8738.8403   -38984.085 
  961000    320.76419   -8700.3318    45.894582   -8746.2263   -15092.682 
  961200    298.36515   -8703.1238    42.689753   -8745.8135    51559.719 
  961400     298.4679   -8702.4536    42.704454   -8745.1581   -9923.5395 
  961600    272.55323   -8710.4715    38.996612   -8749.4681   -22454.042 
  961800    318.75228   -8697.8005     45.60672   -8743.4072    39188.196 
  962000    280.96473   -8704.1499     40.20012   -8744.3501    -10604.92 
  962200    323.27686   -8712.6619    46.254091   -8758.9159    -8715.115 
  962400    306.77741   -8695.9068    43.893369   -8739.8002    11751.469 
  962600    325.04821   -8698.9577    46.507535   -8745.4652    6652.1611 
  962800    256.19403   -8708.3603    36.655955   -8745.0163     28527.86 
  963000    303.59361   -8700.3073    43.437834   -8743.7451    14941.462 
  963200    227.41874   -8716.9059     32.53882   -8749.4447   -2405.0585 
  963400     321.0594   -8707.9269    45.936821   -8753.8637    18780.815 
  963600    297.43184   -8701.6482    42.556215   -8744.2044   -8388.1718 
  963800    371.93906   -8690.3201    53.216625   -8743.5368    15678.577 
  964000    270.30243   -8704.8875    38.674569   -8743.5621    -3438.572 
  964200    331.16537   -8700.3591    47.382772   -8747.7419    -26870.26 
  964400    278.50904   -8711.2358    39.848763   -8751.0845   -27888.605 
  964600    313.29679   -8708.1496    44.826155   -8752.9758    40283.059 
  964800    339.64713   -8691.5974    48.596332   -8740.1937    32620.177 
  965000    367.81709   -8695.7073    52.626858   -8748.3342    9954.3406 
  965200    253.11211   -8706.5908    36.214997   -8742.8058    2978.3147 
  965400    323.78293   -8697.8546      46.3265   -8744.1811    38636.032 
  965600    310.21753   -8709.5692    44.385577   -8753.9548    43289.535 
  965800      317.816   -8708.8842    45.472758    -8754.357    2117.0828 
  966000    370.88926   -8691.3273    53.066421   -8744.3938   -54098.116 
  966200    302.66519   -8709.0059    43.304998   -8752.3109    8723.5696 
  966400    288.58774   -8713.4666    41.290811   -8754.7575    13398.972 
  966600    313.42824   -8702.6807    44.844962   -8747.5256    48053.617 
  966800    322.82008   -8705.6599    46.188737   -8751.8487    14714.552 
  967000    290.53269   -8714.6231    41.569093   -8756.1922   -42245.527 
  967200      256.648   -8719.5919    36.720909   -8756.3128    -23844.47 
  967400    360.22836   -8699.7426    51.541072   -8751.2837   -33702.672 
  967600    289.16587    -8703.731     41.37353   -8745.1046    2592.2082 
  967800    308.34175    -8709.199    44.117192   -8753.3161   -21458.086 
  968000    317.47804   -8696.6614    45.424403   -8742.0858    68727.011 
  968200    288.16603   -8702.7592    41.230474   -8743.9896    4742.0718 
  968400    290.21373   -8712.7949    41.523456   -8754.3184   -23703.361 
  968600     274.6021   -8711.9794    39.289761   -8751.2691    1452.1136 
  968800    311.35341   -8700.3812    44.548098   -8744.9293    22081.015 
  969000    348.97836   -8702.3521    49.931434   -8752.2836    -9209.102 
  969200    301.30508   -8716.3035    43.110393   -8759.4139   -35145.735 
  969400    321.48047   -8703.5223    45.997067   -8749.5193    37710.998 
  969600    305.82293   -8707.3369    43.756803   -8751.0937    1268.1672 
  969800    280.45921   -8710.6613     40.12779   -8750.7891   -2308.2838 
  970000    330.93849   -8695.9978    47.350309   -8743.3481   -15418.035 
  970200    297.68692   -8710.2397    42.592712   -8752.8324   -15827.795 
  970400    258.29817   -8718.6744    36.957014   -8755.6314    10625.308 
  970600    252.45196   -8713.9779    36.120545   -8750.0984    424.88835 
  970800    297.48611    -8705.302    42.563979    -8747.866    15992.151 
  971000    349.02857   -8699.9813    49.938618   -8749.9199   -14230.062 
  971200     254.5985   -8699.1299    36.427668   -8735.5576   -9605.7137 
  971400    299.32494   -8708.9068    42.827078   -8751.7339    32127.068 
  971600    312.57399   -8706.7969    44.722737   -8751.5197   -47905.337 
  971800     310.0496   -8702.0289     44.36155   -8746.3905   -7185.3664 
  972000    302.24896   -8708.0062    43.245443   -8751.2517    27465.655 
  972200    301.72573   -8704.7962     43.17058   -8747.9667    5370.8891 
  972400    261.60502    -8707.436    37.430154   -8744.8662   -6234.4625 
  972600    243.63904    -8714.769    34.859602   -8749.6286    -33595.92 
  972800    289.72762   -8707.9216    41.453903   -8749.3755   -8759.8145 
  973000    285.66657   -8703.1874    40.872853   -8744.0602   -4920.6796 
  973200    324.54211   -8696.6866    46.435122   -8743.1217    17560.413 
  973400    281.49595   -8710.3261    40.276126   -8750.6022    57427.258 
  973600    267.44272   -8703.5532    38.265406   -8741.8186   -1826.4899 
  973800    312.97809   -8692.5352    44.780556   -8737.3157   -7312.7842 
  974000    273.89443   -8711.1237    39.188509   -8750.3122   -14294.454 
  974200    306.20972   -8708.0122    43.812144   -8751.8243   -656.86964 
  974400    318.51992   -8697.7673    45.573474   -8743.3408    25135.067 
  974600    266.60301   -8703.7376     38.14526   -8741.8829    14554.936 
  974800    278.09831   -8701.6055    39.789995   -8741.3955   -30012.617 
  975000    219.66034   -8716.8088    31.428756   -8748.2376    28596.692 
  975200    306.89541   -8701.2259    43.910252   -8745.1362   -10897.238 
  975400    303.13145   -8704.3926    43.371709   -8747.7643     15841.66 
  975600    277.45783   -8706.6521    39.698356   -8746.3504    13065.413 
  975800    314.01068   -8687.2356    44.928298   -8732.1639    4268.2305 
  976000     278.0463   -8705.2459    39.782554   -8745.0284    15246.838 
  976200    352.75607   -8707.1781    50.471945     -8757.65   -29661.045 
  976400    417.29392   -8686.2198    59.705947   -8745.9257    43694.559 
  976600    292.88207   -8701.2877    41.905239   -8743.1929    81017.348 
  976800    311.13408   -8707.0788    44.516716   -8751.5956   -17449.181 
  977000    278.32293   -8720.0947    39.822133   -8759.9168   -15914.152 
  977200    298.53271    -8699.328    42.713727   -8742.0417   -18565.215 
  977400    262.62008   -8708.4514    37.575388   -8746.0268   -47006.191 
  977600    265.57613   -8711.6083    37.998336   -8749.6067   -5040.9467 
  977800     345.3341   -8697.1723    49.410017   -8746.5823    32532.628 
  978000    287.42094    -8710.557    41.123868   -8751.6808   -2860.2097 
  978200    300.56938   -8706.2364    43.005132   -8749.2415    26145.259 
  978400    328.64792   -8694.2253    47.022577   -8741.2479    13625.599 
  978600    226.66929   -8712.5877    32.431588   -8745.0193   -29800.697 
  978800    297.70939   -8709.1962    42.595926   -8751.7921    8734.4832 
  979000    279.53049   -8700.0324     39.99491   -8740.0273     33583.79 
  979200    359.16359   -8701.4558    51.388725   -8752.8446   -37302.065 
  979400    329.70065   -8709.5893      47.1732   -8756.7625    47680.507 
  979600     331.3571   -8699.8526    47.410204   -8747.2628    9597.2168 
  979800    272.20926    -8702.127    38.947397   -8741.0744   -27893.114 
  980000    265.20222   -8708.8095    37.944837   -8746.7544   -4917.8891 
  980200    310.48841   -8706.9018    44.424335   -8751.3261    51695.989 
  980400    297.47468   -8697.5644    42.562344   -8740.1267   -52777.631 
  980600    357.76059   -8699.0331    51.187985   -8750.2211   -36175.502 
  980800    296.20758   -8708.2151     42.38105   -8750.5961    41900.173 
  981000    374.43295   -8700.1559    53.573447   -8753.7293    31617.373 
  981200    307.88716   -8694.0602    44.052151   -8738.1124   -5374.9843 
  981400    324.11729   -8704.1719     46.37434   -8750.5462    32672.463 
  981600      306.102   -8702.1023    43.796731    -8745.899   -23744.092 
  981800    290.81034   -8706.7148    41.608818   -8748.3237    17587.431 
  982000    290.30151   -8713.7006    41.536016   -8755.2366    14667.187 
  982200    332.28389   -8695.8897    47.542807   -8743.4325   -15394.951 
  982400    275.01785    -8715.313    39.349247   -8754.6622    -5956.745 
  982600    285.77608    -8708.128    40.888522   -8749.0165    28769.174 
  982800    303.98908   -8698.3141    43.494418   -8741.8086   -5757.0087 
  983000    349.29988   -8689.2453    49.977437   -8739.2227    42408.173 
  983200    278.24936   -8707.0622    39.811608   -8746.8738    13015.963 
  983400    309.76626   -8705.8948     44.32101   -8750.2158    -1394.347 
  983600    344.77888   -8691.3481    49.330576   -8740.6787    18337.135 
  983800    283.32989   -8710.7305    40.538523    -8751.269    614.24853 
  984000    320.51292   -8707.0088     45.85863   -8752.8675   -48285.151 
  984200    313.61828   -8688.2482    44.872154   -8733.1204   -33817.701 
  984400    301.96871   -8705.8838    43.205345   -8749.0891    57779.862 
  984600    314.25252   -8708.1414    44.962899   -8753.1043    9136.0157 
  984800    332.13128   -8690.6941    47.520972    -8738.215    67639.951 
  985000    302.84806   -8693.1185    43.331162   -8736.4497    32006.406 
  985200    288.53282   -8707.3859    41.282954   -8748.6689   -24002.143 
  985400    294.22396   -8706.6929    42.097235   -8748.7901    9237.2889 
  985600    288.22071   -8698.0199    41.238297   -8739.2582   -26003.243 
  985800    274.46524   -8705.1303    39.270179   -8744.4005    22716.343 
  986000     318.8923   -8702.4115    45.626754   -8748.0382   -31807.181 
  986200    258.91464   -8712.1093    37.045217   -8749.1545   -9216.7822 
  986400     340.0288   -8699.2792     48.65094   -8747.9302   -734.08619 
  986600    292.27372   -8697.6054    41.818197   -8739.4236   -6791.6035 
  986800     263.8455   -8713.3178    37.750719   -8751.0685    19292.206 
  987000    277.58368   -8710.2937    39.716363   -8750.0101   -11663.134 
  987200    326.85024   -8700.7309    46.765367   -8747.4963   -3866.5893 
  987400    292.43528   -8710.7765    41.841313   -8752.6178   -37589.335 
  987600    252.78771   -8723.3084    36.168583    -8759.477   -23632.845 
  987800    341.06471   -8710.7588    48.799158    -8759.558    10752.567 
  988000    295.02453   -8704.0416     42.21178   -8746.2533    33676.507 
  988200    285.77594   -8711.2569    40.888502   -8752.1454   -710.79613 
  988400    317.24987   -8706.9434    45.391756   -8752.3351   -14876.398 
  988600    290.37996    -8693.886    41.547241   -8735.4332     2161.298 
  988800    375.31401   -8689.8084    53.699509   -8743.5079    -1940.697 
  989000    280.32493   -8708.4063    40.108578   -8748.5148    32771.329 
  989200     303.1414   -8699.8058    43.373133   -8743.1789   -27317.626 
  989400    348.37573   -8699.7162    49.845209   -8749.5614    51280.466 
  989600     267.6995   -8713.4437    38.302146   -8751.7458    18922.952 
  989800    312.26032   -8696.9263    44.677857   -8741.6042    14029.279 
  990000    277.88681   -8698.4113    39.759734    -8738.171   -24031.034 
  990200    277.69101   -8707.9006    39.731719   -8747.6324   -25437.535 
  990400     348.9679    -8695.152    49.929937    -8745.082    7477.7517 
  990600    388.86407   -8691.2773    55.638236   -8746.9155   -4020.9732 
  990800    319.22394   -8705.1506    45.674204   -8750.8248   -11162.977 
  991000    282.97811   -8712.6878    40.488192    -8753.176    64156.617 
  991200    379.11348     -8693.78    54.243133   -8748.0232    27933.925 
  991400    249.79969   -8708.0577    35.741061   -8743.7987   -15255.706 
  991600    293.29599   -8703.3335    41.964463   -8745.2979   -34887.571 
  991800     294.5665   -8701.2133    42.146245   -8743.3596   -29682.173 
  992000    276.41636   -8705.5716    39.549345    -8745.121   -30529.243 
  992200    302.70619   -8704.5249    43.310863   -8747.8358    275.58642 
  992400    273.23567    -8709.508    39.094254   -8748.6023    29159.447 
  992600     278.8508   -8712.9796    39.897661   -8752.8773    4243.5632 
  992800    311.64342   -8697.1337    44.589592   -8741.7233   -1532.5305 
  993000    284.19317   -8707.4441    40.662042   -8748.1062   -68270.636 
  993200    248.32393   -8707.9275    35.529911   -8743.4574    7536.1044 
  993400    367.68331   -8695.9416    52.607718   -8748.5493    -25015.05 
  993600    323.31265   -8704.7572    46.259213   -8751.0164    14624.133 
  993800    303.33599   -8703.8659    43.400975   -8747.2669   -15454.451 
  994000    284.31013   -8706.6579    40.678776   -8747.3366    11224.589 
  994200    304.00939   -8697.1337    43.497324    -8740.631    39745.601 
  994400    277.51792   -8707.9114    39.706954   -8747.6183   -22785.419 
  994600     291.7683   -8715.3276    41.745882   -8757.0735    44155.815 
  994800    331.98232   -8701.1884    47.499659   -8748.6881   -2568.7526 
  995000    288.23981   -8702.5727     41.24103   -8743.8137    22786.015 
  995200    266.76129   -8715.1312    38.167907   -8753.2991    25077.677 
  995400    289.59164   -8706.7077    41.434448   -8748.1421   -15303.792 
  995600    309.68255   -8705.5122    44.309033   -8749.8213    19566.832 
  995800    350.25897   -8693.8995    50.114661   -8744.0141   -14203.985 
  996000    269.05676   -8711.1752    38.496341   -8749.6716     26602.76 
  996200    331.07988    -8706.745    47.370539   -8754.1155    29107.229 
  996400    330.94377   -8687.1961    47.351064   -8734.5472   -13662.653 
  996600    288.09299   -8702.6545    41.220023   -8743.8745    30296.777 
  996800     269.4838   -8712.3943    38.557441   -8750.9517    43782.347 
  997000    306.57917   -8698.8368    43.865005   -8742.7018   -22179.269 
  997200    284.93047   -8701.6524    40.767533   -8742.4199   -3707.5749 
  997400    256.69617    -8718.386    36.727801   -8755.1138   -33664.323 
  997600     300.6057    -8705.667    43.010327   -8748.6773     51848.58 
  997800    305.42649   -8697.0132    43.700081   -8740.7133   -24559.045 
  998000    243.12572   -8716.0407    34.786156   -8750.8269    907.53399 
  998200    286.29654   -8707.9837    40.962989   -8748.9467   -19582.894 
  998400    345.96233   -8698.8299    49.499903   -8748.3298    9331.2824 
  998600    341.88355   -8689.0182    48.916317   -8737.9345    37900.789 
  998800    280.13941    -8707.495    40.082033    -8747.577   -27105.807 
  999000    275.91621   -8711.5009    39.477783   -8750.9787    40044.339 
  999200    302.44715   -8701.0824    43.273801   -8744.3562    5883.6151 
  999400    296.51169   -8701.7832    42.424561   -8744.2077     12890.51 
  999600    306.77864   -8713.6569    43.893544   -8757.5504    -32478.12 
  999800    326.70788   -8704.3382    46.744998   -8751.0832    30069.823 
 1000000    383.26079   -8700.8652    54.836526   -8755.7017     52308.48 
Loop time of 4319.87 on 8 procs for 1000000 steps with 49 atoms

Performance: 5.000 ns/day, 4.800 hours/ns, 231.488 timesteps/s
99.1% CPU use with 8 MPI tasks x no OpenMP threads

MPI task timing breakdown:
Section |  min time  |  avg time  |  max time  |%varavg| %total
---------------------------------------------------------------
Pair    | 3787.4     | 3846.1     | 3889.4     |  50.7 | 89.03
Neigh   | 0.96925    | 0.97948    | 0.98941    |   0.7 |  0.02
Comm    | 79.668     | 122.81     | 181.1      | 282.4 |  2.84
Output  | 0.12546    | 0.14458    | 0.27219    |  12.7 |  0.00
Modify  | 345.51     | 345.78     | 346.12     |   1.1 |  8.00
Other   |            | 4.103      |            |       |  0.09

Nlocal:    6.125 ave 7 max 6 min
Histogram: 7 0 0 0 0 0 0 0 0 1
Nghost:    910.75 ave 926 max 896 min
Histogram: 1 1 0 0 2 2 0 0 0 2
Neighs:    1678.75 ave 1903 max 1635 min
Histogram: 7 0 0 0 0 0 0 0 0 1

Total # of neighbors = 13430
Ave neighs/atom = 274.082
Neighbor list builds = 445
Dangerous builds = 0

Please see the log.cite file for references relevant to this simulation

Total wall time: 1:12:04
