ITEM: TIMESTEP
0
ITEM: NUMBER OF ATOMS
59
ITEM: BOX BOUNDS pp pp pp
0.0000000000000000e+00 3.2808000000000000e+01
0.0000000000000000e+00 1.7780000000000001e+01
0.0000000000000000e+00 2.4729999999999999e+00
ITEM: ATOMS id type x y z 
13 1 7.043 0.849 2.464 
29 1 7.397 1.432 1.228 
37 1 8.035 2.733 1.228 
57 2 1.81 0.968 2.464 
58 2 2.953 1.93 2.386 
59 3 2.317 2.651 2.173 
1 1 6.173 17.398 2.464 
5 1 5.371 17.398 1.228 
9 1 3.973 17.398 1.228 
16 1 7.043 16.167 2.464 
32 1 7.397 15.584 1.228 
40 1 8.035 14.283 1.228 
45 1 3.236 17.398 2.464 
49 1 1.81 17.398 2.464 
53 1 1.083 17.398 1.228 
4 1 10.968 8.508 2.464 
8 1 11.771 8.508 1.228 
12 1 13.168 8.508 1.228 
18 1 10.098 7.277 2.464 
21 1 8.308 3.392 2.464 
26 1 8.833 4.734 2.464 
34 1 9.745 6.694 1.228 
42 1 9.106 5.393 1.228 
48 1 13.906 8.508 2.464 
52 1 15.331 8.508 2.464 
56 1 16.058 8.508 1.228 
19 1 10.098 9.739 2.464 
24 1 8.308 13.624 2.464 
27 1 8.833 12.282 2.464 
35 1 9.745 10.322 1.228 
43 1 9.106 11.623 1.228 
3 1 22.577 8.508 2.464 
7 1 21.775 8.508 1.228 
11 1 20.377 8.508 1.228 
20 1 23.447 7.277 2.464 
36 1 23.801 6.694 1.228 
44 1 24.439 5.393 1.228 
47 1 19.64 8.508 2.464 
51 1 18.214 8.508 2.464 
55 1 17.487 8.508 1.228 
17 1 23.447 9.739 2.464 
33 1 23.801 10.322 1.228 
41 1 24.439 11.623 1.228 
15 1 26.502 0.849 2.464 
23 1 25.237 3.392 2.464 
28 1 24.712 4.734 2.464 
31 1 26.149 1.432 1.228 
39 1 25.511 2.733 1.228 
2 1 27.373 17.398 2.464 
6 1 28.175 17.398 1.228 
10 1 29.572 17.398 1.228 
14 1 26.502 16.167 2.464 
22 1 25.237 13.624 2.464 
25 1 24.712 12.282 2.464 
30 1 26.149 15.584 1.228 
38 1 25.511 14.283 1.228 
46 1 30.31 17.398 2.464 
50 1 31.735 17.398 2.464 
54 1 32.462 17.398 1.228 
ITEM: TIMESTEP
10
ITEM: NUMBER OF ATOMS
59
ITEM: BOX BOUNDS pp pp pp
0.0000000000000000e+00 3.2808000000000000e+01
0.0000000000000000e+00 1.7780000000000001e+01
0.0000000000000000e+00 2.4729999999999999e+00
ITEM: ATOMS id type x y z 
13 1 7.07887 0.83499 2.46429 
29 1 7.43768 1.44904 1.22777 
37 1 8.04732 2.69781 1.22773 
57 2 1.81106 1.0187 2.45364 
58 2 2.96408 1.98261 2.38133 
59 3 2.32599 2.61546 2.18177 
1 1 6.14486 17.3979 2.46421 
5 1 5.37739 17.3991 1.22767 
9 1 3.92198 17.3954 1.22796 
16 1 7.0788 16.1811 2.46429 
32 1 7.43762 15.5672 1.22777 
40 1 8.04729 14.3183 1.22773 
45 1 3.17626 17.3267 2.46463 
49 1 1.79876 17.5798 2.46842 
53 1 1.09379 17.2198 1.22922 
4 1 10.9713 8.508 2.46424 
8 1 11.795 8.508 1.22768 
12 1 13.1959 8.508 1.22773 
18 1 10.0579 7.28895 2.46428 
21 1 8.30934 3.37079 2.46426 
26 1 8.82991 4.75116 2.46426 
34 1 9.70397 6.67588 1.22777 
42 1 9.09391 5.42878 1.22773 
48 1 13.9057 8.508 2.46428 
52 1 15.3222 8.508 2.46428 
56 1 16.0523 8.508 1.22772 
19 1 10.0579 9.72705 2.46428 
24 1 8.30934 13.6452 2.46426 
27 1 8.82993 12.2648 2.46426 
35 1 9.70397 10.3401 1.22777 
43 1 9.0939 11.5872 1.22773 
3 1 22.5745 8.508 2.46424 
7 1 21.7505 8.508 1.22768 
11 1 20.3499 8.508 1.22773 
20 1 23.4873 7.28877 2.46428 
36 1 23.8415 6.67681 1.22777 
44 1 24.4501 5.43099 1.22773 
47 1 19.643 8.508 2.46428 
51 1 18.2257 8.508 2.46428 
55 1 17.4878 8.508 1.22772 
17 1 23.4873 9.72723 2.46428 
33 1 23.8415 10.3392 1.22777 
41 1 24.4501 11.585 1.22773 
15 1 26.4628 0.8364 2.46428 
23 1 25.2353 3.37092 2.46426 
28 1 24.7126 4.75733 2.46426 
31 1 26.1075 1.45139 1.22777 
39 1 25.5011 2.69226 1.22772 
2 1 27.3761 17.398 2.46423 
6 1 28.2083 17.398 1.22767 
10 1 29.6072 17.398 1.22774 
14 1 26.4628 16.1796 2.46428 
22 1 25.2353 13.6451 2.46426 
25 1 24.7126 12.2587 2.46426 
30 1 26.1075 15.5646 1.22777 
38 1 25.5011 14.3237 1.22772 
46 1 30.3151 17.399 2.46429 
50 1 31.7502 17.4035 2.46431 
54 1 32.4919 17.3926 1.22774 
ITEM: TIMESTEP
20
ITEM: NUMBER OF ATOMS
59
ITEM: BOX BOUNDS pp pp pp
0.0000000000000000e+00 3.2808000000000000e+01
0.0000000000000000e+00 1.7780000000000001e+01
0.0000000000000000e+00 2.4729999999999999e+00
ITEM: ATOMS id type x y z 
13 1 7.08977 0.831686 2.46429 
29 1 7.45382 1.4354 1.22775 
37 1 8.06075 2.68626 1.22772 
57 2 1.78055 1.01448 2.45129 
58 2 2.99568 2.01687 2.38266 
59 3 2.32947 2.64074 2.17791 
1 1 6.15435 17.3982 2.46425 
5 1 5.3414 17.4011 1.22772 
9 1 3.92476 17.3768 1.2285 
16 1 7.08901 16.1844 2.46429 
32 1 7.45355 15.5812 1.22775 
40 1 8.06072 14.3299 1.22772 
45 1 3.19005 17.2907 2.46528 
49 1 1.74072 17.6588 2.46902 
53 1 1.11479 17.1435 1.23186 
4 1 10.9676 8.50804 2.46425 
8 1 11.7744 8.50801 1.2277 
12 1 13.1983 8.508 1.22774 
18 1 10.0436 7.29233 2.46429 
21 1 8.31589 3.36441 2.46427 
26 1 8.82267 4.7561 2.46427 
34 1 9.68351 6.68235 1.22774 
42 1 9.07856 5.4345 1.22772 
48 1 13.9197 8.508 2.46427 
52 1 15.2977 8.508 2.46426 
56 1 16.0451 8.508 1.22774 
19 1 10.0436 9.72369 2.46429 
24 1 8.31584 13.6517 2.46427 
27 1 8.82259 12.2601 2.46427 
35 1 9.6835 10.3337 1.22774 
43 1 9.07851 11.5817 1.22772 
3 1 22.5763 8.508 2.46425 
7 1 21.7691 8.508 1.2277 
11 1 20.3465 8.508 1.22774 
20 1 23.5013 7.29317 2.46429 
36 1 23.8623 6.68276 1.22775 
44 1 24.466 5.43637 1.22772 
47 1 19.6258 8.508 2.46427 
51 1 18.2484 8.508 2.46426 
55 1 17.502 8.508 1.22774 
17 1 23.5013 9.72283 2.46429 
33 1 23.8623 10.3332 1.22775 
41 1 24.466 11.5796 1.22772 
15 1 26.4491 0.832892 2.46429 
23 1 25.2282 3.36582 2.46427 
28 1 24.7208 4.75968 2.46427 
31 1 26.0874 1.44439 1.22775 
39 1 25.4846 2.68837 1.22772 
2 1 27.3726 17.398 2.46426 
6 1 28.1951 17.3976 1.22769 
10 1 29.5924 17.3976 1.22775 
14 1 26.449 16.1831 2.46429 
22 1 25.2282 13.6502 2.46427 
25 1 24.7208 12.2563 2.46427 
30 1 26.0874 15.5716 1.22775 
38 1 25.4846 14.3276 1.22772 
46 1 30.3303 17.4039 2.46428 
50 1 31.7941 17.4192 2.46447 
54 1 32.5286 17.3661 1.22795 
ITEM: TIMESTEP
30
ITEM: NUMBER OF ATOMS
59
ITEM: BOX BOUNDS pp pp pp
0.0000000000000000e+00 3.2808000000000000e+01
0.0000000000000000e+00 1.7780000000000001e+01
0.0000000000000000e+00 2.4729999999999999e+00
ITEM: ATOMS id type x y z 
13 1 7.08687 0.81721 2.46429 
29 1 7.48349 1.4157 1.22774 
37 1 8.08972 2.66909 1.22773 
57 2 1.70146 1.05216 2.45159 
58 2 3.03011 2.07748 2.38308 
59 3 2.34903 2.67618 2.17297 
1 1 6.1445 17.4 2.46441 
5 1 5.33007 17.4058 1.22797 
9 1 3.9128 17.3257 1.22962 
16 1 7.08274 16.1989 2.46429 
32 1 7.48119 15.6029 1.22774 
40 1 8.08939 14.3477 1.22773 
45 1 3.17533 17.2725 2.46632 
49 1 1.74029 17.6518 2.46897 
53 1 1.12656 17.0911 1.23237 
4 1 10.9586 8.50826 2.46426 
8 1 11.7486 8.50808 1.22772 
12 1 13.1851 8.50799 1.22774 
18 1 10.0264 7.29949 2.46428 
21 1 8.32984 3.35368 2.46427 
26 1 8.80437 4.75484 2.46427 
34 1 9.64786 6.69703 1.22773 
42 1 9.04522 5.43981 1.22773 
48 1 13.9419 8.508 2.46425 
52 1 15.2989 8.508 2.46426 
56 1 16.0428 8.508 1.22774 
19 1 10.0264 9.71675 2.46428 
24 1 8.32953 13.6631 2.46427 
27 1 8.804 12.2623 2.46427 
35 1 9.64779 10.3193 1.22773 
43 1 9.04495 11.5771 1.22773 
3 1 22.5832 8.50798 2.46426 
7 1 21.7912 8.508 1.22772 
11 1 20.3554 8.508 1.22774 
20 1 23.5172 7.30176 2.46428 
36 1 23.8981 6.69927 1.22773 
44 1 24.4992 5.44522 1.22773 
47 1 19.6049 8.508 2.46425 
51 1 18.2494 8.508 2.46426 
55 1 17.5025 8.508 1.22774 
17 1 23.5172 9.71423 2.46428 
33 1 23.8981 10.3167 1.22773 
41 1 24.4991 11.5707 1.22773 
15 1 26.4456 0.815491 2.46428 
23 1 25.2127 3.35861 2.46427 
28 1 24.7374 4.76376 2.46427 
31 1 26.0591 1.41723 1.22773 
39 1 25.4529 2.67633 1.22773 
2 1 27.3848 17.398 2.46426 
6 1 28.2067 17.3953 1.22773 
10 1 29.6126 17.3985 1.22778 
14 1 26.4448 16.2005 2.46428 
22 1 25.2127 13.6573 2.46427 
25 1 24.7373 12.2521 2.46427 
30 1 26.0588 15.5985 1.22773 
38 1 25.4529 14.3396 1.22773 
46 1 30.3512 17.4214 2.46431 
50 1 31.8183 17.4385 2.46496 
54 1 32.5418 17.314 1.22857 
ITEM: TIMESTEP
40
ITEM: NUMBER OF ATOMS
59
ITEM: BOX BOUNDS pp pp pp
0.0000000000000000e+00 3.2808000000000000e+01
0.0000000000000000e+00 1.7780000000000001e+01
0.0000000000000000e+00 2.4729999999999999e+00
ITEM: ATOMS id type x y z 
13 1 7.08772 0.818356 2.46427 
29 1 7.49098 1.39191 1.2278 
37 1 8.10965 2.65839 1.22778 
57 2 1.67596 1.03703 2.45262 
58 2 3.0439 2.10194 2.38512 
59 3 2.35586 2.68994 2.1691 
1 1 6.12866 17.4019 2.46454 
5 1 5.30015 17.4012 1.22816 
9 1 3.90794 17.3051 1.23002 
16 1 7.08125 16.1978 2.46427 
32 1 7.48629 15.6275 1.2278 
40 1 8.10875 14.3592 1.22778 
45 1 3.20699 17.2737 2.46672 
49 1 1.71639 17.6516 2.46854 
53 1 1.14937 17.0928 1.23175 
4 1 10.9482 8.50858 2.46423 
8 1 11.7475 8.50825 1.22777 
12 1 13.1696 8.50797 1.22775 
18 1 10.0098 7.29332 2.46423 
21 1 8.34049 3.34758 2.46423 
26 1 8.7918 4.75337 2.46423 
34 1 9.62781 6.70597 1.22778 
42 1 9.02338 5.4436 1.22778 
48 1 13.9443 8.50799 2.46424 
52 1 15.3037 8.508 2.46424 
56 1 16.0301 8.508 1.22776 
19 1 10.0097 9.72335 2.46423 
24 1 8.33992 13.6699 2.46423 
27 1 8.79118 12.2649 2.46423 
35 1 9.62766 10.3108 1.22778 
43 1 9.02294 11.5741 1.22778 
3 1 22.5926 8.50793 2.46423 
7 1 21.7925 8.50798 1.22777 
11 1 20.3729 8.508 1.22775 
20 1 23.535 7.29284 2.46423 
36 1 23.919 6.70914 1.22778 
44 1 24.5217 5.45023 1.22777 
47 1 19.5958 8.508 2.46424 
51 1 18.2393 8.508 2.46424 
55 1 17.5126 8.508 1.22776 
17 1 23.5349 9.7231 2.46423 
33 1 23.919 10.3068 1.22778 
41 1 24.5216 11.5655 1.22777 
15 1 26.4441 0.821179 2.46423 
23 1 25.2021 3.35305 2.46423 
28 1 24.7521 4.75719 2.46423 
31 1 26.046 1.40004 1.22778 
39 1 25.4356 2.66126 1.22777 
2 1 27.3938 17.3977 2.46423 
6 1 28.227 17.3931 1.22778 
10 1 29.6127 17.4023 1.22785 
14 1 26.4423 16.195 2.46423 
22 1 25.202 13.6628 2.46423 
25 1 24.752 12.2585 2.46423 
30 1 26.0452 15.6154 1.22778 
38 1 25.4354 14.3545 1.22777 
46 1 30.3618 17.4348 2.46433 
50 1 31.817 17.4397 2.46534 
54 1 32.5473 17.2912 1.22872 
ITEM: TIMESTEP
50
ITEM: NUMBER OF ATOMS
59
ITEM: BOX BOUNDS pp pp pp
0.0000000000000000e+00 3.2808000000000000e+01
0.0000000000000000e+00 1.7780000000000001e+01
0.0000000000000000e+00 2.4729999999999999e+00
ITEM: ATOMS id type x y z 
13 1 7.09567 0.834 2.46439 
29 1 7.52386 1.35183 1.22789 
37 1 8.17091 2.62382 1.22778 
57 2 1.61839 1.04104 2.45596 
58 2 3.07146 2.1564 2.39365 
59 3 2.37055 2.71504 2.15682 
1 1 6.11023 17.406 2.46498 
5 1 5.29972 17.3908 1.22854 
9 1 3.90554 17.2637 1.23066 
16 1 7.08687 16.1847 2.4644 
32 1 7.51336 15.6668 1.2279 
40 1 8.16863 14.3948 1.22778 
45 1 3.17185 17.2811 2.46728 
49 1 1.70761 17.6437 2.46679 
53 1 1.14601 17.0592 1.23002 
4 1 10.9172 8.50966 2.46425 
8 1 11.7319 8.50908 1.22775 
12 1 13.1431 8.50785 1.22775 
18 1 9.97984 7.29735 2.46424 
21 1 8.37756 3.33132 2.46426 
26 1 8.75282 4.75067 2.46425 
34 1 9.57483 6.73162 1.22776 
42 1 8.95808 5.4583 1.22776 
48 1 13.9192 8.5079 2.46425 
52 1 15.3068 8.50798 2.46425 
56 1 16.0309 8.50801 1.22775 
19 1 9.97934 9.72098 2.46424 
24 1 8.37641 13.6882 2.46426 
27 1 8.75192 12.2703 2.46425 
35 1 9.57442 10.2869 1.22776 
43 1 8.95727 11.562 1.22776 
3 1 22.6177 8.50762 2.46425 
7 1 21.8085 8.50784 1.22775 
11 1 20.3968 8.50802 1.22775 
20 1 23.5643 7.29364 2.46424 
36 1 23.9746 6.73293 1.22776 
44 1 24.5901 5.46268 1.22776 
47 1 19.6164 8.50801 2.46425 
51 1 18.2342 8.508 2.46425 
55 1 17.5072 8.508 1.22775 
17 1 23.5642 9.72198 2.46424 
33 1 23.9745 10.2826 1.22776 
41 1 24.5898 11.5521 1.22776 
15 1 26.4491 0.825054 2.46424 
23 1 25.1663 3.33644 2.46424 
28 1 24.7929 4.75191 2.46425 
31 1 26.0127 1.36013 1.22777 
39 1 25.3741 2.62658 1.22776 
2 1 27.4138 17.3961 2.46429 
6 1 28.2553 17.3863 1.22778 
10 1 29.6293 17.4214 1.22801 
14 1 26.4416 16.1917 2.46424 
22 1 25.166 13.6786 2.46425 
25 1 24.7925 12.2625 2.46425 
30 1 26.0086 15.654 1.22777 
38 1 25.3733 14.3882 1.22776 
46 1 30.3744 17.4732 2.46453 
50 1 31.8228 17.4319 2.46578 
54 1 32.5476 17.2386 1.22923 
ITEM: TIMESTEP
60
ITEM: NUMBER OF ATOMS
59
ITEM: BOX BOUNDS pp pp pp
0.0000000000000000e+00 3.2808000000000000e+01
0.0000000000000000e+00 1.7780000000000001e+01
0.0000000000000000e+00 2.4729999999999999e+00
ITEM: ATOMS id type x y z 
13 1 7.07832 0.809507 2.46445 
29 1 7.53454 1.35301 1.22791 
37 1 8.19065 2.62129 1.22778 
57 2 1.61087 1.03442 2.45607 
58 2 3.07634 2.16537 2.39639 
59 3 2.37155 2.71658 2.15382 
1 1 6.11832 17.4069 2.46502 
5 1 5.3057 17.3885 1.22863 
9 1 3.89909 17.2596 1.23068 
16 1 7.07144 16.2095 2.46445 
32 1 7.5225 15.667 1.22791 
40 1 8.18829 14.3978 1.22778 
45 1 3.17218 17.2843 2.46718 
49 1 1.70657 17.6456 2.46655 
53 1 1.149 17.0564 1.23007 
4 1 10.9158 8.50956 2.46425 
8 1 11.7183 8.50929 1.22775 
12 1 13.1376 8.50781 1.22775 
18 1 9.97743 7.3038 2.46425 
21 1 8.38727 3.32859 2.46427 
26 1 8.74333 4.74988 2.46425 
34 1 9.56176 6.73267 1.22775 
42 1 8.94032 5.45797 1.22775 
48 1 13.9091 8.50784 2.46425 
52 1 15.3014 8.50797 2.46425 
56 1 16.037 8.50801 1.22775 
19 1 9.97697 9.71463 2.46425 
24 1 8.38631 13.6905 2.46427 
27 1 8.74247 12.2715 2.46425 
35 1 9.56141 10.2858 1.22775 
43 1 8.93956 11.5618 1.22775 
3 1 22.6233 8.50768 2.46425 
7 1 21.8214 8.50778 1.22775 
11 1 20.4015 8.50803 1.22775 
20 1 23.5638 7.30391 2.46425 
36 1 23.9854 6.73653 1.22775 
44 1 24.6086 5.4619 1.22775 
47 1 19.6306 8.50802 2.46425 
51 1 18.2389 8.508 2.46425 
55 1 17.5034 8.508 1.22775 
17 1 23.5637 9.71169 2.46425 
33 1 23.9854 10.2791 1.22775 
41 1 24.6082 11.5528 1.22775 
15 1 26.4619 0.808072 2.46426 
23 1 25.1573 3.33152 2.46425 
28 1 24.8025 4.7517 2.46425 
31 1 26.0087 1.35238 1.22775 
39 1 25.3548 2.62521 1.22775 
2 1 27.4118 17.3951 2.46429 
6 1 28.2323 17.3849 1.2278 
10 1 29.6319 17.4276 1.22805 
14 1 26.4528 16.2086 2.46426 
22 1 25.1571 13.6837 2.46425 
25 1 24.8019 12.2618 2.46425 
30 1 26.0026 15.6607 1.22775 
38 1 25.3541 14.3894 1.22775 
46 1 30.3775 17.4827 2.46457 
50 1 31.8291 17.4286 2.46576 
54 1 32.5491 17.2283 1.22929 
ITEM: TIMESTEP
70
ITEM: NUMBER OF ATOMS
59
ITEM: BOX BOUNDS pp pp pp
0.0000000000000000e+00 3.2808000000000000e+01
0.0000000000000000e+00 1.7780000000000001e+01
0.0000000000000000e+00 2.4729999999999999e+00
ITEM: ATOMS id type x y z 
13 1 7.07376 0.809252 2.46453 
29 1 7.54701 1.3295 1.228 
37 1 8.24238 2.60699 1.2278 
57 2 1.59639 1.02395 2.45615 
58 2 3.08586 2.18338 2.40432 
59 3 2.37245 2.71596 2.14563 
1 1 6.10998 17.4059 2.46514 
5 1 5.29921 17.3832 1.22872 
9 1 3.89207 17.2552 1.23043 
16 1 7.07246 16.2126 2.46454 
32 1 7.5344 15.6894 1.22801 
40 1 8.23939 14.4102 1.2278 
45 1 3.16693 17.2936 2.46694 
49 1 1.70294 17.6455 2.46645 
53 1 1.15104 17.0495 1.22996 
4 1 10.8989 8.50894 2.46425 
8 1 11.7188 8.50952 1.22775 
12 1 13.1163 8.50776 1.22775 
18 1 9.96146 7.30498 2.46425 
21 1 8.41735 3.32851 2.4643 
26 1 8.71509 4.74003 2.46426 
34 1 9.53451 6.74491 1.22775 
42 1 8.8952 5.47091 1.22776 
48 1 13.887 8.50762 2.46425 
52 1 15.3118 8.50793 2.46425 
56 1 16.0354 8.50803 1.22775 
19 1 9.96158 9.71243 2.46425 
24 1 8.41599 13.6911 2.46429 
27 1 8.7137 12.2868 2.46426 
35 1 9.53543 10.271 1.22775 
43 1 8.89192 11.5526 1.22776 
3 1 22.6389 8.50854 2.46425 
7 1 21.825 8.50784 1.22775 
11 1 20.4226 8.50804 1.22775 
20 1 23.5789 7.30557 2.46425 
36 1 24.0096 6.75222 1.22775 
44 1 24.6565 5.47004 1.22775 
47 1 19.649 8.50805 2.46425 
51 1 18.2327 8.50801 2.46425 
55 1 17.5072 8.50801 1.22775 
17 1 23.5793 9.71104 2.46425 
33 1 24.0106 10.2655 1.22775 
41 1 24.6535 11.5409 1.22775 
15 1 26.4668 0.805256 2.46426 
23 1 25.1287 3.33171 2.46425 
28 1 24.8339 4.72836 2.46425 
31 1 26.0006 1.32845 1.22776 
39 1 25.3023 2.62051 1.22775 
2 1 27.4201 17.3935 2.46431 
6 1 28.2397 17.3815 1.22783 
10 1 29.6385 17.4468 1.22814 
14 1 26.4529 16.2116 2.46426 
22 1 25.1275 13.6815 2.46425 
25 1 24.8315 12.2753 2.46425 
30 1 25.9897 15.6849 1.22776 
38 1 25.3018 14.3976 1.22775 
46 1 30.3811 17.5048 2.46466 
50 1 31.8277 17.4184 2.46573 
54 1 32.5478 17.2058 1.22924 
ITEM: TIMESTEP
80
ITEM: NUMBER OF ATOMS
59
ITEM: BOX BOUNDS pp pp pp
0.0000000000000000e+00 3.2808000000000000e+01
0.0000000000000000e+00 1.7780000000000001e+01
0.0000000000000000e+00 2.4729999999999999e+00
ITEM: ATOMS id type x y z 
13 1 7.07312 0.809766 2.46457 
29 1 7.55444 1.32462 1.22804 
37 1 8.26766 2.58946 1.22782 
57 2 1.58745 1.02453 2.45637 
58 2 3.08993 2.19219 2.40896 
59 3 2.37339 2.71513 2.14081 
1 1 6.11384 17.4046 2.46516 
5 1 5.30037 17.38 1.22876 
9 1 3.8954 17.2544 1.23033 
16 1 7.07549 16.2127 2.46459 
32 1 7.5431 15.6923 1.22805 
40 1 8.26247 14.4274 1.22782 
45 1 3.16638 17.2971 2.46685 
49 1 1.69785 17.6425 2.46631 
53 1 1.15185 17.0433 1.22986 
4 1 10.8901 8.51129 2.46425 
8 1 11.7184 8.50981 1.22775 
12 1 13.1091 8.5078 1.22775 
18 1 9.95524 7.30755 2.46425 
21 1 8.43188 3.31817 2.46431 
26 1 8.69896 4.73305 2.46426 
34 1 9.52022 6.75544 1.22775 
42 1 8.85735 5.46335 1.22776 
48 1 13.867 8.50746 2.46425 
52 1 15.3084 8.50789 2.46425 
56 1 16.0385 8.50806 1.22775 
19 1 9.95383 9.71262 2.46425 
24 1 8.42964 13.7052 2.46431 
27 1 8.69977 12.2872 2.46426 
35 1 9.51883 10.2666 1.22775 
43 1 8.85784 11.5565 1.22776 
3 1 22.6504 8.50636 2.46425 
7 1 21.8201 8.50708 1.22775 
11 1 20.4306 8.50808 1.22775 
20 1 23.5868 7.30444 2.46425 
36 1 24.0272 6.75549 1.22775 
44 1 24.6931 5.46622 1.22775 
47 1 19.6713 8.50809 2.46425 
51 1 18.2288 8.50802 2.46425 
55 1 17.5007 8.50802 1.22775 
17 1 23.5855 9.70823 2.46425 
33 1 24.0265 10.2567 1.22775 
41 1 24.6936 11.549 1.22775 
15 1 26.4674 0.806383 2.46427 
23 1 25.1152 3.31748 2.46425 
28 1 24.8465 4.73586 2.46425 
31 1 25.993 1.32431 1.22776 
39 1 25.2805 2.59353 1.22775 
2 1 27.418 17.3914 2.46433 
6 1 28.2402 17.3805 1.22784 
10 1 29.6348 17.457 1.22817 
14 1 26.4515 16.2127 2.46427 
22 1 25.1137 13.6954 2.46425 
25 1 24.847 12.2751 2.46425 
30 1 25.9798 15.6905 1.22776 
38 1 25.2765 14.4179 1.22775 
46 1 30.3847 17.5185 2.46469 
50 1 31.831 17.4136 2.46571 
54 1 32.5489 17.1931 1.22923 
ITEM: TIMESTEP
90
ITEM: NUMBER OF ATOMS
59
ITEM: BOX BOUNDS pp pp pp
0.0000000000000000e+00 3.2808000000000000e+01
0.0000000000000000e+00 1.7780000000000001e+01
0.0000000000000000e+00 2.4729999999999999e+00
ITEM: ATOMS id type x y z 
13 1 7.07622 0.811495 2.46461 
29 1 7.55875 1.32517 1.22808 
37 1 8.28567 2.58451 1.22783 
57 2 1.58048 1.0208 2.45646 
58 2 3.09363 2.20029 2.41368 
59 3 2.37402 2.71366 2.13601 
1 1 6.11679 17.406 2.46519 
5 1 5.30387 17.3759 1.22878 
9 1 3.89732 17.2569 1.23024 
16 1 7.08065 16.2127 2.46462 
32 1 7.5499 15.6923 1.22809 
40 1 8.28 14.4346 1.22783 
45 1 3.17077 17.3022 2.46677 
49 1 1.70138 17.6385 2.46622 
53 1 1.14983 17.0425 1.22977 
4 1 10.8831 8.51055 2.46425 
8 1 11.7077 8.51011 1.22775 
12 1 13.1044 8.50779 1.22775 
18 1 9.94541 7.30674 2.46425 
21 1 8.44607 3.31202 2.46432 
26 1 8.68734 4.73592 2.46426 
34 1 9.51051 6.7556 1.22775 
42 1 8.84027 5.46495 1.22776 
48 1 13.8601 8.50733 2.46425 
52 1 15.3039 8.50784 2.46425 
56 1 16.0465 8.50807 1.22775 
19 1 9.94431 9.71353 2.46425 
24 1 8.44467 13.708 2.46432 
27 1 8.68813 12.2846 2.46426 
35 1 9.50977 10.2644 1.22775 
43 1 8.84005 11.5555 1.22776 
3 1 22.6563 8.50545 2.46425 
7 1 21.8308 8.50644 1.22775 
11 1 20.4352 8.5081 1.22775 
20 1 23.5962 7.30393 2.46425 
36 1 24.0362 6.75606 1.22775 
44 1 24.7097 5.46704 1.22775 
47 1 19.6792 8.50818 2.46425 
51 1 18.2346 8.50804 2.46425 
55 1 17.4933 8.50804 1.22775 
17 1 23.5949 9.70805 2.46425 
33 1 24.0356 10.2554 1.22775 
41 1 24.7102 11.5432 1.22775 
15 1 26.4645 0.807847 2.46427 
23 1 25.1008 3.31341 2.46425 
28 1 24.8591 4.73727 2.46425 
31 1 25.9894 1.32511 1.22777 
39 1 25.2644 2.58683 1.22775 
2 1 27.4168 17.3922 2.46434 
6 1 28.2384 17.3812 1.22786 
10 1 29.6339 17.4679 1.2282 
14 1 26.4472 16.2118 2.46427 
22 1 25.0985 13.6977 2.46425 
25 1 24.8599 12.2732 2.46425 
30 1 25.973 15.6915 1.22777 
38 1 25.2573 14.4251 1.22775 
46 1 30.3842 17.5277 2.46473 
50 1 31.8262 17.4058 2.46569 
54 1 32.5436 17.1842 1.22921 
ITEM: TIMESTEP
100
ITEM: NUMBER OF ATOMS
59
ITEM: BOX BOUNDS pp pp pp
0.0000000000000000e+00 3.2808000000000000e+01
0.0000000000000000e+00 1.7780000000000001e+01
0.0000000000000000e+00 2.4729999999999999e+00
ITEM: ATOMS id type x y z 
13 1 7.08207 0.812306 2.46465 
29 1 7.5606 1.32883 1.22811 
37 1 8.29778 2.58282 1.22785 
57 2 1.57557 1.01546 2.45735 
58 2 3.09754 2.20937 2.41963 
59 3 2.37456 2.71093 2.13008 
1 1 6.12397 17.4057 2.46521 
5 1 5.31069 17.3708 1.2288 
9 1 3.90217 17.263 1.23015 
16 1 7.08919 16.2134 2.46466 
32 1 7.55468 15.6905 1.22813 
40 1 8.29328 14.4346 1.22785 
45 1 3.1772 17.308 2.46666 
49 1 1.70566 17.6327 2.46593 
53 1 1.14655 17.0465 1.22901 
4 1 10.8814 8.51044 2.46425 
8 1 11.7033 8.5102 1.22775 
12 1 13.1029 8.50786 1.22775 
18 1 9.93749 7.30984 2.46425 
21 1 8.46071 3.30957 2.46434 
26 1 8.67683 4.73877 2.46427 
34 1 9.50563 6.75679 1.22775 
42 1 8.83032 5.46578 1.22776 
48 1 13.8607 8.50726 2.46425 
52 1 15.3023 8.50777 2.46425 
56 1 16.0473 8.50805 1.22775 
19 1 9.93669 9.71013 2.46425 
24 1 8.45903 13.7101 2.46434 
27 1 8.67755 12.2814 2.46427 
35 1 9.50468 10.2633 1.22775 
43 1 8.83073 11.553 1.22777 
3 1 22.6581 8.50473 2.46425 
7 1 21.8356 8.50591 1.22775 
11 1 20.4368 8.50802 1.22775 
20 1 23.6045 7.30669 2.46425 
36 1 24.0402 6.75672 1.22775 
44 1 24.7185 5.46725 1.22775 
47 1 19.6795 8.5083 2.46425 
51 1 18.2365 8.50809 2.46425 
55 1 17.4925 8.50806 1.22775 
17 1 23.6031 9.70433 2.46425 
33 1 24.0392 10.2533 1.22775 
41 1 24.7208 11.5447 1.22775 
15 1 26.4588 0.8072 2.46428 
23 1 25.0873 3.31 2.46425 
28 1 24.8701 4.74033 2.46425 
31 1 25.9887 1.32809 1.22778 
39 1 25.2534 2.58571 1.22776 
2 1 27.4104 17.3898 2.46436 
6 1 28.2319 17.3837 1.22788 
10 1 29.6272 17.4802 1.22823 
14 1 26.4399 16.2114 2.46428 
22 1 25.0844 13.6998 2.46425 
25 1 24.8712 12.2699 2.46425 
30 1 25.9687 15.6877 1.22778 
38 1 25.2455 14.4269 1.22776 
46 1 30.3802 17.5348 2.46476 
50 1 31.8188 17.3941 2.46564 
54 1 32.5401 17.1759 1.22918 
ITEM: TIMESTEP
110
ITEM: NUMBER OF ATOMS
59
ITEM: BOX BOUNDS pp pp pp
0.0000000000000000e+00 3.2808000000000000e+01
0.0000000000000000e+00 1.7780000000000001e+01
0.0000000000000000e+00 2.4729999999999999e+00
ITEM: ATOMS id type x y z 
13 1 7.09419 0.813763 2.46473 
29 1 7.56302 1.3385 1.22819 
37 1 8.31588 2.58009 1.22789 
57 2 1.57108 1.00569 2.45758 
58 2 3.1058 2.2304 2.43513 
59 3 2.37577 2.70265 2.11483 
1 1 6.13779 17.4048 2.46524 
5 1 5.32592 17.361 1.22882 
9 1 3.91446 17.2808 1.22978 
16 1 7.10847 16.2157 2.46474 
32 1 7.56545 15.6867 1.22821 
40 1 8.31818 14.429 1.2279 
45 1 3.19166 17.3211 2.46629 
49 1 1.71625 17.6224 2.46545 
53 1 1.13999 17.057 1.22921 
4 1 10.8797 8.51112 2.46425 
8 1 11.6977 8.51001 1.22775 
12 1 13.1018 8.50803 1.22775 
18 1 9.92634 7.31608 2.46425 
21 1 8.48687 3.30706 2.46438 
26 1 8.66124 4.74455 2.46428 
34 1 9.4973 6.76083 1.22776 
42 1 8.81416 5.46512 1.22778 
48 1 13.8634 8.50724 2.46425 
52 1 15.3005 8.5076 2.46425 
56 1 16.0497 8.50795 1.22775 
19 1 9.92564 9.70367 2.46425 
24 1 8.48471 13.7118 2.46439 
27 1 8.6612 12.2749 2.46428 
35 1 9.49534 10.2611 1.22776 
43 1 8.81804 11.545 1.22778 
3 1 22.6596 8.50329 2.46425 
7 1 21.8414 8.50485 1.22775 
11 1 20.4378 8.50781 1.22775 
20 1 23.6164 7.31185 2.46425 
36 1 24.0474 6.75855 1.22775 
44 1 24.7315 5.46773 1.22775 
47 1 19.6799 8.5085 2.46425 
51 1 18.2383 8.50827 2.46425 
55 1 17.4911 8.50812 1.22775 
17 1 23.6149 9.69741 2.46425 
33 1 24.0454 10.2482 1.22775 
41 1 24.7374 11.5484 1.22775 
15 1 26.4461 0.804776 2.4643 
23 1 25.0643 3.30419 2.46426 
28 1 24.8862 4.74783 2.46425 
31 1 25.9877 1.33437 1.22779 
39 1 25.2347 2.58803 1.22776 
2 1 27.3962 17.3843 2.46439 
6 1 28.2156 17.3921 1.22792 
10 1 29.6113 17.5069 1.2283 
14 1 26.4254 16.2109 2.4643 
22 1 25.0599 13.705 2.46426 
25 1 24.8879 12.2598 2.46425 
30 1 25.9608 15.6784 1.22779 
38 1 25.2261 14.428 1.22776 
46 1 30.371 17.5445 2.46483 
50 1 31.797 17.3633 2.46547 
54 1 32.5324 17.1599 1.22898 
ITEM: TIMESTEP
120
ITEM: NUMBER OF ATOMS
59
ITEM: BOX BOUNDS pp pp pp
0.0000000000000000e+00 3.2808000000000000e+01
0.0000000000000000e+00 1.7780000000000001e+01
0.0000000000000000e+00 2.4729999999999999e+00
ITEM: ATOMS id type x y z 
13 1 7.09561 0.813991 2.46474 
29 1 7.56281 1.33818 1.22821 
37 1 8.31959 2.58305 1.2279 
57 2 1.57129 1.00426 2.45725 
58 2 3.10708 2.23545 2.43947 
59 3 2.37634 2.69991 2.11064 
1 1 6.14016 17.402 2.46524 
5 1 5.3276 17.3599 1.22882 
9 1 3.91657 17.2848 1.22973 
16 1 7.11308 16.2146 2.46476 
32 1 7.56972 15.684 1.22823 
40 1 8.31823 14.4344 1.22791 
45 1 3.19475 17.3232 2.46626 
49 1 1.71782 17.6208 2.46576 
53 1 1.13817 17.0618 1.22903 
4 1 10.8795 8.50868 2.46425 
8 1 11.7001 8.50954 1.22775 
12 1 13.1011 8.50802 1.22775 
18 1 9.92455 7.31478 2.46426 
21 1 8.48972 3.30731 2.46439 
26 1 8.66053 4.74419 2.46428 
34 1 9.495 6.75978 1.22776 
42 1 8.81523 5.47084 1.22778 
48 1 13.8595 8.50729 2.46425 
52 1 15.3015 8.50757 2.46425 
56 1 16.0474 8.50791 1.22775 
19 1 9.92458 9.70315 2.46426 
24 1 8.48814 13.71 2.4644 
27 1 8.6605 12.2733 2.46429 
35 1 9.49486 10.2576 1.22776 
43 1 8.8143 11.5473 1.22778 
3 1 22.6602 8.50453 2.46425 
7 1 21.8399 8.50498 1.22775 
11 1 20.4388 8.50775 1.22775 
20 1 23.6173 7.31204 2.46425 
36 1 24.0496 6.75897 1.22775 
44 1 24.7328 5.47164 1.22775 
47 1 19.6799 8.50851 2.46425 
51 1 18.2386 8.50833 2.46425 
55 1 17.4924 8.50814 1.22775 
17 1 23.6163 9.69803 2.46425 
33 1 24.0492 10.2507 1.22775 
41 1 24.735 11.5357 1.22775 
15 1 26.4428 0.807291 2.4643 
23 1 25.0607 3.30843 2.46426 
28 1 24.8877 4.74485 2.46425 
31 1 25.9845 1.33655 1.22779 
39 1 25.2331 2.58459 1.22776 
2 1 27.3962 17.3868 2.4644 
6 1 28.2165 17.3945 1.22793 
10 1 29.6115 17.5118 1.22831 
14 1 26.4233 16.2088 2.4643 
22 1 25.0556 13.6999 2.46426 
25 1 24.8899 12.2632 2.46425 
30 1 25.9593 15.6807 1.22779 
38 1 25.219 14.4259 1.22776 
46 1 30.3686 17.5446 2.46483 
50 1 31.7977 17.355 2.46544 
54 1 32.5289 17.1573 1.22896 
ITEM: TIMESTEP
130
ITEM: NUMBER OF ATOMS
59
ITEM: BOX BOUNDS pp pp pp
0.0000000000000000e+00 3.2808000000000000e+01
0.0000000000000000e+00 1.7780000000000001e+01
0.0000000000000000e+00 2.4729999999999999e+00
ITEM: ATOMS id type x y z 
13 1 7.1109 0.815469 2.46489 
29 1 7.56515 1.34774 1.22836 
37 1 8.33661 2.58504 1.22802 
57 2 1.57935 0.994256 2.45423 
58 2 3.11894 2.29509 2.49387 
59 3 2.38626 2.66841 2.05772 
1 1 6.16544 17.3905 2.4652 
5 1 5.35508 17.3514 1.22876 
9 1 3.93981 17.3266 1.22941 
16 1 7.15373 16.2167 2.46491 
32 1 7.60404 15.6802 1.22838 
40 1 8.35058 14.429 1.22804 
45 1 3.22215 17.3509 2.46599 
49 1 1.74034 17.6104 2.46616 
53 1 1.1199 17.1044 1.22939 
4 1 10.8796 8.50557 2.46426 
8 1 11.6986 8.50671 1.22776 
12 1 13.1003 8.50802 1.22775 
18 1 9.91581 7.31825 2.46427 
21 1 8.5174 3.30587 2.46451 
26 1 8.65746 4.74946 2.46433 
34 1 9.47931 6.76787 1.22777 
42 1 8.80023 5.47827 1.22783 
48 1 13.8596 8.50785 2.46425 
52 1 15.3008 8.50736 2.46425 
56 1 16.0478 8.50752 1.22775 
19 1 9.9171 9.6945 2.46427 
24 1 8.519 13.705 2.46452 
27 1 8.6536 12.2603 2.46433 
35 1 9.48015 10.2442 1.22777 
43 1 8.79709 11.5328 1.22783 
3 1 22.661 8.50547 2.46425 
7 1 21.8416 8.50433 1.22775 
11 1 20.4401 8.50716 1.22775 
20 1 23.6245 7.31682 2.46425 
36 1 24.0633 6.76785 1.22775 
44 1 24.7479 5.48176 1.22776 
47 1 19.6807 8.50855 2.46425 
51 1 18.2395 8.50891 2.46425 
55 1 17.4925 8.50841 1.22775 
17 1 23.6248 9.69304 2.46425 
33 1 24.0638 10.241 1.22775 
41 1 24.7514 11.5242 1.22776 
15 1 26.4146 0.80461 2.46435 
23 1 25.0356 3.31033 2.46428 
28 1 24.893 4.75284 2.46426 
31 1 25.9692 1.34224 1.22785 
39 1 25.211 2.58822 1.22778 
2 1 27.3731 17.3827 2.46449 
6 1 28.1881 17.4233 1.22802 
10 1 29.5857 17.5559 1.22838 
14 1 26.403 16.203 2.46435 
22 1 25.0265 13.699 2.46428 
25 1 24.8969 12.2538 2.46426 
30 1 25.9442 15.672 1.22784 
38 1 25.1921 14.4235 1.22778 
46 1 30.3513 17.5367 2.4649 
50 1 31.7562 17.2733 2.46519 
54 1 32.5074 17.1225 1.22873 
ITEM: TIMESTEP
140
ITEM: NUMBER OF ATOMS
59
ITEM: BOX BOUNDS pp pp pp
0.0000000000000000e+00 3.2808000000000000e+01
0.0000000000000000e+00 1.7780000000000001e+01
0.0000000000000000e+00 2.4729999999999999e+00
ITEM: ATOMS id type x y z 
13 1 7.10948 0.806122 2.46491 
29 1 7.56828 1.33752 1.22838 
37 1 8.32212 2.58079 1.22813 
57 2 1.62112 1.01407 2.45322 
58 2 3.08155 2.38083 2.59155 
59 3 2.44852 2.62437 1.95982 
1 1 6.16457 17.3798 2.46526 
5 1 5.35077 17.3536 1.22884 
9 1 3.93909 17.3303 1.23 
16 1 7.16822 16.2223 2.46492 
32 1 7.63253 15.6948 1.2284 
40 1 8.35742 14.4275 1.22814 
45 1 3.22215 17.3851 2.46661 
49 1 1.73409 17.6262 2.46573 
53 1 1.10933 17.122 1.22798 
4 1 10.8787 8.50429 2.46427 
8 1 11.6947 8.50374 1.22777 
12 1 13.099 8.50701 1.22775 
18 1 9.90931 7.31808 2.4643 
21 1 8.50602 3.30436 2.46462 
26 1 8.66982 4.74131 2.46441 
34 1 9.47517 6.76812 1.2278 
42 1 8.80309 5.46866 1.2279 
48 1 13.8615 8.50822 2.46425 
52 1 15.2984 8.50786 2.46425 
56 1 16.0493 8.50766 1.22775 
19 1 9.90955 9.69213 2.4643 
24 1 8.51744 13.703 2.46463 
27 1 8.66095 12.2625 2.46441 
35 1 9.47445 10.2409 1.2278 
43 1 8.79712 11.5304 1.2279 
3 1 22.6595 8.50944 2.46425 
7 1 21.8463 8.5079 1.22775 
11 1 20.4394 8.50705 1.22775 
20 1 23.6295 7.322 2.46425 
36 1 24.0658 6.77442 1.22775 
44 1 24.7496 5.48149 1.22776 
47 1 19.6798 8.50794 2.46425 
51 1 18.2402 8.50899 2.46425 
55 1 17.4908 8.50873 1.22775 
17 1 23.6307 9.69184 2.46425 
33 1 24.0691 10.2391 1.22775 
41 1 24.7546 11.5374 1.22776 
15 1 26.3898 0.793715 2.46442 
23 1 25.0371 3.31553 2.46431 
28 1 24.8862 4.75586 2.46427 
31 1 25.9354 1.33001 1.22791 
39 1 25.2071 2.59142 1.22781 
2 1 27.3667 17.3939 2.46454 
6 1 28.1869 17.4377 1.22806 
10 1 29.582 17.5317 1.22833 
14 1 26.4075 16.2041 2.46441 
22 1 25.0294 13.6999 2.46431 
25 1 24.8856 12.2601 2.46427 
30 1 25.9436 15.6761 1.2279 
38 1 25.2007 14.4265 1.22781 
46 1 30.3419 17.4905 2.46484 
50 1 31.7601 17.2399 2.46541 
54 1 32.5017 17.08 1.22887 
ITEM: TIMESTEP
150
ITEM: NUMBER OF ATOMS
59
ITEM: BOX BOUNDS pp pp pp
0.0000000000000000e+00 3.2808000000000000e+01
0.0000000000000000e+00 1.7780000000000001e+01
0.0000000000000000e+00 2.4729999999999999e+00
ITEM: ATOMS id type x y z 
13 1 7.10952 0.805795 2.46492 
29 1 7.56739 1.33747 1.2284 
37 1 8.32395 2.58242 1.22814 
57 2 1.61713 1.01826 2.45264 
58 2 3.07 2.39501 2.61956 
59 3 2.46434 2.61892 1.93154 
1 1 6.16435 17.3786 2.4653 
5 1 5.35306 17.3465 1.22889 
9 1 3.93884 17.3378 1.22999 
16 1 7.1701 16.2219 2.46493 
32 1 7.63342 15.6932 1.22841 
40 1 8.3599 14.4278 1.22815 
45 1 3.22169 17.3769 2.46656 