ITEM: TIMESTEP
0
ITEM: NUMBER OF ATOMS
130
ITEM: BOX BOUNDS xy xz yz pp pp pp
0.0000000000000000e+00 2.3654499999999999e+01 7.8845000000000001e+00
0.0000000000000000e+00 1.3658086643083999e+01 0.0000000000000000e+00
0.0000000000000000e+00 2.5747000000000000e+01 0.0000000000000000e+00
ITEM: ATOMS id type x y z 
18 1 10.522 6.683 2.644 
28 1 5.247 4.273 12.803 
31 1 9.65 6.514 0.446 
62 1 9.171 5.15 12.405 
91 1 9.65 6.514 11.889 
92 1 10.81 6.18 11.007 
106 1 10.522 6.683 9.691 
127 1 10.81 6.18 1.328 
4 1 4.402 5.735 13.319 
5 1 3.307 5.568 14.201 
43 1 4.549 6.796 15.517 
52 1 9.172 5.15 25.677 
66 1 4.402 5.735 24.762 
67 1 5.003 6.76 23.881 
88 1 5.247 4.273 25.278 
107 1 3.307 5.568 23.881 
116 1 4.549 6.796 22.565 
117 1 5.003 6.76 14.201 
11 1 11.272 7.494 3.321 
12 1 10.477 8.871 4.018 
14 1 9.018 11.397 0.446 
15 1 10.114 11.565 1.328 
16 1 8.412 9.024 0.654 
19 1 10.477 8.871 5.569 
29 1 10.927 10.156 3.321 
32 1 8.77 7.648 1.328 
35 1 12.036 9.594 2.644 
45 1 9.231 8.963 3.321 
47 1 12.762 8.702 0.446 
49 1 11.224 11 0.654 
51 1 8.872 10.337 2.644 
53 1 11.272 7.494 9.014 
54 1 10.477 8.871 8.317 
56 1 9.018 11.397 11.889 
57 1 8.418 10.372 11.007 
58 1 11.224 11 11.681 
60 1 12.255 7.901 9.691 
61 1 10.477 8.871 6.766 
73 1 9.231 8.963 9.014 
75 1 12.762 8.702 11.889 
76 1 12.202 10.061 11.007 
79 1 9.224 7.617 9.691 
80 1 8.174 12.859 12.405 
89 1 10.927 10.156 9.014 
93 1 8.412 9.024 11.681 
95 1 9.951 11.095 9.691 
105 1 10.114 11.565 11.007 
109 1 8.77 7.648 11.007 
110 1 12.036 9.594 9.691 
114 1 8.872 10.337 9.691 
119 1 8.418 10.372 1.328 
120 1 12.255 7.901 2.644 
123 1 12.202 10.061 1.328 
124 1 9.224 7.617 2.644 
128 1 9.951 11.095 2.644 
6 1 5.009 8.108 13.527 
13 1 9.663 10.28 25.128 
17 1 9.204 8.965 25.162 
30 1 10.016 7.556 25.128 
34 1 11.289 7.464 25.162 
36 1 8.174 12.859 25.677 
46 1 11.752 8.777 25.128 
50 1 10.937 10.184 25.162 
55 1 9.663 10.28 12.954 
59 1 10.937 10.184 12.919 
74 1 11.752 8.777 12.954 
78 1 11.289 7.464 12.919 
90 1 10.016 7.556 12.954 
94 1 9.204 8.965 12.919 
101 1 5.009 8.108 24.555 
129 2 6.001 9.484 14.201 
130 3 6.977 9.484 14.201 
33 1 11.795 6.589 0.654 
77 1 11.795 6.589 11.681 
41 1 17.967 6.132 13.527 
68 1 17.967 6.132 24.554 
103 1 19.24 6.037 22.565 
126 1 19.24 6.037 15.517 
3 1 19.528 6.852 12.254 
7 1 19.987 8.167 12.289 
10 1 15.106 8.528 12.804 
22 1 19.175 9.576 12.254 
26 1 17.902 9.668 12.289 
38 1 17.439 8.356 12.254 
42 1 18.254 6.949 12.289 
44 1 20.019 11.982 12.804 
48 1 12.546 7.4 1.328 
65 1 19.528 6.852 0.081 
69 1 18.254 6.949 0.046 
82 1 17.439 8.356 0.081 
86 1 17.902 9.668 0.046 
96 1 14.084 8.604 12.405 
98 1 19.175 9.576 0.081 
102 1 19.987 8.167 0.046 
113 1 12.546 7.4 11.007 
1 1 17.919 9.638 16.194 
2 1 18.714 8.261 16.892 
8 1 18.669 10.449 15.517 
9 1 18.714 8.261 18.442 
20 1 14.084 8.604 25.677 
21 1 18.264 6.977 16.194 
23 1 19.541 10.618 13.32 
24 1 20.421 9.484 14.201 
25 1 17.396 10.544 13.527 
27 1 17.155 7.538 15.517 
37 1 19.96 8.169 16.194 
39 1 16.429 8.43 13.319 
40 1 16.644 9.732 14.201 
63 1 17.919 9.638 21.888 
64 1 18.714 8.261 21.19 
70 1 16.936 9.231 22.565 
71 1 18.714 8.261 19.64 
72 1 20.019 11.982 25.278 
81 1 19.96 8.169 21.888 
83 1 16.429 8.43 24.762 
84 1 16.989 7.071 23.881 
85 1 17.396 10.544 24.555 
87 1 19.967 9.515 22.565 
97 1 18.263 6.977 21.888 
99 1 19.541 10.618 24.762 
100 1 18.38 10.953 23.881 
104 1 15.106 8.528 25.278 
108 1 18.669 10.449 22.565 
111 1 20.421 9.484 23.881 
112 1 17.155 7.538 22.565 
115 1 16.644 9.732 23.881 
118 1 16.936 9.231 15.517 
121 1 16.989 7.071 14.201 
122 1 19.967 9.515 15.517 
125 1 18.38 10.953 14.201 
ITEM: TIMESTEP
10
ITEM: NUMBER OF ATOMS
130
ITEM: BOX BOUNDS xy xz yz pp pp pp
0.0000000000000000e+00 2.3654499999999999e+01 7.8845000000000001e+00
0.0000000000000000e+00 1.3658086643083999e+01 0.0000000000000000e+00
0.0000000000000000e+00 2.5747000000000000e+01 0.0000000000000000e+00
ITEM: ATOMS id type x y z 
18 1 10.4104 6.71937 2.65199 
28 1 5.1981 4.36839 12.8318 
31 1 9.51881 6.47136 0.430985 
62 1 9.16385 5.20077 12.3907 
91 1 9.51692 6.48021 11.9048 
92 1 10.8265 6.1644 10.9977 
106 1 10.4103 6.71921 9.6842 
127 1 10.8259 6.16397 1.3376 
4 1 4.41767 5.74283 13.2572 
5 1 3.23472 5.57476 14.1925 
43 1 4.56938 6.88334 15.5171 
52 1 9.16477 5.20067 25.6913 
66 1 4.42979 5.74545 24.8109 
67 1 5.06239 6.85786 23.9022 
88 1 5.19905 4.36829 25.2486 
107 1 3.22968 5.57065 23.8879 
116 1 4.56462 6.89509 22.5602 
117 1 5.05942 6.84953 14.1781 
11 1 11.3248 7.54433 3.33257 
12 1 10.4909 8.85824 4.0717 
14 1 8.995 11.3833 0.399802 
15 1 10.1891 11.558 1.3188 
16 1 8.44102 8.9772 0.689802 
19 1 10.4754 8.87074 5.55852 
29 1 10.9448 10.1498 3.32087 
32 1 8.75778 7.70311 1.29792 
35 1 12.0359 9.58421 2.58032 
45 1 9.21675 8.95524 3.27428 
47 1 12.7468 8.7642 0.514065 
49 1 11.2883 10.9285 0.685869 
51 1 8.8525 10.2399 2.646 
53 1 11.3252 7.54445 9.00274 
54 1 10.4891 8.85699 8.26331 
56 1 8.99193 11.3784 11.932 
57 1 8.37396 10.2763 11.0321 
58 1 11.2907 10.9316 11.6482 
60 1 12.2508 7.97734 9.6527 
61 1 10.4753 8.87073 6.77647 
73 1 9.2171 8.95528 9.06295 
75 1 12.7445 8.76515 11.8221 
76 1 12.1861 10.0505 11.0122 
79 1 9.24651 7.64324 9.73708 
80 1 8.22134 12.7649 12.376 
89 1 10.9454 10.1513 9.01255 
93 1 8.44611 8.9732 11.6447 
95 1 10.0037 11.0865 9.67501 
105 1 10.1863 11.5576 11.0149 
109 1 8.76227 7.71098 11.033 
110 1 12.0375 9.58315 9.75603 
114 1 8.84913 10.2389 9.69618 
119 1 8.36134 10.2788 1.30621 
120 1 12.2509 7.97775 2.68229 
123 1 12.1846 10.0533 1.32392 
124 1 9.2512 7.6418 2.60748 
128 1 10.0066 11.086 2.66169 
6 1 4.9653 8.08794 13.5332 
13 1 9.58677 10.3481 25.1314 
17 1 9.21309 8.98528 25.1659 
30 1 9.97398 7.62731 25.1101 
34 1 11.3318 7.46366 25.1279 
36 1 8.22147 12.765 25.7062 
46 1 11.6932 8.7961 25.1075 
50 1 10.9606 10.1191 25.1679 
55 1 9.58925 10.3303 12.9474 
59 1 10.961 10.124 12.914 
74 1 11.6991 8.80064 12.9723 
78 1 11.3265 7.46359 12.9546 
90 1 9.96466 7.63492 12.9694 
94 1 9.21404 8.97864 12.903 
101 1 4.97306 8.1404 24.5328 
129 2 5.97579 9.50187 14.2062 
130 3 6.98571 9.4855 14.2008 
33 1 11.7728 6.55496 0.658803 
77 1 11.7717 6.5552 11.675 
41 1 17.9005 6.20011 13.5595 
68 1 17.9019 6.20575 24.5252 
103 1 19.1832 6.0526 22.5428 
126 1 19.1962 6.04749 15.5311 
3 1 19.5961 6.79079 12.2645 
7 1 19.9693 8.16832 12.3005 
10 1 15.1498 8.49467 12.8266 
22 1 19.2123 9.50445 12.2358 
26 1 17.8642 9.65976 12.2306 
38 1 17.4928 8.32152 12.2474 
42 1 18.2249 7.0159 12.293 
44 1 20.0263 11.9421 12.8104 
48 1 12.5887 7.48141 1.37247 
65 1 19.61 6.78698 0.0805407 
69 1 18.2417 7.02206 0.0382078 
82 1 17.4989 8.3399 0.106667 
86 1 17.8533 9.66992 0.0762786 
96 1 14.0407 8.63668 12.3799 
98 1 19.2271 9.50371 0.0914499 
102 1 19.9686 8.12916 0.0324103 
113 1 12.5886 7.48199 10.9631 
1 1 17.861 9.58659 16.215 
2 1 18.69 8.27712 16.9579 
8 1 18.7985 10.3993 15.5288 
9 1 18.7142 8.26092 18.4338 
20 1 14.0382 8.63687 25.7039 
21 1 18.2603 6.99024 16.1968 
23 1 19.6393 10.675 13.2511 
24 1 20.566 9.46148 14.2087 
25 1 17.4208 10.5871 13.5375 
27 1 17.1516 7.54933 15.4535 
37 1 19.9597 8.17427 16.1464 
39 1 16.4509 8.36028 13.3755 
40 1 16.5979 9.65386 14.2469 
63 1 17.8689 9.58942 21.874 
64 1 18.7013 8.26983 21.1387 
70 1 16.9378 9.15119 22.5284 
71 1 18.7163 8.26146 19.6539 
72 1 20.0264 11.9328 25.2643 
81 1 19.9692 8.17476 21.9353 
83 1 16.4412 8.36861 24.6923 
84 1 17.0073 7.07645 23.8844 
85 1 17.418 10.5774 24.5548 
87 1 19.9319 9.48888 22.5868 
97 1 18.2509 6.98675 21.8919 
99 1 19.669 10.6703 24.7783 
100 1 18.3649 10.9695 23.8696 
104 1 15.1497 8.49509 25.2517 
108 1 18.7821 10.4112 22.5565 
111 1 20.4354 9.4328 23.9277 
112 1 17.1587 7.54735 22.6249 
115 1 16.6012 9.65201 23.8347 
118 1 16.9359 9.15162 15.5572 
121 1 17.0033 7.07966 14.1916 
122 1 19.9038 9.49296 15.5254 
125 1 18.3563 10.9727 14.2108 
ITEM: TIMESTEP
20
ITEM: NUMBER OF ATOMS
130
ITEM: BOX BOUNDS xy xz yz pp pp pp
0.0000000000000000e+00 2.3654499999999999e+01 7.8845000000000001e+00
0.0000000000000000e+00 1.3658086643083999e+01 0.0000000000000000e+00
0.0000000000000000e+00 2.5747000000000000e+01 0.0000000000000000e+00
ITEM: ATOMS id type x y z 
18 1 10.3808 6.77808 2.65147 
28 1 5.11223 4.54069 12.873 
31 1 9.42724 6.44091 0.410743 
62 1 9.12315 5.29554 12.3686 
91 1 9.40851 6.52844 11.9255 
92 1 10.8117 6.19285 10.9731 
106 1 10.3732 6.7787 9.69599 
127 1 10.8271 6.19044 1.37579 
4 1 4.424 5.75656 13.2367 
5 1 3.16712 5.64411 14.2172 
43 1 4.5659 6.96609 15.4801 
52 1 9.11133 5.23212 25.6908 
66 1 4.44144 5.7811 24.8214 
67 1 5.07929 6.92339 23.8797 
88 1 5.11479 4.54599 25.1996 
107 1 3.16494 5.63931 23.8745 
116 1 4.57039 6.96623 22.6041 
117 1 5.08056 6.9269 14.198 
11 1 11.3276 7.58021 3.36217 
12 1 10.4884 8.86528 4.11055 
14 1 8.97663 11.3531 0.391187 
15 1 10.2593 11.4947 1.33201 
16 1 8.3806 8.96269 0.69571 
19 1 10.4711 8.87076 5.56467 
29 1 10.9514 10.1388 3.34716 
32 1 8.7538 7.67655 1.19312 
35 1 12.0528 9.61124 2.60238 
45 1 9.22669 8.92942 3.27431 
47 1 12.665 8.7958 0.556493 
49 1 11.3278 10.9207 0.669774 
51 1 8.85219 10.1639 2.6075 
53 1 11.3212 7.57939 8.98133 
54 1 10.4774 8.85588 8.22888 
56 1 8.98539 11.3264 11.9504 
57 1 8.34107 10.1838 11.016 
58 1 11.3243 10.9243 11.6616 
60 1 12.2621 8.03167 9.60591 
61 1 10.4693 8.87025 6.77442 
73 1 9.2257 8.9372 9.07674 
75 1 12.6575 8.80056 11.7698 
76 1 12.2543 10.0668 11.0172 
79 1 9.21994 7.65975 9.7983 
80 1 8.30545 12.5844 12.3271 
89 1 10.9457 10.1415 8.98849 
93 1 8.40449 8.90514 11.6063 
95 1 10.0413 11.0554 9.69229 
105 1 10.2587 11.4904 11.0014 
109 1 8.73886 7.68874 11.0573 
110 1 12.0549 9.60853 9.73419 
114 1 8.85986 10.1683 9.72637 
119 1 8.33877 10.2044 1.32681 
120 1 12.2639 8.03328 2.72866 
123 1 12.2585 10.058 1.31687 
124 1 9.23613 7.65332 2.55307 
128 1 10.0423 11.0537 2.64774 
6 1 4.97051 8.1152 13.5493 
13 1 9.60069 10.3529 25.1177 
17 1 9.1798 9.00832 25.1 
30 1 9.90163 7.68085 25.1719 
34 1 11.2808 7.49656 25.1538 
36 1 8.30474 12.5891 25.754 
46 1 11.6858 8.80925 25.1178 
50 1 10.9481 10.1177 25.1491 
55 1 9.59225 10.3095 12.9597 
59 1 10.9485 10.1256 12.9285 
74 1 11.6985 8.82747 12.9614 
78 1 11.2697 7.48811 12.9664 
90 1 9.93163 7.68975 12.979 
94 1 9.21812 8.95522 12.944 
101 1 5.04393 8.1555 24.5142 
129 2 6.00123 9.54125 14.2265 
130 3 7.00768 9.49402 14.2021 
33 1 11.738 6.59884 0.679939 
77 1 11.7321 6.5996 11.6455 
41 1 17.8674 6.19503 13.5439 
68 1 17.8688 6.21389 24.5439 
103 1 19.156 6.07614 22.569 
126 1 19.1525 6.0855 15.5064 
3 1 19.5893 6.80294 12.2507 
7 1 19.9781 8.16565 12.2678 
10 1 15.1312 8.45828 12.8291 
22 1 19.2379 9.45426 12.2106 
26 1 17.9154 9.64562 12.2348 
38 1 17.5 8.30632 12.2401 
42 1 18.2354 7.00332 12.2684 
44 1 20.0568 11.8865 12.8016 
48 1 12.574 7.563 1.37446 
65 1 19.5781 6.77984 0.0872059 
69 1 18.2524 7.00779 0.0534289 
82 1 17.513 8.32303 0.0912754 
86 1 17.918 9.63517 0.0544461 
96 1 14.0546 8.66659 12.3724 
98 1 19.2844 9.44707 0.0166574 
102 1 20.0156 8.10727 0.118028 
113 1 12.5669 7.55825 10.9651 
1 1 17.8618 9.54991 16.2609 
2 1 18.6893 8.26107 16.9918 
8 1 18.8149 10.3343 15.5145 
9 1 18.716 8.26009 18.4346 
20 1 14.0494 8.67096 25.7119 
21 1 18.2399 6.97811 16.2299 
23 1 19.6947 10.7128 13.2144 
24 1 20.7116 9.47129 14.1958 
25 1 17.4838 10.5582 13.5333 
27 1 17.1308 7.5186 15.4808 
37 1 19.9592 8.19758 16.1612 
39 1 16.5264 8.30082 13.4105 
40 1 16.5843 9.59425 14.2503 
63 1 17.8638 9.55119 21.8438 
64 1 18.7065 8.27657 21.0956 
70 1 16.9241 9.09615 22.4805 
71 1 18.7214 8.26164 19.6518 
72 1 20.0827 11.9148 25.2699 
81 1 19.9638 8.204 21.9389 
83 1 16.5201 8.33743 24.6497 
84 1 16.9323 7.07705 23.8934 
85 1 17.4494 10.5351 24.5267 
87 1 19.9516 9.47262 22.6614 
97 1 18.2353 6.98679 21.8582 
99 1 19.7654 10.7076 24.7991 
100 1 18.3597 10.9435 23.8332 
104 1 15.1423 8.4616 25.2423 
108 1 18.8111 10.3567 22.5556 
111 1 20.428 9.45953 24.0169 
112 1 17.1338 7.52405 22.6111 
115 1 16.6145 9.56844 23.8352 
118 1 16.9235 9.08973 15.6337 
121 1 16.922 7.06028 14.1943 
122 1 19.9468 9.47427 15.4672 
125 1 18.3886 10.9549 14.2412 
ITEM: TIMESTEP
30
ITEM: NUMBER OF ATOMS
130
ITEM: BOX BOUNDS xy xz yz pp pp pp
0.0000000000000000e+00 2.3654499999999999e+01 7.8845000000000001e+00
0.0000000000000000e+00 1.3658086643083999e+01 0.0000000000000000e+00
0.0000000000000000e+00 2.5747000000000000e+01 0.0000000000000000e+00
ITEM: ATOMS id type x y z 
18 1 10.3713 6.80199 2.65048 
28 1 5.08916 4.59581 12.8819 
31 1 9.4007 6.4342 0.409264 
62 1 9.07889 5.29704 12.3743 
91 1 9.36976 6.54737 11.9375 
92 1 10.7971 6.20945 10.9605 
106 1 10.376 6.78828 9.69149 
127 1 10.8099 6.20585 1.38635 
4 1 4.42872 5.78235 13.2446 
5 1 3.11803 5.66616 14.2148 
43 1 4.56723 6.98533 15.4763 
52 1 9.06704 5.22544 25.679 
66 1 4.44619 5.7956 24.7982 
67 1 5.09787 6.97737 23.882 
88 1 5.08876 4.6107 25.1835 
107 1 3.12673 5.67204 23.8768 
116 1 4.56672 6.98385 22.61 
117 1 5.0921 6.96068 14.1992 
11 1 11.3329 7.59951 3.37914 
12 1 10.493 8.8511 4.1174 
14 1 8.97356 11.3348 0.41509 
15 1 10.2908 11.4562 1.33332 
16 1 8.36713 8.94737 0.666721 
19 1 10.468 8.87086 5.55864 
29 1 10.9514 10.1265 3.3547 
32 1 8.72179 7.68122 1.18578 
35 1 12.0657 9.63162 2.62412 
45 1 9.23747 8.91631 3.26019 
47 1 12.6696 8.81564 0.550385 
49 1 11.3521 10.9082 0.654945 
51 1 8.85917 10.1432 2.5965 
53 1 11.3257 7.59724 8.96525 
54 1 10.4849 8.84705 8.22485 
56 1 8.97601 11.3004 11.9301 
57 1 8.3311 10.1346 11.0102 
58 1 11.3565 10.9143 11.6785 
60 1 12.2706 8.05997 9.58615 
61 1 10.4652 8.86909 6.78243 
73 1 9.22635 8.9331 9.07035 
75 1 12.6642 8.82391 11.7718 
76 1 12.295 10.0885 10.9991 
79 1 9.20069 7.66025 9.7869 
80 1 8.33417 12.5114 12.31 
89 1 10.9511 10.1296 8.9841 
93 1 8.36694 8.90492 11.6317 
95 1 10.0501 11.0395 9.69028 
105 1 10.2865 11.4562 10.9984 
109 1 8.67079 7.66641 11.063 
110 1 12.0647 9.63158 9.7132 
114 1 8.86135 10.1572 9.74137 
119 1 8.32737 10.152 1.32731 
120 1 12.2728 8.06015 2.75087 
123 1 12.2981 10.0859 1.33024 
124 1 9.21741 7.67028 2.51193 
128 1 10.0435 11.0319 2.642 
6 1 4.98641 8.13335 13.5383 
13 1 9.59076 10.3491 25.071 
17 1 9.15885 9.0186 25.0986 
30 1 9.88265 7.71862 25.1793 
34 1 11.2454 7.5002 25.1603 
36 1 8.33115 12.5232 25.7709 
46 1 11.6677 8.81162 25.1172 
50 1 10.9494 10.1091 25.1494 
55 1 9.58775 10.3002 13.0051 
59 1 10.9513 10.1146 12.9349 
74 1 11.6895 8.82504 12.9709 
78 1 11.2618 7.50586 12.9542 
90 1 9.92698 7.70526 13.0221 
94 1 9.20009 8.96466 12.9536 
101 1 5.05447 8.17912 24.5469 
129 2 6.05481 9.56806 14.2395 
130 3 7.04315 9.50194 14.2056 
33 1 11.7208 6.62947 0.69689 
77 1 11.7115 6.6328 11.6461 
41 1 17.8305 6.21562 13.5321 
68 1 17.8398 6.22807 24.5504 
103 1 19.1475 6.10178 22.5643 
126 1 19.1465 6.10326 15.517 
3 1 19.5866 6.80696 12.2125 
7 1 19.9871 8.15697 12.2521 
10 1 15.1335 8.44501 12.8368 
22 1 19.2556 9.44598 12.1931 
26 1 17.9253 9.63274 12.2423 
38 1 17.504 8.30386 12.2458 
42 1 18.23 7.0075 12.2646 
44 1 20.0922 11.8958 12.778 
48 1 12.5575 7.59584 1.39625 
65 1 19.5979 6.78211 0.135533 
69 1 18.2377 7.01946 0.0599812 
82 1 17.5204 8.31816 0.0842468 
86 1 17.9529 9.62888 0.0460105 
96 1 14.0564 8.68068 12.3661 
98 1 19.3108 9.40664 0.0209845 
102 1 20.0348 8.11206 0.115771 
113 1 12.5496 7.59316 10.9434 
1 1 17.8455 9.52939 16.2628 
2 1 18.674 8.27211 16.9985 
8 1 18.8216 10.2979 15.5115 
9 1 18.7171 8.25824 18.4332 
20 1 14.0579 8.68465 25.713 
21 1 18.2264 6.99621 16.2292 
23 1 19.7161 10.6976 13.2128 
24 1 20.7395 9.49502 14.1891 
25 1 17.4797 10.4999 13.5663 
27 1 17.1252 7.50089 15.494 
37 1 19.9504 8.20534 16.1547 
39 1 16.5294 8.30533 13.4274 
40 1 16.6543 9.53462 14.2604 
63 1 17.8576 9.53339 21.8308 
64 1 18.6973 8.28702 21.0951 
70 1 16.9182 9.07081 22.4582 
71 1 18.7251 8.26298 19.6586 
72 1 20.1249 11.9131 25.2788 
81 1 19.9537 8.2127 21.9512 
83 1 16.521 8.3155 24.6575 
84 1 16.8953 7.05066 23.8843 
85 1 17.4679 10.5021 24.5097 
87 1 19.9663 9.46144 22.7002 
97 1 18.2368 7.00308 21.8588 
99 1 19.7865 10.7172 24.8004 
100 1 18.3828 10.9295 23.823 
104 1 15.1343 8.44733 25.2418 
108 1 18.8163 10.3316 22.5588 
111 1 20.4722 9.45204 24.0212 
112 1 17.128 7.50128 22.5864 
115 1 16.6306 9.5347 23.8137 
118 1 16.9135 9.07214 15.6228 
121 1 16.8906 7.04368 14.2106 
122 1 19.9681 9.46097 15.4502 
125 1 18.4006 10.9304 14.2435 
ITEM: TIMESTEP
40
ITEM: NUMBER OF ATOMS
130
ITEM: BOX BOUNDS xy xz yz pp pp pp
0.0000000000000000e+00 2.3654499999999999e+01 7.8845000000000001e+00
0.0000000000000000e+00 1.3658086643083999e+01 0.0000000000000000e+00
0.0000000000000000e+00 2.5747000000000000e+01 0.0000000000000000e+00
ITEM: ATOMS id type x y z 
18 1 10.3738 6.8068 2.64837 
28 1 5.0941 4.59452 12.8801 
31 1 9.40967 6.43946 0.41734 
62 1 9.0523 5.29212 12.3778 
91 1 9.37615 6.56735 11.9354 
92 1 10.7791 6.22631 10.9665 
106 1 10.3725 6.79709 9.69025 
127 1 10.7914 6.21325 1.3802 
4 1 4.40736 5.8107 13.2695 
5 1 3.13221 5.68319 14.2006 
43 1 4.56399 6.97136 15.483 
52 1 9.04139 5.21944 25.6707 
66 1 4.42641 5.8295 24.7814 
67 1 5.09119 6.97737 23.8929 
88 1 5.09541 4.60829 25.183 
107 1 3.13956 5.68499 23.8812 
116 1 4.5655 6.97841 22.6103 
117 1 5.07648 6.95421 14.1864 
11 1 11.3348 7.59924 3.38014 
12 1 10.4959 8.83735 4.10543 
14 1 8.99413 11.3011 0.427062 
15 1 10.2809 11.4451 1.3264 
16 1 8.35993 8.93622 0.643917 
19 1 10.466 8.86934 5.56064 
29 1 10.953 10.1238 3.34716 
32 1 8.70222 7.67387 1.18605 
35 1 12.0775 9.64288 2.62463 
45 1 9.23686 8.91691 3.25335 
47 1 12.6908 8.83211 0.541982 
49 1 11.3651 10.8976 0.652283 
51 1 8.85927 10.1512 2.59853 
53 1 11.3285 7.59494 8.96435 
54 1 10.4894 8.83676 8.23568 
56 1 8.99204 11.2729 11.9165 
57 1 8.33688 10.1375 11.0208 
58 1 11.3647 10.9025 11.6818 
60 1 12.2707 8.06716 9.58602 
61 1 10.4637 8.86787 6.77999 
73 1 9.22822 8.92947 9.07311 
75 1 12.6909 8.83697 11.7875 
76 1 12.302 10.095 10.9923 
79 1 9.19177 7.65591 9.78926 
80 1 8.33061 12.5055 12.3088 
89 1 10.9517 10.1255 8.98861 
93 1 8.35873 8.89049 11.6536 
95 1 10.0432 11.0357 9.68903 
105 1 10.2788 11.4425 11.011 
109 1 8.65037 7.65555 11.0627 
110 1 12.0765 9.64254 9.70914 
114 1 8.86229 10.1614 9.73695 
119 1 8.33003 10.1548 1.31687 
120 1 12.2748 8.06813 2.75249 
123 1 12.3028 10.0898 1.34009 
124 1 9.21162 7.66939 2.50896 
128 1 10.0407 11.0277 2.64544 
6 1 5.00112 8.15374 13.5229 
13 1 9.5823 10.3543 25.0553 
17 1 9.15358 9.0239 25.104 
30 1 9.87284 7.71245 25.1775 
34 1 11.2392 7.50407 25.1608 
36 1 8.32531 12.524 25.7721 
46 1 11.6633 8.80877 25.1239 
50 1 10.9457 10.104 25.1546 
55 1 9.58002 10.311 13.0174 
59 1 10.9506 10.1044 12.9297 
74 1 11.6857 8.82354 12.9654 
78 1 11.2618 7.50438 12.9562 
90 1 9.92295 7.69915 13.028 
94 1 9.19193 8.96816 12.9468 
101 1 5.05834 8.19675 24.5645 
129 2 6.08115 9.58152 14.2432 
130 3 7.07342 9.50764 14.2101 
33 1 11.7155 6.64662 0.704447 
77 1 11.7068 6.64662 11.638 
41 1 17.8186 6.2226 13.5305 
68 1 17.8281 6.23628 24.5569 
103 1 19.1504 6.10325 22.5639 
126 1 19.151 6.10372 15.5174 
3 1 19.5917 6.79698 12.187 
7 1 19.9856 8.15922 12.2579 
10 1 15.1399 8.44487 12.8398 
22 1 19.2601 9.44852 12.192 
26 1 17.9288 9.63454 12.2406 
38 1 17.5092 8.30585 12.2475 
42 1 18.2284 7.01479 12.2723 
44 1 20.1046 11.8799 12.7729 
48 1 12.5447 7.60588 1.40497 
65 1 19.6083 6.77481 0.153086 
69 1 18.2447 7.02665 0.0555496 
82 1 17.5278 8.32304 0.0814439 
86 1 17.9553 9.62933 0.0444075 
96 1 14.0539 8.68089 12.3642 
98 1 19.3193 9.41531 0.0279546 
102 1 20.038 8.10607 0.106723 
113 1 12.5364 7.60504 10.935 
1 1 17.8445 9.52888 16.261 
2 1 18.6696 8.28458 16.986 
8 1 18.8216 10.2957 15.5121 
9 1 18.7177 8.25909 18.4368 
20 1 14.0517 8.68437 25.7141 
21 1 18.2288 7.00217 16.2238 
23 1 19.7234 10.6953 13.2155 
24 1 20.728 9.51 14.1778 
25 1 17.4847 10.4861 13.5729 
27 1 17.1101 7.48573 15.4997 
37 1 19.9506 8.20394 16.1483 
39 1 16.5023 8.29325 13.4144 
40 1 16.6618 9.52216 14.2682 
63 1 17.8546 9.53572 21.8298 
64 1 18.6953 8.29757 21.1092 
70 1 16.9159 9.06412 22.4576 
71 1 18.7264 8.26369 19.6572 
72 1 20.1492 11.9139 25.2857 
81 1 19.9559 8.21329 21.9607 
83 1 16.4991 8.30096 24.6662 
84 1 16.887 7.04436 23.8704 
85 1 17.476 10.4841 24.5026 
87 1 19.9752 9.46088 22.7052 
97 1 18.2387 7.00742 21.8645 
99 1 19.7771 10.7029 24.7874 
100 1 18.4017 10.9234 23.8309 
104 1 15.1388 8.44676 25.2418 
108 1 18.8157 10.3267 22.562 
111 1 20.491 9.45651 24.0236 
112 1 17.1138 7.48946 22.585 
115 1 16.6438 9.52719 23.8037 
118 1 16.9116 9.06675 15.6239 
121 1 16.8826 7.038 14.2143 
122 1 19.9754 9.4605 15.4536 
125 1 18.42 10.915 14.2336 
ITEM: TIMESTEP
50
ITEM: NUMBER OF ATOMS
130
ITEM: BOX BOUNDS xy xz yz pp pp pp
0.0000000000000000e+00 2.3654499999999999e+01 7.8845000000000001e+00
0.0000000000000000e+00 1.3658086643083999e+01 0.0000000000000000e+00
0.0000000000000000e+00 2.5747000000000000e+01 0.0000000000000000e+00
ITEM: ATOMS id type x y z 
18 1 10.3613 6.83223 2.64588 
28 1 5.08738 4.63422 12.8938 
31 1 9.38442 6.42813 0.42472 
62 1 8.95482 5.30565 12.3831 
91 1 9.34889 6.59023 11.9458 
92 1 10.7273 6.2819 10.982 
106 1 10.3508 6.82784 9.68706 
127 1 10.7512 6.23779 1.36769 
4 1 4.37457 5.87645 13.252 
5 1 3.12625 5.71263 14.1939 
43 1 4.56481 6.96119 15.4889 
52 1 8.94795 5.22475 25.6482 
66 1 4.4069 5.88331 24.7947 
67 1 5.09093 7.00638 23.9115 
88 1 5.10113 4.63693 25.1664 
107 1 3.13035 5.72092 23.8857 
116 1 4.56777 6.97803 22.6189 
117 1 5.04899 7.001 14.1691 
11 1 11.3369 7.61119 3.38827 
12 1 10.4918 8.81922 4.09395 
14 1 9.01325 11.248 0.414247 
15 1 10.2927 11.4116 1.32536 
16 1 8.32333 8.90981 0.615936 
19 1 10.4582 8.86062 5.55859 
29 1 10.9606 10.1059 3.34423 
32 1 8.6558 7.65239 1.16895 
35 1 12.1168 9.66766 2.64651 
45 1 9.233 8.91493 3.23705 
47 1 12.6988 8.86974 0.548084 
49 1 11.3803 10.8766 0.652739 
51 1 8.85246 10.1496 2.59075 
53 1 11.3303 7.60471 8.95444 
54 1 10.4955 8.82095 8.24008 
56 1 9.00956 11.2208 11.9244 
57 1 8.34038 10.0977 11.0326 
58 1 11.3798 10.8751 11.6858 
60 1 12.2684 8.10392 9.56881 
61 1 10.4588 8.86082 6.77603 
73 1 9.22935 8.91929 9.07894 
75 1 12.7 8.87456 11.79 
76 1 12.3461 10.1177 10.9779 
79 1 9.15095 7.64783 9.79759 
80 1 8.32373 12.4692 12.2973 
89 1 10.9576 10.1107 8.99213 
93 1 8.32144 8.85811 11.6803 
95 1 10.0388 11.012 9.69187 
105 1 10.2867 11.4067 11.0172 
109 1 8.58917 7.63173 11.0696 
110 1 12.112 9.66792 9.68983 
114 1 8.85439 10.1481 9.7394 
119 1 8.33101 10.1242 1.30115 
120 1 12.2766 8.10523 2.77337 
123 1 12.3459 10.114 1.35499 
124 1 9.18785 7.66877 2.48665 
128 1 10.0414 11.009 2.64861 
6 1 5.04847 8.19963 13.5025 
13 1 9.56811 10.3525 25.0201 
17 1 9.13914 9.01826 25.0864 
30 1 9.84853 7.71318 25.1813 
34 1 11.2161 7.50548 25.1642 
36 1 8.32 12.4942 25.7888 
46 1 11.642 8.80672 25.1405 
50 1 10.9296 10.0987 25.1535 
55 1 9.56821 10.307 13.0517 
59 1 10.9364 10.0928 12.9285 
74 1 11.6832 8.81579 12.9564 
78 1 11.2552 7.49696 12.9627 
90 1 9.91616 7.70165 13.0456 
94 1 9.18406 8.96081 12.9537 
101 1 5.0969 8.22137 24.5945 
129 2 6.13979 9.63937 14.2571 
130 3 7.14392 9.53256 14.2297 
33 1 11.6917 6.69203 0.722613 
77 1 11.684 6.69363 11.6238 
41 1 17.7959 6.23944 13.5276 
68 1 17.8075 6.25439 24.5562 
103 1 19.1514 6.12069 22.5598 
126 1 19.1426 6.11754 15.521 
3 1 19.5887 6.8073 12.126 
7 1 19.9885 8.14954 12.2601 
10 1 15.1395 8.4341 12.8386 
22 1 19.2759 9.43487 12.1709 
26 1 17.9428 9.63093 12.24 
38 1 17.5111 8.30872 12.2515 
42 1 18.2321 7.01693 12.279 
44 1 20.1699 11.8683 12.7375 
48 1 12.5249 7.65445 1.41522 
65 1 19.6228 6.77976 0.18953 
69 1 18.2611 7.03333 0.0545169 
82 1 17.5511 8.32551 0.0693379 
86 1 17.9751 9.62467 0.0447064 
96 1 14.0576 8.69233 12.3664 
98 1 19.3441 9.42122 0.0294968 
102 1 20.0529 8.11294 0.121841 
113 1 12.5167 7.6547 10.9289 
1 1 17.8482 9.50964 16.2596 
2 1 18.6765 8.30042 16.9759 
8 1 18.8397 10.2746 15.5131 
9 1 18.7205 8.26617 18.4389 
20 1 14.0517 8.69142 25.7124 
21 1 18.218 7.01662 16.2194 
23 1 19.7736 10.6493 13.2249 
24 1 20.7798 9.53717 14.1728 
25 1 17.5077 10.4366 13.5853 
27 1 17.0649 7.4568 15.5186 
37 1 19.9514 8.2048 16.1352 
39 1 16.4985 8.25791 13.4152 
40 1 16.6736 9.47814 14.2767 
63 1 17.8522 9.52513 21.8233 
64 1 18.7009 8.31481 21.1185 
70 1 16.9121 9.0279 22.436 
71 1 18.7306 8.26952 19.6565 
72 1 20.242 11.9054 25.3077 
81 1 19.9611 8.21793 21.9733 
83 1 16.4913 8.26444 24.6598 
84 1 16.8457 7.01694 23.8535 
85 1 17.4999 10.4423 24.4858 
87 1 20.0038 9.46539 22.722 
97 1 18.2307 7.02449 21.8676 
99 1 19.8067 10.701 24.783 
100 1 18.4363 10.898 23.8391 
104 1 15.138 8.43909 25.2443 
108 1 18.8299 10.302 22.5639 
111 1 20.536 9.48523 24.0454 
112 1 17.0739 7.46482 22.5633 
115 1 16.6657 9.4794 23.7945 
118 1 16.91 9.02712 15.6391 
121 1 16.8357 7.0144 14.2309 
122 1 20.0091 9.463 15.4326 
125 1 18.457 10.8719 14.2274 
ITEM: TIMESTEP
60
ITEM: NUMBER OF ATOMS
130
ITEM: BOX BOUNDS xy xz yz pp pp pp
0.0000000000000000e+00 2.3654499999999999e+01 7.8845000000000001e+00
0.0000000000000000e+00 1.3658086643083999e+01 0.0000000000000000e+00
0.0000000000000000e+00 2.5747000000000000e+01 0.0000000000000000e+00
ITEM: ATOMS id type x y z 
18 1 10.3588 6.83545 2.64446 
28 1 5.08493 4.64547 12.8966 
31 1 9.37334 6.42719 0.420625 
62 1 8.93604 5.31067 12.3849 
91 1 9.33633 6.58729 11.9487 
92 1 10.7224 6.28787 10.9821 
106 1 10.3473 6.83193 9.68855 
127 1 10.7489 6.2416 1.36929 
4 1 4.37719 5.87289 13.2447 
5 1 3.11968 5.71622 14.1939 
43 1 4.56648 6.96662 15.4799 
52 1 8.9311 5.23131 25.6462 
66 1 4.41219 5.87972 24.7978 
67 1 5.09267 7.01302 23.9118 
88 1 5.10234 4.64316 25.1632 
107 1 3.12686 5.72339 23.8847 
116 1 4.57231 6.98285 22.6242 
117 1 5.05527 7.00728 14.1695 
11 1 11.3352 7.61225 3.38586 
12 1 10.4907 8.81951 4.09733 
14 1 9.00883 11.2519 0.412384 
15 1 10.2938 11.4081 1.32512 
16 1 8.32109 8.90811 0.612493 
19 1 10.4564 8.85842 5.5581 
29 1 10.9596 10.1044 3.3435 
32 1 8.65077 7.64801 1.16637 
35 1 12.1191 9.67325 2.64789 
45 1 9.23145 8.91389 3.23564 
47 1 12.697 8.873 0.548005 
49 1 11.3814 10.8741 0.653973 
51 1 8.84911 10.1475 2.5862 
53 1 11.3283 7.6069 8.9562 
54 1 10.4943 8.82142 8.23665 
56 1 9.00533 11.2206 11.9289 
57 1 8.33639 10.0918 11.0334 
58 1 11.3816 10.8751 11.6839 
60 1 12.2684 8.10618 9.56747 
61 1 10.4579 8.85862 6.77561 
73 1 9.22765 8.91854 9.07868 
75 1 12.6987 8.87821 11.7879 
76 1 12.3496 10.1212 10.9754 
79 1 9.14387 7.64893 9.79804 
80 1 8.32149 12.4626 12.2954 
89 1 10.9563 10.1083 8.99295 
93 1 8.31742 8.85651 11.6805 
95 1 10.0395 11.0087 9.69394 
105 1 10.2881 11.4022 11.0166 
109 1 8.58446 7.63021 11.0697 
110 1 12.1145 9.67298 9.68798 
114 1 8.8515 10.1444 9.74377 
119 1 8.32849 10.1183 1.29871 
120 1 12.2768 8.10806 2.77508 
123 1 12.3489 10.1182 1.35843 
124 1 9.18387 7.6698 2.48476 
128 1 10.042 11.0064 2.64559 
6 1 5.04421 8.20106 13.5002 
13 1 9.5669 10.3474 25.0193 
17 1 9.13515 9.01703 25.0813 
30 1 9.84787 7.71191 25.182 
34 1 11.2147 7.5036 25.1648 
36 1 8.31898 12.4876 25.7921 
46 1 11.6397 8.80654 25.1418 
50 1 10.9266 10.0965 25.1512 
55 1 9.57008 10.299 13.0494 
59 1 10.9387 10.0912 12.9329 
74 1 11.6817 8.81742 12.9585 
78 1 11.2557 7.49937 12.965 
90 1 9.91553 7.69808 13.0476 
94 1 9.17921 8.9571 12.9594 
101 1 5.09958 8.2238 24.5973 
129 2 6.14914 9.64277 14.2569 
130 3 7.14788 9.54083 14.2357 
33 1 11.6885 6.69553 0.724311 
77 1 11.6806 6.70024 11.6232 
41 1 17.7954 6.24281 13.5298 
68 1 17.8087 6.25758 24.5553 
103 1 19.1503 6.12409 22.5643 
126 1 19.143 6.12017 15.5167 
3 1 19.5926 6.80251 12.1363 
7 1 19.9939 8.15686 12.2539 
10 1 15.1396 8.43102 12.839 
22 1 19.2735 9.44144 12.1756 
26 1 17.9421 9.63352 12.2376 
38 1 17.5139 8.30934 12.2509 
42 1 18.2335 7.02223 12.2727 
44 1 20.1783 11.8464 12.7391 
48 1 12.5218 7.65773 1.41701 
65 1 19.6237 6.78466 0.189908 
69 1 18.2646 7.03502 0.0567692 
82 1 17.5521 8.32545 0.0674103 
86 1 17.9767 9.62812 0.0433644 
96 1 14.0584 8.69518 12.3659 
98 1 19.344 9.42118 0.0294118 
102 1 20.0557 8.11434 0.127522 
113 1 12.5151 7.65829 10.9264 
1 1 17.8508 9.5072 16.2581 
2 1 18.6741 8.30075 16.9809 
8 1 18.8457 10.2686 15.5108 
9 1 18.7216 8.26804 18.4384 
20 1 14.0534 8.69338 25.7129 
21 1 18.2189 7.0183 16.2181 
23 1 19.7833 10.6514 13.2157 
24 1 20.7934 9.54218 14.1708 
25 1 17.5117 10.4328 13.5875 
27 1 17.0631 7.4535 15.5214 
37 1 19.9529 8.20523 16.133 
39 1 16.4982 8.25475 13.4173 
40 1 16.6753 9.47394 14.278 
63 1 17.8536 9.52254 21.8253 
64 1 18.7019 8.31459 21.1155 
70 1 16.913 9.02495 22.4341 
71 1 18.732 8.27179 19.6572 
72 1 20.2593 11.8999 25.31 
81 1 19.9615 8.21804 21.9766 
83 1 16.4932 8.25998 24.6606 
84 1 16.8418 7.01364 23.8504 
85 1 17.5017 10.4384 24.4852 
87 1 20.0081 9.46288 22.7252 
97 1 18.2323 7.02711 21.8678 
99 1 19.8173 10.7043 24.7884 
100 1 18.44 10.8938 23.8385 
104 1 15.1369 8.43737 25.2434 
108 1 18.8329 10.2984 22.5646 
111 1 20.5417 9.486 24.0441 
112 1 17.0722 7.45992 22.5621 
115 1 16.6684 9.47565 23.7925 
118 1 16.9107 9.02293 15.6405 
121 1 16.8323 7.00808 14.2324 
122 1 20.0109 9.45908 15.4319 
125 1 18.4661 10.8649 14.2233 
ITEM: TIMESTEP
70
ITEM: NUMBER OF ATOMS
130
ITEM: BOX BOUNDS xy xz yz pp pp pp
0.0000000000000000e+00 2.3654499999999999e+01 7.8845000000000001e+00
0.0000000000000000e+00 1.3658086643083999e+01 0.0000000000000000e+00
0.0000000000000000e+00 2.5747000000000000e+01 0.0000000000000000e+00
ITEM: ATOMS id type x y z 
18 1 10.3423 6.84844 2.64013 
28 1 5.09096 4.67193 12.9021 
31 1 9.33207 6.43043 0.408806 
62 1 8.83265 5.33501 12.3952 
91 1 9.29386 6.58469 11.9606 
92 1 10.6901 6.31969 10.9933 
106 1 10.3262 6.85168 9.69478 
127 1 10.7274 6.25799 1.36681 
4 1 4.38733 5.87472 13.2509 
5 1 3.10696 5.73495 14.1861 
43 1 4.57308 6.98341 15.4518 
52 1 8.83562 5.25725 25.6315 
66 1 4.42406 5.88262 24.8028 
67 1 5.10579 7.03521 23.9278 
88 1 5.11623 4.66466 25.1501 
107 1 3.12537 5.73758 23.8925 
116 1 4.58698 6.99474 22.6435 
117 1 5.07236 7.02592 14.1505 
11 1 11.3297 7.62171 3.37803 
12 1 10.4825 8.81784 4.09834 
14 1 8.99668 11.2481 0.407211 
15 1 10.295 11.3922 1.31702 
16 1 8.30706 8.89553 0.58961 
19 1 10.4469 8.84708 5.555 
29 1 10.955 10.0985 3.33955 
32 1 8.62121 7.63202 1.15371 
35 1 12.1305 9.69175 2.65786 