ITEM: TIMESTEP
0
ITEM: NUMBER OF ATOMS
58
ITEM: BOX BOUNDS pp pp pp
0.0000000000000000e+00 3.2808000000000000e+01
0.0000000000000000e+00 1.7780000000000001e+01
0.0000000000000000e+00 2.4729999999999999e+00
ITEM: ATOMS id type x y z 
13 1 7.043 0.849 2.464 
29 1 7.397 1.432 1.228 
37 1 8.035 2.733 1.228 
57 2 1.083 0.968 1.228 
58 3 1.083 1.944 1.228 
1 1 6.173 17.398 2.464 
5 1 5.371 17.398 1.228 
9 1 3.973 17.398 1.228 
16 1 7.043 16.167 2.464 
32 1 7.397 15.584 1.228 
40 1 8.035 14.283 1.228 
45 1 3.236 17.398 2.464 
49 1 1.81 17.398 2.464 
53 1 1.083 17.398 1.228 
4 1 10.968 8.508 2.464 
8 1 11.771 8.508 1.228 
12 1 13.168 8.508 1.228 
18 1 10.098 7.277 2.464 
21 1 8.308 3.392 2.464 
26 1 8.833 4.734 2.464 
34 1 9.745 6.694 1.228 
42 1 9.106 5.393 1.228 
48 1 13.906 8.508 2.464 
52 1 15.331 8.508 2.464 
56 1 16.058 8.508 1.228 
19 1 10.098 9.739 2.464 
24 1 8.308 13.624 2.464 
27 1 8.833 12.282 2.464 
35 1 9.745 10.322 1.228 
43 1 9.106 11.623 1.228 
3 1 22.577 8.508 2.464 
7 1 21.775 8.508 1.228 
11 1 20.377 8.508 1.228 
20 1 23.447 7.277 2.464 
36 1 23.801 6.694 1.228 
44 1 24.439 5.393 1.228 
47 1 19.64 8.508 2.464 
51 1 18.214 8.508 2.464 
55 1 17.487 8.508 1.228 
17 1 23.447 9.739 2.464 
33 1 23.801 10.322 1.228 
41 1 24.439 11.623 1.228 
15 1 26.502 0.849 2.464 
23 1 25.237 3.392 2.464 
28 1 24.712 4.734 2.464 
31 1 26.149 1.432 1.228 
39 1 25.511 2.733 1.228 
2 1 27.373 17.398 2.464 
6 1 28.175 17.398 1.228 
10 1 29.572 17.398 1.228 
14 1 26.502 16.167 2.464 
22 1 25.237 13.624 2.464 
25 1 24.712 12.282 2.464 
30 1 26.149 15.584 1.228 
38 1 25.511 14.283 1.228 
46 1 30.31 17.398 2.464 
50 1 31.735 17.398 2.464 
54 1 32.462 17.398 1.228 
ITEM: TIMESTEP
10
ITEM: NUMBER OF ATOMS
58
ITEM: BOX BOUNDS pp pp pp
0.0000000000000000e+00 3.2808000000000000e+01
0.0000000000000000e+00 1.7780000000000001e+01
0.0000000000000000e+00 2.4729999999999999e+00
ITEM: ATOMS id type x y z 
13 1 7.05486 0.852448 2.46422 
29 1 7.40503 1.43903 1.22777 
37 1 8.03939 2.7385 1.22778 
57 2 1.08104 0.9808 1.22812 
58 3 1.08263 1.96663 1.22788 
1 1 6.18343 17.398 2.46424 
5 1 5.38702 17.3986 1.22776 
9 1 3.99624 17.3994 1.22777 
16 1 7.05482 16.1635 2.46422 
32 1 7.40501 15.577 1.22777 
40 1 8.03937 14.2775 1.22778 
45 1 3.23769 17.393 2.46424 
49 1 1.85045 17.3206 2.46425 
53 1 1.08554 17.4815 1.22775 
4 1 10.9754 8.50801 2.46424 
8 1 11.7746 8.508 1.22775 
12 1 13.1704 8.508 1.22777 
18 1 10.0982 7.27902 2.46422 
21 1 8.31139 3.39986 2.46422 
26 1 8.83467 4.7383 2.46422 
34 1 9.74381 6.69481 1.22778 
42 1 9.10881 5.40034 1.22778 
48 1 13.9076 8.508 2.46423 
52 1 15.3353 8.508 2.46423 
56 1 16.0588 8.508 1.22777 
19 1 10.0982 9.73699 2.46422 
24 1 8.31138 13.6162 2.46422 
27 1 8.83467 12.2777 2.46422 
35 1 9.74381 10.3212 1.22778 
43 1 9.10881 11.6157 1.22778 
3 1 22.5729 8.508 2.46424 
7 1 21.7728 8.508 1.22775 
11 1 20.3759 8.508 1.22777 
20 1 23.4468 7.27825 2.46422 
36 1 23.8005 6.69586 1.22778 
44 1 24.4366 5.39828 1.22778 
47 1 19.6384 8.508 2.46423 
51 1 18.2127 8.508 2.46423 
55 1 17.4876 8.508 1.22777 
17 1 23.4468 9.73775 2.46422 
33 1 23.8005 10.3201 1.22778 
41 1 24.4366 11.6177 1.22778 
15 1 26.4932 0.852157 2.46422 
23 1 25.2351 3.39736 2.46422 
28 1 24.7108 4.73647 2.46422 
31 1 26.1433 1.4373 1.22778 
39 1 25.5084 2.73651 1.22778 
2 1 27.359 17.398 2.46424 
6 1 28.1618 17.398 1.22776 
10 1 29.5579 17.3982 1.22777 
14 1 26.4932 16.1638 2.46422 
22 1 25.2351 13.6186 2.46422 
25 1 24.7108 12.2795 2.46422 
30 1 26.1433 15.5787 1.22778 
38 1 25.5084 14.2795 1.22778 
46 1 30.2923 17.3984 2.46423 
50 1 31.7275 17.3934 2.46423 
54 1 32.4103 17.3634 1.22776 
ITEM: TIMESTEP
20
ITEM: NUMBER OF ATOMS
58
ITEM: BOX BOUNDS pp pp pp
0.0000000000000000e+00 3.2808000000000000e+01
0.0000000000000000e+00 1.7780000000000001e+01
0.0000000000000000e+00 2.4729999999999999e+00
ITEM: ATOMS id type x y z 
13 1 7.05446 0.849711 2.46425 
29 1 7.40434 1.43364 1.22775 
37 1 8.03921 2.73718 1.22775 
57 2 1.08269 0.960178 1.22856 
58 3 1.08208 1.96633 1.22761 
1 1 6.18437 17.398 2.46425 
5 1 5.37897 17.3996 1.22775 
9 1 3.98935 17.3992 1.22775 
16 1 7.05423 16.1662 2.46425 
32 1 7.40421 15.5824 1.22775 
40 1 8.03914 14.2789 1.22775 
45 1 3.22806 17.3815 2.46425 
49 1 1.8449 17.3131 2.46422 
53 1 1.09071 17.5333 1.22763 
4 1 10.9725 8.50805 2.46425 
8 1 11.7751 8.50801 1.22775 
12 1 13.1712 8.508 1.22775 
18 1 10.0974 7.28046 2.46425 
21 1 8.31054 3.39702 2.46425 
26 1 8.83362 4.73646 2.46425 
34 1 9.74275 6.69719 1.22775 
42 1 9.10705 5.39927 1.22775 
48 1 13.9074 8.508 2.46425 
52 1 15.3345 8.508 2.46425 
56 1 16.059 8.508 1.22775 
19 1 10.0974 9.73559 2.46425 
24 1 8.31051 13.6191 2.46425 
27 1 8.83359 12.2796 2.46425 
35 1 9.74273 10.3189 1.22775 
43 1 9.10704 11.6168 1.22775 
3 1 22.574 8.508 2.46425 
7 1 21.7721 8.508 1.22775 
11 1 20.3759 8.508 1.22775 
20 1 23.448 7.27953 2.46425 
36 1 23.802 6.69664 1.22775 
44 1 24.4381 5.39716 1.22775 
47 1 19.6391 8.508 2.46425 
51 1 18.2139 8.508 2.46425 
55 1 17.4889 8.508 1.22775 
17 1 23.448 9.73647 2.46425 
33 1 23.802 10.3194 1.22775 
41 1 24.4381 11.6188 1.22775 
15 1 26.493 0.84969 2.46425 
23 1 25.2356 3.39586 2.46425 
28 1 24.7113 4.73578 2.46425 
31 1 26.143 1.43387 1.22775 
39 1 25.5082 2.73567 1.22775 
2 1 27.3632 17.398 2.46425 
6 1 28.1642 17.3981 1.22775 
10 1 29.5634 17.3987 1.22775 
14 1 26.493 16.1663 2.46425 
22 1 25.2356 13.6201 2.46425 
25 1 24.7113 12.2802 2.46425 
30 1 26.143 15.5821 1.22775 
38 1 25.5082 14.2803 1.22775 
46 1 30.2959 17.3975 2.46425 
50 1 31.7341 17.3834 2.46424 
54 1 32.4147 17.3608 1.22774 
ITEM: TIMESTEP
30
ITEM: NUMBER OF ATOMS
58
ITEM: BOX BOUNDS pp pp pp
0.0000000000000000e+00 3.2808000000000000e+01
0.0000000000000000e+00 1.7780000000000001e+01
0.0000000000000000e+00 2.4729999999999999e+00
ITEM: ATOMS id type x y z 
13 1 7.04899 0.846882 2.46425 
29 1 7.40319 1.42971 1.22775 
37 1 8.03624 2.73312 1.22775 
57 2 1.08593 0.973595 1.22963 
58 3 1.08154 1.95671 1.22678 
1 1 6.17563 17.3983 2.46425 
5 1 5.37025 17.4015 1.22775 
9 1 3.98011 17.3876 1.22773 
16 1 7.04765 16.1688 2.46425 
32 1 7.40227 15.5866 1.22775 
40 1 8.03582 14.2833 1.22775 
45 1 3.21827 17.354 2.4642 
49 1 1.83317 17.3215 2.46404 
53 1 1.09141 17.582 1.22782 
4 1 10.9685 8.5083 2.46425 
8 1 11.7709 8.50814 1.22775 
12 1 13.1696 8.508 1.22775 
18 1 10.096 7.27851 2.46425 
21 1 8.30848 3.3929 2.46425 
26 1 8.83271 4.73423 2.46425 
34 1 9.74101 6.69629 1.22775 
42 1 9.10563 5.39519 1.22775 
48 1 13.9066 8.508 2.46425 
52 1 15.3319 8.508 2.46425 
56 1 16.0581 8.508 1.22775 
19 1 10.0959 9.73793 2.46425 
24 1 8.30821 13.6236 2.46425 
27 1 8.83257 12.2823 2.46425 
35 1 9.74086 10.3202 1.22775 
43 1 9.10552 11.6213 1.22775 
3 1 22.5782 8.50803 2.46425 
7 1 21.7755 8.50801 1.22775 
11 1 20.3772 8.508 1.22775 
20 1 23.4501 7.27819 2.46425 
36 1 23.8044 6.69552 1.22775 
44 1 24.4396 5.39351 1.22775 
47 1 19.6401 8.508 2.46425 
51 1 18.2146 8.508 2.46425 
55 1 17.4871 8.508 1.22775 
17 1 23.4501 9.73785 2.46425 
33 1 23.8044 10.3205 1.22775 
41 1 24.4396 11.6225 1.22775 
15 1 26.4977 0.846455 2.46425 
23 1 25.2375 3.39241 2.46425 
28 1 24.7122 4.73376 2.46425 
31 1 26.1437 1.42924 1.22775 
39 1 25.5101 2.73265 1.22775 
2 1 27.3731 17.398 2.46425 
6 1 28.1734 17.399 1.22775 
10 1 29.5726 17.3985 1.22775 
14 1 26.4979 16.1695 2.46425 
22 1 25.2375 13.6237 2.46425 
25 1 24.7122 12.2823 2.46425 
30 1 26.1438 15.5868 1.22775 
38 1 25.5102 14.2834 1.22775 
46 1 30.3052 17.3891 2.46424 
50 1 31.742 17.362 2.46417 
54 1 32.4243 17.3626 1.22766 
ITEM: TIMESTEP
40
ITEM: NUMBER OF ATOMS
58
ITEM: BOX BOUNDS pp pp pp
0.0000000000000000e+00 3.2808000000000000e+01
0.0000000000000000e+00 1.7780000000000001e+01
0.0000000000000000e+00 2.4729999999999999e+00
ITEM: ATOMS id type x y z 
13 1 7.04798 0.847562 2.46425 
29 1 7.40231 1.43039 1.22775 
37 1 8.03595 2.73381 1.22775 
57 2 1.08592 0.977616 1.22919 
58 3 1.08201 1.9662 1.2269 
1 1 6.17539 17.3986 2.46425 
5 1 5.36875 17.4009 1.22774 
9 1 3.98044 17.3807 1.2277 
16 1 7.04613 16.1681 2.46425 
32 1 7.40087 15.586 1.22775 
40 1 8.03532 14.2828 1.22775 
45 1 3.21852 17.3482 2.46422 
49 1 1.83238 17.3231 2.4644 
53 1 1.09265 17.5881 1.22778 
4 1 10.9689 8.50845 2.46425 
8 1 11.7706 8.50825 1.22775 
12 1 13.1684 8.50801 1.22775 
18 1 10.0969 7.27844 2.46425 
21 1 8.30809 3.39311 2.46425 
26 1 8.83327 4.73472 2.46425 
34 1 9.74206 6.696 1.22775 
42 1 9.10599 5.39389 1.22775 
48 1 13.906 8.50799 2.46425 
52 1 15.3316 8.508 2.46425 
56 1 16.0584 8.508 1.22775 
19 1 10.0967 9.73826 2.46425 
24 1 8.3077 13.6236 2.46425 
27 1 8.83306 12.282 2.46425 
35 1 9.74185 10.3207 1.22775 
43 1 9.10581 11.6229 1.22775 
3 1 22.5773 8.50808 2.46425 
7 1 21.7757 8.50803 1.22775 
11 1 20.3779 8.508 1.22775 
20 1 23.4492 7.27787 2.46425 
36 1 23.8035 6.69514 1.22775 
44 1 24.4389 5.39296 1.22775 
47 1 19.6404 8.508 2.46425 
51 1 18.2148 8.508 2.46425 
55 1 17.488 8.508 1.22775 
17 1 23.4492 9.73824 2.46425 
33 1 23.8035 10.321 1.22775 
41 1 24.439 11.6232 1.22775 
15 1 26.4987 0.847153 2.46425 
23 1 25.2379 3.39241 2.46425 
28 1 24.7119 4.73365 2.46425 
31 1 26.1445 1.42996 1.22775 
39 1 25.5105 2.7332 1.22775 
2 1 27.3724 17.398 2.46425 
6 1 28.1735 17.3993 1.22775 
10 1 29.5725 17.397 1.22774 
14 1 26.4991 16.1687 2.46425 
22 1 25.238 13.6237 2.46425 
25 1 24.7119 12.2825 2.46425 
30 1 26.1447 15.5861 1.22775 
38 1 25.5106 14.2829 1.22775 
46 1 30.3056 17.3853 2.46423 
50 1 31.7428 17.3585 2.46418 
54 1 32.425 17.3605 1.22768 
ITEM: TIMESTEP
50
ITEM: NUMBER OF ATOMS
58
ITEM: BOX BOUNDS pp pp pp
0.0000000000000000e+00 3.2808000000000000e+01
0.0000000000000000e+00 1.7780000000000001e+01
0.0000000000000000e+00 2.4729999999999999e+00
ITEM: ATOMS id type x y z 
13 1 7.04443 0.848677 2.46425 
29 1 7.39869 1.43093 1.22774 
37 1 8.0344 2.7352 1.22775 
57 2 1.0858 0.992472 1.22872 
58 3 1.08277 1.98467 1.22693 
1 1 6.17339 17.3994 2.46423 
5 1 5.36636 17.398 1.22776 
9 1 3.9789 17.3628 1.22775 
16 1 7.04199 16.1673 2.46425 
32 1 7.39614 15.5855 1.22774 
40 1 8.03319 14.2817 1.22775 
45 1 3.21561 17.3335 2.46427 
49 1 1.83157 17.3295 2.46496 
53 1 1.09274 17.6039 1.22743 
4 1 10.9682 8.50879 2.46424 
8 1 11.7696 8.50858 1.22776 
12 1 13.1684 8.50806 1.22775 
18 1 10.0984 7.27762 2.46426 
21 1 8.30654 3.39215 2.46425 
26 1 8.83444 4.73459 2.46425 
34 1 9.74443 6.69462 1.22774 
42 1 9.10758 5.39187 1.22775 
48 1 13.906 8.50797 2.46425 
52 1 15.331 8.50798 2.46425 
56 1 16.0586 8.508 1.22775 
19 1 10.0981 9.73969 2.46426 
24 1 8.30584 13.625 2.46425 
27 1 8.83412 12.2827 2.46425 
35 1 9.74413 10.3227 1.22774 
43 1 9.10728 11.6255 1.22775 
3 1 22.5779 8.50826 2.46424 
7 1 21.7771 8.50815 1.22776 
11 1 20.3779 8.50801 1.22775 
20 1 23.4479 7.27653 2.46425 
36 1 23.8012 6.69358 1.22775 
44 1 24.4367 5.39252 1.22775 
47 1 19.6406 8.50799 2.46425 
51 1 18.2151 8.508 2.46425 
55 1 17.4879 8.508 1.22775 
17 1 23.4479 9.73988 2.46425 
33 1 23.8013 10.3228 1.22775 
41 1 24.4368 11.6239 1.22775 
15 1 26.5017 0.847807 2.46425 
23 1 25.2389 3.39273 2.46425 
28 1 24.711 4.73297 2.46425 
31 1 26.1474 1.431 1.22775 
39 1 25.512 2.7343 1.22775 
2 1 27.3745 17.3983 2.46424 
6 1 28.1756 17.3996 1.22775 
10 1 29.5753 17.3909 1.22773 
14 1 26.5028 16.168 2.46425 
22 1 25.2391 13.6237 2.46425 
25 1 24.7111 12.2835 2.46425 
30 1 26.1483 15.5852 1.22775 
38 1 25.5124 14.2821 1.22775 
46 1 30.3067 17.3753 2.46422 
50 1 31.7461 17.3498 2.46422 
54 1 32.4269 17.3579 1.2278 
ITEM: TIMESTEP
60
ITEM: NUMBER OF ATOMS
58
ITEM: BOX BOUNDS pp pp pp
0.0000000000000000e+00 3.2808000000000000e+01
0.0000000000000000e+00 1.7780000000000001e+01
0.0000000000000000e+00 2.4729999999999999e+00
ITEM: ATOMS id type x y z 
13 1 7.03962 0.849405 2.46425 
29 1 7.39429 1.43165 1.22774 
37 1 8.03167 2.7353 1.22775 
57 2 1.08577 1.01078 1.22898 
58 3 1.0829 1.99899 1.22658 
1 1 6.16982 17.3999 2.46425 
5 1 5.36363 17.3943 1.22777 
9 1 3.97528 17.3465 1.22791 
16 1 7.03792 16.1673 2.46425 
32 1 7.3916 15.5849 1.22774 
40 1 8.03006 14.2816 1.22775 
45 1 3.21358 17.3203 2.46426 
49 1 1.82776 17.3393 2.46421 
53 1 1.09196 17.6138 1.22808 
4 1 10.9675 8.50889 2.46425 
8 1 11.7701 8.50881 1.22775 
12 1 13.1677 8.50815 1.22775 
18 1 10.0997 7.27668 2.46425 
21 1 8.305 3.39152 2.46425 
26 1 8.83562 4.73351 2.46425 
34 1 9.74669 6.69313 1.22775 
42 1 9.10945 5.38983 1.22775 
48 1 13.9058 8.50798 2.46425 
52 1 15.3306 8.50795 2.46425 
56 1 16.0586 8.50798 1.22775 
19 1 10.0995 9.74092 2.46425 
24 1 8.30401 13.6258 2.46425 
27 1 8.83527 12.2839 2.46425 
35 1 9.74643 10.3244 1.22775 
43 1 9.10912 11.6277 1.22775 
3 1 22.5787 8.50846 2.46425 
7 1 21.7765 8.50834 1.22775 
11 1 20.3784 8.50804 1.22775 
20 1 23.4463 7.27596 2.46425 
36 1 23.7991 6.69213 1.22775 
44 1 24.435 5.39063 1.22775 
47 1 19.6408 8.50799 2.46425 
51 1 18.2154 8.50799 2.46425 
55 1 17.4877 8.508 1.22775 
17 1 23.4465 9.74082 2.46425 
33 1 23.7992 10.3246 1.22775 
41 1 24.4352 11.6262 1.22775 
15 1 26.5055 0.848193 2.46425 
23 1 25.2404 3.39229 2.46425 
28 1 24.7099 4.73204 2.46425 
31 1 26.151 1.43166 1.22774 
39 1 25.5145 2.73449 1.22775 
2 1 27.3774 17.3987 2.46424 
6 1 28.1804 17.399 1.22774 
10 1 29.5777 17.3831 1.22774 
14 1 26.507 16.1678 2.46425 
22 1 25.2408 13.6244 2.46425 
25 1 24.7101 12.2847 2.46425 
30 1 26.1526 15.5846 1.22774 
38 1 25.5152 14.2821 1.22775 
46 1 30.3103 17.365 2.46424 
50 1 31.7483 17.3429 2.46418 
54 1 32.4302 17.3589 1.22784 
ITEM: TIMESTEP
70
ITEM: NUMBER OF ATOMS
58
ITEM: BOX BOUNDS pp pp pp
0.0000000000000000e+00 3.2808000000000000e+01
0.0000000000000000e+00 1.7780000000000001e+01
0.0000000000000000e+00 2.4729999999999999e+00
ITEM: ATOMS id type x y z 
13 1 7.02818 0.852726 2.46427 
29 1 7.38204 1.43453 1.22776 
37 1 8.0238 2.73528 1.22775 
57 2 1.08527 1.03805 1.22951 
58 3 1.08216 2.03639 1.22564 
1 1 6.16292 17.3997 2.46431 
5 1 5.35715 17.3853 1.22778 
9 1 3.96971 17.3147 1.22788 
16 1 7.03184 16.166 2.46427 
32 1 7.38304 15.5828 1.22776 
40 1 8.02248 14.2807 1.22775 
45 1 3.2065 17.2958 2.46432 
49 1 1.82333 17.3554 2.46438 
53 1 1.09216 17.6501 1.22803 
4 1 10.9706 8.50836 2.46425 
8 1 11.7708 8.50862 1.22775 
12 1 13.1685 8.50834 1.22775 
18 1 10.1031 7.27473 2.46425 
21 1 8.30135 3.39149 2.46425 
26 1 8.83868 4.72931 2.46425 
34 1 9.75226 6.68986 1.22775 
42 1 9.1151 5.38582 1.22775 
48 1 13.9071 8.5081 2.46425 
52 1 15.3315 8.5079 2.46425 
56 1 16.0581 8.50792 1.22775 
19 1 10.1032 9.74221 2.46425 
24 1 8.30005 13.6246 2.46425 
27 1 8.83837 12.2873 2.46425 
35 1 9.75246 10.327 1.22775 
43 1 9.11506 11.631 1.22775 
3 1 22.5783 8.5088 2.46425 
7 1 21.776 8.50876 1.22775 
11 1 20.3785 8.50817 1.22775 
20 1 23.4429 7.27439 2.46425 
36 1 23.7932 6.68967 1.22775 
44 1 24.4297 5.38654 1.22775 
47 1 19.6401 8.508 2.46425 
51 1 18.213 8.50795 2.46425 
55 1 17.4858 8.50796 1.22775 
17 1 23.443 9.74312 2.46425 
33 1 23.7935 10.3278 1.22775 
41 1 24.43 11.6309 1.22775 
15 1 26.5136 0.850748 2.46425 
23 1 25.2433 3.39373 2.46425 
28 1 24.7064 4.73007 2.46425 
31 1 26.16 1.43443 1.22774 
39 1 25.5212 2.73509 1.22775 
2 1 27.3848 17.3996 2.46425 
6 1 28.1854 17.3962 1.22775 
10 1 29.5842 17.3619 1.22777 
14 1 26.5152 16.166 2.46425 
22 1 25.2443 13.6234 2.46425 
25 1 24.7068 12.2874 2.46425 
30 1 26.1624 15.5821 1.22774 
38 1 25.5228 14.2817 1.22775 
46 1 30.3164 17.3404 2.46428 
50 1 31.7537 17.3325 2.46421 
54 1 32.4358 17.3625 1.22786 
ITEM: TIMESTEP
80
ITEM: NUMBER OF ATOMS
58
ITEM: BOX BOUNDS pp pp pp
0.0000000000000000e+00 3.2808000000000000e+01
0.0000000000000000e+00 1.7780000000000001e+01
0.0000000000000000e+00 2.4729999999999999e+00
ITEM: ATOMS id type x y z 
13 1 7.02593 0.853063 2.46427 
29 1 7.38024 1.43594 1.22777 
37 1 8.02199 2.73496 1.22775 
57 2 1.08497 1.04605 1.2294 
58 3 1.08194 2.03887 1.22557 
1 1 6.16224 17.3993 2.4643 
5 1 5.35554 17.3838 1.2278 
9 1 3.96838 17.3116 1.22786 
16 1 7.03102 16.1658 2.46427 
32 1 7.38262 15.5816 1.22777 
40 1 8.02118 14.2808 1.22775 
45 1 3.20596 17.2937 2.46437 
49 1 1.82272 17.359 2.46449 
53 1 1.09244 17.6512 1.22801 
4 1 10.9683 8.5081 2.46425 
8 1 11.7701 8.5084 1.22775 
12 1 13.1684 8.50833 1.22775 
18 1 10.1029 7.27332 2.46425 
21 1 8.30068 3.39162 2.46425 
26 1 8.83927 4.72868 2.46425 
34 1 9.75251 6.68808 1.22775 
42 1 9.11633 5.38547 1.22775 
48 1 13.906 8.50813 2.46425 
52 1 15.331 8.50792 2.46425 
56 1 16.0584 8.50791 1.22775 
19 1 10.1031 9.74319 2.46425 
24 1 8.29949 13.6242 2.46425 
27 1 8.83898 12.2875 2.46425 
35 1 9.75283 10.3284 1.22775 
43 1 9.11638 11.6309 1.22775 
3 1 22.5778 8.50881 2.46425 
7 1 21.776 8.50878 1.22775 
11 1 20.3775 8.5082 1.22775 
20 1 23.4429 7.27372 2.46425 
36 1 23.793 6.6884 1.22775 
44 1 24.4289 5.38598 1.22775 
47 1 19.6399 8.50802 2.46425 
51 1 18.215 8.50794 2.46425 
55 1 17.4876 8.50794 1.22775 
17 1 23.443 9.7438 2.46425 
33 1 23.7932 10.3291 1.22775 
41 1 24.4292 11.6315 1.22775 
15 1 26.5153 0.851218 2.46425 
23 1 25.2446 3.39206 2.46425 
28 1 24.7062 4.72885 2.46425 
31 1 26.1617 1.43485 1.22774 
39 1 25.5226 2.73496 1.22775 
2 1 27.3842 17.3996 2.46425 
6 1 28.1861 17.3955 1.22775 
10 1 29.5845 17.3586 1.22777 
14 1 26.5165 16.1657 2.46425 
22 1 25.2457 13.6251 2.46425 
25 1 24.7065 12.2885 2.46425 
30 1 26.164 15.5818 1.22774 
38 1 25.5243 14.2818 1.22775 
46 1 30.3177 17.337 2.46428 
50 1 31.7551 17.332 2.46428 
54 1 32.436 17.3643 1.22782 
ITEM: TIMESTEP
90
ITEM: NUMBER OF ATOMS
58
ITEM: BOX BOUNDS pp pp pp
0.0000000000000000e+00 3.2808000000000000e+01
0.0000000000000000e+00 1.7780000000000001e+01
0.0000000000000000e+00 2.4729999999999999e+00
ITEM: ATOMS id type x y z 
13 1 7.02591 0.853056 2.46427 
29 1 7.38021 1.43591 1.22777 
37 1 8.02199 2.73498 1.22775 
57 2 1.08497 1.04607 1.2294 
58 3 1.08194 2.03889 1.22557 
1 1 6.16224 17.3993 2.4643 
5 1 5.35554 17.3838 1.2278 
9 1 3.96841 17.3116 1.22786 
16 1 7.03102 16.1658 2.46427 
32 1 7.3826 15.5816 1.22777 
40 1 8.02119 14.2807 1.22775 
45 1 3.20594 17.2937 2.46437 
49 1 1.82269 17.3591 2.46449 
53 1 1.09247 17.6512 1.22801 
4 1 10.9682 8.5081 2.46425 
8 1 11.7701 8.5084 1.22775 
12 1 13.1684 8.50833 1.22775 
18 1 10.1029 7.27332 2.46425 
21 1 8.30069 3.39166 2.46425 
26 1 8.83926 4.72865 2.46425 
34 1 9.75252 6.6881 1.22775 
42 1 9.11634 5.38547 1.22775 
48 1 13.906 8.50813 2.46425 
52 1 15.3311 8.50792 2.46425 
56 1 16.0584 8.50791 1.22775 
19 1 10.1031 9.74319 2.46425 
24 1 8.2995 13.6242 2.46425 
27 1 8.83898 12.2875 2.46425 
35 1 9.75285 10.3284 1.22775 
43 1 9.1164 11.6309 1.22775 
3 1 22.5779 8.50881 2.46425 
7 1 21.776 8.50878 1.22775 
11 1 20.3776 8.5082 1.22775 
20 1 23.4429 7.27372 2.46425 
36 1 23.793 6.68842 1.22775 
44 1 24.4289 5.38598 1.22775 
47 1 19.6399 8.50802 2.46425 
51 1 18.215 8.50794 2.46425 
55 1 17.4876 8.50794 1.22775 
17 1 23.443 9.74381 2.46425 
33 1 23.7932 10.3291 1.22775 
41 1 24.4292 11.6315 1.22775 
15 1 26.5153 0.85121 2.46425 
23 1 25.2446 3.3921 2.46425 
28 1 24.7062 4.72884 2.46425 
31 1 26.1618 1.43481 1.22774 
39 1 25.5226 2.73499 1.22775 
2 1 27.3842 17.3996 2.46425 
6 1 28.1861 17.3955 1.22775 
10 1 29.5845 17.3586 1.22777 
14 1 26.5165 16.1657 2.46425 
22 1 25.2457 13.625 2.46425 
25 1 24.7065 12.2885 2.46425 
30 1 26.164 15.5819 1.22774 
38 1 25.5243 14.2818 1.22775 
46 1 30.3177 17.337 2.46428 
50 1 31.7551 17.332 2.46428 
54 1 32.436 17.3643 1.22782 
ITEM: TIMESTEP
91
ITEM: NUMBER OF ATOMS
58
ITEM: BOX BOUNDS pp pp pp
0.0000000000000000e+00 3.2808000000000000e+01
0.0000000000000000e+00 1.7780000000000001e+01
0.0000000000000000e+00 2.4729999999999999e+00
ITEM: ATOMS id type x y z 
13 1 7.02591 0.853056 2.46427 
29 1 7.38021 1.43591 1.22777 
37 1 8.02199 2.73498 1.22775 
57 2 1.08497 1.04607 1.2294 
58 3 1.08194 2.03889 1.22557 
1 1 6.16224 17.3993 2.4643 
5 1 5.35554 17.3838 1.2278 
9 1 3.96841 17.3116 1.22786 
16 1 7.03102 16.1658 2.46427 
32 1 7.3826 15.5817 1.22777 
40 1 8.02119 14.2807 1.22775 
45 1 3.20594 17.2937 2.46437 
49 1 1.82269 17.3591 2.46449 
53 1 1.09247 17.6512 1.22801 
4 1 10.9682 8.5081 2.46425 
8 1 11.7701 8.5084 1.22775 
12 1 13.1684 8.50833 1.22775 
18 1 10.1029 7.27331 2.46425 
21 1 8.30069 3.39166 2.46425 
26 1 8.83926 4.72865 2.46425 
34 1 9.75253 6.6881 1.22775 
42 1 9.11634 5.38547 1.22775 
48 1 13.906 8.50813 2.46425 
52 1 15.3311 8.50792 2.46425 
56 1 16.0584 8.50791 1.22775 
19 1 10.1031 9.74319 2.46425 
24 1 8.2995 13.6242 2.46425 
27 1 8.83898 12.2875 2.46425 
35 1 9.75285 10.3284 1.22775 
43 1 9.1164 11.6309 1.22775 
3 1 22.5779 8.50881 2.46425 
7 1 21.776 8.50878 1.22775 
11 1 20.3776 8.5082 1.22775 
20 1 23.4429 7.27372 2.46425 
36 1 23.793 6.68842 1.22775 
44 1 24.4289 5.38598 1.22775 
47 1 19.6399 8.50802 2.46425 
51 1 18.215 8.50794 2.46425 
55 1 17.4876 8.50794 1.22775 
17 1 23.443 9.74381 2.46425 
33 1 23.7932 10.3291 1.22775 
41 1 24.4292 11.6315 1.22775 
15 1 26.5153 0.85121 2.46425 
23 1 25.2446 3.39211 2.46425 
28 1 24.7062 4.72884 2.46425 
31 1 26.1618 1.43481 1.22774 
39 1 25.5226 2.73499 1.22775 
2 1 27.3842 17.3996 2.46425 
6 1 28.1861 17.3955 1.22775 
10 1 29.5845 17.3586 1.22777 
14 1 26.5165 16.1657 2.46425 
22 1 25.2457 13.625 2.46425 
25 1 24.7065 12.2885 2.46425 
30 1 26.164 15.5819 1.22774 
38 1 25.5243 14.2818 1.22775 
46 1 30.3177 17.337 2.46428 
50 1 31.7551 17.332 2.46428 
54 1 32.436 17.3643 1.22782 
ITEM: TIMESTEP
92
ITEM: NUMBER OF ATOMS
58
ITEM: BOX BOUNDS pp pp pp
0.0000000000000000e+00 3.2808000000000000e+01
0.0000000000000000e+00 1.7780000000000001e+01
0.0000000000000000e+00 2.4729999999999999e+00
ITEM: ATOMS id type x y z 
13 1 7.02591 0.853056 2.46427 
29 1 7.38021 1.43591 1.22777 
37 1 8.02199 2.73498 1.22775 
57 2 1.08497 1.04607 1.2294 
58 3 1.08194 2.03889 1.22557 
1 1 6.16224 17.3993 2.4643 
5 1 5.35554 17.3838 1.2278 
9 1 3.96841 17.3116 1.22786 
16 1 7.03102 16.1658 2.46427 
32 1 7.38259 15.5817 1.22777 
40 1 8.02119 14.2807 1.22775 
45 1 3.20593 17.2937 2.46437 
49 1 1.82269 17.3591 2.46449 
53 1 1.09247 17.6512 1.22801 
4 1 10.9682 8.5081 2.46425 
8 1 11.7701 8.5084 1.22775 
12 1 13.1684 8.50833 1.22775 
18 1 10.1029 7.27331 2.46425 
21 1 8.30069 3.39166 2.46425 
26 1 8.83926 4.72865 2.46425 
34 1 9.75253 6.6881 1.22775 
42 1 9.11634 5.38548 1.22775 
48 1 13.906 8.50813 2.46425 
52 1 15.3311 8.50792 2.46425 
56 1 16.0584 8.50791 1.22775 
19 1 10.1031 9.74319 2.46425 
24 1 8.2995 13.6242 2.46425 
27 1 8.83898 12.2875 2.46425 
35 1 9.75285 10.3284 1.22775 
43 1 9.1164 11.6309 1.22775 
3 1 22.5779 8.50881 2.46425 
7 1 21.776 8.50878 1.22775 
11 1 20.3776 8.5082 1.22775 
20 1 23.4429 7.27372 2.46425 
36 1 23.793 6.68842 1.22775 
44 1 24.4289 5.38598 1.22775 
47 1 19.6399 8.50802 2.46425 
51 1 18.215 8.50794 2.46425 
55 1 17.4876 8.50794 1.22775 
17 1 23.443 9.74381 2.46425 
33 1 23.7932 10.3291 1.22775 
41 1 24.4292 11.6315 1.22775 
15 1 26.5153 0.851209 2.46425 
23 1 25.2446 3.39211 2.46425 
28 1 24.7062 4.72884 2.46425 
31 1 26.1618 1.43481 1.22774 
39 1 25.5226 2.73499 1.22775 
2 1 27.3842 17.3996 2.46425 
6 1 28.1861 17.3955 1.22775 
10 1 29.5845 17.3586 1.22777 
14 1 26.5165 16.1657 2.46425 
22 1 25.2457 13.625 2.46425 
25 1 24.7065 12.2885 2.46425 
30 1 26.164 15.5819 1.22774 
38 1 25.5243 14.2818 1.22775 
46 1 30.3177 17.337 2.46428 
50 1 31.7551 17.332 2.46428 
54 1 32.436 17.3643 1.22782 
ITEM: TIMESTEP
98
ITEM: NUMBER OF ATOMS
58
ITEM: BOX BOUNDS pp pp pp
-3.0408153362343755e-03 3.2811040815336234e+01
-2.5081555826741813e-05 1.7780025081555827e+01
2.0426999067441624e-05 2.4729795730009321e+00
ITEM: ATOMS id type x y z 
13 1 7.02405 0.852986 2.46425 
29 1 7.37837 1.43573 1.22777 
37 1 8.02045 2.73509 1.22775 
57 2 1.08213 1.04615 1.2294 
58 3 1.07909 2.03898 1.22557 
1 1 6.1601 17.3993 2.46428 
5 1 5.35334 17.3838 1.2278 
9 1 3.96632 17.3116 1.22786 
16 1 7.0292 16.1659 2.46425 
32 1 7.38081 15.5818 1.22777 
40 1 8.01967 14.2806 1.22775 
45 1 3.20344 17.2937 2.46435 
49 1 1.81997 17.3593 2.46447 
53 1 1.08978 17.6512 1.22801 
4 1 10.9671 8.50809 2.46423 
8 1 11.7692 8.50839 1.22775 
12 1 13.1677 8.50833 1.22775 
18 1 10.1018 7.27329 2.46423 
21 1 8.29923 3.39182 2.46423 
26 1 8.83784 4.72852 2.46423 
34 1 9.75138 6.68817 1.22775 
42 1 9.11506 5.3855 1.22775 
48 1 13.9056 8.50813 2.46423 
52 1 15.3311 8.50791 2.46423 
56 1 16.0584 8.5079 1.22775 
19 1 10.102 9.7432 2.46423 
24 1 8.29805 13.624 2.46423 
27 1 8.83756 12.2876 2.46423 
35 1 9.75171 10.3283 1.22775 
43 1 9.11511 11.6308 1.22775 
3 1 22.579 8.50881 2.46423 
7 1 21.777 8.50878 1.22775 
11 1 20.3785 8.5082 1.22775 
20 1 23.4441 7.27371 2.46423 
36 1 23.7943 6.68847 1.22775 
44 1 24.4303 5.38594 1.22775 
47 1 19.6405 8.50802 2.46423 
51 1 18.2151 8.50794 2.46423 
55 1 17.4877 8.50794 1.22775 
17 1 23.4442 9.74381 2.46423 
33 1 23.7945 10.329 1.22775 
41 1 24.4306 11.6315 1.22775 
15 1 26.5173 0.851133 2.46423 
23 1 25.2462 3.39225 2.46423 
28 1 24.7077 4.72879 2.46423 
31 1 26.1638 1.43458 1.22774 
39 1 25.5243 2.73511 1.22775 
2 1 27.3866 17.3996 2.46423 
6 1 28.1883 17.3955 1.22775 
10 1 29.587 17.3585 1.22777 
14 1 26.5185 16.1658 2.46423 
22 1 25.2473 13.6249 2.46423 
25 1 24.7081 12.2886 2.46423 
30 1 26.166 15.5821 1.22774 
38 1 25.526 14.2817 1.22775 
46 1 30.3203 17.337 2.46425 
50 1 31.7576 17.332 2.46427 
54 1 32.439 17.3644 1.22782 
ITEM: TIMESTEP
100
ITEM: NUMBER OF ATOMS
58
ITEM: BOX BOUNDS pp pp pp
-3.0408153362343755e-03 3.2811040815336234e+01
-2.5081555826741813e-05 1.7780025081555827e+01
2.0426999067441624e-05 2.4729795730009321e+00
ITEM: ATOMS id type x y z 
13 1 7.02347 0.852978 2.46425 
29 1 7.37784 1.4358 1.22777 
37 1 8.02014 2.73524 1.22775 
57 2 1.08209 1.0467 1.2294 
58 3 1.079 2.03972 1.22554 
1 1 6.15982 17.3992 2.46428 
5 1 5.35237 17.3834 1.22781 
9 1 3.9663 17.3113 1.22786 
16 1 7.02896 16.1659 2.46425 
32 1 7.38064 15.5818 1.22777 
40 1 8.01953 14.2804 1.22775 
45 1 3.20314 17.2937 2.46436 
49 1 1.81995 17.3604 2.46449 
53 1 1.08939 17.651 1.228 
4 1 10.9675 8.50803 2.46423 
8 1 11.7695 8.50832 1.22775 
12 1 13.1678 8.50832 1.22775 
18 1 10.1021 7.27321 2.46423 
21 1 8.29902 3.39172 2.46423 
26 1 8.83799 4.72846 2.46423 
34 1 9.7516 6.68799 1.22775 
42 1 9.11552 5.3858 1.22775 
48 1 13.9056 8.50814 2.46423 
52 1 15.331 8.50792 2.46423 
56 1 16.0585 8.5079 1.22775 
19 1 10.1024 9.74315 2.46423 
24 1 8.29789 13.624 2.46423 
27 1 8.83773 12.2875 2.46423 
35 1 9.75195 10.3284 1.22775 
43 1 9.11557 11.6304 1.22775 
3 1 22.5784 8.5088 2.46423 
7 1 21.7767 8.50877 1.22775 
11 1 20.3785 8.50821 1.22775 
20 1 23.4437 7.27376 2.46423 
36 1 23.794 6.68841 1.22775 
44 1 24.43 5.38603 1.22775 
47 1 19.6405 8.50802 2.46423 
51 1 18.2151 8.50794 2.46423 
55 1 17.4877 8.50794 1.22775 
17 1 23.4439 9.74375 2.46423 
33 1 23.7942 10.3291 1.22775 
41 1 24.4303 11.6314 1.22775 
15 1 26.5178 0.851129 2.46422 
23 1 25.2464 3.39194 2.46423 
28 1 24.7075 4.7289 2.46423 
31 1 26.1643 1.43445 1.22775 
39 1 25.5245 2.73537 1.22775 
2 1 27.3872 17.3996 2.46423 
6 1 28.1885 17.3953 1.22775 
10 1 29.5876 17.3579 1.22777 
14 1 26.5189 16.1658 2.46422 
22 1 25.2476 13.6252 2.46423 
25 1 24.7079 12.2884 2.46423 
30 1 26.1664 15.5823 1.22775 
38 1 25.5261 14.2814 1.22775 
46 1 30.3206 17.3364 2.46425 
50 1 31.7578 17.3321 2.46429 
54 1 32.4387 17.3651 1.22781 
ITEM: TIMESTEP
110
ITEM: NUMBER OF ATOMS
58
ITEM: BOX BOUNDS pp pp pp
-3.0408153362343755e-03 3.2811040815336234e+01
-2.5081555826741813e-05 1.7780025081555827e+01
2.0426999067441624e-05 2.4729795730009321e+00
ITEM: ATOMS id type x y z 
13 1 7.02143 0.85362 2.46425 
29 1 7.3755 1.43667 1.22777 
37 1 8.01844 2.73556 1.22776 
57 2 1.08183 1.04973 1.22938 
58 3 1.07862 2.04291 1.22543 
1 1 6.1596 17.3987 2.46428 
5 1 5.3518 17.3822 1.22781 
9 1 3.96589 17.3097 1.22787 
16 1 7.02852 16.1654 2.46425 
32 1 7.37996 15.5811 1.22777 
40 1 8.01865 14.2797 1.22776 
45 1 3.20216 17.2932 2.46438 
49 1 1.81962 17.3633 2.46451 
53 1 1.08923 17.6539 1.228 
4 1 10.9676 8.5077 2.46423 
8 1 11.7698 8.50802 1.22775 
12 1 13.1682 8.50827 1.22775 
18 1 10.1029 7.27249 2.46423 
21 1 8.29818 3.39185 2.46423 
26 1 8.8386 4.72779 2.46423 
34 1 9.75269 6.68725 1.22775 
42 1 9.11659 5.38501 1.22775 
48 1 13.9059 8.50817 2.46423 
52 1 15.3309 8.50794 2.46423 
56 1 16.0583 8.5079 1.22775 
19 1 10.1033 9.74328 2.46423 
24 1 8.29743 13.6234 2.46423 
27 1 8.83839 12.2876 2.46423 
35 1 9.75317 10.3285 1.22775 
43 1 9.11672 11.6306 1.22775 
3 1 22.5786 8.50874 2.46423 
7 1 21.7763 8.50873 1.22775 
11 1 20.3779 8.50823 1.22775 
20 1 23.4429 7.27325 2.46423 
36 1 23.7929 6.68794 1.22775 
44 1 24.4289 5.38544 1.22775 
47 1 19.6403 8.50804 2.46423 
51 1 18.2152 8.50793 2.46423 
55 1 17.488 8.50792 1.22775 
17 1 23.443 9.74418 2.46423 
33 1 23.793 10.3294 1.22775 
41 1 24.4292 11.6319 1.22775 
15 1 26.5194 0.851811 2.46423 
23 1 25.2471 3.39207 2.46423 
28 1 24.7068 4.72854 2.46423 
31 1 26.1661 1.43525 1.22775 
39 1 25.5257 2.73585 1.22775 
2 1 27.3878 17.3996 2.46423 
6 1 28.1889 17.3945 1.22776 
10 1 29.5881 17.3551 1.22777 
14 1 26.5199 16.1654 2.46423 
22 1 25.2483 13.6249 2.46423 
25 1 24.7072 12.2887 2.46423 
30 1 26.1677 15.5816 1.22775 
38 1 25.5273 14.2808 1.22775 
46 1 30.3212 17.3338 2.46425 
50 1 31.7587 17.3325 2.46431 
54 1 32.4388 17.3669 1.22782 
ITEM: TIMESTEP
120
ITEM: NUMBER OF ATOMS
58
ITEM: BOX BOUNDS pp pp pp
-4.6766792486041178e-03 3.2812676679248604e+01
1.5578200541237707e-03 1.7778442179945873e+01
-6.8657390225351547e-05 2.4730686573902254e+00
ITEM: ATOMS id type x y z 
13 1 7.02027 0.855021 2.46434 
29 1 7.37435 1.43789 1.22777 
37 1 8.01747 2.73664 1.22776 
57 2 1.08027 1.05135 1.22937 
58 3 1.07708 2.04436 1.22543 
1 1 6.15816 17.3971 2.46437 
5 1 5.35069 17.3805 1.22781 
9 1 3.96463 17.3081 1.22788 
16 1 7.02747 16.1641 2.46434 
32 1 7.37895 15.58 1.22777 
40 1 8.01773 14.2788 1.22776 
45 1 3.20144 17.2917 2.46446 
49 1 1.81832 17.3618 2.46459 
53 1 1.08784 17.6527 1.22801 
4 1 10.9674 8.50773 2.46432 
8 1 11.7694 8.50806 1.22775 
12 1 13.1679 8.50834 1.22775 
18 1 10.1024 7.2728 2.46432 
21 1 8.29733 3.39286 2.46432 
26 1 8.8379 4.72854 2.46432 
34 1 9.75212 6.68764 1.22775 
42 1 9.11588 5.38547 1.22775 
48 1 13.9057 8.50824 2.46432 
52 1 15.331 8.50801 2.46432 
56 1 16.0585 8.50797 1.22775 
19 1 10.1028 9.74306 2.46432 
24 1 8.2966 13.6225 2.46432 
27 1 8.8377 12.2869 2.46432 