LAMMPS (3 Mar 2020)
Reading data file ...
  triclinic box = (0 0 0) to (15.77 13.6581 25.747) with tilt (7.8845 0 0)
  2 by 2 by 2 MPI processor grid
  reading atoms ...
  129 atoms
  read_data CPU = 0.0157022 secs
WARNING: Using 'neigh_modify every 1 delay 0 check yes' setting during minimization (../min.cpp:190)
WARNING: Total cutoff < 2*bond cutoff. May need to use an increased neighbor list skin. (../pair_reaxc.cpp:413)
Neighbor list info ...
  update every 1 steps, delay 0 steps, check yes
  max neighbors/atom: 2000, page size: 100000
  master list distance cutoff = 9.5
  ghost atom cutoff = 9.5
  binsize = 4.75, bins = 5 3 6
  2 neighbor lists, perpetual/occasional/extra = 2 0 0
  (1) pair reax/c, perpetual
      attributes: half, newton off, ghost
      pair build: half/bin/newtoff/ghost
      stencil: half/ghost/bin/3d/newtoff
      bin: standard
  (2) fix qeq/reax, perpetual, copy from (1)
      attributes: half, newton off, ghost
      pair build: copy
      stencil: none
      bin: none
Setting up cg style minimization ...
  Unit style    : real
  Current step  : 0
Per MPI rank memory allocation (min/avg/max) = 16.27 | 16.82 | 17.41 Mbytes
Step Temp E_pair E_mol TotEng Press 
       0            0   -19530.861            0   -19530.861    55216.785 
     344            0   -22031.574            0   -22031.574    5424.8341 
Loop time of 39.888 on 8 procs for 344 steps with 129 atoms

98.8% CPU use with 8 MPI tasks x no OpenMP threads

Minimization stats:
  Stopping criterion = energy tolerance
  Energy initial, next-to-last, final = 
        -19530.8607236     -22031.5740842     -22031.5741757
  Force two-norm initial, final = 5059.44 76.0492
  Force max component initial, final = 1201.25 18.7351
  Final line search alpha, max atom move = 0.000154915 0.00290235
  Iterations, force evaluations = 344 2662

MPI task timing breakdown:
Section |  min time  |  avg time  |  max time  |%varavg| %total
---------------------------------------------------------------
Pair    | 24.396     | 27.439     | 29.858     |  38.2 | 68.79
Neigh   | 0.0017706  | 0.0019187  | 0.0020709  |   0.3 |  0.00
Comm    | 0.47273    | 2.8891     | 5.9383     | 117.9 |  7.24
Output  | 0.0061931  | 0.0079214  | 0.010693   |   1.6 |  0.02
Modify  | 9.4506     | 9.4527     | 9.4551     |   0.0 | 23.70
Other   |            | 0.09691    |            |       |  0.24

Nlocal:    16.125 ave 39 max 0 min
Histogram: 1 2 1 0 2 0 0 0 0 2
Nghost:    468.625 ave 512 max 417 min
Histogram: 2 1 1 0 0 0 0 0 0 4
Neighs:    1127.75 ave 2534 max 0 min
Histogram: 1 1 2 0 1 1 0 0 0 2

Total # of neighbors = 9022
Ave neighs/atom = 69.938
Neighbor list builds = 1
Dangerous builds = 0
WARNING: Using 'neigh_modify every 1 delay 0 check yes' setting during minimization (../min.cpp:190)
WARNING: Total cutoff < 2*bond cutoff. May need to use an increased neighbor list skin. (../pair_reaxc.cpp:413)
Setting up cg style minimization ...
  Unit style    : real
  Current step  : 344
Per MPI rank memory allocation (min/avg/max) = 16.27 | 16.82 | 17.41 Mbytes
Step Temp E_pair E_mol TotEng Press 
     344            0   -22031.574            0   -22031.574    5424.8341 
     394            0   -22040.796            0   -22040.796    4064.9937 
Loop time of 6.55762 on 8 procs for 50 steps with 129 atoms

98.8% CPU use with 8 MPI tasks x no OpenMP threads

Minimization stats:
  Stopping criterion = energy tolerance
  Energy initial, next-to-last, final = 
        -22031.5741757     -22040.7962094     -22040.7963223
  Force two-norm initial, final = 76.0492 70.3309
  Force max component initial, final = 18.7351 42.3111
  Final line search alpha, max atom move = 3.55867e-05 0.00150571
  Iterations, force evaluations = 50 433

MPI task timing breakdown:
Section |  min time  |  avg time  |  max time  |%varavg| %total
---------------------------------------------------------------
Pair    | 4.0395     | 4.5243     | 4.9491     |  14.9 | 68.99
Neigh   | 0          | 0          | 0          |   0.0 |  0.00
Comm    | 0.039669   | 0.46387    | 0.95       |  46.7 |  7.07
Output  | 0.0008816  | 0.0011285  | 0.0015243  |   0.6 |  0.02
Modify  | 1.5531     | 1.5535     | 1.5538     |   0.0 | 23.69
Other   |            | 0.01488    |            |       |  0.23

Nlocal:    16.125 ave 40 max 0 min
Histogram: 1 2 1 1 1 0 0 0 0 2
Nghost:    467.875 ave 512 max 414 min
Histogram: 2 1 0 1 0 0 0 0 0 4
Neighs:    1126.62 ave 2598 max 0 min
Histogram: 1 1 2 0 1 1 0 0 0 2

Total # of neighbors = 9013
Ave neighs/atom = 69.8682
Neighbor list builds = 0
Dangerous builds = 0
WARNING: Using 'neigh_modify every 1 delay 0 check yes' setting during minimization (../min.cpp:190)
WARNING: Total cutoff < 2*bond cutoff. May need to use an increased neighbor list skin. (../pair_reaxc.cpp:413)
Setting up cg style minimization ...
  Unit style    : real
  Current step  : 394
WARNING: Energy due to 3 extra global DOFs will be included in minimizer energies
Per MPI rank memory allocation (min/avg/max) = 16.27 | 16.82 | 17.41 Mbytes
Step Temp E_pair E_mol TotEng Press Volume 
     394            0   -22040.796            0   -22040.796    4064.9937    5545.5955 
     455            0   -22042.163            0   -22042.163    2124.8012    5549.2566 
Loop time of 1.81727 on 8 procs for 61 steps with 129 atoms

98.8% CPU use with 8 MPI tasks x no OpenMP threads

Minimization stats:
  Stopping criterion = linesearch alpha is zero
  Energy initial, next-to-last, final = 
        -22040.7963223     -22042.1632307     -22042.1632307
  Force two-norm initial, final = 823.57 319.697
  Force max component initial, final = 581.025 174.905
  Final line search alpha, max atom move = 8.42867e-14 1.47422e-11
  Iterations, force evaluations = 61 134

MPI task timing breakdown:
Section |  min time  |  avg time  |  max time  |%varavg| %total
---------------------------------------------------------------
Pair    | 1.267      | 1.4098     | 1.5373     |   7.9 | 77.58
Neigh   | 0          | 0          | 0          |   0.0 |  0.00
Comm    | 0.010662   | 0.13798    | 0.28122    |  25.3 |  7.59
Output  | 0.0010494  | 0.0012548  | 0.0016488  |   0.5 |  0.07
Modify  | 0.25617    | 0.25626    | 0.25636    |   0.0 | 14.10
Other   |            | 0.01197    |            |       |  0.66

Nlocal:    16.125 ave 40 max 0 min
Histogram: 1 2 1 1 1 0 0 0 0 2
Nghost:    468.875 ave 512 max 416 min
Histogram: 2 1 0 1 0 0 0 0 0 4
Neighs:    1128.75 ave 2608 max 0 min
Histogram: 1 1 2 0 1 1 0 0 0 2

Total # of neighbors = 9030
Ave neighs/atom = 70
Neighbor list builds = 0
Dangerous builds = 0
WARNING: Using 'neigh_modify every 1 delay 0 check yes' setting during minimization (../min.cpp:190)
WARNING: Total cutoff < 2*bond cutoff. May need to use an increased neighbor list skin. (../pair_reaxc.cpp:413)
Setting up cg style minimization ...
  Unit style    : real
  Current step  : 455
Per MPI rank memory allocation (min/avg/max) = 16.27 | 16.82 | 17.41 Mbytes
Step Temp E_pair E_mol TotEng Press 
     455            0   -22042.163            0   -22042.163    2124.8012 
     504            0    -22043.67            0    -22043.67    5183.1721 
Loop time of 6.5423 on 8 procs for 49 steps with 129 atoms

98.8% CPU use with 8 MPI tasks x no OpenMP threads

Minimization stats:
  Stopping criterion = energy tolerance
  Energy initial, next-to-last, final = 
        -22042.1632307     -22043.6700589     -22043.6701865
  Force two-norm initial, final = 116.267 129.935
  Force max component initial, final = 16.1891 62.6027
  Final line search alpha, max atom move = 0.000283584 0.0177531
  Iterations, force evaluations = 49 433

MPI task timing breakdown:
Section |  min time  |  avg time  |  max time  |%varavg| %total
---------------------------------------------------------------
Pair    | 4.087      | 4.5385     | 4.926      |  13.4 | 69.37
Neigh   | 0          | 0          | 0          |   0.0 |  0.00
Comm    | 0.037098   | 0.424      | 0.87577    |  43.9 |  6.48
Output  | 0.00094855 | 0.0011267  | 0.0014965  |   0.5 |  0.02
Modify  | 1.5634     | 1.5638     | 1.5642     |   0.0 | 23.90
Other   |            | 0.01491    |            |       |  0.23

Nlocal:    16.125 ave 40 max 0 min
Histogram: 1 2 1 1 1 0 0 0 0 2
Nghost:    470.375 ave 512 max 419 min
Histogram: 2 1 0 1 0 0 0 0 0 4
Neighs:    1124.62 ave 2596 max 0 min
Histogram: 1 1 2 0 1 1 0 0 0 2

Total # of neighbors = 8997
Ave neighs/atom = 69.7442
Neighbor list builds = 0
Dangerous builds = 0
WARNING: Using 'neigh_modify every 1 delay 0 check yes' setting during minimization (../min.cpp:190)
WARNING: Total cutoff < 2*bond cutoff. May need to use an increased neighbor list skin. (../pair_reaxc.cpp:413)
Setting up cg style minimization ...
  Unit style    : real
  Current step  : 504
WARNING: Energy due to 3 extra global DOFs will be included in minimizer energies
Per MPI rank memory allocation (min/avg/max) = 16.27 | 16.82 | 17.41 Mbytes
Step Temp E_pair E_mol TotEng Press Volume 
     504            0    -22043.67            0    -22043.67    5183.1721    5549.2566 
     513            0    -22043.86            0    -22043.86    71.721124    5550.3516 
Loop time of 0.338284 on 8 procs for 9 steps with 129 atoms

98.8% CPU use with 8 MPI tasks x no OpenMP threads

Minimization stats:
  Stopping criterion = energy tolerance
  Energy initial, next-to-last, final = 
        -22043.6701865     -22043.8601014     -22043.8603144
  Force two-norm initial, final = 881.974 230.017
  Force max component initial, final = 655.128 155.872
  Final line search alpha, max atom move = 9.97904e-09 1.55545e-06
  Iterations, force evaluations = 9 24

MPI task timing breakdown:
Section |  min time  |  avg time  |  max time  |%varavg| %total
---------------------------------------------------------------
Pair    | 0.2339     | 0.2617     | 0.28574    |   3.4 | 77.36
Neigh   | 0          | 0          | 0          |   0.0 |  0.00
Comm    | 0.0019506  | 0.025958   | 0.053856   |  10.9 |  7.67
Output  | 0.00016657 | 0.00021918 | 0.00029672 |   0.0 |  0.06
Modify  | 0.047983   | 0.048005   | 0.048024   |   0.0 | 14.19
Other   |            | 0.002399   |            |       |  0.71

Nlocal:    16.125 ave 40 max 0 min
Histogram: 1 2 1 1 1 0 0 0 0 2
Nghost:    470.375 ave 512 max 419 min
Histogram: 2 1 0 1 0 0 0 0 0 4
Neighs:    1125.12 ave 2597 max 0 min
Histogram: 1 1 2 0 1 1 0 0 0 2

Total # of neighbors = 9001
Ave neighs/atom = 69.7752
Neighbor list builds = 0
Dangerous builds = 0
WARNING: Using 'neigh_modify every 1 delay 0 check yes' setting during minimization (../min.cpp:190)
WARNING: Total cutoff < 2*bond cutoff. May need to use an increased neighbor list skin. (../pair_reaxc.cpp:413)
Setting up cg style minimization ...
  Unit style    : real
  Current step  : 513
Per MPI rank memory allocation (min/avg/max) = 16.27 | 16.82 | 17.41 Mbytes
Step Temp E_pair E_mol TotEng Press 
     513            0    -22043.86            0    -22043.86    71.721124 
     970            0    -22062.95            0    -22062.95    3722.1165 
Loop time of 59.5073 on 8 procs for 457 steps with 129 atoms

98.7% CPU use with 8 MPI tasks x no OpenMP threads

Minimization stats:
  Stopping criterion = energy tolerance
  Energy initial, next-to-last, final = 
        -22043.8603144      -22062.950301     -22062.9503837
  Force two-norm initial, final = 114.848 48.4653
  Force max component initial, final = 16.6569 12.5161
  Final line search alpha, max atom move = 0.00126092 0.0157817
  Iterations, force evaluations = 457 3955

MPI task timing breakdown:
Section |  min time  |  avg time  |  max time  |%varavg| %total
---------------------------------------------------------------
Pair    | 37.411     | 41.546     | 45.109     |  40.8 | 69.82
Neigh   | 0          | 0          | 0          |   0.0 |  0.00
Comm    | 0.35623    | 3.9146     | 8.0618     | 133.2 |  6.58
Output  | 0.0080566  | 0.0096411  | 0.012764   |   1.4 |  0.02
Modify  | 13.901     | 13.904     | 13.907     |   0.1 | 23.37
Other   |            | 0.1328     |            |       |  0.22

Nlocal:    16.125 ave 40 max 0 min
Histogram: 1 2 1 1 1 0 0 0 0 2
Nghost:    471.125 ave 512 max 420 min
Histogram: 1 2 0 1 0 0 0 0 0 4
Neighs:    1124.75 ave 2597 max 0 min
Histogram: 1 1 2 0 1 1 0 0 0 2

Total # of neighbors = 8998
Ave neighs/atom = 69.7519
Neighbor list builds = 0
Dangerous builds = 0
WARNING: Total cutoff < 2*bond cutoff. May need to use an increased neighbor list skin. (../pair_reaxc.cpp:413)
Setting up Verlet run ...
  Unit style    : real
  Current step  : 0
  Time step     : 0.25
Per MPI rank memory allocation (min/avg/max) = 15.13 | 15.58 | 16.3 Mbytes
Step Temp TotEng KinEng PotEng Press 
       0          300   -21948.487    114.46311    -22062.95     4664.826 
     200    216.53929   -21907.329    82.619201   -21989.948   -4328.7529 
     400    286.70976   -21847.322     109.3923   -21956.714    4844.8462 
     600    310.01841   -21825.357    118.28557   -21943.643   -14862.114 
     800    287.74471   -21846.615    109.78718   -21956.402   -1663.4641 
    1000    298.73241    -21829.51    113.97946    -21943.49   -5344.6288 
    1200    336.95508   -21823.541    128.56308   -21952.104    27170.382 
    1400    295.76356   -21848.276    112.84672   -21961.123   -12598.292 
    1600    275.61722   -21840.092    105.16001   -21945.252   -3787.1481 
    1800    333.71933    -21818.61     127.3285   -21945.938   -5456.9673 
    2000    303.63854   -21835.935    115.85137   -21951.787    51.869706 
    2200    352.21318   -21807.061    134.38472   -21941.445    19787.735 
    2400    310.84553   -21829.594    118.60115   -21948.195   -10444.695 
    2600    291.42556   -21850.491    111.19158   -21961.682    23367.541 
    2800    315.13007   -21828.867    120.23589   -21949.103    15902.004 
    3000    297.85822   -21826.728    113.64592   -21940.374    427.16074 
    3200    301.44647   -21837.765      115.015    -21952.78   -120.63286 
    3400    262.27295   -21858.847    100.06859   -21958.915     7917.893 
    3600    307.50069   -21832.155    117.32495    -21949.48   -492.16966 
    3800    264.94175   -21843.091    101.08685   -21944.178    5791.3351 
    4000    275.05355   -21844.473    104.94495   -21949.418   -22693.412 
    4200    315.62846   -21826.864    120.42605    -21947.29    773.12017 
    4400    331.23328   -21825.899    126.37997   -21952.279   -10708.545 
    4600    303.28954   -21842.674    115.71821   -21958.393   -10548.392 
    4800    290.88763   -21843.925    110.98634   -21954.911    27388.865 
    5000    316.44683   -21818.204    120.73829   -21938.943   -23780.049 
    5200    277.07134   -21835.499    105.71482   -21941.214    21105.016 
    5400    277.88262   -21832.096    106.02436   -21938.121    1784.6973 
    5600     291.3178   -21828.304    111.15047   -21939.455    21466.265 
    5800    258.77423   -21855.042    98.733673   -21953.776    32362.979 
    6000    322.77533   -21831.599    123.15289   -21954.752   -8659.6564 
    6200    301.36134   -21825.291    114.98252   -21940.273   -16550.014 
    6400    307.62083   -21846.505    117.37078   -21963.876    2858.2059 
    6600    280.98558   -21868.273    107.20827   -21975.481    3413.7332 
    6800    312.87186   -21834.152    119.37428   -21953.526   -2953.1485 
    7000    296.51844   -21848.667    113.13474   -21961.801   -6606.5241 
    7200     285.5069   -21851.202    108.93336   -21960.136    19805.716 
    7400    304.66962   -21828.575    116.24477   -21944.819   -3092.2771 
    7600    313.66803   -21836.105    119.67806   -21955.783    3845.1179 
    7800    272.81824   -21854.106    104.09208   -21958.198   -7895.6978 
    8000    317.23339   -21825.765     121.0384   -21946.803   -19388.274 
    8200    285.66728    -21842.74    108.99455   -21951.735   -13581.509 
    8400    325.91456   -21820.645    124.35064   -21944.996   -15569.265 
    8600    335.98119   -21828.663     128.1915   -21956.855    1369.7682 
    8800    298.57303   -21837.652    113.91866    -21951.57    32114.268 
    9000    270.12155    -21853.49    103.06317   -21956.553    23712.511 
    9200    268.36132   -21857.812    102.39157   -21960.203    5333.7911 
    9400    301.33387   -21835.266    114.97204   -21950.238   -6953.0645 
    9600     300.4957   -21844.705    114.65224   -21959.358    1300.6175 
    9800    289.01017   -21851.588       110.27   -21961.858   -5865.3349 
   10000    297.20993   -21826.588    113.39857   -21939.987    3803.7333 
   10200    282.78344   -21851.102    107.89423   -21958.996   -7121.6468 
   10400    283.67121   -21838.261    108.23296   -21946.494    3105.4471 
   10600    302.45176   -21835.846    115.39856   -21951.245   -1808.7082 
   10800    278.43796   -21840.517    106.23625   -21946.754   -4977.5239 
   11000    297.05636   -21814.579    113.33998   -21927.919    3755.8851 
   11200    269.96069   -21840.021     103.0018   -21943.023   -1164.2688 
   11400    312.91869   -21845.104    119.39215   -21964.496   -16050.884 
   11600    332.89506   -21825.709    127.01401   -21952.723    -16385.36 
   11800    314.33338   -21833.127    119.93191   -21953.059   -10711.608 
   12000    291.81973   -21847.854    111.34198   -21959.196     26701.22 
   12200    309.40295   -21831.093    118.05074   -21949.144   -8990.1126 
   12400    306.84642   -21855.783    117.07532   -21972.858    8503.8087 
   12600    260.93273   -21863.929    99.557235   -21963.487    15779.485 
   12800     326.7513   -21841.331     124.6699   -21966.001    -10580.09 
   13000    295.30413   -21852.188    112.67143   -21964.859    2096.5103 
   13200    267.58119   -21870.579    102.09391   -21972.673    6564.7625 
   13400    302.90142   -21853.327    115.57013   -21968.897    13783.261 
   13600    306.01485   -21868.929    116.75803   -21985.687    669.72071 
   13800    261.76641   -21870.259    99.875323   -21970.134   -6348.4909 
   14000    321.90171   -21849.825    122.81956   -21972.645   -9337.0278 
   14200     299.2713   -21850.946    114.18507   -21965.131    -2580.066 
   14400    254.93002   -21874.985    97.266941   -21972.252    -11161.01 
   14600    309.08437   -21845.141    117.92919    -21963.07   -9644.0107 
   14800     295.8902   -21851.588    112.89504   -21964.483    23041.107 
   15000     303.2707   -21856.942    115.71102   -21972.653     19013.88 
   15200     335.5371   -21834.756    128.02206   -21962.778   -1722.9201 
   15400    297.91955   -21861.728    113.66932   -21975.398     15539.38 
   15600    285.42363   -21858.308    108.90158   -21967.209   -2622.2448 
   15800    287.37309   -21830.821    109.64539   -21940.466    8695.2506 
   16000    313.04836   -21852.043    119.44162   -21971.485    16253.543 
   16200    291.08436   -21856.252     111.0614   -21967.313   -15247.494 
   16400    309.07218   -21835.737    117.92454   -21953.662    14716.128 
   16600    278.58466   -21863.154    106.29222   -21969.446   -33423.061 
   16800    308.46301   -21855.048    117.69211   -21972.741      3251.65 
   17000    295.02168   -21835.768    112.56366   -21948.332   -13317.729 
   17200    280.53306   -21864.932    107.03562   -21971.968    19981.597 
   17400    300.80717   -21847.888    114.77108   -21962.659    4904.2428 
   17600    296.27131   -21848.372    113.04045   -21961.412     26016.18 
   17800    280.39187   -21868.914    106.98175   -21975.896      2859.04 
   18000    319.51185   -21845.856    121.90773   -21967.764    6646.4456 
   18200    292.20993   -21865.057    111.49085   -21976.548    11827.744 
   18400    274.21419   -21869.137    104.62469   -21973.761   -9000.5363 
   18600    301.06333   -21854.117    114.86881   -21968.985   -11419.207 
   18800    289.36254    -21872.13    110.40445   -21982.534   -107.48425 
   19000    255.40221   -21880.487    97.447101   -21977.934   -14775.827 
   19200    293.40316   -21855.698    111.94612   -21967.644    30229.825 
   19400    328.06449   -21843.971    125.17093   -21969.142    6232.2164 
   19600    270.97092   -21873.826    103.38725   -21977.213    2332.4392 
   19800    282.96983   -21861.119    107.96535   -21969.084   -8702.0783 
   20000    322.51452   -21855.915    123.05338   -21978.968    11696.663 
   20200    305.89683   -21850.071    116.71301   -21966.784    11033.688 
   20400    345.22409   -21832.408    131.71807   -21964.126    4571.2561 
   20600     298.2039   -21860.199    113.77781   -21973.976   -5230.0253 
   20800    306.40178   -21855.287    116.90567   -21972.192    7935.3691 
   21000    339.63783   -21833.905    129.58667   -21963.492    505.50366 
   21200    291.08184   -21861.932    111.06044   -21972.992    11439.239 
   21400    272.23082    -21851.28    103.86795   -21955.148   -2742.6303 
   21600    318.22433   -21827.309    121.41649   -21948.725    2783.5614 
   21800    268.75094    -21866.19    102.54022   -21968.731    6679.6068 
   22000    300.21673   -21861.863     114.5458   -21976.408   -2048.7631 
   22200    311.48414   -21840.037    118.84481   -21958.882       -14057 
   22400    273.88744   -21870.206    104.50002   -21974.706    4414.9031 
   22600    306.22603   -21852.512    116.83861   -21969.351    8005.1134 
   22800     314.5236   -21848.832    120.00449   -21968.837   -8341.0947 
   23000    297.55529    -21860.02    113.53034   -21973.551    11810.988 
   23200    292.22314   -21854.062    111.49589   -21965.558   -11064.125 
   23400    328.71072   -21822.698     125.4175   -21948.116   -12571.082 
   23600     309.6225   -21844.771    118.13451   -21962.905    642.00576 
   23800    319.66517   -21852.226    121.96623   -21974.193    1093.3293 
   24000    294.12302   -21877.133    112.22078   -21989.354    8079.8461 
   24200    284.94365   -21852.466    108.71845   -21961.185    10453.177 
   24400    314.41068   -21848.831    119.96141   -21968.792   -6538.4316 
   24600    276.58477   -21862.234    105.52917   -21967.763   -4676.4212 
   24800     306.4956   -21867.887    116.94146   -21984.828   -3877.1766 
   25000    328.82908   -21842.213    125.46266   -21967.676   -3437.0592 
   25200     271.5138   -21868.633    103.59438   -21972.228    11637.991 
   25400    302.30489   -21857.085    115.34252   -21972.428   -12665.404 
   25600    322.42612   -21839.201    123.01965   -21962.221    5403.8395 
   25800     279.1323   -21864.521    106.50117   -21971.022     15196.17 
   26000     303.0685   -21858.856    115.63387    -21974.49    1471.7491 
   26200    320.08436   -21845.845    122.12616   -21967.971   -11681.829 
   26400    287.25166   -21859.674    109.59906   -21969.273    29874.639 
   26600     304.1607   -21866.693    116.05059   -21982.744   -15266.212 
   26800    326.91843   -21839.156    124.73366   -21963.889   -12007.876 
   27000    290.12495   -21861.526    110.69534   -21972.221    5416.0637 
   27200    287.70718   -21859.325    109.77286   -21969.098    10883.928 
   27400    307.10259   -21854.157    117.17306    -21971.33   -19007.712 
   27600    307.97575   -21888.196     117.5062   -22005.702    5702.9281 
   27800    290.43085   -21879.511    110.81206   -21990.323   -5277.6072 
   28000     311.0553   -21886.904    118.68118   -22005.585   -13148.521 
   28200     301.5644   -21882.587    115.05999   -21997.647    -3182.357 
   28400    322.24658   -21889.904    122.95115   -22012.855   -6092.7552 
   28600    291.56021   -21902.609    111.24296   -22013.852    33553.573 
   28800    275.35024   -21906.046    105.05814   -22011.105    15635.426 
   29000    301.40599   -21882.819    114.99955   -21997.819   -7921.5186 
   29200    289.78086   -21901.275    110.56406   -22011.839    26528.131 
   29400    300.05109   -21903.161     114.4826   -22017.643    8815.4168 
   29600    284.51182   -21902.655    108.55369   -22011.209    13898.348 
   29800    323.13865   -21878.105    123.29151   -22001.397    7209.0863 
   30000     303.4349   -21890.909    115.77367   -22006.683    15964.455 
   30200    280.47381    -21900.56    107.01301   -22007.573   -5324.2372 
   30400    317.70848   -21884.304    121.21966   -22005.524   -630.54958 
   30600    330.16133   -21882.975    125.97097   -22008.946   -5788.9256 
   30800    292.89835   -21904.856    111.75351    -22016.61    -11344.57 
   31000    312.77419   -21889.073    119.33702    -22008.41    15512.368 
   31200    304.44743   -21886.634    116.15999   -22002.794   -12291.575 
   31400     331.9614   -21903.604    126.65778   -22030.262   -26733.789 
   31600    338.91865   -21895.534    129.31227   -22024.847    3153.9451 
   31800    348.51214   -21875.083    132.97261   -22008.056    14899.778 
   32000    303.86037   -21896.326    115.93601   -22012.262    819.64711 
   32200     285.3193    -21907.57    108.86178   -22016.432    16017.363 
   32400    290.94262   -21878.529    111.00732   -21989.536   -7390.6899 
   32600    323.89338   -21897.693    123.57948   -22021.273    19106.184 
   32800    293.09367   -21899.624    111.82804   -22011.452    9085.9012 
   33000    325.70443   -21901.039    124.27047   -22025.309    22298.347 
   33200    236.85071   -21900.366    90.368892   -21990.735    -13965.64 
   33400    330.39098   -21889.835    126.05859   -22015.893     5897.959 
   33600    275.99152   -21912.869    105.30282   -22018.172   -24271.242 
   33800    274.00018   -21925.254    104.54304   -22029.797    18813.528 
   34000    297.16048   -21911.289    113.37971   -22024.668   -18522.741 
   34200    320.31145   -21900.788    122.21281   -22023.001     5923.978 
   34400    267.77612   -21929.147    102.16829   -22031.315     1746.225 
   34600    282.06998   -21914.182    107.62202   -22021.804   -14718.469 
   34800    303.15555   -21908.167    115.66709   -22023.835    2598.9706 
   35000    304.76554   -21913.333    116.28137   -22029.615   -25093.142 
   35200    269.85839   -21913.934    102.96276   -22016.897    13872.496 
   35400    311.52142   -21909.886    118.85903   -22028.745    4615.9145 
   35600    315.30982   -21911.028    120.30447   -22031.332   -11716.726 
   35800    286.57419    -21925.91    109.34057    -22035.25   -9259.4749 
   36000     306.5422   -21899.463    116.95924   -22016.422    -29795.39 
   36200    295.68555   -21913.759    112.81695   -22026.576    24224.768 
   36400    284.33085    -21921.96    108.48464   -22030.444   -11687.348 
   36600    297.32297   -21905.863     113.4417   -22019.305   -5613.1267 
   36800    325.76168   -21897.493    124.29231   -22021.785    25070.225 
   37000    310.26931   -21927.823     118.3813   -22046.205   -9716.5048 
   37200    279.69298   -21905.564    106.71509   -22012.279    12394.361 
   37400    307.70444   -21904.248    117.40269   -22021.651    15085.677 
   37600    280.49503   -21922.105    107.02111   -22029.126    4105.6333 
   37800    318.53258   -21913.904     121.5341   -22035.438   -13775.644 
   38000    299.80261   -21895.692    114.38779    -22010.08     8694.199 
   38200    291.40372   -21920.968    111.18325   -22032.151   -5669.5571 
   38400    311.25665   -21908.539    118.75801   -22027.297   -2486.3472 
   38600    307.88811   -21907.631    117.47277   -22025.104    3541.1776 
   38800    307.14818   -21913.795    117.19045   -22030.986    11872.364 
   39000    272.07209   -21939.874    103.80739   -22043.681    -820.6484 
   39200    306.93937    -21917.73    117.11078   -22034.841   -16095.729 
   39400    336.83033   -21905.179    128.51549   -22033.694    11049.852 
   39600     298.2463   -21912.356    113.79399    -22026.15   -8939.8773 
   39800    274.87907   -21927.436    104.87837   -22032.315   -3682.9102 
   40000    315.13038   -21904.707    120.23601   -22024.943    22979.637 
   40200    298.42576    -21915.52    113.86246   -22029.383   -6940.7687 
   40400    283.88657   -21925.611    108.31513   -22033.926   -4721.4411 
   40600    309.01607    -21914.76    117.90313   -22032.664   -17547.336 
   40800    291.98704   -21903.295    111.40581   -22014.701   -2421.2279 
   41000    279.78959   -21932.122    106.75195   -22038.874    6660.6874 
   41200    303.42448   -21918.644    115.76969   -22034.414    3878.3702 
   41400    288.42163   -21907.475    110.04545    -22017.52      14.6732 
   41600    329.40228   -21872.812    125.68136   -21998.494    10275.115 
   41800    307.78121   -21901.382    117.43198   -22018.814   -22149.838 
   42000    324.93635   -21912.658    123.97741   -22036.635   -4033.0394 
   42200    314.27035   -21920.164    119.90787   -22040.072    11117.447 
   42400     303.4025   -21901.007    115.76131   -22016.769   -3382.9268 
   42600    302.66182   -21911.688    115.47871   -22027.166   -19701.524 
   42800    259.66782   -21921.218    99.074619   -22020.292     9092.752 
   43000    293.79647   -21907.732    112.09619   -22019.829   -7307.7769 
   43200    308.72676   -21910.449    117.79275   -22028.242   -7548.8237 
   43400    272.94309   -21932.003    104.13971   -22036.143    14765.716 
   43600    268.89264   -21935.826    102.59429    -22038.42   -5981.9437 
   43800    305.20025   -21904.163    116.44723    -22020.61    29089.137 
   44000    326.45842   -21905.626    124.55815   -22030.184   -3186.1411 
   44200    279.14413   -21929.776    106.50568   -22036.282    9416.2218 
   44400     325.8604   -21898.597    124.32998   -22022.927   -220.95404 
   44600    313.88399    -21925.93    119.76045   -22045.691   -16635.799 
   44800    301.24993   -21936.684    114.94001   -22051.624   -14806.461 
   45000    304.57766   -21920.446    116.20968   -22036.656   -12918.803 
   45200    318.15923   -21915.004    121.39165   -22036.395     10498.05 
   45400    319.41619   -21934.668    121.87123   -22056.539    23877.762 
   45600    294.44462   -21929.062    112.34348   -22041.405    28309.987 
   45800    289.38687   -21909.877    110.41373   -22020.291   -12136.218 
   46000    291.79475   -21929.172    111.33245   -22040.504     7368.456 
   46200    311.35692   -21928.813    118.79627   -22047.609     17520.35 
   46400    353.66228     -21902.1    134.93761   -22037.038    3324.3859 
   46600    322.79219   -21928.666    123.15932   -22051.826    2881.2398 
   46800    321.37069    -21926.79    122.61696   -22049.407   -7933.3603 
   47000     314.9636   -21923.847    120.17237    -22044.02    36120.576 
   47200    265.14593   -21939.773    101.16475   -22040.938    18729.632 
   47400    352.35327    -21919.56    134.43817   -22053.999   -17499.292 
   47600    346.79485   -21923.164    132.31738   -22055.481   -12693.676 
   47800    293.33488   -21944.928    111.92007   -22056.848    4142.9525 
   48000    302.07549   -21921.636    115.25499   -22036.891     4147.167 
   48200    317.92188   -21934.152    121.30109   -22055.453    2713.1736 
   48400    290.94195   -21946.246    111.00706   -22057.253    3849.6252 
   48600      321.209   -21919.934    122.55527   -22042.489    9779.9594 
   48800    328.20769   -21929.213    125.22557   -22054.438    15367.109 
   49000    240.59826   -21963.262    91.798748   -22055.061   -9826.4963 
   49200    321.85043   -21933.266        122.8   -22056.066   -9954.5566 
   49400    308.16659    -21918.34    117.57902   -22035.919   -2054.3431 
   49600    256.85783   -21936.742    98.002483   -22034.745    6120.6195 
   49800    287.86141   -21936.167     109.8317   -22045.998    -15926.36 
   50000    317.45613   -21916.744    121.12338   -22037.867   -4610.2128 
   50200    314.89635   -21937.565    120.14672   -22057.712    -735.6693 
   50400    285.60821    -21941.73    108.97201   -22050.702   -16046.982 
   50600    312.19304   -21918.832    119.11528   -22037.947   -3192.2473 
   50800    308.95348   -21927.203    117.87925   -22045.082   -2936.3279 
   51000    279.66995   -21942.685     106.7063   -22049.391   -13120.859 
   51200    276.75806   -21929.576    105.59529   -22035.171   -3778.8608 
   51400    319.51766    -21924.29    121.90995     -22046.2    16817.231 
   51600    317.38306   -21927.373     121.0955   -22048.469    8140.5431 
   51800     313.7849   -21917.403    119.72265   -22037.125   -13447.072 
   52000     311.8958   -21913.009    119.00187   -22032.011    4272.7413 
   52200    287.21715   -21934.922    109.58589   -22044.508   -19877.149 
   52400    314.38274   -21922.654    119.95075   -22042.605   -4048.4487 
   52600    303.11509   -21912.864    115.65165   -22028.516    19517.097 
   52800    287.47235   -21930.219    109.68326   -22039.902   -6824.4141 
   53000    275.15182   -21928.198    104.98244    -22033.18    24692.543 
   53200    298.15798   -21927.779     113.7603   -22041.539    22387.453 
   53400    299.05822   -21935.459    114.10378   -22049.563   -19165.772 
   53600    269.79342   -21936.028    102.93798   -22038.966    9524.1661 
   53800    307.94507   -21913.103     117.4945   -22030.597   -3653.2032 
   54000    279.03585   -21944.109    106.46437   -22050.573    8953.1751 
   54200    298.13662   -21930.657    113.75215   -22044.409    5038.2262 
   54400    333.09647   -21920.842    127.09086   -22047.933   -23120.074 
   54600    251.77575   -21955.941    96.063447   -22052.005   -21595.751 
   54800    307.94433   -21931.508    117.49422   -22049.002    -3696.531 
   55000    298.55087   -21926.697     113.9102   -22040.607   -309.08708 
   55200    259.64865   -21951.169    99.067304   -22050.236   -15648.596 
   55400    289.68052     -21930.3    110.52578   -22040.826   -20099.541 
   55600    314.32884   -21922.268    119.93018   -22042.198    9877.0229 
   55800    270.50552   -21946.217    103.20968   -22049.427   -619.08592 
   56000    284.71112   -21940.638    108.62973   -22049.268   -10829.579 
   56200    323.83933   -21926.034    123.55885   -22049.593   -3215.6437 
   56400    325.13447   -21919.365      124.053   -22043.418     3275.733 
   56600    321.54835   -21933.446    122.68474   -22056.131    835.61773 
   56800    286.68966   -21933.734    109.38463   -22043.119   -26742.828 
   57000    349.69833   -21924.837    133.42519   -22058.262    -9621.459 
   57200    331.30423   -21922.704    126.40704   -22049.111    1581.7456 
   57400    272.02798    -21932.48    103.79056    -22036.27   -5491.2991 
   57600    340.94825   -21909.961    130.08665   -22040.047    4688.7693 
   57800    310.71922   -21905.751    118.55296   -22024.304   -12737.833 
   58000    315.42221   -21927.639    120.34735   -22047.986   -6412.1946 
   58200    300.95727   -21941.358    114.82835   -22056.186   -26305.152 
   58400    282.91842   -21910.487    107.94574   -22018.432     10596.72 
   58600     275.3827    -21928.65    105.07053   -22033.721   -4384.1147 
   58800    287.35529   -21932.515     109.6386   -22042.153    20993.657 
   59000    301.48767   -21920.935    115.03072   -22035.966    15202.063 
   59200    323.13991   -21904.211    123.29199   -22027.503   -14791.486 
   59400    300.90752   -21930.647    114.80936   -22045.456    11164.271 
   59600    284.00631   -21930.139    108.36081     -22038.5    3656.6141 
   59800    320.53187    -21907.58    122.29691   -22029.877    -18302.93 
   60000    286.59119   -21939.716    109.34706   -22049.063   -19885.763 
   60200     317.8491   -21921.076    121.27332   -22042.349    11624.861 
   60400    301.45899   -21918.157    115.01977   -22033.176   -27871.774 
   60600    277.91638   -21943.864    106.03724   -22049.901     8019.614 
   60800    350.59935   -21899.243    133.76897   -22033.012   -1830.7648 
   61000    301.40128   -21926.244    114.99776   -22041.242    955.89827 
   61200    266.92719   -21936.179    101.84438   -22038.024    1174.0067 
   61400    319.21345   -21911.048    121.79388   -22032.842    13820.743 
   61600    298.46566    -21938.61    113.87769   -22052.488   -6954.0327 
   61800    295.49952   -21932.787    112.74598   -22045.533   -13295.569 
   62000    335.68558   -21916.139    128.07871   -22044.218   -19781.917 
   62200    277.17124   -21941.426    105.75293   -22047.179     23975.16 
   62400     297.6582     -21934.7    113.56961   -22048.269   -3013.1336 
   62600    328.82417   -21914.796    125.46078   -22040.257    7026.4343 
   62800    298.72751   -21932.874     113.9776   -22046.851       -13234 
   63000    313.17851   -21931.769    119.49128   -22051.261   -7220.3578 
   63200    301.21593   -21909.121    114.92704   -22024.048    15942.626 
   63400    299.38733   -21934.195    114.22935   -22048.425    2716.4311 
   63600    266.62362   -21935.177    101.72856   -22036.906   -11637.892 
   63800    330.98912   -21901.084    126.28681   -22027.371    6612.1183 
   64000    321.09419   -21927.161    122.51146   -22049.673    5509.9228 
   64200    303.19121   -21934.002    115.68069   -22049.683    2668.8705 
   64400    295.12305    -21908.74    112.60233   -22021.342   -10070.663 
   64600    300.87845   -21931.152    114.79827   -22045.951   -5930.8092 
   64800     305.6661   -21931.645    116.62497    -22048.27    -4794.775 
   65000    326.52052   -21916.521    124.58184   -22041.103    10118.287 
   65200    313.91699   -21913.729    119.77305   -22033.502   -22902.689 
   65400    267.82851   -21917.773    102.18828   -22019.961    24385.663 
   65600    267.02409   -21943.324    101.88136   -22045.205   -26546.076 
   65800    315.06791   -21931.062    120.21217   -22051.275   -19994.103 
   66000     306.2361   -21923.348    116.84245   -22040.191   -1029.4375 
   66200      280.757   -21936.619    107.12106    -22043.74    -30299.97 
   66400    259.61421   -21953.394    99.054163   -22052.448    10994.212 
   66600    348.27886   -21921.248     132.8836   -22054.131    21795.012 
   66800    321.09194   -21926.425     122.5106   -22048.936    250.79192 
   67000    266.87015   -21954.869    101.82262   -22056.691   -2353.7567 
   67200    264.16113   -21934.708    100.78901   -22035.497    3103.2519 
   67400    326.25771    -21919.97    124.48157   -22044.452    3323.6846 
   67600    258.20929   -21948.854    98.518126   -22047.372    -9409.005 
   67800    280.49203   -21937.197    107.01996   -22044.217   -2093.3478 
   68000     289.4899   -21926.405    110.45304   -22036.858   -19561.281 
   68200    290.34711   -21933.157    110.78011   -22043.937   -18331.434 
   68400    302.35822   -21946.334    115.36287   -22061.697   -4353.0636 
   68600    325.05223   -21918.405    124.02162   -22042.426   -5532.0698 
   68800    309.28181   -21932.934    118.00452   -22050.939    6837.8099 
   69000    254.92748   -21957.866    97.265969   -22055.132    10510.574 
   69200    324.16522   -21922.535    123.68319   -22046.218    -5480.421 
   69400    302.41347   -21925.363    115.38395   -22040.747    21925.256 
   69600    272.62857   -21945.472    104.01971   -22049.491   -12474.521 
   69800    284.22683   -21930.912    108.44495   -22039.357   -3810.5211 
   70000    296.98782   -21929.148    113.31383   -22042.462    -22282.62 
   70200    259.45605    -21943.25    98.993819   -22042.244   -22907.497 
   70400    307.58292   -21934.511    117.35632   -22051.867   -2518.0371 
   70600    352.96537   -21915.839    134.67171   -22050.511   -17250.645 
   70800    256.04354   -21941.596    97.691797   -22039.288    14840.459 
   71000    271.16998   -21936.489     103.4632   -22039.952   -9702.3615 
   71200    309.05924   -21917.116     117.9196   -22035.035    7446.0694 
   71400    268.35895   -21945.464    102.39066   -22047.855    14253.614 
   71600    302.77802   -21927.447    115.52304    -22042.97   -12251.994 
   71800     313.2892    -21922.75    119.53352   -22042.283   -15989.358 
   72000    257.88959   -21951.287    98.396146   -22049.683     6915.965 
   72200    248.66491   -21947.554    94.876527    -22042.43    24240.776 
   72400    313.64791    -21923.08    119.67038   -22042.751    21679.382 
   72600    280.51697   -21930.726    107.02948   -22037.755    20017.204 
   72800    247.44144   -21947.092     94.40972   -22041.502    17013.248 
   73000    294.81983   -21925.905    112.48664   -22038.392   -6222.2166 
   73200    303.18893   -21928.029    115.67982   -22043.709     15535.99 
   73400    261.26294   -21952.454    99.683224   -22052.137    8619.4961 
   73600     275.5068   -21931.339    105.11788   -22036.457    14865.851 
   73800    323.66028   -21927.146    123.49054   -22050.637    110.08543 
   74000    246.33606   -21952.972     93.98797    -22046.96    24734.002 
   74200    273.45096    -21935.61    104.33349   -22039.943    26073.959 
   74400    285.95204   -21927.263    109.10319   -22036.366    8649.5267 
   74600    290.40821   -21928.523    110.80342   -22039.327   -25996.726 
   74800    277.81797   -21936.874    105.99969   -22042.874   -9931.3116 
   75000    326.22767   -21921.231    124.47011   -22045.701    40280.397 
   75200    291.92232   -21925.724    111.38112   -22037.105    10966.298 
   75400    303.70826   -21940.887    115.87797   -22056.765   -18133.515 
   75600    302.35694   -21925.001    115.36238   -22040.363    16710.042 
   75800    332.87222   -21912.954     127.0053   -22039.959    9006.7339 
   76000    265.72471   -21935.425    101.38559   -22036.811    5591.6469 
   76200    277.56553   -21939.873    105.90337   -22045.776   -1196.2536 
   76400    318.32651   -21909.896    121.45547   -22031.351    4860.5358 
   76600    288.90696   -21928.425    110.23063   -22038.656    17270.831 
   76800    287.18858   -21935.878    109.57499   -22045.453    1910.3369 
   77000    283.50421   -21940.454    108.16924   -22048.623   -9796.7925 
   77200    322.70987   -21914.047    123.12791   -22037.175    4920.0884 
   77400    275.54464   -21940.518    105.13232    -22045.65    39363.448 
   77600    277.96012   -21937.301    106.05393   -22043.355   -2794.6604 
   77800    293.83582   -21927.416     112.1112   -22039.527    6657.9514 
   78000    332.65853     -21902.3    126.92376   -22029.224   -3344.0777 
   78200    324.65752   -21922.152    123.87103   -22046.023    9789.4229 
   78400    291.77558   -21934.597    111.32513   -22045.922   -12063.013 
   78600    298.23495    -21922.67    113.78966    -22036.46   -23040.707 
   78800    336.70014   -21910.978    128.46581   -22039.444    -918.6108 
   79000    297.90335   -21940.179    113.66314   -22053.842   -40559.124 
   79200     301.9709    -21920.59    115.21509   -22035.805   -13824.243 
   79400    328.50427   -21924.367    125.33873   -22049.706    7130.4716 
   79600    301.97285   -21942.123    115.21584   -22057.339    14081.992 
   79800    341.49982   -21920.319     130.2971   -22050.616   -10525.562 
   80000    276.32974   -21948.769    105.43187   -22054.201    145.84208 
   80200    307.19493   -21941.366    117.20829   -22058.574    9741.7897 
   80400    311.56069   -21923.486    118.87401    -22042.36   -6760.0837 
   80600    260.15366   -21942.739    99.259987   -22041.999    4046.7077 
   80800    277.22521   -21947.894    105.77353   -22053.667    7209.8325 
   81000    319.11606   -21930.811    121.75672   -22052.568    12606.698 
   81200    313.91038    -21931.26    119.77052   -22051.031   -20634.897 
   81400    322.15202   -21929.441    122.91507   -22052.356     2519.466 
   81600    308.02047   -21920.816    117.52326   -22038.339   -10521.024 
   81800    260.71547   -21948.743     99.47434   -22048.217   -78.457322 
   82000    318.70013   -21928.714    121.59802   -22050.312   -6006.1689 
   82200    250.59732   -21924.858    95.613824   -22020.472     10965.05 
   82400    279.79197    -21945.08    106.75286   -22051.833   -1438.6569 
   82600    332.81284    -21914.49    126.98264   -22041.473    5892.9909 
   82800    317.61593   -21925.484    121.18435   -22046.669    6493.0304 
   83000    286.07583    -21936.74    109.15043    -22045.89   -35378.498 
   83200    301.09275   -21920.045    114.88004   -22034.925   -2063.7193 
   83400    336.71178   -21906.621    128.47025   -22035.092   -8724.9957 
   83600    276.47358   -21932.469    105.48675   -22037.955    16126.009 
   83800    261.59357   -21937.836    99.809373   -22037.645    6375.2472 
   84000    330.76832   -21913.103    126.20257   -22039.305    7141.3884 
   84200    299.23996   -21938.784    114.17312   -22052.957   -16406.331 
   84400    287.39939   -21935.096    109.65542   -22044.752   -11479.272 
   84600    328.75546   -21922.961    125.43457   -22048.395   -27375.164 
   84800    317.14514   -21899.411    121.00473   -22020.416    15665.955 
   85000    321.52895   -21932.433    122.67734   -22055.111     17271.41 
   85200    322.38384   -21927.229    123.00352   -22050.232   -6197.7202 
   85400    331.91169   -21910.704    126.63881   -22037.342    4090.0442 
   85600    252.72459   -21941.906    96.425472   -22038.331    20044.888 
   85800    298.07799   -21927.957    113.72977   -22041.686    8496.5426 
   86000    316.61056   -21916.582    120.80076   -22037.383   -31956.119 
   86200    296.62944   -21947.515    113.17709   -22060.692   -9082.3571 
   86400    317.03936    -21918.08    120.96437   -22039.044     6646.063 
   86600    298.28853   -21921.633     113.8101   -22035.443   -4459.9854 
   86800    282.22799   -21928.937    107.68231   -22036.619    20342.493 
   87000    296.26265   -21916.333    113.03714    -22029.37    -16874.68 
   87200    305.25895   -21922.811    116.46963   -22039.281   -3027.9567 
   87400    316.68267   -21940.383    120.82827   -22061.212    -1386.722 
   87600    326.39175   -21911.076    124.53271   -22035.609   -9797.9256 
   87800    334.14246   -21922.925    127.48995   -22050.415   -11011.224 
   88000    296.23141   -21933.742    113.02522   -22046.767   -14200.888 
   88200     298.2617   -21927.154    113.79987   -22040.954   -1998.3661 
   88400    327.78504   -21899.076    125.06431    -22024.14   -34971.761 
   88600    296.37646   -21927.456    113.08057   -22040.536   -9257.4055 
   88800     302.0791    -21935.45    115.25637   -22050.706   -5657.6239 
   89000    285.66409   -21920.892    108.99333   -22029.885   -821.54002 
   89200    322.18079   -21922.321    122.92605   -22045.247    6635.0288 
   89400    299.66875   -21941.355    114.33672   -22055.691   -11192.045 
   89600     334.4749   -21921.612    127.61678   -22049.229    8459.1796 
   89800    328.57491   -21922.204    125.36568   -22047.569    -6903.188 
   90000    317.68105   -21934.242     121.2092   -22055.451   -28737.905 
   90200    255.58103   -21952.036    97.515329   -22049.551   -8016.8835 
   90400    319.38335   -21920.802     121.8587    -22042.66   -11158.594 
   90600    294.20326   -21931.592     112.2514   -22043.844    24021.551 
   90800    290.87444   -21940.073    110.98131   -22051.055    16145.737 
   91000    281.84992    -21930.16    107.53806   -22037.698    21976.401 
   91200    297.44051   -21922.782    113.48655   -22036.269   -11583.994 
   91400    302.08587   -21929.155    115.25896   -22044.414    -1913.411 
   91600    273.04628   -21941.111    104.17908    -22045.29    6330.2942 
   91800    338.59705   -21908.252    129.18957   -22037.442    2586.6094 
   92000    309.56305    -21926.48    118.11183   -22044.592   -20442.151 
   92200    275.08753   -21935.428    104.95791   -22040.386   -19291.455 
   92400    324.82558   -21901.783    123.93515   -22025.718   -17049.428 
   92600    326.05505   -21929.735    124.40425   -22054.139    9948.0199 
   92800    299.34495   -21930.611    114.21318   -22044.824   -7624.0773 
   93000     366.3284   -21901.396    139.77029   -22041.166    -14215.76 
   93200    300.33807   -21932.354    114.59209   -22046.946    34417.924 
   93400    259.69155   -21939.477    99.083669    -22038.56    3795.3031 
   93600    345.00101   -21912.945    131.63296   -22044.578    10147.241 
   93800    340.13935   -21927.154    129.77802   -22056.932    25370.459 
   94000     288.9814   -21931.105    110.25903   -22041.364    930.97562 
   94200    295.20509   -21909.947    112.63364   -22022.581    2605.7948 
   94400    346.58705    -21905.63     132.2381   -22037.868   -4785.2956 
   94600    277.39918   -21927.671     105.8399   -22033.511   -3697.0596 
   94800    294.36183   -21941.999     112.3119   -22054.311   -12103.211 
   95000    314.55493   -21913.811    120.01645   -22033.827    821.08494 
   95200    301.09052   -21922.923    114.87919   -22037.803   -16366.262 
   95400    305.27367   -21928.925    116.47524     -22045.4    7479.1591 
   95600    304.26084   -21929.251     116.0888    -22045.34    9931.2605 
   95800    339.42243   -21912.066    129.50448    -22041.57   -18109.594 
   96000    309.34742   -21933.772    118.02956   -22051.802    15886.978 
   96200    296.07095   -21935.133      112.964   -22048.097    -2163.225 
   96400    360.68266   -21903.981    137.61619   -22041.597   -2384.2455 
   96600    302.64265   -21926.253    115.47139   -22041.724   -32103.684 
   96800     294.3854   -21937.211    112.32089   -22049.532    24883.071 
   97000    316.41814   -21916.541    120.72735   -22037.268    3918.2525 
   97200    300.77954   -21924.551    114.76054   -22039.311   -3736.3787 
   97400    293.26973   -21942.117    111.89522   -22054.012   -13488.526 
   97600    308.90535   -21926.045    117.86088   -22043.906   -7997.5672 
   97800    306.98363   -21931.713    117.12766   -22048.841   -10869.122 
   98000    273.32269   -21950.514    104.28455   -22054.798    20855.581 
   98200    311.84214   -21926.287     118.9814   -22045.268    4056.5264 
   98400    286.96396   -21926.955    109.48929   -22036.444    108.15043 
   98600    256.68315   -21945.685    97.935837    -22043.62    2346.4799 
   98800    302.57993   -21922.976    115.44746   -22038.424    5990.3274 
   99000    297.30579   -21926.171    113.43515   -22039.606    19164.761 
   99200    299.44897   -21932.222    114.25286   -22046.475    7705.7423 
   99400    313.16559   -21928.163    119.48635   -22047.649    6018.0427 
   99600      307.927   -21908.539     117.4876   -22026.026   -7318.2342 
   99800    289.64874    -21936.95    110.51365   -22047.464   -772.30621 
  100000    311.20371    -21926.64    118.73781   -22045.377    2974.9227 
  100200    315.86767   -21899.327    120.51732   -22019.844    12783.662 
  100400    296.15195   -21929.087     112.9949   -22042.082   -15317.835 
  100600     272.6234   -21938.022    104.01774    -22042.04    -19106.85 
  100800    345.05938   -21914.226    131.65523   -22045.881    -5649.771 
  101000    342.52783   -21928.641    130.68933    -22059.33    6586.1164 
  101200    301.91958   -21932.745    115.19551   -22047.941    2763.7019 
  101400    294.73088   -21921.441    112.45271   -22033.894   -3974.3763 
  101600    298.06877   -21917.452    113.72626   -22031.179   -7882.0999 
  101800    290.27207   -21941.938    110.75148   -22052.689   -67.033318 
  102000    312.92447   -21917.946    119.39436   -22037.341    2473.8606 
  102200    282.59779   -21925.385     107.8234   -22033.208    9761.0411 
  102400    279.06187   -21939.075     106.4743   -22045.549   -5431.0281 
  102600    325.14286   -21902.393    124.05621    -22026.45    9135.2372 
  102800     302.7955   -21923.647    115.52971   -22039.177    6288.3894 
  103000    293.69037   -21938.625    112.05571   -22050.681    7696.7769 
  103200    307.17372   -21912.934    117.20019   -22030.134   -3823.4409 
  103400    312.44283   -21925.441    119.21059   -22044.652    15396.412 
  103600    308.97686   -21933.665    117.88817   -22051.553    13700.261 
  103800    307.62508   -21916.357    117.37241   -22033.729     4776.262 
  104000    324.58362   -21908.723    123.84283   -22032.565   -4746.3084 
  104200    306.21296   -21936.288    116.83362   -22053.122   -14028.421 
  104400    328.54315   -21927.389    125.35357   -22052.742    14401.226 
  104600    330.89679   -21908.609    126.25158    -22034.86   -33227.053 
  104800    301.68991   -21939.045    115.10788   -22054.153    1457.5082 
  105000    329.88117     -21925.5    125.86408   -22051.364   -3483.7857 
  105200    314.52405   -21918.619    120.00467   -22038.624   -6301.9235 
  105400    281.84207    -21931.06    107.53506   -22038.595    23932.753 
  105600    288.00169   -21932.443    109.88523   -22042.328    1700.6144 
  105800    310.03719    -21927.42    118.29273   -22045.712    1472.7786 
  106000    305.13951   -21912.841    116.42405   -22029.266    1073.0716 
  106200    273.87149   -21942.601    104.49394   -22047.095    12288.045 
  106400    305.01191   -21926.799    116.37537   -22043.174     16349.07 
  106600    317.00105   -21923.983    120.94975   -22044.932    240.99998 
  106800    264.31004   -21932.174    100.84583    -22033.02    3463.7866 
  107000    285.26561   -21928.723    108.84129   -22037.564    6774.4932 
  107200    289.86044   -21921.546    110.59442   -22032.141   -28158.497 
  107400    285.14806   -21940.315    108.79644   -22049.111   -16602.634 
  107600    306.21085   -21933.836    116.83282   -22050.669   -15053.199 
  107800    300.81416   -21915.058    114.77375   -22029.832    9963.8569 
  108000    287.31828    -21932.15    109.62448   -22041.774   -853.64138 
  108200    283.89187   -21938.324    108.31715   -22046.642   -24876.816 
  108400    288.64762   -21931.015    110.13168   -22041.147    4109.5122 
  108600    374.72698   -21914.407    142.97471   -22057.381    22631.941 
  108800    277.62293   -21947.162    105.92527   -22053.088   -3020.9464 
  109000    301.72488   -21931.469    115.12122    -22046.59   -12843.147 
  109200    295.56103   -21924.933    112.76944   -22037.702   -15357.693 
  109400    296.50362   -21928.693    113.12909   -22041.822   -25507.465 
  109600    298.23531   -21928.723     113.7898   -22042.512   -11037.748 
  109800    312.95833   -21928.095    119.40727   -22047.503   -40523.579 
  110000    290.86381   -21935.958    110.97725   -22046.935   -21459.619 
  110200    278.27483   -21931.006      106.174    -22037.18   -2689.2335 
  110400    320.73221   -21911.591    122.37335   -22033.964    24912.545 
  110600    306.76996   -21939.962    117.04614   -22057.008   -8045.8282 
  110800    309.15186    -21925.91    117.95494   -22043.865    3230.4238 
  111000    304.86377   -21918.146    116.31885   -22034.465   -16212.287 
  111200    275.81567   -21946.391    105.23573   -22051.627    31011.831 
  111400    315.69237   -21927.188    120.45043   -22047.638    19169.919 
  111600     319.9837   -21924.606    122.08776   -22046.693   -8861.5133 
  111800    253.65952   -21940.382    96.782188   -22037.165    22815.403 
  112000    252.94023   -21959.361    96.507748   -22055.869   -3941.8145 
  112200    293.93781    -21928.34    112.15011    -22040.49    9469.5683 
  112400    284.51865   -21925.939    108.55629   -22034.495    2770.4304 
  112600    284.01277   -21948.053    108.36328   -22056.416    22654.079 
  112800    319.48822   -21929.198    121.89871   -22051.097    13360.445 
  113000    301.05528    -21927.63    114.86574   -22042.496    22242.645 
  113200    290.58004   -21947.509    110.86898   -22058.378   -4794.5757 
  113400    302.78999   -21919.024    115.52761   -22034.551    5000.3124 
  113600    299.24171   -21931.837    114.17378   -22046.011    4604.0152 
  113800     277.0939   -21938.224    105.72343   -22043.948   -8062.8288 
  114000    289.31293   -21927.757    110.38552   -22038.142    13603.795 
  114200    290.45888   -21898.354    110.82275   -22009.177   -16596.645 
  114400    295.61479   -21924.612    112.78996   -22037.402   -4227.5032 
  114600     282.2067   -21937.691    107.67418   -22045.365   -1077.9241 
  114800    293.21672    -21913.04    111.87499   -22024.915   -12562.201 
  115000    298.78974   -21928.645    114.00134   -22042.646   -6941.2692 
  115200    302.50918   -21936.949    115.42047   -22052.369   -16332.152 
  115400    343.33725   -21914.595    130.99816   -22045.593   -1445.4908 
  115600    309.99313   -21921.968    118.27592   -22040.244   -12530.441 
  115800     280.0436   -21943.306    106.84887   -22050.155   -2032.2181 
  116000    361.04672   -21919.616     137.7551   -22057.371    3552.8707 
  116200    299.88692   -21923.401    114.41996   -22037.821    -30702.43 
  116400    287.98032   -21931.301    109.87707   -22041.178    23655.794 
  116600    277.98681   -21933.669    106.06411   -22039.733     46190.43 
  116800    280.98106   -21932.117    107.20655   -22039.324   -14560.174 
  117000    287.17813   -21920.369      109.571    -22029.94    -2491.059 
  117200    274.88201   -21944.695     104.8795   -22049.575    10054.669 
  117400    287.51498   -21928.461    109.69952    -22038.16    15115.741 
  117600     311.5821   -21920.923    118.88218   -22039.805    23417.795 
  117800    278.89454   -21936.595    106.41045   -22043.005    4272.4354 
  118000    253.34513    -21950.78    96.662235   -22047.442   -13424.113 
  118200    310.66143   -21926.801    118.53091   -22045.332    -20199.67 
  118400     329.6237   -21922.968    125.76584   -22048.734   -8030.6282 
  118600    261.73198   -21950.003    99.862185   -22049.865    -28871.47 
  118800    334.40107   -21930.476    127.58862   -22058.064   -14299.621 
  119000    330.62428   -21924.588    126.14761   -22050.735   -12438.342 
  119200    277.61536   -21938.316    105.92239   -22044.238   -5374.5401 
  119400     272.4671   -21957.332     103.9581   -22061.291   -5625.1952 
  119600    295.61208   -21927.569    112.78892   -22040.358    750.46209 
  119800    314.25084   -21927.125    119.90043   -22047.025    12102.175 
  120000    270.72971   -21945.824    103.29521   -22049.119   -3784.7994 
  120200    300.95318   -21925.783    114.82679    -22040.61     14836.62 
  120400    301.48133   -21920.914     115.0283   -22035.942    17049.878 
  120600     300.4937   -21937.293    114.65147   -22051.945    -6574.682 
  120800    242.55383   -21932.748    92.544882   -22025.293    10655.224 
  121000     292.7506   -21926.655    111.69714   -22038.352   -30668.227 
  121200    292.82266   -21928.737    111.72464   -22040.461    3677.1153 
  121400    251.18766   -21943.831    95.839064    -22039.67   -12975.295 
  121600    308.00407   -21913.791    117.51701   -22031.308    14851.421 
  121800    282.31666   -21931.095    107.71614   -22038.812    -10323.37 
  122000    302.27308    -21931.88    115.33039    -22047.21    19680.797 
  122200    320.38885   -21923.815    122.24234   -22046.058   -649.00049 
  122400    334.46285   -21901.827    127.61219   -22029.439    1334.3488 
  122600    319.66132   -21936.759    121.96476   -22058.724   -34076.226 
  122800    274.33507   -21933.651    104.67082   -22038.322    35130.133 
  123000    333.07857   -21909.528    127.08402   -22036.612   -795.97659 
  123200    293.95619   -21929.673    112.15713    -22041.83    11790.548 
  123400    290.20503   -21934.802     110.7259   -22045.528    1221.3274 
  123600    272.31774   -21939.662    103.90112   -22043.563     5756.741 
  123800    336.18663   -21915.181    128.26989   -22043.451   -14116.366 
  124000    307.40611   -21931.803    117.28886   -22049.092    10860.691 
  124200    282.25038   -21936.936    107.69085   -22044.626   -741.63033 
  124400    323.84373    -21914.58    123.56053   -22038.141   -3600.9884 
  124600    270.70962   -21940.754    103.28755   -22044.042    7339.7149 
  124800    294.63605   -21935.186    112.41652   -22047.603   -2683.4614 
  125000    332.55083   -21908.708    126.88267   -22035.591    5935.3225 
  125200    351.26795    -21915.79    134.02407   -22049.814   -13386.519 
  125400    304.04181   -21934.258    116.00523   -22050.263    1181.2004 
  125600    296.24418   -21921.621     113.0301   -22034.651   -20310.116 
  125800    340.40841   -21909.546    129.88068   -22039.427   -19317.895 
  126000    273.25141   -21934.196    104.25735   -22038.454    2062.8404 
  126200    326.37762   -21929.956    124.52732   -22054.483   -23830.556 
  126400    318.37016   -21917.751    121.47213   -22039.223    115.03912 
  126600    287.37366   -21944.207    109.64561   -22053.852   -8506.0878 
  126800    305.77435   -21920.531    116.66627   -22037.198    3778.2641 
  127000    308.23866   -21923.604    117.60651   -22041.211   -5700.2343 
  127200    293.61254   -21942.831    112.02601   -22054.857   -10122.886 
  127400    298.97171   -21935.938    114.07077   -22050.009     -20791.2 
  127600    333.39972   -21913.548    127.20656   -22040.754   -25769.382 
  127800    309.22556   -21940.091    117.98306   -22058.074    14386.757 
  128000    324.69996   -21932.764    123.88722   -22056.651   -2025.5632 
  128200    331.38833   -21921.374    126.43913   -22047.813   -11431.857 
  128400    329.96732   -21905.441    125.89695   -22031.338    1437.1981 
  128600    277.18995   -21935.998    105.76007   -22041.758   -8717.6553 
  128800    284.23696   -21930.564    108.44882   -22039.013    -10311.52 
  129000    316.14419   -21908.499    120.62282   -22029.122    7112.6247 
  129200    305.75401   -21925.924    116.65851   -22042.582     17666.75 
  129400    311.21242   -21935.059    118.74113     -22053.8    4280.4014 
  129600    315.06373   -21916.835    120.21058   -22037.046    5819.1279 
  129800    303.52968   -21924.335    115.80983   -22040.145   -13193.695 
  130000    317.18437   -21938.458     121.0197   -22059.477   -7719.3907 
  130200    330.89687    -21921.55    126.25161   -22047.802    6387.0106 
  130400    260.47535   -21956.459    99.382726   -22055.841    -7436.002 
  130600    319.95122   -21938.973    122.07537   -22061.048    10043.984 
  130800    291.99089   -21937.362    111.40728   -22048.769   -8614.3602 
  131000    262.56173   -21957.735    100.17877   -22057.914   -10674.648 
  131200    315.73988   -21936.441    120.46856    -22056.91   -4228.9111 
  131400    306.41971   -21924.794     116.9125   -22041.707     8730.497 
  131600    309.89977   -21954.578     118.2403   -22072.819   -3083.9427 
  131800    295.80147   -21946.735    112.86118   -22059.596    4483.2784 
  132000     323.4192   -21926.191    123.39855    -22049.59    12439.336 
  132200    295.03794   -21943.074    112.56986   -22055.644    4753.7171 
  132400    286.43476   -21948.676    109.28738   -22057.964   -15593.278 
  132600    263.03146    -21963.66    100.35799   -22064.018   -27413.224 
  132800    321.39992   -21939.891    122.62811    -22062.52     -10232.3 
  133000    298.55592   -21942.951    113.91212   -22056.863   -2053.7341 
  133200    253.17803   -21970.866    96.598479   -22067.464   -2927.0455 
  133400    325.53118   -21940.452    124.20437   -22064.656    8508.7075 
  133600     328.4466   -21941.767    125.31673   -22067.084   -5708.3908 
  133800    266.59775   -21958.845    101.71869   -22060.563    3471.1592 
  134000     309.6379    -21941.79    118.14039   -22059.931   -3429.3785 
  134200    316.98178   -21935.868     120.9424    -22056.81   -10292.564 
  134400    295.07321    -21950.55    112.58332   -22063.134    7593.6478 
  134600    304.19078   -21945.786    116.06207   -22061.848   -13885.339 
  134800    323.92189   -21920.583    123.59035   -22044.173    5053.1115 
  135000    320.51833    -21944.16    122.29174   -22066.451   -3407.5209 
  135200    311.49566    -21923.82     118.8492   -22042.669   -12170.911 
  135400    272.26354    -21948.84    103.88044    -22052.72    10786.484 
  135600     316.1547   -21938.002    120.62683   -22058.629    14012.356 
  135800    334.40356   -21924.731    127.58957   -22052.321    -3334.029 
  136000    270.95529   -21948.925    103.38128   -22052.307   -4719.5874 
  136200    313.97847   -21924.595     119.7965   -22044.392    5467.8565 
  136400    308.48623   -21920.024    117.70097   -22037.725   -1066.0505 
  136600    296.62514   -21943.573    113.17545   -22056.749   -4089.1435 
  136800    304.16881   -21925.061    116.05369   -22041.115    9928.0549 
  137000    303.94272   -21927.023    115.96743    -22042.99    3863.8996 
  137200    293.88306   -21951.629    112.12923   -22063.758   -4549.1883 
  137400    300.29199   -21937.191    114.57451   -22051.766   -8738.4256 
  137600    297.50899   -21933.831    113.51268   -22047.343   -5483.0869 
  137800    289.86971   -21954.393    110.59796   -22064.991   -6349.2462 
  138000    312.47968   -21931.657    119.22465   -22050.882    21854.594 
  138200    326.42533   -21914.947    124.54552   -22039.492   -12549.109 
  138400    306.93627    -21953.14     117.1096    -22070.25    9239.0343 
  138600    292.66312   -21956.474    111.66377   -22068.138    20083.648 
  138800    350.05349   -21929.238     133.5607   -22062.799    9537.1295 
  139000    316.60993   -21942.867    120.80052   -22063.667   -2918.4357 
  139200    327.12394   -21945.728    124.81208    -22070.54    1524.2632 
  139400    301.24417   -21939.778    114.93781   -22054.716   -245.08048 
  139600     302.8188   -21930.963     115.5386   -22046.502   -765.67784 
  139800    278.33817   -21955.395    106.19817   -22061.594   -15826.463 
  140000    308.09171   -21937.432    117.55045   -22054.982   -3762.0855 
  140200    348.55758   -21914.839    132.98995   -22047.829    18353.249 
  140400    319.54622    -21942.04    121.92084   -22063.961    9377.3185 
  140600     273.6813   -21953.555    104.42137   -22057.976    5879.8085 
  140800     315.0685   -21929.705     120.2124   -22049.917   -20701.036 
  141000    269.34421   -21961.089    102.76658   -22063.855    40194.655 
  141200    310.48745    -21945.07    118.46453   -22063.534   -13336.199 
  141400    304.07985   -21937.486    116.01975   -22053.506   -10759.878 
  141600    249.94642   -21966.737    95.365478   -22062.102    442.16936 
  141800    283.36245   -21947.199    108.11515   -22055.314   -15790.801 
  142000    319.35519   -21939.774    121.84796   -22061.622    2062.2773 
  142200    290.37965   -21949.956    110.79252   -22060.749    23200.776 
  142400    291.75813   -21958.744    111.31847   -22070.063   -5536.8466 
  142600    302.20417   -21930.457    115.30409   -22045.761   -1248.0617 
  142800     290.1819   -21956.416    110.71707   -22067.133    3899.3972 
  143000     301.9487   -21952.123    115.20662    -22067.33    13793.986 
  143200    303.93176   -21931.876    115.96324   -22047.839   -19684.311 
  143400    280.27801   -21961.761     106.9383   -22068.699   -12388.679 
  143600    284.86203   -21948.725    108.68731   -22057.412    407.15899 
  143800    304.86362   -21937.297    116.31879   -22053.616   -2161.4189 
  144000    281.30555   -21957.042    107.33036   -22064.373   -1503.6205 
  144200    303.71716   -21963.271    115.88137   -22079.153   -13192.328 
  144400    278.86266   -21942.701    106.39829   -22049.099   -6471.2928 
  144600    291.83086   -21937.977    111.34622   -22049.323    13151.141 
  144800    308.19956   -21961.935     117.5916   -22079.526   -1486.1962 
  145000    282.11008   -21937.102    107.63732   -22044.739   -23926.186 
  145200    315.89215   -21935.025    120.52666   -22055.552     2939.454 
  145400    307.98195    -21953.64    117.50857   -22071.148   -8023.5175 
  145600    297.31764   -21947.356    113.43967   -22060.795     21299.56 
  145800    321.28732    -21930.33    122.58515   -22052.915   -3563.7404 
  146000    291.67775   -21956.661     111.2878   -22067.949   -16693.944 
  146200    309.62341   -21944.341    118.13486   -22062.476     444.2153 
  146400     365.8336    -21908.33     139.5815   -22047.912    25059.676 
  146600    307.46858   -21928.714     117.3127   -22046.026    10945.808 
  146800    339.08851   -21953.717    129.37708   -22083.094     6201.613 
  147000    265.96188   -21945.016    101.47607   -22046.492    8953.6705 
  147200    317.40943   -21930.988    121.10556   -22052.094   -20461.303 
  147400    301.44843   -21948.178    115.01574   -22063.194    2128.1996 
  147600    298.75285   -21946.703    113.98726   -22060.691    11607.203 
  147800    321.32276     -21932.5    122.59867   -22055.099   -7472.5132 
  148000    285.11076   -21952.676    108.78221   -22061.459   -6591.9696 
  148200    334.66087   -21955.013    127.68774     -22082.7    37340.044 
  148400    303.73647   -21938.202    115.88873   -22054.091    735.84949 
  148600    348.01045   -21942.927    132.78119   -22075.708   -4031.2993 
  148800    299.65438   -21957.413    114.33124   -22071.745    1805.9151 
  149000    323.43293   -21949.174    123.40379   -22072.578    6515.0939 
  149200     343.4955   -21929.588    131.05854   -22060.647    9644.0006 
  149400    301.58031   -21948.164    115.06606    -22063.23   -724.17956 
  149600    303.17581   -21946.658    115.67482   -22062.333    1368.7762 
  149800    290.04529   -21951.425    110.66495    -22062.09   -3484.0708 
  150000     287.5024   -21959.073    109.69473   -22068.767   -5864.5274 
  150200    310.02491   -21934.492    118.28805    -22052.78    11456.161 
  150400    315.81877    -21948.84    120.49866   -22069.339    3149.2354 
  150600    292.53362   -21956.397    111.61435   -22068.012    25901.817 
  150800    329.47013   -21935.735    125.70725   -22061.442   -11769.063 
  151000    277.14667    -21956.43    105.74356   -22062.173    24000.367 
  151200    283.68296   -21954.193    108.23744    -22062.43   -11615.111 
  151400    338.08055   -21940.225     128.9925   -22069.217    3804.8125 
  151600    333.67643   -21965.954    127.31214   -22093.267    -6495.535 
  151800    294.62812   -21982.146     112.4135    -22094.56    4197.4954 
  152000    307.82098   -21957.338    117.44715   -22074.785   -9021.5439 
  152200    334.19826   -21969.153    127.51123   -22096.664   -1434.8308 
  152400    306.06832   -21993.586    116.77843   -22110.365    4017.5522 
  152600    284.08235   -21996.564    108.38983   -22104.953      16162.8 
  152800    323.75917   -21971.449    123.52827   -22094.978   -12690.648 
  153000     287.2305   -21996.765    109.59098   -22106.356    10981.507 
  153200    319.21686    -21993.35    121.79518   -22115.145    3975.4075 
  153400    317.44594   -21969.628    121.11949   -22090.747   -9353.7927 
  153600    281.13016   -21988.105    107.26344   -22095.368    3887.6557 
  153800    294.88474   -21997.821    112.51141   -22110.333   -8137.0203 
  154000    319.20488   -21977.974    121.79061   -22099.764    33865.396 
  154200    319.21008   -21979.855    121.79259   -22101.647   -4545.2699 
  154400    279.56473    -22000.61    106.66616   -22107.276   -17443.204 
  154600    310.54513   -21979.105    118.48653   -22097.591    6050.2099 
  154800    324.20779   -21992.954    123.69944   -22116.653    10501.868 
  155000    293.85871   -22005.056    112.11994   -22117.176    4064.2374 
  155200    294.62897   -21979.254    112.41383   -22091.668    12276.543 
  155400    332.72629   -21976.143    126.94961   -22103.092   -15005.756 
  155600    355.13525   -21987.614    135.49961   -22123.113   -11080.656 
  155800    275.61522     -22000.3    105.15925   -22105.459   -5105.3301 
  156000    311.54996   -21971.172    118.86992   -22090.042    9652.4264 
  156200    312.21953   -21990.833    119.12539   -22109.958   -699.62956 
  156400    332.51164   -21994.685    126.86772   -22121.553    7268.1669 
  156600    306.60485   -21989.448    116.98315   -22106.432   -4788.9196 
  156800    369.04144   -21975.095    140.80543     -22115.9   -2428.6218 
  157000    308.57786   -22000.319    117.73593   -22118.055   -8640.5349 
  157200    321.52997   -21983.474    122.67773   -22106.152     11179.36 
  157400    312.33566   -21957.067     119.1697   -22076.236   -4522.4914 
  157600       320.18   -21986.162    122.16266   -22108.324    7468.2929 
  157800    266.40068   -22002.409     101.6435   -22104.052   -8352.0164 
  158000    301.14479   -21993.685    114.89989   -22108.584    10262.582 
  158200    285.29432   -21982.635    108.85224   -22091.488   -9000.4646 
  158400    286.92195   -22001.352    109.47326   -22110.826    2144.2377 
  158600    301.05689   -21996.145    114.86636   -22111.012   -8968.7021 
  158800    290.46529       -21989     110.8252   -22099.825    -12511.38 
  159000    294.34413   -21998.115    112.30515    -22110.42   -14295.881 
  159200    284.55899   -22014.758    108.57168    -22123.33   -6375.1178 
  159400    295.25118   -21987.489    112.65123    -22100.14   -3520.4148 
  159600    268.58083   -21994.583    102.47532   -22097.058    11855.732 
  159800    266.65064   -22009.804    101.73887   -22111.543   -10733.131 
  160000    310.24349   -21975.171    118.37145   -22093.542    37683.769 
  160200    304.05724   -21996.088    116.01112   -22112.099    -32438.82 
  160400    298.83558   -22003.667    114.01883   -22117.686   -8118.3011 
  160600     324.7028   -21977.283     123.8883   -22101.172   -19571.446 
  160800    290.82184   -21996.139    110.96124     -22107.1   -13176.311 
  161000    283.71343   -22003.062    108.24907   -22111.311    -15580.09 
  161200    290.89591   -21992.106     110.9895   -22103.095    11530.087 
  161400    382.27607   -21955.094    145.85502   -22100.949   -10664.359 
  161600    297.50266   -21988.986    113.51026   -22102.497   -7869.5664 
  161800      290.019    -22000.95    110.65492   -22111.605    2213.7665 
  162000    333.65432   -21971.359     127.3037   -22098.663    47078.566 
  162200    310.81461   -21989.642    118.58935   -22108.231   -9363.8364 
  162400    303.78303   -21994.676     115.9065   -22110.583   -13622.715 
  162600    312.66296   -21980.624    119.29458   -22099.919   -1121.6359 
  162800    294.00609   -21993.997    112.17617   -22106.173    1692.1091 
  163000    295.38767   -22001.289     112.7033   -22113.993    1433.1841 
  163200    339.32516   -21971.924    129.46737   -22101.392   -22878.757 
  163400    273.55448   -22006.401    104.37299   -22110.774    22446.018 
  163600    304.19303   -21987.216    116.06293   -22103.279    2013.0222 
  163800    317.95208   -21984.106    121.31261   -22105.419   -19006.669 
  164000     284.3339   -22007.081    108.48581   -22115.567   -11179.193 
  164200    324.56399   -21980.443    123.83534   -22104.278    4927.8165 
  164400     324.3609   -21985.709    123.75785   -22109.467    11125.928 
  164600     306.5279   -21994.272    116.95379   -22111.225    7118.0315 
  164800     271.7654   -22005.998    103.69037   -22109.689   -27204.775 
  165000    303.78127   -21994.215    115.90583    -22110.12   -7669.7413 
  165200    334.01381    -21978.37    127.44086    -22105.81    17796.851 
  165400    274.40516   -22000.827    104.69756   -22105.525    6022.7987 
  165600    295.58993   -21993.562    112.78047   -22106.343    2792.9672 
  165800    304.83068   -21972.216    116.30622   -22088.523    9375.4219 
  166000    323.99243   -21991.147    123.61727   -22114.765    13258.992 
  166200    280.49483   -22000.329    107.02103    -22107.35    9120.3066 
  166400    328.32577   -21967.781    125.27062   -22093.052    7050.3217 
  166600    322.51731   -21988.156    123.05444    -22111.21    462.95927 
  166800    303.76444   -21995.899     115.8994   -22111.798    15190.364 
  167000    284.10699   -21993.257    108.39923   -22101.656    2944.3516 
  167200    287.77718   -21982.844    109.79957   -22092.644   -19833.305 
  167400     265.4633   -22009.512    101.28585   -22110.798    10767.471 
  167600    324.52538   -21994.271    123.82061   -22118.092    5304.5327 
  167800    332.05772    -21978.76    126.69453   -22105.455   -7046.6717 
  168000    260.90892   -22003.297    99.548152   -22102.845   -16767.054 
  168200    319.86336   -21990.582    122.04184   -22112.624   -6156.6348 
  168400    352.64628   -21984.707    134.54996   -22119.257   -13376.482 
  168600    288.51874   -22003.869     110.0825   -22113.952    2763.0856 
  168800    326.32222   -21968.644    124.50618    -22093.15   -9078.4928 
  169000    314.18648   -21987.243    119.87587   -22107.119    9119.0818 
  169200    279.49399   -21999.421    106.63917    -22106.06   -15671.156 
  169400     340.3572   -21972.285    129.86114   -22102.146   -8817.3368 
  169600    321.41471   -21986.058    122.63375   -22108.691   -8529.8082 
  169800    296.23461   -22000.414    113.02645    -22113.44    20627.557 
  170000    312.04981   -21971.841    119.06063   -22090.902   -9868.7114 
  170200    315.01601   -21982.025    120.19237   -22102.218   -17268.772 
  170400     292.0652    -21996.46    111.43563   -22107.896    2926.7553 
  170600     275.1542   -22010.559    104.98335   -22115.543   -8394.7445 
  170800    323.02233   -21978.626    123.24713   -22101.873   -8756.5819 
  171000    299.11672   -22001.335     114.1261   -22115.462   -3922.3041 
  171200    296.05517   -22003.557    112.95798   -22116.515   -1779.1955 
  171400    288.59123   -21993.083    110.11016   -22103.193    16768.021 
  171600    323.00773   -21989.313    123.24156   -22112.555   -30909.532 
  171800    243.36153   -22022.153    92.853054   -22115.006   -3905.6359 
  172000    346.34715   -21996.216    132.14657   -22128.362    1698.2015 
  172200    313.16282   -22023.202    119.48529   -22142.688   -1920.9937 
  172400    280.23159   -22031.346    106.92059   -22138.267   -744.29127 
  172600     295.2983   -22034.878     112.6692   -22147.547    11792.581 
  172800    326.62574   -22015.029    124.62199   -22139.651    1500.3153 
  173000    303.48421   -22018.878    115.79249   -22134.671    4475.2754 
  173200    284.94639   -22034.828     108.7195   -22143.547      13706.2 
  173400    324.54273   -22012.347    123.82723   -22136.174    395.25919 
  173600    283.07317   -22035.828    108.00478   -22143.833   -3002.9444 
  173800    312.13834   -22026.474    119.09441   -22145.568   -7953.3729 
  174000    310.85569   -22016.157    118.60503   -22134.762    22569.168 
  174200    253.64028   -22043.368    96.774846   -22140.143    20057.672 
  174400    309.73212   -22024.982    118.17633   -22143.158    8737.3879 
  174600    315.07352   -22018.718    120.21431   -22138.932   -11529.375 
  174800    294.04667   -22023.094    112.19165   -22135.285    2167.0573 
  175000    280.83037   -22040.839    107.14905   -22147.989   -4057.1926 
  175200    279.08454   -22013.355    106.48295   -22119.838   -11434.198 
  175400    285.27755   -22023.482    108.84585   -22132.328    3680.1756 
  175600    290.09347   -22040.335    110.68333   -22151.018   -22748.737 
  175800    306.44159   -22022.938    116.92085   -22139.859    12044.355 
  176000    320.47411   -22017.222    122.27487   -22139.496    2138.4598 
  176200    299.33616   -22026.747    114.20982   -22140.957   -11493.717 
  176400    265.48877   -22044.772    101.29556   -22146.068   -12412.445 
  176600    271.83276   -22039.879    103.71607   -22143.595    9772.3484 
  176800    307.00796   -22019.731    117.13695   -22136.868   -85.545006 
  177000    298.49417   -22036.991    113.88857   -22150.879   -6470.9351 
  177200    287.12249   -22041.995    109.54977   -22151.545   -5518.8119 
  177400     319.3715   -22018.224    121.85418   -22140.078    6084.2855 
  177600     319.5036    -22035.17    121.90458   -22157.075    326.24911 
  177800    266.87828   -22051.526    101.82572   -22153.352    7097.6402 
  178000    315.63618   -22018.062    120.42899   -22138.491   -8209.4534 
  178200    310.89416   -22031.508    118.61971   -22150.127   -2803.3007 
  178400    316.42478   -22034.239    120.72988   -22154.969    5640.1986 
  178600    330.84929   -22008.548    126.23346   -22134.781    -327.3567 
  178800    247.71868   -22034.826    94.515499   -22129.341   -1283.2243 
  179000    315.25815   -22016.957    120.28476   -22137.242    31012.897 
  179200    327.44027   -22014.079    124.93277   -22139.012    2922.2708 
[...]
  950000    331.07551   -22011.857    126.31977   -22138.177    11924.247 
  950200    276.74835   -22037.188    105.59159    -22142.78   -1489.6796 
  950400    288.10826   -22035.515    109.92589   -22145.441   -7146.5128 
  950600    315.86915   -22014.437    120.51788   -22134.955    125.69056 
  950800    302.34241   -22037.331    115.35684   -22152.688    1211.4799 
  951000    296.31299   -22032.211    113.05635   -22145.267    898.51644 
  951200    295.02972   -22025.975    112.56673   -22138.541   -18815.321 
  951400    338.06485   -22012.099    128.98651   -22141.086   -11159.114 
  951600    299.62971   -22041.114    114.32182   -22155.436   -35726.329 
  951800    328.01213   -22028.676    125.15096   -22153.827   -17418.624 
  952000    329.04317   -22017.981    125.54434   -22143.525   -36885.558 
  952200    285.30809   -22031.511     108.8575   -22140.368   -21176.507 
  952400    291.78143   -22029.663    111.32736    -22140.99    19564.204 
  952600     303.7434   -21997.092    115.89138   -22112.983   -24696.394 
  952800    326.54326   -22028.102    124.59052   -22152.693    6057.4876 
  953000    352.89175   -22032.466    134.64362    -22167.11    11093.263 
  953200    276.55063   -22043.324    105.51615    -22148.84    7216.6599 
  953400    336.01361   -22021.229    128.20387   -22149.433    -288.7423 
  953600    322.16709   -22026.837    122.92082   -22149.758   -12044.806 
  953800    271.56479   -22044.529    103.61383   -22148.143    2854.1975 
  954000    313.29598   -22024.334     119.5361    -22143.87   -5222.1241 
  954200    320.22474   -22027.233    122.17973   -22149.413    5339.6868 
  954400    293.15859   -22039.905    111.85281   -22151.758   -4717.9555 
  954600    320.11686   -22016.186    122.13857   -22138.324     2302.437 
  954800    290.93851   -22044.434    111.00575    -22155.44   -6442.3825 
  955000    304.30082   -22034.873    116.10406   -22150.977   -12962.063 
  955200    328.77443   -22020.352    125.44181   -22145.794    22096.374 
  955400    268.82418   -22051.802    102.56817    -22154.37    6071.9839 
  955600    292.68712   -22034.926    111.67292   -22146.599   -3601.6355 
  955800    303.57741   -22023.681    115.82804   -22139.509    3105.6838 
  956000    315.22712   -22029.889    120.27292   -22150.162    28688.781 
  956200    310.02151   -22032.095    118.28675   -22150.382   -23907.769 
  956400    293.94403   -22036.349    112.15249   -22148.502   -16933.777 
  956600    287.60478   -22064.089    109.73379   -22173.823   -7024.2815 
  956800    316.68703   -22041.609    120.82994   -22162.439   -8711.2471 
  957000    307.81783   -22029.234    117.44595   -22146.679   -26166.642 
  957200     331.8991   -22019.828      126.634   -22146.462    426.11858 
  957400    295.49219   -22047.563    112.74318   -22160.306    2209.3532 
  957600    285.24206   -22025.432    108.83231   -22134.264    29564.784 
  957800    304.83173    -22028.27    116.30662   -22144.576   -1898.3628 
  958000    293.63893   -22042.244    112.03608   -22154.281   -16405.571 
  958200    259.65853   -22059.785    99.071073   -22158.856   -528.09896 
  958400    271.71422   -22034.847    103.67085   -22138.518   -20577.334 
  958600    329.13622   -22024.424    125.57985   -22150.004   -2811.5992 
  958800    275.05118   -22051.565    104.94404   -22156.509   -7646.4472 
  959000    311.83685   -22030.419    118.97938   -22149.399   -7728.9633 
  959200    300.08978   -22026.967    114.49736   -22141.464    25455.376 
  959400    263.69377   -22047.776    100.61069   -22148.387   -20324.872 
  959600    268.14475   -22035.917    102.30894   -22138.226   -4621.4045 
  959800    289.34114   -22023.596    110.39628   -22133.992   -4273.7697 
  960000    263.63215   -22043.743    100.58718    -22144.33   -9000.7774 
  960200    279.54541   -22045.003    106.65879   -22151.662    16269.405 
  960400    287.46084   -22016.761    109.67887    -22126.44    39023.485 
  960600    311.32574   -22041.978    118.78437   -22160.762     6156.824 
  960800    293.15129   -22037.106    111.85002   -22148.956    2227.0229 
  961000    318.24706   -22024.289    121.42516   -22145.714   -16267.218 
  961200    267.24221   -22056.491    101.96458   -22158.456    496.84418 
  961400    284.58996   -22043.889     108.5835   -22152.472    601.84187 
  961600    307.04391   -22023.754    117.15067   -22140.905   -17912.363 
  961800    256.07777   -22040.349    97.704857   -22138.054   -32448.338 
  962000    259.70174   -22046.698    99.087558   -22145.786   -4407.7595 
  962200    301.66724   -22021.637    115.09923   -22136.736   -1017.5058 
  962400     314.2438   -22038.291    119.89774   -22158.189   -1422.4327 
  962600    246.51166   -22047.592    94.054968   -22141.647   -1850.2329 
  962800     324.0968   -22018.299    123.65709   -22141.956    8891.2861 
  963000    286.97335   -22040.016    109.49287   -22149.509   -7904.8276 
  963200    279.03559    -22038.75    106.46427   -22145.215   -3281.7052 
  963400    320.01713   -22031.619    122.10052   -22153.719    14690.651 
  963600    325.75422   -22023.099    124.28947   -22147.389   -14970.491 
  963800     295.0567   -22017.548    112.57702   -22130.125   -8415.6869 
  964000    253.29661   -22039.261    96.643721   -22135.905    10541.217 
  964200    304.49997   -22024.068    116.18004   -22140.248    10623.288 
  964400    312.42921   -22009.518    119.20539   -22128.724   -18658.896 
  964600    308.24808   -22038.556    117.61011   -22156.166   -2940.9546 
  964800    292.17974   -22032.601    111.47934    -22144.08    4929.9858 
  965000     334.1585   -22000.117    127.49606   -22127.613    6196.3422 
  965200    286.39483   -22031.428    109.27214     -22140.7    22156.851 
  965400    303.05524   -22036.567    115.62882   -22152.196    15030.885 
  965600    296.81184   -22040.802    113.24668   -22154.049    423.58759 
  965800    297.99579   -22017.237    113.69841   -22130.935   -11600.257 
  966000    273.40875   -22040.178    104.31738   -22144.496    32526.388 
  966200    312.10147   -22035.552    119.08035   -22154.632    11715.556 
  966400    292.58005   -22020.831    111.63207   -22132.463   -16794.844 
  966600    297.70699   -22022.809    113.58822   -22136.397   -22495.408 
  966800    274.96509   -22043.764    104.91119   -22148.676    664.03595 
  967000    315.90275    -22015.97     120.5307   -22136.501   -11132.684 
  967200    320.92499   -22023.089     122.4469   -22145.536    20335.463 
  967400    288.18606   -22043.511    109.95557   -22153.467    42633.176 
  967600    290.23494   -22037.115    110.73731   -22147.853    7237.0848 
  967800    342.92457   -22031.042     130.8407   -22161.883   -15402.454 
  968000    290.28448   -22038.143    110.75621   -22148.899   -14745.374 
  968200    319.85462   -22022.494    122.03851   -22144.533    15368.975 
  968400     343.9727    -22017.21    131.24061   -22148.451    15352.568 
  968600    286.99442   -22040.188    109.50091   -22149.689   -12224.128 
  968800    325.36486   -22022.146    124.14091   -22146.287     4843.329 
  969000    283.45381    -22050.07    108.15001    -22158.22    65.188806 
  969200    305.84092   -22032.313    116.69167   -22149.004   -2019.1343 
  969400    297.48714   -22033.586    113.50434    -22147.09    1389.8702 
  969600     319.9073   -22025.753    122.05861   -22147.811   -6108.9125 
  969800     295.7945   -22020.871    112.85852    -22133.73     20040.55 
  970000    287.72466   -22042.135    109.77953   -22151.915   -13815.732 
  970200     318.8615   -22025.469    121.65959   -22147.128   -3114.4975 
  970400    294.04932   -22021.533    112.19266   -22133.726   -2523.1277 
  970600    263.96399   -22039.951    100.71379   -22140.664   -6011.9584 
  970800     313.0569   -22030.262    119.44488   -22149.707    2392.2659 
  971000    310.77216   -22028.319    118.57315   -22146.892   -13356.082 
  971200    279.42107   -22037.652    106.61134   -22144.263      21739.8 
  971400    293.27365   -22040.596    111.89671   -22152.493   -10184.878 
  971600    299.96245   -22025.618    114.44878   -22140.066    8246.4926 
  971800    307.01277   -22022.703    117.13878   -22139.842    10983.349 
  972000      299.256   -22043.016    114.17924   -22157.195   -14687.974 
  972200    323.20207   -22027.412    123.31571   -22150.728     27792.42 
  972400    263.62716   -22054.861    100.58528   -22155.447    -515.9196 
  972600    312.17053   -22038.493    119.10669   -22157.599    -724.7039 
  972800    319.23785   -22030.755    121.80319   -22152.558   -9043.5677 
  973000    293.58566   -22040.448    112.01576   -22152.463    15662.556 
  973200    268.89048   -22050.193    102.59346   -22152.786    2559.7066 
  973400     303.7145   -22022.524    115.88035   -22138.405    14469.823 
  973600     331.6502   -22028.564    126.53904   -22155.103    -8640.198 
  973800    279.01104   -22053.524     106.4549   -22159.979   -29947.433 
  974000    318.01845   -22035.018    121.33793   -22156.356   -6017.8787 
  974200    306.07368   -22028.134    116.78048   -22144.915    6152.7614 
  974400    278.68546   -22055.555    106.33068   -22161.886     6088.227 
  974600    275.53337   -22045.559    105.12802   -22150.687   -15317.722 
  974800    321.92433   -22030.871     122.8282     -22153.7    9555.5288 
  975000    288.00242   -22031.016     109.8855   -22140.902    8671.8469 
  975200    299.09613   -22026.142    114.11824   -22140.261    14288.716 
  975400     286.0512   -22046.472    109.14103   -22155.613    16103.228 
  975600    297.79098   -22034.866    113.62027   -22148.486    25742.316 
  975800    299.59974   -22020.228    114.31039   -22134.539   -446.92485 
  976000     283.9647   -22047.493    108.34494   -22155.838    -22732.45 
  976200    297.08693   -22040.532    113.35164   -22153.883   -22137.085 
  976400    294.47169   -22025.983    112.35382   -22138.337   -6773.4976 
  976600     257.1352   -22050.616    98.108312   -22148.724    27334.582 
  976800    309.73299   -22037.407    118.17667   -22155.584    12920.569 
  977000    320.81127    -22029.02    122.40351   -22151.423   -18697.011 
  977200    293.76544   -22033.493    112.08435   -22145.578    7832.9227 
  977400    314.25256   -22031.477    119.90108   -22151.378   -1090.6171 
  977600    256.59775   -22060.412    97.903253   -22158.315    559.72544 
  977800    316.98817   -22042.901    120.94483   -22163.845    7690.3834 
  978000    281.88278   -22027.368    107.55059   -22134.918   -22123.375 
  978200    329.91212    -22013.64    125.87589   -22139.515   -15143.655 
  978400    294.36128   -22039.637    112.31169   -22151.949    1984.9778 
  978600    287.22139   -22041.777    109.58751   -22151.365    5656.5424 
  978800    320.95109   -22018.882    122.45686   -22141.339    29.259614 
  979000    315.28645   -22037.397    120.29555   -22157.692    13354.066 
  979200    285.90807   -22037.403    109.08642    -22146.49    78.381945 
  979400    322.83083   -22026.511    123.17407   -22149.685   -9360.0346 
  979600    344.05211   -22009.587    131.27091   -22140.858    919.06608 
  979800    303.80679   -22039.146    115.91556   -22155.061    32168.907 
  980000    313.35389   -22042.655     119.5582   -22162.213   -3966.0671 
  980200    307.04287   -22011.972    117.15027   -22129.122     -6779.37 
  980400     312.8759   -22032.639    119.37582   -22152.015   -11823.755 
  980600    289.67564   -22035.178    110.52391   -22145.702    8558.0727 
  980800    279.31287   -22045.149    106.57006   -22151.719   -18072.595 
  981000    286.30754   -22046.059    109.23884   -22155.298   -11035.636 
  981200    284.96799   -22025.239    108.72774   -22133.966    8006.3703 
  981400    285.09066   -22039.764    108.77454   -22148.538   -12422.151 
  981600      281.172   -22050.486     107.2794   -22157.765    6735.7189 
  981800    303.39234    -22020.34    115.75743   -22136.097   -4291.2445 
  982000    284.17655   -22040.956    108.42577   -22149.382   -8255.2462 
  982200    323.69722   -22025.281    123.50463   -22148.786    13737.158 
  982400     316.5282   -22019.004    120.76933   -22139.773    13611.822 
  982600    277.44648   -22036.418    105.85795   -22142.276    11677.018 
  982800    304.73973   -22030.344    116.27152   -22146.615    -10816.55 
  983000    310.23392   -22034.992    118.36779   -22153.359    3801.1323 
  983200    298.62904   -22038.293    113.94002   -22152.233   -7245.6414 
  983400    333.21368   -22016.834    127.13558   -22143.969    3498.0393 
  983600    296.73243   -22019.899    113.21639   -22133.116   -5682.8233 
  983800    291.75387    -22045.48    111.31685   -22156.797    1291.1421 
  984000    331.39434   -22020.699    126.44142    -22147.14    5200.0603 
  984200    306.09588   -22021.581    116.78895    -22138.37    19151.842 
  984400    302.17191   -22032.897    115.29178   -22148.189   -7516.9844 
  984600    302.18714   -22048.607     115.2976   -22163.905     156.6862 
  984800    277.96285   -22041.035    106.05497    -22147.09   -8554.0623 
  985000    300.83585   -22024.804    114.78202   -22139.586   -11045.945 
  985200     291.5434   -22043.902    111.23654   -22155.139   -8758.3583 
  985400    340.63835    -22014.15    129.96841   -22144.118   -12370.045 
  985600     303.9161   -22023.455    115.95727   -22139.413   -11075.617 
  985800    320.96518   -22040.135    122.46224   -22162.597   -11827.325 
  986000    307.24473   -22020.798    117.22729   -22138.025   -16249.526 
  986200    320.75363   -22025.173    122.38152   -22147.554    7972.0182 
  986400    284.71113   -22040.064    108.62973   -22148.694   -6836.1273 
  986600    291.59446   -22022.163    111.25603   -22133.419    -20566.56 
  986800    320.48627   -22011.547    122.27951   -22133.827    34743.248 
  987000    278.71083   -22041.304    106.34036   -22147.644    10963.301 
  987200    318.25476   -22030.195    121.42809   -22151.623    4412.8779 
  987400    322.43608   -22014.029    123.02345   -22137.052    8359.2942 
  987600    299.80589    -22030.83    114.38904   -22145.219    5235.1595 
  987800    270.51702   -22040.431    103.21406   -22143.645    11570.942 
  988000    327.97967    -22012.54    125.13857   -22137.678   -12044.845 
  988200    296.76368   -22034.875    113.22831   -22148.103   -15831.071 
  988400    291.21825   -22035.816    111.11248   -22146.929   -5295.6711 
  988600    350.21404   -22015.404    133.62195   -22149.026   -16179.746 
  988800    333.14473   -22000.693    127.10927   -22127.802   -7959.3602 
  989000    323.01603   -22030.989    123.24473   -22154.233   -18626.334 
  989200    300.53944   -22034.545    114.66893   -22149.213    2805.3343 
  989400    349.68389   -22009.263    133.41968   -22142.683    11528.678 
  989600    286.94257    -22038.19    109.48113   -22147.671   -1730.7959 
  989800     316.8705   -22030.053    120.89994   -22150.953   -14512.884 
  990000    334.64487   -22010.286    127.68164   -22137.968    10863.537 
  990200    269.80808    -22039.03    102.94357   -22141.973    19417.158 
  990400     290.0517   -22040.221     110.6674   -22150.888    20408.713 
  990600    328.47783   -22012.852    125.32864   -22138.181   -4969.5253 
  990800    297.96773   -22036.264    113.68771   -22149.952    10208.771 
  991000    305.74818   -22031.193    116.65629    -22147.85   -1112.4963 
  991200    338.13649   -22013.008    129.01384   -22142.022   -9386.7597 
  991400    317.61391   -22027.222    121.18358   -22148.406   -9448.0864 
  991600    323.33224   -22040.384    123.36537    -22163.75    16874.132 
  991800     308.2869   -22017.523    117.62492   -22135.148    -5380.186 
  992000    320.53306   -22022.969    122.29737   -22145.266   -4459.5428 
  992200    309.36263    -22030.62    118.03536   -22148.655    8356.8425 
  992400    277.02501   -22050.303    105.69714       -22156   -14217.747 
  992600    299.06906   -22032.393    114.10791   -22146.501    3774.7402 
  992800    306.22207    -22027.04     116.8371   -22143.877    6848.0856 
  993000    279.72318   -22052.252    106.72661   -22158.979   -8496.9644 
  993200    305.98667   -22037.777    116.74728   -22154.524    12834.631 
  993400     334.6989   -22020.325    127.70225   -22148.027    -3039.715 
  993600    288.24486   -22046.791    109.97801   -22156.769     3065.058 
  993800    303.34559    -22047.56    115.73959     -22163.3    26160.269 
  994000    298.17289   -22034.144    113.76598    -22147.91   -12970.196 
  994200    279.36146    -22028.17     106.5886   -22134.759   -2562.9999 
  994400    322.54344   -22014.133    123.06441   -22137.197    23075.719 
  994600    278.10368   -22045.617     106.1087   -22151.725   -14047.004 
  994800    279.62766   -22031.869    106.69017   -22138.559    23707.348 
  995000    315.43832   -22017.209     120.3535   -22137.562    16290.309 
  995200    281.45599   -22047.075    107.38776   -22154.463    20038.569 
  995400    297.05635    -22023.21    113.33998    -22136.55   -4853.6666 
  995600    314.06495    -22038.21     119.8295   -22158.039    12393.556 
  995800    275.14626   -22048.505    104.98032   -22153.486    18821.275 
  996000    306.74561   -22009.911    117.03685   -22126.948    22530.483 
  996200    325.16649    -22031.07    124.06522   -22155.135   -1073.7769 
  996400    307.69467   -22035.227    117.39896   -22152.626    15746.536 
  996600    322.89296    -22018.59    123.19777   -22141.788    11002.559 
  996800    343.20457   -22012.996    130.94754   -22143.943   -2818.3049 
  997000    327.06689   -22037.317    124.79031   -22162.107    18081.797 
  997200    270.25314   -22027.815    103.11338   -22130.928    20129.767 
  997400    316.61809   -22013.688    120.80363   -22134.492   -4504.1854 
  997600    314.38781   -22034.128    119.95268   -22154.081   -710.65938 
  997800    297.81411   -22031.369    113.62909   -22144.998   -7641.3967 
  998000    365.39787   -22019.085    139.41525   -22158.501    20363.079 
  998200     298.6429   -22040.937    113.94531   -22154.882    10580.426 
  998400    306.47845    -22039.48    116.93492   -22156.415    10961.092 
  998600    327.56898   -22014.185    124.98188   -22139.167   -27699.566 
  998800    328.74845   -22036.074     125.4319   -22161.506   -3478.7432 
  999000    329.90368   -22033.927    125.87267     -22159.8    21.847011 
  999200     349.7263   -22009.358    133.43586   -22142.794   -1605.7443 
  999400    305.13584    -22035.89    116.42265   -22152.313    3709.6411 
  999600    297.76649   -22026.352    113.61092   -22139.963   -16434.699 
  999800    279.97579   -22014.081      106.823   -22120.904    12431.102 
 1000000    261.24333   -22042.593    99.675744   -22142.269    5017.9003 
Loop time of 13092.3 on 8 procs for 1000000 steps with 129 atoms

Performance: 1.650 ns/day, 14.547 hours/ns, 76.381 timesteps/s
98.8% CPU use with 8 MPI tasks x no OpenMP threads

MPI task timing breakdown:
Section |  min time  |  avg time  |  max time  |%varavg| %total
---------------------------------------------------------------
Pair    | 8769.6     | 10065      | 11100      | 765.2 | 76.88
Neigh   | 0.35692    | 0.39114    | 0.42382    |   4.4 |  0.00
Comm    | 83.693     | 1117.5     | 2416.4     |2301.1 |  8.54
Output  | 0.45975    | 0.49567    | 0.67451    |   9.6 |  0.00
Modify  | 1894.4     | 1897.2     | 1902.7     |   6.7 | 14.49
Other   |            | 11.48      |            |       |  0.09

Nlocal:    16.125 ave 39 max 0 min
Histogram: 1 2 1 1 1 0 0 0 0 2
Nghost:    458.75 ave 510 max 401 min
Histogram: 1 2 0 1 0 0 0 1 1 2
Neighs:    1070.88 ave 2446 max 0 min
Histogram: 1 2 0 2 0 1 0 0 0 2

Total # of neighbors = 8567
Ave neighs/atom = 66.4109
Neighbor list builds = 220
Dangerous builds = 0

Please see the log.cite file for references relevant to this simulation

Total wall time: 3:40:07
