ITEM: TIMESTEP
0
ITEM: NUMBER OF ATOMS
49
ITEM: BOX BOUNDS pp pp pp
0.0000000000000000e+00 1.1000000000000000e+01
0.0000000000000000e+00 1.1002000000000001e+01
0.0000000000000000e+00 1.1000000000000000e+01
ITEM: ATOMS id type x y z 
10 1 4.603 4.603 4.603 
11 1 3.085 3.085 3.085 
12 1 3.796 3.796 3.796 
46 1 0.726 0.725 0.725 
47 1 2.26 2.259 2.26 
48 1 1.551 1.55 1.55 
19 1 4.546 4.545 6.226 
20 1 3.013 3.013 7.764 
21 1 3.721 3.721 7.053 
31 1 0.668 0.667 10.103 
32 1 2.187 2.187 8.589 
33 1 1.476 1.475 9.298 
16 1 4.546 6.225 4.546 
17 1 3.013 7.765 3.013 
18 1 3.721 7.053 3.722 
25 1 0.668 10.103 0.668 
26 1 2.188 8.589 2.188 
27 1 1.476 9.298 1.476 
49 2 1.659 10.536 0.45 
4 1 4.608 6.169 6.169 
5 1 3.086 7.684 7.684 
6 1 3.799 6.974 6.974 
37 1 0.729 10.046 10.046 
38 1 2.259 8.509 8.508 
39 1 1.552 9.219 9.219 
13 1 6.225 4.546 4.546 
14 1 7.764 3.013 3.013 
15 1 7.053 3.721 3.722 
28 1 10.102 0.667 0.668 
29 1 8.589 2.187 2.188 
30 1 9.298 1.475 1.476 
1 1 6.168 4.608 6.169 
2 1 7.684 3.086 7.684 
3 1 6.974 3.799 6.974 
40 1 10.045 0.728 10.046 
41 1 8.508 2.259 8.508 
42 1 9.218 1.551 9.218 
7 1 6.169 6.169 4.608 
8 1 7.684 7.684 3.086 
9 1 6.974 6.974 3.799 
43 1 10.046 10.047 0.729 
44 1 8.508 8.509 2.259 
45 1 9.219 9.219 1.552 
22 1 6.229 6.229 6.229 
23 1 7.764 7.765 7.765 
24 1 7.055 7.056 7.055 
34 1 10.108 10.108 10.107 
35 1 8.59 8.59 8.59 
36 1 9.301 9.301 9.3 
ITEM: TIMESTEP
10
ITEM: NUMBER OF ATOMS
49
ITEM: BOX BOUNDS pp pp pp
0.0000000000000000e+00 1.1000000000000000e+01
0.0000000000000000e+00 1.1002000000000001e+01
0.0000000000000000e+00 1.1000000000000000e+01
ITEM: ATOMS id type x y z 
10 1 4.59258 4.58581 4.59298 
11 1 3.08413 3.08476 3.08412 
12 1 3.79255 3.79021 3.79267 
46 1 0.662255 0.871567 0.771683 
47 1 2.28339 2.27505 2.28161 
48 1 1.55549 1.58604 1.5684 
19 1 4.53339 4.53146 6.2408 
20 1 2.99741 2.99757 7.77858 
21 1 3.71059 3.71053 7.06569 
31 1 0.680844 0.69017 10.0606 
32 1 2.20166 2.19888 8.58008 
33 1 1.48131 1.4851 9.28189 
16 1 4.53499 6.237 4.53616 
17 1 3.0125 7.76696 3.0119 
18 1 3.71995 7.05695 3.71848 
25 1 0.698293 10.0293 0.72941 
26 1 2.21654 8.56075 2.21407 
27 1 1.42551 9.19735 1.55517 
49 2 1.79009 10.5802 0.346311 
4 1 4.59611 6.18252 6.18872 
5 1 3.08126 7.68877 7.68643 
6 1 3.79375 6.97821 6.98369 
37 1 0.70916 10.0259 9.95568 
38 1 2.28756 8.48212 8.48646 
39 1 1.56581 9.20397 9.1928 
13 1 6.23979 4.53263 4.53426 
14 1 7.77677 2.99929 2.99974 
15 1 7.06548 3.71062 3.71045 
28 1 10.0613 0.666152 0.689197 
29 1 8.58449 2.19748 2.19566 
30 1 9.28177 1.47895 1.48533 
1 1 6.18031 4.59619 6.18123 
2 1 7.68952 3.07885 7.6893 
3 1 6.98083 3.79469 6.98133 
40 1 10.0385 0.744273 10.038 
41 1 8.49706 2.2684 8.49668 
42 1 9.20905 1.56344 9.20978 
7 1 6.18723 6.18151 4.59744 
8 1 7.68848 7.6909 3.07914 
9 1 6.98604 6.98075 3.79173 
43 1 10.0016 10.0504 0.734454 
44 1 8.50446 8.49923 2.26756 
45 1 9.20126 9.21476 1.55918 
22 1 6.24137 6.24099 6.24096 
23 1 7.77397 7.7759 7.7745 
24 1 7.06697 7.06591 7.06761 
34 1 10.0771 10.0855 10.1032 
35 1 8.58443 8.58319 8.58 
36 1 9.2861 9.28997 9.29491 
ITEM: TIMESTEP
20
ITEM: NUMBER OF ATOMS
49
ITEM: BOX BOUNDS pp pp pp
0.0000000000000000e+00 1.1000000000000000e+01
0.0000000000000000e+00 1.1002000000000001e+01
0.0000000000000000e+00 1.1000000000000000e+01
ITEM: ATOMS id type x y z 
10 1 4.59713 4.56999 4.60148 
11 1 3.09389 3.09316 3.09238 
12 1 3.80398 3.79614 3.80629 
46 1 0.654356 0.884091 0.71697 
47 1 2.2987 2.27268 2.29031 
48 1 1.54917 1.62396 1.57809 
19 1 4.53767 4.53042 6.24579 
20 1 2.99908 2.99991 7.77702 
21 1 3.7153 3.7116 7.06478 
31 1 0.65035 0.669049 10.0827 
32 1 2.19489 2.19212 8.58816 
33 1 1.4757 1.48031 9.28015 
16 1 4.54683 6.23216 4.54498 
17 1 3.03615 7.7509 3.02702 
18 1 3.73838 7.04237 3.73447 
25 1 0.723575 10.083 0.66533 
26 1 2.21115 8.54857 2.22609 
27 1 1.3863 9.16662 1.57684 
49 2 1.86413 10.5767 0.386783 
4 1 4.60209 6.17064 6.20201 
5 1 3.08568 7.68431 7.68209 
6 1 3.80054 6.97117 6.98227 
37 1 0.662225 10.048 9.90455 
38 1 2.28948 8.48839 8.49978 
39 1 1.54847 9.2052 9.17091 
13 1 6.2453 4.53433 4.53848 
14 1 7.77305 3.00412 3.00348 
15 1 7.0616 3.71682 3.71751 
28 1 10.0489 0.64776 0.683234 
29 1 8.57925 2.20666 2.20205 
30 1 9.26085 1.4767 1.49082 
1 1 6.18057 4.59175 6.18552 
2 1 7.68857 3.08062 7.6884 
3 1 6.9801 3.79276 6.98159 
40 1 10.0301 0.749807 10.0097 
41 1 8.48728 2.27882 8.49306 
42 1 9.2065 1.5657 9.19506 
7 1 6.20609 6.18008 4.59716 
8 1 7.69106 7.69311 3.07583 
9 1 6.99255 6.98225 3.79175 
43 1 9.98774 10.0424 0.72674 
44 1 8.50701 8.49986 2.27188 
45 1 9.19069 9.21692 1.54834 
22 1 6.24549 6.23821 6.24229 
23 1 7.77378 7.77569 7.77475 
24 1 7.06592 7.06335 7.06316 
34 1 10.0784 10.0883 10.1215 
35 1 8.58113 8.58472 8.57871 
36 1 9.28386 9.28489 9.29785 
ITEM: TIMESTEP
30
ITEM: NUMBER OF ATOMS
49
ITEM: BOX BOUNDS pp pp pp
0.0000000000000000e+00 1.1000000000000000e+01
0.0000000000000000e+00 1.1002000000000001e+01
0.0000000000000000e+00 1.1000000000000000e+01
ITEM: ATOMS id type x y z 
10 1 4.61153 4.57673 4.61835 
11 1 3.08993 3.08312 3.0847 
12 1 3.79625 3.78398 3.80239 
46 1 0.653814 0.902387 0.724357 
47 1 2.28919 2.26487 2.28928 
48 1 1.5325 1.6341 1.55551 
19 1 4.54 4.52651 6.25099 
20 1 2.9955 2.99619 7.78076 
21 1 3.70698 3.70066 7.07684 
31 1 0.653699 0.675675 10.0711 
32 1 2.18925 2.18581 8.59412 
33 1 1.4672 1.47436 9.28332 
16 1 4.56552 6.21684 4.55961 
17 1 3.04242 7.75281 3.02647 
18 1 3.74188 7.04564 3.73572 
25 1 0.760349 10.1211 0.632076 
26 1 2.18793 8.54124 2.22847 
27 1 1.37144 9.16652 1.57224 
49 2 1.87817 10.5467 0.409844 
4 1 4.60941 6.16153 6.20595 
5 1 3.08382 7.68825 7.68996 
6 1 3.79587 6.97622 6.98984 
37 1 0.676072 10.0538 9.89847 
38 1 2.28315 8.49148 8.51022 
39 1 1.53415 9.21736 9.15265 
13 1 6.24819 4.53575 4.54297 
14 1 7.77218 3.00638 3.00427 
15 1 7.07064 3.70991 3.71252 
28 1 10.0461 0.646195 0.678167 
29 1 8.58326 2.19551 2.19299 
30 1 9.26596 1.46946 1.48336 
1 1 6.17641 4.59528 6.18466 
2 1 7.68603 3.08369 7.68606 
3 1 6.9774 3.79374 6.98055 
40 1 10.0188 0.746834 10.0189 
41 1 8.49557 2.27466 8.49117 
42 1 9.19838 1.56697 9.20322 
7 1 6.20976 6.17613 4.60279 
8 1 7.69422 7.69482 3.07345 
9 1 6.99908 6.98452 3.79157 
43 1 9.98493 10.0571 0.721908 
44 1 8.50797 8.50185 2.26082 
45 1 9.19777 9.22958 1.55143 
22 1 6.25009 6.23654 6.24279 
23 1 7.77302 7.77554 7.77173 
24 1 7.06935 7.06405 7.06815 
34 1 10.0727 10.089 10.12 
35 1 8.58125 8.58283 8.57839 
36 1 9.2759 9.28677 9.30097 
ITEM: TIMESTEP
40
ITEM: NUMBER OF ATOMS
49
ITEM: BOX BOUNDS pp pp pp
0.0000000000000000e+00 1.1000000000000000e+01
0.0000000000000000e+00 1.1002000000000001e+01
0.0000000000000000e+00 1.1000000000000000e+01
ITEM: ATOMS id type x y z 
10 1 4.60608 4.57228 4.61511 
11 1 3.09164 3.08404 3.08848 
12 1 3.8024 3.78235 3.80469 
46 1 0.650746 0.904613 0.711266 
47 1 2.28829 2.26949 2.28649 
48 1 1.52867 1.63551 1.55873 
19 1 4.53806 4.52431 6.25417 
20 1 2.99557 2.99533 7.78162 
21 1 3.70727 3.70051 7.07742 
31 1 0.647389 0.674517 10.0771 
32 1 2.18836 2.18493 8.59084 
33 1 1.46858 1.4776 9.28672 
16 1 4.56363 6.21903 4.55965 
17 1 3.04427 7.75362 3.02805 
18 1 3.74598 7.04473 3.73521 
25 1 0.772925 10.1337 0.627757 
26 1 2.17674 8.53422 2.23215 
27 1 1.36884 9.16669 1.57094 
49 2 1.89306 10.5311 0.420392 
4 1 4.60664 6.16231 6.20632 
5 1 3.08552 7.68734 7.68941 
6 1 3.79893 6.97247 6.99295 
37 1 0.670255 10.0598 9.89652 
38 1 2.28158 8.4909 8.50534 
39 1 1.53499 9.21844 9.15166 
13 1 6.24972 4.53434 4.54274 
14 1 7.77399 3.00534 3.00302 
15 1 7.06962 3.71151 3.71467 
28 1 10.0487 0.644129 0.678168 
29 1 8.57769 2.19686 2.19415 
30 1 9.26539 1.47076 1.4867 
1 1 6.17548 4.59389 6.18438 
2 1 7.68647 3.08362 7.68624 
3 1 6.97714 3.79378 6.98058 
40 1 10.0122 0.747387 10.015 
41 1 8.49143 2.27835 8.48972 
42 1 9.19778 1.56756 9.19788 
7 1 6.21107 6.17619 4.60224 
8 1 7.69716 7.69661 3.07268 
9 1 7.00123 6.98457 3.78895 
43 1 9.99032 10.0534 0.722539 
44 1 8.50933 8.50745 2.26062 
45 1 9.19859 9.2266 1.54519 
22 1 6.24984 6.23579 6.24426 
23 1 7.77381 7.77568 7.77275 
24 1 7.0699 7.06436 7.06668 
34 1 10.0707 10.0878 10.1252 
35 1 8.58049 8.58398 8.58026 
36 1 9.27658 9.2872 9.30236 
ITEM: TIMESTEP
50
ITEM: NUMBER OF ATOMS
49
ITEM: BOX BOUNDS pp pp pp
0.0000000000000000e+00 1.1000000000000000e+01
0.0000000000000000e+00 1.1002000000000001e+01
0.0000000000000000e+00 1.1000000000000000e+01
ITEM: ATOMS id type x y z 
10 1 4.60593 4.57181 4.61579 
11 1 3.09418 3.07833 3.09046 
12 1 3.80261 3.77864 3.80622 
46 1 0.647195 0.910537 0.704984 
47 1 2.27894 2.27201 2.28419 
48 1 1.52337 1.64575 1.54812 
19 1 4.53615 4.52318 6.25467 
20 1 2.99521 2.99312 7.78415 
21 1 3.70633 3.6987 7.07937 
31 1 0.641566 0.67961 10.0828 
32 1 2.18587 2.18137 8.59098 
33 1 1.46392 1.47867 9.2892 
16 1 4.56602 6.21802 4.56019 
17 1 3.0477 7.75569 3.02827 
18 1 3.74814 7.04667 3.73454 
25 1 0.795329 10.1581 0.616313 
26 1 2.1532 8.51679 2.24273 
27 1 1.36334 9.16197 1.57356 
49 2 1.92814 10.5006 0.430791 
4 1 4.60704 6.1613 6.2062 
5 1 3.08818 7.6854 7.69396 
6 1 3.80031 6.97083 6.99593 
37 1 0.673 10.0661 9.89938 
38 1 2.27402 8.49486 8.50041 
39 1 1.53134 9.22407 9.1483 
13 1 6.2491 4.5351 4.54267 
14 1 7.77468 3.0071 3.0042 
15 1 7.06929 3.7117 3.71592 
28 1 10.0518 0.643451 0.678645 
29 1 8.57338 2.19352 2.1922 
30 1 9.26445 1.46874 1.4872 
1 1 6.17408 4.59349 6.18538 
2 1 7.68481 3.08557 7.68471 
3 1 6.97549 3.79586 6.97902 
40 1 10.001 0.74471 10.0137 
41 1 8.48944 2.28222 8.48685 
42 1 9.19339 1.56651 9.19517 
7 1 6.21309 6.17805 4.60102 
8 1 7.70165 7.69805 3.07151 
9 1 7.00447 6.98641 3.78711 
43 1 10.0034 10.0506 0.721725 
44 1 8.50966 8.51278 2.25571 
45 1 9.20446 9.22835 1.5424 
22 1 6.24921 6.23554 6.2435 
23 1 7.77369 7.77459 7.77099 
24 1 7.06989 7.06324 7.06631 
34 1 10.0705 10.0878 10.1307 
35 1 8.5783 8.58488 8.58238 
36 1 9.27471 9.28653 9.30537 
ITEM: TIMESTEP
60
ITEM: NUMBER OF ATOMS
49
ITEM: BOX BOUNDS pp pp pp
0.0000000000000000e+00 1.1000000000000000e+01
0.0000000000000000e+00 1.1002000000000001e+01
0.0000000000000000e+00 1.1000000000000000e+01
ITEM: ATOMS id type x y z 
10 1 4.60581 4.57147 4.61656 
11 1 3.09404 3.07749 3.09059 
12 1 3.80272 3.778 3.80621 
46 1 0.648072 0.910727 0.702973 
47 1 2.27913 2.27491 2.28291 
48 1 1.52235 1.64423 1.55052 
19 1 4.5361 4.52326 6.25459 
20 1 2.99593 2.99324 7.7841 
21 1 3.70601 3.69881 7.07902 
31 1 0.639827 0.680602 10.0824 
32 1 2.18614 2.18103 8.59118 
33 1 1.46285 1.47951 9.28849 
16 1 4.56609 6.21825 4.55989 
17 1 3.04782 7.75585 3.0281 
18 1 3.74873 7.04638 3.73487 
25 1 0.798449 10.1581 0.617316 
26 1 2.14971 8.51532 2.24384 
27 1 1.35981 9.16052 1.57449 
49 2 1.93265 10.5013 0.428213 
4 1 4.60663 6.16076 6.20642 
5 1 3.08829 7.68565 7.69451 
6 1 3.79981 6.9704 6.99684 
37 1 0.673989 10.0671 9.90071 
38 1 2.27367 8.49514 8.49876 
39 1 1.53137 9.22391 9.14852 
13 1 6.24879 4.53493 4.54288 
14 1 7.77462 3.00664 3.00451 
15 1 7.06979 3.71241 3.71515 
28 1 10.0516 0.642914 0.678241 
29 1 8.57337 2.19278 2.19306 
30 1 9.26324 1.46915 1.4855 
1 1 6.1733 4.59366 6.18484 
2 1 7.68539 3.08613 7.68449 
3 1 6.97436 3.7951 6.97937 
40 1 10.0007 0.743676 10.0141 
41 1 8.49088 2.28097 8.48706 
42 1 9.1922 1.56681 9.19641 
7 1 6.21354 6.17796 4.60033 
8 1 7.70227 7.69827 3.07111 
9 1 7.00497 6.98705 3.78693 
43 1 10.005 10.051 0.722399 
44 1 8.50963 8.51308 2.25534 
45 1 9.20519 9.2285 1.5423 
22 1 6.24935 6.23545 6.24356 
23 1 7.77439 7.77474 7.77167 
24 1 7.06979 7.06395 7.06596 
34 1 10.0701 10.0883 10.1306 
35 1 8.57796 8.58469 8.583 
36 1 9.27464 9.28688 9.30515 
ITEM: TIMESTEP
70
ITEM: NUMBER OF ATOMS
49
ITEM: BOX BOUNDS pp pp pp
0.0000000000000000e+00 1.1000000000000000e+01
0.0000000000000000e+00 1.1002000000000001e+01
0.0000000000000000e+00 1.1000000000000000e+01
ITEM: ATOMS id type x y z 
10 1 4.60463 4.57029 4.61736 
11 1 3.0938 3.07049 3.09466 
12 1 3.80401 3.77782 3.80201 
46 1 0.651961 0.906397 0.701645 
47 1 2.27106 2.28386 2.27812 
48 1 1.52046 1.64481 1.54722 
19 1 4.5331 4.52338 6.25472 
20 1 2.99658 2.99125 7.7861 
21 1 3.70468 3.69745 7.07948 
31 1 0.634052 0.6853 10.0817 
32 1 2.18591 2.17987 8.59048 
33 1 1.45855 1.48274 9.28779 
16 1 4.56929 6.21914 4.56032 
17 1 3.04856 7.75647 3.02866 
18 1 3.74993 7.04615 3.7329 
25 1 0.821999 10.1638 0.619878 
26 1 2.12372 8.50379 2.25244 
27 1 1.34332 9.15448 1.57869 
49 2 1.96038 10.4953 0.419907 
4 1 4.60551 6.1606 6.20679 
5 1 3.08738 7.68329 7.69971 
6 1 3.80093 6.97343 6.99885 
37 1 0.678733 10.0699 9.90955 
38 1 2.26649 8.49938 8.49171 
39 1 1.53139 9.22791 9.14913 
13 1 6.24852 4.53722 4.54171 
14 1 7.77559 3.00679 3.00493 
15 1 7.06957 3.71246 3.71443 
28 1 10.053 0.640268 0.678317 
29 1 8.57088 2.19016 2.19202 
30 1 9.26051 1.46523 1.48555 
1 1 6.17131 4.59528 6.1831 
2 1 7.68494 3.08764 7.68342 
3 1 6.97318 3.79634 6.97871 
40 1 9.99244 0.739789 10.0174 
41 1 8.49129 2.28177 8.48519 
42 1 9.18759 1.56516 9.19768 
7 1 6.21396 6.17921 4.59859 
8 1 7.7058 7.70048 3.06873 
9 1 7.00924 6.98958 3.78535 
43 1 10.017 10.0517 0.725077 
44 1 8.51156 8.51655 2.25047 
45 1 9.2116 9.23186 1.54126 
22 1 6.24814 6.23712 6.24117 
23 1 7.77429 7.77503 7.77143 
24 1 7.07108 7.06314 7.0656 
34 1 10.0729 10.0861 10.1328 
35 1 8.57568 8.58524 8.58568 
36 1 9.27444 9.28566 9.30757 
ITEM: TIMESTEP
80
ITEM: NUMBER OF ATOMS
49
ITEM: BOX BOUNDS pp pp pp
0.0000000000000000e+00 1.1000000000000000e+01
0.0000000000000000e+00 1.1002000000000001e+01
0.0000000000000000e+00 1.1000000000000000e+01
ITEM: ATOMS id type x y z 
10 1 4.60531 4.57199 4.61607 
11 1 3.09464 3.0716 3.0925 
12 1 3.80251 3.77464 3.80636 
46 1 0.652069 0.905541 0.701078 
47 1 2.27016 2.28487 2.27771 
48 1 1.51994 1.64544 1.54671 
19 1 4.5333 4.52403 6.25387 
20 1 2.99726 2.99152 7.78546 
21 1 3.70543 3.69804 7.07931 
31 1 0.632124 0.686611 10.082 
32 1 2.18496 2.18033 8.59051 
33 1 1.45883 1.48168 9.2879 
16 1 4.56924 6.2188 4.55954 
17 1 3.04745 7.75646 3.02761 
18 1 3.74934 7.04786 3.73349 
25 1 0.82633 10.1662 0.618899 
26 1 2.1206 8.50055 2.25442 
27 1 1.3429 9.15405 1.57989 
49 2 1.96378 10.4921 0.42118 
4 1 4.60587 6.16104 6.2062 
5 1 3.08812 7.68434 7.69956 
6 1 3.7997 6.97108 7.00001 
37 1 0.679018 10.0703 9.90984 
38 1 2.26611 8.50014 8.49093 
39 1 1.53048 9.22798 9.1487 
13 1 6.24809 4.53693 4.54171 
14 1 7.77522 3.00661 3.00507 
15 1 7.07 3.71316 3.71442 
28 1 10.0529 0.639724 0.678691 
29 1 8.56969 2.18895 2.19188 
30 1 9.2616 1.46611 1.48581 
1 1 6.17014 4.59535 6.18326 
2 1 7.68469 3.08803 7.6833 
3 1 6.97319 3.79643 6.97818 
40 1 9.99142 0.739204 10.0177 
41 1 8.49077 2.28167 8.48542 
42 1 9.18769 1.56531 9.197 
7 1 6.2147 6.18003 4.59827 
8 1 7.70672 7.7009 3.06884 
9 1 7.00897 6.98977 3.7841 
43 1 10.0184 10.0512 0.72552 
44 1 8.51166 8.51739 2.25034 
45 1 9.21283 9.23118 1.54077 
22 1 6.24846 6.2366 6.24136 
23 1 7.77477 7.77443 7.77162 
24 1 7.07017 7.0643 7.06522 
34 1 10.0734 10.0858 10.1334 
35 1 8.57557 8.58538 8.58611 
36 1 9.27436 9.28535 9.30823 
ITEM: TIMESTEP
90
ITEM: NUMBER OF ATOMS
49
ITEM: BOX BOUNDS pp pp pp
0.0000000000000000e+00 1.1000000000000000e+01
0.0000000000000000e+00 1.1002000000000001e+01
0.0000000000000000e+00 1.1000000000000000e+01
ITEM: ATOMS id type x y z 
10 1 4.60377 4.57383 4.61472 
11 1 3.09449 3.07123 3.09393 
12 1 3.80487 3.77202 3.80748 
46 1 0.652978 0.902598 0.69932 
47 1 2.26639 2.29003 2.27511 
48 1 1.51809 1.64741 1.54538 
19 1 4.53266 4.52585 6.25198 
20 1 2.99855 2.9908 7.78532 
21 1 3.7055 3.69795 7.07971 
31 1 0.625911 0.68992 10.0818 
32 1 2.1834 2.18047 8.59048 
33 1 1.45676 1.4821 9.28738 
16 1 4.57056 6.22151 4.55767 
17 1 3.04644 7.75665 3.02716 
18 1 3.74678 7.04696 3.73361 
25 1 0.843308 10.1738 0.61616 
26 1 2.10493 8.49018 2.26284 
27 1 1.33879 9.15203 1.58313 
49 2 1.98 10.4806 0.424663 
4 1 4.60445 6.16141 6.20487 
5 1 3.08733 7.68233 7.70084 
6 1 3.80207 6.97258 7.00102 
37 1 0.680355 10.0717 9.91179 
38 1 2.26346 8.50273 8.48771 
39 1 1.52863 9.22985 9.14645 
13 1 6.24796 4.53877 4.54115 
14 1 7.77513 3.00769 3.00584 
15 1 7.06852 3.71291 3.71464 
28 1 10.0543 0.637338 0.680738 
29 1 8.5676 2.18595 2.19237 
30 1 9.26072 1.4659 1.48485 
1 1 6.16919 4.59515 6.18159 
2 1 7.68399 3.08792 7.68121 
3 1 6.97291 3.79986 6.97931 
40 1 9.98808 0.737321 10.0187 
41 1 8.48965 2.28194 8.4852 
42 1 9.18648 1.56408 9.19677 
7 1 6.2142 6.18245 4.59636 
8 1 7.70792 7.70295 3.067 
9 1 7.01279 6.99024 3.78311 
43 1 10.0255 10.0489 0.726776 
44 1 8.51436 8.51912 2.24864 
45 1 9.21534 9.23283 1.53957 
22 1 6.24814 6.2375 6.23967 
23 1 7.77494 7.77449 7.77094 
24 1 7.06875 7.06348 7.06522 
34 1 10.0747 10.0849 10.1369 
35 1 8.57419 8.58653 8.58766 
36 1 9.27516 9.28228 9.31124 
ITEM: TIMESTEP
100
ITEM: NUMBER OF ATOMS
49
ITEM: BOX BOUNDS pp pp pp
0.0000000000000000e+00 1.1000000000000000e+01
0.0000000000000000e+00 1.1002000000000001e+01
0.0000000000000000e+00 1.1000000000000000e+01
ITEM: ATOMS id type x y z 
10 1 4.60508 4.57837 4.6132 
11 1 3.09681 3.06141 3.09887 
12 1 3.80189 3.77199 3.80707 
46 1 0.659709 0.888863 0.695507 
47 1 2.24725 2.31421 2.26379 
48 1 1.51158 1.65493 1.53771 
19 1 4.52765 4.53208 6.24661 
20 1 3.00506 2.98767 7.78613 
21 1 3.70567 3.69828 7.07765 
31 1 0.602472 0.699853 10.0783 
32 1 2.17883 2.18019 8.58928 
33 1 1.44372 1.48931 9.2836 
16 1 4.57393 6.22805 4.55253 
17 1 3.0313 7.75163 3.02799 
18 1 3.74576 7.05167 3.72905 
25 1 0.922883 10.1977 0.606736 
26 1 2.02772 8.44629 2.29854 
27 1 1.31134 9.14091 1.60051 
49 2 2.06345 10.4397 0.431446 
4 1 4.60449 6.16628 6.20009 
5 1 3.08861 7.68095 7.70924 
6 1 3.79777 6.97223 7.00286 
37 1 0.686873 10.0803 9.9224 
38 1 2.2486 8.51389 8.47012 
39 1 1.52411 9.23957 9.14207 
13 1 6.24479 4.54542 4.53745 
14 1 7.77322 3.00664 3.0074 
15 1 7.06872 3.71641 3.7134 
28 1 10.0609 0.627028 0.686058 
29 1 8.55772 2.1767 2.19034 
30 1 9.25689 1.45603 1.49019 
1 1 6.16476 4.60159 6.17886 
2 1 7.68322 3.09409 7.67907 
3 1 6.97008 3.80015 6.97425 
40 1 9.97288 0.728593 10.0252 
41 1 8.48676 2.28056 8.48325 
42 1 9.17622 1.56099 9.19823 
7 1 6.21788 6.19043 4.58837 
8 1 7.72004 7.70909 3.06049 
9 1 7.01855 6.99942 3.77437 
43 1 10.0515 10.0468 0.732381 
44 1 8.52198 8.52792 2.24104 
45 1 9.23605 9.23593 1.53702 
22 1 6.24564 6.24123 6.23424 
23 1 7.77364 7.77354 7.77175 
24 1 7.06909 7.06693 7.06252 
34 1 10.0843 10.0734 10.1518 
35 1 8.56965 8.5847 8.59684 
36 1 9.27394 9.2771 9.32013 
ITEM: TIMESTEP
110
ITEM: NUMBER OF ATOMS
49
ITEM: BOX BOUNDS pp pp pp
0.0000000000000000e+00 1.1000000000000000e+01
0.0000000000000000e+00 1.1002000000000001e+01
0.0000000000000000e+00 1.1000000000000000e+01
ITEM: ATOMS id type x y z 
10 1 4.60473 4.57878 4.61281 
11 1 3.09564 3.06213 3.09806 
12 1 3.80125 3.77214 3.80641 
46 1 0.661546 0.886866 0.695549 
47 1 2.24589 2.31475 2.26299 
48 1 1.5114 1.6539 1.53693 
19 1 4.52784 4.53214 6.24677 
20 1 3.00525 2.98768 7.78585 
21 1 3.70587 3.6984 7.07755 
31 1 0.602946 0.700167 10.0779 
32 1 2.17843 2.18071 8.5887 
33 1 1.44347 1.49002 9.2834 
16 1 4.57547 6.2281 4.55253 
17 1 3.02716 7.75026 3.02845 
18 1 3.7448 7.05197 3.72852 
25 1 0.929381 10.1954 0.607308 
26 1 2.0234 8.44573 2.2997 
27 1 1.30733 9.14055 1.60154 
49 2 2.0693 10.4421 0.429574 
4 1 4.60434 6.16674 6.19975 
5 1 3.08775 7.68153 7.70859 
6 1 3.79728 6.97283 7.00297 
37 1 0.687964 10.081 9.92383 
38 1 2.24769 8.51445 8.46936 
39 1 1.52483 9.24015 9.14278 
13 1 6.24543 4.54615 4.53732 
14 1 7.77288 3.00624 3.00744 
15 1 7.06865 3.7165 3.71287 
28 1 10.0623 0.625926 0.686746 
29 1 8.55767 2.17583 2.19017 
30 1 9.25707 1.45501 1.49069 
1 1 6.16421 4.60167 6.17831 
2 1 7.68321 3.09331 7.67886 
3 1 6.97073 3.80123 6.97478 
40 1 9.97277 0.72832 10.0265 
41 1 8.48684 2.27984 8.48375 
42 1 9.17572 1.56018 9.19918 
7 1 6.21775 6.19079 4.58831 
8 1 7.72009 7.70919 3.06045 
9 1 7.01845 7.00004 3.77394 
43 1 10.0498 10.0477 0.732509 
44 1 8.5241 8.52733 2.24124 
45 1 9.23599 9.23724 1.53665 
22 1 6.24589 6.24171 6.23349 
23 1 7.77328 7.77359 7.77196 
24 1 7.06901 7.06696 7.06226 
34 1 10.0845 10.0728 10.1523 
35 1 8.56967 8.58431 8.5978 
36 1 9.27412 9.27662 9.32065 
ITEM: TIMESTEP
120
ITEM: NUMBER OF ATOMS
49
ITEM: BOX BOUNDS pp pp pp
0.0000000000000000e+00 1.1000000000000000e+01
0.0000000000000000e+00 1.1002000000000001e+01
0.0000000000000000e+00 1.1000000000000000e+01
ITEM: ATOMS id type x y z 
10 1 4.60021 4.59256 4.60317 
11 1 3.07424 3.08469 3.08492 
12 1 3.79921 3.76771 3.80188 
46 1 0.688892 0.850975 0.692945 
47 1 2.22833 2.32896 2.25446 
48 1 1.51609 1.64246 1.53033 
19 1 4.53463 4.53893 6.24048 
20 1 3.01058 2.98969 7.78017 
21 1 3.70987 3.70286 7.07228 
31 1 0.602521 0.71041 10.0773 
32 1 2.17014 2.19647 8.58463 
33 1 1.44138 1.48908 9.26941 
16 1 4.58004 6.23423 4.54437 
17 1 2.9589 7.71885 3.0456 
18 1 3.72986 7.05538 3.71958 
25 1 1.0584 10.1861 0.594871 
26 1 1.95242 8.42727 2.32729 
27 1 1.25874 9.13237 1.62111 
49 2 2.15694 10.4588 0.417495 
4 1 4.60217 6.17188 6.19574 
5 1 3.07685 7.6874 7.70089 
6 1 3.78664 6.98441 6.98842 
37 1 0.706488 10.0867 9.94888 
38 1 2.24102 8.52425 8.4611 
39 1 1.52244 9.24968 9.14496 
13 1 6.2491 4.55555 4.53755 
14 1 7.76855 3.00339 3.00833 
15 1 7.05888 3.71551 3.70838 
28 1 10.0791 0.608929 0.701375 
29 1 8.55247 2.16307 2.19325 
30 1 9.25887 1.4437 1.49968 
1 1 6.16407 4.60241 6.17164 
2 1 7.68502 3.08845 7.67641 
3 1 6.97658 3.80469 6.97947 
40 1 9.97241 0.723609 10.0394 
41 1 8.48266 2.26806 8.49389 
42 1 9.17119 1.55024 9.20846 
7 1 6.2157 6.19693 4.58218 
8 1 7.72607 7.71699 3.05552 
9 1 7.01926 7.00782 3.76457 
43 1 10.0083 10.0582 0.721907 
44 1 8.54707 8.52476 2.24421 
45 1 9.24917 9.23908 1.53867 
22 1 6.24546 6.24835 6.22787 
23 1 7.76749 7.77603 7.77683 
24 1 7.07162 7.06894 7.06032 
34 1 10.0869 10.0683 10.1722 
35 1 8.5657 8.57729 8.61345 
36 1 9.28232 9.26461 9.32808 
ITEM: TIMESTEP
130
ITEM: NUMBER OF ATOMS
49
ITEM: BOX BOUNDS pp pp pp
0.0000000000000000e+00 1.1000000000000000e+01
0.0000000000000000e+00 1.1002000000000001e+01
0.0000000000000000e+00 1.1000000000000000e+01
ITEM: ATOMS id type x y z 
10 1 4.602 4.5973 4.60083 
11 1 3.06995 3.09216 3.08312 
12 1 3.79397 3.77607 3.79762 
46 1 0.70442 0.820172 0.694092 
47 1 2.22252 2.3358 2.25014 
48 1 1.51611 1.63937 1.52954 
19 1 4.53507 4.54288 6.23663 
20 1 3.01298 2.9932 7.77686 
21 1 3.71294 3.7046 7.06895 
31 1 0.597187 0.710755 10.0704 
32 1 2.16934 2.19832 8.57856 
33 1 1.43786 1.49919 9.26814 
16 1 4.57783 6.238 4.54012 
17 1 2.92728 7.70685 3.05402 
18 1 3.72012 7.05523 3.71562 
25 1 1.10203 10.1794 0.594754 
26 1 1.91736 8.42033 2.33683 
27 1 1.24555 9.1378 1.6196 
49 2 2.19964 10.4637 0.413698 
4 1 4.60192 6.17748 6.18636 
5 1 3.07115 7.69192 7.69173 
6 1 3.78558 6.98503 6.98965 
37 1 0.716186 10.086 9.97484 
38 1 2.236 8.52942 8.45772 
39 1 1.52425 9.25216 9.1448 
13 1 6.24485 4.55733 4.53495 
14 1 7.76262 3.00103 3.00715 
15 1 7.06081 3.71677 3.70948 
28 1 10.0841 0.602725 0.706518 
29 1 8.54937 2.15994 2.19499 
30 1 9.25918 1.43903 1.50796 
1 1 6.16855 4.60766 6.17366 
2 1 7.68707 3.08895 7.67965 
3 1 6.97732 3.79923 6.97609 
40 1 9.97613 0.724454 10.0411 
41 1 8.4779 2.26311 8.4961 
42 1 9.17089 1.54913 9.21276 
7 1 6.21266 6.20206 4.57816 
8 1 7.72733 7.71775 3.05313 
9 1 7.02096 7.01102 3.76497 
43 1 10.0137 10.059 0.723184 
44 1 8.55798 8.51988 2.25146 
45 1 9.2463 9.24468 1.53218 
22 1 6.24385 6.24864 6.22418 
23 1 7.76557 7.77374 7.77679 
24 1 7.06666 7.07057 7.05962 
34 1 10.0932 10.0652 10.1766 
35 1 8.56682 8.57191 8.61613 
36 1 9.27792 9.26007 9.33459 
ITEM: TIMESTEP
140
ITEM: NUMBER OF ATOMS
49
ITEM: BOX BOUNDS pp pp pp
0.0000000000000000e+00 1.1000000000000000e+01
0.0000000000000000e+00 1.1002000000000001e+01
0.0000000000000000e+00 1.1000000000000000e+01
ITEM: ATOMS id type x y z 
10 1 4.60366 4.5957 4.60143 
11 1 3.07345 3.08946 3.08621 
12 1 3.78846 3.78977 3.79393 
46 1 0.705473 0.8097 0.698989 
47 1 2.22283 2.33718 2.24908 
48 1 1.516 1.64007 1.53114 
19 1 4.53503 4.54421 6.23571 
20 1 3.01354 2.99436 7.77569 
21 1 3.71286 3.70671 7.06787 
31 1 0.593305 0.711189 10.0665 
32 1 2.17068 2.19513 8.57575 
33 1 1.43463 1.5065 9.27102 
16 1 4.57454 6.24084 4.5384 
17 1 2.92026 7.70676 3.05577 
18 1 3.7139 7.05371 3.71592 
25 1 1.10894 10.1875 0.593664 
26 1 1.91203 8.4162 2.33967 
27 1 1.2528 9.14017 1.61638 
49 2 2.21015 10.4597 0.416441 
4 1 4.60138 6.17889 6.18155 
5 1 3.07213 7.69108 7.689 
6 1 3.78646 6.98461 6.98653 
37 1 0.7173 10.0792 9.98253 
38 1 2.23587 8.52988 8.45451 
39 1 1.52517 9.25027 9.14589 
13 1 6.24225 4.55642 4.53378 
14 1 7.75956 2.99981 3.00675 
15 1 7.06368 3.71878 3.71101 
28 1 10.0835 0.60023 0.70798 
29 1 8.55051 2.1599 2.19678 
30 1 9.25812 1.43891 1.50786 
1 1 6.1715 4.60764 6.17457 
2 1 7.68681 3.08863 7.67976 
3 1 6.9764 3.79866 6.97638 
40 1 9.98174 0.72609 10.0401 
41 1 8.47614 2.26298 8.49654 
42 1 9.17142 1.55021 9.21206 
7 1 6.20842 6.20388 4.57637 
8 1 7.72909 7.71614 3.05435 
9 1 7.02091 7.01115 3.76606 
43 1 10.0192 10.0573 0.723091 
44 1 8.55713 8.52129 2.25073 
45 1 9.24611 9.24492 1.53103 
22 1 6.24198 6.24784 6.22282 
23 1 7.76584 7.77236 7.77557 
24 1 7.06335 7.07032 7.06065 
34 1 10.0933 10.0637 10.1788 
35 1 8.56983 8.57067 8.61459 
36 1 9.27331 9.26048 9.33877 
ITEM: TIMESTEP
150
ITEM: NUMBER OF ATOMS
49
ITEM: BOX BOUNDS pp pp pp
0.0000000000000000e+00 1.1000000000000000e+01
0.0000000000000000e+00 1.1002000000000001e+01
0.0000000000000000e+00 1.1000000000000000e+01
ITEM: ATOMS id type x y z 
10 1 4.60333 4.59603 4.60095 
11 1 3.07358 3.08986 3.08629 
12 1 3.7873 3.79231 3.7933 
46 1 0.705003 0.809288 0.699909 
47 1 2.22322 2.33743 2.24883 
48 1 1.51556 1.64007 1.5316 
19 1 4.53507 4.54436 6.23536 
20 1 3.01336 2.99471 7.77545 
21 1 3.71282 3.70686 7.06765 
31 1 0.592736 0.711246 10.0664 
32 1 2.17 2.19604 8.57607 
33 1 1.43507 1.50502 9.2701 
16 1 4.57397 6.24134 4.53742 
17 1 2.918 7.70583 3.05679 
18 1 3.71183 7.05305 3.71668 
25 1 1.1123 10.1892 0.592438 
26 1 1.90925 8.41463 2.34081 
27 1 1.25428 9.14065 1.6158 
49 2 2.21466 10.458 0.417437 
4 1 4.60104 6.17911 6.18068 
5 1 3.07207 7.6913 7.68868 
6 1 3.78577 6.98541 6.98521 
37 1 0.716905 10.0787 9.98306 
38 1 2.23495 8.53096 8.4542 
39 1 1.52506 9.24974 9.14683 
13 1 6.24296 4.5574 4.53401 
14 1 7.76037 3.00041 3.00708 
15 1 7.06133 3.71753 3.71044 
28 1 10.0836 0.599598 0.708516 
29 1 8.55048 2.1596 2.19679 
30 1 9.25896 1.43865 1.50875 
1 1 6.17112 4.60772 6.17449 
2 1 7.6859 3.08823 7.68016 
3 1 6.97738 3.79909 6.97574 
40 1 9.98283 0.726341 10.04 
41 1 8.47496 2.26239 8.49719 
42 1 9.17309 1.55104 9.21144 
7 1 6.20776 6.20446 4.57632 
8 1 7.73034 7.71601 3.05549 
9 1 7.01998 7.0108 3.76482 
43 1 10.0211 10.0566 0.723978 
44 1 8.55631 8.52156 2.2504 
45 1 9.24699 9.24496 1.5311 
22 1 6.24165 6.248 6.22274 
23 1 7.7654 7.77219 7.77568 
24 1 7.06352 7.07014 7.06036 
34 1 10.0943 10.0628 10.1792 
35 1 8.56955 8.57023 8.61509 
36 1 9.274 9.26012 9.33826 
ITEM: TIMESTEP
160
ITEM: NUMBER OF ATOMS
49
ITEM: BOX BOUNDS pp pp pp
0.0000000000000000e+00 1.1000000000000000e+01
0.0000000000000000e+00 1.1002000000000001e+01
0.0000000000000000e+00 1.1000000000000000e+01
ITEM: ATOMS id type x y z 
10 1 4.60325 4.59601 4.601 
11 1 3.07351 3.08993 3.08636 
12 1 3.78726 3.79266 3.79306 
46 1 0.704957 0.809205 0.700031 
47 1 2.22323 2.33743 2.24877 
48 1 1.51552 1.64009 1.53167 
19 1 4.53511 4.54439 6.2353 
20 1 3.01339 2.99477 7.7754 
21 1 3.71274 3.70692 7.0676 
31 1 0.592528 0.711419 10.0664 
32 1 2.16981 2.19621 8.57606 
33 1 1.43531 1.50475 9.27006 
16 1 4.57387 6.24141 4.53729 
17 1 2.91754 7.70576 3.05687 
18 1 3.7115 7.05296 3.71678 
25 1 1.11272 10.1894 0.592399 
26 1 1.9088 8.41441 2.34097 
27 1 1.2545 9.14077 1.61567 
49 2 2.21533 10.4577 0.417613 
4 1 4.60105 6.17908 6.1807 
5 1 3.07207 7.69131 7.68868 
6 1 3.78564 6.98557 6.9849 
37 1 0.716853 10.0786 9.98313 
38 1 2.23494 8.53098 8.45403 
39 1 1.52503 9.24969 9.14698 
13 1 6.2429 4.55741 4.534 
14 1 7.76026 3.0004 3.00712 
15 1 7.06135 3.71757 3.71041 
28 1 10.0836 0.599524 0.708525 
29 1 8.55049 2.15962 2.19678 
30 1 9.25904 1.43853 1.50895 
1 1 6.17115 4.6078 6.17442 
2 1 7.68587 3.08822 7.68015 
3 1 6.9773 3.79907 6.97578 
40 1 9.98306 0.72637 10.0399 
41 1 8.47493 2.26225 8.49725 
42 1 9.17317 1.55116 9.21149 
7 1 6.20768 6.20449 4.57623 
8 1 7.73043 7.71594 3.05549 
9 1 7.02003 7.01086 3.76491 
43 1 10.0216 10.0565 0.724101 
44 1 8.55633 8.52161 2.25037 
45 1 9.24695 9.24502 1.53103 
22 1 6.24158 6.24801 6.2227 
23 1 7.76538 7.77218 7.77569 
24 1 7.06345 7.07007 7.0603 
34 1 10.0943 10.0627 10.1794 
35 1 8.56946 8.57021 8.61522 
36 1 9.2742 9.26001 9.33811 
ITEM: TIMESTEP
170
ITEM: NUMBER OF ATOMS
49
ITEM: BOX BOUNDS pp pp pp
0.0000000000000000e+00 1.1000000000000000e+01
0.0000000000000000e+00 1.1002000000000001e+01
0.0000000000000000e+00 1.1000000000000000e+01
ITEM: ATOMS id type x y z 
10 1 4.58939 4.62429 4.5879 
11 1 3.05316 3.13326 3.06584 
12 1 3.7644 3.82814 3.78334 
46 1 0.700488 0.776911 0.731791 
47 1 2.23102 2.34444 2.24263 
48 1 1.50629 1.64475 1.54535 
19 1 4.53214 4.55314 6.21403 
20 1 2.99989 3.00645 7.75681 
21 1 3.71907 3.72401 7.07543 
31 1 0.589818 0.71237 10.0571 
32 1 2.16687 2.20181 8.5675 
33 1 1.42352 1.51565 9.25531 
16 1 4.55454 6.26098 4.50844 
17 1 2.80045 7.67593 3.08957 
18 1 3.6183 7.03493 3.73698 
25 1 1.2471 10.2438 0.57594 
26 1 1.78437 8.36437 2.37404 
27 1 1.31099 9.18124 1.57438 
49 2 2.37995 10.3847 0.465394 
4 1 4.58969 6.18637 6.15601 
5 1 3.05981 7.71217 7.65841 
6 1 3.77305 7.00082 6.95556 
37 1 0.714894 10.0517 10.02 
38 1 2.21698 8.54261 8.42684 
39 1 1.52902 9.23673 9.1677 
13 1 6.23285 4.56977 4.52574 
14 1 7.74457 2.99583 3.007 
15 1 7.05191 3.71825 3.70851 
28 1 10.0989 0.566075 0.72705 
29 1 8.56 2.15278 2.21035 
30 1 9.26932 1.42413 1.5334 
1 1 6.17284 4.61967 6.16246 
2 1 7.66888 3.07906 7.68544 
3 1 6.97725 3.7991 6.97566 
40 1 10.03 0.739056 10.0321 
41 1 8.46636 2.2514 8.51045 
42 1 9.18077 1.55128 9.21948 
7 1 6.18424 6.21592 4.55702 
8 1 7.75725 7.70998 3.06374 
9 1 7.03227 7.01592 3.76762 
43 1 10.0971 10.0355 0.742114 
44 1 8.53315 8.54434 2.22847 
45 1 9.29571 9.23826 1.53865 
22 1 6.22533 6.25146 6.20888 