LAMMPS (3 Mar 2020)
Reading data file ...
  orthogonal box = (0 0 0) to (11 11.002 11)
  2 by 2 by 2 MPI processor grid
  reading atoms ...
  49 atoms
  read_data CPU = 0.00222361 secs
WARNING: Changed valency_val to valency_boc for X (../reaxc_ffield.cpp:315)
WARNING: Using 'neigh_modify every 1 delay 0 check yes' setting during minimization (../min.cpp:190)
Neighbor list info ...
  update every 1 steps, delay 0 steps, check yes
  max neighbors/atom: 2000, page size: 100000
  master list distance cutoff = 12
  ghost atom cutoff = 12
  binsize = 6, bins = 2 2 2
  2 neighbor lists, perpetual/occasional/extra = 2 0 0
  (1) pair reax/c, perpetual
      attributes: half, newton off, ghost
      pair build: half/bin/newtoff/ghost
      stencil: half/ghost/bin/3d/newtoff
      bin: standard
  (2) fix qeq/reax, perpetual, copy from (1)
      attributes: half, newton off, ghost
      pair build: copy
      stencil: none
      bin: none
Setting up cg style minimization ...
  Unit style    : real
  Current step  : 0
Per MPI rank memory allocation (min/avg/max) = 24.8 | 24.88 | 24.96 Mbytes
Step Temp E_pair E_mol TotEng Press 
       0            0   -8492.2127            0   -8492.2127    122324.98 
     297            0   -8775.9026            0   -8775.9026    18450.678 
Loop time of 12.4675 on 8 procs for 297 steps with 49 atoms

99.0% CPU use with 8 MPI tasks x no OpenMP threads

Minimization stats:
  Stopping criterion = energy tolerance
  Energy initial, next-to-last, final = 
        -8492.21265683     -8775.90255729     -8775.90260131
  Force two-norm initial, final = 1891.19 45.4249
  Force max component initial, final = 868.039 12.877
  Final line search alpha, max atom move = 3.17018e-08 4.08223e-07
  Iterations, force evaluations = 297 2554

MPI task timing breakdown:
Section |  min time  |  avg time  |  max time  |%varavg| %total
---------------------------------------------------------------
Pair    | 10.502     | 10.614     | 10.75      |   2.5 | 85.13
Neigh   | 0.0022835  | 0.0023219  | 0.0023786  |   0.1 |  0.02
Comm    | 0.13959    | 0.27508    | 0.38836    |  15.3 |  2.21
Output  | 0.00091474 | 0.0011514  | 0.0017374  |   0.7 |  0.01
Modify  | 1.5474     | 1.548      | 1.549      |   0.0 | 12.42
Other   |            | 0.02705    |            |       |  0.22

Nlocal:    6.125 ave 7 max 6 min
Histogram: 7 0 0 0 0 0 0 0 0 1
Nghost:    939.375 ave 944 max 935 min
Histogram: 4 0 0 0 0 0 0 0 1 3
Neighs:    1699.5 ave 1926 max 1659 min
Histogram: 7 0 0 0 0 0 0 0 0 1

Total # of neighbors = 13596
Ave neighs/atom = 277.469
Neighbor list builds = 1
Dangerous builds = 0
WARNING: Using 'neigh_modify every 1 delay 0 check yes' setting during minimization (../min.cpp:190)
Setting up cg style minimization ...
  Unit style    : real
  Current step  : 297
Per MPI rank memory allocation (min/avg/max) = 24.8 | 24.88 | 24.96 Mbytes
Step Temp E_pair E_mol TotEng Press 
     297            0   -8775.9026            0   -8775.9026    18450.678 
     298            0   -8775.9027            0   -8775.9027    18450.628 
Loop time of 0.101835 on 8 procs for 1 steps with 49 atoms

98.9% CPU use with 8 MPI tasks x no OpenMP threads

Minimization stats:
  Stopping criterion = energy tolerance
  Energy initial, next-to-last, final = 
        -8775.90260078     -8775.90260078     -8775.90266003
  Force two-norm initial, final = 45.4249 39.7997
  Force max component initial, final = 12.877 13.2497
  Final line search alpha, max atom move = 2.96242e-08 3.92512e-07
  Iterations, force evaluations = 1 21

MPI task timing breakdown:
Section |  min time  |  avg time  |  max time  |%varavg| %total
---------------------------------------------------------------
Pair    | 0.088307   | 0.08929    | 0.090544   |   0.3 | 87.68
Neigh   | 0          | 0          | 0          |   0.0 |  0.00
Comm    | 0.0011359  | 0.0023783  | 0.0033528  |   1.8 |  2.34
Output  | 0          | 0          | 0          |   0.0 |  0.00
Modify  | 0.0098556  | 0.0098721  | 0.0098863  |   0.0 |  9.69
Other   |            | 0.0002944  |            |       |  0.29

Nlocal:    6.125 ave 7 max 6 min
Histogram: 7 0 0 0 0 0 0 0 0 1
Nghost:    939.375 ave 944 max 935 min
Histogram: 4 0 0 0 0 0 0 0 1 3
Neighs:    1699.5 ave 1926 max 1662 min
Histogram: 7 0 0 0 0 0 0 0 0 1

Total # of neighbors = 13596
Ave neighs/atom = 277.469
Neighbor list builds = 0
Dangerous builds = 0
WARNING: Using 'neigh_modify every 1 delay 0 check yes' setting during minimization (../min.cpp:190)
Setting up cg style minimization ...
  Unit style    : real
  Current step  : 298
WARNING: Energy due to 3 extra global DOFs will be included in minimizer energies
Per MPI rank memory allocation (min/avg/max) = 24.8 | 24.88 | 24.96 Mbytes
Step Temp E_pair E_mol TotEng Press Volume 
     298            0   -8775.9027            0   -8775.9027    18450.626     1331.242 
     586            0   -8779.0084            0   -8779.0084    9.2894289     1340.212 
Loop time of 2.61534 on 8 procs for 288 steps with 49 atoms

99.0% CPU use with 8 MPI tasks x no OpenMP threads

Minimization stats:
  Stopping criterion = energy tolerance
  Energy initial, next-to-last, final = 
        -8775.90266065     -8779.00833067     -8779.00841089
  Force two-norm initial, final = 622.832 41.2893
  Force max component initial, final = 375.374 15.1837
  Final line search alpha, max atom move = 1.79813e-06 2.73022e-05
  Iterations, force evaluations = 288 575

MPI task timing breakdown:
Section |  min time  |  avg time  |  max time  |%varavg| %total
---------------------------------------------------------------
Pair    | 2.3088     | 2.3271     | 2.364      |   1.1 | 88.98
Neigh   | 0          | 0          | 0          |   0.0 |  0.00
Comm    | 0.028311   | 0.064935   | 0.083175   |   6.8 |  2.48
Output  | 0.00080055 | 0.00098579 | 0.0014746  |   0.0 |  0.04
Modify  | 0.20581    | 0.20614    | 0.20648    |   0.0 |  7.88
Other   |            | 0.01621    |            |       |  0.62

Nlocal:    6.125 ave 7 max 6 min
Histogram: 7 0 0 0 0 0 0 0 0 1
Nghost:    939.375 ave 944 max 935 min
Histogram: 4 0 0 0 0 0 0 0 1 3
Neighs:    1699.5 ave 1926 max 1662 min
Histogram: 7 0 0 0 0 0 0 0 0 1

Total # of neighbors = 13596
Ave neighs/atom = 277.469
Neighbor list builds = 0
Dangerous builds = 0
WARNING: Using 'neigh_modify every 1 delay 0 check yes' setting during minimization (../min.cpp:190)
Setting up cg style minimization ...
  Unit style    : real
  Current step  : 586
Per MPI rank memory allocation (min/avg/max) = 24.8 | 24.88 | 24.96 Mbytes
Step Temp E_pair E_mol TotEng Press 
     586            0   -8779.0084            0   -8779.0084     9.289563 
     589            0   -8779.0095            0   -8779.0095    8.9349966 
Loop time of 0.227107 on 8 procs for 3 steps with 49 atoms

99.3% CPU use with 8 MPI tasks x no OpenMP threads

Minimization stats:
  Stopping criterion = energy tolerance
  Energy initial, next-to-last, final = 
        -8779.00841088     -8779.00938232     -8779.00946396
  Force two-norm initial, final = 41.2692 35.5356
  Force max component initial, final = 15.1837 10.813
  Final line search alpha, max atom move = 1.66934e-07 1.80507e-06
  Iterations, force evaluations = 3 52

MPI task timing breakdown:
Section |  min time  |  avg time  |  max time  |%varavg| %total
---------------------------------------------------------------
Pair    | 0.19447    | 0.19704    | 0.20005    |   0.4 | 86.76
Neigh   | 0          | 0          | 0          |   0.0 |  0.00
Comm    | 0.0024528  | 0.0054189  | 0.0079709  |   2.4 |  2.39
Output  | 0          | 0          | 0          |   0.0 |  0.00
Modify  | 0.024056   | 0.024111   | 0.024163   |   0.0 | 10.62
Other   |            | 0.0005346  |            |       |  0.24

Nlocal:    6.125 ave 7 max 6 min
Histogram: 7 0 0 0 0 0 0 0 0 1
Nghost:    891.375 ave 902 max 881 min
Histogram: 1 1 0 0 2 2 0 0 1 1
Neighs:    1693.75 ave 1923 max 1657 min
Histogram: 7 0 0 0 0 0 0 0 0 1

Total # of neighbors = 13550
Ave neighs/atom = 276.531
Neighbor list builds = 0
Dangerous builds = 0
WARNING: Using 'neigh_modify every 1 delay 0 check yes' setting during minimization (../min.cpp:190)
Setting up cg style minimization ...
  Unit style    : real
  Current step  : 589
WARNING: Energy due to 3 extra global DOFs will be included in minimizer energies
Per MPI rank memory allocation (min/avg/max) = 24.8 | 24.88 | 24.96 Mbytes
Step Temp E_pair E_mol TotEng Press Volume 
     589            0   -8779.0095            0   -8779.0095    8.9337114     1340.212 
     591            0   -8779.0096            0   -8779.0096     6.231415    1340.2121 
Loop time of 0.0915253 on 8 procs for 2 steps with 49 atoms

99.3% CPU use with 8 MPI tasks x no OpenMP threads

Minimization stats:
  Stopping criterion = energy tolerance
  Energy initial, next-to-last, final = 
        -8779.00946464      -8779.0096028     -8779.00960923
  Force two-norm initial, final = 35.5595 35.1029
  Force max component initial, final = 10.813 10.712
  Final line search alpha, max atom move = 3.94092e-07 4.2215e-06
  Iterations, force evaluations = 2 21

MPI task timing breakdown:
Section |  min time  |  avg time  |  max time  |%varavg| %total
---------------------------------------------------------------
Pair    | 0.079786   | 0.08096    | 0.082418   |   0.3 | 88.46
Neigh   | 0          | 0          | 0          |   0.0 |  0.00
Comm    | 0.00096268 | 0.0024129  | 0.0035832  |   1.7 |  2.64
Output  | 2.8113e-05 | 3.5477e-05 | 5.9371e-05 |   0.0 |  0.04
Modify  | 0.0075236  | 0.0075387  | 0.0075474  |   0.0 |  8.24
Other   |            | 0.0005783  |            |       |  0.63

Nlocal:    6.125 ave 7 max 6 min
Histogram: 7 0 0 0 0 0 0 0 0 1
Nghost:    891.375 ave 902 max 881 min
Histogram: 1 1 0 0 2 2 0 0 1 1
Neighs:    1693.75 ave 1923 max 1657 min
Histogram: 7 0 0 0 0 0 0 0 0 1

Total # of neighbors = 13550
Ave neighs/atom = 276.531
Neighbor list builds = 0
Dangerous builds = 0
WARNING: Using 'neigh_modify every 1 delay 0 check yes' setting during minimization (../min.cpp:190)
Setting up cg style minimization ...
  Unit style    : real
  Current step  : 591
Per MPI rank memory allocation (min/avg/max) = 24.8 | 24.88 | 24.96 Mbytes
Step Temp E_pair E_mol TotEng Press 
     591            0   -8779.0096            0   -8779.0096     6.225326 
     592            0   -8779.0097            0   -8779.0097    6.1732384 
Loop time of 0.0808508 on 8 procs for 1 steps with 49 atoms

99.0% CPU use with 8 MPI tasks x no OpenMP threads

Minimization stats:
  Stopping criterion = energy tolerance
  Energy initial, next-to-last, final = 
        -8779.00961057     -8779.00961057     -8779.00969716
  Force two-norm initial, final = 35.0793 35.3428
  Force max component initial, final = 10.712 10.804
  Final line search alpha, max atom move = 1.42446e-07 1.53899e-06
  Iterations, force evaluations = 1 18

MPI task timing breakdown:
Section |  min time  |  avg time  |  max time  |%varavg| %total
---------------------------------------------------------------
Pair    | 0.069317   | 0.070184   | 0.071266   |   0.2 | 86.81
Neigh   | 0          | 0          | 0          |   0.0 |  0.00
Comm    | 0.00087445 | 0.0019444  | 0.0027965  |   1.4 |  2.40
Output  | 0          | 0          | 0          |   0.0 |  0.00
Modify  | 0.0084554  | 0.0084761  | 0.0084952  |   0.0 | 10.48
Other   |            | 0.000246   |            |       |  0.30

Nlocal:    6.125 ave 7 max 6 min
Histogram: 7 0 0 0 0 0 0 0 0 1
Nghost:    891.375 ave 902 max 881 min
Histogram: 1 1 0 0 2 2 0 0 1 1
Neighs:    1693.75 ave 1923 max 1657 min
Histogram: 7 0 0 0 0 0 0 0 0 1

Total # of neighbors = 13550
Ave neighs/atom = 276.531
Neighbor list builds = 0
Dangerous builds = 0
Setting up Verlet run ...
  Unit style    : real
  Current step  : 0
  Time step     : 0.25
Per MPI rank memory allocation (min/avg/max) = 23.68 | 23.76 | 23.83 Mbytes
Step Temp TotEng KinEng PotEng Press 
       0          300    -8736.086    42.923665   -8779.0097    1470.2259 
     200     216.8678   -8718.0233    31.029203   -8749.0525    2110.1847 
     400    380.86231   -8690.9749    54.493353   -8745.4682   -42811.382 
     600    285.64787   -8682.8542    40.870178   -8723.7244    32669.779 
     800    289.80895   -8692.9899     41.46554   -8734.4555    22872.858 
    1000    315.00125   -8702.5119    45.070027   -8747.5819    9055.0813 
    1200     297.1243   -8686.7843    42.512213   -8729.2965    19483.908 
    1400    306.24522   -8685.4613    43.817224   -8729.2785   -5366.5544 
    1600    277.05477   -8702.9226    39.640687   -8742.5633   -34795.249 
    1800    244.30167   -8697.7304    34.954411   -8732.6848    62969.086 
    2000    267.71297   -8688.5736    38.304072   -8726.8776   -3137.5051 
    2200    251.66787   -8702.0222    36.008358   -8738.0306    17576.925 
    2400    301.97695   -8699.5366    43.206525   -8742.7431    1480.3395 
    2600    289.87008   -8695.4056    41.474287   -8736.8799   -8986.8333 
    2800    321.79691   -8680.5515    46.042343   -8726.5938    32160.787 
    3000    287.20086   -8691.0024    41.092378   -8732.0948    17355.822 
    3200    270.12355   -8701.3711    38.648976   -8740.0201    -12471.63 
    3400    302.17391   -8687.2871    43.234705   -8730.5218     89387.38 
    3600    250.97526   -8698.3404    35.909259   -8734.2497   -5032.2457 
    3800    279.52509   -8699.8165    39.994138   -8739.8106    889.10237 
    4000    322.02095     -8690.55    46.074398   -8736.6244   -9674.3191 
    4200    304.96556   -8691.2115    43.634132   -8734.8457    18433.475 
    4400     313.3271   -8703.7869    44.830491   -8748.6174    12712.079 
    4600    248.56431   -8708.6979    35.564303   -8744.2622    -21361.07 
    4800    296.93163   -8694.8002    42.484646   -8737.2849   -30089.508 
    5000    330.49742   -8684.7204    47.287201   -8732.0076    1904.1501 
    5200    370.55504   -8671.0724    53.018601    -8724.091    10054.037 
    5400    291.45961   -8691.6636    41.701715   -8733.3653   -3084.4286 
    5600    332.02244   -8698.8558      47.5054   -8746.3612    -4698.726 
    5800    259.88519   -8681.5726    37.184083   -8718.7567   -28207.311 
    6000    313.90281   -8692.2892    44.912863    -8737.202    16490.636 
    6200    300.72497   -8696.3586    43.027392    -8739.386   -14934.937 
    6400    278.83195   -8697.1095    39.894964   -8737.0045     6103.197 
    6600    313.51844   -8690.3438    44.857867   -8735.2017     5282.667 
    6800     258.8792    -8687.315    37.040146   -8724.3551   -16216.756 
    7000    245.79344   -8700.2872    35.167851    -8735.455   -1886.7202 
    7200     286.3554   -8691.0865     40.97141   -8732.0579   -12635.766 
    7400    327.01569   -8683.5036     46.78904   -8730.2926   -11692.194 
    7600    300.10264   -8704.0365    42.938351   -8746.9749    44030.126 
    7800    283.82032   -8692.0363    40.608694   -8732.6449    10689.079 
    8000    294.59068   -8688.3436    42.149705   -8730.4933    13623.891 
    8200    317.36734   -8696.1415    45.408565   -8741.5501    3106.6971 
    8400    272.61086   -8697.2968    39.004857   -8736.3016   -29131.361 
    8600    395.04949   -8677.4522    56.523239   -8733.9755   -3881.0693 
    8800    298.99713    -8697.771    42.780175   -8740.5512   -5150.1935 
    9000    271.48436   -8694.4546    38.843678   -8733.2983   -1116.5212 
    9200     347.3642   -8684.7316    49.700481   -8734.4321    29475.796 
    9400    282.61331   -8694.2288    40.435996   -8734.6648    2402.0477 
    9600    271.28087    -8701.288    38.814564   -8740.1026   -16195.107 
    9800    277.02855   -8698.0696    39.636935   -8737.7065    25529.746 
   10000    353.50099   -8685.5065    50.578526    -8736.085   -15458.474 
   10200    299.73736   -8701.9681    42.886086   -8744.8542   -25714.481 
   10400    279.75553   -8697.0462    40.027109   -8737.0733   -22254.699 
   10600     268.6465   -8693.2962    38.437641   -8731.7338    6054.8083 
   10800    353.27342   -8690.8151    50.545966   -8741.3611   -7044.2161 
   11000    291.41803   -8691.6669    41.695766   -8733.3627    20614.858 
   11200    298.84507   -8700.4187    42.758419   -8743.1772    10663.034 
   11400    356.02966    -8689.548    50.940326   -8740.4884    17719.031 
   11600    354.68034    -8688.225    50.747266   -8738.9723    9307.6187 
   11800    283.96031   -8703.3244    40.628724   -8743.9531   -7811.5219 
   12000    328.24635   -8693.3426    46.965121   -8740.3077    50142.453 
   12200    292.26707   -8691.8971    41.817245   -8733.7143    1685.6098 
   12400    311.40754   -8695.3254    44.555842   -8739.8812   -1689.5829 
   12600    252.95744    -8705.818    36.192868   -8742.0108    40447.563 
   12800    303.42786   -8689.7436    43.414119   -8733.1578   -14707.023 
   13000    276.33438    -8695.665    39.537614   -8735.2026   -12854.089 
   13200    259.41456   -8704.0037    37.116745   -8741.1204    15320.334 
   13400    290.84772   -8691.2359    41.614167   -8732.8501     10124.95 
   13600    261.29217   -8688.5743    37.385391   -8725.9597   -38324.822 
   13800    259.03196   -8705.1099    37.062003   -8742.1719    26742.804 
   14000    313.12796   -8696.5079    44.801998   -8741.3099   -28943.631 
   14200    317.26354    -8690.018    45.393712   -8735.4117   -32089.283 
   14400    279.37116   -8693.4476    39.972114   -8733.4197    17531.126 
   14600    284.53555   -8705.9834    40.711028   -8746.6944   -13186.294 
   14800    357.85776   -8689.4941    51.201888    -8740.696    9549.7883 
   15000    296.21137   -8693.8718    42.381592   -8736.2534    42561.359 
   15200    256.24788   -8707.3232    36.663661   -8743.9869   -13553.234 
   15400    328.15068   -8694.7362    46.951432   -8741.6876    1826.7843 
   15600    294.53916   -8691.8813    42.142334   -8734.0236    20207.838 
   15800    319.24356   -8696.2779    45.677012   -8741.9549     11616.71 
   16000    303.55449   -8689.9313    43.432238   -8733.3636   -16878.849 
   16200    274.31579   -8694.9735    39.248796   -8734.2223    1191.3717 
   16400    294.47571    -8700.579    42.133255   -8742.7122    1071.2529 
   16600    281.12047   -8686.1159    40.222403   -8726.3383   -11888.026 
   16800    313.58952   -8696.4728    44.868038   -8741.3409    39051.641 
   17000    294.77621   -8701.7242     42.17625   -8743.9004    13385.016 
   17200    327.67071   -8683.0989    46.882759   -8729.9817   -1430.4975 
   17400    332.16614   -8691.1476    47.525961   -8738.6736   -9354.0856 
   17600    253.69291    -8701.045    36.298099   -8737.3431    11488.345 
   17800    324.94676   -8690.7108    46.493019   -8737.2038    -34633.09 
   18000    329.85009   -8688.9419    47.194582   -8736.1364    27159.881 
   18200    248.61912   -8706.3266    35.572145   -8741.8988   -1133.4949 
   18400    273.35949   -8700.0921     39.11197    -8739.204   -15979.772 
   18600    354.93683   -8690.2327    50.783965   -8741.0167    29642.574 
   18800    282.44592   -8696.8593    40.412047   -8737.2714    30480.522 
   19000    253.63887   -8702.0917    36.290366    -8738.382    25452.458 
   19200    322.39697   -8691.0007    46.128197   -8737.1289   -8176.0241 
   19400    314.87206   -8689.3236    45.051543   -8734.3752   -12245.191 
   19600    323.70755   -8684.6457    46.315715   -8730.9614    7259.4329 
   19800    324.23416   -8698.6057    46.391062   -8744.9968   -34023.686 
   20000    372.38827   -8684.9504    53.280898   -8738.2313   -6541.8248 
   20200    286.64889   -8702.9429    41.013402   -8743.9563    12322.246 
   20400    254.02129   -8698.5582    36.345083   -8734.9033    4176.0398 
   20600     297.1463   -8687.4064    42.515361   -8729.9218    22240.306 
   20800    277.83915   -8690.5445    39.752915   -8730.2974    2262.0087 
   21000     275.9781   -8704.3426    39.486639   -8743.8292   -2453.6722 
   21200    303.14668   -8689.0336    43.373889   -8732.4075   -34802.719 
   21400    279.06414   -8692.7727    39.928186   -8732.7009    34310.999 
   21600    283.45984   -8698.9197    40.557117   -8739.4768   -6766.0476 
   21800    230.84296   -8707.5108    33.028753   -8740.5395   -35098.707 
   22000    279.22031   -8694.9944     39.95053    -8734.945    -39291.54 
   22200    301.08665   -8688.3745    43.079142   -8731.4537    17832.429 
   22400    218.76984   -8704.3135    31.301345   -8735.6148    10793.316 
   22600    299.72979   -8695.2704    42.885004   -8738.1554   -14239.361 
   22800    323.06626   -8688.8997    46.223959   -8735.1237     2906.929 
   23000    248.01161    -8696.164    35.485223   -8731.6493   -20954.049 
   23200    236.88649    -8709.658    33.893454   -8743.5514   -1398.7075 
   23400    323.44181   -8696.6347    46.277692   -8742.9124    2746.3566 
   23600    315.54688   -8689.4535    45.148095   -8734.6016    -4192.434 
   23800    272.23637   -8697.4775    38.951276   -8736.4287    -4772.034 
   24000    281.56027   -8705.4304    40.285329   -8745.7157   -8975.8775 
   24200    276.56702   -8691.3393      39.5709   -8730.9102    -26204.36 
   24400    316.40568   -8691.8666    45.270971   -8737.1376    8440.9661 
   24600    255.75568   -8704.1478    36.593237    -8740.741    27030.933 
   24800    318.46452   -8685.8159    45.565548   -8731.3814    -8223.611 
   25000    307.37482   -8693.2347    43.978845   -8737.2135     434.7403 
   25200    333.92483   -8703.0185    47.777592   -8750.7961   -9865.9271 
   25400    303.93129    -8696.199     43.48615   -8739.6851    22093.232 
   25600    303.07604   -8690.5629    43.363781   -8733.9267    9863.3233 
   25800     275.7964    -8693.054     39.46064   -8732.5147   -23135.577 
   26000    292.68769   -8704.3691    41.877427   -8746.2466   -5538.9306 
   26200    309.61706   -8691.4803    44.299663     -8735.78    2384.2759 
   26400    280.98937   -8689.3893    40.203645   -8729.5929    4665.6151 
   26600    319.16011   -8702.7837    45.665072   -8748.4487   -3810.2405 
   26800    316.35351   -8686.4949    45.263506   -8731.7584   -15316.773 
   27000    328.57991   -8690.2646    47.012846   -8737.2774    18180.184 
   27200    272.37238   -8703.8676    38.970736   -8742.8384    24811.103 
   27400     299.0337   -8695.2588    42.785407   -8738.0442   -4876.1229 
   27600    361.78604   -8684.5276    51.763943   -8736.2915    20070.061 
   27800    305.22112   -8699.6347    43.670697   -8743.3054    2904.7254 
   28000     264.1252   -8701.1188    37.790738   -8738.9095    32059.334 
   28200    343.97235   -8690.6794     49.21518   -8739.8946   -6865.7789 
   28400    298.03571   -8696.8994    42.642616    -8739.542    23037.141 
   28600    253.06713   -8703.8956    36.208563   -8740.1042    -15131.32 
   28800    353.75296   -8686.0686    50.614579   -8736.6831   -9884.1092 
   29000    301.60821   -8697.5958    43.153765   -8740.7495     7907.153 
   29200    284.39863   -8704.7909    40.691437   -8745.4823   -9016.9974 
   29400    266.83173   -8693.5282    38.177986   -8731.7061    12448.533 
   29600    279.60679   -8689.8965    40.005827   -8729.9023   -19346.763 
   29800    394.15477   -8677.1836    56.395224   -8733.5788    -14934.21 
   30000    330.88548    -8694.186    47.342725   -8741.5287    57703.527 
   30200    314.34384   -8694.6072    44.975965   -8739.5831    4692.6866 
   30400     242.2178   -8695.9855    34.656252   -8730.6417    -32379.02 
   30600    344.86807   -8686.9388    49.343338   -8736.2822   -15728.287 
   30800    289.33961   -8700.7878    41.398388   -8742.1862    10403.741 
   31000    322.18817   -8688.6198    46.098323   -8734.7181    26323.127 
   31200    290.23896   -8689.1483    41.527066   -8730.6754   -13446.193 
   31400    330.26627   -8697.2453    47.254129   -8744.4995   -22588.852 
   31600    221.00919   -8709.0304    31.621748   -8740.6522    -10703.89 
   31800    356.26256   -8693.5342    50.973649   -8744.5079   -5385.4683 
   32000    262.75067   -8695.1777    37.594072   -8732.7717    232.23769 
   32200    332.67155   -8683.5309    47.598274   -8731.1292    18300.872 
   32400    281.34992   -8702.4677    40.255232   -8742.7229       -13996 
   32600    320.08953   -8689.8724    45.798052   -8735.6704   -3446.7352 
   32800     299.0643   -8689.9587    42.789785   -8732.7485   -22410.689 
   33000    256.09754   -8700.3236     36.64215   -8736.9658    -7809.315 
   33200    268.99863   -8698.0944    38.488024   -8736.5824     10050.11 
   33400    368.24463   -8683.9766     52.68803   -8736.6646    5325.9154 
   33600    313.67874   -8694.2802    44.880803    -8739.161   -20689.971 
   33800    296.43791   -8698.4356    42.414004   -8740.8496   -7617.7082 
   34000    289.94086   -8693.8802    41.484415   -8735.3646    26133.269 
   34200     280.2648   -8694.6259    40.099974   -8734.7258   -16918.069 
   34400    252.17733    -8707.495    36.081251   -8743.5763    -366.4046 
   34600    298.98769    -8696.902    42.778825   -8739.6808   -19153.085 
   34800     378.8054   -8686.5743    54.199054   -8740.7733     -6952.99 
   35000    290.69881   -8703.2297    41.592861   -8744.8226   -39213.642 
   35200    299.98084    -8702.242    42.920923   -8745.1629   -23297.426 
   35400    379.60041   -8691.1572    54.312803     -8745.47     32561.74 
   35600    389.45672   -8682.4256    55.723032   -8738.1487     5913.528 
   35800    266.19726   -8693.5154    38.087206   -8731.6026   -17264.976 
   36000     342.6585   -8695.6042    49.027196   -8744.6314   -6960.3116 
   36200    341.21708   -8676.1283    48.820958   -8724.9493   -30633.455 
   36400    318.89352   -8685.5995    45.626928   -8731.2264   -42726.101 
   36600    280.09851   -8696.2838    40.076182     -8736.36    32135.682 
   36800    297.59274   -8694.1256    42.579236   -8736.7049    16174.095 
   37000    359.23952    -8684.104    51.399589   -8735.5036   -17916.663 
   37200    323.26041   -8694.9524    46.251738   -8741.2041    14711.187 
   37400    302.05307   -8697.7047    43.217416   -8740.9221    1092.1429 
   37600    339.71921   -8697.4273    48.606645   -8746.0339   -14171.487 
   37800    345.41723   -8683.3429    49.421912   -8732.7649   -39551.473 
   38000    296.81808   -8697.4825    42.468399   -8739.9509    2737.8998 
   38200    270.73012   -8706.9642    38.735764   -8745.6999    4831.2022 
   38400    298.43097   -8692.6639    42.699169   -8735.3631   -617.91973 
   38600    298.33812   -8693.0789    42.685884   -8735.7648   -7820.1045 
   38800     255.7799    -8710.565    36.596702   -8747.1617    523.94439 
   39000    297.67963   -8705.2654    42.591668    -8747.857   -15253.355 
   39200    303.58072   -8692.7859     43.43599   -8736.2219    3207.0413 
   39400    308.57656   -8688.8074     44.15079   -8732.9582   -1552.1582 
   39600    238.28508   -8702.7989    34.093563   -8736.8925   -27032.577 
   39800    317.75438   -8682.4006    45.463941   -8727.8646    3731.7104 
   40000    253.41175   -8691.8844     36.25787   -8728.1422    14987.176 
   40200    272.03533   -8703.5639    38.922511   -8742.4864    48079.543 
   40400    278.71866   -8708.1111    39.878754   -8747.9898   -1556.8519 
   40600    271.58186   -8697.0061    38.857629   -8735.8637    1335.8927 
   40800    294.76172   -8687.2658    42.174177     -8729.44    14168.823 
   41000    233.29189   -8700.2416    33.379143   -8733.6207    4712.6039 
   41200    327.89062   -8695.2236    46.914223   -8742.1379     6831.664 
   41400     334.9723   -8681.8219    47.927462   -8729.7494    13100.607 
   41600    337.93387    -8681.214      48.3512   -8729.5652    1831.7472 
   41800    339.57332   -8696.9453    48.585772    -8745.531   -8179.5788 
   42000    283.71253   -8692.8069    40.593271   -8733.4002   -4119.8042 
   42200    350.83689   -8685.7916     50.19735    -8735.989   -14555.876 
   42400    276.90369   -8701.9615    39.619071   -8741.5806    9447.7062 
   42600    276.26018   -8698.7966    39.526997   -8738.3235    41917.547 
   42800    305.40528   -8690.9456    43.697046   -8734.6426    2980.6683 
   43000    336.49945   -8676.4864    48.145966   -8724.6324     5645.445 
   43200    341.29016   -8691.2669    48.831415   -8740.0983   -22797.875 
   43400    294.64987   -8701.3197    42.158175   -8743.4779    15555.639 
   43600    282.53659   -8680.4581     40.42502   -8720.8831   -25243.559 
   43800    316.68281   -8693.4254    45.310622    -8738.736    50165.346 
   44000    321.31841   -8696.1639    45.973878   -8742.1378   -16213.935 
   44200    225.79536   -8712.3596    32.306548   -8744.6662    3427.8241 
   44400    296.26839   -8698.6783     42.38975    -8741.068   -11976.294 
   44600    288.92105   -8693.4998    41.338502   -8734.8383   -1492.6377 
   44800    322.44641   -8682.4664    46.135272   -8728.6016   -779.07543 
   45000    226.85521   -8694.3417     32.45819   -8726.7999   -8972.6935 
   45200    290.41316   -8692.9806     41.55199   -8734.5326   -36326.065 
   45400    315.94917   -8680.6881    45.205655   -8725.8938    9066.9877 
   45600    279.54986   -8699.2478    39.997681   -8739.2455    -28853.22 
   45800     323.5142   -8697.7116     46.28805   -8743.9996    18473.465 
   46000    325.88319   -8681.7069    46.627002   -8728.3339   -55441.565 
   46200    231.75568   -8697.9123    33.159343   -8731.0716   -1845.1128 
   46400    311.21587   -8691.3408    44.528419   -8735.8692    12698.512 
   46600    256.94243   -8698.4175    36.763035   -8735.1805   -2064.9999 
   46800    294.72308    -8689.274    42.168649   -8731.4426   -6384.9799 
   47000    264.23566   -8692.7403    37.806542   -8730.5469     4815.463 
   47200    321.80467   -8697.1846    46.043453   -8743.2281   -34659.455 
   47400    369.43941   -8683.4735    52.858978   -8736.3325    23277.966 
   47600    300.34751   -8695.3711    42.973386   -8738.3445   -22666.989 
   47800     282.6256   -8695.7917    40.437756   -8736.2295    2357.9098 
   48000    341.22643   -8687.4723    48.822297   -8736.2946   -7460.9962 
   48200    306.48395   -8692.3197     43.85138   -8736.1711     10908.16 
   48400    286.79303   -8696.3931    41.034026   -8737.4271    7611.2958 
   48600    288.29372   -8702.5768    41.248743   -8743.8256    22021.224 
   48800    273.27651   -8691.7304    39.100098   -8730.8305   -18836.793 
   49000    286.08227   -8699.0048    40.932332   -8739.9371    46853.042 
   49200    236.43699   -8702.1349    33.829141   -8735.9641   -8145.8224 
   49400    309.19694   -8690.3236    44.239553   -8734.5631   -20123.049 
   49600    263.26015   -8705.9725    37.666968   -8743.6395   -2875.9684 
   49800    330.22471   -8693.0884    47.248182   -8740.3366   -40533.616 
   50000    266.45816   -8692.1445    38.124536   -8730.2691     17959.51 
   50200    333.06795   -8680.1345    47.654989   -8727.7895    12968.134 
   50400    273.00289   -8699.5521    39.060948   -8738.6131    24276.209 
   50600    306.42393   -8689.9786    43.842794   -8733.8214   -1466.9351 
   50800    376.17299   -8687.6877    53.822411   -8741.5101   -12614.034 
   51000    246.99408   -8704.1481    35.339637   -8739.4877   -22940.864 
   51200    344.03325   -8689.5292    49.223893    -8738.753    14435.852 
   51400    289.30341   -8695.1358    41.393208    -8736.529    17584.782 
   51600    363.68514   -8685.1378    52.035664   -8737.1734    -1725.887 
   51800    286.35495   -8687.9505    40.971346   -8728.9219    28596.086 
   52000    297.04045   -8687.0914    42.500216   -8729.5916   -15448.905 
   52200    282.56951   -8703.5624     40.42973   -8743.9921   -2034.6719 
   52400    304.30038   -8696.0167    43.538959   -8739.5556   -15405.275 
   52600     348.5582   -8690.1585    49.871318   -8740.0298    7141.9575 
   52800     278.6553   -8706.7414    39.869689   -8746.6111     24359.07 
   53000    240.99341   -8703.9813    34.481068   -8738.4624   -23226.863 
   53200    292.42565   -8690.3873    41.839935   -8732.2273   -13621.634 
   53400    305.27152   -8698.3994    43.677908   -8742.0773   -9622.0202 
   53600    274.20621   -8706.9654    39.233118   -8746.1986   -3051.0111 
   53800    299.66221   -8689.3651    42.875335   -8732.2404    32320.388 
   54000    267.16479   -8682.5555     38.22564   -8720.7811   -40889.215 
   54200    316.44243   -8691.4152    45.276229   -8736.6915    -5515.971 
   54400    279.69793   -8697.6692    40.018868   -8737.6881   -24503.323 
   54600    314.88269   -8679.6918    45.053063   -8724.7449    10604.796 
   54800    313.28106   -8690.6662    44.823904   -8735.4901    3256.4873 
   55000    243.47791   -8696.8156    34.836548   -8731.6522    -50455.92 
   55200    335.11541   -8681.2326    47.947939   -8729.1805   -6900.2325 
   55400     325.5781   -8684.8032    46.583351   -8731.3865    -9540.235 
   55600    306.97616   -8694.1199    43.921805   -8738.0417   -13317.976 
   55800    269.72563   -8702.1533    38.592041   -8740.7453    28908.109 
   56000    291.06829   -8702.3291    41.645726   -8743.9748     24003.65 
   56200     346.1278    -8690.951    49.523578   -8740.4746   -27706.316 
   56400    279.90091    -8701.415    40.047909   -8741.4629   -19111.787 
   56600    329.38896   -8696.0975    47.128604   -8743.2261   -18442.935 
   56800    299.68937   -8689.4231     42.87922   -8732.3023    44434.683 
   57000    274.63289   -8693.5279    39.294167   -8732.8221   -27845.052 
   57200    315.21492   -8693.4488    45.100599   -8738.5494   -50140.736 
   57400    297.07899   -8698.4445     42.50573   -8740.9502    15132.571 
   57600    388.71853   -8682.1821    55.617412   -8737.7996    2932.7155 
   57800    350.34025   -8690.7054    50.126292   -8740.8317    3901.7444 
   58000    276.41197   -8699.5799    39.548715   -8739.1286   -6811.6098 
   58200    308.49759   -8697.4278    44.139491   -8741.5673    42519.995 
   58400    260.16408   -8691.6571    37.223985   -8728.8811   -12793.408 
   58600    328.83866   -8678.0314    47.049868   -8725.0812   -653.82638 
   58800    291.56035   -8698.4796    41.716129   -8740.1958     -26426.9 
   59000    271.64365   -8690.5726     38.86647   -8729.4391    2007.0484 
   59200    357.54844   -8684.9684    51.157631    -8736.126    4455.5231 
   59400    273.83204   -8696.1333    39.179582   -8735.3129    3294.7477 
   59600    246.13032    -8699.334    35.216051     -8734.55   -2771.4557 
   59800    316.25885    -8690.763    45.249963    -8736.013    30252.095 
   60000    296.54927    -8699.159    42.429939    -8741.589   -23200.142 
   60200    297.95239   -8705.2131    42.630695   -8747.8438     43433.86 
   60400    280.74276   -8687.9498     40.16836   -8728.1182    23028.314 
   60600    302.00202    -8689.293    43.210112   -8732.5032   -12831.943 
   60800    273.53787   -8703.3089    39.137493   -8742.4464    2627.1692 
   61000     298.6773   -8697.5726    42.734414    -8740.307      7434.56 
   61200    355.15311    -8687.843    50.814909   -8738.6579   -10617.174 
   61400    323.85209    -8698.874    46.336395   -8745.2104     7093.065 
   61600    284.11483   -8698.6792    40.650832     -8739.33    6490.6138 
   61800    302.95733    -8689.443    43.346796   -8732.7898   -15815.877 
   62000    360.43246    -8686.185    51.570274   -8737.7553   -10520.947 
   62200    278.43258    -8697.298    39.837823   -8737.1358   -19045.626 
   62400    367.02007   -8678.2964    52.512822   -8730.8092    8754.9395 
   62600    296.61632    -8692.195    42.439532   -8734.6346    2673.3832 
   62800    373.75372   -8689.5741    53.476264   -8743.0504   -17772.706 
   63000    240.83083   -8704.1213    34.457807   -8738.5791   -14087.405 
   63200    324.38425   -8695.4176    46.412537   -8741.8301    -13226.02 
   63400    292.22936   -8695.2512     41.81185   -8737.0631    7638.9238 
   63600    297.32527   -8693.6075    42.540968   -8736.1485    15736.766 
   63800    285.58689   -8683.2533    40.861453   -8724.1147   -8417.8508 
   64000      257.939   -8696.9862    36.905624   -8733.8918   -15401.706 
   64200    255.59424    -8710.715    36.570138   -8747.2852    39334.287 
   64400     304.6851   -8694.4186    43.594004   -8738.0126    11801.202 
   64600    300.45844   -8688.7978    42.989258   -8731.7871   -22539.828 
   64800    312.22785   -8694.3729    44.673211   -8739.0461    14244.131 
   65000    248.31981   -8704.4592    35.529321   -8739.9886   -15829.238 
   65200    293.72774   -8691.0104    42.026237   -8733.0366    52440.126 
   65400    311.90652   -8692.2269    44.627237   -8736.8541   -36961.572 
   65600    273.46742   -8702.8132    39.127413   -8741.9406    -22981.85 
   65800    349.01959   -8684.7579    49.937333   -8734.6952    43755.313 
   66000    295.35719   -8687.4996    42.259376    -8729.759    8900.5584 
   66200    313.84141   -8694.5308    44.904078   -8739.4349   -19160.472 
   66400    267.73215   -8703.8505    38.306816   -8742.1573   -284.51968 
   66600    302.53562    -8687.953    43.286458   -8731.2395   -9190.1693 
   66800    316.72448   -8695.5338    45.316584   -8740.8504    61036.961 
   67000    279.09182   -8693.9559    39.932146   -8733.8881    53722.745 
   67200    344.10828   -8683.9848    49.234628   -8733.2194    -43750.89 
   67400    253.77433   -8699.2932    36.309748    -8735.603   -4558.1817 
   67600    298.21541   -8696.7727    42.668327    -8739.441    3817.8205 
   67800    311.34669   -8687.1557    44.547137   -8731.7029   -2746.5255 
   68000    343.94772   -8691.9195    49.211655   -8741.1312   -13821.644 
   68200    281.65998   -8698.1584    40.299595    -8738.458    56177.286 
   68400      328.382   -8685.3777     46.98453   -8732.3622   -15540.192 
   68600    254.36287   -8702.1536    36.393954   -8738.5475   -3760.9831 
   68800    315.24541   -8696.9846    45.104961   -8742.0895      42862.4 
   69000    351.85979   -8676.3658    50.343705   -8726.7096   -10301.787 
   69200    356.84891   -8686.3618    51.057543   -8737.4193   -38738.099 
   69400    353.52125   -8696.2901    50.581425   -8746.8715    33128.218 
   69600    334.03853   -8697.4336    47.793859   -8745.2274    9538.8455 
   69800    351.18215   -8682.0715     50.24675   -8732.3182    10872.234 
   70000    304.54452   -8693.4415    43.573889   -8737.0154    36043.866 
   70200    254.90241   -8699.3668    36.471152   -8735.8379    30173.348 
   70400     327.0541   -8682.7121    46.794535   -8729.5066   -25662.261 
   70600    298.73408   -8688.7891    42.742538   -8731.5317    6178.3399 
   70800    275.03327   -8700.2656    39.351453    -8739.617   -7250.4481 
   71000    255.01862   -8698.5641     36.48778   -8735.0519   -10774.627 
   71200    378.63229   -8685.0362    54.174285   -8739.2105   -16216.812 
   71400    270.22122   -8699.7715     38.66295   -8738.4345    -11471.65 
   71600    380.18737   -8685.4486    54.396784   -8739.8453    30634.581 
   71800    313.96677   -8693.2942    44.922015   -8738.2162    7050.9897 
   72000    323.72998   -8695.6104    46.318923   -8741.9293    6362.1102 
   72200    325.81922   -8683.3759     46.61785   -8729.9938    15785.455 
   72400    300.65919   -8695.6403     43.01798   -8738.6583    -8176.664 
   72600    307.52181   -8699.3774    43.999877   -8743.3772   -3032.8335 
   72800    259.18083   -8703.1532    37.083303   -8740.2365    18608.273 
   73000    316.17855   -8685.1196    45.238473    -8730.358    22534.809 
   73200    322.36151   -8691.9653    46.123124   -8738.0884   -31151.242 
   73400    273.76542   -8702.2911    39.170051   -8741.4612    5698.3167 
   73600    333.54817   -8693.0117      47.7237   -8740.7354   -22294.614 
   73800    330.87061   -8694.3631    47.340596   -8741.7037    18639.998 
   74000    269.52835   -8705.9935    38.563815   -8744.5573    3812.1855 
   74200    341.53074    -8688.032    48.865837   -8736.8979   -25447.002 
   74400    287.59932   -8690.7416    41.149389    -8731.891    4524.5114 
   74600    320.53549   -8689.3033     45.86186   -8735.1651   -15125.178 
   74800    316.92894   -8701.1072    45.345839   -8746.4531    65756.756 
   75000    294.00157   -8691.2726    42.065416    -8733.338   -12088.236 
   75200    324.06629    -8690.408    46.367043   -8736.7751    -7928.227 
   75400    272.47697   -8702.6995      38.9857   -8741.6852     12911.42 
   75600    289.38771   -8699.1629     41.40527   -8740.5681    22825.454 
   75800    377.88129   -8691.3371    54.066833   -8745.4039   -5838.3423 
   76000    381.44964   -8675.4431    54.577389   -8730.0205     4429.595 
   76200     274.4984   -8696.5834    39.274924   -8735.8583   -45615.355 
   76400     284.3056   -8695.0939    40.678128   -8735.7721    36578.972 
   76600    309.43002    -8681.719    44.272901   -8725.9919   -28695.467 
   76800    330.10564   -8687.6234    47.231146   -8734.8545     41491.94 
   77000    310.82931   -8697.0716     44.47311   -8741.5447    20734.616 
   77200    361.10579   -8687.4667    51.666613   -8739.1334    20565.382 
   77400    318.60013   -8697.8602     45.58495   -8743.4451    33569.892 
   77600    271.14672   -8699.9754    38.795369   -8738.7708   -22465.833 
   77800    312.08197   -8690.0493     44.65234   -8734.7017    12211.267 
   78000    272.60223   -8691.9061    39.003622   -8730.9098    9907.7302 
   78200    307.36031   -8690.6371    43.976769   -8734.6138    17665.064 
   78400    321.25482   -8689.8895    45.964781   -8735.8543    10923.536 
   78600    281.58774   -8699.6078    40.289258   -8739.8971    33365.944 
   78800    270.90639   -8705.5349    38.760984   -8744.2959   -41392.161 
   79000    328.83016   -8689.1962    47.048652   -8736.2449    12591.316 
   79200    281.76233   -8698.5852     40.31424   -8738.8995   -11362.663 
   79400    293.44841   -8704.0944    41.986271   -8746.0806    41804.704 
   79600    329.50049   -8685.7991    47.144562   -8732.9436   -6318.9439 
   79800    309.98076   -8689.0111      44.3517   -8733.3628    39747.933 
   80000     270.3111   -8703.1996     38.67581   -8741.8754   -10002.142 
   80200    284.25528   -8690.6848    40.670927   -8731.3557    -12574.37 
   80400     253.4972    -8697.037    36.270096   -8733.3071    -949.3846 
   80600    250.29883    -8706.162    35.812477   -8741.9745   -12465.859 
   80800    289.96419   -8696.0425    41.487752   -8737.5302    42059.127 
   81000    323.73393   -8688.1951     46.31949   -8734.5146    18498.719 
   81200    280.93987   -8703.8046    40.196562   -8744.0012    3196.8859 
   81400    289.78673   -8695.6707    41.462361   -8737.1331    49278.389 
   81600    297.65562   -8690.3204    42.588233   -8732.9086    11187.869 
   81800    356.46337    -8690.677    51.002381   -8741.6794   -9132.4245 
   82000    266.48262     -8708.55    38.128035    -8746.678    5323.7646 
   82200    295.13527   -8693.4432    42.227625   -8735.6709   -9119.8729 
   82400    310.00355   -8695.4858    44.354961   -8739.8408   -26345.613 
   82600    259.81282   -8707.0629    37.173728   -8744.2367   -943.18337 
   82800    331.98553   -8688.6203    47.500119   -8736.1204   -21588.674 
   83000     312.6936   -8690.7184    44.739851   -8735.4582   -5942.0193 
   83200    297.47693   -8682.4115    42.562667   -8724.9742    41002.987 
   83400     286.2607   -8698.5114    40.957862   -8739.4693     -13965.9 
   83600    277.80442    -8690.075    39.747946   -8729.8229   -19020.388 
   83800     407.0374   -8676.7132    58.238456   -8734.9516    16866.018 
   84000     285.2685   -8699.2459    40.815898   -8740.0618    13208.265 
   84200    287.08573   -8691.8619    41.075906   -8732.9378    4268.2435 
   84400    305.35195    -8691.585    43.689415   -8735.2745   -25362.696 
   84600    239.14653   -8697.7594    34.216818   -8731.9762    6162.7169 
   84800    296.44513   -8693.0629    42.415038    -8735.478   -15093.789 
   85000    224.99128   -8705.9595      32.1915    -8738.151    23032.391 
   85200    321.83034   -8690.3842    46.047126   -8736.4313    -15474.76 
   85400    280.90431   -8695.8648    40.191475   -8736.0563    31939.412 
   85600    378.26669    -8674.339    54.121975    -8728.461    7884.5037 
   85800     277.8059   -8692.5776    39.748158   -8732.3258   -2470.6541 
   86000    239.48555   -8695.9067    34.265325   -8730.1721    3957.8116 
   86200    273.83528   -8698.8966    39.180045   -8738.0767    5127.3675 
   86400    339.92252   -8689.2098    48.635735   -8737.8456    32189.037 
   86600    274.23901   -8692.7229    39.237811   -8731.9607   -9877.8454 
   86800    326.06472    -8699.265    46.652976   -8745.9179   -5598.8491 
   87000    303.53587   -8690.7041    43.429574   -8734.1337   -16651.638 
   87200    350.29531   -8680.9915    50.119862   -8731.1114   -1287.6398 
   87400     280.2619   -8698.9726    40.099559   -8739.0722   -4885.6292 
   87600    265.44467    -8695.697    37.979527   -8733.6765   -18706.756 
   87800    358.45668   -8678.1608    51.287582   -8729.4484    8047.5836 
   88000    319.97398   -8692.1434    45.781519    -8737.925   -23754.185 
   88200    325.34109   -8695.8472    46.549439   -8742.3967    1505.8587 
   88400    275.53763   -8695.9899    39.423617   -8735.4135   -9458.7458 
   88600    320.31701   -8684.5523      45.8306   -8730.3829    20084.377 
   88800    311.43877   -8698.9915    44.560311   -8743.5518   -2258.3483 
   89000    342.08595   -8695.1385    48.945275   -8744.0837    3408.7543 
   89200    270.01917   -8693.5749    38.634041   -8732.2089     35271.53 
   89400    340.59027   -8685.9083    48.731275   -8734.6396   -39397.247 
   89600    242.32341   -8704.9569    34.671363   -8739.6282   -22109.837 
   89800    309.50739    -8690.889    44.283972    -8735.173    5007.4578 
   90000    328.01409   -8691.9501    46.931889    -8738.882   -21640.387 
   90200    273.63368   -8700.5205    39.151202   -8739.6717    1814.0995 
   90400    292.43459   -8696.9449    41.841215   -8738.7861   -14553.554 
   90600     344.6711   -8686.2652    49.315156   -8735.5803    10034.237 
   90800    356.43817    -8692.507    50.998776   -8743.5058    -23342.92 
   91000    284.93265   -8704.1653    40.767844   -8744.9331    22469.665 
   91200    277.07382   -8703.0242    39.643413   -8742.6676    14012.172 
   91400    328.79925   -8691.3856    47.044229   -8738.4298    6547.0895 
   91600    267.85567    -8695.202     38.32449   -8733.5265   -118.25001 
   91800    216.01836   -8703.1846    30.907665   -8734.0923   -13967.683 
   92000    316.45533   -8687.0743    45.278075   -8732.3524    24376.612 
   92200    290.88045   -8688.5755    41.618849   -8730.1943   -22910.887 
   92400    288.96748   -8704.1303    41.345144   -8745.4755    14427.818 
   92600    280.14806   -8698.1065    40.083271   -8738.1898   -39551.638 
   92800    316.81277   -8687.8216    45.329217   -8733.1508    9923.4843 
   93000    305.91275   -8694.2071    43.769655   -8737.9767   -3913.1738 
   93200    280.57369    -8710.563     40.14417   -8750.7072   -5350.7248 
   93400    326.32963   -8695.2496    46.690879   -8741.9405   -4168.8629 
   93600    284.94167   -8686.6634    40.769135   -8727.4325    12404.443 
   93800    252.14115     -8695.59    36.076074    -8731.666   -7451.2784 
   94000    306.50375    -8702.928    43.854214   -8746.7822   -15019.338 
   94200    311.88769   -8693.6516    44.624542   -8738.2762    5266.3129 
   94400    290.49644   -8678.5553    41.563907   -8720.1192    5615.3752 
   94600     264.9936   -8702.9417    37.914987   -8740.8567   -230.18287 
   94800    326.93678   -8697.7411    46.777748   -8744.5189    5614.0496 
   95000    317.03915   -8686.1252    45.361608   -8731.4868    2589.4258 
   95200    280.79035   -8682.7414     40.17517   -8722.9166    20010.099 
   95400    268.36494   -8696.8477    38.397356   -8735.2451    9184.4816 
   95600    260.28547   -8700.9058    37.241355   -8738.1471    2891.6295 
   95800    286.85218   -8685.0692     41.04249   -8726.1117     -806.338 
   96000    284.98668   -8693.7146    40.775576   -8734.4902    19614.094 
   96200    312.61145   -8699.5043    44.728097   -8744.2324   -2632.4697 
   96400    243.81839   -8704.6975    34.885263   -8739.5827    46290.072 
   96600    323.55746   -8692.7241    46.294239   -8739.0183   -35146.129 
   96800     309.1541    -8690.728    44.233423   -8734.9614     6957.419 
   97000    316.59639    -8702.803    45.298258   -8748.1012   -34680.768 
   97200    327.42901   -8684.5067    46.848177   -8731.3549   -18425.659 
   97400    332.95669   -8679.7193    47.639072   -8727.3584    29913.272 
   97600    337.25958   -8700.5823    48.254723    -8748.837    19979.845 
   97800    302.70802    -8697.893    43.311125   -8741.2041   -19120.008 
   98000    341.41348   -8688.0468     48.84906   -8736.8958       3154.8 
   98200    323.10245   -8693.2256    46.229138   -8739.4548    9961.6331 
   98400    235.83941   -8701.5534    33.743639    -8735.297   -968.76408 
   98600    340.15321   -8689.1131    48.668741   -8737.7818   -14826.617 
   98800    307.42929   -8693.7797     43.98664   -8737.7664    26609.616 
   99000    272.21113   -8695.9958    38.947665   -8734.9435   -19615.255 
   99200    271.81002   -8694.8941    38.890274   -8733.7844   -6419.7992 
   99400    288.07127   -8695.2486    41.216916   -8736.4656    1707.7421 
   99600    329.57999   -8692.9585    47.155937   -8740.1144    22723.173 
   99800     226.9077   -8708.5865    32.465701   -8741.0522    3716.1982 
  100000    309.24837   -8693.7614    44.246911   -8738.0083   -12708.993 
  100200    292.54642   -8693.8792    41.857215   -8735.7364    17477.837 
  100400    311.50789   -8691.4677      44.5702   -8736.0379   -19417.878 
  100600    306.08907   -8689.9418    43.794882   -8733.7367    9527.5103 
  100800    247.49715    -8700.603    35.411616   -8736.0146    9263.0089 
  101000    269.76948   -8694.4528    38.598316   -8733.0511   -1288.4944 
  101200    272.05523   -8694.7372    38.925358   -8733.6625   -45959.055 
  101400    232.19152   -8706.7908    33.221703   -8740.0125   -2518.6533 
  101600    256.45998   -8694.0273    36.694007   -8730.7213    12926.106 
  101800    316.89115   -8685.3526    45.340432   -8730.6931   -7987.9123 
  102000    272.47687   -8704.9548    38.985686   -8743.9405     -32850.4 
  102200      279.396   -8698.4672    39.975668   -8738.4429    57.466481 
  102400    310.52699   -8686.8918    44.429855   -8731.3217   -20255.666 
  102600    319.92128   -8698.4788     45.77398   -8744.2527    28968.522 
  102800    252.04548   -8701.0982    36.062385   -8737.1605   -1310.8236 
  103000    379.87515   -8688.9413    54.352112   -8743.2934   -21118.259 
  103200    276.29433   -8694.2577    39.531885   -8733.7896    12023.314 
  103400    255.37788   -8711.5898    36.539182    -8748.129    14146.809 
  103600    316.96981   -8697.6896    45.351686   -8743.0413    -40182.31 
  103800    279.52383   -8691.8671    39.993957    -8731.861    -10287.45 
  104000    359.95678   -8680.4692    51.502213   -8731.9714   -8759.8566 
  104200    259.15944   -8695.0191    37.080244   -8732.0993   -24664.801 
  104400    319.53012   -8696.1651    45.718013   -8741.8831    38064.902 
  104600    323.52192   -8679.8157    46.289155   -8726.1049    11390.021 
  104800    320.56173   -8684.1206    45.865614   -8729.9862    6047.1024 
  105000    239.27203   -8697.7245    34.234774   -8731.9592   -40269.667 
  105200    240.91289   -8699.2692    34.469547   -8733.7388   -17248.713 
  105400    309.89577   -8683.7968     44.33954   -8728.1363    55906.743 
  105600    278.22409   -8696.4114    39.807992   -8736.2194    -12144.78 
  105800    286.17075    -8696.942    40.944991    -8737.887    16407.208 
  106000    326.01889    -8680.834    46.646419   -8727.4804   -4517.9031 
  106200    284.44679   -8699.4598    40.698328   -8740.1581   -29199.291 
  106400    319.62292   -8692.5535     45.73129   -8738.2848   -20283.909 
  106600     278.4719   -8698.2699    39.843448   -8738.1133    20104.973 
  106800    277.29519   -8700.6809    39.675086    -8740.356    34425.592 
  107000      343.601   -8692.5574    49.162047   -8741.7195    7560.2365 
  107200    289.57961      -8695.9    41.432727   -8737.3327   -21902.277 
  107400    375.91139   -8674.2018    53.784982   -8727.9868   -7941.9091 
  107600    286.17953   -8691.9129    40.946247   -8732.8592    20372.856 
  107800    313.20745   -8689.1251    44.813372   -8733.9384   -11344.209 
  108000    277.62074   -8698.4985    39.721666   -8738.2202   -11674.331 
  108200    289.24756   -8696.8939    41.385217   -8738.2791    -18174.27 
  108400    347.60748   -8689.0834     49.73529   -8738.8187    5450.5641 
  108600    279.63675   -8698.8866    40.010114   -8738.8967   -38942.289 
  108800     380.4621   -8687.3837    54.436092   -8741.8198    20493.922 
  109000    342.56484   -8686.9909    49.013794   -8736.0047    26959.304 
  109200    276.38028   -8696.6373    39.544181   -8736.1815   -1497.1931 
  109400    319.06287   -8691.8742     45.65116   -8737.5254   -22984.733 
  109600    322.95765   -8691.3509     46.20842   -8737.5593   -5732.1814 
  109800    375.58231   -8686.1443    53.737897   -8739.8822   -7722.1022 
  110000    270.22761   -8699.9925    38.663865   -8738.6564    13703.801 
  110200    296.18078   -8698.4731    42.377215   -8740.8504    32976.561 
  110400    324.26002   -8690.8736    46.394761   -8737.2684   -19682.953 
  110600    296.25019   -8697.3024    42.387146   -8739.6896   -33582.316 
  110800    316.60186     -8701.66    45.299041   -8746.9591    18773.858 
  111000    285.19187   -8684.8601    40.804934   -8725.6651     -9800.91 
  111200    341.19544   -8690.9487    48.817863   -8739.7666   -26570.937 
  111400    226.59194   -8713.1393    32.420522   -8745.5598    6740.6048 
  111600    314.12219    -8698.356    44.944252   -8743.3003    3396.5392 
  111800    245.98215   -8686.6183    35.194851   -8721.8131   -387.75329 
  112000    319.62096   -8700.9741     45.73101   -8746.7051    19196.969 
  112200    260.79807   -8699.2965    37.314697   -8736.6112    45553.738 
  112400    271.93178    -8687.771    38.907695   -8726.6787    273.89986 
  112600    262.32804   -8701.0186    37.533603   -8738.5522     7129.159 
  112800    266.70362   -8700.1676    38.159655   -8738.3273   -2713.9178 
  113000    348.40274   -8690.5677    49.849074   -8740.4168    -16635.91 
  113200    237.99083   -8703.6306    34.051463    -8737.682    10929.027 
  113400    254.98822   -8705.5417     36.48343   -8742.0252    10692.801 
  113600    299.39677   -8693.8389    42.837356   -8736.6763   -16549.486 
  113800    312.19959   -8681.5961    44.669169   -8726.2652    10462.367 
  114000    314.61347   -8684.9273    45.014544   -8729.9418   -18875.046 
  114200    311.07795   -8695.6201    44.508686   -8740.1288    2144.4719 
  114400    330.23238   -8694.2212     47.24928   -8741.4705    -27116.37 
  114600    293.35558   -8698.5337    41.972989   -8740.5067   -2517.1063 
  114800    349.81928   -8689.5023    50.051752   -8739.5541    33826.436 
  115000    322.76172   -8694.3328    46.180386   -8740.5132   -10932.204 
  115200    274.94197   -8701.9051     39.33839   -8741.2435    11037.702 
  115400    241.66918   -8694.2848    34.577756   -8728.8626    7091.6447 
  115600    320.26818   -8685.9602    45.823613   -8731.7838   -17472.459 
  115800    322.90301   -8679.2617    46.200601   -8725.4623    6532.5786 
  116000    276.65103   -8695.1904     39.58292   -8734.7733    25362.553 
  116200    316.84711   -8692.2275    45.334131   -8737.5616    7991.1334 
  116400    266.22694   -8706.9269    38.091454   -8745.0183    6779.1366 
  116600    266.64337   -8693.3288    38.151036   -8731.4798   -41734.215 
  116800    313.11728   -8692.3751     44.80047   -8737.1755   -14036.024 
  117000    274.66794   -8699.8778    39.299182    -8739.177    17211.023 
  117200    356.33623   -8678.6556    50.984189   -8729.6398    40328.573 
  117400     314.0023   -8690.3669    44.927098    -8735.294    50332.453 
  117600    351.41978   -8689.8179    50.280749   -8740.0986   -28881.455 
  117800    244.51017   -8705.5596    34.984242   -8740.5438    10098.762 
  118000    268.92912   -8696.4632    38.478078   -8734.9412    19970.466 
  118200     253.0877   -8690.0655    36.211505    -8726.277      14012.2 
  118400    252.37288   -8700.9875    36.109229   -8737.0968    19029.804 
  118600    242.52218   -8690.8639    34.699802   -8725.5637    29823.468 
  118800    277.95056   -8686.6985    39.768855   -8726.4674   -16136.875 
  119000    341.62674    -8693.857    48.879572   -8742.7366    16899.752 
  119200    223.26541   -8709.6487    31.944565   -8741.5933    3438.6494 
  119400    308.32311   -8698.2367    44.114526   -8742.3512   -2334.8458 
  119600    349.42345   -8686.9263    49.995117   -8736.9214    36002.966 
  119800    254.40394   -8703.9027    36.399831   -8740.3025   -30894.737 
  120000    287.85633   -8700.4953    41.186162   -8741.6815   -20610.209 
  120200    348.82445   -8689.8386    49.909413    -8739.748    52104.059 
  120400    286.65488   -8691.7715     41.01426   -8732.7857   -24636.017 
  120600    326.76661   -8691.2366    46.753401     -8737.99     31479.59 
  120800    293.33942   -8700.6691    41.970677   -8742.6397   -11107.269 
  121000    353.48938   -8686.7516    50.576866   -8737.3285    2789.5041 
  121200    280.17125   -8693.7074    40.086589    -8733.794   -8085.1911 
  121400    238.67152   -8699.5876    34.148855   -8733.7364    12497.225 
  121600    280.43526   -8703.6309    40.124364   -8743.7553   -17070.061 
  121800    331.84361   -8685.1396    47.479813   -8732.6194   -48169.337 
  122000     299.0265   -8695.2382    42.784377   -8738.0226   -21494.324 
  122200    226.36713   -8713.1388    32.388356   -8745.5272    -17275.86 
  122400    310.94966   -8703.2398     44.49033   -8747.7301   -17237.674 
  122600    299.84154   -8690.7707    42.900992   -8733.6717   -17841.585 
  122800    316.70475   -8684.0126    45.313761   -8729.3263    505.15561 
  123000    267.41669   -8702.5051    38.261682   -8740.7668    6281.6924 
  123200    349.23418   -8688.6321    49.968037   -8738.6001   -29727.593 
  123400    263.13647      -8690.7    37.649272   -8728.3493    31901.517 
  123600     285.0299    -8692.942     40.78176   -8733.7238   -56745.539 
  123800    265.88661   -8700.3373    38.042759   -8738.3801      14520.6 
  124000    234.90863    -8712.924    33.610464   -8746.5345   -5014.6397 
  124200    281.39415   -8697.1404     40.26156    -8737.402   -27959.251 
  124400    346.64453   -8686.8508    49.597511   -8736.4483   -861.19862 
  124600     294.8384   -8696.1895    42.185149   -8738.3747   -62166.149 
  124800    274.18639     -8701.67    39.230282   -8740.9003    22785.138 
  125000    265.09785   -8687.2696    37.929903   -8725.1995   -32532.984 
  125200    319.23427   -8690.8722    45.675682   -8736.5479    22232.371 
  125400     256.3511   -8699.8966    36.678429   -8736.5751     13995.82 
  125600    282.78854    -8692.501    40.461068   -8732.9621   -18200.279 
  125800     313.8083   -8694.4474    44.899341   -8739.3468     24561.31 
  126000    225.00758   -8700.3314    32.193833   -8732.5253   -3529.9793 
  126200    317.36998   -8685.2967    45.408942   -8730.7057    6195.6405 
  126400    250.38633   -8704.9952    35.824996   -8740.8202   -5681.0199 
  126600    294.46946   -8696.1137    42.132361   -8738.2461    35517.211 
  126800    289.21187   -8693.1263    41.380111   -8734.5064   -9097.3133 
  127000    238.38156   -8709.1017    34.107367   -8743.2091   -3936.5849 
  127200    311.13576   -8697.3883    44.516957   -8741.9052   -21521.074 
  127400    334.21983   -8691.8203      47.8198   -8739.6401    37917.778 
  127600    297.87607   -8690.0575    42.619775   -8732.6773    53199.465 
  127800    307.77371    -8684.072    44.035919   -8728.1079    3799.0208 
  128000    269.81136   -8701.4516    38.604308   -8740.0559   -1648.2829 
  128200    328.38529   -8689.3906    46.985001   -8736.3756    11295.463 
  128400    262.03596   -8693.1037    37.491812   -8730.5955   -16094.472 
  128600    305.07248   -8691.8252     43.64943   -8735.4746    22663.636 
  128800    236.74716   -8709.0952    33.873519   -8742.9687    30785.447 
  129000    286.00104    -8699.828    40.920709   -8740.7487   -329.51078 
  129200    317.77841   -8690.9813     45.46738   -8736.4487   -10417.249 
  129400    348.91248   -8684.1993    49.922008   -8734.1213    22307.251 
  129600    295.12263   -8697.9045    42.225816   -8740.1303     -3840.71 
  129800    375.05536   -8685.9026    53.662502   -8739.5651    8516.1292 
  130000    262.22724   -8702.0374     37.51918   -8739.5566   -16424.823 
  130200    281.25391   -8694.6955    40.241495    -8734.937   -11528.241 
  130400    265.62801   -8694.9937    38.005758   -8732.9995   -13769.143 
  130600    256.08042   -8706.9709      36.6397   -8743.6106     6952.554 
  130800    272.09474   -8695.7374    38.931011   -8734.6685   -17358.044 
  131000    336.27861   -8687.5559    48.114368   -8735.6702   -12229.122 
  131200    367.43099   -8686.1963    52.571616   -8738.7679    97627.404 
  131400    296.87203   -8700.2101    42.476119   -8742.6862    27262.684 
  131600    315.04935     -8692.61    45.076909   -8737.6869    35549.661 
  131800    349.78643   -8688.8476    50.047052   -8738.8946   -4350.7079 
  132000    292.64444   -8699.9283    41.871239   -8741.7995   -2914.3312 
  132200    365.43479   -8680.6165    52.286001   -8732.9025    13157.718 
  132400     342.3272   -8689.4213    48.979793   -8738.4011    7855.3016 
  132600    284.37162   -8696.3983    40.687573   -8737.0858    29866.708 
  132800    304.38052    -8680.992    43.550425   -8724.5425    19084.513 
  133000    320.06885   -8700.4373    45.795093   -8746.2324   -5636.5458 
  133200    301.83659   -8688.4023    43.186442   -8731.5887    14625.013 
  133400    254.83428   -8696.4295    36.461404   -8732.8909   -14650.002 
  133600    279.00933   -8698.9338    39.920343   -8738.8542   -26423.068 
  133800    361.01239   -8687.3167     51.65325   -8738.9699   -20274.831 
  134000    260.61787   -8697.4633    37.288913   -8734.7523   -52753.254 
  134200    360.14868   -8677.4397     51.52967   -8728.9694   -40798.845 
  134400    310.76899   -8690.2599     44.46448   -8734.7244    5998.5245 
  134600    341.86146   -8689.0708    48.913156    -8737.984   -28091.375 
  134800    268.59469   -8703.5755    38.430228   -8742.0057   -34713.331 
  135000    321.25564   -8697.7882    45.964898   -8743.7531    -5747.913 
  135200    316.95279   -8693.3217    45.349252   -8738.6709   -15102.718 
  135400     283.8124    -8704.464    40.607562   -8745.0716    24884.775 
  135600    285.34235   -8693.4457    40.826464   -8734.2722    42220.853 
  135800    332.30069   -8691.9995    47.545212   -8739.5447   -24109.992 
  136000    282.96954   -8701.6134    40.486966   -8742.1003   -31290.928 
  136200    366.54756   -8684.3954    52.445215   -8736.8406   -10238.537 
  136400    288.26122   -8696.0212    41.244093   -8737.2653    26675.944 
  136600    249.99516   -8713.0419    35.769028   -8748.8109    32778.722 
  136800    286.63219   -8700.0802    41.011013   -8741.0912   -22269.188 
  137000    305.92209   -8689.1607    43.770991   -8732.9316    5919.4628 
  137200    280.42855   -8698.7724    40.123404   -8738.8958    7876.5622 
  137400    270.27935   -8700.0079    38.671268   -8738.6792   -34531.297 
  137600    311.10096    -8689.112    44.511978    -8733.624    42039.251 
  137800    276.26472   -8701.7415    39.527648   -8741.2691    764.46322 
  138000    306.64248   -8702.7427    43.874064   -8746.6168   -17954.508 
  138200    300.13855   -8695.0779    42.943488   -8738.0214   -39402.307 
  138400    321.03382   -8685.0738    45.933161    -8731.007   -17304.644 
  138600    309.11918   -8682.7853    44.228427   -8727.0138   -8793.7093 
  138800    278.83715   -8699.0731    39.895708   -8738.9688   -9084.5409 
  139000    354.91731   -8690.4965    50.781173   -8741.2777    60017.116 
  139200    391.89954   -8678.4566    56.072548   -8734.5292   -46046.336 
  139400    252.55734   -8697.5317    36.135622   -8733.6673    49065.577 
  139600    330.06576   -8698.0934    47.225441   -8745.3189     19853.01 
  139800    308.66186   -8686.1561    44.162994   -8730.3191    11701.221 
  140000    306.58937   -8689.2455    43.866465    -8733.112    4942.8699 
  140200    296.58308   -8702.2882    42.434775    -8744.723    2617.9943 
  140400    291.66534   -8691.2347    41.731151   -8732.9658    27457.417 
  140600    279.93151   -8690.0159    40.052287   -8730.0682     13342.86 
  140800    308.37224   -8698.4007    44.121556   -8742.5223   -928.35042 
  141000    361.07052   -8681.2374    51.661566   -8732.8989     20866.01 
  141200    320.42031   -8691.7749     45.84538   -8737.6203   -1573.9939 
  141400    307.77604   -8697.7922    44.036251   -8741.8285    48736.855 
  141600    292.42503   -8692.6423    41.839846   -8734.4821    23610.929 
  141800    348.97853   -8688.1342    49.931458   -8738.0656   -18324.988 
  142000    281.51681   -8700.7098    40.279111   -8740.9889   -3718.0416 
  142200    295.68867   -8692.2964    42.306805   -8734.6032   -5484.4234 
  142400    298.27383   -8683.9355    42.676686   -8726.6122    36396.537 
  142600    260.16143   -8703.5524    37.223607    -8740.776    27286.177 
  142800     274.9628   -8691.5483    39.341371   -8730.8897   -9149.2516 
  143000    331.39483   -8687.9623    47.415602   -8735.3779   -2883.3433 
  143200    300.17854   -8690.7963     42.94921   -8733.7455    -37160.72 
  143400    267.58711   -8695.4029    38.286065   -8733.6889   -13117.607 
  143600    255.24679   -8701.7193    36.520426   -8738.2397    27635.307 
  143800    295.35588   -8685.3147     42.25919   -8727.5739   -11073.684 
  144000    334.43898   -8695.9443    47.851156   -8743.7955    28849.582 
  144200     292.8552   -8696.2326    41.901395    -8738.134    10160.189 
  144400    307.05581   -8693.6514    43.933203   -8737.5846   -11865.201 
  144600    262.76265   -8691.2355    37.595787   -8728.8313   -29860.865 
  144800    295.28433   -8681.2941    42.248951   -8723.5431     36652.92 
  145000    254.61763   -8698.5754    36.430406   -8735.0058    46880.923 
  145200    316.28335    -8687.895    45.253468   -8733.1485   -24393.561 
  145400     291.0286   -8698.7437    41.640046   -8740.3838   -11925.016 
  145600    259.17126   -8704.0503    37.081934   -8741.1323    4429.9537 
  145800    368.65608   -8686.9326    52.746901   -8739.6795    5832.8523 
  146000    357.63197   -8694.3902    51.169582   -8745.5597    10418.786 
  146200    282.75931   -8707.2646    40.456886   -8747.7215   -7931.0497 
  146400    318.63075   -8695.8065    45.589332   -8741.3958   -30541.832 
  146600    330.94659    -8684.517    47.351469   -8731.8685    19474.342 
  146800    265.52695    -8698.704    37.991299   -8736.6953   -8526.3706 
  147000    322.57159   -8698.7181    46.153182   -8744.8713    13799.126 
  147200    330.44343   -8692.0312    47.279477   -8739.3107    -12463.75 
  147400    318.31375   -8698.5343    45.543976   -8744.0783    5375.2493 
  147600    310.87438   -8696.3052    44.479559   -8740.7848     518.9373 
  147800    275.24938   -8698.8903    39.382373   -8738.2727    12302.083 
  148000    351.66919   -8682.6575    50.316435    -8732.974   -7385.4875 
  148200    296.01624   -8690.4683    42.353673    -8732.822    23316.632 
  148400    276.32961   -8694.4097    39.536932   -8733.9466     619.6156 
  148600    364.79854   -8690.7511    52.194967   -8742.9461    37012.219 
  148800    255.38306   -8702.4019    36.539923   -8738.9418    42255.901 
  149000    328.82698   -8697.9014    47.048197   -8744.9496   -14882.011 
  149200    290.39458    -8688.894    41.549332   -8730.4433     -17547.1 
  149400    277.80108   -8694.4226    39.747468   -8734.1701    35489.003 
  149600    245.88104   -8699.1792    35.180384   -8734.3596    10174.082 
  149800    252.44961   -8691.8003    36.120209   -8727.9205   -23338.636 
  150000    344.12787    -8687.036    49.237431   -8736.2734   -17311.638 
  150200     276.2368   -8702.4622    39.523653   -8741.9859     40195.67 
  150400    308.90468   -8687.8622    44.197736   -8732.0599    12595.372 
  150600    290.49561   -8695.0945    41.563788   -8736.6583    18921.021 
  150800    279.80663   -8700.2083    40.034419   -8740.2427    21080.859 
  151000     346.9559   -8679.8518    49.642063   -8729.4939    1486.4139 
  151200    321.96821   -8693.5681    46.066851    -8739.635    11520.519 
  151400     292.9986   -8695.6574    41.921913   -8737.5793     -13003.8 
  151600    373.91944   -8674.6461    53.499975   -8728.1461   -13772.787 
  151800    332.81184   -8681.8688    47.618346   -8729.4872   -28393.456 
  152000    290.92409   -8696.7591    41.625093   -8738.3842     1387.481 
  152200    278.72148   -8702.3794    39.879157   -8742.2585   -27484.851 
  152400    362.99903   -8683.1462    51.937495   -8735.0837   -27414.933 
  152600    305.97807   -8699.7989       43.779   -8743.5779    27643.732 
  152800    324.13131    -8696.596    46.376346   -8742.9723    12426.709 
  153000    316.79673   -8687.2368    45.326923   -8732.5637   -25058.308 
  153200     342.6029   -8692.4219     49.01924   -8741.4411    6574.3687 
  153400    268.14891   -8709.3329    38.366447   -8747.6994   -35026.603 
  153600    282.33869   -8697.2837    40.396705   -8737.6804   -1425.1109 
  153800    290.05499   -8691.3108    41.500744   -8732.8115   -18594.064 
  154000    226.60549   -8704.3176    32.422461     -8736.74    70764.173 
  154200    303.71266   -8692.8974    43.454868   -8736.3523    -19897.79 
  154400    269.88489   -8688.7474    38.614829   -8727.3623   -12236.658 
  154600    288.34486   -8700.4787    41.256061   -8741.7348     13532.05 
  154800     290.7337   -8703.1431    41.597853    -8744.741    687.65067 
  155000    290.54957   -8690.9766    41.571508   -8732.5481   -21411.233 
  155200    309.94854   -8690.8908    44.347091   -8735.2379    6209.8874 
  155400     324.7468    -8687.391    46.464409   -8733.8554   -34105.483 
  155600    257.87643   -8701.0878    36.896672   -8737.9845   -16483.101 
  155800    324.01766   -8688.1909    46.360085    -8734.551   -23723.528 
  156000    255.73967    -8692.861    36.590947   -8729.4519     42614.02 
  156200    358.78254   -8688.7525    51.334205   -8740.0867    1438.3461 
  156400    253.24391   -8706.7436    36.233855   -8742.9774    -6070.267 
  156600    318.91853   -8691.9087    45.630507   -8737.5392   -20274.264 
  156800    319.45483   -8690.1138    45.707241    -8735.821    7236.6319 
  157000    248.33721   -8704.2478    35.531811   -8739.7796    1885.1433 
  157200    296.54257   -8688.4952    42.428979   -8730.9242    32678.569 
  157400    313.93884   -8693.1153    44.918018   -8738.0333   -10196.221 
  157600    253.36724   -8703.9961    36.251502   -8740.2476   -8519.5494 
  157800    321.27413   -8684.9628    45.967543   -8730.9303    12958.105 
  158000    253.97839   -8702.3583    36.338944   -8738.6972   -21841.017 
  158200    295.01311   -8692.7973    42.210146   -8735.0074    1737.0617 
  158400     333.5792   -8689.1217    47.728139   -8736.8498   -13988.786 
  158600    295.22294   -8697.2472    42.240168   -8739.4873    -53109.92 
  158800    263.10782    -8695.057    37.645173   -8732.7022   -23413.515 
  159000    374.47073    -8681.578    53.578853   -8735.1569   -15402.653 
  159200    275.22101    -8699.327    39.378315   -8738.7054    78862.731 
  159400     274.2577   -8701.5101    39.240485   -8740.7506   -16506.752 
  159600    335.67763   -8683.3958    48.028379   -8731.4242    45659.951 
  159800    311.29231    -8692.494    44.539356   -8737.0334   -14366.213 
  160000    299.84862   -8698.2137    42.902006   -8741.1157    42765.979 
  160200     355.2027   -8676.3292    50.822005   -8727.1512     -9575.65 
  160400    317.48115   -8681.4043    45.424848   -8726.8291    18145.073 
  160600    306.07417   -8694.8699     43.79275   -8738.6627    18098.829 
  160800    290.10986   -8697.2458    41.508595   -8738.7544    22576.496 
  161000    333.96301   -8690.0415    47.783055   -8737.8245   -8688.4318 
  161200     388.4914    -8677.078    55.584915    -8732.663    38313.745 
  161400    303.37778   -8700.4481    43.406954    -8743.855   -5286.2516 
  161600    291.12958   -8697.0968    41.654494   -8738.7513    14352.638 
  161800    254.80265   -8685.9415    36.456878   -8722.3983    27354.799 
  162000    283.80112    -8693.441    40.605947    -8734.047    36204.501 
  162200    269.30572   -8707.0888    38.531962   -8745.6207   -4130.4152 
  162400    257.23966    -8695.566    36.805563   -8732.3715    5606.6235 
  162600      379.922   -8688.0847    54.358816   -8742.4435   -24770.636 
  162800    268.15924   -8706.7136    38.367924   -8745.0816    2312.0996 
  163000    329.81114   -8694.3243    47.189009   -8741.5133   -19644.389 
  163200    338.41309   -8691.3677    48.419767   -8739.7875    24177.675 
  163400    249.24125   -8705.8845    35.661159   -8741.5457    -10684.96 
  163600    287.20056    -8686.991    41.092335   -8728.0834     36906.03 
  163800    274.22984   -8689.8791      39.2365   -8729.1156   -13572.069 
  164000    283.05686   -8699.0185    40.499459    -8739.518    586.27038 
  164200    252.67479    -8708.828    36.152426   -8744.9804   -18865.897 
  164400    374.91151   -8690.4047    53.641919   -8744.0466    18819.558 
  164600    281.70882   -8700.5447    40.306583   -8740.8513    19285.734 
  164800    312.22305   -8696.9924    44.672525   -8741.6649    -5693.705 
  165000    335.28753   -8687.7706    47.972565   -8735.7432   -22333.339 
  165200    272.06749   -8695.5464    38.927113   -8734.4735    26712.104 
  165400     339.7753   -8677.3203     48.61467    -8725.935    -19850.48 
  165600    232.48778   -8691.3867    33.264092   -8724.6508    7985.5143 
  165800    282.10725    -8697.885    40.363591   -8738.2486   -6506.7676 
  166000    211.86135   -8704.5841    30.312885    -8734.897    3245.1292 
  166200    329.19773   -8697.8496    47.101243   -8744.9509    16370.883 
  166400    331.52471   -8690.3454    47.434185   -8737.7796    11937.233 
  166600    272.88706   -8703.4444    39.044376   -8742.4888   -2124.0902 
  166800    331.56417   -8693.7366    47.439831   -8741.1765   -13676.905 
  167000    290.42471   -8689.6219    41.553643   -8731.1755   -40863.853 
  167200    349.27864   -8673.7322    49.974397   -8723.7066     -21201.1 
  167400    303.73139    -8692.465    43.457548   -8735.9226    24413.725 
  167600    310.36039   -8699.0174    44.406018   -8743.4234    34426.746 
  167800    320.77907   -8694.6868    45.896711   -8740.5835   -10367.846 
  168000    322.33268   -8694.6069       46.119   -8740.7259    17583.337 
  168200     287.7009   -8702.1686    41.163923   -8743.3325     8462.292 
  168400    363.54264   -8690.0132    52.015275   -8742.0285   -17981.319 
  168600    325.91458   -8694.9082    46.631494   -8741.5397    30487.394 
  168800    345.68714   -8678.6648    49.460529   -8728.1253    23621.614 
  169000    307.36518   -8691.9131    43.977466   -8735.8905    1877.4184 
  169200    276.40898   -8704.4797    39.548289   -8744.0279   -43754.287 
  169400    259.38155   -8707.5012    37.112023   -8744.6133   -2867.2288 
  169600    333.03164   -8690.4207    47.649795   -8738.0705   -3720.5256 
  169800      278.095   -8699.0324    39.789522   -8738.8219    4653.3247 
  170000    251.01376   -8707.5114    35.914768   -8743.4261    12802.836 
  170200    332.74521   -8687.7766    47.608812   -8735.3854   -10300.355 
  170400    298.27705   -8695.3598    42.677147    -8738.037   -12567.682 
  170600     293.4357   -8697.4418    41.984452   -8739.4263    -37335.01 
  170800    372.25969      -8683.1    53.262501   -8736.3625   -15820.895 
  171000    272.03592   -8695.2541    38.922596   -8734.1767    -13144.89 
  171200    298.56494   -8703.2292    42.718338   -8745.9476    484.82722 
  171400    359.05854   -8680.9986    51.373694   -8732.3723    1798.6408 
  171600    245.65421   -8698.0721     35.14793     -8733.22   -15398.809 
  171800    282.04304   -8698.3926    40.354404    -8738.747   -8791.5651 
  172000    332.41601   -8681.8311    47.561711   -8729.3928   -2835.1643 
  172200    287.66101   -8693.0163    41.158216   -8734.1745    17198.441 
  172400    231.14538   -8698.8811    33.072022   -8731.9531   -18735.781 
  172600    337.67085   -8686.1177    48.313568   -8734.4313   -14425.722 
  172800    283.34426   -8697.7698    40.540579   -8738.3104    8225.0614 
  173000    305.76587   -8699.7305    43.748639   -8743.4791    -35616.59 
  173200    341.32016   -8681.6915    48.835707   -8730.5272   -16961.331 
  173400    322.75384   -8700.2238    46.179259   -8746.4031    5363.1598 
  173600    261.79334   -8697.3389    37.457098    -8734.796    22828.369 
  173800    359.64521   -8683.7708    51.457635   -8735.2284    12154.747 
  174000     272.4223   -8698.4442    38.977878   -8737.4221    4373.0372 
  174200    286.71429   -8692.6377     41.02276   -8733.6605   -9996.6246 
  174400    317.13866   -8692.5562    45.375846   -8737.9321    9855.6068 
  174600     236.3386   -8704.2308    33.815063   -8738.0459   -58542.216 
  174800    270.08871   -8695.4155     38.64399   -8734.0595    44788.048 
  175000     272.4199   -8692.1839    38.977535   -8731.1615   -55724.488 
  175200    256.23827   -8697.0803    36.662286   -8733.7425   -28520.956 
  175400    277.04836   -8700.4188     39.63977   -8740.0585     -4317.57 
  175600    290.52278   -8687.5514    41.567675   -8729.1191   -16471.286 
  175800    298.17809   -8692.4069    42.662988   -8735.0699    36708.883 
  176000    213.31086   -8708.5806     30.52028   -8739.1008   -51159.019 
  176200    293.72257   -8695.6759    42.025497   -8737.7014    17797.805 
  176400    256.46376   -8692.0541    36.694548   -8728.7486    31095.624 
  176600    268.90968    -8698.504    38.475296   -8736.9793   -16591.438 
  176800    228.00162   -8706.4762    32.622217   -8739.0984   -16749.212 
  177000    341.63592   -8688.5931    48.880886    -8737.474   -887.62833 
  177200    269.15983   -8698.7678    38.511088   -8737.2789   -578.87698 
  177400    334.00764   -8690.3591     47.78944   -8738.1486   -6264.2298 
  177600     275.5614   -8683.7638    39.427017   -8723.1908    2537.2667 
  177800    313.52081   -8691.9568    44.858207    -8736.815    7975.6522 
  178000    246.97069   -8708.8576    35.336291   -8744.1939   -9101.8058 
  178200     304.5804   -8699.2386    43.579023   -8742.8176    6644.2691 
  178400    348.10203   -8688.8476     49.80605   -8738.6536   -20713.024 
  178600    311.12625   -8695.4075    44.515596   -8739.9231   -29119.087 
  178800    308.96345   -8702.5847    44.206145   -8746.7908   -15388.215 
  179000    295.77769   -8687.9087    42.319542   -8730.2282   -25382.042 
  179200    257.54642   -8690.0323    36.849454   -8726.8818    36178.805 
  179400     288.6035   -8705.9866    41.293066   -8747.2797    21022.647 
  179600    253.56356   -8698.0255    36.279591   -8734.3051    6958.3058 
  179800    300.48685   -8688.2754    42.993323   -8731.2688    38654.148 
  180000     304.8632   -8701.7655    43.619486    -8745.385   -15345.487 
  180200    293.98672   -8699.3266    42.063292   -8741.3899    34568.861 
  180400    282.45937   -8694.6431    40.413971   -8735.0571    4712.1048 
  180600    270.89021   -8693.4811    38.758668   -8732.2397   -21930.473 
  180800    345.11048   -8675.3099    49.378021   -8724.6879   -40654.266 
  181000    310.87794   -8692.6852    44.480068   -8737.1653   -29625.139 
  181200     299.4367   -8693.4912    42.843068   -8736.3343    32649.361 
[...]
  950000    378.93051   -8686.3832    54.216954   -8740.6001   -6896.5506 
  950200    308.38072   -8693.6549    44.122769   -8737.7777    18320.867 
  950400    342.93303   -8688.5996    49.066475    -8737.666   -5490.4841 
  950600     264.9842   -8705.8904    37.913643   -8743.8041    7552.0062 
  950800    264.76011   -8692.6389    37.881581   -8730.5205    14371.944 
  951000    265.18784   -8699.3446     37.94278   -8737.2873   -5079.2261 
  951200    246.79464   -8707.7851    35.311102   -8743.0962   -8363.4561 
  951400    333.14605    -8694.006    47.666165   -8741.6722    23722.369 
  951600    286.59599   -8687.3747    41.005833   -8728.3805   -28473.032 
  951800    348.66925   -8678.6948    49.887206    -8728.582     37904.33 
  952000    298.05471    -8694.735    42.645335   -8737.3803    19585.868 
  952200    258.58745   -8699.9704    36.998404   -8736.9688   -9556.7746 
  952400    342.54997    -8683.881    49.011667   -8732.8927   -5413.5101 
  952600    285.06018   -8696.9022    40.786092   -8737.6883   -1981.3452 
  952800    310.69022   -8697.5645     44.45321   -8742.0177   -22084.406 
  953000    245.60075   -8709.6995     35.14028   -8744.8398    15824.073 
  953200    284.12182   -8691.8289    40.651832   -8732.4807   -14610.546 
  953400    269.83549   -8693.1762     38.60776    -8731.784    5295.7786 
  953600    246.26247    -8705.493    35.234959    -8740.728    16463.257 
  953800    301.36674   -8693.0914    43.119216   -8736.2106   -531.97895 
  954000    273.73797    -8688.655    39.166122   -8727.8212   -22623.788 
  954200    251.97624   -8704.8871    36.052479   -8740.9396    7011.8638 
  954400    289.55043   -8703.5528    41.428552   -8744.9813    9530.4276 
  954600    268.32976   -8694.2156    38.392321   -8732.6079   -18329.066 
  954800    321.82878   -8686.7754    46.046902   -8732.8223    21694.017 
  955000    265.69192   -8691.0867    38.014903   -8729.1016   -4936.0227 
  955200    283.76723   -8699.5154    40.601098   -8740.1165    30774.893 
  955400    236.23898   -8702.7241    33.800809   -8736.5249   -33419.173 
  955600    284.57734   -8693.8019    40.717008   -8734.5189   -26363.421 
  955800    323.88933   -8688.9725    46.341723   -8735.3142    64006.589 
  956000    285.96826    -8694.425    40.916019    -8735.341    837.61626 
  956200    289.99232    -8700.197    41.491776   -8741.6888   -16395.138 
  956400    357.64562   -8686.7811    51.171535   -8737.9526      17751.1 
  956600    323.73439   -8692.4326    46.319555   -8738.7522   -21947.186 
  956800    325.41723   -8699.9685    46.560333   -8746.5288    29136.799 
  957000    258.78661   -8699.9258    37.026899   -8736.9527   -21501.562 
  957200    328.74154   -8690.8794    47.035972   -8737.9154   -14371.037 
  957400    258.44703    -8696.941    36.978312   -8733.9193    17443.097 
  957600    325.72569   -8683.5522    46.604468   -8730.1567    7937.5272 
  957800    275.40802   -8699.2831    39.405072   -8738.6882   -15278.235 
  958000     322.4746   -8687.4273    46.139305   -8733.5666    33498.615 
  958200    243.66445   -8706.2796    34.863237   -8741.1428    22310.924 
  958400    330.70725   -8693.7643    47.317223   -8741.0815    -27051.87 
  958600    317.17918   -8690.0286    45.381643   -8735.4102    4946.8923 
  958800    264.01575   -8706.2038    37.775078   -8743.9789   -7651.4255 
  959000    302.20282   -8694.9723    43.238841   -8738.2111    15426.626 
  959200    270.89223   -8695.4354    38.758958   -8734.1943   -9532.7354 
  959400    266.61084   -8707.1579    38.146381   -8745.3043    15239.587 
  959600    303.26229   -8695.3659    43.390429   -8738.7563   -22094.429 
  959800     274.2694   -8695.2084    39.242159   -8734.4506   -2533.5499 
  960000    403.07542   -8677.1439     57.67158   -8734.8155   -9358.0188 
  960200    251.32125   -8697.2341    35.958764   -8733.1929    14636.995 
  960400    259.78145   -8693.1279     37.16924   -8730.2971     -11161.9 
  960600    278.47372   -8694.8493    39.843709    -8734.693   -33597.382 
  960800    271.80448    -8698.219    38.889481   -8737.1085   -44526.042 
  961000    361.11903   -8682.7607    51.668507   -8734.4292   -20693.885 
  961200     294.4989   -8697.4683    42.136573   -8739.6049    2221.1422 
  961400    323.87205    -8690.921    46.339252   -8737.2602    36299.047 
  961600    249.84093   -8701.0565    35.746961   -8736.8034   -9626.7989 
  961800    297.24812   -8699.9022    42.529928   -8742.4321      19110.6 
  962000    297.31699   -8692.9818    42.539783   -8735.5216   -34678.313 
  962200    380.08226   -8680.1705    54.381745   -8734.5522    18999.404 
  962400    295.86429   -8691.3353    42.331932   -8733.6672   -27891.843 
  962600    307.45861   -8694.8405    43.990835   -8738.8313   -34415.566 
  962800    311.00883   -8687.1751    44.498797   -8731.6739    3252.1398 
  963000    314.89373   -8689.7575    45.054643   -8734.8121   -6397.1407 
  963200    306.67852   -8702.3687    43.879219   -8746.2479   -8480.9484 
  963400    333.56356   -8692.9636    47.725902   -8740.6895   -35193.906 
  963600    270.44989   -8695.1815    38.695668   -8733.8771   -8876.6039 
  963800    292.46933    -8692.808    41.846185   -8734.6541   -2445.0634 
  964000    304.83453   -8698.2771    43.615385   -8741.8925   -35464.935 
  964200    233.91484   -8713.1087    33.468274    -8746.577    10802.054 
  964400    266.98929   -8695.6012    38.200529   -8733.8017    1950.3358 
  964600    286.26624   -8684.5182    40.958653   -8725.4768   -20662.407 
  964800    311.84787   -8693.6102    44.618845   -8738.2291   -9714.1151 
  965000    244.07027   -8696.7161    34.921302   -8731.6374    20715.175 
  965200    325.56229   -8683.9732    46.581089   -8730.5543    36744.352 
  965400     306.3753   -8703.9891    43.835836   -8747.8249   -1685.3517 
  965600    280.68691   -8697.2511     40.16037   -8737.4115   -12852.081 
  965800    342.37539    -8685.975    48.986688   -8734.9616   -5046.8125 
  966000    339.82404    -8690.381    48.621644   -8739.0026    14533.143 
  966200    274.08664    -8698.947     39.21601    -8738.163   -4954.2275 
  966400    336.30236   -8692.2366    48.117765   -8740.3544    39432.375 
  966600    327.63154   -8686.5189    46.877154   -8733.3961   -13026.881 
  966800    262.66764   -8699.1942    37.582193   -8736.7764    16107.664 
  967000    319.64072   -8688.1978    45.733838   -8733.9317   -21907.501 
  967200    311.82241   -8679.8667    44.615202   -8724.4819    3763.8744 
  967400    307.97485   -8693.3299    44.064698   -8737.3946   -31394.665 
  967600    291.69053   -8701.5252    41.734755     -8743.26    32233.973 
  967800    304.46156   -8680.2223     43.56202   -8723.7843    6562.2561 
  968000    320.69004   -8692.2236    45.883973   -8738.1076   -4527.4697 
  968200    307.06352   -8700.2386    43.934305   -8744.1729   -42258.432 
  968400     221.7266   -8710.1952    31.724395   -8741.9196    31386.405 
  968600    286.31442   -8694.5984    40.965547    -8735.564   -18046.291 
  968800     334.0734   -8687.7777    47.798849   -8735.5765     -9844.89 
  969000    332.88932   -8694.1349    47.629432   -8741.7644    23717.018 
  969200    275.48412   -8699.9379     39.41596   -8739.3538   -10029.565 
  969400    368.24716   -8685.0385    52.688392   -8737.7269   -46569.978 
  969600    322.67462   -8688.6812    46.167924   -8734.8492    -11116.42 
  969800    245.29375   -8697.4074    35.096356   -8732.5038   -9387.6086 
  970000    193.77566   -8704.1332    27.725205   -8731.8584    14058.358 
  970200    323.38244   -8694.8363    46.269198   -8741.1055    6245.3304 
  970400    296.99211   -8684.2194      42.4933   -8726.7127   -45741.179 
  970600    306.32197   -8697.0912    43.828204   -8740.9194    19205.231 
  970800     312.1944   -8699.2288    44.668426   -8743.8972   -16217.393 
  971000    328.65161   -8683.1145    47.023105   -8730.1376    16221.927 
  971200    252.97078   -8702.7163    36.194777   -8738.9111   -14992.399 
  971400    301.92607   -8699.8538    43.199244   -8743.0531    30139.467 
  971600    299.14265   -8683.0428    42.800996   -8725.8438   -5996.6501 
  971800    374.74382   -8683.8672    53.617927   -8737.4852    5631.2962 
  972000    256.65301   -8701.8966    36.721625   -8738.6182    21300.598 
  972200    325.50987   -8690.4484    46.573588    -8737.022   -25890.533 
  972400    324.01501   -8684.6906    46.359706   -8731.0503    26640.291 
  972600    283.76181   -8701.0821    40.600323   -8741.6825   -35870.595 
  972800    283.51985   -8691.9713    40.565703    -8732.537    33361.618 
  973000    331.69359   -8681.3698    47.458348   -8728.8282    61677.293 
  973200    291.44177   -8698.1714    41.699163   -8739.8706    2425.5738 
  973400    278.95582   -8694.7119    39.912686   -8734.6246    -13133.03 
  973600    322.26841   -8685.8575    46.109805   -8731.9673     3087.824 
  973800    279.34491   -8703.5771    39.968357   -8743.5455    25587.756 
  974000    290.22942   -8697.8677    41.525702   -8739.3934    -14967.85 
  974200    362.44398   -8678.9959     51.85808    -8730.854    33086.913 
  974400    336.06101   -8691.0606    48.083233   -8739.1438     8095.756 
  974600    290.97625   -8698.5231    41.632556   -8740.1557    414.56572 
  974800    357.07038   -8683.6659    51.089231   -8734.7551    47016.449 
  975000    280.46317   -8678.7496    40.128357    -8718.878    29992.943 
  975200    275.58752   -8697.6955    39.430755   -8737.1262   -24510.399 
  975400    293.55907   -8693.5209    42.002103    -8735.523    9668.5668 
  975600    370.93122   -8680.8901    53.072425   -8733.9625    -12461.55 
  975800     268.9738   -8697.0462    38.484471   -8735.5306    25485.697 
  976000    259.40476   -8702.3612    37.115343   -8739.4766    9271.0904 
  976200    353.40208   -8693.3498    50.564375   -8743.9142   -8975.6656 
  976400    348.89179   -8680.8363    49.919047   -8730.7554    20502.568 
  976600    254.71238   -8688.0435    36.443963   -8724.4875    8008.2521 
  976800    285.70534    -8700.486      40.8784   -8741.3644    30580.037 
  977000    317.64646   -8690.0136      45.4485   -8735.4621   -33520.015 
  977200    323.71631   -8682.1662    46.316968   -8728.4831   -11528.762 
  977400    289.19784   -8695.1184    41.378104   -8736.4965   -19682.929 
  977600    296.16782   -8693.9516     42.37536    -8736.327   -3559.5064 
  977800     381.3496   -8673.8768    54.563075   -8728.4398   -775.15394 
  978000    268.36987   -8693.9473    38.398061   -8732.3454   -17025.399 
  978200    317.13194   -8695.7771    45.374883   -8741.1519   -10204.477 
  978400    257.67998   -8702.2752    36.868563   -8739.1438    10859.814 
  978600    354.07765   -8684.1261    50.661034   -8734.7872   -17162.354 
  978800    301.31687   -8696.3006     43.11208   -8739.4126    33874.383 
  979000    313.11257   -8698.2382    44.799797    -8743.038    -28589.51 
  979200    307.91737   -8691.4576    44.056472    -8735.514   -14912.885 
  979400    344.18039   -8682.5165    49.244946   -8731.7614    29878.466 
  979600    350.15065   -8692.8955    50.099164   -8742.9947   -21746.819 
  979800    282.91599   -8700.8271    40.479304   -8741.3064    1647.1771 
  980000    248.34013   -8703.5621    35.532228   -8739.0943   -33312.579 
  980200    272.17001    -8689.443    38.941781   -8728.3848   -16559.097 
  980400    246.62591   -8700.8976    35.286959   -8736.1846   -2037.4112 
  980600    291.16567   -8697.3921    41.659659   -8739.0518    -23193.59 
  980800    304.19224   -8689.6291    43.523485   -8733.1525   -404.83718 
  981000    304.75526   -8697.1931    43.604043   -8740.7972    7159.8659 
  981200    379.98751   -8690.1283    54.368188   -8744.4965   -6158.6921 
  981400    287.90301   -8697.9339    41.192841   -8739.1268     28496.82 
  981600    375.64127   -8681.6633    53.746333   -8735.4096    12879.541 
  981800    298.12281   -8694.3351    42.655079   -8736.9902   -17889.081 
  982000    278.89076   -8693.2265    39.903378   -8733.1298   -25225.135 
  982200    270.25009   -8703.3399    38.667081    -8742.007   -16323.523 
  982400    281.91101   -8693.9989    40.335512   -8734.3344   -16006.335 
  982600    336.42945    -8686.278     48.13595    -8734.414    9873.3065 
  982800    349.63442   -8692.0201    50.025302   -8742.0454   -17784.216 
  983000    290.53547   -8695.1693     41.56949   -8736.7388   -16664.313 
  983200    345.66194   -8682.9954    49.456925   -8732.4523    7151.5099 
  983400    320.14363   -8693.9793    45.805793   -8739.7851   -18139.159 
  983600    226.02581    -8706.004    32.339521   -8738.3435    7667.7487 
  983800    239.11284   -8709.9104    34.211999   -8744.1224      11236.5 
  984000    293.13951   -8692.5634    41.942073   -8734.5055    -54884.04 
  984200     344.9401   -8686.5193    49.353645   -8735.8729   -15702.708 
  984400    315.18587   -8699.8913    45.096443   -8744.9878    29361.866 
  984600    291.74819    -8702.567    41.743006     -8744.31    8613.6544 
  984800    314.58263   -8684.2979    45.010131   -8729.3081    4251.6217 
  985000    277.63977   -8693.9786    39.724389    -8733.703    2019.8155 
  985200    228.00916   -8706.9077    32.623295    -8739.531   -2797.1108 
  985400    303.10232   -8688.2238    43.367541   -8731.5914    31780.309 
  985600    333.42146   -8685.2422     47.70557   -8732.9478     5739.595 
  985800    304.41183   -8699.0277    43.554905   -8742.5826    36409.357 
  986000    290.45575   -8696.6656    41.558084   -8738.2237   -18733.923 
  986200    271.31677   -8686.5902    38.819701   -8725.4099      3537.32 
  986400    278.05023   -8701.4063    39.783116   -8741.1894   -2929.8057 
  986600    350.72728    -8682.377    50.181667   -8732.5587    425.86978 
  986800    297.86742   -8689.5203    42.618537   -8732.1388    54563.593 
  987000    321.02314   -8692.6823    45.931631   -8738.6139     -21366.1 
  987200    292.98408   -8695.3334    41.919835   -8737.2532    12028.487 
  987400    276.04867   -8695.8329    39.496736   -8735.3296    17423.698 
  987600    285.02623   -8691.3357    40.781235   -8732.1169    50474.507 
  987800    316.21031   -8682.7503    45.243018   -8727.9933     19729.62 
  988000    253.69554   -8702.6441    36.298474   -8738.9425   -18877.659 
  988200    330.96883   -8693.7745     47.35465   -8741.1291   -35840.799 
  988400    280.97005    -8690.743     40.20088   -8730.9439    68120.933 
  988600    271.97539   -8705.5206    38.913935   -8744.4345    6301.5083 
  988800    338.46875   -8697.7302     48.42773   -8746.1579    1233.4161 
  989000    297.35581   -8683.3054    42.545337   -8725.8507    1292.4603 
  989200     292.8037   -8691.2957    41.894027   -8733.1898    2952.8964 
  989400    291.01305   -8699.8065    41.637822   -8741.4443   -3517.3409 
  989600    292.53947   -8690.8386     41.85622   -8732.6948     3745.426 
  989800    334.32172   -8677.3262    47.834379   -8725.1606   -34499.302 
  990000    325.69605   -8692.7004    46.600226   -8739.3006   -8308.3731 
  990200    296.43306   -8696.5139    42.413311   -8738.9273    -1876.134 
  990400    363.43262   -8679.6804    51.999533   -8731.6799   -19773.777 
  990600    246.92361   -8696.6857    35.329554   -8732.0152   -5257.7489 
  990800    340.11863   -8687.8678    48.663794   -8736.5316    34552.621 
  991000    231.81976   -8702.2776    33.168512   -8735.4462    7778.3428 
  991200    296.07851   -8691.3492    42.362582   -8733.7118    10625.394 
  991400    342.40537   -8690.6521    48.990978   -8739.6431    18729.461 
  991600    248.23492   -8701.0873    35.517174   -8736.6044    14342.195 
  991800    325.59109   -8692.0878    46.585209    -8738.673    10157.003 
  992000    291.58028   -8696.5217     41.71898   -8738.2407     -2038.38 
  992200    282.82887   -8704.9166    40.466838   -8745.3835    17130.609 
  992400    281.14704   -8690.5807    40.226204   -8730.8069   -8350.8804 
  992600    282.69001   -8694.1052    40.446971   -8734.5522    1154.2006 
  992800    290.30612   -8697.0649    41.536675   -8738.6015   -29299.263 
  993000    284.32859   -8699.5118    40.681417   -8740.1932    -4081.878 
  993200     348.8571   -8682.4484    49.914085   -8732.3625     5324.944 
  993400    310.39579   -8693.1554    44.411082   -8737.5665   -8855.5401 
  993600    274.14506   -8700.6284    39.224369   -8739.8528     20843.27 
  993800    292.52444   -8687.3495    41.854069   -8729.2035   -925.22732 
  994000    242.26486   -8702.5572    34.662986   -8737.2202    12261.133 
  994200    294.27972   -8697.3782    42.105213   -8739.4834    10522.196 
  994400    256.18574   -8692.3289    36.654769   -8728.9836    14849.595 
  994600    303.10064   -8695.3959    43.367301   -8738.7632    17599.816 
  994800    311.17335   -8697.1225    44.522335   -8741.6449   -12566.445 
  995000    304.65816   -8689.1304    43.590149   -8732.7206   -11796.112 
  995200    283.95719   -8698.8393    40.628278   -8739.4676    6217.7221 
  995400    236.98975   -8699.3686    33.908228   -8733.2769    51066.952 
  995600    312.36454   -8683.8776    44.692769   -8728.5703   -22485.663 
  995800    279.08408   -8700.3809    39.931039   -8740.3119   -6898.5284 
  996000    246.68499   -8694.2802    35.295412   -8729.5756    53456.993 
  996200    314.11133   -8682.7248    44.942698   -8727.6675   -36624.527 
  996400    388.22998   -8680.2234    55.547511   -8735.7709   -14218.491 
  996600    323.14246   -8697.7706    46.234862   -8744.0054    10038.249 
  996800    348.90543   -8686.3722    49.920999   -8736.2932   -14975.206 
  997000    371.38861   -8687.3493    53.137867   -8740.4872     20068.41 
  997200     252.8485    -8701.548    36.177281   -8737.7253    7916.1639 
  997400    348.02511    -8687.282    49.795044    -8737.077    51035.317 
  997600    307.17378   -8695.5134    43.950082   -8739.4635   -2819.3787 
  997800    265.16582   -8700.2889     37.93963   -8738.2286   -19521.596 
  998000    320.68302    -8682.837    45.882968     -8728.72   -44028.472 
  998200     304.9456   -8698.2022    43.631276   -8741.8335    6397.6895 
  998400    262.37831   -8697.5773    37.540795   -8735.1181    -14774.16 
  998600     347.5747   -8682.3337    49.730599   -8732.0643   -9275.1761 
  998800    295.53122   -8695.9141    42.284277   -8738.1984   -26229.768 
  999000    316.42636   -8694.5104     45.27393   -8739.7843   -22033.677 
  999200     299.6268   -8688.6381    42.870268   -8731.5084   -17857.359 
  999400    322.40491   -8684.1937    46.129334    -8730.323   -7891.4552 
  999600    267.11243   -8699.4556    38.218148   -8737.6737   -3701.9248 
  999800     310.3096   -8687.0447    44.398751   -8731.4434   -11591.613 
 1000000    292.40438   -8688.8187    41.836892   -8730.6556   -15809.552 
Loop time of 4173.85 on 8 procs for 1000000 steps with 49 atoms

Performance: 5.175 ns/day, 4.638 hours/ns, 239.587 timesteps/s
99.2% CPU use with 8 MPI tasks x no OpenMP threads

MPI task timing breakdown:
Section |  min time  |  avg time  |  max time  |%varavg| %total
---------------------------------------------------------------
Pair    | 3694.8     | 3721.1     | 3764.8     |  34.3 | 89.15
Neigh   | 0.23157    | 0.238      | 0.24587    |   1.0 |  0.01
Comm    | 60.739     | 104.14     | 130.36     | 204.0 |  2.50
Output  | 0.12056    | 0.13147    | 0.20093    |   7.2 |  0.00
Modify  | 343.87     | 344.67     | 345.28     |   2.2 |  8.26
Other   |            | 3.572      |            |       |  0.09

Nlocal:    6.125 ave 7 max 6 min
Histogram: 7 0 0 0 0 0 0 0 0 1
Nghost:    904.875 ave 911 max 899 min
Histogram: 3 0 1 0 0 0 1 0 0 3
Neighs:    1693.5 ave 1940 max 1648 min
Histogram: 7 0 0 0 0 0 0 0 0 1

Total # of neighbors = 13548
Ave neighs/atom = 276.49
Neighbor list builds = 109
Dangerous builds = 0

Please see the log.cite file for references relevant to this simulation

Total wall time: 1:09:49
