LAMMPS (3 Mar 2020)
Reading data file ...
  triclinic box = (0 0 0) to (15.77 13.6581 25.747) with tilt (7.8845 0 0)
  2 by 2 by 2 MPI processor grid
  reading atoms ...
  129 atoms
  read_data CPU = 0.014855 secs
WARNING: Using 'neigh_modify every 1 delay 0 check yes' setting during minimization (../min.cpp:190)
WARNING: Total cutoff < 2*bond cutoff. May need to use an increased neighbor list skin. (../pair_reaxc.cpp:413)
Neighbor list info ...
  update every 1 steps, delay 0 steps, check yes
  max neighbors/atom: 2000, page size: 100000
  master list distance cutoff = 9.5
  ghost atom cutoff = 9.5
  binsize = 4.75, bins = 5 3 6
  2 neighbor lists, perpetual/occasional/extra = 2 0 0
  (1) pair reax/c, perpetual
      attributes: half, newton off, ghost
      pair build: half/bin/newtoff/ghost
      stencil: half/ghost/bin/3d/newtoff
      bin: standard
  (2) fix qeq/reax, perpetual, copy from (1)
      attributes: half, newton off, ghost
      pair build: copy
      stencil: none
      bin: none
Setting up cg style minimization ...
  Unit style    : real
  Current step  : 0
Per MPI rank memory allocation (min/avg/max) = 16.27 | 16.82 | 17.41 Mbytes
Step Temp E_pair E_mol TotEng Press 
       0            0   -19426.847            0   -19426.847     62165.41 
     246            0   -21940.272            0   -21940.272    8083.2671 
Loop time of 23.5088 on 8 procs for 246 steps with 129 atoms

98.9% CPU use with 8 MPI tasks x no OpenMP threads

Minimization stats:
  Stopping criterion = energy tolerance
  Energy initial, next-to-last, final = 
        -19426.8466818     -21940.2715259     -21940.2715929
  Force two-norm initial, final = 5107.59 91.7315
  Force max component initial, final = 1201.25 23.7018
  Final line search alpha, max atom move = 2.32386e-05 0.000550797
  Iterations, force evaluations = 246 1583

MPI task timing breakdown:
Section |  min time  |  avg time  |  max time  |%varavg| %total
---------------------------------------------------------------
Pair    | 14.343     | 16.485     | 17.946     |  31.8 | 70.12
Neigh   | 0          | 0          | 0          |   0.0 |  0.00
Comm    | 0.187      | 1.6489     | 3.7935     | 100.6 |  7.01
Output  | 0.0036229  | 0.0046542  | 0.0063783  |   1.3 |  0.02
Modify  | 5.3127     | 5.3143     | 5.3157     |   0.0 | 22.61
Other   |            | 0.0557     |            |       |  0.24

Nlocal:    16.125 ave 37 max 2 min
Histogram: 2 1 1 0 2 0 0 0 0 2
Nghost:    465.5 ave 508 max 415 min
Histogram: 2 0 2 0 0 0 0 0 0 4
Neighs:    1160.75 ave 2452 max 173 min
Histogram: 2 0 2 0 2 0 0 0 0 2

Total # of neighbors = 9286
Ave neighs/atom = 71.9845
Neighbor list builds = 0
Dangerous builds = 0
WARNING: Using 'neigh_modify every 1 delay 0 check yes' setting during minimization (../min.cpp:190)
WARNING: Total cutoff < 2*bond cutoff. May need to use an increased neighbor list skin. (../pair_reaxc.cpp:413)
Setting up cg style minimization ...
  Unit style    : real
  Current step  : 246
Per MPI rank memory allocation (min/avg/max) = 16.27 | 16.82 | 17.41 Mbytes
Step Temp E_pair E_mol TotEng Press 
     246            0   -21940.272            0   -21940.272    8083.2671 
     284            0   -21945.994            0   -21945.994    6593.5462 
Loop time of 4.55581 on 8 procs for 38 steps with 129 atoms

98.9% CPU use with 8 MPI tasks x no OpenMP threads

Minimization stats:
  Stopping criterion = energy tolerance
  Energy initial, next-to-last, final = 
        -21940.2715929     -21945.9939352     -21945.9941412
  Force two-norm initial, final = 91.7315 71.3357
  Force max component initial, final = 23.7018 30.3625
  Final line search alpha, max atom move = 2.60282e-05 0.000790279
  Iterations, force evaluations = 38 303

MPI task timing breakdown:
Section |  min time  |  avg time  |  max time  |%varavg| %total
---------------------------------------------------------------
Pair    | 2.9049     | 3.2562     | 3.4899     |  11.3 | 71.47
Neigh   | 0          | 0          | 0          |   0.0 |  0.00
Comm    | 0.040912   | 0.27452    | 0.62635    |  38.9 |  6.03
Output  | 0.00064128 | 0.00077059 | 0.0010498  |   0.0 |  0.02
Modify  | 1.0127     | 1.0131     | 1.0134     |   0.0 | 22.24
Other   |            | 0.01121    |            |       |  0.25

Nlocal:    16.125 ave 39 max 0 min
Histogram: 1 2 1 0 1 1 0 0 1 1
Nghost:    474.875 ave 522 max 425 min
Histogram: 2 1 1 0 0 0 0 0 2 2
Neighs:    1138.62 ave 2539 max 0 min
Histogram: 1 2 1 0 1 1 0 0 0 2

Total # of neighbors = 9109
Ave neighs/atom = 70.6124
Neighbor list builds = 0
Dangerous builds = 0
WARNING: Using 'neigh_modify every 1 delay 0 check yes' setting during minimization (../min.cpp:190)
WARNING: Total cutoff < 2*bond cutoff. May need to use an increased neighbor list skin. (../pair_reaxc.cpp:413)
Setting up cg style minimization ...
  Unit style    : real
  Current step  : 284
WARNING: Energy due to 3 extra global DOFs will be included in minimizer energies
Per MPI rank memory allocation (min/avg/max) = 16.27 | 16.82 | 17.41 Mbytes
Step Temp E_pair E_mol TotEng Press Volume 
     284            0   -21945.994            0   -21945.994    6593.5462    5545.5955 
     303            0   -21946.562            0   -21946.562    16.519522     5547.014 
Loop time of 0.657363 on 8 procs for 19 steps with 129 atoms

98.9% CPU use with 8 MPI tasks x no OpenMP threads

Minimization stats:
  Stopping criterion = energy tolerance
  Energy initial, next-to-last, final = 
        -21945.9941412     -21946.5621796     -21946.5622737
  Force two-norm initial, final = 1141.86 254.037
  Force max component initial, final = 813.391 125.39
  Final line search alpha, max atom move = 3.10336e-09 3.8913e-07
  Iterations, force evaluations = 19 48

MPI task timing breakdown:
Section |  min time  |  avg time  |  max time  |%varavg| %total
---------------------------------------------------------------
Pair    | 0.46457    | 0.52197    | 0.5618     |   4.7 | 79.40
Neigh   | 0          | 0          | 0          |   0.0 |  0.00
Comm    | 0.0052136  | 0.044992   | 0.10252    |  15.9 |  6.84
Output  | 0.00030793 | 0.00039009 | 0.00053459 |   0.0 |  0.06
Modify  | 0.085525   | 0.085558   | 0.085598   |   0.0 | 13.02
Other   |            | 0.004453   |            |       |  0.68

Nlocal:    16.125 ave 39 max 0 min
Histogram: 1 2 1 0 1 1 0 0 1 1
Nghost:    474.875 ave 522 max 425 min
Histogram: 2 1 1 0 0 0 0 0 2 2
Neighs:    1137 ave 2537 max 0 min
Histogram: 1 2 1 0 1 1 0 0 0 2

Total # of neighbors = 9096
Ave neighs/atom = 70.5116
Neighbor list builds = 0
Dangerous builds = 0
WARNING: Using 'neigh_modify every 1 delay 0 check yes' setting during minimization (../min.cpp:190)
WARNING: Total cutoff < 2*bond cutoff. May need to use an increased neighbor list skin. (../pair_reaxc.cpp:413)
Setting up cg style minimization ...
  Unit style    : real
  Current step  : 303
Per MPI rank memory allocation (min/avg/max) = 16.27 | 16.82 | 17.41 Mbytes
Step Temp E_pair E_mol TotEng Press 
     303            0   -21946.562            0   -21946.562    16.519522 
     351            0   -21954.226            0   -21954.226    9634.0588 
Loop time of 5.57134 on 8 procs for 48 steps with 129 atoms

98.9% CPU use with 8 MPI tasks x no OpenMP threads

Minimization stats:
  Stopping criterion = energy tolerance
  Energy initial, next-to-last, final = 
        -21946.5622737     -21954.2257752     -21954.2259784
  Force two-norm initial, final = 200.498 139.252
  Force max component initial, final = 31.7061 30.372
  Final line search alpha, max atom move = 5.13901e-05 0.00156082
  Iterations, force evaluations = 48 372

MPI task timing breakdown:
Section |  min time  |  avg time  |  max time  |%varavg| %total
---------------------------------------------------------------
Pair    | 3.5595     | 3.9907     | 4.2813     |  12.5 | 71.63
Neigh   | 0          | 0          | 0          |   0.0 |  0.00
Comm    | 0.04988    | 0.34043    | 0.77231    |  42.9 |  6.11
Output  | 0.00071589 | 0.00091389 | 0.0012438  |   0.0 |  0.02
Modify  | 1.2258     | 1.2261     | 1.2265     |   0.0 | 22.01
Other   |            | 0.01318    |            |       |  0.24

Nlocal:    16.125 ave 39 max 0 min
Histogram: 1 2 1 0 1 1 0 0 1 1
Nghost:    474.875 ave 522 max 425 min
Histogram: 2 1 1 0 0 0 0 0 2 2
Neighs:    1135.12 ave 2534 max 0 min
Histogram: 1 2 1 0 1 1 0 0 0 2

Total # of neighbors = 9081
Ave neighs/atom = 70.3953
Neighbor list builds = 0
Dangerous builds = 0
WARNING: Using 'neigh_modify every 1 delay 0 check yes' setting during minimization (../min.cpp:190)
WARNING: Total cutoff < 2*bond cutoff. May need to use an increased neighbor list skin. (../pair_reaxc.cpp:413)
Setting up cg style minimization ...
  Unit style    : real
  Current step  : 351
WARNING: Energy due to 3 extra global DOFs will be included in minimizer energies
Per MPI rank memory allocation (min/avg/max) = 16.27 | 16.82 | 17.41 Mbytes
Step Temp E_pair E_mol TotEng Press Volume 
     351            0   -21954.226            0   -21954.226    9634.0588     5547.014 
     369            0   -21954.826            0   -21954.826    54.825926     5548.947 
Loop time of 0.598061 on 8 procs for 18 steps with 129 atoms

98.9% CPU use with 8 MPI tasks x no OpenMP threads

Minimization stats:
  Stopping criterion = energy tolerance
  Energy initial, next-to-last, final = 
        -21954.2259784     -21954.8256351     -21954.8257237
  Force two-norm initial, final = 1514.2 277.549
  Force max component initial, final = 1183.28 144.639
  Final line search alpha, max atom move = 2.69368e-09 3.89612e-07
  Iterations, force evaluations = 18 44

MPI task timing breakdown:
Section |  min time  |  avg time  |  max time  |%varavg| %total
---------------------------------------------------------------
Pair    | 0.42854    | 0.47636    | 0.50988    |   4.1 | 79.65
Neigh   | 0          | 0          | 0          |   0.0 |  0.00
Comm    | 0.0044251  | 0.03791    | 0.085828   |  14.6 |  6.34
Output  | 0.00013459 | 0.0001793  | 0.0002472  |   0.0 |  0.03
Modify  | 0.079501   | 0.079537   | 0.079566   |   0.0 | 13.30
Other   |            | 0.004078   |            |       |  0.68

Nlocal:    16.125 ave 39 max 0 min
Histogram: 1 2 1 0 1 1 0 0 1 1
Nghost:    474.875 ave 522 max 425 min
Histogram: 2 1 1 0 0 0 0 0 2 2
Neighs:    1128.88 ave 2533 max 0 min
Histogram: 1 2 1 0 1 1 0 0 0 2

Total # of neighbors = 9031
Ave neighs/atom = 70.0078
Neighbor list builds = 0
Dangerous builds = 0
WARNING: Using 'neigh_modify every 1 delay 0 check yes' setting during minimization (../min.cpp:190)
WARNING: Total cutoff < 2*bond cutoff. May need to use an increased neighbor list skin. (../pair_reaxc.cpp:413)
Setting up cg style minimization ...
  Unit style    : real
  Current step  : 369
Per MPI rank memory allocation (min/avg/max) = 16.27 | 16.82 | 17.41 Mbytes
Step Temp E_pair E_mol TotEng Press 
     369            0   -21954.826            0   -21954.826    54.825926 
     388            0   -21956.239            0   -21956.239    6912.3999 
Loop time of 2.70506 on 8 procs for 19 steps with 129 atoms

98.9% CPU use with 8 MPI tasks x no OpenMP threads

Minimization stats:
  Stopping criterion = linesearch alpha is zero
  Energy initial, next-to-last, final = 
        -21954.8257237     -21956.2394978     -21956.2394978
  Force two-norm initial, final = 208.676 60.0788
  Force max component initial, final = 34.6455 19.5949
  Final line search alpha, max atom move = 3.91226e-12 7.66605e-11
  Iterations, force evaluations = 19 182

MPI task timing breakdown:
Section |  min time  |  avg time  |  max time  |%varavg| %total
---------------------------------------------------------------
Pair    | 1.7361     | 1.9488     | 2.0826     |   8.5 | 72.04
Neigh   | 0          | 0          | 0          |   0.0 |  0.00
Comm    | 0.026211   | 0.16003    | 0.37305    |  29.6 |  5.92
Output  | 0.00031513 | 0.00039072 | 0.0005209  |   0.0 |  0.01
Modify  | 0.589      | 0.58918    | 0.58937    |   0.0 | 21.78
Other   |            | 0.006691   |            |       |  0.25

Nlocal:    16.125 ave 39 max 0 min
Histogram: 1 2 1 0 1 1 0 0 1 1
Nghost:    476.375 ave 522 max 429 min
Histogram: 3 0 1 0 0 0 0 0 2 2
Neighs:    1127.62 ave 2532 max 0 min
Histogram: 1 2 1 0 1 1 0 0 0 2

Total # of neighbors = 9021
Ave neighs/atom = 69.9302
Neighbor list builds = 0
Dangerous builds = 0
WARNING: Total cutoff < 2*bond cutoff. May need to use an increased neighbor list skin. (../pair_reaxc.cpp:413)
Setting up Verlet run ...
  Unit style    : real
  Current step  : 0
  Time step     : 0.25
Per MPI rank memory allocation (min/avg/max) = 15.13 | 15.58 | 16.3 Mbytes
Step Temp TotEng KinEng PotEng Press 
       0          300   -21841.776    114.46311   -21956.239     7855.348 
     200    238.04918   -21801.034    90.826162    -21891.86   -3002.3497 
     400    297.75774   -21748.916    113.60759   -21862.523   -9032.8535 
     600    337.64791   -21735.986    128.82743   -21864.813    5176.4959 
     800    283.53868   -21758.645    108.18239   -21866.827    14507.944 
    1000    307.42654   -21731.622    117.29666   -21848.918    23376.806 
    1200    326.10395   -21735.192     124.4229   -21859.615    4320.8374 
    1400    301.26222   -21754.625     114.9447    -21869.57    -7039.935 
    1600     261.8972   -21753.971    99.925225   -21853.896     5286.521 
    1800    324.39705   -21719.724    123.77165   -21843.496     5848.733 
    2000    308.38358   -21732.281    117.66181   -21849.943   -3986.1642 
    2200    299.11583     -21737.3    114.12576   -21851.426   -1869.9441 
    2400    282.14429   -21743.965    107.65037   -21851.615   -14629.008 
    2600    301.23411   -21753.442    114.93397   -21868.376   -3232.3436 
    2800    338.56588   -21729.672    129.17767    -21858.85   -12946.912 
    3000     308.9155   -21736.865    117.86476   -21854.729    11183.953 
    3200    278.33367   -21763.731    106.19645   -21869.927    12890.543 
    3400    283.98497   -21759.319    108.35267   -21867.672    6745.3887 
    3600    304.00871   -21751.799    115.99261   -21867.792    9695.5446 
    3800    270.66264   -21738.285    103.26962   -21841.554    11977.256 
    4000    328.31294   -21723.064    125.26573   -21848.329   -27921.423 
    4200    304.92363   -21747.499    116.34168    -21863.84   -3129.5792 
    4400    360.25022   -21734.197     137.4512   -21871.648    6739.8893 
    4600    292.96914   -21735.042    111.78052   -21846.823    2738.5255 
    4800    282.06407   -21749.508    107.61976   -21857.128   -8153.3886 
    5000    355.55145   -21726.356    135.65841   -21862.014   -12449.359 
    5200    268.91018   -21756.393    102.60098   -21858.994   -3520.1489 
    5400     298.4378   -21743.751    113.86706   -21857.618   -14402.646 
    5600    298.98135   -21744.657    114.07445   -21858.732   -7058.5067 
    5800    266.05469   -21760.587    101.51149   -21862.099    989.89883 
    6000    319.81992   -21737.996    122.02527   -21860.021   -2056.2562 
    6200    297.43657   -21752.116    113.48505   -21865.601   -19784.981 
    6400    273.45228   -21770.218    104.33399   -21874.552   -9849.0533 
    6600    336.36231   -21740.231    128.33692   -21868.567    8276.5401 
    6800    284.23453   -21747.973    108.44789   -21856.421    17951.894 
    7000    263.24999   -21772.204    100.44137   -21872.645   -6628.4335 
    7200    291.95886   -21749.589    111.39506   -21860.984    12325.377 
    7400    321.42452   -21736.197     122.6375   -21858.834    12659.747 
    7600    255.27575   -21763.429    97.398851   -21860.828   -3056.7418 
    7800    318.24132   -21746.446    121.42297   -21867.869    5170.3139 
    8000    309.23882   -21742.345    117.98812   -21860.333   -9651.6592 
    8200    315.15896   -21747.948    120.24691   -21868.195   -3952.4556 
    8400    265.80716   -21744.977    101.41704   -21846.394   -12486.372 
    8600    340.62999   -21731.106    129.96522   -21861.072    867.74982 
    8800    295.75651   -21759.218    112.84403   -21872.062    321.86373 
    9000    282.13782   -21744.476     107.6479   -21852.124    7919.2988 
    9200     313.9093   -21738.611    119.77011   -21858.381   -3362.9468 
    9400    267.19916   -21761.985    101.94815   -21863.933   -2992.2117 
    9600    299.48729   -21735.749    114.26748   -21850.016    14792.239 
    9800    311.78789   -21750.732     118.9607   -21869.693   -5459.4236 
   10000    282.79307   -21760.986    107.89791   -21868.884     -5213.91 
   10200    285.31323   -21738.082    108.85946   -21846.941    12799.463 
   10400    293.02715   -21732.299    111.80266   -21844.102    3632.8703 
   10600    283.95854   -21755.067    108.34259    -21863.41   -467.20505 
   10800    294.75821   -21744.786    112.46314   -21857.249   -12970.427 
   11000    387.74063    -21801.57    147.93999    -21949.51   -7200.0864 
   11200    292.60494   -21909.024    111.64157   -22020.666    21849.022 
   11400    277.30636   -21971.834    105.80449   -22077.639   -7127.1715 
   11600    291.20127   -21996.817    111.10601   -22107.923    2825.8322 
   11800    324.83114   -21969.811    123.93727   -22093.749     7580.852 
   12000    309.44941   -21962.541    118.06847   -22080.609    25980.386 
   12200    284.57712   -21988.061     108.5786   -22096.639    20028.624 
   12400    308.96568   -21981.662     117.8839   -22099.546    6896.4971 
   12600    331.53479   -21966.761    126.49501   -22093.256    6060.0965 
   12800    288.78139   -21991.147    110.18271    -22101.33   -5082.9744 
   13000    344.60863   -21960.167    131.48325    -22091.65   -10375.412 
   13200    317.31167   -21983.035    121.06827   -22104.103   -23871.189 
   13400    298.22769   -21981.638    113.78689   -22095.425    6867.4872 
   13600    316.13622   -21957.241    120.61978   -22077.861   -8822.0441 
   13800    320.02079   -21974.265    122.10191   -22096.367   -25080.006 
   14000    260.89688   -21984.779    99.543558   -22084.322   -13590.086 
   14200    310.69435   -21972.272    118.54347   -22090.815    2082.1974 
   14400    298.43391   -21962.139    113.86558   -22076.004    4289.9963 
   14600    315.97351   -21957.437     120.5577   -22077.994   -16330.194 
   14800    282.94039    -21991.29    107.95412   -22099.245    167.84563 
   15000    301.19751    -21975.38    114.92001     -22090.3    8503.2359 
   15200     322.4236   -21967.335    123.01869   -22090.354   -16907.916 
   15400    278.03355   -21974.202    106.08195   -22080.284    23103.034 
   15600     291.5119   -21982.763    111.22452   -22093.988     1618.959 
   15800    302.79479   -22001.139    115.52944   -22116.668    19460.085 
   16000    341.95263    -21973.39    130.46987    -22103.86   -18373.289 
   16200    301.94373   -21989.098    115.20473   -22104.303     20726.38 
   16400     321.2432   -21977.398    122.56831   -22099.966   -11129.098 
   16600    326.66078   -21976.784    124.63536   -22101.419   -12633.743 
   16800    266.82245   -21986.634    101.80442   -22088.439   -5269.9625 
   17000    334.53664   -21960.507    127.64034   -22088.147    14548.045 
   17200    298.61374   -21990.065    113.93419       -22104   -13940.211 
   17400    315.94373   -21980.904    120.54633    -22101.45   -25724.303 
   17600    311.31731   -21971.898    118.78116   -22090.679     1602.754 
   17800    251.09015   -21994.274    95.801861   -22090.076   -24124.554 
   18000    300.94779   -21967.286    114.82473   -22082.111   -12057.832 
   18200    278.92787   -21975.185    106.42317   -22081.608   -25433.101 
   18400    266.14008   -21992.561    101.54407   -22094.106    3030.7107 
   18600    323.62333   -21981.569    123.47644   -22105.046   -19542.659 
   18800    315.52722   -21966.236    120.38742   -22086.623   -11789.463 
   19000    320.36545   -21967.256    122.23342   -22089.489   -727.25186 
   19200    282.89962   -21988.838    107.93856   -22096.777   -7739.5218 
   19400    339.11253   -21958.865    129.38625   -22088.251    6448.3776 
   19600    443.52955   -22048.324     169.2259    -22217.55   -1865.0524 
   19800    325.52793   -22164.393    124.20313   -22288.596    6304.0842 
   20000     314.2656   -22243.353    119.90606   -22363.259   -35114.762 
   20200    301.70476   -22273.376    115.11355   -22388.489   -11461.561 
   20400     277.3059   -22280.674    105.80431   -22386.478    -16804.71 
   20600    282.25826   -22265.639    107.69386   -22373.333     11948.94 
   20800    309.19691   -22287.917    117.97213   -22405.889    27751.928 
   21000    287.58502   -22292.107    109.72625   -22401.833    7781.5968 
   21200    307.54548   -22266.169    117.34204   -22383.511    10794.126 
   21400     304.2759   -22276.659    116.09455   -22392.754    -13236.58 
   21600     305.5209   -22275.948    116.56957   -22392.518   -26007.302 
   21800    298.53462   -22254.541      113.904   -22368.445   -22157.583 
   22000    280.66099   -22282.668    107.08443   -22389.752   -36173.273 
   22200    300.58351   -22293.773    114.68574   -22408.459   -305.70713 
   22400    321.63622   -22280.493    122.71827   -22403.212   -12778.848 
   22600    313.03978     -22272.7    119.43835   -22392.139    9161.0023 
   22800     269.8166   -22293.502    102.94682   -22396.449    3593.8417 
   23000    325.60543   -22270.428     124.2327   -22394.661    7465.9476 
   23200    287.35124   -22278.653    109.63705    -22388.29    16644.791 
   23400    303.55967   -22277.587    115.82128   -22393.409    7617.0753 
   23600    294.43441   -22277.187    112.33959   -22389.526    4718.1059 
   23800    286.45112   -22295.579    109.29362   -22404.873    8825.8291 
   24000     342.0366   -22267.262     130.5019   -22397.764   -9897.2366 
   24200    297.40451   -22280.834    113.47281   -22394.307   -7632.0599 
   24400    278.72494   -22286.304    106.34574    -22392.65   -8466.5492 
   24600    319.45771   -22261.909    121.88707   -22383.796   -8672.4362 
   24800    290.51067   -22284.294    110.84251   -22395.136    16871.808 
   25000    292.07037   -22287.006    111.43761   -22398.444    9916.3525 
   25200    316.62299   -22280.419     120.8055   -22401.225   -22363.822 
   25400    298.61447   -22294.804    113.93447   -22408.738   -8162.3402 
   25600     269.6327   -22280.761    102.87665   -22383.638   -10376.144 
   25800    320.84443   -22268.858    122.41617   -22391.274   -8547.9706 
   26000    247.45954   -22296.279    94.416625   -22390.696   -30715.725 
   26200    311.91398   -22276.375    119.00881   -22395.384   -10378.463 
   26400    335.91321   -22260.213    128.16556   -22388.378    9072.8737 
   26600    315.59971   -22286.285    120.41508     -22406.7    2169.8537 
   26800     305.4193   -22277.208     116.5308   -22393.739   -7022.8573 
   27000    308.03042   -22293.142    117.52706   -22410.669    14946.211 
   27200    269.87337   -22297.296    102.96848   -22400.264    2520.0803 
   27400    327.58032   -22278.597     124.9862   -22403.583   -19214.753 
   27600    309.50904   -22281.344    118.09122   -22399.435    11509.667 
   27800    324.89731   -22259.135    123.96252   -22383.097    14605.176 
   28000    250.64516    -22291.11    95.632079   -22386.742    4176.4855 
   28200    286.34668   -22284.894    109.25377   -22394.148   -4817.6391 
   28400    314.07792   -22275.577    119.83445   -22395.412     21838.35 
   28600    275.22582   -22301.004    105.01067   -22406.015    5337.3293 
   28800    305.02827    -22283.82    116.38161   -22400.202    9256.1558 
   29000    297.41187   -22273.492    113.47562   -22386.967    4609.9581 
   29200    288.18326   -22293.898    109.95451   -22403.853    13311.207 
   29400    259.53944    -22311.23    99.025635   -22410.256    -19337.26 
   29600    302.14594   -22276.311    115.28188   -22391.593    -11557.37 
   29800    341.92276   -22283.366    130.45847   -22413.824    13064.414 
   30000    302.59773    -22300.73    115.45425   -22416.185   -18811.448 
   30200    335.10319   -22269.965    127.85651   -22397.822    14047.935 
   30400    289.61344   -22295.188    110.50018   -22405.688    1085.5307 
   30600    290.97411   -22286.228    111.01933   -22397.247    5569.4959 
   30800    318.92085    -22273.29    121.68224   -22394.972     2721.101 
   31000    287.95448   -22291.391    109.86721   -22401.259    9824.7469 
   31200    312.41844   -22298.948    119.20128   -22418.149     9015.015 
   31400    318.37513   -22275.565    121.47402   -22397.039    24593.375 
   31600    310.60207   -22299.252    118.50826   -22417.761    30155.139 
   31800    295.58985   -22289.745    112.78044   -22402.526    -3086.133 
   32000    319.12449   -22280.223    121.75993   -22401.983   -19175.523 
   32200     304.2039   -22280.312    116.06708   -22396.379   -8944.8507 
   32400    258.77485   -22303.493     98.73391   -22402.227    17162.839 
   32600    309.25157   -22279.254    117.99298   -22397.247   -13623.938 
   32800    283.12419   -22278.036    108.02425    -22386.06     14056.11 
   33000    290.08045   -22294.338    110.67837   -22405.016   -11228.986 
   33200    293.28246   -22291.897    111.90007   -22403.797   -1158.3824 
   33400    312.76991   -22275.033    119.33539   -22394.368   -7294.0744 
   33600    287.35948    -22298.29     109.6402    -22407.93   -8921.6307 
   33800    281.17721   -22293.846    107.28139   -22401.127   -1489.3366 
   34000    283.15802   -22288.273    108.03715    -22396.31    30490.583 
   34200    301.11084   -22276.799    114.88694   -22391.686   -5455.8794 
   34400    347.68475   -22267.489    132.65692   -22400.146   -12949.214 
   34600    297.00285   -22290.976    113.31956   -22404.295     2262.551 
   34800     299.3815   -22276.291    114.22712   -22390.518   -10141.402 
   35000    294.73564   -22274.865    112.45452   -22387.319    1763.4265 
   35200    294.79135    -22296.83    112.47578   -22409.306     31856.93 
   35400    339.06847   -22268.901    129.36944    -22398.27    14521.205 
   35600    289.16114   -22276.629    110.32761   -22386.956    7540.8376 
   35800    282.46038   -22282.468    107.77098   -22390.239    996.88262 
   36000    371.12506   -22252.779    141.60042   -22394.379    3058.7816 
   36200    298.55542   -22279.857    113.91194   -22393.769    1998.9566 
   36400    321.71725   -22286.491    122.74919    -22409.24    8471.0003 
   36600    269.72886   -22309.965    102.91334   -22412.878   -23055.582 
   36800    313.44379   -22289.956     119.5925   -22409.548    26184.405 
   37000    314.17228   -22287.934    119.87045   -22407.804   -7459.2338 
   37200    294.75942   -22299.971    112.46359   -22412.435    22909.303 
   37400    291.69056   -22274.384    111.29269   -22385.677   -10879.585 
   37600    296.62697   -22277.677    113.17615   -22390.853    15731.281 
   37800    282.00237   -22299.418    107.59622   -22407.014    -22998.13 
   38000    286.15123   -22282.794     109.1792   -22391.973    -1211.388 
   38200    303.04782   -22286.332    115.62598   -22401.958   -7733.4621 
   38400     272.2126   -22303.629      103.861    -22407.49    6678.5033 
   38600    288.89865   -22278.422    110.22746    -22388.65   -805.24195 
   38800    293.46363   -22270.826     111.9692   -22382.795    5306.5795 
   39000    273.47162   -22298.806    104.34137   -22403.147    15027.177 
   39200    302.10096   -22282.064    115.26472   -22397.329   -4417.0035 
   39400    313.33278   -22277.401    119.55014   -22396.951    5176.9246 
   39600    286.88873   -22293.685    109.46058   -22403.146    1685.6465 
   39800    338.02082   -22269.769    128.96971   -22398.739    -10168.31 
   40000    307.56924    -22278.21     117.3511   -22395.561   -3765.8253 
   40200    311.77775   -22286.143    118.95683     -22405.1   -930.54452 
   40400    326.83329   -22259.491    124.70118   -22384.192    -2491.142 
   40600    294.86943   -22287.368    112.50557   -22399.873   -14611.244 
   40800    306.26271   -22286.409    116.85261   -22403.262   -12797.695 
   41000    275.57731   -22314.183    105.14478   -22419.328   -466.84638 
   41200    292.05804   -22303.894     111.4329   -22415.327   -4712.0745 
   41400    361.41665   -22278.743    137.89624   -22416.639    2429.8257 
   41600     293.3717   -22292.372    111.93412   -22404.306    24271.561 
   41800    293.05443   -22293.018    111.81307   -22404.831    4693.6668 
   42000    309.23613   -22275.747    117.98709   -22393.734   -15210.637 
   42200    275.51518   -22299.582    105.12108   -22404.703    -12332.33 
   42400     290.5004   -22291.441    110.83859    -22402.28    16713.847 
   42600    328.61155    -22274.83    125.37966    -22400.21   -887.92243 
   42800    274.75109   -22303.401    104.82954    -22408.23    735.82725 
   43000    283.52766   -22287.511    108.17819   -22395.689    9694.5892 
   43200    325.08981   -22272.422    124.03596   -22396.458   -5244.1471 
   43400    291.51521   -22302.007    111.22579   -22413.232   -10707.327 
   43600    285.18113   -22291.565    108.80906   -22400.374   -3340.8786 
   43800    337.51601   -22283.451     128.7771   -22412.228   -5729.9614 
   44000    248.57039   -22314.713    94.840464   -22409.554    2587.7392 
   44200    315.52803   -22289.091    120.38773   -22409.479    10475.768 
   44400    311.61152   -22285.918    118.89341   -22404.812   -10003.702 
   44600    266.45061   -22313.094    101.66255   -22414.756   -19642.572 
   44800    292.11913   -22286.995    111.45621   -22398.451    23230.602 
   45000    328.67824   -22269.225    125.40511    -22394.63    -16982.41 
   45200    284.74165   -22297.563    108.64138   -22406.204   -4137.5763 
   45400    273.97168   -22283.848    104.53217    -22388.38   -1930.0852 
   45600    315.34269   -22273.711    120.31701   -22394.028   -5720.3704 
   45800    302.11626   -22281.312    115.27055   -22396.582     22138.72 
   46000    298.11653   -22280.639    113.74448   -22394.383   -22938.164 
   46200    310.58594   -22271.981     118.5021   -22390.483   -3246.1891 
   46400    309.07884   -22289.057    117.92708   -22406.984    1219.4783 
   46600    292.67035   -22291.726    111.66652   -22403.393    10051.243 
   46800    319.46107   -22266.737    121.88836   -22388.626    9747.3886 
   47000    287.59783   -22291.675    109.73114   -22401.407    1070.9819 
   47200    273.13198   -22298.427    104.21178   -22402.639    22244.882 
   47400    322.64769   -22272.689    123.10419   -22395.793   -4965.5653 
   47600    288.75853    -22296.72    110.17399   -22406.894    10599.551 
   47800    280.53632   -22287.463    107.03686   -22394.499    5793.8874 
   48000      290.821   -22275.814    110.96092   -22386.775   -12118.073 
   48200    265.46973   -22303.445     101.2883   -22404.734   -9957.4696 
   48400    294.95879   -22281.139    112.53966   -22393.679    3259.2771 
   48600    291.60727   -22284.764    111.26091   -22396.025    2094.5854 
   48800    298.04611   -22297.799    113.71761   -22411.517    8127.2401 
   49000    302.42551   -22278.123    115.38854   -22393.512   -22064.843 
   49200    282.50862   -22289.909    107.78938   -22397.699    20950.157 
   49400    306.81176   -22292.672    117.06209   -22409.734   -5647.2191 
   49600    341.79668   -22268.286    130.41037   -22398.696   -21850.327 
   49800    301.63466   -22291.224     115.0868   -22406.311    5077.6645 
   50000    318.54213   -22292.125    121.53774   -22413.662     7560.833 
   50200    330.08636   -22266.554    125.94237   -22392.497    11566.063 
   50400    299.55115   -22294.417    114.29185   -22408.709   -15819.355 
   50600    313.13807   -22281.681    119.47585   -22401.157    6048.0963 
   50800    347.28951   -22272.327    132.50612   -22404.833    2217.3041 
   51000    259.04646   -22304.694    98.837543   -22403.532   -3800.0703 
   51200    299.27405    -22285.76    114.18612   -22399.946   -3620.8726 
   51400    317.63219   -22276.152    121.19056   -22397.343   -5433.6154 
   51600    278.70206    -22308.69    106.33701   -22415.027     -7076.12 
   51800    299.42046   -22290.201    114.24198   -22404.443    10217.163 
   52000     316.8471   -22279.279    120.89101    -22400.17   -20129.743 
   52200    278.22599   -22286.564    106.15537    -22392.72    3674.0463 
   52400    309.74969   -22284.146    118.18304   -22402.329    153.17977 
   52600    330.85698   -22269.952    126.23639   -22396.189    1349.5228 
   52800    312.06741   -22292.989    119.06735   -22412.057    3171.3958 
   53000    299.17205   -22284.784    114.14721   -22398.932    11819.197 
   53200    314.09111    -22268.12    119.83948    -22387.96   -898.43492 
   53400    322.23358   -22290.867    122.94619   -22413.813    2525.9804 
   53600    315.61582   -22291.458    120.42122   -22411.879     16779.87 
   53800    341.90858   -22255.182    130.45306   -22385.635   -10250.661 
   54000    302.50239   -22272.295    115.41788   -22387.713    3891.7334 
   54200    274.34255   -22293.583    104.67367   -22398.257   -27815.613 
   54400    320.97837   -22274.174    122.46727   -22396.641    26995.722 
   54600    315.77976   -22268.426    120.48377   -22388.909    34545.338 
   54800    328.93344   -22285.464    125.50248   -22410.967    27250.871 
   55000    301.06312   -22267.508    114.86873   -22382.376    848.44341 
   55200     286.0935   -22265.615    109.15717   -22374.772     10263.39 
   55400    302.77268   -22285.416      115.521   -22400.937   -20871.699 
   55600    317.67338   -22269.042    121.20627   -22390.248   -34332.354 
   55800    298.14112   -22277.125    113.75386   -22390.879    -9546.186 
   56000    269.13381    -22299.52    102.68631   -22402.207   -3766.2594 
   56200     280.2158   -22278.139    106.91457   -22385.054   -12892.527 
   56400    307.95083    -22284.18    117.49669   -22401.676   -1914.2697 
   56600    289.61746   -22297.761    110.50171   -22408.262   -7224.6266 
   56800    316.23616   -22275.154    120.65791   -22395.812   -11199.263 
   57000     291.7622   -22290.814    111.32003   -22402.134   -14653.235 
   57200    297.85628   -22291.926    113.64518   -22405.572     3862.689 
   57400    313.22724   -22276.506    119.50988   -22396.016   -9820.7298 
   57600    315.02964   -22262.734    120.19757   -22382.932     5947.533 
   57800    273.72211   -22297.084    104.43694   -22401.521    13601.533 
   58000    260.60717   -22277.416    99.433019   -22376.849   -7401.7717 
   58200     289.7924   -22271.103    110.56846   -22381.672   -24796.397 
   58400    283.17819   -22286.958    108.04485   -22395.003   -23162.586 
   58600    282.36674   -22296.603    107.73525   -22404.338    1869.2916 
   58800    297.93214   -22278.232    113.67413   -22391.906    12559.632 
   59000     290.2383   -22296.355    110.73859   -22407.094    11197.509 
   59200    304.05481   -22288.633    116.01019   -22404.643    434.44377 
   59400    311.08986   -22270.474    118.69437   -22389.169     13496.83 
   59600    303.44211   -22294.297    115.77642   -22410.074    7802.9447 
   59800    303.04885   -22273.308    115.62637   -22388.935    20271.823 
   60000    304.37081   -22269.299    116.13076   -22385.429    8578.8102 
   60200    310.53514   -22283.297    118.48272   -22401.779    2088.4103 
   60400    255.86786   -22312.918    97.624768   -22410.543     9018.179 
   60600    264.18278     -22297.9    100.79727   -22398.697    9616.6321 
   60800      325.492   -22274.779    124.18942   -22398.968    12342.129 
   61000    308.17012   -22278.399    117.58037   -22395.979   -12692.012 
   61200     255.5157   -22302.334    97.490403   -22399.824    15096.438 
   61400    273.54463   -22276.465    104.36923   -22380.834    13663.473 
   61600    316.22056   -22279.158    120.65196    -22399.81   -6950.7483 
   61800    305.17566   -22303.882    116.43785    -22420.32   -17570.824 
   62000    283.29507   -22285.612    108.08944   -22393.702   -5435.0329 
   62200     276.9609   -22289.788    105.67268   -22395.461   -1047.3647 
   62400    276.82495   -22298.913    105.62081   -22404.534   -6640.4549 
   62600    325.78888    -22271.47    124.30269   -22395.772   -9018.2732 
   62800    293.45145   -22286.727    111.96455   -22398.692   -20438.259 
   63000    299.54155    -22288.14    114.28819   -22402.428    38844.514 
   63200    330.37375   -22286.405    126.05202   -22412.457    -19749.87 
   63400    320.26932   -22269.423    122.19674    -22391.62   -14959.814 
   63600    300.39893   -22291.609    114.61531   -22406.224   -18155.169 
   63800    300.06248   -22288.811    114.48695   -22403.298    1891.8873 
   64000    321.52873   -22276.962    122.67726   -22399.639   -10378.292 
   64200    293.12571   -22282.507    111.84026   -22394.347   -11819.328 
   64400    301.73122   -22278.501    115.12364   -22393.625    1473.0885 
   64600    311.44759   -22273.718    118.83086   -22392.548    49183.659 
   64800    264.96868   -22282.824    101.09713   -22383.921    3001.3277 
   65000    301.08501   -22280.631    114.87709   -22395.508    -14707.08 
   65200    310.55689   -22271.552    118.49102   -22390.043   -11498.166 
   65400     277.2645   -22292.632    105.78852    -22398.42    8485.8904 
   65600    296.19433   -22277.481    113.01108   -22390.492    -2068.168 
   65800    313.65883   -22273.786    119.67454   -22393.461   -15658.153 
   66000    313.51563   -22284.562    119.61991   -22404.182   -26899.714 
   66200     284.6588   -22298.838    108.60977   -22407.448   -8293.7871 
   66400    323.88962   -22270.326    123.57804   -22393.904    17677.619 
   66600    305.93716    -22290.51    116.72839   -22407.239    -628.0886 
   66800    300.76684   -22287.807    114.75569   -22402.563   -7940.1882 
   67000    347.02966   -22268.294    132.40698   -22400.701   -9485.3059 
   67200     291.5485   -22287.897    111.23849   -22399.136   -23861.313 
   67400    282.01328   -22272.109    107.60039   -22379.709    2044.2422 
   67600     307.1035   -22257.087     117.1734   -22374.261    9278.5467 
   67800    281.48547   -22281.741      107.399    -22389.14   -6646.9302 
   68000    315.89499   -22286.415    120.52774   -22406.943    16675.444 
   68200     289.6284   -22290.406    110.50589   -22400.911    -2226.499 
   68400    303.83598   -22277.553     115.9267   -22393.479   -13196.559 
   68600     318.3514   -22275.072    121.46497   -22396.537    10807.363 
   68800    279.97993   -22302.517    106.82458   -22409.341   -29445.952 
   69000    325.67494   -22281.945    124.25922   -22406.204    7121.0228 
   69200    299.04615   -22287.206    114.09917   -22401.305    29241.482 
   69400    292.70864    -22295.21    111.68113   -22406.891   -295.24221 
   69600    330.52699   -22267.849    126.11049    -22393.96   -10462.521 
   69800    335.61724   -22279.405    128.05264   -22407.458   -7190.6928 
   70000    278.10825   -22286.481    106.11045   -22392.591    -47.57314 
   70200    327.90176   -22273.454    125.10885   -22398.563   -27652.924 
   70400    284.95589   -22264.741    108.72312   -22373.464   -2209.3627 
   70600    292.17462   -22289.194    111.47738   -22400.672    10541.395 
   70800    315.95675   -22280.303     120.5513   -22400.854    5045.3371 
   71000    332.35583   -22245.996    126.80827   -22372.804   -16218.302 
   71200    318.63653   -22272.378    121.57376   -22393.951    2194.9869 
   71400     273.2008   -22290.952    104.23804    -22395.19   -6412.5023 
   71600    310.80601   -22278.009    118.58607   -22396.595    3950.9619 
   71800    306.98858   -22275.977    117.12956   -22393.106    -7194.225 
   72000    259.33214   -22299.878    98.946542   -22398.824    20963.441 
   72200    339.35388   -22279.673    129.47833   -22409.152   -4766.8426 
   72400    334.65589   -22279.155    127.68584   -22406.841    8965.7806 
   72600    261.82144   -22299.704    99.896318   -22399.601   -16784.018 
   72800    328.86853   -22275.286    125.47771   -22400.764    17727.146 
   73000    311.81259   -22284.348    118.97013   -22403.318   -8791.7918 
   73200    290.08475   -22302.403    110.68001   -22413.083   -6743.5837 
   73400    308.49406   -22282.336    117.70396    -22400.04   -26528.977 
   73600     301.8321    -22281.85    115.16213   -22397.012    1699.2939 
   73800    280.26763   -22305.998    106.93434   -22412.933    5088.2214 
   74000    274.83492   -22283.382    104.86153   -22388.244     8104.787 
   74200    333.35502   -22279.691     127.1895   -22406.881    -14711.37 
   74400    260.82364   -22306.643    99.515612   -22406.159    11358.417 
   74600    325.22412   -22283.406    124.08721   -22407.493    2843.5413 
   74800    300.32555   -22289.365    114.58732   -22403.952    12409.195 
   75000    266.20768   -22300.305    101.56986   -22401.875    9565.0614 
   75200    305.20653   -22271.383    116.44962   -22387.833    11864.078 
   75400    294.18305   -22286.441    112.24368   -22398.684   -14384.762 
   75600    262.47793   -22308.158     100.1468   -22408.305    3508.1144 
   75800    290.70617   -22285.722     110.9171   -22396.639   -19651.053 
   76000    288.72597   -22273.346    110.16157   -22383.508   -19379.153 
   76200    278.42432   -22299.443    106.23104   -22405.674    18008.737 
   76400     274.8188   -22293.681    104.85538   -22398.536    459.51718 
   76600    303.12593   -22286.979    115.65578   -22402.635   -6003.1855 
   76800    313.43919   -22267.898    119.59075   -22387.488   -16414.144 
   77000     299.1964   -22277.095     114.1565   -22391.252   -18877.311 
   77200    261.29233   -22288.914    99.694438   -22388.609    5484.6772 
   77400    297.09827    -22269.12    113.35597   -22382.476    19295.471 
   77600    302.21794   -22287.036    115.30935   -22402.345   -12085.757 
   77800    280.79765   -22295.067    107.13657   -22402.203    19608.704 
   78000    296.91736   -22284.913    113.28694   -22398.199    5612.8393 
   78200    292.82094   -22283.875    111.72398   -22395.599   -25066.108 
   78400     276.1028    -22295.89    105.34528   -22401.236    -16898.65 
   78600    315.57804   -22265.167    120.40681   -22385.574    2344.7561 
   78800    293.67134   -22284.928    112.04845   -22396.976    11592.233 
   79000    298.71863   -22288.698    113.97421   -22402.672    1326.6828 
   79200    324.41699   -22287.338    123.77925   -22411.117   -3924.7993 
   79400    281.39354   -22308.662    107.36393   -22416.026   -8866.5112 
   79600    270.95849   -22292.033     103.3825   -22395.415   -15889.557 
   79800    304.08179   -22279.256    116.02049   -22395.276   -8274.7551 
   80000    297.79129   -22278.351    113.62039   -22391.971    15075.124 
   80200    274.06699   -22280.978    104.56853   -22385.546    22347.419 
   80400    309.83604   -22281.664    118.21599    -22399.88    1405.5348 
   80600    307.67963   -22274.116    117.39322   -22391.509    19438.293 
   80800    248.95573   -22301.868    94.987487   -22396.856   -707.29216 
   81000    301.80116   -22284.354    115.15033   -22399.504   -9443.8327 
   81200    280.97246   -22279.563    107.20327   -22386.766    20386.969 
   81400    290.95774   -22288.491    111.01309   -22399.504    -4238.473 
   81600     308.1871   -22275.266    117.58684   -22392.853   -25909.374 
   81800    327.20632   -22267.914    124.84351   -22392.758   -3869.9722 
   82000     287.6371   -22288.814    109.74612    -22398.56    2970.4804 
   82200    317.11349   -22274.444    120.99265   -22395.436   -3337.1547 
   82400    321.87414   -22265.105    122.80904   -22387.914    433.01361 
   82600     272.9351   -22296.261    104.13666   -22400.398   -5084.1704 
   82800      299.178   -22279.421    114.14948    -22393.57    -10881.98 
   83000    318.26077   -22276.411    121.43039   -22397.842   -7649.6521 
   83200     272.5002    -22296.07    103.97073   -22400.041    3733.2619 
   83400    312.55137   -22271.511      119.252   -22390.763   -402.42467 
   83600    297.15497   -22282.518     113.3776   -22395.895    3998.9468 
   83800    245.48757   -22316.762    93.664232   -22410.426    6066.6303 
   84000    283.32401   -22296.933    108.10049   -22405.034    6184.7193 
   84200    291.72959   -22279.386    111.30758   -22390.694     19806.02 
   84400     274.9409   -22296.356    104.90196   -22401.258    10443.076 
   84600    297.90575   -22293.901    113.66406   -22407.565    916.90679 
   84800    297.47437   -22278.019    113.49947   -22391.518   -23448.777 
   85000    303.17648   -22292.429    115.67507   -22408.104    2273.4175 
   85200    268.11027   -22306.846    102.29578   -22409.142    7243.9604 
   85400    317.83638   -22275.947    121.26846   -22397.216    4687.7899 
   85600    275.88686   -22287.442    105.26289   -22392.705   -5001.8122 
   85800    260.83361   -22302.204    99.519416   -22401.723   -20659.579 
   86000    288.94323   -22287.021    110.24447   -22397.266    15734.653 
   86200     303.8901   -22275.859    115.94735   -22391.807   -22639.653 
   86400    323.63081   -22252.658    123.47929   -22376.138    8184.4302 
   86600    300.77847   -22284.648    114.76012   -22399.408    12641.509 
   86800    316.12673   -22280.049    120.61616   -22400.665    5170.3911 
   87000    290.97257   -22287.256    111.01875   -22398.275   -12968.049 
   87200     298.7842   -22299.203    113.99922   -22413.202    6946.1389 
   87400    317.14931   -22268.615    121.00632   -22389.621    8988.4741 
   87600    297.83875   -22280.076     113.6385   -22393.714    25489.371 
   87800    290.45753   -22287.387    110.82224   -22398.209   -7.5017137 
   88000    292.07335   -22296.384    111.43874   -22407.823    27629.661 
   88200    333.54286   -22272.314    127.26117   -22399.575   -534.65258 
   88400    319.26139   -22277.806    121.81217   -22399.618    13358.929 
   88600    279.01356   -22300.675    106.45586    -22407.13    4651.9623 
   88800    310.19566   -22286.123     118.3532   -22404.476   -16862.739 
   89000    365.34381    -22253.06    139.39462   -22392.454   -5848.4935 
   89200    294.23849   -22277.656    112.26484   -22389.921    4850.8714 
   89400    264.65385   -22285.977    100.97701   -22386.954   -15760.231 
   89600    316.35167   -22263.796    120.70198   -22384.498   -7414.3797 
   89800    299.23484   -22293.144    114.17116   -22407.315    1150.9158 
   90000    327.73717   -22287.507    125.04605   -22412.553    10924.055 
   90200    303.81786   -22287.496    115.91978   -22403.415    31589.745 
   90400    288.86131   -22300.362    110.21321   -22410.575   -6417.5199 
   90600    322.32846   -22277.386    122.98239   -22400.368    30732.244 
   90800    315.29472   -22271.233    120.29871   -22391.531   -6718.7411 
   91000    275.21793   -22298.638    105.00766   -22403.646    23942.559 
   91200    282.80303   -22280.923    107.90171   -22388.824    15010.491 
   91400    316.55364   -22274.135    120.77904   -22394.914    3122.2833 
   91600    285.57089   -22303.431    108.95777   -22412.389    13065.228 
   91800    317.93281   -22283.802    121.30526   -22405.108   -5625.0225 
   92000    340.48611   -22271.682    129.91033   -22401.592    22338.651 
   92200    282.05485   -22284.892    107.61625   -22392.509    198.86241 
   92400    299.78217   -22273.619    114.37999   -22387.999      2312.51 
   92600    290.15995   -22282.505     110.7087   -22393.213    11117.572 
   92800    285.73571   -22298.125    109.02066   -22407.145    5576.3936 
   93000    310.14065   -22280.139    118.33221   -22398.471   -12807.902 
   93200    356.49812   -22250.689    136.01961   -22386.708    5525.9723 
   93400    276.14778   -22284.319    105.36244   -22389.681   -10986.041 
   93600    306.44011    -22290.91    116.92029   -22407.831   -11470.606 
   93800    336.29983   -22268.865    128.31308   -22397.178    16349.357 
   94000    319.73664   -22281.598     121.9935   -22403.591   -9816.9143 
   94200    282.06947   -22293.898    107.62183    -22401.52   -3173.5568 
   94400    322.02105   -22278.663     122.8651   -22401.528   -17894.105 
   94600    318.88131   -22271.948    121.66715   -22393.615   -21130.725 
   94800    281.30558   -22291.997    107.33037   -22399.328    18908.495 
   95000    286.51087   -22282.605    109.31641   -22391.922   -16960.063 
   95200    297.30032   -22265.895    113.43306   -22379.328    5552.8264 
   95400    276.25367    -22295.37    105.40285   -22400.772    15032.578 
   95600     297.6362   -22286.653    113.56121   -22400.214    8876.3119 
   95800    289.88578    -22282.34    110.60409   -22392.944   -5216.3093 
   96000     265.1843   -22310.874     101.1794   -22412.054    20473.193 
   96200    313.68956   -22284.727    119.68627   -22404.413    20023.983 
   96400    308.09346   -22275.894    117.55111   -22393.445    4471.7177 
   96600    274.12346   -22307.171    104.59008   -22411.761    15177.442 
   96800    311.43445   -22285.732    118.82585   -22404.558   -986.32304 
   97000    306.57669   -22276.677     116.9724   -22393.649   -4239.4595 
   97200    314.90359   -22287.984    120.14948   -22408.133   -8474.1838 
   97400    277.29783   -22292.059    105.80124    -22397.86    14307.932 
   97600    296.16206   -22282.408    112.99876   -22395.407    65.451988 
   97800      322.539   -22257.934    123.06272   -22380.996   -6587.0318 
   98000    305.37622   -22289.145    116.51437   -22405.659    7687.7203 
   98200    282.74123   -22284.886    107.87813   -22392.764    19574.469 
   98400    345.29845   -22267.818    131.74644   -22399.564    2095.1039 
   98600    291.69149   -22298.943    111.29305   -22410.237   -14867.404 
   98800    294.33089     -22276.4    112.30009     -22388.7   -10574.447 
   99000    303.57323   -22287.837    115.82645   -22403.664   -16416.024 
   99200    289.73201   -22292.963    110.54542   -22403.508   -6405.4545 
   99400    335.35097   -22277.412    127.95104   -22405.363    9428.9537 
   99600    292.93008   -22298.127    111.76562   -22409.893    20553.187 
   99800    265.74718   -22294.678    101.39416   -22396.072   -3307.2499 
  100000    296.46385   -22282.654    113.11391   -22395.768   -33385.995 
  100200    315.33227   -22290.147    120.31304    -22410.46   -2873.8355 
  100400    290.53141   -22299.156    110.85043   -22410.006   -4564.0652 
  100600    314.87459   -22273.263    120.13841   -22393.402   -4524.9633 
  100800    271.19718   -22290.002    103.47357   -22393.476    11678.224 
  101000    310.06816   -22284.538    118.30455   -22402.842    4206.5813 
  101200    334.02983   -22260.115    127.44697   -22387.562   -19098.888 
  101400     284.1215   -22286.149    108.40477   -22394.553   -18247.913 
  101600    308.23885   -22281.586    117.60659   -22399.192   -1231.1262 
  101800    290.47065   -22274.048    110.82724   -22384.875   -6721.1183 
  102000    319.14745   -22282.906    121.76869   -22404.675    9723.5173 
  102200    287.38363   -22297.968    109.64941   -22407.617    204.84185 
  102400    292.52833   -22292.724    111.61234   -22404.336    29832.819 
  102600    326.68632   -22269.438     124.6451   -22394.083   -560.30889 
  102800      278.977   -22295.095    106.44191   -22401.537    27874.992 
  103000    282.07345   -22293.826    107.62334   -22401.449    4348.6044 
  103200    330.99625   -22274.667    126.28953   -22400.957    24546.014 
  103400    293.69938   -22303.507    112.05914   -22415.566   -7728.7752 
  103600    290.69264   -22296.635    110.91194   -22407.547    -10903.62 
  103800    334.74075   -22281.089    127.71822   -22408.807    11644.221 
  104000    302.28708    -22297.49    115.33573   -22412.825    14906.551 
  104200    293.70236   -22296.524    112.06028   -22408.584    20489.095 
  104400    302.99058   -22282.417    115.60414   -22398.021    2325.0665 
  104600    313.09598   -22279.873    119.45979   -22399.333    7511.4683 
  104800    291.76242   -22264.474    111.32011   -22375.794    -15918.72 
  105000    272.81416   -22290.544    104.09052   -22394.634    833.42133 
  105200    314.77182   -22288.391     120.0992   -22408.491    12211.172 
  105400    337.30301   -22258.257    128.69583   -22386.952    -6420.025 
  105600    302.25404   -22284.342    115.32312   -22399.665    2267.3806 
  105800      294.032   -22288.336    112.18605   -22400.522    10340.763 
  106000    356.30489   -22257.757    135.94588   -22393.702   -12700.693 
  106200    311.51038   -22278.971    118.85482   -22397.826    14044.294 
  106400    287.36361   -22284.955    109.64177   -22394.597    1742.4374 
  106600    300.61915   -22281.672    114.69934   -22396.372    5229.0214 
  106800    268.32076   -22303.205    102.37609   -22405.581   -7858.1343 
  107000    306.79674   -22275.626    117.05636   -22392.682   -29203.368 
  107200     304.6225   -22284.462    116.22679   -22400.688   -7279.9997 
  107400    259.44485   -22289.585    98.989545   -22388.574    8179.3129 
  107600    315.90008   -22252.144    120.52968   -22372.674    13572.859 
  107800    319.38022   -22278.673     121.8575   -22400.531    2289.1314 
  108000    295.73137   -22293.317    112.83444   -22406.152   -13141.955 
  108200    259.49777   -22307.899    99.009736   -22406.909   -4497.4901 
  108400    321.92191   -22275.239    122.82727   -22398.066    5120.1671 
  108600    273.28861   -22296.656    104.27154   -22400.928   -15214.676 
  108800    281.27936    -22278.37    107.32036    -22385.69   -18745.556 
  109000    349.04885   -22268.996    133.17739   -22402.174    1206.4684 
  109200    295.53825   -22285.962    112.76075   -22398.723   -11120.479 
  109400    311.15723   -22281.839    118.72008   -22400.559   -4387.2013 
  109600    309.75111   -22289.035    118.18358   -22407.218   -19692.994 
  109800    288.11851   -22297.088     109.9298   -22407.018    1694.5881 
  110000    315.09765   -22282.941    120.22352   -22403.164   -8351.6437 
  110200     338.0953    -22268.87    128.99813   -22397.868    6076.1115 
  110400    292.78516   -22298.405    111.71033   -22410.115   -10923.979 
  110600    293.37488   -22274.752    111.93533   -22386.687    1315.7475 
  110800    306.91215   -22277.123    117.10039   -22394.223   -29947.146 
  111000    293.66161   -22288.443    112.04473   -22400.488    2207.7181 
  111200    283.99586   -22289.138    108.35683   -22397.495   -1700.3344 
  111400    256.03868   -22296.062    97.689941   -22393.752   -11281.359 
  111600    241.34249   -22294.183    92.082703   -22386.266   -15917.594 
  111800    297.71325   -22275.812    113.59061   -22389.403   -1539.8951 
  112000    287.35903   -22281.277    109.64002   -22390.917    10277.283 
  112200    300.50632   -22283.265    114.65629   -22397.922    -18888.46 
  112400    257.86787   -22299.175    98.387859   -22397.563    2973.5933 
  112600    312.57476   -22270.461    119.26093   -22389.722   -8177.2517 
  112800    298.42013   -22284.979    113.86032   -22398.839      15990.1 
  113000    289.46383   -22286.417     110.4431    -22396.86   -11412.774 
  113200     336.8196   -22257.567    128.51139   -22386.078    5468.4499 
  113400    311.06524   -22276.405    118.68498   -22395.089    198.26791 
  113600    291.76494    -22286.15    111.32107   -22397.471   -32231.521 
  113800    287.11434   -22276.356    109.54666   -22385.903    10403.568 
  114000    313.38215   -22269.112    119.56898   -22388.681    11901.178 
  114200    302.01945   -22296.727    115.23362   -22411.961   -15035.886 
  114400    307.77022   -22280.999    117.42778   -22398.427     16910.72 
  114600    321.57892   -22274.392    122.69641   -22397.089   -14394.072 
  114800    300.33102   -22288.085     114.5894   -22402.674   -9977.4907 
  115000    316.52333   -22255.096    120.76748   -22375.863    8362.2325 
  115200    308.91938    -22275.87    117.86624   -22393.736    -6990.174 
  115400    313.94363   -22287.565    119.78321   -22407.348    15974.211 
  115600    356.43958   -22263.311    135.99727   -22399.308   -16294.182 
  115800    308.02629   -22282.048    117.52549   -22399.574    490.54214 
  116000    316.70834   -22291.594    120.83807   -22412.432   -16722.093 
  116200     335.4625   -22267.544     127.9936   -22395.538    -7840.656 
  116400    303.38953   -22268.428    115.75636   -22384.185   -7277.1656 
  116600    300.34579   -22290.808    114.59504   -22405.403   -10344.743 
  116800    327.30048   -22269.816    124.87943   -22394.696   -16517.809 
  117000    317.85301   -22294.686    121.27481   -22415.961   -1522.2853 
  117200    298.94564   -22296.401    114.06082   -22410.462   -10116.548 
  117400    310.13316   -22282.367    118.32935   -22400.697    6743.3883 
  117600    325.93621   -22279.137     124.3589   -22403.496    2664.4986 
  117800    311.59981   -22284.828    118.88894   -22403.717   -3915.8297 
  118000    280.19356    -22292.17    106.90609   -22399.076   -19979.397 
  118200    303.55084   -22286.885    115.81791   -22402.703    10415.626 
  118400    308.31604   -22275.276    117.63604   -22392.912   -1993.2976 
  118600    290.95185   -22294.057    111.01084   -22405.068   -3540.5362 
  118800    294.20862   -22281.547    112.25344     -22393.8    12029.674 
  119000    292.84135   -22278.165    111.73177   -22389.897   -7.3999788 
  119200    267.62456   -22302.008    102.11046   -22404.118   -4268.6264 
  119400    306.30074   -22276.926    116.86711   -22393.793   -20861.863 
  119600    303.63831   -22279.952    115.85128   -22395.803    28027.029 
  119800    305.11635   -22286.891    116.41522   -22403.306   -16655.069 
  120000     308.7535   -22273.393    117.80295   -22391.196   -6858.3079 
  120200    297.44113   -22274.333    113.48678    -22387.82    7995.6811 
  120400     274.9897   -22294.603    104.92059   -22399.523    22299.709 
  120600    295.66368   -22277.199    112.80861   -22390.007   -13188.002 
  120800    299.02565   -22290.743    114.09135   -22404.835    616.35216 
  121000    285.66324   -22287.406    108.99301   -22396.399   -20975.605 
  121200    325.02584   -22273.158    124.01156   -22397.169   -226.68907 
  121400    348.20802   -22281.343    132.85657   -22414.199   -2587.4951 
  121600    310.83981   -22286.143    118.59897   -22404.742    1676.3707 
  121800    298.91472   -22305.164    114.04902   -22419.214    27668.911 
  122000    285.55163   -22277.944    108.95042   -22386.894   -11145.911 
  122200    309.72405   -22290.576    118.17326   -22408.749   -3993.1218 
  122400    285.75895   -22304.487    109.02952   -22413.516    6181.8546 
  122600    281.35698   -22285.147    107.34998   -22392.497    11866.127 
  122800    297.72581   -22277.334     113.5954    -22390.93    18649.064 
  123000    267.81499   -22301.245    102.18312   -22403.428   -2438.6269 
  123200    282.85888   -22307.953    107.92302   -22415.876    3274.9696 
  123400    307.93573   -22276.494    117.49093   -22393.985    9871.1576 
  123600    300.70632   -22290.549     114.7326   -22405.282    19677.246 
  123800    278.30911    -22307.69    106.18708   -22413.878   -273.53707 
  124000    308.85476    -22272.61    117.84158   -22390.452    1652.2058 
  124200    297.16766   -22280.496    113.38244   -22393.878    7898.9966 
  124400    294.18441   -22298.791     112.2442   -22411.035   -4111.0809 
  124600    345.94183    -22269.23    131.99192   -22401.222    9683.3178 
  124800    279.45883   -22290.962    106.62575   -22397.587   -11757.283 
  125000    278.68939   -22291.667    106.33218   -22397.999    -1021.967 
  125200     296.4312   -22285.981    113.10145   -22399.083    4789.2947 
  125400    271.36771   -22297.844    103.53864   -22401.382   -3585.4037 
  125600    337.10918   -22279.879    128.62188   -22408.501   -13336.358 
  125800    307.23162   -22277.104    117.22228   -22394.327    8220.3428 
  126000    269.04675   -22300.058    102.65309   -22402.711   -15122.871 
  126200    296.63926    -22279.98    113.18084   -22393.161   -5605.0962 
  126400    361.62331   -22265.321    137.97509   -22403.296    12998.199 
  126600    295.21988   -22294.089    112.63928   -22406.728   -10589.459 
  126800    338.49438    -22279.98    129.15039    -22409.13    10542.431 
  127000    342.39027   -22263.868    130.63685   -22394.505    18712.781 
  127200      283.892   -22280.278     108.3172   -22388.595   -17542.304 
  127400    292.09296    -22297.66    111.44623   -22409.106    4330.4206 
  127600    306.41996   -22277.713     116.9126   -22394.625    27078.169 
  127800    302.10576   -22279.958    115.26655   -22395.224    26451.098 
  128000    266.81379   -22304.872    101.80112   -22406.673    -16867.74 
  128200    285.19452   -22295.635    108.81417   -22404.449    13753.149 
  128400    301.92601   -22279.758    115.19796   -22394.956   -7909.8773 
  128600    315.34358   -22279.191    120.31735   -22399.508    3788.3984 
  128800    314.27224   -22294.937    119.90859   -22414.846    2879.6598 
  129000    339.94694   -22270.952    129.70461   -22400.657    14684.444 
  129200    257.89862   -22300.218    98.399589   -22398.617   -56.404762 
  129400    320.28685   -22279.958    122.20343   -22402.161    -5207.015 
  129600    323.58009   -22285.076    123.45994   -22408.536    5594.2444 
  129800    294.29748    -22297.22    112.28734   -22409.508    16052.221 
  130000     292.9674   -22275.221    111.77986   -22387.001   -13878.605 
  130200    297.72323    -22279.64    113.59442   -22393.235    27144.177 
  130400    273.94935   -22306.212    104.52364   -22410.736   -2506.3919 
  130600    302.50995   -22284.871    115.42076   -22400.292   -25533.141 
  130800    313.28035    -22277.45    119.53014    -22396.98   -17334.443 
  131000    285.94345   -22305.166    109.09992   -22414.266    6330.5675 
  131200    287.01652    -22290.66    109.50934    -22400.17   -11900.915 
  131400    299.39562   -22283.148    114.23251   -22397.381    16632.524 
  131600    276.21974    -22284.83     105.3899    -22390.22   -4935.1334 
  131800    296.96799   -22276.814    113.30626    -22390.12    22819.075 
  132000    290.45666   -22299.783     110.8219   -22410.605    2817.1266 
  132200    289.74785   -22272.163    110.55146   -22382.715   -13330.697 
  132400    260.81968   -22287.076    99.514102    -22386.59   -14488.368 
  132600    269.66349   -22299.378     102.8884   -22402.266    9547.6655 
  132800    313.77501   -22272.111    119.71887    -22391.83    9525.7802 
  133000    301.67692   -22292.634    115.10293   -22407.737    32786.508 
  133200    311.64566   -22296.756    118.90643   -22415.662    8725.6124 
  133400    315.76033   -22270.434    120.47636   -22390.911   -15959.596 
  133600    272.77468   -22300.761    104.07546   -22404.837   -668.41475 
  133800    269.90758   -22301.457    102.98153   -22404.439   -6866.3042 
  134000    303.76043   -22279.209    115.89787   -22395.107    1603.0637 
  134200    280.72849   -22303.654    107.11018   -22410.764    458.62092 
  134400    299.83743   -22298.584    114.40108   -22412.985   -4396.5639 
  134600    313.78498   -22288.005    119.72268   -22407.728    2710.2213 
  134800    285.06145   -22315.759     108.7634   -22424.523   -30025.356 
  135000     349.6172    -22288.59    133.39424   -22421.985   -25184.944 
  135200     291.8672   -22283.071    111.36009   -22394.431    26033.246 
  135400    293.29461   -22314.336    111.90471    -22426.24   -11291.704 
  135600    285.08545   -22297.301    108.77255   -22406.073    11937.872 
  135800    273.61255   -22291.657    104.39514   -22396.052    11783.944 
  136000    305.41066   -22299.882    116.52751   -22416.409   -11697.021 
  136200    298.05966   -22291.596    113.72278   -22405.319    3695.3319 
  136400    320.27706   -22276.348    122.19969   -22398.548    10621.641 
  136600    303.20531   -22307.942    115.68607   -22423.628    1439.7208 
  136800    324.42291   -22293.756    123.78151   -22417.538   -9394.5019 
  137000    316.46498   -22276.819    120.74522   -22397.565    16454.112 
  137200    273.00952   -22305.216    104.16506   -22409.381    11176.638 
  137400     334.0056   -22284.713    127.43773   -22412.151    23829.591 
  137600    303.67757   -22305.959    115.86626   -22421.825    11947.354 
  137800    289.44338   -22301.659    110.43529   -22412.095   -4477.5036 
  138000    311.38225   -22286.459    118.80593   -22405.265   -2028.9991 
  138200    276.05513   -22314.802    105.32709   -22420.129   -5065.3177 
  138400    299.95674   -22308.192     114.4466   -22422.639    2808.9133 
  138600    278.90135   -22290.421    106.41305   -22396.834   -8316.6304 
  138800    302.19361   -22298.308    115.30006   -22413.608   -10021.991 
  139000    284.64492   -22313.595    108.60447     -22422.2    -1620.197 
  139200    328.08513   -22290.372    125.17881   -22415.551   -11573.046 
  139400    283.35473   -22294.252    108.11221   -22402.365   -6155.5928 
  139600    279.97667   -22308.166    106.82333    -22414.99    3216.2492 
  139800    275.00363   -22305.264     104.9259    -22410.19    15577.179 
  140000    320.77132   -22282.336    122.38827   -22404.725    18530.495 
  140200    279.26461   -22307.851    106.55165   -22414.403   -311.20256 
  140400    303.43487    -22311.16    115.77366   -22426.933   -14207.104 
  140600    312.05438   -22292.249    119.06238   -22411.311   -33846.575 
  140800    308.35225   -22290.641    117.64985   -22408.291   -3469.5722 
  141000    288.01448   -22286.743    109.89011   -22396.633    1831.4934 
  141200    290.04312   -22305.889    110.66412   -22416.553    612.52401 
  141400    293.49236    -22302.17    111.98016    -22414.15   -11938.638 
  141600    295.63678   -22284.095    112.79835   -22396.893     4510.086 
  141800    269.74422   -22305.257    102.91921   -22408.176    -11476.06 
  142000    280.86304   -22310.966    107.16152   -22418.128    2100.4821 
  142200    344.48548   -22284.535    131.43626   -22415.971   -18343.452 
  142400    268.38089    -22306.18    102.39903   -22408.579   -997.48212 
  142600    305.60833   -22303.867    116.60293    -22420.47    9707.1991 
  142800    313.21425   -22282.875    119.50492    -22402.38   -8771.3822 
  143000    294.54735   -22306.203    112.38268   -22418.585    21731.586 
  143200    358.94039   -22285.955    136.95144   -22422.907    11980.827 
  143400    310.27871   -22281.079    118.38488   -22399.464    16245.638 
  143600    303.41402     -22297.7     115.7657   -22413.466    8357.7716 
  143800    289.44644   -22308.023    110.43646    -22418.46    10947.752 
  144000    315.07269   -22286.094      120.214   -22406.308   -1112.0506 
  144200    290.50418   -22302.472    110.84004   -22413.312    7663.5328 
  144400    272.67517   -22308.004    104.03749   -22412.042   -5101.8587 
  144600    285.65144   -22292.702     108.9885   -22401.691   -6297.5403 
  144800    323.68045   -22296.218    123.49823   -22419.716   -18384.967 
  145000    267.52281   -22310.602    102.07164   -22412.673   -1564.5649 
  145200    311.76378   -22288.994     118.9515   -22407.945   -5941.5024 
  145400    304.12266   -22296.928    116.03608   -22412.964     3820.845 
  145600    260.47867   -22316.939    99.383991   -22416.323   -9211.7585 
  145800    279.90953   -22292.596    106.79771   -22399.394    22879.186 
  146000    305.33215   -22283.083    116.49755   -22399.581    15748.147 
  146200    314.18687   -22285.694    119.87602    -22405.57    20888.939 
  146400    274.32981   -22305.197    104.66881   -22409.866     5853.352 
  146600    318.46992   -22283.841    121.51019   -22405.351   -8894.4974 
  146800    317.43196   -22280.531    121.11416   -22401.645    402.72951 
  147000    297.94841   -22306.592    113.68034   -22420.272   -3820.8385 
  147200    323.66536   -22285.035    123.49247   -22408.527   -7533.1933 
  147400    316.68377   -22288.664    120.82869   -22409.493   -7693.3502 
  147600     294.7568   -22303.957     112.4626    -22416.42    -151.8093 
  147800    304.91924   -22296.162    116.34001   -22412.502   -2204.5157 
  148000    328.24123   -22272.162    125.23837     -22397.4    3382.9767 
  148200     289.2933   -22298.493    110.37803   -22408.871   -23545.874 
  148400    329.12796   -22295.527    125.57669   -22421.103    15517.169 
  148600    333.69921    -22276.55    127.32083   -22403.871    31455.684 
  148800    273.73183   -22307.858    104.44065   -22412.299    184.74913 
  149000    323.49396    -22289.75    123.42708   -22413.177    10179.121 
  149200    355.06359   -22282.796    135.47227   -22418.268   -5227.8371 
  149400    289.16299   -22310.229    110.32831   -22420.557   -11722.544 
  149600     309.1134   -22288.211    117.94027   -22406.151    22161.532 
  149800     292.0553   -22294.377    111.43186   -22405.809   -15324.037 
  150000    285.94131   -22302.347     109.0991   -22411.446   -8232.2963 
  150200    301.38055   -22286.305    114.98984   -22401.295   -8420.5384 
  150400    306.06309   -22283.749    116.77644   -22400.526     2820.504 
  150600    262.54187   -22309.192    100.17119   -22409.363   -6644.9791 
  150800    328.70165   -22291.135    125.41404    -22416.55    -27167.93 
  151000    351.01665   -22285.387    133.92819   -22419.315    13086.581 
  151200    300.85922   -22293.241    114.79094   -22408.032   -26327.618 
  151400    271.11683   -22288.686    103.44291   -22392.129    1248.5334 
  151600    294.36277   -22283.816    112.31225   -22396.128   -54.356927 
  151800    259.00032    -22309.46    98.819939    -22408.28    4072.7974 
  152000    319.48364   -22284.548    121.89697   -22406.445   -13294.238 
  152200     303.2801   -22284.465    115.71461    -22400.18    10813.793 
  152400    305.88355   -22294.302    116.70794    -22411.01   -1992.5878 
  152600    279.01926   -22307.234    106.45804   -22413.692    4382.0716 
  152800    309.81582   -22282.633    118.20827   -22400.841   -8804.3814 
  153000    301.12561   -22284.334    114.89258   -22399.226     570.2758 
  153200    312.99944   -22300.997    119.42296    -22420.42     10180.59 
  153400    297.83458   -22288.952     113.6369   -22402.589   -5037.9565 
  153600    304.81047    -22276.19    116.29851   -22392.488   -4033.6701 
  153800    316.76166   -22292.461    120.85841    -22413.32    -10940.01 
  154000    266.77249   -22306.756    101.78536   -22408.541    15531.132 
  154200    298.15803   -22287.211    113.76031   -22400.972   -3387.8502 
  154400    310.40206    -22281.65    118.43195   -22400.081   -10362.745 
  154600    295.46405   -22305.718    112.73244    -22418.45    7036.0379 
  154800    309.74806   -22294.782    118.18242   -22412.965   -4458.3981 
  155000     314.8365   -22301.064    120.12388   -22421.188     13885.16 
  155200    262.82709   -22320.842    100.28002   -22421.122    6694.0872 
  155400    321.09815   -22295.945    122.51297   -22418.458    3926.5052 
  155600     321.7322   -22288.046    122.75489   -22410.801   -9151.9626 
  155800    311.42898   -22311.489    118.82376   -22430.312    9917.0129 
  156000    325.30659   -22296.533    124.11868   -22420.652   -9764.8818 
  156200    341.65934   -22287.904    130.35796   -22418.262    23.367743 
  156400    316.94903   -22300.138     120.9299   -22421.068    7883.5846 
  156600    249.16817    -22322.42    95.068543   -22417.488   -4982.4704 
  156800     292.6936   -22299.344     111.6754    -22411.02   -1247.7599 
  157000    316.98836   -22288.905    120.94491    -22409.85   -24240.816 
  157200    282.60118   -22310.674     107.8247   -22418.499    631.61701 
  157400    295.15323   -22311.989    112.61385   -22424.602   -4134.8764 
  157600    277.97758   -22293.477    106.06059   -22399.537    20303.363 
  157800    283.93691   -22300.857    108.33433   -22409.192    11883.582 
  158000    305.12391   -22305.735     116.4181   -22422.153   -2623.7509 
  158200    323.30124   -22279.704    123.35355   -22403.058    28633.207 
  158400    291.27954   -22301.027    111.13587   -22412.163     19611.42 
  158600    284.30459    -22300.62    108.47462   -22409.095    9550.3739 
  158800    315.04967   -22280.604    120.20521   -22400.809      24881.7 
  159000    320.16952   -22264.061    122.15866   -22386.219   -21664.789 
  159200    283.01371   -22294.156    107.98209   -22402.139    6199.5878 
  159400    287.84672   -22302.783     109.8261   -22412.609     14396.87 
  159600    294.40547   -22304.236    112.32855   -22416.565    5451.6035 
  159800     318.5108   -22284.618    121.52578   -22406.143     10388.17 
  160000    340.07401   -22284.091    129.75309   -22413.844    13014.728 
  160200    274.01447   -22304.656    104.54849   -22409.204   -24141.737 
  160400    303.89342    -22289.97    115.94862   -22405.919    6027.9696 
  160600    285.08011   -22320.001    108.77052   -22428.771    12523.849 
  160800      305.375   -22298.082     116.5139   -22414.596   -96.707865 
  161000    306.78389   -22286.258    117.05146   -22403.309   -5991.4373 
  161200    310.01939   -22315.618    118.28594   -22433.904   -13006.967 
  161400     259.4095   -22313.211    98.976057   -22412.187   -28285.675 
  161600    280.76649   -22290.965    107.12468    -22398.09    761.52447 
  161800     279.6827   -22305.915    106.71117   -22412.626    11486.556 
  162000    247.85601    -22308.97    94.567896   -22403.538    16219.666 
  162200    261.89615   -22292.804    99.924822   -22392.729    26770.284 
  162400    312.82905   -22284.872    119.35795    -22404.23   -9040.2987 
  162600     296.7869   -22314.826    113.23717   -22428.063   -27898.728 
  162800    305.39976   -22298.273    116.52335   -22414.797    -6117.975 
  163000    326.30741   -22289.866    124.50053   -22414.366    22805.836 
  163200    303.83558   -22292.126    115.92655   -22408.053    4575.7937 
  163400    307.92565   -22302.548    117.48709   -22420.035    2363.6473 
  163600    262.03691   -22322.082     99.97853   -22422.061    20773.183 
  163800    286.08038   -22295.644    109.15216   -22404.796   -2449.8891 
  164000    303.05789   -22293.222    115.62982   -22408.852    -17441.37 
  164200    250.66389   -22320.834    95.639226   -22416.473   -3555.8081 
  164400    278.24777   -22293.789    106.16368   -22399.953   -2999.0642 
  164600    296.48024   -22293.902    113.12016   -22407.022    13554.075 
  164800    278.33941   -22315.548    106.19864   -22421.747   -4085.5468 
  165000    279.89865   -22304.172    106.79356   -22410.966    -13276.61 
  165200    299.62018   -22291.725    114.31819   -22406.043    21697.613 
  165400    283.08324   -22309.804    108.00862   -22417.813    8096.2109 
  165600    278.97372   -22308.775    106.44066   -22415.215     21916.46 
  165800    310.21424   -22287.505    118.36029   -22405.865    6680.4097 
  166000    311.75996   -22307.576    118.95005   -22426.526   -2241.5224 
  166200    253.30879   -22317.632    96.648369    -22414.28   -20827.475 
  166400    318.21819   -22285.119    121.41414   -22406.534      4066.67 
  166600    304.12115   -22293.556    116.03551   -22409.592    10699.474 
  166800    289.35014   -22312.481    110.39972    -22422.88   -4104.4922 
  167000    324.33675   -22295.277    123.74864   -22419.026   -7883.9487 
  167200    300.66721   -22289.797    114.71768   -22404.515    8150.2305 
  167400    251.89235   -22318.214    96.107935   -22414.322   -10761.574 
  167600    294.56381   -22297.349    112.38896   -22409.738     154.6931 
  167800    316.63625   -22292.741    120.81056   -22413.552    3593.4779 
  168000    254.99505   -22318.385    97.291751   -22415.677   -1863.9369 
  168200    289.12877   -22309.736    110.31526   -22420.051   -15052.259 
  168400    293.89987   -22293.025    112.13564    -22405.16    283.27266 
  168600    265.25104   -22305.501    101.20486   -22406.706    7075.6617 
  168800    279.68962   -22319.291    106.71381   -22426.005   -21394.324 
  169000    306.49758   -22287.433    116.94222   -22404.376    2809.7208 
  169200    311.76174   -22295.039    118.95072    -22413.99    24700.214 
  169400    260.89085   -22313.632    99.541255   -22413.173   -9284.5782 
  169600    303.36724   -22296.146    115.74785   -22411.894   -8884.3055 
  169800    331.43188   -22300.361    126.45574   -22426.817    9418.0716 
  170000    314.06346   -22290.717    119.82893   -22410.546    852.74413 
  170200    330.99176   -22280.212    126.28781   -22406.499   -5418.6134 
  170400    283.04067   -22303.849    107.99238   -22411.842    1347.8725 
  170600      299.134   -22293.338    114.13269   -22407.471   -22348.093 
  170800    321.94711   -22283.598    122.83689   -22406.435   -1690.7109 
  171000    264.75991   -22311.178    101.01747   -22412.195    4485.4594 
  171200    296.53097   -22292.349    113.13952   -22405.488    28497.065 
  171400     316.2012    -22291.21    120.64457   -22411.854   -16167.312 
  171600    302.80343   -22304.935    115.53274   -22420.468    12119.001 
  171800    290.58464   -22320.418    110.87073   -22431.288    676.38896 
  172000    322.37462   -22287.785          123   -22410.785   -14503.778 
  172200    285.93609   -22287.262    109.09711   -22396.359    8519.7389 
  172400     282.6247   -22314.524    107.83367   -22422.357   -3357.2542 
  172600    308.91465   -22292.971    117.86444   -22410.835   -13713.513 
  172800    294.47089   -22293.991    112.35351   -22406.345   -14634.608 
  173000       310.54   -22306.707    118.48458   -22425.192   -10994.402 
  173200    295.54795   -22281.153    112.76445   -22393.918   -6229.1488 
  173400     295.5207   -22290.195    112.75406   -22402.949   -23329.201 
  173600    323.26677   -22298.325     123.3404   -22421.665   -17153.056 
  173800    271.17386   -22300.015    103.46467    -22403.48   -2752.9127 
  174000    332.57526   -22267.414    126.89199   -22394.305    12420.677 
  174200    270.79585   -22292.782    103.32045   -22396.103    4300.1269 
  174400    300.56534   -22298.895    114.67881   -22413.574     1371.696 
  174600    307.93986   -22290.634    117.49251   -22408.126    15967.758 
  174800     296.9189    -22296.46    113.28753   -22409.747     41137.31 
  175000    275.54434   -22313.799     105.1322   -22418.932    25563.814 
  175200    320.52188   -22279.577     122.2931   -22401.871   -12706.365 
  175400    280.08494   -22300.941    106.86464   -22407.806    15022.393 
  175600    293.52998   -22306.341    111.99451   -22418.336    3695.0696 
  175800    312.57802   -22295.878    119.26217    -22415.14   -10243.426 
  176000    343.05399   -22285.262    130.89008   -22416.153    -3859.815 
  176200    267.44427   -22297.187    102.04167   -22399.228    2878.9132 
  176400    271.41623   -22298.184    103.55715   -22401.741   -11958.145 
  176600    307.02291   -22282.729    117.14265   -22399.872    4399.8142 
  176800    273.94301   -22300.493    104.52123   -22405.015   -1544.5655 
  177000    315.33579   -22298.111    120.31438   -22418.425   -10230.666 
  177200     260.4699   -22309.128    99.380648   -22408.509   -3406.2576 
  177400    302.70029   -22291.461    115.49338   -22406.954    12246.146 
  177600    293.64576   -22287.234    112.03869   -22399.273   -478.48489 
  177800    274.56438   -22312.343    104.75831   -22417.101     25229.89 
  178000    293.77638   -22304.183    112.08852   -22416.271   -15227.578 
  178200    329.36749   -22281.888    125.66809   -22407.557    -26210.63 
  178400    291.86118   -22304.015    111.35779   -22415.372   -13517.515 
  178600    313.56264   -22303.067    119.63784   -22422.705    12551.773 
  178800    298.10081   -22295.596    113.73848   -22409.335    6209.0846 
  179000     298.6528   -22312.435    113.94909   -22426.384        13428 
  179200     258.5756   -22311.703    98.657887   -22410.361    19717.353 
[...]
  950000    296.10871   -22393.287    112.97841   -22506.266    2369.6616 
  950200    283.29247   -22379.412    108.08845   -22487.501    -1204.322 
  950400    260.36834   -22390.736    99.341895   -22490.078    462.00464 
  950600    319.70715   -22380.855    121.98224   -22502.837   -18464.558 
  950800    332.61382   -22367.127     126.9067   -22494.033   -7334.2731 
  951000    289.06422   -22386.266    110.29063   -22496.556     5678.231 
  951200    353.62485   -22350.632    134.92333   -22485.555   -9422.0223 
  951400    330.64113   -22382.693    126.15404   -22508.847   -7920.6212 
  951600    295.82697   -22384.511    112.87091   -22497.382   -14878.639 
  951800    346.27409   -22366.226    132.11869   -22498.345   -3519.8352 
  952000    298.74838   -22395.363    113.98556   -22509.349    5363.1627 
  952200    322.07782   -22375.097    122.88676   -22497.983   -15387.867 
  952400    340.74809   -22373.518    130.01028   -22503.528    18559.821 
  952600    316.84966   -22383.817    120.89199   -22504.709    6550.7908 
  952800    305.69953   -22379.753    116.63773    -22496.39    -26957.76 
  953000    319.68635   -22366.211    121.97431   -22488.186   -10292.867 
  953200    300.44597   -22392.287    114.63326    -22506.92    4267.7129 
  953400    332.90226   -22372.454    127.01676   -22499.471   -14338.417 
  953600    298.78945   -22371.361    114.00123   -22485.362   -11929.323 
  953800     292.9405   -22386.659     111.7696   -22498.428   -4261.3814 
  954000    313.29362   -22358.904     119.5352   -22478.439   -21398.678 
  954200    318.78317   -22375.368    121.62971   -22496.997   -8308.2935 
  954400    291.60331   -22378.683     111.2594   -22489.943   -7996.2699 
  954600    331.54473   -22361.732     126.4988    -22488.23   -11587.746 
  954800    272.59849   -22395.822    104.00823    -22499.83    4657.9111 
  955000    281.79824     -22381.2    107.51834   -22488.718    3989.6774 
  955200    260.28584   -22372.317    99.310419   -22471.627   -10616.832 
  955400    323.66096   -22378.658     123.4908   -22502.149    8271.7529 
  955600    291.60583   -22375.832    111.26036   -22487.092    9963.5989 
  955800    329.88781   -22360.879    125.86661   -22486.746    -9831.721 
  956000    296.98742   -22386.573    113.31367   -22499.886    2638.3573 
  956200    293.91918   -22387.653    112.14301   -22499.796    2298.5805 
  956400    336.37055    -22363.51    128.34006    -22491.85   -17481.571 
  956600     285.1316   -22382.232    108.79016   -22491.022   -9585.8586 
  956800    305.20855    -22367.11     116.4504    -22483.56   -17327.743 
  957000    313.03274   -22367.552    119.43566   -22486.988    13578.653 
  957200    302.45182   -22383.532    115.39858    -22498.93    4618.7595 
  957400    326.96327   -22374.581    124.75077   -22499.332   -2622.0206 
  957600    305.78222   -22357.917    116.66928   -22474.587   -3571.9177 
  957800      301.432   -22381.729    115.00948   -22496.738    3203.0595 
  958000    278.43953   -22380.814    106.23685   -22487.051    20280.986 
  958200    328.96952   -22358.445    125.51624   -22483.961   -32211.517 
  958400    279.03191   -22386.668    106.46286   -22493.131    2720.2222 
  958600    310.91056   -22382.121    118.62596   -22500.747    106.82313 
  958800    361.70459   -22364.716     138.0061   -22502.722    1542.4046 
  959000    289.15414   -22383.914    110.32494   -22494.239   -19243.964 
  959200    276.05954   -22390.176    105.32877   -22495.505    6090.0431 
  959400    330.13533   -22361.709    125.96105    -22487.67   -14526.722 
  959600    304.30404   -22392.941    116.10528   -22509.047   -5605.1179 
  959800    294.44534   -22382.341    112.34376   -22494.685    24043.785 
  960000    333.01257   -22366.267    127.05884   -22493.325   -17456.512 
  960200    271.17729   -22395.948    103.46598   -22499.414   -5658.0637 
  960400    264.67975   -22380.055    100.98689   -22481.042   -9815.9581 
  960600     317.1366   -22366.716    121.00147   -22487.717    -9638.514 
  960800    248.53544   -22399.834    94.827127   -22494.661   -11383.252 
  961000    319.06817    -22378.74    121.73844   -22500.478    14548.724 
  961200    292.47557   -22377.491    111.59221   -22489.083   -21701.609 
  961400    285.39713   -22400.348    108.89147    -22509.24   -9242.3908 
  961600     302.4071   -22394.326    115.38152   -22509.707   -11241.001 
  961800    313.13944   -22379.404    119.47638    -22498.88    26167.186 
  962000    269.38868   -22398.371    102.78355   -22501.155   -5290.6583 
  962200    262.68217   -22411.927    100.22472   -22512.152   -3572.2608 
  962400    293.43646   -22383.644    111.95883   -22495.603   -3686.6094 
  962600     299.6847   -22370.533    114.34281   -22484.876   -10878.105 
  962800     263.7672   -22397.467    100.63871   -22498.106   -14836.656 
  963000    274.63954   -22384.492    104.78698   -22489.279    13085.364 
  963200    304.96152   -22371.299    116.35614   -22487.655    14081.765 
  963400    304.94973   -22377.717    116.35164   -22494.068    27365.319 
  963600    284.38894   -22396.314    108.50681   -22504.821    128.18137 
  963800    342.77846    -22373.39    130.78496   -22504.175    18560.059 
  964000    318.26379   -22380.635    121.43154   -22502.067   -12942.561 
  964200    254.30402   -22408.364    97.028092   -22505.392   -7165.2452 
  964400     297.0602   -22379.563    113.34144   -22492.904    6255.9488 
  964600    292.97101   -22383.745    111.78124   -22495.527    6281.9361 
  964800    265.66185   -22402.441     101.3616   -22503.802   -1053.0749 
  965000    326.96477   -22374.544    124.75134   -22499.295   -2974.4578 
  965200    303.70699   -22379.318    115.87749   -22495.195    5436.4163 
  965400    294.39897   -22390.797    112.32607   -22503.123    5330.3002 
  965600    292.33205   -22379.917    111.53745   -22491.454   -32572.861 
  965800     298.1651     -22376.9    113.76301   -22490.663    13506.241 
  966000    314.65723    -22363.35    120.05548   -22483.405    2758.6743 
  966200    333.59816   -22369.023    127.28227   -22496.305    16105.942 
  966400    281.68178   -22389.604    107.47391   -22497.078    2563.2652 
  966600    305.03123    -22373.82    116.38274   -22490.203   -863.94232 
  966800    303.74826   -22377.237    115.89323    -22493.13   -16972.592 
  967000      281.668   -22393.935    107.46865   -22501.403   -20079.096 
  967200    267.17379   -22394.814    101.93847   -22496.752   -32927.384 
  967400    322.61529   -22374.127    123.09183   -22497.219    18594.144 
  967600    288.44046   -22393.721    110.05264   -22503.774    14449.767 
  967800     271.2718   -22401.637    103.50204   -22505.139   -20293.874 
  968000    298.75625   -22369.619    113.98856   -22483.608   -18747.072 
  968200    335.27921   -22373.438    127.92366   -22501.362   -4424.7235 
  968400    250.37244   -22396.305    95.528024   -22491.833     33046.77 
  968600    338.38207   -22365.568    129.10754   -22494.676   -5881.4242 
  968800    299.75531   -22379.733    114.36974   -22494.103   -20086.417 
  969000    309.47682   -22387.259    118.07893   -22505.338    17679.713 
  969200     328.1716    -22359.91     125.2118   -22485.121    953.61787 
  969400    296.81208   -22384.454    113.24677   -22497.701    27933.622 
  969600    302.17376   -22384.727    115.29249    -22500.02    6575.0217 
  969800    357.14257   -22354.915    136.26549    -22491.18   -4664.0145 
  970000    311.14367     -22379.9     118.7149   -22498.615    32697.564 
  970200     300.1759   -22380.853    114.53022   -22495.384    12868.422 
  970400    315.01794   -22380.138    120.19311   -22500.331    3256.5391 
  970600     306.8027   -22381.995    117.05863   -22499.054    3747.1352 
  970800    276.49222   -22397.743    105.49386   -22503.237   -16029.383 
  971000    288.10254   -22400.927    109.92371    -22510.85   -4982.3527 
  971200     318.4634   -22382.311     121.5077   -22503.819   -9300.6888 
  971400    261.07643   -22392.449    99.612062   -22492.061   -12427.712 
  971600    285.20667    -22383.52    108.81881   -22492.338    23811.081 
  971800    312.11506   -22364.923    119.08553   -22484.008   -9404.3157 
  972000    300.71287   -22392.813     114.7351   -22507.548    6775.6869 
  972200    285.72793   -22384.644    109.01769   -22493.661    12541.904 
  972400    341.92091   -22370.935    130.45776   -22501.393    9872.4861 
  972600    274.18976   -22393.076    104.61537   -22497.691   -10946.484 
  972800    283.93889   -22386.808    108.33509   -22495.143    8383.9837 
  973000    323.34465   -22368.866    123.37011   -22492.236   -1408.1467 
  973200    308.02123   -22380.419    117.52356   -22497.942    25398.917 
  973400    301.83777    -22397.26    115.16429   -22512.424    9818.9343 
  973600    309.80385   -22376.637     118.2037    -22494.84    9353.2122 
  973800     308.0542   -22371.033    117.53613    -22488.57   -7914.6953 
  974000     290.2756    -22392.32    110.75282   -22503.073    11419.321 
  974200     316.4889    -22382.11    120.75434   -22502.865    13930.583 
  974400    295.22357   -22372.515    112.64069   -22485.156    14706.549 
  974600     244.5745   -22402.399    93.315856   -22495.715    509.52026 
  974800    302.85258   -22373.294    115.55149   -22488.845   -26741.767 
  975000    337.34865   -22362.129    128.71325   -22490.843   -8064.3381 
  975200    261.26157   -22392.653    99.682701   -22492.336    5560.2832 
  975400    291.53967   -22378.521    111.23512   -22489.757     2531.947 
  975600    314.77078   -22372.556     120.0988   -22492.654    14438.213 
  975800    318.99358   -22383.139    121.70999   -22504.849    612.86748 
  976000    309.14173   -22379.267    117.95108   -22497.218   -20232.043 
  976200    320.42537   -22368.848    122.25628   -22491.104    4622.9302 
  976400    293.79422   -22394.888    112.09533   -22506.983    168.97357 
  976600    327.30279   -22377.558    124.88031   -22502.439   -2598.6868 
  976800    318.75942   -22346.539    121.62064   -22468.159   -11250.892 
  977000     302.1154   -22371.716    115.27022   -22486.986   -25910.853 
  977200    298.92622   -22379.149    114.05341   -22493.202   -1400.4958 
  977400    280.00449   -22371.002    106.83395   -22477.835   -28570.366 
  977600     282.9353   -22383.374    107.95218   -22491.326    -2473.387 
  977800     299.1512   -22383.136    114.13925   -22497.276   -5793.2177 
  978000    291.85905   -22363.083    111.35698    -22474.44    9426.3936 
  978200    274.87182    -22381.93    104.87561   -22486.806    12371.712 
  978400    307.59812   -22351.381    117.36212   -22468.743     21472.52 
  978600    297.11412   -22367.134    113.36202   -22480.496    23681.662 
  978800    321.88676   -22376.684    122.81386   -22499.498   -6905.5016 
  979000    346.01221   -22355.732    132.01877   -22487.751    24384.486 
  979200    314.82765   -22374.202     120.1205   -22494.323   -20270.778 
  979400    318.98925    -22382.23    121.70833   -22503.938   -11205.208 
  979600    323.91657    -22374.22    123.58832   -22497.808    25591.952 
  979800    318.27487   -22377.415    121.43577    -22498.85    3523.5154 
  980000     287.9023     -22392.9    109.84731   -22502.747    1575.8804 
  980200    338.13527   -22363.287    129.01338     -22492.3    19329.508 
  980400    262.27806   -22384.625    100.07054   -22484.695   -19688.982 
  980600    312.51874   -22379.383    119.23955   -22498.622    13545.013 
  980800    309.94321   -22377.545    118.25687   -22495.802   -282.98817 
  981000    284.93256   -22394.419    108.71422   -22503.133    2425.0504 
  981200    283.83852   -22377.112     108.2968   -22485.409   -13359.565 
  981400    311.09595   -22372.867     118.6967   -22491.563   -18327.867 
  981600    264.13675   -22398.865    100.77971   -22499.644    19785.086 
  981800    305.48601   -22386.683    116.55626   -22503.239   -19883.175 
  982000    303.87951   -22371.186    115.94331    -22487.13   -7331.1003 
  982200    307.16204   -22392.077    117.19574   -22509.273    6999.5786 
  982400    290.88081   -22390.969    110.98374   -22501.952   -7449.7805 
  982600    295.40244    -22379.16    112.70894   -22491.869    3694.3204 
  982800    302.28571   -22377.515     115.3352    -22492.85   -13598.753 
  983000    273.13963   -22404.767     104.2147   -22508.981   -1221.7376 
  983200     266.1603    -22382.99    101.55178   -22484.542   -16773.637 
  983400    325.05019   -22380.547    124.02085   -22504.568   -21660.113 
  983600    260.90633   -22394.954    99.547164   -22494.501     4597.884 
  983800     296.0214   -22369.566     112.9451   -22482.511   -3024.0133 
  984000    325.02947   -22370.722    124.01294   -22494.735    10181.411 
  984200    270.10511   -22390.848     103.0569   -22493.905    1423.8661 
  984400    314.34226   -22380.987    119.93531   -22500.922   -15129.385 
  984600    311.68909   -22382.855    118.92301   -22501.778   -1338.8333 
  984800    282.47864   -22386.642    107.77794    -22494.42   -2258.5219 
  985000    289.31364   -22372.328    110.38579   -22482.714   -19917.037 
  985200     268.6278   -22400.575    102.49324   -22503.068    11055.071 
  985400     316.9752   -22374.767    120.93989   -22495.707    7992.7912 
  985600    336.05809   -22382.879    128.22084     -22511.1    650.39891 
  985800    275.74559   -22390.716    105.20899   -22495.925    14436.043 
  986000    331.41909   -22364.677    126.45086   -22491.128   -6424.0949 
  986200    284.79219   -22387.203    108.66066   -22495.863   -13426.297 
  986400    322.84537   -22378.308    123.17961   -22501.487    19.708806 
  986600    328.72891   -22361.094    125.42444   -22486.519    14123.774 
  986800    273.94524   -22382.847    104.52208    -22487.37    4151.7175 
  987000    296.52087   -22366.773    113.13567   -22479.908    10950.378 
  987200    288.70748   -22364.367    110.15451   -22474.522   -12466.057 
  987400     280.6076   -22382.176    107.06406    -22489.24    24632.668 
  987600    316.35544   -22359.862    120.70342   -22480.565   -797.70962 
  987800    322.43202   -22363.704     123.0219   -22486.725    15721.791 
  988000     288.6348   -22384.523    110.12679    -22494.65   -686.46926 
  988200    323.83727   -22367.142    123.55807     -22490.7   -5340.3743 
  988400    329.85504   -22362.576    125.85411    -22488.43    5207.0273 
  988600    329.49912   -22376.802    125.71831   -22502.521   -15859.626 
  988800     319.0778   -22373.522    121.74212   -22495.264    13865.793 
  989000    278.49499   -22393.923      106.258   -22500.181   -27652.085 
  989200    298.85882   -22382.883     114.0277   -22496.911    22626.452 
  989400    314.69009   -22367.135    120.06802   -22487.203     -11786.8 
  989600    262.78785   -22390.749    100.26505   -22491.014   -909.96392 
  989800    284.39348   -22380.138    108.50854   -22488.646    3371.3651 
  990000     266.5955   -22380.517    101.71783   -22482.234     27607.52 
  990200    258.14954    -22405.83    98.495325   -22504.326   -6005.6668 
  990400    302.36687   -22384.739    115.36617   -22500.105    34005.694 
  990600    304.09843   -22374.479    116.02683   -22490.506    10378.015 
  990800    281.27275   -22399.642    107.31784    -22506.96   -605.53326 
  991000     285.6458   -22384.989    108.98635   -22493.975    -15767.05 
  991200    321.02925   -22375.426    122.48668   -22497.912   -11125.225 
  991400    275.82983    -22396.92    105.24113   -22502.161    9375.0357 
  991600     299.9097   -22367.036    114.42865   -22481.464    15182.719 
  991800     296.3527   -22381.621     113.0715   -22494.692   -1879.1052 
  992000    278.31272   -22385.953    106.18846   -22492.142    15708.352 
  992200    321.21831   -22354.092    122.55882   -22476.651    3991.7785 
  992400    309.65314    -22378.78     118.1462   -22496.926    3281.3168 
  992600    298.52706   -22384.667    113.90111   -22498.568   -30342.532 
  992800    333.50221   -22368.011    127.24566   -22495.257    12815.389 
  993000    336.29407   -22370.123    128.31088   -22498.434    9308.8223 
  993200     248.8075   -22386.964    94.930932   -22481.895    15424.745 
  993400    312.28948   -22368.948    119.15208     -22488.1   -23968.941 
  993600      316.787   -22373.157    120.86808   -22494.025    6323.5277 
  993800    261.41896    -22399.95    99.742753   -22499.693   -9256.7377 
  994000    319.60366   -22375.952    121.94276   -22497.895    19353.123 
  994200    277.06675   -22381.587    105.71307     -22487.3    21766.714 
  994400    262.62529   -22401.631    100.20302   -22501.834    -5097.657 
  994600    311.40105   -22378.967    118.81311    -22497.78    7231.3857 
  994800    334.40854   -22372.863    127.59147   -22500.454   -6726.2776 
  995000    263.27341   -22404.459    100.45031   -22504.909    16698.718 
  995200    293.90293   -22388.672    112.13681   -22500.809   -10488.811 
  995400    296.47025   -22375.198    113.11635   -22488.314   -17768.764 
  995600    265.58768   -22396.658     101.3333   -22497.991    11044.357 
  995800    291.37363   -22390.592    111.17177   -22501.763    3149.9297 
  996000    299.52073    -22376.22    114.28024     -22490.5   -11998.488 
  996200    297.95047   -22374.288    113.68112   -22487.969    3846.5352 
  996400    344.47958   -22351.781    131.43401   -22483.215   -13225.638 
  996600    303.19574   -22381.052    115.68242   -22496.734   -10707.413 
  996800     312.3129   -22380.845    119.16101   -22500.006   -9442.9706 
  997000    335.88596   -22374.543    128.15517   -22502.698   -10908.846 
  997200    310.28802   -22397.187    118.38843   -22515.576    27023.611 
  997400     278.2598   -22379.654    106.16827   -22485.822    917.88725 
  997600    282.65277   -22375.831    107.84438   -22483.675   -84.787697 
  997800    288.30483   -22393.393    110.00089   -22503.394     2978.342 
  998000    258.49638   -22392.943    98.627663   -22491.571   -20847.562 
  998200    329.19613   -22368.022    125.60271   -22493.625    -8964.686 
  998400    269.50961   -22391.882    102.82969   -22494.711    14602.851 
  998600    289.18027   -22386.948    110.33491   -22497.283    8034.2213 
  998800    299.05003   -22380.545    114.10065   -22494.646   -4950.3437 
  999000    324.60733   -22362.016    123.85188   -22485.868   -30103.219 
  999200    330.41887   -22379.444    126.06924   -22505.513   -12962.512 
  999400    296.01576   -22381.531    112.94295   -22494.474   -6267.9414 
  999600    321.61963   -22357.844    122.71194   -22480.556    21407.341 
  999800    332.31524   -22360.892    126.79278   -22487.684    23553.291 
 1000000    274.87681   -22386.509    104.87751   -22491.386   -20691.782 
Loop time of 14222.9 on 8 procs for 1000000 steps with 129 atoms

Performance: 1.519 ns/day, 15.803 hours/ns, 70.309 timesteps/s
98.9% CPU use with 8 MPI tasks x no OpenMP threads

MPI task timing breakdown:
Section |  min time  |  avg time  |  max time  |%varavg| %total
---------------------------------------------------------------
Pair    | 10368      | 11590      | 12135      | 606.0 | 81.49
Neigh   | 1.7708     | 1.841      | 1.917      |   4.4 |  0.01
Comm    | 176.37     | 720.96     | 1943.1     |2430.4 |  5.07
Output  | 0.30641    | 0.33883    | 0.48343    |   9.5 |  0.00
Modify  | 1896.7     | 1897.8     | 1899.3     |   2.3 | 13.34
Other   |            | 12.19      |            |       |  0.09

Nlocal:    16.125 ave 36 max 4 min
Histogram: 2 2 1 1 0 0 0 0 0 2
Nghost:    540.375 ave 560 max 517 min
Histogram: 1 0 1 0 0 3 0 2 0 1
Neighs:    1086.62 ave 2289 max 312 min
Histogram: 1 2 2 1 0 0 0 0 0 2

Total # of neighbors = 8693
Ave neighs/atom = 67.3876
Neighbor list builds = 850
Dangerous builds = 0

Please see the log.cite file for references relevant to this simulation

Total wall time: 3:57:40
