ITEM: TIMESTEP
0
ITEM: NUMBER OF ATOMS
58
ITEM: BOX BOUNDS pp pp pp
0.0000000000000000e+00 3.2808000000000000e+01
0.0000000000000000e+00 1.7780000000000001e+01
0.0000000000000000e+00 2.4729999999999999e+00
ITEM: ATOMS id type x y z 
13 1 7.043 0.849 2.464 
29 1 7.397 1.432 1.228 
37 1 8.035 2.733 1.228 
57 2 6.073 1.796 2.407 
58 3 5.097 1.796 2.407 
1 1 6.173 17.398 2.464 
5 1 5.371 17.398 1.228 
9 1 3.973 17.398 1.228 
16 1 7.043 16.167 2.464 
32 1 7.397 15.584 1.228 
40 1 8.035 14.283 1.228 
45 1 3.236 17.398 2.464 
49 1 1.81 17.398 2.464 
53 1 1.083 17.398 1.228 
4 1 10.968 8.508 2.464 
8 1 11.771 8.508 1.228 
12 1 13.168 8.508 1.228 
18 1 10.098 7.277 2.464 
21 1 8.308 3.392 2.464 
26 1 8.833 4.734 2.464 
34 1 9.745 6.694 1.228 
42 1 9.106 5.393 1.228 
48 1 13.906 8.508 2.464 
52 1 15.331 8.508 2.464 
56 1 16.058 8.508 1.228 
19 1 10.098 9.739 2.464 
24 1 8.308 13.624 2.464 
27 1 8.833 12.282 2.464 
35 1 9.745 10.322 1.228 
43 1 9.106 11.623 1.228 
3 1 22.577 8.508 2.464 
7 1 21.775 8.508 1.228 
11 1 20.377 8.508 1.228 
20 1 23.447 7.277 2.464 
36 1 23.801 6.694 1.228 
44 1 24.439 5.393 1.228 
47 1 19.64 8.508 2.464 
51 1 18.214 8.508 2.464 
55 1 17.487 8.508 1.228 
17 1 23.447 9.739 2.464 
33 1 23.801 10.322 1.228 
41 1 24.439 11.623 1.228 
15 1 26.502 0.849 2.464 
23 1 25.237 3.392 2.464 
28 1 24.712 4.734 2.464 
31 1 26.149 1.432 1.228 
39 1 25.511 2.733 1.228 
2 1 27.373 17.398 2.464 
6 1 28.175 17.398 1.228 
10 1 29.572 17.398 1.228 
14 1 26.502 16.167 2.464 
22 1 25.237 13.624 2.464 
25 1 24.712 12.282 2.464 
30 1 26.149 15.584 1.228 
38 1 25.511 14.283 1.228 
46 1 30.31 17.398 2.464 
50 1 31.735 17.398 2.464 
54 1 32.462 17.398 1.228 
ITEM: TIMESTEP
10
ITEM: NUMBER OF ATOMS
58
ITEM: BOX BOUNDS pp pp pp
0.0000000000000000e+00 3.2808000000000000e+01
0.0000000000000000e+00 1.7780000000000001e+01
0.0000000000000000e+00 2.4729999999999999e+00
ITEM: ATOMS id type x y z 
13 1 7.01054 0.868954 2.45727 
29 1 7.53899 1.4046 1.21897 
37 1 8.04765 2.73352 1.22663 
57 2 6.00517 1.7918 2.42538 
58 3 5.05681 1.82377 2.40742 
1 1 6.15978 17.365 2.46371 
5 1 5.3621 17.389 1.22708 
9 1 3.96422 17.3973 1.22763 
16 1 7.05344 16.1705 2.46427 
32 1 7.40688 15.5769 1.22776 
40 1 8.03931 14.2791 1.22775 
45 1 3.22744 17.3981 2.46421 
49 1 1.80167 17.3983 2.46425 
53 1 1.0777 17.3981 1.22774 
4 1 10.9761 8.51285 2.46426 
8 1 11.7761 8.50911 1.22774 
12 1 13.1717 8.50797 1.22775 
18 1 10.0996 7.28387 2.46425 
21 1 8.31531 3.40953 2.46367 
26 1 8.8342 4.74101 2.46425 
34 1 9.74642 6.70295 1.22774 
42 1 9.10724 5.40208 1.22775 
48 1 13.9074 8.50798 2.46426 
52 1 15.333 8.508 2.46426 
56 1 16.0595 8.508 1.22774 
19 1 10.0979 9.73756 2.46425 
24 1 8.31152 13.6165 2.46426 
27 1 8.8342 12.2782 2.46425 
35 1 9.7446 10.3187 1.22775 
43 1 9.10756 11.6168 1.22774 
3 1 22.5773 8.508 2.46426 
7 1 21.7752 8.508 1.22774 
11 1 20.3785 8.508 1.22775 
20 1 23.447 7.27671 2.46425 
36 1 23.8007 6.69395 1.22775 
44 1 24.4382 5.39296 1.22774 
47 1 19.6411 8.508 2.46426 
51 1 18.2157 8.508 2.46426 
55 1 17.4904 8.508 1.22774 
17 1 23.447 9.73929 2.46425 
33 1 23.8007 10.322 1.22775 
41 1 24.4382 11.623 1.22774 
15 1 26.5011 0.849849 2.46425 
23 1 25.2373 3.39284 2.46425 
28 1 24.7116 4.73374 2.46425 
31 1 26.148 1.43375 1.22775 
39 1 25.5111 2.73395 1.22774 
2 1 27.3685 17.398 2.46426 
6 1 28.1725 17.398 1.22773 
10 1 29.5677 17.398 1.22775 
14 1 26.5011 16.1662 2.46425 
22 1 25.2373 13.6232 2.46425 
25 1 24.7116 12.2823 2.46425 
30 1 26.148 15.5823 1.22775 
38 1 25.5111 14.2821 1.22774 
46 1 30.3038 17.398 2.46426 
50 1 31.7306 17.398 2.46426 
54 1 32.4557 17.398 1.22774 
ITEM: TIMESTEP
20
ITEM: NUMBER OF ATOMS
58
ITEM: BOX BOUNDS pp pp pp
0.0000000000000000e+00 3.2808000000000000e+01
0.0000000000000000e+00 1.7780000000000001e+01
0.0000000000000000e+00 2.4729999999999999e+00
ITEM: ATOMS id type x y z 
13 1 6.97962 0.975186 2.45448 
29 1 7.60252 1.3894 1.21622 
37 1 8.08993 2.72182 1.22382 
57 2 6.00646 1.70597 2.44006 
58 3 5.00493 1.88035 2.40751 
1 1 6.14973 17.346 2.46257 
5 1 5.36614 17.3697 1.22559 
9 1 3.95879 17.3959 1.22728 
16 1 7.06266 16.1876 2.46402 
32 1 7.42127 15.5809 1.22758 
40 1 8.04564 14.2779 1.22771 
45 1 3.22247 17.3991 2.464 
49 1 1.7967 17.3992 2.46424 
53 1 1.07095 17.3984 1.2277 
4 1 10.9751 8.50366 2.46428 
8 1 11.7766 8.50976 1.22772 
12 1 13.1736 8.5081 1.22772 
18 1 10.0974 7.28367 2.46428 
21 1 8.31659 3.40624 2.46158 
26 1 8.83087 4.74903 2.46387 
34 1 9.74167 6.70464 1.22771 
42 1 9.10035 5.39475 1.22748 
48 1 13.913 8.50782 2.46428 
52 1 15.3358 8.50795 2.46428 
56 1 16.062 8.508 1.22772 
19 1 10.0982 9.73224 2.46427 
24 1 8.3137 13.6158 2.46429 
27 1 8.83416 12.2736 2.46428 
35 1 9.74124 10.3115 1.22773 
43 1 9.105 11.6119 1.22772 
3 1 22.5815 8.508 2.46428 
7 1 21.7773 8.508 1.22771 
11 1 20.3817 8.508 1.22772 
20 1 23.4515 7.27769 2.46427 
36 1 23.8035 6.69392 1.22773 
44 1 24.4391 5.3934 1.22772 
47 1 19.646 8.508 2.46428 
51 1 18.2172 8.508 2.46428 
55 1 17.4932 8.508 1.22772 
17 1 23.4515 9.73831 2.46427 
33 1 23.8035 10.3221 1.22773 
41 1 24.4391 11.6226 1.22772 
15 1 26.495 0.849571 2.46427 
23 1 25.2369 3.3945 2.46428 
28 1 24.7117 4.73335 2.46428 
31 1 26.1443 1.43402 1.22773 
39 1 25.5099 2.73395 1.22772 
2 1 27.3646 17.398 2.46428 
6 1 28.167 17.398 1.22772 
10 1 29.5633 17.398 1.22772 
14 1 26.495 16.1664 2.46427 
22 1 25.2369 13.6215 2.46428 
25 1 24.7117 12.2827 2.46428 
30 1 26.1443 15.582 1.22773 
38 1 25.5099 14.282 1.22772 
46 1 30.2983 17.398 2.46428 
50 1 31.7246 17.398 2.46428 
54 1 32.4496 17.398 1.22772 
ITEM: TIMESTEP
30
ITEM: NUMBER OF ATOMS
58
ITEM: BOX BOUNDS pp pp pp
0.0000000000000000e+00 3.2808000000000000e+01
0.0000000000000000e+00 1.7780000000000001e+01
0.0000000000000000e+00 2.4729999999999999e+00
ITEM: ATOMS id type x y z 
13 1 6.95319 1.00055 2.45507 
29 1 7.58894 1.3908 1.21835 
37 1 8.12436 2.70133 1.2226 
57 2 5.97393 1.63226 2.44282 
58 3 5.02153 1.92189 2.40989 
1 1 6.14925 17.3415 2.46146 
5 1 5.366 17.3609 1.22518 
9 1 3.959 17.3945 1.22689 
16 1 7.07771 16.1924 2.46354 
32 1 7.43024 15.5866 1.22725 
40 1 8.04672 14.2808 1.22771 
45 1 3.22436 17.4003 2.46356 
49 1 1.79889 17.4003 2.46413 
53 1 1.07336 17.3989 1.22768 
4 1 10.9746 8.50801 2.46425 
8 1 11.7781 8.50923 1.22775 
12 1 13.1729 8.50837 1.22776 
18 1 10.097 7.28385 2.4642 
21 1 8.32822 3.40531 2.45958 
26 1 8.82238 4.74581 2.46317 
34 1 9.73733 6.70339 1.22767 
42 1 9.1015 5.41004 1.22701 
48 1 13.912 8.50779 2.46425 
52 1 15.337 8.50787 2.46424 
56 1 16.0615 8.50798 1.22776 
19 1 10.0964 9.73392 2.46424 
24 1 8.31394 13.6176 2.46422 
27 1 8.83166 12.2764 2.46424 
35 1 9.73735 10.314 1.22775 
43 1 9.10256 11.6136 1.22776 
3 1 22.58 8.508 2.46425 
7 1 21.7774 8.508 1.22775 
11 1 20.3814 8.508 1.22776 
20 1 23.4541 7.28019 2.46425 
36 1 23.8065 6.69671 1.22775 
44 1 24.4405 5.39498 1.22776 
47 1 19.6447 8.508 2.46425 
51 1 18.2179 8.508 2.46424 
55 1 17.4943 8.50801 1.22776 
17 1 23.4541 9.73581 2.46425 
33 1 23.8065 10.3193 1.22775 
41 1 24.4405 11.621 1.22776 
15 1 26.4917 0.84644 2.46425 
23 1 25.2363 3.39423 2.46424 
28 1 24.712 4.73463 2.46424 
31 1 26.1406 1.4312 1.22775 
39 1 25.5077 2.73391 1.22776 
2 1 27.3652 17.398 2.46425 
6 1 28.1676 17.398 1.22775 
10 1 29.5638 17.398 1.22776 
14 1 26.4917 16.1696 2.46425 
22 1 25.2363 13.6218 2.46424 
25 1 24.712 12.2814 2.46424 
30 1 26.1406 15.5848 1.22775 
38 1 25.5077 14.2821 1.22776 
46 1 30.3007 17.398 2.46425 
50 1 31.7261 17.398 2.46424 
54 1 32.4513 17.398 1.22775 
ITEM: TIMESTEP
40
ITEM: NUMBER OF ATOMS
58
ITEM: BOX BOUNDS pp pp pp
0.0000000000000000e+00 3.2808000000000000e+01
0.0000000000000000e+00 1.7780000000000001e+01
0.0000000000000000e+00 2.4729999999999999e+00
ITEM: ATOMS id type x y z 
13 1 6.95761 0.985304 2.45584 
29 1 7.57628 1.39202 1.21887 
37 1 8.1375 2.6974 1.22222 
57 2 5.94503 1.60324 2.44398 
58 3 5.01539 1.95687 2.4122 
1 1 6.14832 17.3373 2.46145 
5 1 5.36468 17.3533 1.22498 
9 1 3.95854 17.3933 1.22648 
16 1 7.08967 16.1984 2.46316 
32 1 7.44093 15.5926 1.22683 
40 1 8.04958 14.2827 1.22756 
45 1 3.22359 17.401 2.46319 
49 1 1.79856 17.4015 2.46399 
53 1 1.07237 17.3995 1.22756 
4 1 10.977 8.51073 2.46424 
8 1 11.779 8.51058 1.22774 
12 1 13.1751 8.5083 1.22775 
18 1 10.0972 7.28743 2.46407 
21 1 8.34959 3.39619 2.45929 
26 1 8.82141 4.74896 2.4625 
34 1 9.73718 6.70742 1.22748 
42 1 9.09466 5.41177 1.22632 
48 1 13.9117 8.5079 2.46425 
52 1 15.3379 8.50783 2.46425 
56 1 16.0635 8.50794 1.22775 
19 1 10.0957 9.73409 2.46425 
24 1 8.31389 13.6188 2.46413 
27 1 8.83062 12.2758 2.46424 
35 1 9.73679 10.3136 1.22775 
43 1 9.10057 11.6142 1.22774 
3 1 22.5803 8.508 2.46425 
7 1 21.778 8.508 1.22775 
11 1 20.3818 8.508 1.22775 
20 1 23.4544 7.28003 2.46425 
36 1 23.8085 6.69736 1.22775 
44 1 24.441 5.39545 1.22775 
47 1 19.6453 8.508 2.46425 
51 1 18.2192 8.50801 2.46425 
55 1 17.494 8.50801 1.22775 
17 1 23.4544 9.73597 2.46425 
33 1 23.8085 10.3186 1.22775 
41 1 24.441 11.6206 1.22775 
15 1 26.4907 0.847099 2.46425 
23 1 25.2358 3.39426 2.46425 
28 1 24.7126 4.73476 2.46425 
31 1 26.1382 1.43047 1.22775 
39 1 25.5071 2.73342 1.22775 
2 1 27.3635 17.398 2.46425 
6 1 28.1656 17.398 1.22775 
10 1 29.5622 17.398 1.22775 
14 1 26.4907 16.1689 2.46425 
22 1 25.2358 13.6217 2.46425 
25 1 24.7126 12.2812 2.46425 
30 1 26.1382 15.5855 1.22775 
38 1 25.5071 14.2826 1.22775 
46 1 30.299 17.398 2.46425 
50 1 31.7248 17.3979 2.46424 
54 1 32.4508 17.398 1.22772 
ITEM: TIMESTEP
50
ITEM: NUMBER OF ATOMS
58
ITEM: BOX BOUNDS pp pp pp
0.0000000000000000e+00 3.2808000000000000e+01
0.0000000000000000e+00 1.7780000000000001e+01
0.0000000000000000e+00 2.4729999999999999e+00
ITEM: ATOMS id type x y z 
13 1 6.95032 0.988305 2.45621 
29 1 7.57011 1.39759 1.21924 
37 1 8.14524 2.69537 1.22215 
57 2 5.93626 1.58846 2.44418 
58 3 5.01459 1.97499 2.41398 
1 1 6.14641 17.3321 2.46144 
5 1 5.36418 17.3468 1.22498 
9 1 3.95786 17.3921 1.22631 
16 1 7.09621 16.2012 2.46298 
32 1 7.44971 15.5954 1.22665 
40 1 8.05266 14.2837 1.22744 
45 1 3.22305 17.4015 2.46299 
49 1 1.79771 17.4025 2.46386 
53 1 1.07176 17.4001 1.22744 
4 1 10.977 8.51064 2.4642 
8 1 11.7787 8.51087 1.22772 
12 1 13.1746 8.50844 1.22775 
18 1 10.0968 7.28684 2.46389 
21 1 8.36228 3.39271 2.45914 
26 1 8.82283 4.7479 2.46213 
34 1 9.73538 6.70777 1.22729 
42 1 9.09181 5.41346 1.22594 
48 1 13.9114 8.50788 2.46425 
52 1 15.3378 8.5078 2.46425 
56 1 16.0633 8.50791 1.22775 
19 1 10.0959 9.73409 2.46425 
24 1 8.3147 13.6183 2.46402 
27 1 8.82993 12.2747 2.46421 
35 1 9.73652 10.3135 1.22774 
43 1 9.10005 11.6132 1.22772 
3 1 22.5803 8.508 2.46425 
7 1 21.7781 8.508 1.22775 
11 1 20.3818 8.508 1.22775 
20 1 23.4551 7.2805 2.46425 
36 1 23.8094 6.69799 1.22775 
44 1 24.4418 5.39594 1.22775 
47 1 19.6453 8.508 2.46425 
51 1 18.2188 8.50801 2.46425 
55 1 17.4933 8.50801 1.22775 
17 1 23.4551 9.7355 2.46425 
33 1 23.8094 10.318 1.22775 
41 1 24.4418 11.6201 1.22775 
15 1 26.4897 0.846499 2.46425 
23 1 25.2356 3.39399 2.46425 
28 1 24.7129 4.735 2.46425 
31 1 26.137 1.4299 1.22775 
39 1 25.5062 2.73317 1.22775 
2 1 27.363 17.398 2.46425 
6 1 28.1654 17.398 1.22775 
10 1 29.5616 17.398 1.22774 
14 1 26.4897 16.1695 2.46425 
22 1 25.2356 13.622 2.46425 
25 1 24.7129 12.281 2.46425 
30 1 26.137 15.5861 1.22775 
38 1 25.5062 14.2828 1.22775 
46 1 30.2984 17.3979 2.46425 
50 1 31.7243 17.3979 2.46421 
54 1 32.4501 17.3981 1.22768 
ITEM: TIMESTEP
60
ITEM: NUMBER OF ATOMS
58
ITEM: BOX BOUNDS pp pp pp
0.0000000000000000e+00 3.2808000000000000e+01
0.0000000000000000e+00 1.7780000000000001e+01
0.0000000000000000e+00 2.4729999999999999e+00
ITEM: ATOMS id type x y z 
13 1 6.94312 0.989522 2.45648 
29 1 7.56169 1.40339 1.21958 
37 1 8.15385 2.69198 1.2221 
57 2 5.92412 1.57891 2.44444 
58 3 5.01433 1.99356 2.4163 
1 1 6.14483 17.3266 2.46141 
5 1 5.36355 17.3385 1.22496 
9 1 3.95695 17.3905 1.22613 
16 1 7.10425 16.2046 2.4628 
32 1 7.45995 15.5993 1.22646 
40 1 8.05707 14.285 1.22729 
45 1 3.22233 17.4021 2.46281 
49 1 1.79687 17.4038 2.46371 
53 1 1.07115 17.401 1.2273 
4 1 10.9767 8.51025 2.46414 
8 1 11.7785 8.51077 1.22767 
12 1 13.1743 8.5086 1.22774 
18 1 10.096 7.2866 2.46366 
21 1 8.37605 3.3881 2.45902 
26 1 8.82531 4.7462 2.46174 
34 1 9.73277 6.70806 1.22704 
42 1 9.08925 5.41463 1.22555 
48 1 13.9117 8.50791 2.46424 
52 1 15.3373 8.50775 2.46425 
56 1 16.0631 8.50787 1.22775 
19 1 10.096 9.73384 2.46423 
24 1 8.31589 13.6183 2.46388 
27 1 8.82886 12.2735 2.46416 
35 1 9.73636 10.3128 1.22773 
43 1 9.09906 11.6121 1.22768 
3 1 22.5807 8.508 2.46425 
7 1 21.7782 8.508 1.22775 
11 1 20.382 8.508 1.22775 
20 1 23.4559 7.28086 2.46425 
36 1 23.8105 6.69857 1.22775 
44 1 24.4427 5.39658 1.22775 
47 1 19.6459 8.50801 2.46425 
51 1 18.2186 8.50801 2.46425 
55 1 17.4933 8.508 1.22775 
17 1 23.4559 9.73514 2.46425 
33 1 23.8105 10.3174 1.22775 
41 1 24.4427 11.6194 1.22775 
15 1 26.4884 0.846138 2.46425 
23 1 25.235 3.3939 2.46425 
28 1 24.7134 4.73547 2.46425 
31 1 26.1354 1.42939 1.22775 
39 1 25.505 2.73301 1.22775 
2 1 27.3623 17.398 2.46425 
6 1 28.1646 17.398 1.22775 
10 1 29.5609 17.398 1.22774 
14 1 26.4884 16.1699 2.46425 
22 1 25.235 13.6221 2.46425 
25 1 24.7134 12.2805 2.46425 
30 1 26.1354 15.5866 1.22775 
38 1 25.505 14.283 1.22775 
46 1 30.2978 17.3979 2.46423 
50 1 31.7236 17.3978 2.46416 
54 1 32.4494 17.3982 1.22763 
ITEM: TIMESTEP
70
ITEM: NUMBER OF ATOMS
58
ITEM: BOX BOUNDS pp pp pp
0.0000000000000000e+00 3.2808000000000000e+01
0.0000000000000000e+00 1.7780000000000001e+01
0.0000000000000000e+00 2.4729999999999999e+00
ITEM: ATOMS id type x y z 
13 1 6.91754 0.9961 2.45693 
29 1 7.52861 1.41959 1.2203 
37 1 8.18128 2.67938 1.22192 
57 2 5.88603 1.56218 2.44619 
58 3 5.01132 2.05215 2.4247 
1 1 6.14069 17.3056 2.46127 
5 1 5.36181 17.3074 1.22477 
9 1 3.95503 17.3832 1.22559 
16 1 7.13232 16.2149 2.46227 
32 1 7.49606 15.613 1.22588 
40 1 8.07457 14.2904 1.22676 
45 1 3.22064 17.4036 2.46226 
49 1 1.79521 17.4091 2.46317 
53 1 1.06903 17.4049 1.22678 
4 1 10.9757 8.50719 2.46385 
8 1 11.7776 8.5088 1.22742 
12 1 13.1738 8.50902 1.22766 
18 1 10.0921 7.28627 2.46278 
21 1 8.42116 3.37045 2.45873 
26 1 8.8377 4.73989 2.46055 
34 1 9.7245 6.71084 1.22608 
42 1 9.08325 5.41488 1.2243 
48 1 13.9109 8.50822 2.46419 
52 1 15.337 8.50762 2.46424 
56 1 16.0629 8.50771 1.22774 
19 1 10.0965 9.73257 2.46413 
24 1 8.32157 13.6194 2.46337 
27 1 8.8243 12.2709 2.46393 
35 1 9.73573 10.3112 1.22763 
43 1 9.09463 11.6097 1.22748 
3 1 22.5799 8.508 2.46425 
7 1 21.7781 8.508 1.22775 
11 1 20.3816 8.50801 1.22775 
20 1 23.4577 7.28243 2.46425 
36 1 23.8139 6.70114 1.22775 
44 1 24.4462 5.39847 1.22775 
47 1 19.645 8.50802 2.46425 
51 1 18.2186 8.50802 2.46425 
55 1 17.4931 8.50796 1.22775 
17 1 23.4577 9.73357 2.46425 
33 1 23.8139 10.3149 1.22775 
41 1 24.4462 11.6175 1.22775 
15 1 26.484 0.84494 2.46425 
23 1 25.2328 3.39377 2.46425 
28 1 24.7153 4.737 2.46425 
31 1 26.1299 1.4277 1.22775 
39 1 25.5009 2.73202 1.22775 
2 1 27.3598 17.398 2.46424 
6 1 28.1618 17.398 1.22773 
10 1 29.5584 17.3978 1.22768 
14 1 26.484 16.1711 2.46425 
22 1 25.2328 13.6222 2.46425 
25 1 24.7153 12.279 2.46425 
30 1 26.1299 15.5883 1.22775 
38 1 25.5009 14.284 1.22775 
46 1 30.2953 17.3976 2.46417 
50 1 31.7211 17.3976 2.46394 
54 1 32.4473 17.3989 1.22737 
ITEM: TIMESTEP
80
ITEM: NUMBER OF ATOMS
58
ITEM: BOX BOUNDS pp pp pp
0.0000000000000000e+00 3.2808000000000000e+01
0.0000000000000000e+00 1.7780000000000001e+01
0.0000000000000000e+00 2.4729999999999999e+00
ITEM: ATOMS id type x y z 
13 1 6.90992 1.00164 2.45675 
29 1 7.52202 1.42044 1.21997 
37 1 8.18272 2.67744 1.22173 
57 2 5.88255 1.57204 2.44884 
58 3 5.00773 2.05863 2.42557 
1 1 6.14038 17.3013 2.46113 
5 1 5.3618 17.301 1.22459 
9 1 3.95446 17.3799 1.22552 
16 1 7.13716 16.2157 2.46222 
32 1 7.50264 15.6151 1.22582 
40 1 8.08043 14.2923 1.22666 
45 1 3.22067 17.4026 2.46223 
49 1 1.79525 17.4109 2.46308 
53 1 1.06901 17.4067 1.22667 
4 1 10.9751 8.50601 2.4637 
8 1 11.7771 8.50656 1.22728 
12 1 13.1723 8.5087 1.22759 
18 1 10.0901 7.28636 2.46257 
21 1 8.42551 3.36664 2.45868 
26 1 8.84465 4.73664 2.4605 
34 1 9.72388 6.7106 1.22586 
42 1 9.08796 5.41092 1.22422 
48 1 13.9099 8.50848 2.46413 
52 1 15.3367 8.50775 2.46423 
56 1 16.0622 8.50767 1.22772 
19 1 10.097 9.73239 2.46402 
24 1 8.32552 13.6203 2.46328 
27 1 8.82372 12.271 2.46382 
35 1 9.73597 10.3115 1.22752 
43 1 9.09406 11.6086 1.22735 
3 1 22.5791 8.508 2.46425 
7 1 21.7774 8.508 1.22775 
11 1 20.3806 8.50801 1.22774 
20 1 23.4571 7.28243 2.46425 
36 1 23.8138 6.70145 1.22775 
44 1 24.4467 5.39902 1.22774 
47 1 19.6446 8.50803 2.46426 
51 1 18.2178 8.50801 2.46426 
55 1 17.4925 8.50791 1.22774 
17 1 23.4571 9.73358 2.46425 
33 1 23.8138 10.3146 1.22775 
41 1 24.4467 11.617 1.22774 
15 1 26.4839 0.84483 2.46425 
23 1 25.2322 3.39379 2.46426 
28 1 24.7157 4.7376 2.46426 
31 1 26.1294 1.42735 1.22774 
39 1 25.5 2.73226 1.22774 
2 1 27.3596 17.398 2.46423 
6 1 28.1617 17.398 1.22772 
10 1 29.5582 17.3977 1.22763 
14 1 26.4839 16.1712 2.46425 
22 1 25.2322 13.6222 2.46426 
25 1 24.7157 12.2784 2.46426 
30 1 26.1294 15.5886 1.22774 
38 1 25.5 14.2837 1.22774 
46 1 30.2955 17.3974 2.46411 
50 1 31.721 17.3977 2.46384 
54 1 32.4473 17.3995 1.22726 
ITEM: TIMESTEP
90
ITEM: NUMBER OF ATOMS
58
ITEM: BOX BOUNDS pp pp pp
0.0000000000000000e+00 3.2808000000000000e+01
0.0000000000000000e+00 1.7780000000000001e+01
0.0000000000000000e+00 2.4729999999999999e+00
ITEM: ATOMS id type x y z 
13 1 6.90299 1.00131 2.45687 
29 1 7.52288 1.42654 1.22016 
37 1 8.18202 2.67434 1.22184 
57 2 5.87893 1.57575 2.4495 
58 3 5.00525 2.06367 2.42644 
1 1 6.14015 17.2994 2.46099 
5 1 5.36188 17.2982 1.22463 
9 1 3.95486 17.3779 1.22552 
16 1 7.13932 16.2175 2.46212 
32 1 7.50653 15.6165 1.22579 
40 1 8.08412 14.2931 1.22661 
45 1 3.22056 17.4019 2.46211 
49 1 1.79494 17.4119 2.46301 
53 1 1.06877 17.4078 1.22663 
4 1 10.974 8.50508 2.46361 
8 1 11.7751 8.50558 1.22721 
12 1 13.1728 8.50843 1.22755 
18 1 10.0885 7.28542 2.46244 
21 1 8.42885 3.36631 2.45848 
26 1 8.84813 4.73221 2.4604 
34 1 9.7232 6.70882 1.22578 
42 1 9.092 5.41009 1.2242 
48 1 13.9095 8.50856 2.46407 
52 1 15.3351 8.50786 2.4642 
56 1 16.0618 8.50769 1.22772 
19 1 10.0974 9.73257 2.46393 
24 1 8.32782 13.6215 2.4632 
27 1 8.82413 12.2699 2.46373 
35 1 9.73653 10.3108 1.22745 
43 1 9.09347 11.6089 1.22729 
3 1 22.5791 8.508 2.46425 
7 1 21.7775 8.508 1.22775 
11 1 20.3807 8.50802 1.22775 
20 1 23.457 7.28229 2.46425 
36 1 23.8139 6.70121 1.22775 
44 1 24.4471 5.39882 1.22776 
47 1 19.6432 8.50803 2.46424 
51 1 18.2178 8.50799 2.46424 
55 1 17.4912 8.50789 1.22775 
17 1 23.457 9.73372 2.46425 
33 1 23.8139 10.3148 1.22775 
41 1 24.4471 11.6172 1.22776 
15 1 26.4837 0.845178 2.46424 
23 1 25.232 3.39357 2.46424 
28 1 24.7161 4.73732 2.46424 
31 1 26.1293 1.42745 1.22775 
39 1 25.5 2.73147 1.22775 
2 1 27.3596 17.398 2.46422 
6 1 28.1613 17.398 1.22771 
10 1 29.5582 17.3976 1.2276 
14 1 26.4838 16.1708 2.46424 
22 1 25.232 13.6224 2.46424 
25 1 24.7161 12.2787 2.46424 
30 1 26.1293 15.5885 1.22775 
38 1 25.5 14.2845 1.22775 
46 1 30.2949 17.3973 2.46406 
50 1 31.721 17.3978 2.46377 
54 1 32.447 17.3999 1.22721 
ITEM: TIMESTEP
100
ITEM: NUMBER OF ATOMS
58
ITEM: BOX BOUNDS pp pp pp
0.0000000000000000e+00 3.2808000000000000e+01
0.0000000000000000e+00 1.7780000000000001e+01
0.0000000000000000e+00 2.4729999999999999e+00
ITEM: ATOMS id type x y z 
13 1 6.8898 1.00565 2.45737 
29 1 7.51109 1.4292 1.22071 
37 1 8.18381 2.66993 1.22195 
57 2 5.86778 1.58462 2.45101 
58 3 4.99742 2.07935 2.42927 
1 1 6.13987 17.2944 2.46086 
5 1 5.36159 17.2884 1.22458 
9 1 3.95463 17.3719 1.22538 
16 1 7.1472 16.2201 2.46191 
32 1 7.51728 15.6215 1.22562 
40 1 8.09494 14.2969 1.22641 
45 1 3.22049 17.3992 2.46191 
49 1 1.79499 17.4148 2.46281 
53 1 1.06827 17.4114 1.22646 
4 1 10.9715 8.50251 2.46335 
8 1 11.7734 8.50304 1.22696 
12 1 13.172 8.50755 1.22739 
18 1 10.086 7.28523 2.46213 
21 1 8.43772 3.36054 2.45842 
26 1 8.86081 4.72433 2.46017 
34 1 9.72343 6.70702 1.22548 
42 1 9.1024 5.4042 1.22399 
48 1 13.9082 8.50854 2.46392 
52 1 15.3332 8.5082 2.46412 
56 1 16.0608 8.50786 1.22767 
19 1 10.0979 9.73286 2.46368 
24 1 8.33539 13.6248 2.46298 
27 1 8.82459 12.2708 2.46349 
35 1 9.73719 10.3105 1.2272 
43 1 9.09262 11.6089 1.22707 
3 1 22.5775 8.50801 2.46424 
7 1 21.7763 8.50801 1.22775 
11 1 20.3803 8.50804 1.22776 
20 1 23.4556 7.28223 2.46424 
36 1 23.8131 6.70091 1.22776 
44 1 24.4474 5.39934 1.22776 
47 1 19.6422 8.50803 2.46424 
51 1 18.217 8.50793 2.46422 
55 1 17.4903 8.50783 1.22774 
17 1 23.4556 9.73378 2.46424 
33 1 23.8131 10.3151 1.22776 
41 1 24.4474 11.6167 1.22776 
15 1 26.4836 0.845575 2.46422 
23 1 25.2314 3.39381 2.46423 
28 1 24.7165 4.73777 2.46424 
31 1 26.129 1.42758 1.22774 
39 1 25.4992 2.73168 1.22776 
2 1 27.3592 17.398 2.46417 
6 1 28.1605 17.3979 1.22766 
10 1 29.5579 17.3972 1.2275 
14 1 26.4836 16.1704 2.46422 
22 1 25.2314 13.6222 2.46423 
25 1 24.7165 12.2782 2.46424 
30 1 26.129 15.5884 1.22774 
38 1 25.4992 14.2843 1.22776 
46 1 30.2949 17.3969 2.46394 
50 1 31.7208 17.3983 2.46359 
54 1 32.4465 17.4016 1.22704 
ITEM: TIMESTEP
110
ITEM: NUMBER OF ATOMS
58
ITEM: BOX BOUNDS pp pp pp
0.0000000000000000e+00 3.2808000000000000e+01
0.0000000000000000e+00 1.7780000000000001e+01
0.0000000000000000e+00 2.4729999999999999e+00
ITEM: ATOMS id type x y z 
13 1 6.85864 1.0175 2.45854 
29 1 7.48211 1.43938 1.22192 
37 1 8.18791 2.66066 1.22199 
57 2 5.84102 1.60623 2.45481 
58 3 4.97774 2.11724 2.43619 
1 1 6.13841 17.2786 2.46081 
5 1 5.36147 17.2648 1.22428 
9 1 3.95273 17.3572 1.22492 
16 1 7.16525 16.2265 2.46151 
32 1 7.54382 15.6313 1.22509 
40 1 8.12043 14.3081 1.22587 
45 1 3.22022 17.3921 2.46158 
49 1 1.79491 17.4214 2.46237 
53 1 1.06826 17.4203 1.22597 
4 1 10.9688 8.50219 2.46271 
8 1 11.7704 8.49773 1.22634 
12 1 13.1675 8.50539 1.22696 
18 1 10.0799 7.28419 2.46142 
21 1 8.45739 3.3417 2.45869 
26 1 8.8929 4.70561 2.45974 
34 1 9.72426 6.70178 1.22472 
42 1 9.1265 5.3843 1.22338 
48 1 13.9048 8.5083 2.46355 
52 1 15.3306 8.50904 2.46395 
56 1 16.0571 8.50836 1.22748 
19 1 10.0994 9.73415 2.46305 
24 1 8.35478 13.6323 2.46247 
27 1 8.82714 12.2723 2.46293 
35 1 9.73787 10.3126 1.22656 
43 1 9.09173 11.6092 1.22646 
3 1 22.5749 8.50801 2.46425 
7 1 21.7739 8.50803 1.22775 
11 1 20.3763 8.50807 1.22773 
20 1 23.4524 7.28153 2.46425 
36 1 23.8104 6.70134 1.22775 
44 1 24.4478 5.40035 1.22774 
47 1 19.6392 8.50802 2.46424 
51 1 18.2134 8.50776 2.46419 
55 1 17.4869 8.50772 1.22766 
17 1 23.4524 9.73448 2.46425 
33 1 23.8104 10.3147 1.22775 
41 1 24.4478 11.6157 1.22774 
15 1 26.4836 0.845917 2.46419 
23 1 25.2302 3.39384 2.46424 
28 1 24.7171 4.73941 2.46425 
31 1 26.1285 1.42817 1.22769 
39 1 25.4975 2.73197 1.22773 
2 1 27.3583 17.398 2.46407 
6 1 28.1603 17.3978 1.22752 
10 1 29.5573 17.3962 1.22721 
14 1 26.4836 16.1701 2.46419 
22 1 25.2302 13.6222 2.46424 
25 1 24.7171 12.2766 2.46425 
30 1 26.1285 15.5878 1.22769 
38 1 25.4975 14.284 1.22773 
46 1 30.2945 17.3959 2.46365 
50 1 31.7203 17.3998 2.46318 
54 1 32.4466 17.406 1.22659 
ITEM: TIMESTEP
120
ITEM: NUMBER OF ATOMS
58
ITEM: BOX BOUNDS pp pp pp
0.0000000000000000e+00 3.2808000000000000e+01
0.0000000000000000e+00 1.7780000000000001e+01
0.0000000000000000e+00 2.4729999999999999e+00
ITEM: ATOMS id type x y z 
13 1 6.85732 1.018 2.45849 
29 1 7.47957 1.43885 1.22186 
37 1 8.18799 2.66092 1.22213 
57 2 5.8399 1.6072 2.45519 
58 3 4.97617 2.11774 2.43638 
1 1 6.13728 17.2781 2.46083 
5 1 5.36146 17.2638 1.22432 
9 1 3.95364 17.3564 1.22494 
16 1 7.16594 16.2268 2.46151 
32 1 7.54479 15.6313 1.2251 
40 1 8.1218 14.3087 1.22583 
45 1 3.21997 17.3914 2.46157 
49 1 1.79456 17.4214 2.46234 
53 1 1.06797 17.4207 1.22595 
4 1 10.9687 8.50235 2.46268 
8 1 11.7703 8.49808 1.22631 
12 1 13.1674 8.50523 1.22692 
18 1 10.0809 7.28389 2.4614 
21 1 8.45812 3.34116 2.4588 
26 1 8.89513 4.70452 2.45976 
34 1 9.72573 6.70065 1.22471 
42 1 9.129 5.3837 1.22342 
48 1 13.9045 8.508 2.46351 
52 1 15.3307 8.50903 2.46391 
56 1 16.0571 8.50849 1.22745 
19 1 10.099 9.73414 2.463 
24 1 8.35629 13.6331 2.46242 
27 1 8.82854 12.2729 2.46288 
35 1 9.73802 10.3128 1.22651 
43 1 9.09252 11.6102 1.22641 
3 1 22.5745 8.508 2.46425 
7 1 21.7733 8.50803 1.22775 
11 1 20.3758 8.50806 1.22773 
20 1 23.4518 7.28156 2.46425 
36 1 23.8097 6.70134 1.22775 
44 1 24.4474 5.40005 1.22774 
47 1 19.6387 8.50799 2.46423 
51 1 18.2131 8.50775 2.46417 
55 1 17.4866 8.50778 1.22764 
17 1 23.4518 9.73445 2.46425 
33 1 23.8097 10.3147 1.22775 
41 1 24.4474 11.616 1.22774 
15 1 26.4838 0.846123 2.46418 
23 1 25.2303 3.39425 2.46424 
28 1 24.7167 4.73941 2.46425 
31 1 26.1288 1.42857 1.22768 
39 1 25.498 2.73213 1.22773 
2 1 27.3582 17.398 2.46405 
6 1 28.1602 17.3977 1.2275 
10 1 29.5571 17.3961 1.22719 
14 1 26.4837 16.1699 2.46418 
22 1 25.2303 13.6218 2.46424 
25 1 24.7167 12.2766 2.46425 
30 1 26.1288 15.5874 1.22768 
38 1 25.498 14.2839 1.22773 
46 1 30.2942 17.3959 2.46363 
50 1 31.7201 17.4003 2.46316 
54 1 32.4464 17.4067 1.22657 
ITEM: TIMESTEP
130
ITEM: NUMBER OF ATOMS
58
ITEM: BOX BOUNDS pp pp pp
0.0000000000000000e+00 3.2808000000000000e+01
0.0000000000000000e+00 1.7780000000000001e+01
0.0000000000000000e+00 2.4729999999999999e+00
ITEM: ATOMS id type x y z 
13 1 6.85602 1.01834 2.45851 
29 1 7.4784 1.4391 1.22189 
37 1 8.18755 2.66027 1.22223 
57 2 5.83875 1.60768 2.45532 
58 3 4.97504 2.11819 2.4366 
1 1 6.13695 17.2782 2.46082 
5 1 5.36097 17.2631 1.22436 
9 1 3.95325 17.3557 1.22495 
16 1 7.16658 16.2271 2.4615 
32 1 7.54528 15.6322 1.2251 
40 1 8.12302 14.3092 1.2258 
45 1 3.21984 17.3909 2.46156 
49 1 1.79442 17.4214 2.46232 
53 1 1.06798 17.421 1.22593 
4 1 10.9685 8.50229 2.46265 
8 1 11.77 8.49835 1.22628 
12 1 13.1671 8.50511 1.2269 
18 1 10.0815 7.28346 2.46138 
21 1 8.45898 3.34153 2.45883 
26 1 8.89662 4.70305 2.45978 
34 1 9.72683 6.69979 1.22471 
42 1 9.1309 5.38306 1.22345 
48 1 13.9044 8.50781 2.46348 
52 1 15.3302 8.50902 2.46388 
56 1 16.0566 8.50857 1.22743 
19 1 10.0986 9.73414 2.46296 
24 1 8.35745 13.6337 2.46239 
27 1 8.82948 12.2736 2.46283 
35 1 9.73799 10.3129 1.22648 
43 1 9.09348 11.6101 1.22637 
3 1 22.5746 8.508 2.46425 
7 1 21.773 8.50803 1.22774 
11 1 20.3759 8.50805 1.22773 
20 1 23.4515 7.28147 2.46425 
36 1 23.8094 6.70106 1.22775 
44 1 24.4468 5.40028 1.22775 
47 1 19.6386 8.50798 2.46422 
51 1 18.2128 8.50776 2.46415 
55 1 17.4864 8.50783 1.22763 
17 1 23.4515 9.73453 2.46425 
33 1 23.8094 10.3149 1.22775 
41 1 24.4468 11.6157 1.22775 
15 1 26.4839 0.846229 2.46417 
23 1 25.2305 3.39418 2.46423 
28 1 24.7165 4.73942 2.46424 
31 1 26.1291 1.4286 1.22768 
39 1 25.4982 2.73244 1.22773 
2 1 27.358 17.398 2.46404 
6 1 28.16 17.3977 1.22749 
10 1 29.557 17.396 1.22717 
14 1 26.4838 16.1698 2.46417 
22 1 25.2305 13.6218 2.46423 
25 1 24.7165 12.2766 2.46424 
30 1 26.1291 15.5874 1.22768 
38 1 25.4982 14.2835 1.22773 
46 1 30.2941 17.3959 2.46361 
50 1 31.72 17.4006 2.46314 
54 1 32.4463 17.4072 1.22655 
ITEM: TIMESTEP
140
ITEM: NUMBER OF ATOMS
58
ITEM: BOX BOUNDS pp pp pp
0.0000000000000000e+00 3.2808000000000000e+01
0.0000000000000000e+00 1.7780000000000001e+01
0.0000000000000000e+00 2.4729999999999999e+00
ITEM: ATOMS id type x y z 
13 1 6.85058 1.0197 2.45868 
29 1 7.47348 1.43999 1.22207 
37 1 8.18627 2.65842 1.22252 
57 2 5.83366 1.60936 2.45576 
58 3 4.97015 2.12019 2.43756 
1 1 6.13617 17.2775 2.46083 
5 1 5.36016 17.2603 1.22443 
9 1 3.95283 17.353 1.22497 
16 1 7.16882 16.2282 2.46148 
32 1 7.54797 15.6345 1.22509 
40 1 8.12762 14.3121 1.22568 
45 1 3.21926 17.3887 2.46155 
49 1 1.79407 17.4215 2.46226 
53 1 1.06766 17.4222 1.22587 
4 1 10.9675 8.50261 2.46254 
8 1 11.7692 8.49954 1.22617 
12 1 13.1662 8.5047 1.22678 
18 1 10.0837 7.28154 2.46134 
21 1 8.46132 3.33954 2.45903 
26 1 8.90331 4.69832 2.45991 
34 1 9.73118 6.69617 1.22469 
42 1 9.13866 5.37979 1.22357 
48 1 13.9037 8.50707 2.46335 
52 1 15.3292 8.50895 2.46378 
56 1 16.0557 8.50884 1.22733 
19 1 10.0971 9.73409 2.46281 
24 1 8.36242 13.6368 2.46225 
27 1 8.83356 12.2764 2.46267 
35 1 9.73765 10.3136 1.22632 
43 1 9.09643 11.6121 1.22621 
3 1 22.5739 8.50798 2.46424 
7 1 21.7718 8.50801 1.22773 
11 1 20.3751 8.508 1.2277 
20 1 23.4502 7.28126 2.46424 
36 1 23.8078 6.70058 1.22775 
44 1 24.4453 5.39994 1.22774 
47 1 19.6377 8.50791 2.46419 
51 1 18.2119 8.5078 2.46409 
55 1 17.4856 8.50803 1.22757 
17 1 23.4502 9.7347 2.46424 
33 1 23.8078 10.3154 1.22775 
41 1 24.4453 11.616 1.22774 
15 1 26.4841 0.8466 2.46413 
23 1 25.2312 3.39474 2.46421 
28 1 24.7155 4.73928 2.46423 
31 1 26.1299 1.4293 1.22765 
39 1 25.4992 2.73325 1.22771 
2 1 27.3577 17.398 2.46399 
6 1 28.1596 17.3975 1.22744 
10 1 29.5568 17.3957 1.22711 
14 1 26.4839 16.1695 2.46413 
22 1 25.2312 13.6212 2.46421 
25 1 24.7155 12.2767 2.46423 
30 1 26.1298 15.5867 1.22765 
38 1 25.4992 14.2827 1.22771 
46 1 30.2936 17.396 2.46354 
50 1 31.7198 17.4023 2.46307 
54 1 32.446 17.4092 1.22649 
ITEM: TIMESTEP
143
ITEM: NUMBER OF ATOMS
58
ITEM: BOX BOUNDS pp pp pp
0.0000000000000000e+00 3.2808000000000000e+01
0.0000000000000000e+00 1.7780000000000001e+01
0.0000000000000000e+00 2.4729999999999999e+00
ITEM: ATOMS id type x y z 
13 1 6.85049 1.01992 2.4587 
29 1 7.47304 1.44021 1.22209 
37 1 8.18642 2.65888 1.22249 
57 2 5.83332 1.60946 2.45579 
58 3 4.9698 2.12032 2.43762 
1 1 6.13687 17.2773 2.46087 
5 1 5.3605 17.26 1.2244 
9 1 3.95252 17.3528 1.22496 
16 1 7.16856 16.2289 2.46149 
32 1 7.54842 15.6344 1.22508 
40 1 8.12805 14.312 1.22567 
45 1 3.21935 17.3885 2.46156 
49 1 1.79369 17.4215 2.46226 
53 1 1.0673 17.4222 1.22586 
4 1 10.9673 8.5029 2.46253 
8 1 11.7692 8.49966 1.22616 
12 1 13.1663 8.50468 1.22677 
18 1 10.0839 7.28154 2.46134 
21 1 8.46121 3.33884 2.45909 
26 1 8.90395 4.69849 2.45992 
34 1 9.73166 6.69641 1.22468 
42 1 9.13854 5.37791 1.22357 
48 1 13.9033 8.50703 2.46335 
52 1 15.3294 8.50894 2.46377 
56 1 16.056 8.50885 1.22732 
19 1 10.097 9.73411 2.4628 
24 1 8.36286 13.6368 2.46225 
27 1 8.83397 12.2764 2.46266 
35 1 9.73763 10.3137 1.22631 
43 1 9.09648 11.6127 1.2262 
3 1 22.5734 8.50798 2.46424 