LAMMPS (3 Mar 2020)
# Alpha
clear
units		real
dimension 3
boundary        p p p
atom_style	charge
newton on
read_data       OH_22.lmp
  orthogonal box = (0 0 0) to (11 11.002 11)
  2 by 2 by 2 MPI processor grid
  reading atoms ...
  50 atoms
  read_data CPU = 0.00903419 secs

timestep 0.25

# ---------- Define Interatomic Potential ---------------------
pair_style      reax/c NULL checkqeq no
pair_coeff      * * ffield.reax C H O
fix             2 all qeq/reax 1 0.0 10.0 1.0e-6 reax/c

#------------ Equilibration of the system -------------------------
reset_timestep 0

dump 1 all custom 10 min.lammpstrj id type x y z

minimize 1.0e-8 1.0e-8 100000 100000
WARNING: Using 'neigh_modify every 1 delay 0 check yes' setting during minimization (../min.cpp:190)
WARNING: Total cutoff < 2*bond cutoff. May need to use an increased neighbor list skin. (../pair_reaxc.cpp:413)
Neighbor list info ...
  update every 1 steps, delay 0 steps, check yes
  max neighbors/atom: 2000, page size: 100000
  master list distance cutoff = 9.5
  ghost atom cutoff = 9.5
  binsize = 4.75, bins = 3 3 3
  2 neighbor lists, perpetual/occasional/extra = 2 0 0
  (1) pair reax/c, perpetual
      attributes: half, newton off, ghost
      pair build: half/bin/newtoff/ghost
      stencil: half/ghost/bin/3d/newtoff
      bin: standard
  (2) fix qeq/reax, perpetual, copy from (1)
      attributes: half, newton off, ghost
      pair build: copy
      stencil: none
      bin: none
Per MPI rank memory allocation (min/avg/max) = 18.9 | 18.99 | 19.12 Mbytes
Step Temp E_pair E_mol TotEng Press 
       0            0   -8628.8933            0   -8628.8933    21640.138 
     177            0   -8764.6126            0   -8764.6126    43544.458 
Loop time of 3.92352 on 8 procs for 177 steps with 50 atoms

99.4% CPU use with 8 MPI tasks x no OpenMP threads

Minimization stats:
  Stopping criterion = energy tolerance
  Energy initial, next-to-last, final = 
        -8628.89325741     -8764.61252278     -8764.61260062
  Force two-norm initial, final = 692.339 32.6182
  Force max component initial, final = 372.201 9.75921
  Final line search alpha, max atom move = 4.36663e-07 4.26148e-06
  Iterations, force evaluations = 177 1490

MPI task timing breakdown:
Section |  min time  |  avg time  |  max time  |%varavg| %total
---------------------------------------------------------------
Pair    | 3.0133     | 3.0454     | 3.0744     |   1.2 | 77.62
Neigh   | 0          | 0          | 0          |   0.0 |  0.00
Comm    | 0.031894   | 0.061072   | 0.093043   |   8.6 |  1.56
Output  | 0.00038157 | 0.00051198 | 0.00078031 |   0.0 |  0.01
Modify  | 0.80744    | 0.80798    | 0.80831    |   0.0 | 20.59
Other   |            | 0.008575   |            |       |  0.22

Nlocal:    6.25 ave 8 max 6 min
Histogram: 7 0 0 0 0 0 0 0 0 1
Nghost:    608 ave 614 max 603 min
Histogram: 3 0 0 0 1 0 0 3 0 1
Neighs:    803.375 ave 1012 max 770 min
Histogram: 7 0 0 0 0 0 0 0 0 1

Total # of neighbors = 6427
Ave neighs/atom = 128.54
Neighbor list builds = 0
Dangerous builds = 0

###
min_style cg
minimize 1.0e-8 1.0e-8 100000 100000
WARNING: Using 'neigh_modify every 1 delay 0 check yes' setting during minimization (../min.cpp:190)
WARNING: Total cutoff < 2*bond cutoff. May need to use an increased neighbor list skin. (../pair_reaxc.cpp:413)
Per MPI rank memory allocation (min/avg/max) = 18.9 | 18.99 | 19.12 Mbytes
Step Temp E_pair E_mol TotEng Press 
     177            0   -8764.6126            0   -8764.6126    43544.458 
     179            0   -8764.6128            0   -8764.6128    43544.528 
Loop time of 0.0934906 on 8 procs for 2 steps with 50 atoms

99.4% CPU use with 8 MPI tasks x no OpenMP threads

Minimization stats:
  Stopping criterion = energy tolerance
  Energy initial, next-to-last, final = 
        -8764.61260062     -8764.61271113     -8764.61277133
  Force two-norm initial, final = 32.6182 29.1997
  Force max component initial, final = 9.75921 9.53921
  Final line search alpha, max atom move = 2.4986e-07 2.38347e-06
  Iterations, force evaluations = 2 37

MPI task timing breakdown:
Section |  min time  |  avg time  |  max time  |%varavg| %total
---------------------------------------------------------------
Pair    | 0.076043   | 0.076954   | 0.077657   |   0.2 | 82.31
Neigh   | 0          | 0          | 0          |   0.0 |  0.00
Comm    | 0.00070702 | 0.0014012  | 0.0023041  |   1.4 |  1.50
Output  | 0          | 0          | 0          |   0.0 |  0.00
Modify  | 0.014892   | 0.014895   | 0.014897   |   0.0 | 15.93
Other   |            | 0.0002407  |            |       |  0.26

Nlocal:    6.25 ave 8 max 6 min
Histogram: 7 0 0 0 0 0 0 0 0 1
Nghost:    606.75 ave 611 max 598 min
Histogram: 1 0 0 0 0 2 0 1 3 1
Neighs:    827.375 ave 1041 max 792 min
Histogram: 7 0 0 0 0 0 0 0 0 1

Total # of neighbors = 6619
Ave neighs/atom = 132.38
Neighbor list builds = 0
Dangerous builds = 0

###
fix 1 all box/relax aniso 0.0
min_style cg
minimize 1.0e-8 1.0e-8 100000 100000
WARNING: Using 'neigh_modify every 1 delay 0 check yes' setting during minimization (../min.cpp:190)
WARNING: Total cutoff < 2*bond cutoff. May need to use an increased neighbor list skin. (../pair_reaxc.cpp:413)
Per MPI rank memory allocation (min/avg/max) = 18.9 | 18.99 | 19.12 Mbytes
Step Temp E_pair E_mol TotEng Press Volume 
     179            0   -8764.6128            0   -8764.6128    43544.528     1331.242 
     504            0   -8771.0478            0   -8771.0478   -1043.5692    1347.9718 
Loop time of 1.40945 on 8 procs for 325 steps with 50 atoms

99.5% CPU use with 8 MPI tasks x no OpenMP threads

Minimization stats:
  Stopping criterion = energy tolerance
  Energy initial, next-to-last, final = 
        -8764.61277133     -8771.04773528     -8771.04775937
  Force two-norm initial, final = 1465.78 44.9998
  Force max component initial, final = 870.778 22.6619
  Final line search alpha, max atom move = 1.99137e-06 4.51282e-05
  Iterations, force evaluations = 325 597

MPI task timing breakdown:
Section |  min time  |  avg time  |  max time  |%varavg| %total
---------------------------------------------------------------
Pair    | 1.1827     | 1.1988     | 1.2089     |   0.8 | 85.06
Neigh   | 0          | 0          | 0          |   0.0 |  0.00
Comm    | 0.010592   | 0.020543   | 0.036569   |   5.8 |  1.46
Output  | 0.00059829 | 0.00072229 | 0.0010265  |   0.0 |  0.05
Modify  | 0.17926    | 0.17929    | 0.17933    |   0.0 | 12.72
Other   |            | 0.01007    |            |       |  0.71

Nlocal:    6.25 ave 8 max 6 min
Histogram: 7 0 0 0 0 0 0 0 0 1
Nghost:    606.75 ave 611 max 598 min
Histogram: 1 0 0 0 0 2 0 1 3 1
Neighs:    827.375 ave 1041 max 792 min
Histogram: 7 0 0 0 0 0 0 0 0 1

Total # of neighbors = 6619
Ave neighs/atom = 132.38
Neighbor list builds = 0
Dangerous builds = 0

unfix 1
###
min_style cg
minimize 1.0e-8 1.0e-8 100000 100000
WARNING: Using 'neigh_modify every 1 delay 0 check yes' setting during minimization (../min.cpp:190)
WARNING: Total cutoff < 2*bond cutoff. May need to use an increased neighbor list skin. (../pair_reaxc.cpp:413)
Per MPI rank memory allocation (min/avg/max) = 18.9 | 18.99 | 19.12 Mbytes
Step Temp E_pair E_mol TotEng Press 
     504            0   -8771.0478            0   -8771.0478   -1043.5692 
     507            0   -8771.0483            0   -8771.0483   -1007.6926 
Loop time of 0.129151 on 8 procs for 3 steps with 50 atoms

99.1% CPU use with 8 MPI tasks x no OpenMP threads

Minimization stats:
  Stopping criterion = energy tolerance
  Energy initial, next-to-last, final = 
        -8771.04775937     -8771.04818099     -8771.04825971
  Force two-norm initial, final = 27.628 24.548
  Force max component initial, final = 7.09155 6.3787
  Final line search alpha, max atom move = 6.38519e-07 4.07292e-06
  Iterations, force evaluations = 3 51

MPI task timing breakdown:
Section |  min time  |  avg time  |  max time  |%varavg| %total
---------------------------------------------------------------
Pair    | 0.10239    | 0.10406    | 0.1056     |   0.3 | 80.57
Neigh   | 0          | 0          | 0          |   0.0 |  0.00
Comm    | 0.0024954  | 0.0040461  | 0.0057256  |   1.4 |  3.13
Output  | 0          | 0          | 0          |   0.0 |  0.00
Modify  | 0.020611   | 0.020626   | 0.020638   |   0.0 | 15.97
Other   |            | 0.0004179  |            |       |  0.32

Nlocal:    6.25 ave 8 max 6 min
Histogram: 7 0 0 0 0 0 0 0 0 1
Nghost:    599.875 ave 614 max 592 min
Histogram: 3 0 0 0 3 1 0 0 0 1
Neighs:    806.625 ave 1021 max 771 min
Histogram: 7 0 0 0 0 0 0 0 0 1

Total # of neighbors = 6453
Ave neighs/atom = 129.06
Neighbor list builds = 0
Dangerous builds = 0

###
fix 1 all box/relax aniso 0.0
min_style cg
minimize 1.0e-8 1.0e-8 100000 100000
WARNING: Using 'neigh_modify every 1 delay 0 check yes' setting during minimization (../min.cpp:190)
WARNING: Total cutoff < 2*bond cutoff. May need to use an increased neighbor list skin. (../pair_reaxc.cpp:413)
Per MPI rank memory allocation (min/avg/max) = 18.9 | 18.99 | 19.12 Mbytes
Step Temp E_pair E_mol TotEng Press Volume 
     507            0   -8771.0483            0   -8771.0483   -1007.6926    1347.9718 
     509            0   -8771.0485            0   -8771.0485     621.1109    1347.9056 
Loop time of 0.0256584 on 8 procs for 2 steps with 50 atoms

99.4% CPU use with 8 MPI tasks x no OpenMP threads

Minimization stats:
  Stopping criterion = energy tolerance
  Energy initial, next-to-last, final = 
        -8771.04825971     -8771.04849115     -8771.04854235
  Force two-norm initial, final = 42.2499 34.9937
  Force max component initial, final = 21.6593 12.6068
  Final line search alpha, max atom move = 2.13308e-07 2.68912e-06
  Iterations, force evaluations = 2 10

MPI task timing breakdown:
Section |  min time  |  avg time  |  max time  |%varavg| %total
---------------------------------------------------------------
Pair    | 0.02152    | 0.021937   | 0.02226    |   0.1 | 85.50
Neigh   | 0          | 0          | 0          |   0.0 |  0.00
Comm    | 0.00019519 | 0.00051986 | 0.00093905 |   0.0 |  2.03
Output  | 0          | 0          | 0          |   0.0 |  0.00
Modify  | 0.0029992  | 0.0030003  | 0.0030023  |   0.0 | 11.69
Other   |            | 0.0002013  |            |       |  0.78

Nlocal:    6.25 ave 8 max 6 min
Histogram: 7 0 0 0 0 0 0 0 0 1
Nghost:    599.875 ave 614 max 592 min
Histogram: 3 0 0 0 3 1 0 0 0 1
Neighs:    806.625 ave 1021 max 771 min
Histogram: 7 0 0 0 0 0 0 0 0 1

Total # of neighbors = 6453
Ave neighs/atom = 129.06
Neighbor list builds = 0
Dangerous builds = 0

unfix 1
###
min_style cg
minimize 1.0e-8 1.0e-8 100000 100000
WARNING: Using 'neigh_modify every 1 delay 0 check yes' setting during minimization (../min.cpp:190)
WARNING: Total cutoff < 2*bond cutoff. May need to use an increased neighbor list skin. (../pair_reaxc.cpp:413)
Per MPI rank memory allocation (min/avg/max) = 18.9 | 18.99 | 19.12 Mbytes
Step Temp E_pair E_mol TotEng Press 
     509            0   -8771.0485            0   -8771.0485     621.1109 
     511            0   -8771.0487            0   -8771.0487    603.12813 
Loop time of 0.0897564 on 8 procs for 2 steps with 50 atoms

99.4% CPU use with 8 MPI tasks x no OpenMP threads

Minimization stats:
  Stopping criterion = energy tolerance
  Energy initial, next-to-last, final = 
        -8771.04854236     -8771.04864304     -8771.04871478
  Force two-norm initial, final = 27.8692 29.4562
  Force max component initial, final = 7.73197 7.65923
  Final line search alpha, max atom move = 2.24406e-07 1.71878e-06
  Iterations, force evaluations = 2 36

MPI task timing breakdown:
Section |  min time  |  avg time  |  max time  |%varavg| %total
---------------------------------------------------------------
Pair    | 0.072839   | 0.074      | 0.075057   |   0.2 | 82.45
Neigh   | 0          | 0          | 0          |   0.0 |  0.00
Comm    | 0.00060404 | 0.0016644  | 0.0028284  |   1.5 |  1.85
Output  | 2.154e-05  | 2.5136e-05 | 3.3312e-05 |   0.0 |  0.03
Modify  | 0.013826   | 0.01383    | 0.013837   |   0.0 | 15.41
Other   |            | 0.0002361  |            |       |  0.26

Nlocal:    6.25 ave 8 max 6 min
Histogram: 7 0 0 0 0 0 0 0 0 1
Nghost:    599.875 ave 614 max 592 min
Histogram: 3 0 0 0 3 1 0 0 0 1
Neighs:    806.625 ave 1021 max 771 min
Histogram: 7 0 0 0 0 0 0 0 0 1

Total # of neighbors = 6453
Ave neighs/atom = 129.06
Neighbor list builds = 0
Dangerous builds = 0

undump 1
#############
#----------- Thermo ------------
reset_timestep 0
thermo  200

thermo_style    custom step temp etotal ke pe press
velocity all create 300 12345 mom yes rot yes
fix 1 all npt temp 300 300 25.0 iso 0.0 0.0 250.0

variable vpe equal pe
variable vtemp equal temp
variable vstep equal step

fix output all print 2500 "${vstep} ${vtemp} ${vpe}" file temp-tpdh-Pt.dat screen no

dump 1 all custom 2500 thermo-tpdh-Pt.lammpstrj id type x y z

run 1000000
WARNING: Total cutoff < 2*bond cutoff. May need to use an increased neighbor list skin. (../pair_reaxc.cpp:413)
Per MPI rank memory allocation (min/avg/max) = 17.77 | 17.86 | 18 Mbytes
Step Temp TotEng KinEng PotEng Press 
       0          300   -8727.2308    43.817908   -8771.0487    2089.1493 
     200    332.86294   -8711.1917    48.617858   -8759.8096    10228.319 
     400     258.7402   -8731.1774    37.791513   -8768.9689   -5987.3604 
     600    247.93609    -8739.732    36.213469   -8775.9455   -23581.962 
     800    362.02579   -8726.3652    52.877375   -8779.2426   -26296.253 
    1000    287.69067   -8739.7753    42.020011   -8781.7953    6059.8814 
    1200    321.08609   -8738.5317    46.897735   -8785.4295   -8868.7866 
    1400     309.4154   -8717.9597    45.193118   -8763.1528    13492.848 
    1600    307.56549   -8727.9469     44.92292   -8772.8698   -1198.4624 
    1800    325.21265   -8737.7565     47.50046   -8785.2569    5420.2006 
    2000    293.85373   -8728.3113    42.920185   -8771.2315     37072.71 
    2200    274.03673   -8733.6301    40.025721   -8773.6558    10473.225 
    2400    300.33431   -8739.2738    43.866737   -8783.1406    19764.165 
    2600    312.08213   -8733.9588     45.58262   -8779.5414   -31906.598 
    2800    389.70276   -8717.5244    56.919866   -8774.4442   -4919.6154 
    3000    303.90881   -8735.5633    44.388827   -8779.9521   -33723.994 
    3200    346.39924   -8734.0175    50.594966   -8784.6125    12036.936 
    3400    391.23679   -8718.3189    57.143925   -8775.4629    25784.297 
    3600    242.10253   -8738.1867    35.361421   -8773.5481   -5546.8647 
    3800    314.21062   -8735.4116    45.893506   -8781.3051   -38849.554 
    4000    296.86702   -8731.4169    43.360306   -8774.7772    17954.767 
    4200    335.81749    -8723.903    49.049399   -8772.9524   -40828.785 
    4400    226.51324    -8741.438    33.084454   -8774.5225    34752.549 
    4600    342.32963   -8728.7153     50.00056   -8778.7158   -17403.413 
    4800     235.3468   -8745.2988    34.374682   -8779.6734   -10378.659 
    5000     332.6708   -8741.7282    48.589795    -8790.318   -7863.2612 
    5200    273.95816   -8736.4322    40.014244   -8776.4464    8802.1165 
    5400    338.97026    -8721.638    49.509892   -8771.1479    41508.608 
    5600    299.56493   -8737.0469    43.754362   -8780.8013    1426.1998 
    5800     297.2686   -8740.1104     43.41896   -8783.5293   -3299.3265 
    6000    352.75556   -8717.3984    51.523368   -8768.9217   -31110.732 
    6200    358.58669   -8724.4592    52.375061   -8776.8343   -19554.126 
    6400    266.95113   -8746.8848      38.9908   -8785.8756    9458.0068 
    6600    313.53356   -8746.9986    45.794615   -8792.7933   -12186.663 
    6800    335.67224   -8733.3961    49.028184   -8782.4243    2161.8433 
    7000    282.71615   -8752.2475    41.293435   -8793.5409   -10218.566 
    7200    298.66441   -8746.5782    43.622831    -8790.201   -29730.133 
    7400    375.67932   -8732.4926    54.871606   -8787.3642    10280.894 
    7600    238.79046   -8743.2157    34.877662   -8778.0933   -12660.922 
    7800    288.44216   -8748.3322    42.129773    -8790.462   -10374.853 
    8000    342.41082   -8736.1024     50.01242   -8786.1148   -3320.3962 
    8200    317.97832   -8742.6758    46.443816   -8789.1196   -3877.1934 
    8400    279.11947   -8749.8191    40.768104   -8790.5872   -15465.217 
    8600     339.0495   -8732.4108    49.521466   -8781.9323   -11126.524 
    8800    365.85966   -8726.1767    53.437349    -8779.614    4991.3966 
    9000    284.11393   -8747.6321    41.497593   -8789.1297    23410.558 
    9200    287.28905   -8744.7485    41.961351   -8786.7098   -8716.3819 
    9400    336.39165   -8731.5275    49.133261   -8780.6608   -25599.829 
    9600    283.94795   -8752.4055    41.473351   -8793.8788    14524.785 
    9800    286.63247   -8748.5373    41.865451   -8790.4027   -28287.553 
   10000     310.0442   -8735.2365     45.28496   -8780.5214   -8350.8113 
   10200    286.50551   -8744.9409    41.846906   -8786.7878   -38983.992 
   10400     259.6581   -8751.8619    37.925583   -8789.7875   -25126.981 
   10600     330.4431   -8729.7784    48.264418   -8778.0428   -4711.8209 
   10800    353.23998   -8743.5411    51.594123   -8795.1352   -19220.294 
   11000    273.62262   -8750.3275    39.965236   -8790.2927    26654.989 
   11200    301.97295   -8728.5265    44.106076   -8772.6326     9008.345 
   11400    314.08307   -8742.6557    45.874876   -8788.5306    2495.8268 
   11600    286.70515   -8747.0052    41.876066   -8788.8812   -2020.1022 
   11800    308.59135   -8725.1264    45.072757   -8770.1991    28953.548 
   12000    305.62311   -8736.8631    44.639217   -8781.5023    2661.5609 
   12200    313.41871   -8747.1269     45.77784   -8792.9047   -10094.781 
   12400    327.58751    -8733.416    47.847331   -8781.2633     23269.04 
   12600    311.30091   -8737.5211    45.468515   -8782.9896    5910.0858 
   12800    262.82046   -8748.8155    38.387475    -8787.203     25219.21 
   13000    344.52383   -8734.3846    50.321045   -8784.7057   -10520.463 
   13200    330.52641   -8733.8207    48.276586   -8782.0972    1069.6923 
   13400    315.77104   -8744.0838    46.121421   -8790.2053    33190.859 
   13600    291.94441   -8738.4963     42.64131   -8781.1377    21789.836 
   13800    335.90149   -8729.9266    49.061668   -8778.9882       -21194 
   14000    314.85948    -8744.736    45.988278   -8790.7243   -44937.636 
   14200    324.54715   -8742.6115    47.403256   -8790.0147   -114.05621 
   14400    330.47908   -8725.4376    48.269673   -8773.7073    1920.9486 
   14600    306.24468   -8739.7773    44.730004   -8784.5073     7572.958 
   14800    288.59114   -8746.8676    42.151534   -8789.0191     -14064.8 
   15000    244.47962   -8749.8504    35.708618    -8785.559    7460.9657 
   15200    355.00391   -8731.6019    51.851761   -8783.4537   -5001.4616 
   15400    316.96036   -8744.3047    46.295133   -8790.5998    1119.3668 
   15600    311.94234   -8745.5365    45.562202   -8791.0987    31611.567 
   15800    321.53007   -8736.8732    46.962583   -8783.8357   -2718.5867 
   16000    251.43141    -8757.094    36.723994   -8793.8179    44432.624 
   16200    296.32143   -8746.5048    43.280617   -8789.7854   -20946.784 
   16400    330.78863   -8738.1644    48.314885   -8786.4793   -10592.141 
   16600    237.83266   -8756.0039    34.737766   -8790.7417    43266.975 
   16800    301.23451   -8748.3043     43.99822   -8792.3026   -27860.681 
   17000     355.6547    -8736.919    51.946816   -8788.8659   -6640.5562 
   17200    259.59818   -8751.3967     37.91683   -8789.3135   -26329.098 
   17400    252.87446   -8754.0159    36.934765   -8790.9506    5120.6353 
   17600    297.59079   -8743.1154    43.466019   -8786.5814    9232.0156 
   17800    335.10979   -8736.8845    48.946033   -8785.8305   -11102.265 
   18000    360.09892   -8721.0566    52.595937   -8773.6526   -2651.4474 
   18200    245.38742   -8741.7138    35.841212    -8777.555   -934.82782 
   18400    270.63097   -8745.2489    39.528276   -8784.7772    -16552.01 
   18600    354.68838   -8728.7831    51.805675   -8780.5887    -942.5348 
   18800    332.95493   -8744.9974    48.631295   -8793.6286    29796.604 
   19000     278.3927    -8743.099    40.661952    -8783.761    33447.023 
   19200    307.78809   -8737.1382    44.955434   -8782.0937    -12623.76 
   19400    267.61313   -8741.1086    39.087491   -8780.1961   -286.93622 
   19600    248.24975   -8748.1743    36.259282   -8784.4336   -48262.935 
   19800    324.47097   -8730.7425     47.39213   -8778.1347     50315.94 
   20000     274.4622   -8743.0698    40.087865   -8783.1576   -52382.847 
   20200     318.3754   -8742.7076    46.501813   -8789.2094    26827.046 
   20400    308.56172   -8730.8455     45.06843    -8775.914    2729.2418 
   20600    284.46241   -8738.9813    41.548492   -8780.5298   -9723.4395 
   20800    296.44326   -8749.9457    43.298412   -8793.2441   -15982.658 
   21000    313.31214   -8729.3884    45.762275   -8775.1507   -18664.513 
   21200    284.16062   -8742.9372    41.504413   -8784.4416   -7180.0623 
   21400    237.33767    -8743.032    34.665467   -8777.6974    877.40078 
   21600    302.94089    -8731.716    44.247453   -8775.9635   -1357.6353 
   21800    314.26717   -8735.1532    45.901766    -8781.055    20942.022 
   22000    302.64018   -8747.4787    44.203532   -8791.6822    3855.5618 
   22200    299.04521   -8746.1559    43.678452   -8789.8343    20808.882 
   22400    334.52461   -8728.2322    48.860562   -8777.0927    15564.346 
   22600    316.03387   -8744.6577    46.159809   -8790.8175    -3745.607 
   22800    260.18803   -8745.5718    38.002983   -8783.5748    21785.049 
   23000    307.71451   -8724.1181    44.944687   -8769.0628    18927.865 
   23200    385.77266   -8742.0265    56.345835   -8798.3724    5841.1369 
   23400    314.57361   -8746.8539    45.946524   -8792.8004   -11489.034 
   23600    351.77097   -8730.2559     51.37956   -8781.6355    19071.287 
   23800    309.77095    -8740.915     45.24505   -8786.1601     12998.98 
   24000    311.19395     -8747.21    45.452893   -8792.6629   -7535.6637 
   24200    354.33131   -8732.7981    51.753522   -8784.5516   -16505.411 
   24400    325.14418   -8736.5125     47.49046    -8784.003    51905.438 
   24600    237.84171   -8742.8268    34.739087   -8777.5659   -36206.513 
   24800    290.90405   -8746.7542    42.489356   -8789.2436   -17299.809 
   25000    326.45711   -8734.7374    47.682225   -8782.4196    17847.649 
   25200    289.58535    -8747.365    42.296746   -8789.6618   -21872.241 
   25400    313.19377   -8750.7707    45.744985   -8796.5157    26226.131 
   25600    348.32328   -8742.3502     50.87599   -8793.2262   -20015.269 
   25800    282.42423   -8736.6372    41.250795    -8777.888   -51817.846 
   26000    291.29392   -8730.5227      42.5463    -8773.069   -19273.281 
   26200    315.09967   -8747.5984    46.023361   -8793.6218   -7546.3215 
   26400    260.30293   -8748.7215    38.019765   -8786.7412   -12020.114 
   26600    300.34178   -8735.5556    43.867828   -8779.4235    15235.673 
   26800    281.22067   -8748.3924    41.075005   -8789.4674    34641.699 
   27000    303.66681   -8736.9512    44.353481   -8781.3046   -14516.151 
   27200    380.03349   -8730.3001    55.507575   -8785.8076    14177.383 
   27400    304.20056   -8747.1581     44.43144   -8791.5896   -6283.2548 
   27600    313.13431   -8740.1267    45.736301    -8785.863   -15656.344 
   27800    332.08396    -8725.905    48.504082   -8774.4091    5531.0828 
   28000    285.52861   -8747.0958    41.704222      -8788.8   -6446.1315 
   28200    297.00172   -8744.9052    43.379979   -8788.2852   -7557.8512 
   28400    332.75444   -8729.1008    48.602011   -8777.7029   -28338.454 
   28600    290.62933    -8748.559     42.44923   -8791.0082    7925.8477 
   28800    257.60475   -8743.0441     37.62567   -8780.6698   -36555.161 
   29000    317.26196   -8733.1005    46.339184   -8779.4396   -14119.678 
   29200    283.44616   -8748.5172    41.400059   -8789.9173   -24030.141 
   29400    264.49944   -8743.7099    38.632706   -8782.3426    -25753.51 
   29600    320.68524   -8737.2786    46.839188   -8784.1178     30927.75 
   29800    283.45266   -8742.3546    41.401008   -8783.7556    26378.244 
   30000    309.93405   -8740.6009    45.268872   -8785.8697   -20258.278 
   30200    269.56914   -8748.5417    39.373185   -8787.9149   -5168.2275 
   30400    335.12553   -8737.8749    48.948333   -8786.8232    -11876.99 
   30600    290.78417    -8736.525    42.471846   -8778.9968   -48068.297 
   30800    279.25582   -8752.4816    40.788019   -8793.2696   -6628.7275 
   31000    285.64458   -8742.1505     41.72116   -8783.8716   -19245.612 
   31200    303.13395   -8740.1523    44.275652   -8784.4279    62060.591 
   31400    275.23623   -8750.5868    40.200919   -8790.7877   -9097.2014 
   31600    313.23208   -8750.9987    45.750581   -8796.7493    18883.285 
   31800    256.37274   -8733.9899    37.445724   -8771.4357    6638.0208 
   32000    287.73428   -8745.6324     42.02638   -8787.6588    8493.9104 
   32200    275.38611   -8753.7031     40.22281   -8793.9259   -41551.129 
   32400     329.0966   -8735.5314    48.067748   -8783.5991   -11493.377 
   32600    334.00206   -8746.7935    48.784238   -8795.5777   -3629.7526 
   32800    264.85806   -8746.4491    38.685087   -8785.1342    22560.688 
   33000    301.61236   -8733.2659    44.053409   -8777.3193   -2653.7157 
   33200    266.42198    -8743.481    38.913513   -8782.3945   -4792.2464 
   33400    260.22385   -8744.8564    38.008215   -8782.8646    6290.1769 
   33600    323.51391   -8734.0072    47.252342   -8781.2595   -40831.248 
   33800    255.81048   -8747.4241      37.3636   -8784.7877    15383.847 
   34000    310.76799   -8747.5985    45.390677   -8792.9891   -17723.958 
   34200    334.83434   -8731.3415      48.9058   -8780.2473    1804.5262 
   34400    277.71721   -8745.5573     40.56329   -8786.1206   -32509.355 
   34600    287.59927   -8747.8928    42.006661   -8789.8995   -32802.387 
   34800    318.39999   -8730.9633    46.505405   -8777.4687    3580.4756 
   35000    275.86997   -8744.0953    40.293483   -8784.3888   -24687.979 
   35200    288.61462   -8742.1933    42.154962   -8784.3483    43800.908 
   35400    366.67258   -8727.2132    53.556084   -8780.7693    29939.604 
   35600    278.74665    -8743.571     40.71365   -8784.2847   -2884.5872 
   35800    325.16265   -8742.8589    47.493157    -8790.352   -15345.531 
   36000    255.61184   -8752.9261    37.334587   -8790.2607    15766.011 
   36200    281.22102   -8750.2865    41.075056   -8791.3616   -14063.916 
   36400    264.99632   -8737.5467    38.705281   -8776.2519    4581.2049 
   36600    301.06648   -8750.9643    43.973677    -8794.938   -21045.556 
   36800    253.04356   -8749.7138    36.959465   -8786.6733   -14656.853 
   37000    312.36374   -8738.6407    45.623752   -8784.2644   -12396.285 
   37200    276.35236   -8751.8849    40.363941   -8792.2488   -13127.651 
   37400    253.59532   -8751.8871    37.040054   -8788.9272    24597.663 
   37600    281.28071   -8744.9231    41.083774   -8786.0069    25965.863 
   37800    320.94025   -8731.5651    46.876434   -8778.4415    4593.0453 
   38000    328.49944   -8728.9767    47.980528   -8776.9572    18750.215 
   38200    316.47623   -8739.1825    46.224421    -8785.407   -49418.783 
   38400    268.90471   -8747.0169    39.276139    -8786.293    5472.1139 
   38600    216.70396   -8754.6111    31.651713   -8786.2628    31779.305 
   38800    350.00592   -8737.5106    51.121757   -8788.6323    -8390.177 
   39000    279.97237   -8739.2244    40.892678   -8780.1171   -23036.322 
   39200    217.79057   -8758.7824    31.810424   -8790.5928   -8652.2587 
   39400    363.65155   -8735.0993    53.114833   -8788.2142    34951.873 
   39600    279.49282   -8743.7263    40.822636   -8784.5489   -30034.068 
   39800    273.92744   -8750.3365    40.009758   -8790.3462    21506.029 
   40000    338.26174   -8736.4064    49.406406   -8785.8128   -12687.719 
   40200    329.18659   -8733.8535    48.080892   -8781.9344    11444.819 
   40400    252.29373   -8751.5553    36.849945   -8788.4052    23099.498 
   40600    349.06794   -8740.8206    50.984756   -8791.8054    6284.5719 
   40800    336.99391   -8739.4791    49.221226   -8788.7003   -8424.8644 
   41000    231.97945   -8756.8943    33.882846   -8790.7771    7737.8679 
   41200    280.33284   -8748.7814    40.945329   -8789.7268   -34155.072 
   41400    324.63296   -8738.5781    47.415791   -8785.9939    32892.988 
   41600    292.23089   -8740.0794    42.683153   -8782.7625   -16156.378 
   41800    252.21897   -8752.5964    36.839025   -8789.4354   -7146.8732 
   42000    317.89601   -8735.2405    46.431794   -8781.6723    7880.4117 
   42200    321.85461   -8743.0063    47.009986   -8790.0163    23282.365 
   42400    275.58586   -8750.8394    40.251986   -8791.0914   -6223.3302 
   42600    304.14339   -8738.3873     44.42309   -8782.8103    -26618.46 
   42800    308.88248   -8743.7719    45.115279   -8788.8871    16992.101 
   43000    285.15494   -8743.1267    41.649643   -8784.7763   -34300.032 
   43200    329.73634   -8732.5163    48.161188   -8780.6775    -10677.44 
   43400    330.44283   -8749.0026    48.264379   -8797.2669    6852.3462 
   43600    299.88077   -8742.1941    43.800494   -8785.9946    8952.6541 
   43800    367.59162   -8727.9071    53.690318   -8781.5974    28247.797 
   44000    345.22984   -8739.1762    50.424164   -8789.6004    10296.369 
   44200    254.29834   -8744.5195    37.142738   -8781.6622   -10466.426 
   44400    304.64495   -8734.5722    44.496348   -8779.0685   -554.00345 
   44600    343.19226   -8731.5958    50.126556   -8781.7224     1014.129 
   44800    229.79344   -8747.9167    33.563559   -8781.4802    14763.703 
   45000    324.99788   -8738.8211     47.46909   -8786.2902    17298.361 
   45200     355.6226   -8723.1572    51.942127   -8775.0994    10859.732 
   45400    280.86879   -8744.0487    41.023608   -8785.0723   -15130.944 
   45600    281.60503   -8741.4024    41.131144   -8782.5335    20231.058 
   45800    337.72262    -8725.486    49.327661   -8774.8137    -39574.76 
   46000    339.49268   -8746.7415    49.586196   -8796.3277    10687.188 
   46200    262.32081   -8745.5163    38.314497   -8783.8308   -8051.8756 
   46400    340.70601   -8727.4197    49.763415   -8777.1831   -34494.338 
   46600    259.90143   -8740.4408    37.961123    -8778.402   -12269.294 
   46800    270.69771    -8748.936    39.538024    -8788.474   -21045.019 
   47000    326.42324   -8738.0799    47.677278   -8785.7572    -11569.45 
   47200    290.84102   -8736.8879     42.48015    -8779.368     18028.59 
   47400    264.33913    -8749.354    38.609291   -8787.9633   -16060.885 
   47600    273.47356   -8743.9892    39.943464   -8783.9327   -27649.978 
   47800    303.49007   -8743.1254    44.327667   -8787.4531    3964.1903 
   48000    327.68203   -8735.6911    47.861136   -8783.5522   -2161.6832 
   48200    267.35921   -8735.5524    39.050404   -8774.6028    7492.6915 
   48400    307.24145    -8748.354    44.875591   -8793.2296    -1955.812 
   48600    257.74547   -8744.1992    37.646224   -8781.8454   -5344.6333 
   48800     292.7552   -8742.0913    42.759735   -8784.8511   -17849.957 
   49000    229.00055   -8755.0419     33.44775   -8788.4896   -18425.053 
   49200    274.65026   -8746.2981    40.115333   -8786.4135    4013.4651 
   49400    281.21537   -8737.6223    41.074231   -8778.6965    11929.355 
   49600      285.729   -8745.1637     41.73349   -8786.8972   -17479.342 
   49800    265.15687   -8752.3005    38.728731   -8791.0292    7907.2828 
   50000      318.183   -8733.1005    46.473712   -8779.5742    15424.329 
   50200    291.10368   -8747.8256    42.518515   -8790.3442   -20540.865 
   50400    275.44079   -8742.3115    40.230798   -8782.5423   -27638.067 
   50600    307.03049   -8738.7041    44.844779   -8783.5489   -23382.991 
   50800    311.05052   -8737.6613    45.431944   -8783.0933    36451.887 
   51000    324.41289   -8729.3908    47.383647   -8776.7744    22848.253 
   51200    281.08233    -8750.148    41.054799   -8791.2028   -20336.689 
   51400    301.51244   -8737.9626    44.038815   -8782.0014   -6061.8815 
   51600    297.91991   -8741.7238     43.51409   -8785.2379   -6973.3312 
   51800    248.80289   -8750.2944    36.340074   -8786.6345      6286.11 
   52000    349.84818   -8736.3987    51.098717   -8787.4974    19341.397 
   52200    277.68741   -8737.9092    40.558938   -8778.4681    8145.5554 
   52400    241.86893   -8757.4223    35.327301   -8792.7496    -36663.32 
   52600    294.53403   -8742.5871     43.01955   -8785.6067   -7420.8051 
   52800    306.04123    -8740.943    44.700288   -8785.6433    -19434.27 
   53000    248.06002   -8749.2074    36.231571    -8785.439   -38405.803 
   53200    299.51696   -8739.2345    43.747356   -8782.9818    14270.268 
   53400    287.41578   -8733.3568     41.97986   -8775.3367   -2726.5603 
   53600    310.02716   -8749.2039    45.282472   -8794.4864   -25275.258 
   53800    222.52405   -8764.8479    32.501794   -8797.3497    4188.0483 
   54000    331.17872   -8744.2506    48.371862   -8792.6225   -9912.0487 
   54200    340.43897   -8736.1609    49.724411   -8785.8853   -7955.7729 
   54400    273.54217   -8751.5705    39.953485    -8791.524    16266.685 
   54600    312.20855     -8751.16    45.601085   -8796.7611   -7714.1304 
   54800    308.18158   -8735.9184    45.012907   -8780.9313   -4112.6251 
   55000    330.20404   -8743.6619    48.229501   -8791.8914   -629.76185 
   55200    262.04572    -8749.663    38.274317   -8787.9373    9484.4227 
   55400     293.4991   -8740.4169    42.868388   -8783.2853     31213.96 
   55600    312.54602   -8740.4014    45.650375   -8786.0518    12500.773 
   55800    307.04453   -8748.3971    44.846829    -8793.244    17588.664 
   56000    251.91966   -8745.0957    36.795308    -8781.891   -4412.5097 
   56200    287.82688   -8736.2506    42.039906   -8778.2905   -61822.166 
   56400     240.4652   -8752.8491    35.122273   -8787.9713   -17673.694 
   56600    299.61701   -8751.5635    43.761968   -8795.3255   -15695.356 
   56800    326.76674   -8738.0326    47.727449     -8785.76   -15457.061 
   57000    302.98404   -8742.0757    44.253756   -8786.3294    8053.1217 
   57200    267.52165   -8751.0833     39.07413   -8790.1574    -20461.24 
   57400    354.31629   -8736.2304    51.751328   -8787.9817   -13089.384 
   57600    302.10433   -8736.6335    44.125266   -8780.7587   -11439.276 
   57800    273.31188   -8748.2213    39.919849   -8788.1411    13779.604 
   58000     277.3589   -8741.2165    40.510955   -8781.7274   -33835.964 
   58200    324.75599   -8732.7517    47.433759   -8780.1854    20633.594 
   58400    257.75131   -8748.0173    37.647077   -8785.6643    14373.158 
   58600    387.49106   -8725.9432    56.596825     -8782.54   -4916.9449 
   58800     308.4361   -8737.4755    45.050082   -8782.5256   -35344.089 
   59000    315.56713   -8748.7672    46.091638   -8794.8589    17028.885 
   59200    300.39648   -8737.3743    43.875817   -8781.2502    33841.626 
   59400    356.52849   -8720.0049    52.074442   -8772.0794   -12743.284 
   59600    274.22949   -8738.4999    40.053874   -8778.5537     29430.01 
   59800    263.13217   -8746.9695    38.433004   -8785.4025    31837.366 
   60000     299.6633   -8736.0025    43.768729   -8779.7712    13034.496 
   60200    301.64931   -8738.0012    44.058805     -8782.06    14091.807 
   60400    269.95886   -8748.0237    39.430108   -8787.4538   -7121.8608 
   60600    285.06933   -8743.8668    41.637138   -8785.5039    36257.183 
   60800    334.62153   -8733.2004    48.874718   -8782.0751   -6682.0362 
   61000    302.15481   -8743.8102    44.132639   -8787.9429     2341.711 
   61200    246.42035   -8748.6421    35.992081   -8784.6342    37662.012 
   61400    305.05972    -8734.731    44.556929    -8779.288   -9843.2855 
   61600    241.33966   -8743.3462    35.249996   -8778.5962   -24237.613 
   61800    258.12892   -8759.2247    37.702231    -8796.927   -22358.154 
   62000    244.34621   -8754.2917    35.689132   -8789.9808   -20976.201 
   62200    304.95597   -8740.8344    44.541775   -8785.3762   -3641.9647 
   62400    358.64164   -8735.7044    52.383088   -8788.0875   -7427.8354 
   62600     255.2347   -8748.8918    37.279502   -8786.1713   -3860.0297 
   62800    271.42143   -8741.5397     39.64373   -8781.1834    19064.704 
   63000     328.1434    -8736.264    47.928525   -8784.1925   -9673.6913 
   63200    237.07031   -8753.6685    34.626416   -8788.2949    5136.3752 
   63400    331.93426   -8739.4015    48.482216   -8787.8837    2147.4491 
   63600    307.98603   -8739.7875    44.984345   -8784.7719   -17156.393 
   63800    230.01413   -8761.7044    33.595793   -8795.3002     38983.22 
   64000    284.39478   -8749.5962    41.538614   -8791.1348    20734.925 
   64200    276.10533   -8740.6444     40.32786   -8780.9723    682.56397 
   64400    367.42212   -8724.6594    53.665562    -8778.325    17238.022 
   64600     285.9948    -8742.199    41.772312   -8783.9713   -8395.9375 
   64800    296.97699   -8747.6382    43.376368   -8791.0146   -1057.4506 
   65000    328.80705   -8733.2365    48.025456   -8781.2619   -1094.8302 
   65200    279.33343    -8741.678    40.799355   -8782.4773    19994.824 
   65400    302.14083   -8749.6844    44.130596    -8793.815     6251.156 
   65600    306.18151   -8740.0718    44.720777   -8784.7926   -4672.5396 
   65800    253.51989   -8737.0112    37.029037   -8774.0402    13792.667 
   66000    305.40395   -8739.4951    44.607208   -8784.1023   -14672.806 
   66200    291.03723   -8751.7856    42.508809   -8794.2944   -5642.7776 
   66400    316.31582   -8735.6269    46.200992   -8781.8279    -24119.58 
   66600    337.94628   -8739.5593     49.36033   -8788.9197    14424.568 
   66800     274.1195   -8748.3592     40.03781   -8788.3971    11173.299 
   67000    326.71772   -8740.6455     47.72029   -8788.3658    19258.518 
   67200    301.25104   -8736.1036    44.000635   -8780.1042    5234.8567 
   67400    341.43152   -8737.2851    49.869382   -8787.1545   -31600.644 
   67600    246.48168   -8750.2173    36.001039   -8786.2183    19913.607 
   67800    372.56137    -8732.603    54.416199   -8787.0192    26233.447 
   68000    279.19818   -8741.1695    40.779601   -8781.9491   -11372.248 
   68200    310.40634   -8748.6051    45.337855    -8793.943   -36171.236 
   68400    226.63058   -8757.2023    33.101593   -8790.3039   -15211.558 
   68600    299.27762   -8741.8445    43.712397   -8785.5569    8993.5217 
   68800    312.82965   -8735.3271    45.691803   -8781.0189    34417.799 
   69000    351.83893   -8733.1469    51.389486   -8784.5364   -19489.436 
   69200    271.23172    -8748.504    39.616021     -8788.12   -11382.965 
   69400    282.61288   -8736.1482    41.278351   -8777.4266    30159.962 
   69600    315.40682   -8739.4006    46.068224   -8785.4688   -25417.603 
   69800    262.12289    -8746.978    38.285589   -8785.2636    21454.108 
   70000    370.53383   -8727.6115    54.120057   -8781.7316   -5027.9106 
   70200    321.90754   -8737.8728    47.017717   -8784.8905    6027.2916 
   70400    342.43909    -8743.463    50.016548   -8793.4795   -4824.2989 
   70600    274.08581   -8746.6891    40.032889    -8786.722   -26738.249 
   70800    287.84693   -8731.6851    42.042834   -8773.7279    4253.4289 
   71000    267.85008   -8739.4718      39.1221   -8778.5939     29718.12 
   71200     237.4785   -8749.2533    34.686036   -8783.9393    12624.815 
   71400    347.53888   -8732.7714    50.761421   -8783.5328   -31197.123 
   71600    321.51955   -8740.1768    46.961047   -8787.1379    653.64626 
   71800    315.82861   -8748.1717    46.129829   -8794.3016    11882.872 
   72000    284.19967   -8746.3154    41.510116   -8787.8255   -14046.829 
   72200    372.61843   -8732.0849    54.424534   -8786.5095    3912.4476 
   72400    277.78617   -8747.2807    40.573363   -8787.8541   -9507.0757 
   72600    274.93391   -8747.9231    40.156762   -8788.0798    11367.357 
   72800    278.97192    -8742.652    40.746553   -8783.3985    8611.5387 
   73000    262.34218   -8748.5084    38.317618    -8786.826    3849.0068 
   73200    242.98035   -8760.4576    35.489635   -8795.9473   -8295.1996 
   73400    316.60348   -8738.6825    46.243007   -8784.9255   -3163.2003 
   73600    344.71255   -8736.2122    50.348609   -8786.5608   -5012.3191 
   73800    262.47916   -8748.2861    38.337625   -8786.6237    2250.9747 
   74000    365.68443   -8730.9691    53.411755   -8784.3809    17405.856 
   74200    268.98954   -8742.6977    39.288529   -8781.9862    3456.6203 
   74400    252.94073   -8751.5002    36.944446   -8788.4446   -2587.3189 
   74600    333.42538   -8733.7932    48.700008   -8782.4932   -10692.565 
   74800    301.95562   -8740.3347    44.103545   -8784.4383   -18355.806 
   75000    261.65354   -8751.7599    38.217036   -8789.9769    21992.354 
   75200    273.13861   -8738.0323    39.894542   -8777.9269    5808.2502 
   75400    281.18126   -8735.4061    41.069248   -8776.4753    19623.493 
   75600    279.80985    -8749.822    40.868941    -8790.691   -22380.167 
   75800    340.03245   -8739.3937    49.665036   -8789.0588    2415.8606 
   76000    369.13548   -8719.4774    53.915814   -8773.3932    6353.4588 
   76200    314.06155   -8736.2929    45.871733   -8782.1646   -9738.2305 
   76400    302.39396   -8746.5624    44.167569     -8790.73   -10945.636 
   76600    286.59247   -8741.4922    41.859608   -8783.3518    5806.2373 
   76800     323.3081   -8730.5776    47.222281   -8777.7999    5320.7652 
   77000    281.11655   -8751.0833    41.059796   -8792.1431    41640.762 
   77200     315.1367   -8741.9117     46.02877   -8787.9405   -27300.376 
   77400     296.7554   -8735.4035    43.344002   -8778.7475    15779.592 
   77600    287.56607    -8753.528    42.001811   -8795.5298   -5852.5147 
   77800    277.46171   -8747.4025    40.525972   -8787.9285    48793.265 
   78000      309.737   -8739.0938    45.240091   -8784.3339   -18371.046 
   78200    314.35609   -8731.8286    45.914754   -8777.7434     6446.142 
   78400    270.02627   -8737.1471    39.439954   -8776.5871    29205.079 
   78600    262.47124    -8744.025    38.336469   -8782.3614   -13297.223 
   78800    375.53379   -8727.7971     54.85035   -8782.6474    32986.507 
   79000    274.84547      -8746.2    40.143844   -8786.3438    3805.1495 
   79200    265.74191   -8744.7495    38.814182   -8783.5637   -20903.956 
   79400    343.40537   -8731.1144    50.157682   -8781.2721   -18161.745 
   79600    268.10862   -8749.6739    39.159862   -8788.8337    11774.305 
   79800    318.66872   -8737.6584    46.544655   -8784.2031   -40444.566 
   80000    285.74627    -8743.512    41.736013   -8785.2481    -23078.48 
   80200    247.05799    -8753.499    36.085214   -8789.5842   -32553.604 
   80400    337.88947   -8737.5453    49.352032   -8786.8974    19358.262 
   80600    282.03865   -8744.7961    41.194478   -8785.9905    14637.309 
   80800    257.09879   -8752.5667     37.55177   -8790.1185    16894.122 
   81000    265.43438    -8742.747    38.769263   -8781.5163    26471.301 
   81200    271.44005   -8744.8229     39.64645   -8784.4694   -15202.012 
   81400    260.41217    -8752.534    38.035722   -8790.5697   -13040.423 
   81600    278.33851   -8741.7853    40.654037   -8782.4393    18058.863 
   81800    340.79071   -8732.8298    49.775786   -8782.6056   -397.12109 
   82000    265.52004    -8734.296    38.781776   -8773.0778    2575.6975 
   82200    315.80941   -8746.2221    46.127025   -8792.3491    -8782.168 
   82400    265.09883   -8751.9707    38.720253    -8790.691    7739.4572 
   82600    345.48096   -8733.8196    50.460842   -8784.2805   -22360.332 
   82800    278.72724   -8746.5604    40.710815   -8787.2712   -3363.7209 
   83000    323.12758   -8734.3735    47.195914   -8781.5694   -26918.147 
   83200     328.8883    -8721.436    48.037324   -8769.4733   -6368.9782 
   83400    305.01759   -8743.6553    44.550776   -8788.2061   -11195.858 
   83600    269.38224   -8748.8148    39.345887   -8788.1607   -8139.4211 
   83800     389.0915   -8733.8848    56.830585   -8790.7154    8595.8491 
   84000    294.92567   -8743.2773    43.076753    -8786.354    13859.023 
   84200    290.19659   -8742.0519    42.386024   -8784.4379    13978.464 
   84400    399.31029   -8720.3845    58.323138   -8778.7076   -18030.113 
   84600    286.18039   -8737.7637    41.799419   -8779.5632    11071.743 
   84800    286.07997   -8748.5099    41.784753   -8790.2947   -13026.867 
   85000    231.84543   -8748.9555    33.863272   -8782.8188    20092.756 
   85200    289.90539     -8737.31    42.343492   -8779.6535   -17229.333 
   85400    279.60377   -8747.9779    40.838841   -8788.8167    22932.759 
   85600    347.39635   -8728.8886    50.740604   -8779.6292    27541.127 
   85800    277.02312   -8742.9025    40.461911   -8783.3644   -6227.5255 
   86000     331.9668    -8747.515    48.486969    -8796.002   -48771.814 
   86200    326.78872   -8735.3253    47.730661   -8783.0559   -11058.388 
   86400    271.58228    -8741.843    39.667224   -8781.5102   -1217.7098 
   86600    326.70455   -8738.9257    47.718366   -8786.6441    23968.888 
   86800    293.26694   -8751.8488    42.834478   -8794.6833   -14470.678 
   87000    251.80776   -8749.1496    36.778964   -8785.9286    14050.031 
   87200    305.26687   -8738.8373    44.587185   -8783.4245   -17142.933 
   87400    237.60522   -8748.1545    34.704546    -8782.859    -11855.29 
   87600    235.76111   -8751.8204    34.435195   -8786.2556   -6609.2003 
   87800    328.04341   -8735.7039    47.913919   -8783.6178   -1692.1993 
   88000    269.20456   -8746.0259    39.319936   -8785.3459    7942.5959 
   88200    246.48359   -8752.6087    36.001318     -8788.61   -11573.634 
   88400    315.96694   -8740.5836    46.150035   -8786.7336   -18502.668 
   88600     251.8925   -8748.4697    36.791342    -8785.261    25671.358 
   88800    374.73261   -8734.9637     54.73333    -8789.697    37578.828 
   89000    249.00529   -8745.9502    36.369637   -8782.3198    14197.953 
   89200    250.13461   -8757.5737    36.534584   -8794.1083   -921.56567 
   89400    292.71074   -8746.8149    42.753241   -8789.5681   -7296.1881 
   89600    308.58066   -8736.5677    45.071196   -8781.6389   -9341.2924 
   89800    308.18554   -8744.2836    45.013485   -8789.2971   -25237.915 
   90000    279.23995   -8752.4947    40.785701   -8793.2804     19342.08 
   90200    364.69482   -8733.1552    53.267214   -8786.4224    27790.061 
   90400     297.2802   -8744.4079    43.420655   -8787.8286   -14336.056 
   90600    305.83251   -8746.2298    44.669803   -8790.8996   -12819.634 
   90800    261.15003   -8742.6922    38.143493   -8780.8357    29433.102 
   91000    387.11972   -8737.9514    56.542587    -8794.494   -16000.203 
   91200    268.21592   -8748.2319    39.175535   -8787.4075    14810.579 
   91400    260.75257   -8743.0237     38.08544   -8781.1092   -37363.681 
   91600    258.03468   -8747.3082    37.688466   -8784.9967   -5942.8728 
   91800    288.40643   -8741.8345    42.124554   -8783.9591   -2764.2585 
   92000    282.87095   -8735.6529    41.316043   -8776.9689    24526.384 
   92200    357.77575   -8732.4908    52.256616   -8784.7474    1212.0697 
   92400    290.75227     -8746.06    42.467187   -8788.5272   -41386.353 
   92600     300.6871   -8738.8341    43.918266   -8782.7523    15237.921 
   92800    341.42933   -8729.0834    49.869062   -8778.9524    -14433.64 
   93000     339.8656   -8743.4492    49.640665   -8793.0899   -3209.5167 
   93200    279.82071   -8743.3044    40.870527   -8784.1749    -19102.34 
   93400    363.61349   -8729.8713    53.109274   -8782.9806   -33545.624 
   93600    278.86375   -8746.8049    40.730754   -8787.5356    26745.701 
   93800    312.99506   -8743.7502    45.715963   -8789.4662    40076.407 
   94000    279.72928   -8745.0581    40.857173   -8785.9153    6722.3619 
   94200    340.96187   -8733.3681    49.800786   -8783.1689   -25215.627 
   94400    243.60332   -8747.6925    35.580626   -8783.2731    9178.6935 
   94600    339.82277   -8741.8918    49.634409   -8791.5262    41471.265 
   94800    292.65829   -8739.5314     42.74558    -8782.277    16698.682 
   95000    342.33726    -8743.092    50.001674   -8793.0937    -4154.308 
   95200    263.24724   -8751.3767    38.449811   -8789.8266    12640.062 
   95400    317.43256   -8734.5953    46.364102   -8780.9594    2743.4125 
   95600    230.67225   -8738.6776    33.691918   -8772.3695    23594.225 
   95800    256.69014   -8751.9408    37.492083   -8789.4329     36348.09 
   96000    280.83724   -8738.6517    41.019002   -8779.6707    9272.8364 
   96200    320.67854   -8741.2063    46.838209   -8788.0445   -6782.4881 
   96400    263.94524   -8743.8423     38.55176    -8782.394   -2541.9935 
   96600    318.05181   -8742.5094    46.454549   -8788.9639     22107.98 
   96800    295.52608   -8741.8331    43.164448   -8784.9976    -51350.45 
   97000    301.26568   -8752.6176    44.002773   -8796.6204   -22357.792 
   97200     343.7428    -8737.406    50.206968   -8787.6129    23914.637 
   97400    284.22096   -8737.0859    41.513226   -8778.5991    56276.845 
   97600     255.2044   -8757.2996    37.275076   -8794.5747   -21138.103 
   97800    326.42047   -8744.8273    47.676874   -8792.5042   -13058.483 
   98000    352.86865   -8737.3649    51.539887   -8788.9048    524.11264 
   98200    248.25757   -8754.4476    36.260424    -8790.708    21985.913 
   98400    292.42293   -8747.2993    42.711203   -8790.0105    44472.586 
   98600    294.44814    -8738.901    43.007005    -8781.908   -8762.2642 
   98800    327.06939   -8735.1767    47.771654   -8782.9483    44850.138 
   99000    242.74626   -8750.5489    35.455444   -8786.0043   -23047.534 
   99200    314.13547   -8735.1821    45.882531   -8781.0646   -2508.8609 
   99400    243.72438   -8749.0195    35.598308   -8784.6178   -14746.981 
   99600    324.23812   -8742.8663    47.358121   -8790.2245   -18798.694 
   99800    292.88457   -8735.3076     42.77863   -8778.0862   -34805.134 
  100000    302.37588   -8745.6341    44.164928    -8789.799   -10207.272 
  100200    306.12006   -8728.4236    44.711802   -8773.1354    15089.938 
  100400    355.16152   -8738.2818    51.874783   -8790.1566    24327.406 
  100600    308.84933   -8742.3143    45.110439   -8787.4247   -14456.975 
  100800    278.65472   -8743.9513    40.700223   -8784.6515   -15578.546 
  101000    291.67682   -8749.6233    42.602227   -8792.2255    265.97677 
  101200    283.25094    -8735.766    41.371545   -8777.1376   -491.08642 
  101400    307.20607   -8746.5565    44.870424   -8791.4269   -11534.168 
  101600    276.27926   -8754.0433    40.353264   -8794.3966   -6124.4405 
  101800    253.08718   -8743.6414    36.965835   -8780.6072   -26517.749 
  102000     299.9922   -8735.5061    43.816768   -8779.3229   -25370.665 
  102200    227.80648   -8756.6056    33.273345    -8789.879    5474.3554 
  102400    269.10046   -8743.8074     39.30473   -8783.1121    808.56575 
  102600    344.87855   -8735.0888    50.372855   -8785.4617    24559.273 
  102800    248.12602   -8750.2867    36.241211   -8786.5279    30047.269 
  103000    287.00815   -8744.3888    41.920321   -8786.3091   -11808.013 
  103200    303.74341   -8740.9671    44.364669   -8785.3318   -24769.643 
  103400    279.94283    -8747.635    40.888364   -8788.5233   -18463.504 
  103600    302.47342   -8737.8583    44.179175   -8782.0375   -15716.953 
  103800    299.23954   -8739.4525    43.706835   -8783.1593    -8400.533 
  104000    275.84922   -8748.8216    40.290452    -8789.112   -19770.267 
  104200    322.44181    -8738.217    47.095752   -8785.3128    -36356.09 
  104400    392.43997   -8726.9665    57.319662   -8784.2862   -7338.3369 
  104600    278.24795   -8744.0218    40.640809   -8784.6626   -5754.7882 
  104800    286.10055   -8747.4899    41.787758   -8789.2776    3515.4518 
  105000    275.67339   -8740.5431    40.264771   -8780.8078    31169.616 
  105200    321.67462   -8738.1507    46.983696   -8785.1344   -35732.847 
  105400    293.16546   -8746.8274    42.819657   -8789.6471   -33314.454 
  105600    312.72126    -8734.338     45.67597    -8780.014   -7026.9586 
  105800    304.67721   -8736.0038    44.501059   -8780.5049    17061.462 
  106000    277.45861   -8743.9219    40.525519   -8784.4474   -4160.1742 
  106200    270.44923   -8745.3518    39.501731   -8784.8535     -23937.3 
  106400     334.9404   -8729.4835    48.921292   -8778.4048    11109.226 
  106600    283.54234   -8750.3471    41.414107   -8791.7612   -18729.131 
  106800    295.66585   -8745.2886    43.184864   -8788.4735    8803.6184 
  107000    323.16274   -8735.2947    47.201051   -8782.4958    -10623.92 
  107200    305.55904   -8746.3802     44.62986   -8791.0101     42526.79 
  107400    261.80052   -8757.4148    38.238504   -8795.6533    22896.112 
  107600    305.35311   -8741.9588    44.599782   -8786.5586    7737.9205 
  107800    275.84785   -8740.2064    40.290252   -8780.4966    2885.1223 
  108000    261.77833   -8752.3986    38.235263   -8790.6339    20329.869 
  108200    373.18502   -8737.3225    54.507289   -8791.8298   -11084.375 
  108400     267.3454   -8740.2008    39.048386   -8779.2492   -20391.285 
  108600    285.18472   -8747.3106    41.653992   -8788.9646   -14466.615 
  108800    279.22756   -8751.0892    40.783892   -8791.8731    2377.6561 
  109000    338.41935   -8737.0338    49.429427   -8786.4632   -4197.2042 
  109200    406.38085   -8718.0901    59.355862    -8777.446   -6932.5381 
  109400    289.60364   -8738.3585    42.299419   -8780.6579   -12937.474 
  109600    290.98931   -8746.1397    42.501809   -8788.6415   -24070.735 
  109800    303.18597   -8750.2577    44.283249    -8794.541   -17493.496 
  110000    331.77918   -8739.9249    48.459565   -8788.3845   -7796.0917 
  110200    360.47228    -8735.581     52.65047   -8788.2314    -13502.44 
  110400    278.50719   -8751.5401    40.678675   -8792.2188    19030.179 
  110600    319.16318    -8736.505    46.616876   -8783.1219    25555.053 
  110800    263.79867    -8744.105    38.530353   -8782.6353    25561.207 
  111000    252.75091   -8758.6525    36.916721   -8795.5693   -3633.1652 
  111200    331.89845   -8744.3972    48.476986   -8792.8742    35071.863 
  111400    296.97347    -8739.477    43.375854   -8782.8528    50539.964 
  111600    345.91061    -8736.552    50.523598   -8787.0756   -13902.487 
  111800     296.4185   -8753.8366    43.294794   -8797.1314    28773.632 
  112000    313.96447    -8737.565    45.857554   -8783.4226    11821.503 
  112200    286.14133   -8744.5573    41.793714    -8786.351    18387.871 
  112400    264.69386    -8754.059    38.661104   -8792.7201   -26691.257 
  112600    355.05583   -8729.9966    51.859345    -8781.856    26173.166 
  112800    312.02184   -8741.1284    45.573814   -8786.7022   -3861.5375 
  113000    291.27562   -8748.0366    42.543627   -8790.5803   -20975.105 
  113200    323.62479   -8733.1646    47.268537   -8780.4332   -43703.961 
  113400    319.32991   -8741.5849    46.641229   -8788.2261   -9451.3131 
  113600    312.50155   -8746.5388     45.64388   -8792.1827    15392.169 
  113800    363.27871    -8732.553    53.060376   -8785.6133    20762.215 
  114000     286.6325    -8731.435    41.865455   -8773.3005    -11627.78 
  114200    318.67764   -8740.2013    46.545958   -8786.7472   -10503.442 
  114400    277.37918   -8745.7055    40.513918   -8786.2194   -30695.377 
  114600    287.87682   -8740.6723      42.0472   -8782.7195   -38685.696 
  114800    271.87609   -8756.5562    39.710139   -8796.2663    5643.5183 
  115000    298.85121   -8751.6737    43.650116   -8795.3238   -384.26021 
  115200    254.90209   -8737.7682    37.230921   -8774.9991   -37918.385 
  115400    275.16256   -8745.1207     40.19016   -8785.3109   -17229.742 
  115600    268.95644   -8747.1888    39.283695   -8786.4725    34762.325 
  115800    299.65116   -8744.8597    43.766957   -8788.6267   -5943.5404 
  116000    327.74708    -8731.824    47.870638   -8779.6947    26124.401 
  116200     265.2422   -8749.0659    38.741194   -8787.8071    12775.208 
  116400    277.68876   -8742.8527    40.559135   -8783.4118   -7424.6251 
  116600    361.96626   -8727.6852     52.86868   -8780.5538   -14355.766 
  116800    269.35175   -8749.8462    39.341434   -8789.1876    16067.012 
  117000    312.58523   -8740.3944    45.656102   -8786.0505   -952.25046 
  117200    308.15251   -8741.1862    45.008661   -8786.1949   -25253.149 
  117400    294.68164   -8752.3916    43.041109   -8795.4327    21654.625 
  117600    264.40511   -8740.8056    38.618929   -8779.4245    28938.271 
  117800    318.88157   -8738.6276    46.575743   -8785.2033   -754.06457 
  118000    280.40265   -8751.3428    40.955525   -8792.2983    15553.754 
  118200    384.81093   -8731.7695    56.205365   -8787.9748   -38600.116 
  118400    305.54188   -8743.4229    44.627352   -8788.0502   -8741.4607 
  118600    262.43859   -8746.5535    38.331699   -8784.8852   -11293.952 
  118800    303.47537   -8726.2547    44.325519   -8770.5802   -25407.412 
  119000    315.47627   -8743.2401    46.078367   -8789.3185    9900.8797 
  119200    304.84948   -8738.0927    44.526221    -8782.619   -6526.3889 
  119400     325.9347   -8741.4695    47.605922   -8789.0754   -20252.021 
  119600    255.15039   -8747.9546    37.267188   -8785.2217   -15925.473 
  119800    332.50329   -8738.1872    48.565329   -8786.7525    36816.563 
  120000    295.43055   -8742.1056    43.150495   -8785.2561    9448.9213 
  120200    278.28633   -8738.2081    40.646415   -8778.8545    23355.337 
  120400    373.30802   -8722.3954    54.525254   -8776.9206    26857.333 
  120600    296.24397   -8743.2104    43.269303   -8786.4797   -20663.672 
  120800    305.98774   -8747.0867    44.692475   -8791.7792    4200.0818 
  121000    335.33648    -8729.911    48.979144   -8778.8901    8231.1021 
  121200    249.97278   -8742.7518    36.510948   -8779.2628   -14093.533 
  121400    289.20862   -8742.2425    42.241722   -8784.4842   -12417.716 
  121600    347.78027   -8729.1786    50.796679   -8779.9753    9703.1241 
  121800    278.08212   -8743.9789    40.616589   -8784.5955    44642.078 
  122000    306.89333   -8739.5005    44.824745   -8784.3252     13027.75 
  122200    362.76308   -8726.8399    52.985064    -8779.825   -31938.539 
  122400    263.12296   -8741.6192    38.431658   -8780.0508   -8147.2551 
  122600    258.23992   -8747.1827    37.718443   -8784.9011   -55658.119 
  122800    292.11463   -8733.2179    42.666173   -8775.8841    2322.6967 
  123000    312.76389   -8733.8661    45.682197   -8779.5483    16441.595 
  123200     271.4342    -8748.271    39.645595   -8787.9166   -17632.245 
  123400    276.25308   -8739.3346     40.34944    -8779.684   -14170.251 
  123600    342.19594   -8724.5127    49.981034   -8774.4937    20660.203 
  123800    280.29612   -8743.3875    40.939965   -8784.3274   -24516.973 
  124000    263.52951    -8744.658    38.491039    -8783.149   -18564.191 
  124200    370.68766   -8730.9982    54.142525   -8785.1407    22503.269 
  124400    292.16597   -8744.5798    42.673672   -8787.2534    788.38058 
  124600    347.04391    -8744.855    50.689126   -8795.5441    3606.1677 
  124800    269.25442   -8735.5061    39.327218   -8774.8333    36192.648 
  125000    357.77481   -8733.3084    52.256479   -8785.5649    5290.3522 
  125200    278.27929   -8744.8483    40.645388   -8785.4937    24532.671 
  125400    321.24947   -8740.1994    46.921599    -8787.121   -36945.424 
  125600     359.4888   -8732.0738    52.506823   -8784.5806   -1034.4904 
  125800    286.18656   -8750.2915    41.800321   -8792.0918   -10195.532 
  126000    257.37592   -8744.0897    37.592248    -8781.682   -31436.062 
  126200    310.59719   -8724.4823    45.365731   -8769.8481   -33004.964 
  126400    363.87055   -8727.6554    53.146821   -8780.8022    3518.4795 
  126600    295.25733   -8742.4049    43.125194   -8785.5301   -11944.681 
  126800    248.84377   -8749.8012    36.346044   -8786.1473   -6888.5302 
  127000    309.68642   -8740.2346    45.232703   -8785.4673   -15503.359 
  127200    273.61851   -8740.3755    39.964635   -8780.3401    7683.4081 
  127400    230.30515   -8750.7897    33.638299    -8784.428    29029.571 
  127600    313.84826   -8741.9632    45.840581   -8787.8038    25080.202 
  127800    357.75343   -8722.4058    52.253356   -8774.6591   -24427.572 
  128000    284.66404    -8741.708    41.577942   -8783.2859     7561.125 
  128200    281.80087   -8746.4927    41.159749   -8787.6524   -2997.7101 
  128400    302.95663   -8743.3485    44.249753   -8787.5983   -8992.9886 
  128600    277.34876    -8738.181    40.509475   -8778.6904   -24494.263 
  128800    275.69441   -8745.2468     40.26784   -8785.5147   -22270.409 
  129000    338.60842   -8737.0036    49.457042   -8786.4607   -5685.9097 
  129200    403.57649   -8725.9828    58.946257   -8784.9291    14329.649 
  129400     288.9806   -8745.0677    42.208418   -8787.2761    28780.783 
  129600     311.7389   -8744.1762    45.532487   -8789.7087   -23497.638 
  129800    382.94583   -8731.5192     55.93295   -8787.4521   -5465.5543 
  130000    339.66657   -8740.9358    49.611595   -8790.5474    39566.304 
  130200    317.14348   -8743.5701    46.321878   -8789.8919   -1062.6601 
  130400    308.55467   -8739.2419      45.0674   -8784.3093    15076.788 
  130600    317.51071    -8739.461    46.375517   -8785.8365   -20190.105 
  130800    297.18833   -8751.5957    43.407237   -8795.0029     5420.244 
  131000     326.1208   -8739.0415    47.633104   -8786.6746    6654.1804 
  131200     303.5467   -8735.7883    44.335938   -8780.1242   -6502.0548 
  131400    253.95408   -8753.6811    37.092455   -8790.7735   -3758.3212 
  131600    257.52921   -8749.8614    37.614637    -8787.476   -12222.658 
  131800    317.54354   -8737.8905    46.380312   -8784.2709   -13446.348 
  132000    286.20762   -8751.7547    41.803397   -8793.5581    16548.527 
  132200     296.5205   -8740.3428    43.309693   -8783.6525   -11410.756 
  132400    360.40403   -8736.5038    52.640502   -8789.1443    9009.3966 
  132600    278.38515   -8747.8485     40.66085   -8788.5094    2426.6007 
  132800     356.9814   -8731.6676    52.140594   -8783.8082    10916.569 
  133000    282.90317   -8748.2979     41.32075   -8789.6186    5472.1182 
  133200    269.39932   -8745.3906    39.348382   -8784.7389    281.12607 
  133400    339.26536    -8728.506    49.552994    -8778.059    -2497.476 
  133600    252.73813   -8749.8173    36.914853   -8786.7321   -1527.5751 
  133800    345.91173   -8737.6033    50.523761   -8788.1271    -46899.16 
  134000    301.64589    -8739.639    44.058306   -8783.6973    6487.3604 
  134200    297.95727   -8750.1041    43.519547   -8793.6237     2891.096 
  134400     258.3373   -8738.2878    37.732666   -8776.0205   -8539.6794 
  134600    362.28795   -8732.6512    52.915666   -8785.5668    47257.502 
  134800        262.3   -8744.8209    38.311457   -8783.1324     18337.66 
  135000    275.57622   -8744.1154    40.250579    -8784.366    72422.783 
  135200    283.32076   -8752.1851    41.381743   -8793.5669    4462.0688 
  135400     283.1142   -8734.3125    41.351573   -8775.6641   -16475.416 
  135600    316.15655   -8739.3302    46.177728   -8785.5079   -8075.8295 
  135800    297.63799   -8742.9243    43.472914   -8786.3972   -2259.6764 
  136000    317.01667   -8742.7912    46.303358   -8789.0946     9139.599 
  136200    230.25311   -8757.5521    33.630699   -8791.1828     18755.14 
  136400    339.79297   -8742.5818    49.630057   -8792.2119    49914.857 
  136600    266.58991   -8747.2188    38.938041   -8786.1568   -5197.2679 
  136800    356.86674   -8729.3811    52.123846   -8781.5049   -11556.983 
  137000    253.50985   -8749.4847     37.02757   -8786.5123    7167.5773 
  137200    332.23287    -8741.585    48.525831   -8790.1108   -4906.5219 
  137400     355.3354    -8726.988    51.900179   -8778.8882   -7711.8743 
  137600    301.37517   -8747.6561    44.018765   -8791.6748    13194.979 
  137800    257.32546   -8748.0041    37.584878    -8785.589    2909.7161 
  138000    331.39677   -8731.8203    48.403711    -8780.224   -21229.084 
  138200     299.8229    -8742.153    43.792041   -8785.9451    8074.5802 
  138400    263.40416   -8751.2276    38.472731   -8789.7003   -17351.444 
  138600      343.046    -8734.504    50.105193   -8784.6092    2485.9791 
  138800    292.96651   -8745.6241    42.790598   -8788.4147    10012.528 
  139000    330.94371   -8742.5285    48.337537    -8790.866    1996.9648 
  139200    260.77507   -8742.3858    38.088726   -8780.4745      38504.3 
  139400     292.3317   -8745.2074    42.697879   -8787.9052   -20932.394 
  139600    321.38062   -8737.5633    46.940754    -8784.504    4454.5895 
  139800    256.45942   -8751.0421    37.458384   -8788.5005   -11156.496 
  140000    275.14963   -8745.8553    40.188271   -8786.0435    -8459.572 
  140200    322.52439   -8733.5057    47.107814   -8780.6135   -32716.659 
  140400    289.52885   -8745.0451    42.288495   -8787.3335   -6593.7155 
  140600    286.98051   -8739.7774    41.916284   -8781.6937   -5963.1364 
  140800    345.87744   -8733.5598    50.518753   -8784.0786    29072.127 
  141000    269.67992   -8752.3567    39.389367   -8791.7461    25059.403 
  141200    329.94027   -8740.8091    48.190974   -8789.0001   -8229.1077 
  141400    293.34177   -8741.3975    42.845409   -8784.2429   -13622.117 
  141600    265.18758   -8752.2647    38.733217   -8790.9979    15275.209 
  141800    331.36301   -8740.2298    48.398779   -8788.6286   -27761.382 
  142000    313.00557   -8744.6664    45.717497   -8790.3839    5794.1801 
  142200     261.0752   -8749.6197    38.132564   -8787.7523    8341.1134 
  142400    350.71737   -8735.0806    51.225672   -8786.3063     4055.238 
  142600    220.78439   -8751.6039    32.247701   -8783.8516    44341.763 
  142800    345.33349   -8741.2849    50.439303   -8791.7242   -23088.881 
  143000    282.89775   -8740.8704    41.319958   -8782.1903   -8342.4623 
  143200    275.21609   -8752.0327    40.197977   -8792.2307   -7554.6261 
  143400    288.86258   -8744.0729     42.19118   -8786.2641   -38136.913 
  143600    311.02967    -8742.019    45.428897   -8787.4479    36742.254 
  143800    241.22679   -8752.9583    35.233511   -8788.1918    987.09618 
  144000    314.18691   -8740.6271    45.890044   -8786.5172   -4821.6095 
  144200    284.83454   -8742.1434    41.602845   -8783.7463    14736.206 
  144400    214.81329   -8758.0277    31.375564   -8789.4033   -16992.895 
  144600    363.47409   -8743.3116    53.088914   -8796.4005    14151.669 
  144800    289.88997   -8744.5807     42.34124   -8786.9219   -8699.0656 
  145000    306.66442   -8744.7248    44.791311   -8789.5161    18692.552 
  145200    392.36151   -8733.3267    57.308202   -8790.6349    -15132.83 
  145400    283.01939   -8745.4626    41.337726   -8786.8003   -3126.4847 
  145600     293.4598    -8739.302    42.862649   -8782.1647   -36448.239 
  145800     339.2614   -8740.5266    49.552415    -8790.079   -53846.877 
  146000    230.54422   -8750.7444    33.673219   -8784.4177     13078.38 
  146200    315.41105   -8732.6766    46.068841   -8778.7454    19584.153 
  146400    298.43314   -8741.2519    43.589053    -8784.841   -33247.555 
  146600    275.94832   -8744.8235    40.304926   -8785.1284    7438.2004 
  146800    309.91082    -8739.317     45.26548   -8784.5824   -2351.1188 
  147000    272.39979   -8747.2143    39.786629   -8787.0009   -27378.797 
  147200    354.35595   -8740.6923    51.757122   -8792.4494    12831.637 
  147400    345.55672   -8733.7158    50.471908   -8784.1877    11203.843 
  147600    294.63355   -8743.8038    43.034086   -8786.8379    5783.4513 
  147800    313.72245   -8738.0661    45.822204   -8783.8883    15484.653 
  148000    297.36598   -8736.9148    43.433184    -8780.348    9876.2082 
  148200    265.12968   -8750.8345     38.72476   -8789.5592    11931.526 
  148400    315.40954   -8742.1304    46.068621    -8788.199   -21752.017 
  148600    329.58128   -8734.4364     48.13854   -8782.5749   -3237.0164 
  148800    280.18623   -8745.2801    40.923915    -8786.204    3078.3192 
  149000    292.06011   -8742.0946     42.65821   -8784.7528   -11194.528 
  149200    329.55425   -8737.3056    48.134592   -8785.4402   -2056.5649 
  149400    266.33669    -8753.702    38.901056    -8792.603    20560.684 
  149600    346.15598   -8742.1626    50.559436    -8792.722   -3040.8102 
  149800    298.20332   -8739.9354    43.555486   -8783.4909   -13164.083 
  150000    316.69787   -8739.5948    46.256793   -8785.8516   -29114.749 
  150200    283.42259   -8750.9649    41.396616   -8792.3615    -1594.754 
  150400    317.45926   -8736.8442    46.368002   -8783.2122    12533.544 
  150600    324.42819   -8739.5517    47.385881   -8786.9376   -4887.5491 
  150800    251.14224   -8750.1455    36.681758   -8786.8273    1504.8806 
  151000    358.80176   -8734.5154    52.406475   -8786.9218   -1582.4645 
  151200    281.88424   -8740.6099    41.171926   -8781.7819    16865.685 
  151400    297.74859    -8739.344    43.489068    -8782.833   -16922.414 
  151600    271.07938    -8750.877    39.593771   -8790.4708    -22259.52 
  151800    247.00593   -8752.4749    36.077611   -8788.5526   -12371.423 
  152000    300.20713   -8742.3158    43.848161    -8786.164    3526.2575 
  152200    311.33293    -8742.654    45.473192   -8788.1272    25972.065 
  152400    255.49533   -8754.9562     37.31757   -8792.2738    -4520.984 
  152600     257.9222   -8741.0877    37.672038   -8778.7597    33445.027 
  152800    258.22825   -8745.8836    37.716739   -8783.6004   -10391.298 
  153000    270.85779   -8752.4859    39.561406   -8792.0473    32702.158 
  153200    308.51042   -8737.0063    45.060937   -8782.0672   -41801.691 
  153400    276.03045   -8745.9326    40.316923   -8786.2495    5762.3417 
  153600    273.13121   -8742.2317    39.893461   -8782.1252     18200.98 
  153800    331.12509   -8737.8391    48.364029   -8786.2032   -34278.646 
  154000    236.34325   -8753.3949    34.520223   -8787.9151   -34130.637 
  154200    294.05925   -8740.7412    42.950203   -8783.6914    2932.1685 
  154400    243.16966   -8744.2003    35.517286   -8779.7176    33139.805 
  154600    269.34593   -8760.4975    39.340583   -8799.8381    11427.643 
  154800    264.34516   -8747.8472    38.610173   -8786.4574   -717.60466 
  155000     299.2601   -8742.2928    43.709839   -8786.0026     733.7139 
  155200    249.32836   -8742.0462    36.416823    -8778.463    7575.6361 
  155400     309.0805   -8731.1043    45.144203   -8776.2485   -6644.2546 
  155600    253.97011   -8748.7933    37.094796   -8785.8881   -30426.204 
  155800    237.05289   -8743.5805    34.623872   -8778.2044    -9511.079 
  156000    335.91101   -8738.0791    49.063058   -8787.1422    36793.326 
  156200    248.47611   -8746.5865    36.292345   -8782.8789   -24115.779 
  156400    360.05097   -8734.8416    52.588934   -8787.4306   -21808.902 
  156600    261.12462   -8733.8948    38.139781   -8772.0346   -2013.1007 
  156800    269.43974   -8742.0708    39.354285   -8781.4251    349.14616 
  157000    311.90036    -8732.389    45.556071   -8777.9451    7343.5308 
  157200    277.37156   -8744.9528    40.512804   -8785.4656   -27180.187 
  157400    293.98755   -8743.4271    42.939731   -8786.3668    1858.1633 
  157600    346.06492   -8725.5938    50.546135   -8776.1399     17859.81 
  157800    327.68132   -8743.8533    47.861033   -8791.7143   -29122.798 
  158000    282.60825   -8751.1816    41.277673   -8792.4593   -24834.358 
  158200    254.32887    -8734.564    37.147196   -8771.7112   -6109.6406 
  158400    277.73119   -8745.3811    40.565333   -8785.9464    1037.1114 
  158600    314.10665   -8740.8489    45.878321   -8786.7272    -21100.78 
  158800    293.65577   -8745.2321    42.891272   -8788.1233   -11331.767 
  159000    279.68421   -8747.3714     40.85059    -8788.222   -2957.3302 
  159200    332.25106   -8736.0136    48.528488   -8784.5421   -10963.779 
  159400    252.62841    -8750.055    36.898828   -8786.9538   -38204.102 
  159600    299.33371   -8739.2416    43.720589   -8782.9622   -34190.788 
  159800      291.675   -8738.1149    42.601961   -8780.7168    17619.418 
  160000    283.01583   -8752.3549    41.337205   -8793.6921   -5079.9879 
  160200    327.21846   -8743.6853    47.793428   -8791.4788   -25546.827 
  160400    318.33014   -8736.5272    46.495202   -8783.0224    7748.5485 
  160600    271.15941   -8753.8486     39.60546   -8793.4541    8294.4548 
  160800    294.15618   -8743.9551    42.964361   -8786.9195    2689.6104 
  161000    256.80502   -8745.8947    37.508862   -8783.4035   -24260.098 
  161200    252.55979   -8749.4597    36.888805   -8786.3485    -1068.233 
  161400    299.58747   -8736.1249    43.757654   -8779.8825   -35335.637 
  161600    271.08603   -8739.5431    39.594742   -8779.1378    23764.933 
  161800    288.25377   -8738.5791    42.102258   -8780.6813    45793.107 
  162000    304.11889   -8739.9479    44.419512   -8784.3674    13964.298 
  162200    271.94012   -8755.5925     39.71949    -8795.312    64592.564 
  162400    352.29733   -8740.4543    51.456439   -8791.9107    16465.445 
  162600    314.54425   -8747.9535    45.942236   -8793.8958    3710.5246 
  162800    287.43792   -8745.7615    41.983094   -8787.7445   -5535.9698 
  163000    336.10729   -8729.1691    49.091727   -8778.2608    13802.246 
  163200    271.22949   -8744.6512    39.615696   -8784.2669   -15680.089 
  163400    261.07945    -8741.443    38.133185   -8779.5761     9104.734 
  163600    307.72684    -8729.579    44.946488   -8774.5255    9038.0924 
  163800    287.30983   -8737.2051    41.964385   -8779.1694   -6351.7002 
  164000    310.40179    -8748.037     45.33719   -8793.3741    37996.097 
  164200    335.39035   -8742.4562    48.987011   -8791.4432   -2504.4769 
  164400    346.44805   -8729.8503    50.602096   -8780.4524   -6642.1462 
  164600    240.24473   -8747.7829    35.090071    -8782.873   -24099.637 
  164800    307.81174   -8741.5566    44.958888   -8786.5155    16290.314 
  165000    336.80168   -8739.1686    49.193149   -8788.3618   -2622.7177 
  165200    266.50878   -8751.2972    38.926191   -8790.2234   -33697.193 
  165400     301.4873    -8746.509    44.035142   -8790.5442    28381.969 
  165600    371.23748   -8727.6255    54.222832   -8781.8484   -725.91866 
  165800    292.77439   -8742.3559    42.762537   -8785.1185    3096.2071 
  166000    277.33817   -8744.0321    40.507928     -8784.54    4372.0337 
  166200     276.8985   -8747.4475     40.44371   -8787.8913   -1953.1944 
  166400    279.41123   -8731.1464    40.810718   -8771.9571    5827.9553 
  166600    324.76473   -8742.0977    47.435037   -8789.5327    19764.485 
  166800    303.30359   -8742.1603    44.300429   -8786.4607   -322.59066 
  167000    390.83123   -8727.9699    57.084689   -8785.0545     10661.88 
  167200    283.54148   -8749.6833    41.413981   -8791.0973   -23481.708 
  167400    274.08863   -8743.9175      40.0333   -8783.9508   -23545.259 
  167600    300.56644   -8740.0568    43.900642   -8783.9574   -6420.8136 
  167800    241.08636   -8755.4257    35.212999   -8790.6387    14895.867 
  168000    256.72371   -8739.2345    37.496987   -8776.7315    22748.287 
  168200    342.11722   -8739.8243    49.969536   -8789.7939    2348.3445 
  168400    255.79036   -8752.0588    37.360661   -8789.4194   -5502.1094 
  168600    304.34614   -8742.5685    44.452703   -8787.0212    27183.026 
  168800    368.10056   -8737.2412    53.764655   -8791.0058    1387.8439 
  169000    215.11405   -8752.7555    31.419493    -8784.175    12773.086 
  169200    279.32899   -8733.0613    40.798707   -8773.8601   -25750.102 
  169400    311.68408   -8736.5668    45.524481   -8782.0913    9558.0753 
  169600    264.58493   -8750.1412    38.645193   -8788.7864    11316.976 
  169800     267.1103   -8752.1304    39.014048   -8791.1444    6166.3306 
  170000    292.87982   -8738.2469    42.777937   -8781.0248    -5076.648 
  170200    297.26792   -8741.2014     43.41886   -8784.6203   -9653.7822 
  170400    278.10721   -8756.2968    40.620254   -8796.9171   -11423.848 
  170600    290.64372   -8737.2851    42.451333   -8779.7365   -14596.212 
  170800    285.95243   -8735.8334    41.766123   -8777.5996    -3303.395 
  171000    254.63414   -8751.1103    37.191784   -8788.3021   -7490.5457 
  171200    244.99281   -8745.9287    35.783574   -8781.7122   -62690.783 
  171400    301.50931   -8742.7622    44.038357   -8786.8006   -1155.0785 
  171600    300.40633   -8742.5458    43.877256   -8786.4231    9559.4278 
  171800     313.7329   -8742.5335    45.823732   -8788.3572    20824.344 
  172000    277.52855   -8747.1512    40.535735   -8787.6869    21310.121 
  172200    323.36463   -8735.6868    47.230539   -8782.9174   -1294.8091 
  172400    252.48789    -8744.138    36.878303   -8781.0163    3990.3602 
  172600    328.93608   -8725.8232    48.044303   -8773.8675    28462.101 
  172800    344.79628   -8738.7871    50.360838   -8789.1479    7013.8606 
  173000    302.88938   -8745.2303    44.239929   -8789.4703    8282.6973 
  173200    264.79343    -8751.671    38.675646   -8790.3467    27326.741 
  173400    343.83661   -8736.7018     50.22067   -8786.9225   -10926.898 
  173600    304.86021   -8743.2508    44.527788   -8787.7786    16161.031 
  173800    280.40813   -8749.0896    40.956326    -8790.046    10958.122 
  174000    308.97066   -8736.7617    45.128159   -8781.8899   -18215.905 
  174200    344.83404   -8738.6668    50.366353   -8789.0331    1350.7697 
  174400    340.02921   -8739.5132    49.664562   -8789.1778     7193.832 
  174600    247.96593   -8760.4704    36.217827   -8796.6883    3800.3182 
  174800    307.67124   -8741.2189    44.938366   -8786.1573   -7400.0268 
  175000    268.55062   -8739.9873    39.224421   -8779.2117    1185.7729 
  175200    261.52635   -8752.9676    38.198458    -8791.166   -8335.3397 
  175400    293.36311   -8741.9146    42.848526   -8784.7631   -22139.985 
  175600    337.60401   -8734.8169    49.310337   -8784.1273   -759.72481 
  175800    281.00151   -8749.8466    41.042995   -8790.8896    12711.984 
  176000    308.58454   -8743.8887    45.071763   -8788.9605   -10123.181 
  176200    314.50023   -8740.7739    45.935807   -8786.7097    23648.226 
  176400    201.63352   -8753.1448     29.45053   -8782.5954   -27760.641 
  176600     291.5141   -8739.7605     42.57846    -8782.339   -4665.7772 
  176800    274.83324   -8744.7085    40.142058   -8784.8506     11225.81 
  177000    270.99571   -8748.1238     39.58155   -8787.7054   -39120.972 
  177200    285.34886   -8740.2371    41.677967   -8781.9151   -20734.076 
  177400    261.51463   -8747.6482    38.196747   -8785.8449    626.82362 
  177600    363.22968   -8735.9697    53.053215   -8789.0229    24987.591 
  177800    347.39365   -8745.4042     50.74021   -8796.1444    3708.2297 
  178000    309.16699   -8748.7783    45.156835   -8793.9351   -17663.061 
[...]
  950000    277.90861   -8848.5692    40.591246   -8889.1604    15321.813 
  950200    322.78572   -8843.0605    47.145983   -8890.2065   -4429.9974 
  950400    352.27316   -8831.9504    51.452909   -8883.4033    33349.605 
  950600    283.12202   -8839.6309    41.352715   -8880.9836   -30914.652 
  950800    325.65234   -8828.6652     47.56468   -8876.2298    25044.057 
  951000      358.052   -8831.2358    52.296964   -8883.5327   -9522.2075 
  951200     283.7319   -8842.3849    41.441794   -8883.8267    2789.7866 
  951400    280.26078   -8834.3757    40.934804   -8875.3105   -14891.249 
  951600    385.62665   -8824.7799     56.32451   -8881.1045    13513.401 
  951800    230.23693   -8843.0675    33.628336   -8876.6958    53132.816 
  952000    280.36993   -8840.2848    40.950746   -8881.2356    17809.803 
  952200    316.58368   -8826.7551    46.240115   -8872.9952   -12777.659 
  952400      306.523    -8841.953    44.770656   -8886.7236   -3264.2749 
  952600    250.75521   -8847.9045    36.625229   -8884.5297    7121.0321 
  952800    350.30512   -8829.6902    51.165457   -8880.8557    21779.684 
  953000    311.37871   -8838.7313    45.479879   -8884.2112    5388.3422 
  953200    282.22897   -8844.1304    41.222277   -8885.3526    30534.628 
  953400    413.61283    -8820.185    60.412162   -8880.5972   -24995.009 
  953600     312.4258   -8836.6893    45.632816   -8882.3221    16523.673 
  953800    317.73556   -8844.0764    46.408359   -8890.4848   -18900.993 
  954000    294.15862   -8838.3844    42.964717   -8881.3491    17316.049 
  954200    318.72736   -8834.1931     46.55322   -8880.7464   -10617.534 
  954400    313.35523    -8848.013    45.768569   -8893.7815    6157.8594 
  954600    288.46408   -8841.7868    42.132974   -8883.9198    20473.687 
  954800    320.91315   -8834.4791    46.872476   -8881.3516    10867.239 
  955000    377.26645   -8820.2289    55.103422   -8875.3323    20543.054 
  955200    301.99884   -8841.2335    44.109857   -8885.3434   -31011.405 
  955400    277.33478   -8843.5363    40.507432   -8884.0437   -11587.733 
  955600    336.18364    -8826.274    49.102879   -8875.3769   -11463.985 
  955800    217.99688   -8841.2783    31.840557   -8873.1188    -2861.911 
  956000    337.24559   -8837.8232    49.257987   -8887.0812   -3636.4472 
  956200    289.41021    -8835.582    42.271166   -8877.8532   -18565.715 
  956400    273.18547   -8849.4631    39.901385   -8889.3645    -14161.04 
  956600    325.98097   -8835.2098     47.61268   -8882.8225     5624.761 
  956800    280.98475   -8840.8015    41.040546   -8881.8421   -19658.042 
  957000     308.5976   -8842.9263    45.073671        -8888    25576.341 
  957200    347.13369   -8842.6798    50.702239    -8893.382   -5760.0295 
  957400    307.89834   -8833.4281    44.971537   -8878.3996    4209.2929 
  957600    314.03137   -8832.6096    45.867326   -8878.4769    12414.481 
  957800    320.96418   -8843.8164    46.879929   -8890.6963    13247.761 
  958000    356.70006     -8826.57    52.099501   -8878.6695    8582.0562 
  958200     320.6302   -8829.7505    46.831148   -8876.5817   -22257.496 
  958400    312.37015   -8841.6695    45.624688   -8887.2942    11218.418 
  958600    271.20162   -8844.7426    39.611625   -8884.3542   -3097.3974 
  958800    305.12263   -8841.9919    44.566117    -8886.558   -9692.5124 
  959000    384.27756   -8832.1016    56.127463    -8888.229   -16802.757 
  959200    269.75032   -8846.7617    39.399649   -8886.1613    2264.0989 
  959400    268.51283   -8841.3789    39.218901   -8880.5978   -24161.269 
  959600    350.51029    -8827.294    51.195425   -8878.4895   -5983.6772 
  959800    309.06481    -8839.618    45.141911   -8884.7599    49739.739 
  960000    237.61181   -8847.6529    34.705508   -8882.3584     8994.512 
  960200    346.11522   -8832.1193    50.553483   -8882.6727   -20326.497 
  960400    342.97197   -8840.9484     50.09438   -8891.0428     9031.593 
  960600    210.88525   -8855.5646    30.801835   -8886.3664    8517.6303 
  960800    287.94508   -8849.4624     42.05717   -8891.5196    4932.1801 
  961000    300.32342   -8837.3782    43.865146   -8881.2434    12887.334 
  961200    318.69861   -8827.5541     46.54902   -8874.1031    6430.6407 
  961400    360.41719   -8830.1114    52.642424   -8882.7539    20767.766 
  961600    310.83604   -8842.5042    45.400616   -8887.9048     26008.35 
  961800     323.2576   -8832.3289    47.214906   -8879.5438   -29720.277 
  962000    346.73917   -8832.3372    50.644616   -8882.9818    -2836.233 
  962200    268.52822   -8843.3891    39.221149   -8882.6102    12528.173 
  962400    286.71006   -8837.0131    41.876783   -8878.8898   -46302.776 
  962600    326.17479   -8828.8782     47.64099   -8876.5192    14178.226 
  962800     306.7509   -8839.4734    44.803942   -8884.2774    27216.613 
  963000    220.67348   -8844.4935      32.2315    -8876.725   -2090.5222 
  963200     324.9895   -8833.4279    47.467866   -8880.8958   -38694.071 
  963400     288.8468   -8841.6556    42.188874   -8883.8444   -5345.8633 
  963600    356.41621   -8837.8541    52.058042   -8889.9122    16573.662 
  963800    333.17158   -8826.7506    48.662939   -8875.4135   -10574.274 
  964000    270.89146   -8845.7346    39.566324    -8885.301    3796.6093 
  964200    345.85134   -8837.8337     50.51494   -8888.3486     8212.311 
  964400    334.99921    -8823.542    48.929881   -8872.4718   -12876.189 
  964600    291.00103   -8834.2415    42.503521    -8876.745   -31460.148 
  964800     297.9765   -8844.5633    43.522356   -8888.0856    15958.687 
  965000    373.70339   -8830.6415    54.583003   -8885.2245    19430.209 
  965200    251.99748   -8848.8064    36.806674   -8885.6131    7939.9333 
  965400    305.44209   -8840.1114    44.612778   -8884.7242    -8731.249 
  965600    288.71822    -8830.421    42.170094   -8872.5911    26253.765 
  965800    350.52276   -8823.4134    51.197246   -8874.6106    26817.329 
  966000    341.57966    -8839.443    49.891019   -8889.3341    35786.723 
  966200    266.15504   -8850.9892    38.874523   -8889.8637    -11470.39 
  966400    333.99611   -8831.1972    48.783369   -8879.9806   -5209.2625 
  966600     268.0314   -8840.4328    39.148583   -8879.5814   -27520.724 
  966800    324.77402   -8847.1655    47.436394   -8894.6019    16480.144 
  967000    302.89702   -8843.6702    44.241046   -8887.9113   -23836.873 
  967200    347.53323   -8829.4279    50.760597   -8880.1885    19148.769 
  967400    244.51372   -8847.8215    35.713599   -8883.5351   -22052.986 
  967600    299.48461   -8842.5211     43.74263   -8886.2638    -5901.463 
  967800     320.6251   -8832.3601    46.830404   -8879.1905    26757.181 
  968000    246.03684   -8851.8012    35.936065   -8887.7372    16886.309 
  968200    289.21181   -8846.9434    42.242188   -8889.1855   -10346.892 
  968400    337.57656   -8833.7044    49.306329   -8883.0107   -8815.2527 
  968600    269.26602   -8841.3849    39.328912   -8880.7138   -11330.704 
  968800    266.06615   -8852.3167     38.86154   -8891.1782   -3588.6633 
  969000    319.52007   -8836.4375    46.669002   -8883.1065   -1823.8213 
  969200     310.6319   -8839.1521    45.370799   -8884.5229    55833.238 
  969400    249.66112   -8848.7585    36.465426    -8885.224   -1575.4412 
  969600    309.72685   -8829.2864    45.238608    -8874.525    -18899.45 
  969800     258.7445   -8842.0433    37.792142   -8879.8354   -15822.254 
  970000    277.92407   -8848.7434    40.593504   -8889.3369    35205.132 
  970200    366.60262   -8828.7633    53.545867   -8882.3091    19166.135 
  970400    278.94771   -8843.6833    40.743017   -8884.4264    1825.0763 
  970600    316.50986   -8835.4419    46.229333   -8881.6713    10184.298 
  970800     369.5484   -8821.0718    53.976126   -8875.0479   -20058.437 
  971000    279.09392   -8842.6768    40.764372   -8883.4412    45920.375 
  971200    343.02739   -8834.0252    50.102475   -8884.1277    8002.6272 
  971400    312.03553   -8843.1354    45.575813   -8888.7112    4169.9566 
  971600    340.99709   -8835.1523     49.80593   -8884.9582   -26611.482 
  971800    309.46206   -8832.6627    45.199933   -8877.8626   -23435.609 
  972000    325.16783   -8842.4662    47.493913   -8889.9601    12414.955 
  972200    242.79985    -8853.691    35.463272   -8889.1542   -14678.892 
  972400    327.86629   -8837.6892    47.888049   -8885.5773   -32902.088 
  972600    345.96488   -8832.8163    50.531524   -8883.3479    6450.8507 
  972800    278.74208   -8848.8288    40.712983   -8889.5418   -16398.879 
  973000    302.88649   -8841.5151    44.239508   -8885.7546   -11524.158 
  973200    333.28311   -8829.6256    48.679228   -8878.3049    713.51067 
  973400    277.40286   -8843.9548    40.517377   -8884.4721   -11537.293 
  973600    271.52029   -8848.4948     39.65817    -8888.153    21171.171 
  973800     278.4746   -8838.8822    40.673915   -8879.5561   -20885.141 
  974000    283.73786   -8840.9448    41.442665   -8882.3874   -25150.417 
  974200    216.63173   -8852.5991    31.641164   -8884.2403   -11394.105 
  974400    315.02277   -8841.9209    46.012129   -8887.9331     41934.33 
  974600    343.93252   -8827.8128    50.234678   -8878.0474    4966.4723 
  974800    270.77373    -8847.172    39.549128   -8886.7212    6627.1857 
  975000    256.63096   -8840.8845    37.483439   -8878.3679    26360.432 
  975200    330.85617   -8825.5631    48.324751   -8873.8879    40678.254 
  975400    286.56576   -8842.8218    41.855706   -8884.6775    15472.816 
  975600    301.02743   -8842.6302    43.967974   -8886.5981    14451.234 
  975800    338.99917   -8829.6507    49.514115   -8879.1648    35447.234 
  976000     256.6337   -8842.0721    37.483839    -8879.556   -22752.672 
  976200    301.27497    -8835.446     44.00413   -8879.4501    2889.5318 
  976400    323.99975   -8836.6846    47.323304   -8884.0079   -863.86213 
  976600    273.52538   -8846.8324    39.951032   -8886.7835    4541.6057 
  976800      345.101   -8829.5598    50.405346   -8879.9652   -8479.6638 
  977000    296.96692   -8840.5884    43.374897   -8883.9633   -26925.809 
  977200    335.73661   -8840.7097    49.037587   -8889.7473   -2857.1329 
  977400    289.07847   -8843.7341    42.222712   -8885.9569   -19269.093 
  977600    333.02092    -8824.483    48.640933   -8873.1239     17747.73 
  977800    324.37837   -8840.5065    47.378605   -8887.8851   -17909.021 
  978000    323.42674   -8843.3044     47.23961    -8890.544    7062.6644 
  978200    352.92144   -8824.4402    51.547597   -8875.9878    3312.5967 
  978400    286.53982   -8829.2575    41.851918   -8871.1095    -42706.52 
  978600    316.76742   -8842.8343    46.266951   -8889.1012    30904.772 
  978800    284.60317   -8845.7352    41.569052   -8887.3043    4936.6758 
  979000    306.73339   -8838.2071    44.801385   -8883.0084   -12723.821 
  979200    261.41679   -8846.8769    38.182456   -8885.0594    13748.865 
  979400    279.69195   -8828.9907    40.851719   -8869.8424    12493.292 
  979600    319.29846   -8838.2643    46.636634   -8884.9009    2370.7526 
  979800    269.83669   -8842.2322    39.412264   -8881.6445   -732.00019 
  980000     333.7317   -8831.6635    48.744749   -8880.4083    12201.534 
  980200    249.90277   -8849.8158    36.500721   -8886.3165   -2444.3111 
  980400     290.4631   -8836.4286    42.424951   -8878.8536    9662.0795 
  980600    314.58798   -8841.0141    45.948623   -8886.9627   -20521.396 
  980800    276.89615   -8851.0425    40.443366   -8891.4859    21758.084 
  981000    315.75683   -8839.1264    46.119345   -8885.2457   -5752.4217 
  981200    307.33382   -8839.0181    44.889084   -8883.9072   -14253.614 
  981400    259.47201   -8842.1846    37.898402   -8880.0831   -4786.9741 
  981600    272.81246   -8840.5968    39.846903   -8880.4437    7392.9137 
  981800    314.79776   -8831.8706    45.979265   -8877.8498   -6572.7507 
  982000    284.62212   -8846.9826    41.571819   -8888.5544    -9111.374 
  982200    308.51574   -8837.4291    45.061714   -8882.4908   -23966.348 
  982400    372.61103   -8830.4403    54.423452   -8884.8638   -13338.575 
  982600    236.04347   -8846.4172    34.476436   -8880.8936   -27666.724 
  982800    301.29291   -8839.4576    44.006749   -8883.4644   -30881.521 
  983000    288.89511   -8835.5607     42.19593   -8877.7566   -26445.782 
  983200    270.54751   -8853.9524    39.516086   -8893.4685    2924.8504 
  983400    286.47597   -8841.1426    41.842592   -8882.9852    28340.246 
  983600    287.75304    -8838.722     42.02912   -8880.7511    13976.283 
  983800    275.81478   -8846.9272    40.285422   -8887.2126    1443.8785 
  984000    352.24924   -8840.3029    51.449415   -8891.7523    45995.161 
  984200    326.71777     -8825.73    47.720297   -8873.4503    29907.099 
  984400    273.20631   -8841.5995     39.90443   -8881.5039    26336.967 
  984600    322.23988   -8842.4473    47.066257   -8889.5135   -24436.875 
  984800    245.28047   -8851.7303     35.82559   -8887.5559   -25607.917 
  985000    318.62831   -8834.2592    46.538753    -8880.798   -20573.283 
  985200    319.50827   -8832.4827    46.667279     -8879.15    14280.134 
  985400    299.08399   -8851.1654    43.684116   -8894.8495    21121.999 
  985600    304.14602   -8838.0901    44.423474   -8882.5136   -9772.3291 
  985800    320.87857   -8834.6904    46.867425   -8881.5578    -19788.11 
  986000    237.44918   -8847.0998    34.681754   -8881.7816    19884.768 
  986200    341.65969   -8838.7134     49.90271   -8888.6161    13484.553 
  986400     288.9403   -8839.0427    42.202531   -8881.2452    14792.601 
  986600    287.94131   -8844.0911    42.056619   -8886.1477    23014.123 
  986800    298.20374   -8840.0684    43.555547   -8883.6239    2843.5093 
  987000    310.37318   -8833.5611    45.333012   -8878.8941    2237.8057 
  987200     246.6292   -8848.5072    36.022586   -8884.5298   -7409.7393 
  987400    361.45929   -8826.1429    52.794632   -8878.9375    20442.074 
  987600    300.01066   -8830.4862    43.819465   -8874.3056   -11156.606 
  987800    295.32085   -8842.2251    43.134472   -8885.3595    31019.601 
  988000    326.56208   -8841.7185    47.697558   -8889.4161   -13736.595 
  988200    332.07265   -8827.2824     48.50243   -8875.7848   -46483.542 
  988400    256.78616   -8842.0943    37.506107   -8879.6004    8887.1864 
  988600    344.02126   -8831.3325     50.24764   -8881.5802   -8537.7354 
  988800    331.16522   -8820.8562     48.36989    -8869.226    26029.951 
  989000     235.7741   -8842.4794    34.437092   -8876.9165    25504.065 
  989200      342.392   -8834.8802     50.00967   -8884.8898   -18617.145 
  989400    268.42037   -8845.9154    39.205396   -8885.1208    7462.3448 
  989600    353.73099   -8831.3729     51.66584   -8883.0387    8722.2296 
  989800    248.46274   -8848.2141    36.290392   -8884.5045    14447.715 
  990000    287.87238   -8847.5267    42.046551   -8889.5732    14701.929 
  990200    296.72745   -8835.5859    43.339919   -8878.9258    10711.868 
  990400    302.33395   -8834.4254    44.158804   -8878.5842    33452.954 
  990600    248.07656   -8849.8344    36.233986   -8886.0683   -20977.762 
  990800    307.07078     -8836.87    44.850663   -8881.7206   -9904.4271 
  991000    254.22076    -8844.382    37.131406   -8881.5134   -1431.3982 
  991200    369.07036   -8833.1208    53.906304   -8887.0271   -5578.1505 
  991400    306.03962   -8836.9097    44.700053   -8881.6098    19112.776 
  991600    291.61456   -8842.1106    42.593132   -8884.7037    13551.984 
  991800    294.71931   -8839.2505    43.046612   -8882.2971   -25110.574 
  992000    277.35091   -8838.5842    40.509789    -8879.094    31491.856 
  992200     352.7325   -8821.4019        51.52   -8872.9219    34321.546 
  992400    270.04632   -8838.0371    39.442883     -8877.48    2015.7563 
  992600     271.5658   -8839.3368    39.664818   -8879.0016    16115.661 
  992800    247.62724   -8852.9261    36.168358   -8889.0944    26221.513 
  993000    281.49328   -8840.1448    41.114822   -8881.2596   -10599.982 
  993200    343.89059   -8837.2396    50.228554   -8887.4682    4064.1662 
  993400    277.08453   -8846.3496    40.470881   -8886.8205   -8191.2512 
  993600    332.72233    -8827.333    48.597322   -8875.9304   -43544.941 
  993800    297.40372   -8841.1018    43.438696   -8884.5404    15306.146 
  994000    319.65503   -8841.9275    46.688716   -8888.6162   -17387.987 
  994200     339.1639   -8831.6098    49.538175    -8881.148    27775.044 
  994400    299.22983    -8833.284    43.705417   -8876.9894     552.8211 
  994600    281.93735   -8845.3069    41.179682   -8886.4866   -5664.0537 
  994800    305.95165    -8834.741    44.687204   -8879.4282    38185.447 
  995000    283.42497   -8833.7669    41.396964   -8875.1638   -8480.0781 
  995200    258.86003   -8839.1718    37.809016   -8876.9808      24165.9 
  995400    292.47002   -8839.4659    42.718081    -8882.184   -37094.801 
  995600    279.19308   -8845.4388    40.778855   -8886.2177    22637.453 
  995800    340.66712   -8831.1664    49.757734   -8880.9242   -13543.015 
  996000     275.0285   -8842.2025    40.170579    -8882.373    25265.946 
  996200    274.24505   -8848.0793    40.056148   -8888.1355   -7997.3202 
  996400    276.34912   -8834.5889    40.363468   -8874.9524   -35719.308 
  996600    282.05812   -8838.7569    41.197322   -8879.9542    16417.027 
  996800    294.02788   -8849.3351    42.945622   -8892.2807    36196.477 
  997000    324.96548   -8836.5052    47.464358   -8883.9696   -15639.217 
  997200    286.00754   -8837.7562    41.774173   -8879.5304   -15565.948 
  997400    343.26238    -8828.242    50.136797   -8878.3788    -19748.83 
  997600    239.25196   -8838.6153    34.945068   -8873.5604    15301.739 
  997800    270.99897    -8840.737    39.582026    -8880.319   -20369.733 
  998000    234.59762   -8854.0686    34.265256   -8888.3339   -25911.658 
  998200    307.06164   -8837.8388    44.849328   -8882.6882    -20596.59 
  998400    330.56303   -8840.0415    48.281935   -8888.3234    29970.632 
  998600    322.42833    -8834.734    47.093782   -8881.8278   -17041.956 
  998800    298.07518   -8834.1999    43.536769   -8877.7367     -22975.3 
  999000     281.3243   -8846.7054     41.09014   -8887.7956    6691.5596 
  999200    336.66016   -8837.6735     49.17248    -8886.846     8385.537 
  999400    290.42702   -8834.8839    42.419681   -8877.3036   -6537.6308 
  999600    317.17324   -8838.4849    46.326226   -8884.8111    4400.3968 
  999800    200.18915   -8850.9551    29.239566   -8880.1946    23888.044 
 1000000    302.49477    -8838.015    44.182294   -8882.1973   -19075.212 
Loop time of 2307.93 on 8 procs for 1000000 steps with 50 atoms

Performance: 9.359 ns/day, 2.564 hours/ns, 433.288 timesteps/s
99.4% CPU use with 8 MPI tasks x no OpenMP threads

MPI task timing breakdown:
Section |  min time  |  avg time  |  max time  |%varavg| %total
---------------------------------------------------------------
Pair    | 1973.7     | 1986.4     | 2000.6     |  21.5 | 86.07
Neigh   | 0.096631   | 0.097273   | 0.097788   |   0.1 |  0.00
Comm    | 29.425     | 43.524     | 56.253     | 145.0 |  1.89
Output  | 0.08824    | 0.095502   | 0.14351    |   5.9 |  0.00
Modify  | 276.13     | 276.23     | 276.31     |   0.4 | 11.97
Other   |            | 1.614      |            |       |  0.07

Nlocal:    6.25 ave 7 max 6 min
Histogram: 6 0 0 0 0 0 0 0 0 2
Nghost:    584.375 ave 593 max 574 min
Histogram: 1 0 1 1 0 1 2 0 0 2
Neighs:    815.75 ave 913 max 769 min
Histogram: 1 5 0 0 0 0 0 0 0 2

Total # of neighbors = 6526
Ave neighs/atom = 130.52
Neighbor list builds = 144
Dangerous builds = 0

unfix 1
unfix output
undump 1

Please see the log.cite file for references relevant to this simulation

Total wall time: 0:38:33
