ITEM: TIMESTEP
0
ITEM: NUMBER OF ATOMS
129
ITEM: BOX BOUNDS xy xz yz pp pp pp
0.0000000000000000e+00 2.3654499999999999e+01 7.8845000000000001e+00
0.0000000000000000e+00 1.3658086643083999e+01 0.0000000000000000e+00
0.0000000000000000e+00 2.5747000000000000e+01 0.0000000000000000e+00
ITEM: ATOMS id type x y z 
18 1 10.522 6.683 2.644 
28 1 5.247 4.273 12.803 
31 1 9.65 6.514 0.446 
62 1 9.171 5.15 12.405 
91 1 9.65 6.514 11.889 
92 1 10.81 6.18 11.007 
106 1 10.522 6.683 9.691 
127 1 10.81 6.18 1.328 
4 1 4.402 5.735 13.319 
5 1 3.307 5.568 14.201 
43 1 4.549 6.796 15.517 
52 1 9.172 5.15 25.677 
66 1 4.402 5.735 24.762 
67 1 5.003 6.76 23.881 
88 1 5.247 4.273 25.278 
107 1 3.307 5.568 23.881 
116 1 4.549 6.796 22.565 
117 1 5.003 6.76 14.201 
11 1 11.272 7.494 3.321 
12 1 10.477 8.871 4.018 
14 1 9.018 11.397 0.446 
15 1 10.114 11.565 1.328 
16 1 8.412 9.024 0.654 
19 1 10.477 8.871 5.569 
29 1 10.927 10.156 3.321 
32 1 8.77 7.648 1.328 
35 1 12.036 9.594 2.644 
45 1 9.231 8.963 3.321 
47 1 12.762 8.702 0.446 
49 1 11.224 11 0.654 
51 1 8.872 10.337 2.644 
53 1 11.272 7.494 9.014 
54 1 10.477 8.871 8.317 
56 1 9.018 11.397 11.889 
57 1 8.418 10.372 11.007 
58 1 11.224 11 11.681 
60 1 12.255 7.901 9.691 
61 1 10.477 8.871 6.766 
73 1 9.231 8.963 9.014 
75 1 12.762 8.702 11.889 
76 1 12.202 10.061 11.007 
79 1 9.224 7.617 9.691 
80 1 8.174 12.859 12.405 
89 1 10.927 10.156 9.014 
93 1 8.412 9.024 11.681 
95 1 9.951 11.095 9.691 
105 1 10.114 11.565 11.007 
109 1 8.77 7.648 11.007 
110 1 12.036 9.594 9.691 
114 1 8.872 10.337 9.691 
119 1 8.418 10.372 1.328 
120 1 12.255 7.901 2.644 
123 1 12.202 10.061 1.328 
124 1 9.224 7.617 2.644 
128 1 9.951 11.095 2.644 
6 1 5.009 8.108 13.527 
13 1 9.663 10.28 25.128 
17 1 9.204 8.965 25.162 
30 1 10.016 7.556 25.128 
34 1 11.289 7.464 25.162 
36 1 8.174 12.859 25.677 
46 1 11.752 8.777 25.128 
50 1 10.937 10.184 25.162 
55 1 9.663 10.28 12.954 
59 1 10.937 10.184 12.919 
74 1 11.752 8.777 12.954 
78 1 11.289 7.464 12.919 
90 1 10.016 7.556 12.954 
94 1 9.204 8.965 12.919 
101 1 5.009 8.108 24.555 
33 1 11.795 6.589 0.654 
77 1 11.795 6.589 11.681 
41 1 17.967 6.132 13.527 
68 1 17.967 6.132 24.554 
103 1 19.24 6.037 22.565 
126 1 19.24 6.037 15.517 
3 1 19.528 6.852 12.254 
7 1 19.987 8.167 12.289 
10 1 15.106 8.528 12.804 
22 1 19.175 9.576 12.254 
26 1 17.902 9.668 12.289 
38 1 17.439 8.356 12.254 
42 1 18.254 6.949 12.289 
44 1 20.019 11.982 12.804 
48 1 12.546 7.4 1.328 
65 1 19.528 6.852 0.081 
69 1 18.254 6.949 0.046 
82 1 17.439 8.356 0.081 
86 1 17.902 9.668 0.046 
96 1 14.084 8.604 12.405 
98 1 19.175 9.576 0.081 
102 1 19.987 8.167 0.046 
113 1 12.546 7.4 11.007 
129 2 19.987 8.167 11.189 
1 1 17.919 9.638 16.194 
2 1 18.714 8.261 16.892 
8 1 18.669 10.449 15.517 
9 1 18.714 8.261 18.442 
20 1 14.084 8.604 25.677 
21 1 18.264 6.977 16.194 
23 1 19.541 10.618 13.32 
24 1 20.421 9.484 14.201 
25 1 17.396 10.544 13.527 
27 1 17.155 7.538 15.517 
37 1 19.96 8.169 16.194 
39 1 16.429 8.43 13.319 
40 1 16.644 9.732 14.201 
63 1 17.919 9.638 21.888 
64 1 18.714 8.261 21.19 
70 1 16.936 9.231 22.565 
71 1 18.714 8.261 19.64 
72 1 20.019 11.982 25.278 
81 1 19.96 8.169 21.888 
83 1 16.429 8.43 24.762 
84 1 16.989 7.071 23.881 
85 1 17.396 10.544 24.555 
87 1 19.967 9.515 22.565 
97 1 18.263 6.977 21.888 
99 1 19.541 10.618 24.762 
100 1 18.38 10.953 23.881 
104 1 15.106 8.528 25.278 
108 1 18.669 10.449 22.565 
111 1 20.421 9.484 23.881 
112 1 17.155 7.538 22.565 
115 1 16.644 9.732 23.881 
118 1 16.936 9.231 15.517 
121 1 16.989 7.071 14.201 
122 1 19.967 9.515 15.517 
125 1 18.38 10.953 14.201 
ITEM: TIMESTEP
10
ITEM: NUMBER OF ATOMS
129
ITEM: BOX BOUNDS xy xz yz pp pp pp
0.0000000000000000e+00 2.3654499999999999e+01 7.8845000000000001e+00
0.0000000000000000e+00 1.3658086643083999e+01 0.0000000000000000e+00
0.0000000000000000e+00 2.5747000000000000e+01 0.0000000000000000e+00
ITEM: ATOMS id type x y z 
18 1 10.3837 6.66434 2.61585 
28 1 5.11799 4.53991 12.8775 
31 1 9.40178 6.51202 0.423411 
62 1 9.1802 5.27293 12.3488 
91 1 9.39952 6.51409 11.9088 
92 1 10.696 6.15473 10.9871 
106 1 10.3928 6.68051 9.70943 
127 1 10.6868 6.14923 1.35617 
4 1 4.47584 5.73909 13.2354 
5 1 3.18599 5.63076 14.2557 
43 1 4.5828 6.92374 15.5034 
52 1 9.17977 5.26997 25.7315 
66 1 4.43089 5.77579 24.8315 
67 1 5.11036 6.92432 23.8903 
88 1 5.10716 4.5579 25.1949 
107 1 3.1556 5.62036 23.881 
116 1 4.58335 6.95569 22.6118 
117 1 5.04469 6.91963 14.1751 
11 1 11.1511 7.5556 3.42426 
12 1 10.5141 8.82869 4.11542 
14 1 8.98304 11.3477 0.388168 
15 1 10.2452 11.512 1.34708 
16 1 8.39638 8.91945 0.702274 
19 1 10.4731 8.86891 5.5541 
29 1 10.9276 10.1448 3.31837 
32 1 8.74537 7.67281 1.28027 
35 1 12.0441 9.5844 2.60553 
45 1 9.23903 8.98857 3.27956 
47 1 12.7382 8.83825 0.533453 
49 1 11.3538 10.9338 0.651313 
51 1 8.83601 10.1973 2.59073 
53 1 11.1861 7.58079 8.94528 
54 1 10.5381 8.8225 8.22438 
56 1 8.9882 11.3407 11.9424 
57 1 8.32584 10.2042 11.0343 
58 1 11.347 10.9309 11.6666 
60 1 12.2887 8.10434 9.6922 
61 1 10.4734 8.86918 6.78403 
73 1 9.22374 8.98022 9.04305 
75 1 12.7448 8.8305 11.7793 
76 1 12.265 10.0674 11.019 
79 1 9.25051 7.66525 9.76879 
80 1 8.31426 12.5729 12.321 
89 1 10.941 10.1235 9.00946 
93 1 8.38778 8.9185 11.6206 
95 1 10.0603 11.0562 9.68662 
105 1 10.2512 11.5113 11.0146 
109 1 8.75354 7.66631 11.0549 
110 1 12.0466 9.5453 9.7208 
114 1 8.81652 10.2016 9.75406 
119 1 8.31988 10.1969 1.30477 
120 1 12.3432 8.09288 2.66728 
123 1 12.2748 10.0459 1.30184 
124 1 9.24842 7.683 2.57799 
128 1 10.0524 11.0333 2.63754 
6 1 4.99247 8.18412 13.564 
13 1 9.62652 10.2616 25.086 
17 1 9.14243 8.9506 25.1409 
30 1 9.94493 7.71379 25.1264 
34 1 11.2799 7.5021 25.178 
36 1 8.31487 12.5718 25.7618 
46 1 11.6499 8.84705 25.0799 
50 1 10.992 10.1064 25.1885 
55 1 9.60988 10.2773 12.9743 
59 1 11.0049 10.1513 12.9145 
74 1 11.6336 8.82939 13.0325 
78 1 11.2671 7.4612 12.8946 
90 1 9.98958 7.70884 12.953 
94 1 9.10967 8.95489 12.9657 
101 1 5.01495 8.15621 24.5557 
33 1 11.7862 6.6898 0.613037 
77 1 11.7826 6.69686 11.7019 
41 1 17.8513 6.17678 13.5717 
68 1 17.8613 6.20627 24.5674 
103 1 19.1567 6.0869 22.5679 
126 1 19.1604 6.09182 15.559 
3 1 19.4726 6.81433 12.2211 
7 1 20.0925 8.21246 12.1915 
10 1 15.1359 8.48103 12.8776 
22 1 19.1224 9.49186 12.2749 
26 1 17.9066 9.64833 12.2535 
38 1 17.6353 8.32677 12.1956 
42 1 18.2521 6.99681 12.2647 
44 1 20.0209 11.8852 12.8531 
48 1 12.6237 7.53852 1.35079 
65 1 19.5655 6.86206 0.109333 
69 1 18.2101 6.98932 0.00897563 
82 1 17.5199 8.29228 0.150356 
86 1 17.9311 9.63717 -0.00375669 
96 1 14.0461 8.67035 12.3448 
98 1 19.3153 9.42392 -0.00206986 
102 1 20.0771 8.14006 0.0569447 
113 1 12.6057 7.53355 10.9458 
129 2 20.0743 8.15459 11.0787 
1 1 17.8652 9.56137 16.2527 
2 1 18.6809 8.29657 17.0102 
8 1 18.8257 10.3742 15.5454 
9 1 18.7177 8.26453 18.4243 
20 1 14.0743 8.67912 25.7243 
21 1 18.2389 6.9841 16.2145 
23 1 19.8288 10.6202 13.2618 
24 1 20.4804 9.41557 14.152 
25 1 17.3409 10.4657 13.4934 
27 1 17.1548 7.53975 15.4778 
37 1 19.9677 8.19336 16.1642 
39 1 16.4549 8.29459 13.4121 
40 1 16.5587 9.63806 14.2042 
63 1 17.8495 9.5432 21.8355 
64 1 18.6904 8.29665 21.0824 
70 1 16.9209 9.08957 22.4787 
71 1 18.7192 8.2642 19.6798 
72 1 20.0299 11.909 25.248 
81 1 19.9441 8.19785 21.9512 
83 1 16.4251 8.31134 24.6467 
84 1 16.9239 7.07019 23.8868 
85 1 17.3906 10.4462 24.6162 
87 1 19.9684 9.42844 22.6696 
97 1 18.2449 7.00172 21.8738 
99 1 19.7819 10.7169 24.7956 
100 1 18.4834 10.9949 23.8338 
104 1 15.0995 8.45474 25.2394 
108 1 18.8211 10.3972 22.5459 
111 1 20.4196 9.44808 24.0041 
112 1 17.1566 7.53137 22.5984 
115 1 16.6066 9.60032 23.8656 
118 1 16.9222 9.06641 15.6307 
121 1 16.9194 7.06105 14.1777 
122 1 19.9846 9.48715 15.4322 
125 1 18.4883 11.0211 14.2708 
ITEM: TIMESTEP
20
ITEM: NUMBER OF ATOMS
129
ITEM: BOX BOUNDS xy xz yz pp pp pp
0.0000000000000000e+00 2.3654499999999999e+01 7.8845000000000001e+00
0.0000000000000000e+00 1.3658086643083999e+01 0.0000000000000000e+00
0.0000000000000000e+00 2.5747000000000000e+01 0.0000000000000000e+00
ITEM: ATOMS id type x y z 
18 1 10.3833 6.68575 2.62525 
28 1 5.10767 4.57014 12.8842 
31 1 9.39786 6.56596 0.424023 
62 1 9.15485 5.25492 12.361 
91 1 9.42119 6.54952 11.8941 
92 1 10.6784 6.19085 10.989 
106 1 10.3936 6.67027 9.71021 
127 1 10.6637 6.1386 1.32736 
4 1 4.43879 5.77736 13.2702 
5 1 3.17629 5.65479 14.2301 
43 1 4.57426 6.95726 15.4971 
52 1 9.19567 5.25927 25.7527 
66 1 4.41579 5.80653 24.8061 
67 1 5.09247 6.92237 23.8992 
88 1 5.09404 4.58982 25.1884 
107 1 3.17022 5.64468 23.8876 
116 1 4.57393 6.96023 22.6104 
117 1 5.03699 6.94096 14.1768 
11 1 11.1724 7.55256 3.37929 
12 1 10.4994 8.8429 4.08281 
14 1 9.00023 11.3088 0.405202 
15 1 10.247 11.4846 1.31669 
16 1 8.37792 8.91086 0.688721 
19 1 10.4717 8.86781 5.56249 
29 1 10.9607 10.1383 3.32423 
32 1 8.72083 7.67675 1.28514 
35 1 12.0598 9.57571 2.60783 
45 1 9.2229 8.98423 3.27955 
47 1 12.7187 8.84101 0.521723 
49 1 11.3604 10.933 0.660912 
51 1 8.8345 10.186 2.59245 
53 1 11.1709 7.55919 8.95479 
54 1 10.5061 8.8403 8.25542 
56 1 9 11.3078 11.9271 
57 1 8.34136 10.1885 11.0381 
58 1 11.3583 10.9298 11.6791 
60 1 12.2875 8.08654 9.67891 
61 1 10.4742 8.86883 6.77466 
73 1 9.21614 8.97917 9.05654 
75 1 12.7137 8.83323 11.8071 
76 1 12.2825 10.0824 11.0043 
79 1 9.24213 7.67738 9.74186 
80 1 8.32514 12.5432 12.315 
89 1 10.9549 10.1354 9.0057 
93 1 8.37612 8.90948 11.6444 
95 1 10.0509 11.0392 9.69877 
105 1 10.2468 11.4865 11.0164 
109 1 8.72928 7.66867 11.0587 
110 1 12.0594 9.58096 9.72749 
114 1 8.84035 10.1844 9.74074 
119 1 8.33988 10.1899 1.29556 
120 1 12.2861 8.08491 2.65193 
123 1 12.2856 10.0751 1.32424 
124 1 9.24937 7.67002 2.59693 
128 1 10.0516 11.0354 2.63775 
6 1 5.00781 8.19358 13.5761 
13 1 9.61814 10.2495 25.087 
17 1 9.13885 8.93758 25.1485 
30 1 9.91838 7.72073 25.106 
34 1 11.2806 7.51222 25.1922 
36 1 8.3279 12.5378 25.7691 
46 1 11.6692 8.84559 25.079 
50 1 10.9901 10.1297 25.1807 
55 1 9.61927 10.2555 12.9846 
59 1 10.9975 10.1343 12.9135 
74 1 11.6464 8.8396 13.0055 
78 1 11.2819 7.50965 12.891 
90 1 9.93239 7.72835 12.9757 
94 1 9.12514 8.93729 12.9398 
101 1 5.05178 8.16964 24.5472 
33 1 11.7722 6.71779 0.62478 
77 1 11.7732 6.69313 11.6978 
41 1 17.8446 6.17842 13.5825 
68 1 17.8335 6.20091 24.5528 
103 1 19.1549 6.09917 22.574 
126 1 19.1634 6.09105 15.5559 
3 1 19.459 6.81236 12.2226 
7 1 20.1216 8.19415 12.1582 
10 1 15.1389 8.46753 12.8629 
22 1 19.1199 9.50968 12.2631 
26 1 17.9072 9.66121 12.2648 
38 1 17.5819 8.30977 12.2271 
42 1 18.2664 6.97971 12.2721 
44 1 19.9941 11.8663 12.8922 
48 1 12.5974 7.55826 1.38756 
65 1 19.567 6.85511 0.125846 
69 1 18.1927 7.00841 0.0269113 
82 1 17.5421 8.29294 0.117562 
86 1 17.9217 9.60998 -0.00572929 
96 1 14.0518 8.67778 12.3615 
98 1 19.3144 9.40867 0.0174658 
102 1 20.0862 8.15354 0.0680493 
113 1 12.5979 7.55886 10.9458 
129 2 20.0941 8.16083 11.0606 
1 1 17.861 9.56053 16.2333 
2 1 18.6988 8.28325 16.9791 
8 1 18.8177 10.3627 15.5078 
9 1 18.7191 8.26532 18.4371 
20 1 14.0494 8.69184 25.7317 
21 1 18.2339 7.00828 16.2225 
23 1 19.8052 10.5912 13.3016 
24 1 20.4861 9.43067 14.1466 
25 1 17.3928 10.4523 13.5436 
27 1 17.1395 7.5225 15.4736 
37 1 19.9622 8.1969 16.15 
39 1 16.4959 8.31397 13.392 
40 1 16.6101 9.59274 14.2359 
63 1 17.859 9.55435 21.8455 
64 1 18.6965 8.28797 21.1132 
70 1 16.9284 9.10387 22.4931 
71 1 18.7204 8.26551 19.6547 
72 1 20.018 11.9204 25.2329 
81 1 19.9571 8.19993 21.9493 
83 1 16.4578 8.30808 24.6699 
84 1 16.9157 7.059 23.8738 
85 1 17.4133 10.4264 24.5934 
87 1 19.9597 9.45458 22.6723 
97 1 18.2399 7.00017 21.8692 
99 1 19.7782 10.6874 24.7896 
100 1 18.5202 10.9912 23.8379 
104 1 15.1294 8.44161 25.2304 
108 1 18.8164 10.3623 22.5699 
111 1 20.45 9.44505 23.9964 
112 1 17.1398 7.5136 22.6025 
115 1 16.6141 9.5788 23.8398 
118 1 16.9325 9.09548 15.5904 
121 1 16.9269 7.05413 14.1937 
122 1 19.9842 9.47073 15.4398 
125 1 18.5263 10.9716 14.2302 
ITEM: TIMESTEP
30
ITEM: NUMBER OF ATOMS
129
ITEM: BOX BOUNDS xy xz yz pp pp pp
0.0000000000000000e+00 2.3654499999999999e+01 7.8845000000000001e+00
0.0000000000000000e+00 1.3658086643083999e+01 0.0000000000000000e+00
0.0000000000000000e+00 2.5747000000000000e+01 0.0000000000000000e+00
ITEM: ATOMS id type x y z 
18 1 10.3731 6.68568 2.60542 
28 1 5.10304 4.59494 12.8896 
31 1 9.39091 6.62238 0.420056 
62 1 9.11449 5.25789 12.3742 
91 1 9.42679 6.5767 11.8963 
92 1 10.6595 6.22255 10.9931 
106 1 10.3756 6.67383 9.6975 
127 1 10.6186 6.15429 1.30577 
4 1 4.41693 5.81355 13.2916 
5 1 3.1591 5.66802 14.2346 
43 1 4.56415 6.9673 15.4851 
52 1 9.23066 5.24636 25.796 
66 1 4.40318 5.84497 24.8061 
67 1 5.09318 6.9381 23.8986 
88 1 5.08873 4.61124 25.1857 
107 1 3.1604 5.67197 23.8877 
116 1 4.56519 6.96482 22.608 
117 1 5.0477 6.96921 14.1804 
11 1 11.1595 7.55269 3.37065 
12 1 10.5003 8.84533 4.06386 
14 1 9.01229 11.2672 0.404425 
15 1 10.2585 11.4559 1.31397 
16 1 8.33996 8.89599 0.678016 
19 1 10.4719 8.86748 5.56436 
29 1 10.9594 10.1278 3.33092 
32 1 8.68437 7.67154 1.29608 
35 1 12.0794 9.58345 2.61153 
45 1 9.21481 8.97685 3.28283 
47 1 12.6904 8.86156 0.517952 
49 1 11.384 10.9307 0.650073 
51 1 8.84749 10.1841 2.59752 
53 1 11.1579 7.56471 8.95434 
54 1 10.4989 8.8458 8.26877 
56 1 9.01089 11.2659 11.9289 
57 1 8.34365 10.1638 11.0372 
58 1 11.3824 10.9315 11.686 
60 1 12.2833 8.09894 9.67023 
61 1 10.4731 8.86687 6.77177 
73 1 9.21564 8.97697 9.05063 
75 1 12.6951 8.85961 11.819 
76 1 12.3075 10.0896 11.0017 
79 1 9.21837 7.65908 9.7334 
80 1 8.33266 12.5138 12.3104 
89 1 10.9586 10.1304 9.00299 
93 1 8.34685 8.88809 11.6573 
95 1 10.0544 11.0375 9.69403 
105 1 10.2579 11.4581 11.02 
109 1 8.70426 7.65802 11.0553 
110 1 12.0792 9.58717 9.7237 
114 1 8.84636 10.1833 9.73995 
119 1 8.34168 10.1707 1.29962 
120 1 12.2807 8.09406 2.6645 
123 1 12.3148 10.0862 1.33036 
124 1 9.22494 7.65369 2.60698 
128 1 10.0551 11.0364 2.64147 
6 1 5.02149 8.20407 13.5495 
13 1 9.62127 10.2369 25.077 
17 1 9.12219 8.92911 25.1423 
30 1 9.92135 7.72905 25.073 
34 1 11.2696 7.52077 25.2031 
36 1 8.33338 12.5127 25.7723 
46 1 11.6733 8.85373 25.088 
50 1 10.9989 10.1471 25.1779 
55 1 9.62136 10.2345 12.9929 
59 1 11.0004 10.1503 12.9149 
74 1 11.6643 8.85284 12.9967 
78 1 11.2653 7.52372 12.8786 
90 1 9.91594 7.72005 12.991 
94 1 9.11773 8.92333 12.9421 
101 1 5.0985 8.17719 24.5593 
33 1 11.7433 6.72331 0.635753 
77 1 11.7701 6.71231 11.7025 
41 1 17.8205 6.17823 13.5741 
68 1 17.8083 6.19754 24.5604 
103 1 19.1524 6.10074 22.5657 
126 1 19.1603 6.09602 15.5576 
3 1 19.4608 6.8258 12.2051 
7 1 20.1414 8.1876 12.1364 
10 1 15.1498 8.45415 12.8476 
22 1 19.1183 9.48835 12.2332 
26 1 17.9175 9.67663 12.2701 
38 1 17.5435 8.29484 12.2365 
42 1 18.2585 6.96241 12.2923 
44 1 19.9614 11.8838 12.9361 
48 1 12.5732 7.58942 1.38017 
65 1 19.561 6.86237 0.135204 
69 1 18.1858 6.9826 0.027569 
82 1 17.5462 8.29057 0.100633 
86 1 17.9307 9.61322 -0.012875 
96 1 14.0573 8.68234 12.3782 
98 1 19.3237 9.39199 0.0153926 
102 1 20.1137 8.14841 0.0887698 
113 1 12.5824 7.58961 10.9468 
129 2 20.1276 8.17262 11.0341 
1 1 17.864 9.55651 16.2261 
2 1 18.6945 8.29281 16.9766 
8 1 18.8271 10.3583 15.4957 
9 1 18.7213 8.26744 18.4367 
20 1 14.0484 8.69247 25.7222 
21 1 18.2333 7.01611 16.223 
23 1 19.8112 10.5447 13.3093 
24 1 20.5214 9.4374 14.153 
25 1 17.4362 10.4407 13.5639 
27 1 17.1205 7.51341 15.4857 
37 1 19.9661 8.20167 16.156 
39 1 16.5268 8.30145 13.3751 
40 1 16.6318 9.56276 14.2428 
63 1 17.8648 9.55346 21.8513 
64 1 18.6969 8.29008 21.1173 
70 1 16.9338 9.09132 22.4875 
71 1 18.7218 8.26716 19.6574 
72 1 19.9758 11.9547 25.1927 
81 1 19.9612 8.20347 21.9487 
83 1 16.4899 8.29745 24.6773 
84 1 16.8898 7.05358 23.8656 
85 1 17.4446 10.4131 24.5697 
87 1 19.97 9.46115 22.6754 
97 1 18.2381 7.00969 21.8679 
99 1 19.7914 10.6445 24.7941 
100 1 18.565 10.9978 23.8625 
104 1 15.1318 8.43837 25.2415 
108 1 18.8218 10.3553 22.5928 
111 1 20.4805 9.44044 24.0042 
112 1 17.1187 7.50851 22.5945 
115 1 16.6214 9.55033 23.8342 
118 1 16.9329 9.08361 15.5978 
121 1 16.9093 7.05388 14.2043 
122 1 19.9967 9.47059 15.4394 
125 1 18.5714 10.96 14.2122 
ITEM: TIMESTEP
40
ITEM: NUMBER OF ATOMS
129
ITEM: BOX BOUNDS xy xz yz pp pp pp
0.0000000000000000e+00 2.3654499999999999e+01 7.8845000000000001e+00
0.0000000000000000e+00 1.3658086643083999e+01 0.0000000000000000e+00
0.0000000000000000e+00 2.5747000000000000e+01 0.0000000000000000e+00
ITEM: ATOMS id type x y z 
18 1 10.3603 6.68758 2.6087 
28 1 5.09729 4.61694 12.8956 
31 1 9.37836 6.64266 0.407879 
62 1 9.08788 5.26409 12.3819 
91 1 9.41728 6.58471 11.9012 
92 1 10.6548 6.23555 10.9915 
106 1 10.3648 6.67781 9.69867 
127 1 10.6134 6.17256 1.30884 
4 1 4.41289 5.82771 13.2978 
5 1 3.1479 5.67275 14.2346 
43 1 4.56062 6.97322 15.4831 
52 1 9.23037 5.24171 25.8083 
66 1 4.39902 5.85877 24.8062 
67 1 5.0972 6.95123 23.8935 
88 1 5.08688 4.62288 25.1851 
107 1 3.14699 5.6844 23.8859 
116 1 4.56498 6.96961 22.6116 
117 1 5.04889 6.9846 14.1733 
11 1 11.1506 7.55274 3.36487 
12 1 10.4975 8.84025 4.06926 
14 1 9.01467 11.2482 0.402488 
15 1 10.2703 11.4436 1.31552 
16 1 8.32101 8.88758 0.675241 
19 1 10.472 8.86608 5.56983 
29 1 10.9649 10.1252 3.32908 
32 1 8.66784 7.66526 1.29128 
35 1 12.0876 9.59179 2.61633 
45 1 9.21485 8.9751 3.28302 
47 1 12.6924 8.87537 0.511966 
49 1 11.3949 10.9299 0.647921 
51 1 8.84923 10.1786 2.59589 
53 1 11.1439 7.57594 8.94992 
54 1 10.4936 8.84955 8.26683 
56 1 9.01288 11.2453 11.931 
57 1 8.34412 10.1464 11.0334 
58 1 11.3924 10.9297 11.6876 
60 1 12.2742 8.10954 9.66895 
61 1 10.4726 8.86597 6.78014 
73 1 9.21981 8.97515 9.04214 
75 1 12.7002 8.87336 11.826 
76 1 12.3255 10.0944 11.0018 
79 1 9.20667 7.65219 9.72779 
80 1 8.33545 12.4972 12.3089 
89 1 10.9616 10.1198 8.99612 
93 1 8.33078 8.87353 11.6591 
95 1 10.0557 11.0307 9.69784 
105 1 10.2702 11.4457 11.0175 
109 1 8.69274 7.65306 11.0538 
110 1 12.0887 9.59326 9.72059 
114 1 8.84865 10.1809 9.74319 
119 1 8.3422 10.1555 1.30407 
120 1 12.2774 8.10401 2.66729 
123 1 12.3338 10.0914 1.33342 
124 1 9.20444 7.64896 2.61161 
128 1 10.0586 11.0319 2.63982 
6 1 5.02914 8.21223 13.5377 
13 1 9.62602 10.228 25.0732 
17 1 9.11348 8.92671 25.1404 
30 1 9.91281 7.73341 25.0614 
34 1 11.2646 7.52064 25.2027 
36 1 8.33562 12.4977 25.7734 
46 1 11.6721 8.86153 25.0891 
50 1 10.9988 10.1521 25.1731 
55 1 9.62447 10.2222 12.9991 
59 1 11.0017 10.1557 12.9166 
74 1 11.6643 8.85947 12.9954 
78 1 11.2625 7.52789 12.8792 
90 1 9.91224 7.7208 13 
94 1 9.11042 8.91747 12.9427 
101 1 5.1199 8.1741 24.5737 
33 1 11.7386 6.72673 0.637732 
77 1 11.7636 6.72403 11.6968 
41 1 17.8089 6.18065 13.5745 
68 1 17.7979 6.19853 24.5564 
103 1 19.1487 6.1056 22.5667 
126 1 19.1596 6.10425 15.5566 
3 1 19.4513 6.82868 12.2006 
7 1 20.149 8.18713 12.1271 
10 1 15.1561 8.44697 12.8434 
22 1 19.1243 9.47656 12.2211 
26 1 17.918 9.67535 12.2679 
38 1 17.5386 8.2992 12.2389 
42 1 18.2624 6.95689 12.2993 
44 1 19.9593 11.8804 12.9547 
48 1 12.5578 7.60392 1.38061 
65 1 19.56 6.86827 0.139398 
69 1 18.181 6.97477 0.0315997 
82 1 17.5461 8.28955 0.0958224 
86 1 17.9436 9.60873 -0.0192725 
96 1 14.0611 8.6839 12.3833 
98 1 19.3336 9.38437 0.0149405 
102 1 20.1325 8.14148 0.0956311 
113 1 12.5774 7.60968 10.9479 
129 2 20.1511 8.18003 11.019 
1 1 17.8658 9.5538 16.2242 
2 1 18.6921 8.30163 16.9791 
8 1 18.843 10.3509 15.5058 
9 1 18.722 8.2698 18.4371 
20 1 14.0479 8.6925 25.718 
21 1 18.2326 7.02125 16.2253 
23 1 19.8204 10.5337 13.3019 
24 1 20.5377 9.44322 14.1431 
25 1 17.4428 10.434 13.568 
27 1 17.1119 7.51151 15.493 
37 1 19.9639 8.20279 16.1567 
39 1 16.5307 8.29239 13.3667 
40 1 16.6483 9.54784 14.2395 
63 1 17.8682 9.55373 21.8586 
64 1 18.6954 8.29718 21.1169 
70 1 16.9325 9.08264 22.4807 
71 1 18.723 8.26859 19.6564 
72 1 19.9465 11.973 25.1632 
81 1 19.9616 8.20745 21.9518 
83 1 16.4902 8.28861 24.6789 
84 1 16.8733 7.05099 23.8652 
85 1 17.4586 10.4108 24.5633 
87 1 19.9798 9.45887 22.6845 
97 1 18.2338 7.01451 21.8687 
99 1 19.8065 10.6371 24.8007 
100 1 18.582 10.9879 23.8687 
104 1 15.1358 8.43699 25.2459 
108 1 18.8323 10.3562 22.6029 
111 1 20.4978 9.43719 24.0083 
112 1 17.111 7.50017 22.589 
115 1 16.6356 9.53741 23.8337 
118 1 16.9303 9.06972 15.6064 
121 1 16.8929 7.05282 14.2074 
122 1 20.0064 9.47139 15.4374 
125 1 18.5862 10.943 14.2165 
ITEM: TIMESTEP
50
ITEM: NUMBER OF ATOMS
129
ITEM: BOX BOUNDS xy xz yz pp pp pp
0.0000000000000000e+00 2.3654499999999999e+01 7.8845000000000001e+00
0.0000000000000000e+00 1.3658086643083999e+01 0.0000000000000000e+00
0.0000000000000000e+00 2.5747000000000000e+01 0.0000000000000000e+00
ITEM: ATOMS id type x y z 
18 1 10.3291 6.69679 2.60648 
28 1 5.09011 4.65958 12.9076 
31 1 9.35116 6.668 0.381189 
62 1 9.02679 5.2827 12.397 
91 1 9.40212 6.59194 11.9105 
92 1 10.6326 6.26416 10.9905 
106 1 10.3394 6.70208 9.69806 
127 1 10.5944 6.19637 1.30654 
4 1 4.39958 5.85574 13.3061 
5 1 3.13136 5.68449 14.2344 
43 1 4.55696 6.98654 15.4756 
52 1 9.22749 5.24217 25.8379 
66 1 4.38975 5.88314 24.7973 
67 1 5.1046 6.9674 23.8978 
88 1 5.07983 4.65539 25.1826 
107 1 3.12986 5.70636 23.8863 
116 1 4.56403 6.97876 22.616 
117 1 5.04902 7.01346 14.1615 
11 1 11.1224 7.56589 3.35924 
12 1 10.4943 8.84296 4.09093 
14 1 9.02407 11.2133 0.404205 
15 1 10.2875 11.4181 1.31166 
16 1 8.28985 8.86849 0.664539 
19 1 10.4732 8.86055 5.6066 
29 1 10.9675 10.1124 3.33341 
32 1 8.63173 7.6575 1.29206 
35 1 12.1124 9.60928 2.62339 
45 1 9.21698 8.96615 3.28619 
47 1 12.6952 8.90109 0.506779 
49 1 11.4181 10.9229 0.642526 
51 1 8.85583 10.1677 2.59447 
53 1 11.1105 7.61311 8.91882 
54 1 10.4682 8.86841 8.29938 
56 1 9.02081 11.2076 11.9324 
57 1 8.34496 10.1167 11.0301 
58 1 11.4133 10.9226 11.6923 
60 1 12.2553 8.139 9.66898 
61 1 10.4706 8.86438 6.81747 
73 1 9.21485 8.96318 8.98428 
75 1 12.708 8.90151 11.8377 
76 1 12.3665 10.1071 11.0048 
79 1 9.18294 7.62622 9.72193 
80 1 8.34445 12.4513 12.3046 
89 1 10.9764 10.0946 8.94903 
93 1 8.3007 8.84735 11.6673 
95 1 10.0579 10.9956 9.70716 
105 1 10.2871 11.4182 11.0144 
109 1 8.66316 7.63667 11.0487 
110 1 12.1192 9.60849 9.71805 
114 1 8.85897 10.1744 9.74718 
119 1 8.33939 10.1265 1.30695 
120 1 12.2565 8.11978 2.6702 
123 1 12.367 10.1097 1.33689 
124 1 9.16628 7.63724 2.61697 
128 1 10.0654 11.0168 2.63775 
6 1 5.04691 8.23021 13.508 
13 1 9.6252 10.2136 25.0723 
17 1 9.08947 8.92191 25.1379 
30 1 9.90406 7.73775 25.0394 
34 1 11.2516 7.52969 25.1994 
36 1 8.34177 12.4592 25.7761 
46 1 11.6658 8.86429 25.0876 
50 1 11.0061 10.1627 25.1638 
55 1 9.62164 10.2046 13.0052 
59 1 11.0029 10.1647 12.919 
74 1 11.6651 8.86454 12.994 
78 1 11.2569 7.53207 12.8822 
90 1 9.91158 7.72631 13.0182 
94 1 9.09465 8.90556 12.9398 
101 1 5.16109 8.17704 24.5974 
33 1 11.7215 6.74885 0.638646 
77 1 11.7491 6.7523 11.6876 
41 1 17.7815 6.18782 13.5738 
68 1 17.7761 6.20914 24.5583 
103 1 19.1415 6.12113 22.5686 
126 1 19.1552 6.1228 15.558 
3 1 19.4426 6.83518 12.1926 
7 1 20.1594 8.18538 12.1021 
10 1 15.1589 8.43068 12.8373 
22 1 19.1351 9.46269 12.1941 
26 1 17.9291 9.67428 12.2675 
38 1 17.5375 8.29473 12.2286 
42 1 18.2563 6.95298 12.3099 
44 1 19.9712 11.8825 12.9852 
48 1 12.5367 7.6339 1.3813 
65 1 19.5601 6.87267 0.144041 
69 1 18.1764 6.96539 0.0364782 
82 1 17.562 8.28573 0.0904771 
86 1 17.9663 9.60449 -0.0279636 
96 1 14.0641 8.69071 12.3882 
98 1 19.3578 9.37101 0.0237799 
102 1 20.162 8.13316 0.105035 
113 1 12.5658 7.64889 10.9478 
129 2 20.2104 8.19639 10.9914 
1 1 17.8711 9.54651 16.2279 
2 1 18.689 8.3164 16.9822 
8 1 18.8632 10.3314 15.5252 
9 1 18.723 8.27622 18.4407 
20 1 14.0506 8.69464 25.7115 
21 1 18.2275 7.03131 16.2297 
23 1 19.8387 10.5171 13.2852 
24 1 20.5736 9.45381 14.1275 
25 1 17.4662 10.4089 13.5684 
27 1 17.0901 7.49987 15.506 
37 1 19.9651 8.20902 16.158 
39 1 16.5384 8.27373 13.3598 
40 1 16.6717 9.51899 14.2445 
63 1 17.8789 9.55148 21.8697 
64 1 18.6927 8.31114 21.1206 
70 1 16.9329 9.06409 22.4678 
71 1 18.7255 8.27459 19.6586 
72 1 19.9135 12.0012 25.1185 
81 1 19.9604 8.21423 21.9565 
83 1 16.4932 8.26859 24.6806 
84 1 16.8385 7.03743 23.8559 
85 1 17.4737 10.4007 24.5579 
87 1 20.0054 9.45549 22.7063 
97 1 18.2287 7.02758 21.8666 
99 1 19.8358 10.6255 24.8086 
100 1 18.611 10.9527 23.8734 
104 1 15.1412 8.43213 25.2518 
108 1 18.8586 10.3443 22.5974 
111 1 20.5388 9.44885 24.0311 
112 1 17.0891 7.48776 22.5809 
115 1 16.6605 9.51445 23.8313 
118 1 16.9325 9.05475 15.6178 
121 1 16.8626 7.03992 14.2224 
122 1 20.0391 9.47172 15.4306 
125 1 18.6136 10.9076 14.2302 
ITEM: TIMESTEP
60
ITEM: NUMBER OF ATOMS
129
ITEM: BOX BOUNDS xy xz yz pp pp pp
0.0000000000000000e+00 2.3654499999999999e+01 7.8845000000000001e+00
0.0000000000000000e+00 1.3658086643083999e+01 0.0000000000000000e+00
0.0000000000000000e+00 2.5747000000000000e+01 0.0000000000000000e+00
ITEM: ATOMS id type x y z 
18 1 10.3187 6.70106 2.60671 
28 1 5.09612 4.65895 12.9068 
31 1 9.3434 6.66998 0.378063 
62 1 9.00737 5.29034 12.4013 
91 1 9.39708 6.59375 11.912 
92 1 10.6259 6.26948 10.9979 
106 1 10.3326 6.69775 9.69486 
127 1 10.5854 6.20053 1.30193 
4 1 4.3959 5.86099 13.3068 
5 1 3.12117 5.69481 14.2392 
43 1 4.5598 6.99127 15.4703 
52 1 9.22433 5.25111 25.847 
66 1 4.38783 5.88766 24.7961 
67 1 5.1068 6.97277 23.8994 
88 1 5.08019 4.661 25.183 
107 1 3.12576 5.71077 23.8862 
116 1 4.56604 6.97978 22.6192 
117 1 5.04854 7.02495 14.1649 
11 1 11.1166 7.56568 3.3581 
12 1 10.4921 8.84194 4.08907 
14 1 9.02543 11.2073 0.407536 
15 1 10.2913 11.4123 1.31056 
16 1 8.28402 8.86493 0.662418 
19 1 10.4736 8.85914 5.59217 
29 1 10.9672 10.1112 3.33388 
32 1 8.62458 7.64913 1.28871 
35 1 12.1186 9.61522 2.62602 
45 1 9.21434 8.96502 3.28804 
47 1 12.6979 8.90619 0.506161 
49 1 11.4229 10.9226 0.641633 
51 1 8.85517 10.1637 2.59364 
53 1 11.1186 7.59244 8.93996 
54 1 10.4757 8.85649 8.28698 
56 1 9.02333 11.1992 11.9294 
57 1 8.34057 10.1064 11.0336 
58 1 11.4206 10.9222 11.6941 
60 1 12.2517 8.14161 9.66544 
61 1 10.4679 8.86433 6.80079 
73 1 9.20291 8.97658 9.00685 
75 1 12.7104 8.90755 11.8375 
76 1 12.3723 10.1121 11.0032 
79 1 9.175 7.6374 9.71596 
80 1 8.3438 12.4423 12.3052 
89 1 10.9625 10.1037 8.97105 
93 1 8.29581 8.84056 11.6665 
95 1 10.0634 11.0034 9.70381 
105 1 10.2904 11.4104 11.02 
109 1 8.6599 7.63235 11.0429 
110 1 12.1259 9.61964 9.7125 
114 1 8.84836 10.1691 9.74619 
119 1 8.33657 10.1207 1.30585 
120 1 12.2489 8.12546 2.66967 
123 1 12.3731 10.1124 1.3358 
124 1 9.15947 7.63537 2.61705 
128 1 10.068 11.0134 2.63655 
6 1 5.05369 8.23373 13.5015 
13 1 9.62476 10.2098 25.0717 
17 1 9.08461 8.92052 25.1367 
30 1 9.90133 7.73982 25.0368 
34 1 11.2511 7.52938 25.1954 
36 1 8.34179 12.4498 25.7758 
46 1 11.6607 8.8643 25.0863 
50 1 11.0061 10.1625 25.1613 
55 1 9.62133 10.1988 13.0068 
59 1 11.0023 10.1625 12.9202 
74 1 11.6631 8.86548 12.9963 
78 1 11.2556 7.53359 12.8863 
90 1 9.91072 7.72687 13.0181 
94 1 9.09213 8.90171 12.9397 
101 1 5.17003 8.1817 24.6006 
33 1 11.7168 6.75596 0.639934 
77 1 11.7455 6.75756 11.6847 
41 1 17.7787 6.18301 13.5806 
68 1 17.7704 6.20991 24.5588 
103 1 19.1407 6.12564 22.5692 
126 1 19.1516 6.12353 15.5525 
3 1 19.4434 6.8412 12.1862 
7 1 20.1591 8.18661 12.0929 
10 1 15.1603 8.42782 12.8378 
22 1 19.1391 9.46032 12.1875 
26 1 17.9327 9.66925 12.2631 
38 1 17.5387 8.29296 12.2262 
42 1 18.2483 6.95649 12.3081 
44 1 19.978 11.8819 12.9936 
48 1 12.5327 7.63944 1.38053 
65 1 19.561 6.87303 0.145092 
69 1 18.1792 6.96696 0.0359239 
82 1 17.5698 8.28643 0.0914301 
86 1 17.9728 9.6033 -0.0278481 
96 1 14.0664 8.69243 12.3893 
98 1 19.3634 9.37133 0.0252459 
102 1 20.165 8.13229 0.106338 
113 1 12.5614 7.65587 10.9482 
129 2 20.2319 8.20093 10.9857 
1 1 17.871 9.5453 16.232 
2 1 18.6893 8.31739 16.9826 
8 1 18.8727 10.3255 15.5236 
9 1 18.7235 8.27892 18.4422 
20 1 14.051 8.69625 25.7117 
21 1 18.2272 7.03697 16.229 
23 1 19.8466 10.5139 13.2805 
24 1 20.579 9.4582 14.1264 
25 1 17.4729 10.4021 13.5747 
27 1 17.0857 7.4965 15.5112 
37 1 19.9665 8.21076 16.1551 
39 1 16.5373 8.26678 13.361 
40 1 16.6755 9.51287 14.2437 
63 1 17.8794 9.55014 21.868 
64 1 18.6937 8.3152 21.121 
70 1 16.9347 9.06019 22.4676 
71 1 18.7259 8.27747 19.6604 
72 1 19.9143 12.0019 25.1108 
81 1 19.9611 8.21443 21.9611 
83 1 16.4928 8.2633 24.6806 
84 1 16.8327 7.03344 23.8533 
85 1 17.4783 10.3948 24.5557 
87 1 20.0148 9.45496 22.7121 
97 1 18.2272 7.03152 21.8688 
99 1 19.8421 10.6259 24.813 
100 1 18.6165 10.9426 23.8716 
104 1 15.1415 8.43097 25.2517 
108 1 18.866 10.339 22.5978 
111 1 20.5499 9.45227 24.0372 
112 1 17.0833 7.48581 22.5782 
115 1 16.6633 9.50973 23.8307 
118 1 16.9336 9.05149 15.619 
121 1 16.8566 7.03889 14.2236 
122 1 20.0483 9.47038 15.4287 
125 1 18.6182 10.9018 14.2317 
ITEM: TIMESTEP
70
ITEM: NUMBER OF ATOMS
129
ITEM: BOX BOUNDS xy xz yz pp pp pp
0.0000000000000000e+00 2.3654499999999999e+01 7.8845000000000001e+00
0.0000000000000000e+00 1.3658086643083999e+01 0.0000000000000000e+00
0.0000000000000000e+00 2.5747000000000000e+01 0.0000000000000000e+00
ITEM: ATOMS id type x y z 
18 1 10.2956 6.70222 2.60274 
28 1 5.1019 4.67596 12.911 
31 1 9.3221 6.67939 0.365466 
62 1 8.95392 5.3055 12.4141 
91 1 9.37989 6.59806 11.9166 
92 1 10.6096 6.27925 11.0049 
106 1 10.3178 6.69128 9.70015 
127 1 10.5696 6.20804 1.29375 
4 1 4.39042 5.87448 13.3068 
5 1 3.11337 5.70664 14.2373 
43 1 4.56077 6.99719 15.4629 
52 1 9.21287 5.25955 25.867 
66 1 4.38473 5.89791 24.7927 
67 1 5.11328 6.98344 23.9052 
88 1 5.08173 4.67485 25.184 
107 1 3.11666 5.72114 23.8865 
116 1 4.57126 6.98189 22.6264 
117 1 5.04497 7.0412 14.1523 
11 1 11.1022 7.56002 3.34982 
12 1 10.4888 8.83588 4.08901 
14 1 9.02813 11.1914 0.41211 
15 1 10.3003 11.401 1.30727 
16 1 8.26921 8.85444 0.656857 
19 1 10.4724 8.85665 5.59032 
29 1 10.9641 10.1066 3.32899 
32 1 8.60245 7.63947 1.28796 
35 1 12.1302 9.63044 2.63077 
45 1 9.20912 8.96532 3.286 
47 1 12.7018 8.91708 0.503494 
49 1 11.4343 10.9208 0.635769 
51 1 8.85137 10.1607 2.58862 
53 1 11.1108 7.59123 8.95462 
54 1 10.4733 8.84629 8.28361 