LAMMPS (3 Mar 2020)
Reading data file ...
  triclinic box = (0 0 0) to (15.77 13.6581 25.747) with tilt (7.8845 0 0)
  2 by 2 by 2 MPI processor grid
  reading atoms ...
  129 atoms
  read_data CPU = 0.0135152 secs
WARNING: Using 'neigh_modify every 1 delay 0 check yes' setting during minimization (../min.cpp:190)
WARNING: Total cutoff < 2*bond cutoff. May need to use an increased neighbor list skin. (../pair_reaxc.cpp:413)
Neighbor list info ...
  update every 1 steps, delay 0 steps, check yes
  max neighbors/atom: 2000, page size: 100000
  master list distance cutoff = 9.5
  ghost atom cutoff = 9.5
  binsize = 4.75, bins = 5 3 6
  2 neighbor lists, perpetual/occasional/extra = 2 0 0
  (1) pair reax/c, perpetual
      attributes: half, newton off, ghost
      pair build: half/bin/newtoff/ghost
      stencil: half/ghost/bin/3d/newtoff
      bin: standard
  (2) fix qeq/reax, perpetual, copy from (1)
      attributes: half, newton off, ghost
      pair build: copy
      stencil: none
      bin: none
Setting up cg style minimization ...
  Unit style    : real
  Current step  : 0
Per MPI rank memory allocation (min/avg/max) = 16.27 | 16.82 | 17.41 Mbytes
Step Temp E_pair E_mol TotEng Press 
       0            0   -19449.112            0   -19449.112    58504.925 
     353            0   -22102.161            0   -22102.161     2565.254 
Loop time of 32.4991 on 8 procs for 353 steps with 129 atoms

99.8% CPU use with 8 MPI tasks x no OpenMP threads

Minimization stats:
  Stopping criterion = energy tolerance
  Energy initial, next-to-last, final = 
        -19449.1120912     -22102.1608898     -22102.1609246
  Force two-norm initial, final = 4980.11 124.654
  Force max component initial, final = 1201.25 37.5259
  Final line search alpha, max atom move = 0.00117977 0.0442719
  Iterations, force evaluations = 353 2129

MPI task timing breakdown:
Section |  min time  |  avg time  |  max time  |%varavg| %total
---------------------------------------------------------------
Pair    | 19.847     | 22.466     | 24.123     |  31.5 | 69.13
Neigh   | 0.0016494  | 0.0018385  | 0.0020097  |   0.3 |  0.01
Comm    | 0.36659    | 2.0162     | 4.6491     | 105.5 |  6.20
Output  | 0.0060004  | 0.0074722  | 0.010453   |   1.6 |  0.02
Modify  | 7.9115     | 7.9129     | 7.9186     |   0.1 | 24.35
Other   |            | 0.09499    |            |       |  0.29

Nlocal:    16.125 ave 38 max 0 min
Histogram: 2 1 1 1 0 1 0 0 0 2
Nghost:    470 ave 514 max 418 min
Histogram: 2 1 1 0 0 0 0 0 1 3
Neighs:    1138 ave 2507 max 0 min
Histogram: 2 1 0 1 1 1 0 0 0 2

Total # of neighbors = 9104
Ave neighs/atom = 70.5736
Neighbor list builds = 1
Dangerous builds = 0
WARNING: Using 'neigh_modify every 1 delay 0 check yes' setting during minimization (../min.cpp:190)
WARNING: Total cutoff < 2*bond cutoff. May need to use an increased neighbor list skin. (../pair_reaxc.cpp:413)
Setting up cg style minimization ...
  Unit style    : real
  Current step  : 353
Per MPI rank memory allocation (min/avg/max) = 16.27 | 16.82 | 17.41 Mbytes
Step Temp E_pair E_mol TotEng Press 
     353            0   -22102.161            0   -22102.161     2565.254 
     428            0   -22105.397            0   -22105.397    3217.9738 
Loop time of 8.99901 on 8 procs for 75 steps with 129 atoms

99.7% CPU use with 8 MPI tasks x no OpenMP threads

Minimization stats:
  Stopping criterion = energy tolerance
  Energy initial, next-to-last, final = 
        -22102.1609246     -22105.3970027     -22105.3971312
  Force two-norm initial, final = 124.654 27.954
  Force max component initial, final = 37.5259 7.88563
  Final line search alpha, max atom move = 9.77152e-05 0.000770546
  Iterations, force evaluations = 75 590

MPI task timing breakdown:
Section |  min time  |  avg time  |  max time  |%varavg| %total
---------------------------------------------------------------
Pair    | 5.5262     | 6.2686     | 6.792      |  16.5 | 69.66
Neigh   | 0          | 0          | 0          |   0.0 |  0.00
Comm    | 0.066407   | 0.58712    | 1.3341     |  54.2 |  6.52
Output  | 0.0011674  | 0.0014428  | 0.0020229  |   0.7 |  0.02
Modify  | 2.115      | 2.1153     | 2.1167     |   0.0 | 23.51
Other   |            | 0.02658    |            |       |  0.30

Nlocal:    16.125 ave 38 max 0 min
Histogram: 2 1 1 0 1 1 0 0 0 2
Nghost:    469.5 ave 514 max 416 min
Histogram: 2 1 1 0 0 0 0 0 0 4
Neighs:    1133.5 ave 2504 max 0 min
Histogram: 2 1 0 1 1 1 0 0 0 2

Total # of neighbors = 9068
Ave neighs/atom = 70.2946
Neighbor list builds = 0
Dangerous builds = 0
WARNING: Using 'neigh_modify every 1 delay 0 check yes' setting during minimization (../min.cpp:190)
WARNING: Total cutoff < 2*bond cutoff. May need to use an increased neighbor list skin. (../pair_reaxc.cpp:413)
Setting up cg style minimization ...
  Unit style    : real
  Current step  : 428
WARNING: Energy due to 3 extra global DOFs will be included in minimizer energies
Per MPI rank memory allocation (min/avg/max) = 16.27 | 16.82 | 17.41 Mbytes
Step Temp E_pair E_mol TotEng Press Volume 
     428            0   -22105.397            0   -22105.397    3217.9738    5545.5955 
     436            0   -22105.496            0   -22105.496    1106.2974    5546.1688 
Loop time of 0.288847 on 8 procs for 8 steps with 129 atoms

100.0% CPU use with 8 MPI tasks x no OpenMP threads

Minimization stats:
  Stopping criterion = energy tolerance
  Energy initial, next-to-last, final = 
        -22105.3971312      -22105.495449     -22105.4955246
  Force two-norm initial, final = 555.217 209.347
  Force max component initial, final = 415.103 137.862
  Final line search alpha, max atom move = 4.26018e-09 5.87316e-07
  Iterations, force evaluations = 8 20

MPI task timing breakdown:
Section |  min time  |  avg time  |  max time  |%varavg| %total
---------------------------------------------------------------
Pair    | 0.19663    | 0.22313    | 0.24292    |   3.2 | 77.25
Neigh   | 0          | 0          | 0          |   0.0 |  0.00
Comm    | 0.0019682  | 0.021663   | 0.048328   |  10.2 |  7.50
Output  | 0.00017257 | 0.0002107  | 0.00030799 |   0.0 |  0.07
Modify  | 0.0415     | 0.04151    | 0.041556   |   0.0 | 14.37
Other   |            | 0.002338   |            |       |  0.81

Nlocal:    16.125 ave 39 max 0 min
Histogram: 2 1 1 1 1 0 0 0 0 2
Nghost:    470.25 ave 516 max 415 min
Histogram: 2 1 1 0 0 0 0 0 1 3
Neighs:    1133.12 ave 2571 max 0 min
Histogram: 2 1 0 1 1 1 0 0 0 2

Total # of neighbors = 9065
Ave neighs/atom = 70.2713
Neighbor list builds = 0
Dangerous builds = 0
WARNING: Using 'neigh_modify every 1 delay 0 check yes' setting during minimization (../min.cpp:190)
WARNING: Total cutoff < 2*bond cutoff. May need to use an increased neighbor list skin. (../pair_reaxc.cpp:413)
Setting up cg style minimization ...
  Unit style    : real
  Current step  : 436
Per MPI rank memory allocation (min/avg/max) = 16.27 | 16.82 | 17.41 Mbytes
Step Temp E_pair E_mol TotEng Press 
     436            0   -22105.496            0   -22105.496    1106.2974 
     495            0   -22111.002            0   -22111.002    90.447212 
Loop time of 6.25344 on 8 procs for 59 steps with 129 atoms

99.7% CPU use with 8 MPI tasks x no OpenMP threads

Minimization stats:
  Stopping criterion = energy tolerance
  Energy initial, next-to-last, final = 
        -22105.4955246     -22111.0016004     -22111.0016134
  Force two-norm initial, final = 82.779 138.327
  Force max component initial, final = 23.806 39.4113
  Final line search alpha, max atom move = 0.00078443 0.0309154
  Iterations, force evaluations = 59 406

MPI task timing breakdown:
Section |  min time  |  avg time  |  max time  |%varavg| %total
---------------------------------------------------------------
Pair    | 3.8122     | 4.3417     | 4.7091     |  13.9 | 69.43
Neigh   | 0          | 0          | 0          |   0.0 |  0.00
Comm    | 0.045393   | 0.41078    | 0.94366    |  45.3 |  6.57
Output  | 0.0011     | 0.0013605  | 0.0018489  |   0.6 |  0.02
Modify  | 1.4808     | 1.4811     | 1.4822     |   0.0 | 23.69
Other   |            | 0.01843    |            |       |  0.29

Nlocal:    16.125 ave 39 max 0 min
Histogram: 2 1 1 1 1 0 0 0 0 2
Nghost:    470.25 ave 516 max 415 min
Histogram: 2 1 1 0 0 0 0 0 1 3
Neighs:    1132.38 ave 2568 max 0 min
Histogram: 2 1 0 1 1 1 0 0 0 2

Total # of neighbors = 9059
Ave neighs/atom = 70.2248
Neighbor list builds = 0
Dangerous builds = 0
WARNING: Using 'neigh_modify every 1 delay 0 check yes' setting during minimization (../min.cpp:190)
WARNING: Total cutoff < 2*bond cutoff. May need to use an increased neighbor list skin. (../pair_reaxc.cpp:413)
Setting up cg style minimization ...
  Unit style    : real
  Current step  : 495
WARNING: Energy due to 3 extra global DOFs will be included in minimizer energies
Per MPI rank memory allocation (min/avg/max) = 16.27 | 16.82 | 17.41 Mbytes
Step Temp E_pair E_mol TotEng Press Volume 
     495            0   -22111.002            0   -22111.002    90.447212    5546.1688 
     515            0   -22111.309            0   -22111.309    -187.8057    5547.0762 
Loop time of 0.464452 on 8 procs for 20 steps with 129 atoms

99.8% CPU use with 8 MPI tasks x no OpenMP threads

Minimization stats:
  Stopping criterion = energy tolerance
  Energy initial, next-to-last, final = 
        -22111.0016134     -22111.3091285     -22111.3092898
  Force two-norm initial, final = 329.45 40.6583
  Force max component initial, final = 233.264 23.9415
  Final line search alpha, max atom move = 3.61258e-06 8.64906e-05
  Iterations, force evaluations = 20 32

MPI task timing breakdown:
Section |  min time  |  avg time  |  max time  |%varavg| %total
---------------------------------------------------------------
Pair    | 0.30613    | 0.35473    | 0.38808    |   4.2 | 76.38
Neigh   | 0          | 0          | 0          |   0.0 |  0.00
Comm    | 0.0034495  | 0.03662    | 0.085501   |  13.2 |  7.88
Output  | 0.00032656 | 0.00039721 | 0.0005666  |   0.0 |  0.09
Modify  | 0.068827   | 0.068852   | 0.068957   |   0.0 | 14.82
Other   |            | 0.003856   |            |       |  0.83

Nlocal:    16.125 ave 40 max 0 min
Histogram: 2 1 1 1 1 0 0 0 0 2
Nghost:    471.875 ave 524 max 412 min
Histogram: 1 2 0 1 0 0 0 0 2 2
Neighs:    1129 ave 2620 max 0 min
Histogram: 2 1 0 1 1 1 0 0 0 2

Total # of neighbors = 9032
Ave neighs/atom = 70.0155
Neighbor list builds = 0
Dangerous builds = 0
WARNING: Using 'neigh_modify every 1 delay 0 check yes' setting during minimization (../min.cpp:190)
WARNING: Total cutoff < 2*bond cutoff. May need to use an increased neighbor list skin. (../pair_reaxc.cpp:413)
Setting up cg style minimization ...
  Unit style    : real
  Current step  : 515
Per MPI rank memory allocation (min/avg/max) = 16.27 | 16.82 | 17.41 Mbytes
Step Temp E_pair E_mol TotEng Press 
     515            0   -22111.309            0   -22111.309    -187.8057 
     532            0   -22111.449            0   -22111.449   -861.88361 
Loop time of 1.97646 on 8 procs for 17 steps with 129 atoms

99.8% CPU use with 8 MPI tasks x no OpenMP threads

Minimization stats:
  Stopping criterion = energy tolerance
  Energy initial, next-to-last, final = 
        -22111.3092898     -22111.4490089     -22111.4491067
  Force two-norm initial, final = 28.8732 41.0382
  Force max component initial, final = 5.52782 7.60452
  Final line search alpha, max atom move = 0.00424958 0.032316
  Iterations, force evaluations = 17 126

MPI task timing breakdown:
Section |  min time  |  avg time  |  max time  |%varavg| %total
---------------------------------------------------------------
Pair    | 1.1926     | 1.3709     | 1.4976     |   8.0 | 69.36
Neigh   | 0          | 0          | 0          |   0.0 |  0.00
Comm    | 0.013305   | 0.13941    | 0.31869    |  25.2 |  7.05
Output  | 0.00042287 | 0.0004852  | 0.00062673 |   0.0 |  0.02
Modify  | 0.45957    | 0.45967    | 0.45999    |   0.0 | 23.26
Other   |            | 0.006006   |            |       |  0.30

Nlocal:    16.125 ave 40 max 0 min
Histogram: 2 1 1 1 1 0 0 0 0 2
Nghost:    472.875 ave 524 max 414 min
Histogram: 1 2 0 1 0 0 0 0 2 2
Neighs:    1128.25 ave 2617 max 0 min
Histogram: 2 1 0 1 1 1 0 0 0 2

Total # of neighbors = 9026
Ave neighs/atom = 69.969
Neighbor list builds = 0
Dangerous builds = 0
WARNING: Total cutoff < 2*bond cutoff. May need to use an increased neighbor list skin. (../pair_reaxc.cpp:413)
Setting up Verlet run ...
  Unit style    : real
  Current step  : 0
  Time step     : 0.25
Per MPI rank memory allocation (min/avg/max) = 15.13 | 15.58 | 16.3 Mbytes
Step Temp TotEng KinEng PotEng Press 
       0          300   -21996.986    114.46311   -22111.449    81.382536 
     200    230.99496   -21955.809     88.13467   -22043.944   -15465.171 
     400    317.08675   -21925.993    120.98245   -22046.975    7456.7105 
     600    322.26651   -21952.677    122.95875   -22075.635   -20085.199 
     800    302.06242   -21952.544    115.25001   -22067.794   -151.76567 
    1000    337.09929   -21934.033     128.6181   -22062.651    22910.087 
    1200    295.99487   -21952.547    112.93497   -22065.482    7031.2559 
    1400    294.11062   -21947.677    112.21605   -22059.893    11004.639 
    1600    311.65009   -21929.574    118.90813   -22048.482   -6053.4976 
    1800    299.57692   -21951.641    114.30168   -22065.942   -13954.587 
    2000    343.56761   -21917.676    131.08605   -22048.763   -10365.756 
    2200    307.46442   -21929.685    117.31111   -22046.996    7371.2638 
    2400    288.33698   -21950.161    110.01315   -22060.174    11183.533 
    2600    322.00996   -21928.635    122.86087   -22051.496     19242.76 
    2800    318.94957    -21925.28    121.69319   -22046.973   -1977.9441 
    3000     305.0899   -21943.697    116.40512   -22060.103    14046.256 
    3200    285.50913   -21988.304    108.93421   -22097.238   -10571.618 
    3400    303.42635   -22014.195    115.77041   -22129.966    18080.084 
    3600    292.43147   -22010.373    111.57538   -22121.948   -1122.7013 
    3800    291.22173   -21994.533    111.11381   -22105.647    6845.7453 
    4000     261.1825   -22027.816    99.652534   -22127.469   -1101.8221 
    4200    278.54043   -22026.563    106.27534   -22132.839    7803.3321 
    4400     296.0956   -21998.498    112.97341   -22111.471   -12304.537 
    4600    306.20103   -22012.126    116.82907   -22128.955    11147.775 
    4800    285.38316   -22019.822    108.88614   -22128.708   -3936.7353 
    5000    305.35317   -22003.097    116.50557   -22119.602    4761.4738 
    5200    290.03305   -21995.949    110.66028    -22106.61    11400.472 
    5400     261.4238   -22024.254    99.744602   -22123.998    4754.3961 
    5600    306.38838   -22002.271    116.90055   -22119.172    2580.2304 
    5800    311.90976   -22002.135     119.0072   -22121.143   -17195.243 
    6000    261.97038   -22012.988    99.953145   -22112.941   -12493.702 
    6200    267.46167   -22007.345    102.04831   -22109.393    2411.3375 
    6400     309.1721   -21994.426    117.96266   -22112.389   -12110.181 
    6600     283.6965   -22024.297    108.24261   -22132.539    13674.741 
    6800    285.85371   -22005.145    109.06568    -22114.21   -1586.2619 
    7000    296.43266   -21997.834    113.10201   -22110.936   -4602.1578 
    7200    294.02945   -22004.288    112.18508   -22116.473    2961.8317 
    7400    319.88652   -22009.573    122.05068   -22131.623   -2181.8111 
    7600    275.41625   -22032.403    105.08333   -22137.487   -26456.196 
    7800    294.17016    -22007.13    112.23877   -22119.369   -1696.7616 
    8000    328.01129   -22000.374    125.15064   -22125.524    20254.555 
    8200    294.15679   -22025.213    112.23367   -22137.446   -10855.355 
    8400    291.31099   -22004.432    111.14787    -22115.58   -940.00286 
    8600    309.30495   -22001.836    118.01335   -22119.849   -6497.6497 
    8800    294.66182    -22019.75    112.42636   -22132.176    12414.982 
    9000    358.13931   -21990.519    136.64579   -22127.164     -23109.7 
    9200    279.28684   -22009.912    106.56013   -22116.472   -7371.4011 
    9400    308.69115   -22010.855    117.77916   -22128.635    8523.2299 
    9600    318.31105   -21986.769    121.44957   -22108.218    298.03332 
    9800    312.44759   -21989.264    119.21241   -22108.477   -2344.0051 
   10000     293.9961     -22012.2    112.17236   -22124.373   -1295.4966 
   10200    316.13162   -22006.103    120.61803   -22126.721     14542.55 
   10400    368.80894   -21984.672    140.71672   -22125.388   -12131.682 
   10600    275.47407   -22013.163    105.10539   -22118.269   -413.65027 
   10800    295.14145   -22000.971    112.60936    -22113.58    1048.2743 
   11000    309.76024   -22004.363    118.18706   -22122.551   -9147.1691 
   11200    293.84717   -22020.629    112.11553   -22132.745   -11890.448 
   11400    288.85007   -21998.934    110.20892   -22109.143   -11505.245 
   11600    293.63553   -22006.153    112.03478   -22118.188   -1433.0977 
   11800    275.53121   -22020.758    105.12719   -22125.886   -29788.494 
   12000    281.88305   -22026.825     107.5507   -22134.376   -3379.9077 
   12200    286.64606   -22003.901    109.36799   -22113.269     28287.41 
   12400    297.17282   -22011.018    113.38441   -22124.402   -198.67794 
   12600    301.41946   -22022.343    115.00469   -22137.347    20893.703 
   12800     280.2796   -21997.464    106.93891   -22104.403   -11272.024 
   13000    277.12734   -22013.257    105.73619   -22118.993   -5.4929146 
   13200    278.42185   -22010.131     106.2301   -22116.361   -7522.2167 
   13400    320.77748   -21991.075    122.39062   -22113.465    16169.486 
   13600    295.66164   -22013.288    112.80783   -22126.096   -787.30505 
   13800     308.4648   -22005.896     117.6928   -22123.589   -4994.5638 
   14000    285.99244   -22002.223    109.11861   -22111.342    4676.5865 
   14200     287.9796   -22009.496     109.8768   -22119.372     1062.437 
   14400    291.69006   -22006.117     111.2925   -22117.409   -4241.9602 
   14600    312.81698   -21980.886    119.35334    -22100.24    9885.5252 
   14800    313.66786    -22007.73    119.67799   -22127.408    18831.368 
   15000    306.28733   -22006.939      116.862   -22123.801    22664.194 
   15200    321.58074   -21990.524     122.6971   -22113.221    875.75086 
   15400    316.14069   -22006.373    120.62149   -22126.995    14780.127 
   15600    302.34135   -22011.415    115.35643   -22126.771   -4271.3832 
   15800    340.90667   -21991.606    130.07079   -22121.677   -843.54815 
   16000    249.75257   -22023.078    95.291517   -22118.369    9903.8207 
   16200    316.81557   -22001.599    120.87898   -22122.478   -13844.224 
   16400    304.12844   -22014.861    116.03829   -22130.899    2680.7748 
   16600    289.74008   -22021.884     110.5485   -22132.433   -2778.8375 
   16800    311.37044    -22002.17    118.80143   -22120.972    18776.364 
   17000    306.51347   -22001.052    116.94828   -22118.001    7540.6516 
   17200    271.93958   -22023.296    103.75683   -22127.053   -20398.777 
   17400    305.18311   -22002.849    116.44069   -22119.289   -9233.8015 
   17600    286.39635    -22004.73    109.27272   -22114.003    21525.394 
   17800    244.38062   -22039.792    93.241884   -22133.034    14482.247 
   18000    285.42255   -22024.219    108.90117    -22133.12    8705.3874 
   18200    331.53622   -21998.981    126.49555   -22125.477    16966.823 
   18400    295.37734   -22007.744    112.69936   -22120.443    6458.4508 
   18600    300.01203   -22018.616     114.4677   -22133.083    5941.9329 
   18800    292.83884   -22002.695    111.73081   -22114.426    4548.3671 
   19000    305.28032   -22005.991    116.47778   -22122.469   -12034.451 
   19200     338.7278   -21992.892    129.23945   -22122.131   -15836.413 
   19400      289.889   -22006.686    110.60532   -22117.292   -10609.962 
   19600    304.32946   -22013.984    116.11499   -22130.099    1801.4746 
   19800    300.34053   -22003.641    114.59303   -22118.234    8943.2175 
   20000    316.16424   -22003.751    120.63047   -22124.382    11634.745 
   20200    259.36302   -22027.418    98.958322   -22126.377   -3377.7605 
   20400    306.41563   -22007.211    116.91095   -22124.122    6066.9008 
   20600    302.67409   -22003.033    115.48339   -22118.516     4074.984 
   20800    296.41864   -22014.823    113.09666    -22127.92    7108.0984 
   21000    326.85188    -21990.42    124.70827   -22115.129    20932.051 
   21200    279.13141    -22005.73    106.50083   -22112.231    25272.557 
   21400    295.00734   -22013.762    112.55819    -22126.32   -11723.121 
   21600    306.62006   -21995.055    116.98895   -22112.044   -22871.821 
   21800     280.5173    -22027.72    107.02961    -22134.75    30559.855 
   22000    285.20176   -22011.814    108.81693   -22120.631   -5800.9229 
   22200    335.09675   -21994.955    127.85405   -22122.809   -24000.397 
   22400     291.9266   -22020.706    111.38275   -22132.089    36908.529 
   22600    245.07316   -22044.482    93.506118   -22137.988   -13780.361 
   22800    281.67176   -22018.582    107.47008   -22126.052    15419.077 
   23000    332.55829   -21993.491    126.88552   -22120.376   -5022.0763 
   23200    290.69236   -22012.786    110.91183   -22123.698    8561.6932 
   23400    281.82865   -22020.006    107.52994   -22127.536    13025.638 
   23600    313.16708   -22010.931    119.48692   -22130.418    17562.151 
   23800    280.50879   -22015.041    107.02636   -22122.067    14958.908 
   24000    285.33617   -22021.041    108.86821   -22129.909   -16479.161 
   24200    330.04581   -21994.242    125.92689   -22120.169   -18334.068 
   24400    314.51138    -22014.16    119.99983    -22134.16   -6584.1259 
   24600     265.3599   -22027.762    101.24639   -22129.009   -12599.995 
   24800    315.72678   -22004.169    120.46356   -22124.633    20812.965 
   25000    309.22761   -21996.807    117.98384   -22114.791   -18490.583 
   25200    297.18886   -22021.603    113.39053   -22134.993    7885.4338 
   25400    328.35762   -22006.929    125.28278   -22132.212   -9562.8812 
   25600    281.68635   -22006.366    107.47565   -22113.842    8335.5913 
   25800    298.94994   -22016.683    114.06246   -22130.745   -5325.5179 
   26000    249.81605   -22033.707    95.315738   -22129.023    3800.4251 
   26200    300.35327    -22005.75    114.59789   -22120.348     564.2656 
   26400    300.91497   -22014.193    114.81221   -22129.005    -714.5815 
   26600    277.73323   -22031.885    105.96736   -22137.853   -7887.8482 
   26800    301.91647   -22002.587    115.19432   -22117.781   -20310.424 
   27000    318.23111   -22008.569    121.41907   -22129.988   -16340.579 
   27200    272.27149   -22024.247    103.88347    -22128.13   -10776.633 
   27400    327.79628   -22007.946     125.0686   -22133.015    8079.7922 
   27600    314.01472   -22002.839    119.81033   -22122.649    25475.418 
   27800    310.07099   -22003.875    118.30563    -22122.18    1450.9089 
   28000    287.91215    -22025.25    109.85106   -22135.101     1087.289 
   28200        300.9   -21996.847     114.8065   -22111.654     7035.493 
   28400    307.83978   -22002.547    117.45433   -22120.002   -9376.7356 
   28600    279.64442   -22016.475    106.69656   -22123.172   -3337.7092 
   28800    323.05453   -21994.857    123.25941   -22118.117   -27669.499 
   29000    346.55934    -21993.91    132.22753   -22126.138     34244.88 
   29200    303.88941   -22016.828    115.94709   -22132.775   -15880.173 
   29400    311.07508   -22007.537    118.68873   -22126.226    6783.5142 
   29600    301.75173   -21995.559    115.13147    -22110.69   -3821.4948 
   29800     278.0167   -22019.316    106.07552   -22125.392    14750.222 
   30000    300.82203   -22005.519    114.77675   -22120.296    8899.0764 
   30200     310.3162   -22007.268    118.39919   -22125.668   -2808.9775 
   30400    283.30022   -22028.848    108.09141    -22136.94     7854.253 
   30600    309.60977   -22001.323    118.12965   -22119.453    -864.4526 
   30800    282.71885   -22006.462    107.86959   -22114.331     -266.423 
   31000    276.64775   -22018.107     105.5532    -22123.66   -13398.928 
   31200     277.6809   -22028.879    105.94739   -22134.826    3293.0647 
   31400    299.85975   -22005.956    114.40959   -22120.365   -9962.6906 
   31600    279.43897   -22020.039    106.61817   -22126.657   -14617.697 
   31800    289.25854   -22013.882    110.36477   -22124.247   -11058.417 
   32000    301.45036   -22001.383    115.01648     -22116.4   -10244.791 
   32200    272.86863   -22024.406     104.1113   -22128.517    30870.773 
   32400    267.64597   -22041.174    102.11863   -22143.292   -17201.917 
   32600    324.28499    -22008.62    123.72889   -22132.349   -608.85263 
   32800    301.85893    -22015.18    115.17237   -22130.353   -8288.4714 
   33000    273.97809   -22035.006    104.53461    -22139.54    6288.9652 
   33200    329.54533   -21998.547    125.73594   -22124.283   -1433.5535 
   33400    294.62333   -22014.858    112.41167   -22127.269   -14859.602 
   33600       298.26   -22023.372    113.79922   -22137.171   -1818.6249 
   33800    342.40203   -21994.409    130.64133    -22125.05    2253.4319 
   34000    270.13183   -22018.839    103.06709   -22121.906    -11115.58 
   34200    276.28874   -22015.582    105.41622   -22120.998   -14899.143 
   34400    306.18433   -21990.127     116.8227    -22106.95   -14708.804 
   34600    284.02244   -22014.952    108.36697   -22123.319    16864.721 
   34800    307.18028    -22014.54     117.2027   -22131.743   -10504.301 
   35000    332.61765   -21991.637    126.90816   -22118.545    11339.903 
   35200    272.81994   -22019.587    104.09272   -22123.679    2726.6944 
   35400    302.58235    -22015.51    115.44839   -22130.958    14927.547 
   35600    340.49557   -22002.619    129.91394   -22132.532    4.5648857 
   35800    303.68116   -22009.624    115.86763   -22125.492    8184.7555 
   36000    285.67066   -22013.671    108.99584   -22122.667    -7625.279 
   36200    334.62576   -21995.511    127.67434   -22123.186    20186.462 
   36400    326.71987   -22002.183     124.6579   -22126.841    20788.335 
   36600    301.08102   -22018.086    114.87556   -22132.962    15980.807 
   36800    301.15421   -22007.575    114.90349   -22122.479    9830.1303 
   37000      278.863   -22014.189    106.39842   -22120.588   -9276.4202 
   37200    272.30011   -22019.414    103.89439   -22123.308     11384.82 
   37400    305.63041   -22008.252    116.61135   -22124.863   -5864.7282 
   37600     318.6517     -21991.1    121.57955    -22112.68    903.33624 
   37800    309.15508   -22023.743    117.95617   -22141.699   -6669.1714 
   38000    303.81864   -22010.197    115.92008   -22126.118   -18235.044 
   38200    297.64991   -22004.597    113.56644   -22118.163    5313.8509 
   38400    278.10107   -22026.593    106.10771     -22132.7    8701.4942 
   38600    321.68654   -22000.661    122.73747   -22123.399   -2418.7701 
   38800     331.9159   -22007.255    126.64042   -22133.896   -13542.264 
   39000    277.01659   -22037.662    105.69393   -22143.356   -6253.9976 
   39200    296.98935   -22030.084    113.31441   -22143.398     1077.663 
   39400    313.48419   -22007.545    119.60791   -22127.153    7347.8501 
   39600    283.48559    -22018.63    108.16214   -22126.792   -6917.7191 
   39800    303.07555   -22025.954    115.63656    -22141.59    13238.475 
   40000    323.13783   -22001.691     123.2912   -22124.983   -12328.897 
   40200    267.95951   -22027.204    102.23826   -22129.443    26116.384 
   40400    307.67123   -22012.255    117.39002   -22129.645    19826.502 
   40600    327.39696   -21999.147    124.91624   -22124.063    8115.1609 
   40800    273.21726   -22018.482    104.24432   -22122.726    13620.991 
   41000    319.39875   -22000.925    121.86458   -22122.789   -4461.6613 
   41200     343.7856   -21994.078    131.16923   -22125.247    8955.8373 
   41400    281.45978   -22016.641     107.3892   -22124.031   -12991.239 
   41600    287.59776    -22004.04    109.73111   -22113.771    7830.6364 
   41800    350.27246   -21991.115    133.64425    -22124.76   -4744.2881 
   42000    297.12267   -22022.249    113.36528   -22135.615    2770.5362 
   42200    317.66195   -22004.084    121.20191   -22125.286   -17406.086 
   42400    339.65761   -21994.924    129.59422   -22124.518    98.911253 
   42600    275.64348   -22020.457    105.17003   -22125.627   -16629.354 
   42800    328.26092   -21997.162    125.24588   -22122.408   -1497.1013 
   43000    305.26379   -22005.822    116.47147   -22122.293    6639.5058 
   43200    317.86549   -22011.409    121.27957   -22132.689   -12214.226 
   43400    301.88114   -22005.143    115.18084   -22120.324   -1112.2776 
   43600    357.92602   -21987.791    136.56441   -22124.355   -7524.9014 
   43800    282.41613   -22021.087    107.75409   -22128.841   -4101.9447 
   44000    332.45419   -22001.232     126.8458   -22128.077    17299.516 
   44200    321.51602   -22001.922    122.67241   -22124.595    8027.3131 
   44400    299.53473   -22014.171    114.28559   -22128.456   -9558.4468 
   44600    298.63092   -22014.223    113.94074   -22128.164    6213.9738 
   44800     291.3973   -22017.681     111.1808   -22128.862   -106.57705 
   45000    262.29228   -22026.914    100.07596    -22126.99   -9165.9426 
   45200    310.35341   -21998.638    118.41338   -22117.051   -20655.916 
   45400    314.17371   -22010.746      119.871   -22130.617    8338.3472 
   45600    272.66432   -22032.951    104.03335   -22136.984    11664.058 
   45800    333.09866   -21996.544    127.09169   -22123.636   -3413.3716 
   46000    294.20582   -22011.772    112.25237   -22124.024      3750.84 
   46200    290.13901   -22018.739    110.70071   -22129.439    15125.436 
   46400    335.94588   -21991.658    128.17803   -22119.836   -8402.3578 
   46600     290.0311   -22016.802    110.65954   -22127.462   -1438.0896 
   46800    310.39564   -22009.966     118.4295   -22128.395   -4568.0292 
   47000    291.47839   -22005.099    111.21174   -22116.311   -4916.8171 
   47200    290.70147   -22001.884    110.91531     -22112.8   -6773.0832 
   47400    271.49027   -22021.037     103.5854   -22124.622    33405.235 
   47600     299.2949   -22003.816    114.19408    -22118.01    5009.1405 
   47800    308.72837   -22003.198    117.79336   -22120.991    8363.3572 
   48000    301.85569   -22017.318    115.17113   -22132.489    -10836.74 
   48200    261.53959   -22014.344    99.788778   -22114.133    7785.8413 
   48400     327.0128   -21997.379    124.76967   -22122.148   -8671.9437 
   48600    302.40422   -22017.519    115.38042     -22132.9    18462.281 
   48800    311.47197   -22015.076    118.84016   -22133.916   -16508.233 
   49000    320.48952   -22000.682    122.28075   -22122.962    14741.518 
   49200    292.57292   -22007.471    111.62935   -22119.101   -576.26431 
   49400    294.97696   -22011.836     112.5466   -22124.383   -33579.931 
   49600    296.16827   -22018.127    113.00113   -22131.128   -9713.0045 
   49800    311.90179   -21991.615    119.00416   -22110.619    23373.482 
   50000    294.27208   -22013.385    112.27765   -22125.663    12023.864 
   50200    301.67482   -22013.088    115.10212    -22128.19   -9094.1763 
   50400    329.40288    -21994.99    125.68159   -22120.671     17159.78 
   50600    285.54352   -22018.669    108.94733   -22127.616   -8435.5494 
   50800    281.23698   -22008.806    107.30419    -22116.11    5816.4373 
   51000    316.23078   -21993.761    120.65586   -22114.417    6296.6688 
   51200    291.02772   -22005.545    111.03979   -22116.585    4903.7507 
   51400    298.56837   -22019.654    113.91688   -22133.571   -1725.2873 
   51600    279.25809   -22029.561    106.54916    -22136.11   -22692.763 
   51800    333.54991   -22003.362    127.26386   -22130.626    25197.658 
   52000    306.47327   -22010.424    116.93294   -22127.357    -3542.233 
   52200    258.16168   -22031.231    98.499959   -22129.731   -3010.9657 
   52400    332.03831   -22006.727    126.68712   -22133.414    14284.927 
   52600       286.48   -22018.462    109.30464   -22127.767   -16662.923 
   52800    290.04069   -22018.288    110.66319   -22128.952   -76.021262 
   53000    341.46678   -21993.636    130.28449   -22123.921   -16285.967 
   53200    282.70528   -22021.147    107.86441   -22129.011    23957.069 
   53400    309.82305    -22012.23    118.21103   -22130.441   -140.19902 
   53600    314.74712   -21993.767    120.08978   -22113.857    117.39851 
   53800    286.33843   -22005.791    109.25062   -22115.042    780.06552 
   54000    287.71656   -22018.008    109.77644   -22127.784   -5624.5486 
   54200    333.71623   -21990.942    127.32732   -22118.269   -10729.496 
   54400    306.72346   -22002.433     117.0284   -22119.461    11533.388 
   54600     281.3812   -22017.255    107.35922   -22124.614    10768.462 
   54800     297.8984   -22028.461    113.66125   -22142.122   -9458.2428 
   55000    297.45507   -22008.046     113.4921   -22121.538   -1881.6587 
   55200    299.36099   -22000.212     114.2193   -22114.431   -2500.9719 
   55400    266.27117   -22031.104    101.59408   -22132.698    -2605.882 
   55600    295.78572   -22015.609    112.85517   -22128.464     10655.66 
   55800    311.86904   -22004.503    118.99166   -22123.495    6894.0124 
   56000    300.89152   -22012.989    114.80326   -22127.792    205.12927 
   56200    302.94354   -22008.964     115.5862    -22124.55   -15903.936 
   56400    310.08123    -21988.58    118.30953   -22106.889   -920.22002 
   56600    302.65046   -22012.208    115.47437   -22127.682   -20407.597 
   56800    291.74152   -22016.098    111.31214    -22127.41   -13102.411 
   57000     338.7743   -21995.156     129.2572   -22124.413   -8327.2016 
   57200     306.0919   -22006.308    116.78743   -22123.095     11141.59 
   57400    275.49101   -22022.388    105.11186     -22127.5   -7595.5276 
   57600    331.44793   -22007.604    126.46186   -22134.066    6808.8281 
   57800    338.93252   -22003.406    129.31756   -22132.723   -18728.891 
   58000    263.32977   -22029.762    100.47181   -22130.234   -15192.724 
   58200    292.82468   -22003.923    111.72541   -22115.649   -18353.396 
   58400    301.71767   -22006.966    115.11847   -22122.084   -20661.289 
   58600    314.38704   -22033.623    119.95239   -22153.575   -6378.2463 
   58800    288.61877    -22013.59    110.12067   -22123.711   -5244.2936 
   59000     270.4431   -22007.636    103.18586   -22110.822   -17463.176 
   59200    297.97055   -22027.736    113.68878   -22141.425    7759.0247 
   59400    278.20873   -22023.548    106.14878   -22129.697    2536.1381 
   59600    295.69043   -22005.441    112.81882    -22118.26   -12495.305 
   59800    329.18325   -22019.413    125.59779   -22145.011    4903.6486 
   60000     285.1481   -22025.609    108.79646   -22134.406    1219.8823 
   60200    310.40141   -22010.911     118.4317   -22129.343   -6461.8116 
   60400    288.23936   -22015.305    109.97591    -22125.28    3640.2936 
   60600    300.89209   -22029.254    114.80348   -22144.058   -10077.893 
   60800    293.49705   -22004.896    111.98195   -22116.878    8229.6815 
   61000    265.99765   -22016.631    101.48973    -22118.12    -507.0606 
   61200    293.60065   -22020.211    112.02147   -22132.233    2266.7503 
   61400    288.78792    -21993.16    110.18521   -22103.345   -14079.376 
   61600     280.5697   -22020.438     107.0496   -22127.488   -13329.795 
   61800    321.92037   -22004.624    122.82669    -22127.45   -978.82546 
   62000    337.90555   -21969.735    128.92573   -22098.661   -5352.5221 
   62200    325.08996   -22007.702    124.03602   -22131.738    17350.549 
   62400    295.95795   -22021.242    112.92089   -22134.163    15765.143 
   62600    314.52679   -22000.526    120.00571   -22120.532     21998.19 
   62800    295.06053   -22009.554    112.57848   -22122.132    11522.397 
   63000    252.98383   -22040.377    96.524385   -22136.902    3279.9358 
   63200    315.08113   -22001.391    120.21722   -22121.608   -19168.013 
   63400    302.24611   -22012.343     115.3201   -22127.663   -7232.7974 
   63600    251.02266   -22022.028    95.776111   -22117.804     8071.184 
   63800    309.87198   -21994.752     118.2297   -22112.981   -1895.4359 
   64000    310.92455    -22011.22     118.6313   -22129.851    7285.8741 
   64200    317.97242   -22013.468    121.32037   -22134.789   -11781.042 
   64400    321.31332   -22001.496    122.59507   -22124.091    5537.8067 
   64600    345.35453   -21990.277    131.76784   -22122.044   -5079.6407 
   64800    301.78877   -22015.626     115.1456   -22130.772    1953.7822 
   65000    315.07561   -22003.663    120.21511   -22123.879   -2716.0397 
   65200    314.73769   -21993.079    120.08618   -22113.165   -2522.7659 
   65400    301.21666   -22010.255    114.92731   -22125.182   -19434.778 
   65600    305.26774   -22015.593    116.47298   -22132.066      4159.55 
   65800    323.52145   -21998.646    123.43757   -22122.083    30347.706 
   66000    279.31005   -22016.025    106.56898   -22122.594   -2293.0709 
   66200    309.37596   -22020.464    118.04044   -22138.504   -8485.2596 
   66400    302.83345   -22001.807    115.54419   -22117.351   -5497.1823 
   66600    309.86745   -21988.307    118.22797   -22106.535    -10574.78 
   66800    290.19494   -22017.635    110.72205   -22128.357   -3796.1548 
   67000    296.91088   -22004.704    113.28447   -22117.989    4173.1704 
   67200    313.91632   -21989.077    119.77279    -22108.85    7672.1788 
   67400    276.97978   -22023.132    105.67989   -22128.812    9035.6045 
   67600    311.56702   -22002.058    118.87643   -22120.934    4713.7549 
   67800    335.16327   -22002.962    127.87943   -22130.841    15621.487 
   68000    291.33763   -22028.478    111.15803   -22139.636   -12483.232 
   68200    325.23675   -22005.706    124.09203   -22129.798   -17772.484 
   68400    315.92387   -22011.639    120.53876   -22132.178    5595.2757 
   68600    293.71044   -22030.162    112.06337   -22142.225    13577.989 
   68800    331.12485   -22003.105    126.33859   -22129.443    2028.3286 
   69000    302.18096   -22006.678    115.29524   -22121.973   -14969.017 
   69200    292.63542   -22027.241     111.6532   -22138.894    13537.252 
   69400    289.36553   -22006.879    110.40559   -22117.285   -10837.841 
   69600    315.84106   -22004.132    120.50716   -22124.639    -5830.129 
   69800    280.34592   -22023.836    106.96422   -22130.801    9399.1909 
   70000    276.84281   -22011.537    105.62763   -22117.165   -8696.8222 
   70200    311.88265   -22006.192    118.99686   -22125.189   -7719.6601 
   70400    271.41442   -22032.159    103.55646   -22135.715    8322.1395 
   70600    273.92942     -22004.2    104.51604   -22108.716    5071.3576 
   70800    270.93523   -22009.045    103.37362   -22112.419    21785.057 
   71000    290.54661   -22017.348    110.85623   -22128.204   -12061.106 
   71200    280.27717   -22014.575    106.93798   -22121.513    17064.423 
   71400    303.93015   -21997.254    115.96263   -22113.216   -12967.004 
   71600    258.92774    -22028.41    98.792244   -22127.203    9071.9412 
   71800    306.21273   -22013.809    116.83353   -22130.642    8994.0683 
   72000    313.44307   -21999.121    119.59223   -22118.713    2767.7295 
   72200    287.79991   -22013.348    109.80824   -22123.156    -11646.11 
   72400    290.64722   -22018.434    110.89461   -22129.329    10011.886 
   72600     301.0693   -21998.942    114.87109   -22113.813   -27110.685 
   72800    292.57964   -22021.426    111.63191   -22133.058   -399.19627 
   73000    277.81931   -22027.578    106.00021   -22133.578    3693.9632 
   73200    330.24109    -22001.05     126.0014   -22127.051    2111.6073 
   73400    307.54219   -22015.955    117.34078   -22133.296    20018.337 
   73600    289.26074   -22029.798    110.36561   -22140.163   -20642.012 
   73800    317.29197   -22009.143    121.06075   -22130.204    6306.5233 
   74000    298.98929   -22007.851    114.07748   -22121.929    6431.2079 
   74200    246.18878   -22037.697    93.931777   -22131.629    4923.8651 
   74400    331.86393   -22012.025    126.62059   -22138.645     2770.502 
   74600    313.12042   -22010.764    119.46912   -22130.233   -21689.826 
   74800    277.73407   -22036.931    105.96768   -22142.898   -19767.427 
   75000    299.95291   -22009.711    114.44514   -22124.156    3697.8834 
   75200    321.97231   -22003.789     122.8465   -22126.636   -25081.826 
   75400    291.55153   -22020.959    111.23964   -22132.199    8627.4037 
   75600      291.429   -22011.329    111.19289   -22122.522    13677.474 
   75800    282.28474   -22003.011    107.70396   -22110.715     5814.992 
   76000    261.46807    -22022.63    99.761493   -22122.391    12009.202 
   76200    274.45584   -22015.219    104.71689   -22119.936   -9032.3756 
   76400    327.39169    -21994.84    124.91423   -22119.754   -7872.0744 
   76600    288.66216   -22020.106    110.13723   -22130.243     18675.13 
   76800    323.06091   -22001.174    123.26185   -22124.436    9837.8164 
   77000    330.32401   -21994.538    126.03304   -22120.571    3740.4689 
   77200     287.4442   -22015.944    109.67252   -22125.616    5105.1465 
   77400    329.97844   -21995.831    125.90119   -22121.732   -12343.014 
   77600    332.59528   -21996.839    126.89963   -22123.739    31726.979 
   77800    318.89337   -22013.161    121.67175   -22134.833    6516.2848 
   78000    311.68795   -22008.432    118.92257   -22127.355    1312.2806 
   78200    318.72116    -21985.95    121.60605   -22107.556   -1971.8183 
   78400    305.03655   -22014.084    116.38477   -22130.469    882.02585 
   78600    297.46498    -22004.67    113.49589   -22118.166   -16504.418 
   78800    341.98006   -21981.842    130.48033   -22112.323   -2551.9155 
   79000     272.1177   -22014.021    103.82479   -22117.846   -4684.9237 
   79200    294.97289   -22009.703    112.54504   -22122.248    431.56205 
   79400    343.23235   -21987.442    130.95814     -22118.4   -12299.626 
   79600    299.95874   -22005.549    114.44736   -22119.996   -18045.505 
   79800    304.11398   -22007.787    116.03277    -22123.82   -4064.5908 
   80000    303.86625   -22008.577    115.93825   -22124.515   -13249.599 
   80200    293.53159   -22016.038    111.99512   -22128.033   -7920.3364 
   80400    297.80944   -21992.775    113.62731   -22106.403   -1958.9506 
   80600    283.26108   -22018.302    108.07648   -22126.378    6928.2106 
   80800    311.17047   -22015.353    118.72513   -22134.078   -15657.437 
   81000    310.82679   -22002.311      118.594   -22120.905   -3600.6142 
   81200     257.9062   -22032.868    98.402483   -22131.271    13856.343 
   81400    302.92257   -22007.259    115.57819   -22122.838    20009.085 
   81600    291.57693   -22010.737    111.24934   -22121.986   -1462.4124 
   81800    271.97392   -22041.084    103.76993   -22144.854   -17204.638 
   82000    269.89028   -22026.569    102.97493   -22129.543   -9776.6691 
   82200    290.03116   -22009.323    110.65956   -22119.983   -18581.415 
   82400    316.88555   -22002.892    120.90568   -22123.798   -14515.813 
   82600    250.60658   -22029.884    95.617358   -22125.502   -1224.4449 
   82800    272.36375   -22009.169    103.91867   -22113.088   -11168.688 
   83000    304.86249   -22009.722    116.31836   -22126.041   -10111.798 
   83200    249.09268   -22020.762    95.039738   -22115.802    11470.652 
   83400    312.26786   -22007.678    119.14383   -22126.821   -9239.8694 
   83600    314.18832   -21996.339    119.87657   -22116.216   -1161.8273 
   83800    308.28375   -22025.262    117.62372   -22142.886     17289.33 
   84000      305.695   -22009.496      116.636   -22126.132   -4455.0597 
   84200    284.83981   -22007.386    108.67883   -22116.065    8170.1719 
   84400    310.56012   -22008.519    118.49225   -22127.011    25915.258 
   84600    295.15794   -22012.457    112.61565   -22125.073    868.09192 
   84800    322.11869   -22005.162    122.90235   -22128.064    11203.187 
   85000    306.02627   -22002.394    116.76239   -22119.156   -15856.533 
   85200    266.65731   -22026.206    101.74141   -22127.948    7885.7145 
   85400    296.05777   -21998.621    112.95897    -22111.58    1040.6947 
   85600    307.08071   -22005.649    117.16471   -22122.813    1220.8376 
   85800    287.16333   -22018.309    109.56536   -22127.875    -20198.25 
   86000    329.25022   -21992.824    125.62334   -22118.447    9599.5079 
   86200    327.27319   -22005.433    124.86902   -22130.302     -15270.2 
   86400    294.86269   -22015.097      112.503     -22127.6    6826.9485 
   86600     293.3055   -22001.792    111.90886   -22113.701   -8260.3794 
   86800    354.85253   -21967.966    135.39174   -22103.358   -20534.154 
   87000    317.03645   -22004.045    120.96326   -22125.008   -2523.7867 
   87200    288.34087    -22022.44    110.01464   -22132.454   -5134.8088 
   87400    318.65351   -21999.118    121.58023   -22120.698    28891.068 
   87600    317.60003   -21999.078    121.17829   -22120.256    10916.416 
   87800    313.73387   -22005.741    119.70318   -22125.444    12775.089 
   88000    319.20938    -22005.55    121.79232   -22127.342    19297.716 
   88200    266.88729   -22010.061    101.82916   -22111.891   -10878.629 
   88400    280.36394    -22014.93    106.97109   -22121.901   -13749.585 
   88600    367.77467   -21991.116     140.3221   -22131.438    5393.1796 
   88800    306.69368   -22018.608    117.01704   -22135.625    79.612036 
   89000    293.84176   -22012.279    112.11347   -22124.393    8205.6343 
   89200    314.91236    -22004.71    120.15282   -22124.863   -1238.3706 
   89400    262.11948   -22037.271    100.01003   -22137.281    9240.0104 
   89600    290.12215   -22013.663    110.69427   -22124.358    13312.418 
   89800    298.74072    -22008.55    113.98264   -22122.533    7013.6412 
   90000    288.75012    -22037.31    110.17079   -22147.481    24737.909 
   90200    262.40285   -22016.445    100.11815   -22116.563    6468.2531 
   90400    290.95032   -22008.368    111.01026   -22119.378   -12075.812 
   90600    285.19509   -22022.247    108.81439   -22131.062   -13718.237 
   90800    337.40561   -22006.766    128.73498   -22135.501     4068.036 
   91000    294.16047    -22001.09    112.23507   -22113.325   -9907.8484 
   91200    265.86935   -22028.263    101.44077   -22129.704    4269.2678 
   91400    287.66229   -22015.066    109.75573   -22124.821   -4282.5425 
   91600    315.06003    -21997.48    120.20916   -22117.689   -986.47555 
   91800    350.19798   -21985.997    133.61583   -22119.612    3631.8235 
   92000    277.80209   -22014.994    105.99363   -22120.987   -3875.3521 
   92200    292.19179   -22004.349    111.48393   -22115.833    17232.968 
   92400     324.6685   -21992.469    123.87522   -22116.345   -26659.685 
   92600    295.00308   -22009.789    112.55656   -22122.346    16021.822 
   92800    292.81248   -22006.667    111.72075   -22118.388   -7138.1481 
   93000    316.54394   -21988.905    120.77534   -22109.681     10089.18 
   93200    303.10625   -22021.857    115.64828   -22137.505   -6549.1661 
   93400    279.65625    -22006.15    106.70108   -22112.851    7007.4153 
   93600    306.94574   -21994.431    117.11321   -22111.544    8008.5086 
   93800    291.59251   -22023.266    111.25528   -22134.521   -10564.899 
   94000    306.80485   -21999.882    117.05945   -22116.941    -11964.49 
   94200    326.80796   -22001.446    124.69151   -22126.137    14441.139 
   94400    292.84339   -22010.833    111.73255   -22122.565    252.19015 
   94600    309.14569   -22016.482    117.95259   -22134.434     12934.49 
   94800    305.47616   -22011.435     116.5525   -22127.987   -2184.1568 
   95000    338.34042   -21994.263    129.09165   -22123.354    10188.725 
   95200    288.93581   -22024.615    110.24163   -22134.857   -12831.199 
   95400    278.82133   -22008.346    106.38252   -22114.729    1633.5308 
   95600    307.55181   -22001.439    117.34445   -22118.783   -11561.571 
   95800    313.13392   -22015.371    119.47427   -22134.846     12879.59 
   96000     268.3697   -22032.154    102.39476   -22134.549   -5658.6142 
   96200    314.78791   -22002.522    120.10534   -22122.628    66.190581 
   96400    261.90786   -22010.249    99.929289   -22110.178   -10590.474 
   96600    278.92486    -22026.26    106.42202   -22132.682   -12372.226 
   96800    256.76024   -22015.864    97.965249   -22113.829    19055.745 
   97000    308.04871   -22004.809    117.53404   -22122.343   -19334.432 
   97200    290.49051   -22022.752    110.83482   -22133.587   -1089.3091 
   97400    261.77136   -22020.726    99.877209   -22120.603   -13213.758 
   97600    319.63982   -22001.559    121.95656   -22123.516    9606.0616 
   97800    296.44412   -22021.292    113.10638   -22134.398     14656.62 
   98000    286.79872   -22027.846    109.42624   -22137.272    510.67179 
   98200    325.64113   -21998.274    124.24632   -22122.521   -2499.9133 
   98400     283.0314   -22012.836    107.98884   -22120.825   -10656.659 
   98600    295.39746   -22028.729    112.70704   -22141.436   -2635.2625 
   98800    300.67695   -22011.052    114.72139   -22125.773    22193.173 
   99000    309.92064   -22002.413    118.24826   -22120.661   -11690.872 
   99200    269.54737   -22023.246     102.8441    -22126.09   -22359.164 
   99400    308.81874   -22009.065    117.82784   -22126.893    2356.9485 
   99600    281.32696   -22001.242    107.33852    -22108.58   -17082.119 
   99800    300.40048   -22018.474    114.61591    -22133.09   -13042.857 
  100000    302.77335   -22005.417    115.52126   -22120.938   -9838.1028 
  100200    303.72266   -21993.393    115.88347   -22109.277   -20135.393 
  100400    290.37509   -22019.213    110.79078   -22130.004     -15301.5 
  100600    311.13642   -21998.593    118.71214   -22117.305    9098.7642 
  100800    310.33483   -21995.323    118.40629   -22113.729   -3251.2653 
  101000    301.42439   -22009.172    115.00657   -22124.178    1831.9834 
  101200    348.44789   -22005.582    132.94809    -22138.53    25920.712 
  101400    340.47839   -21982.555    129.90738   -22112.462   -4328.9453 
  101600    306.31105   -22010.894    116.87105   -22127.766    4832.4214 
  101800    296.30909   -22007.397    113.05486   -22120.452    11236.246 
  102000    292.20385   -22007.611    111.48853   -22119.099   -2864.1874 
  102200    260.82503    -22023.41    99.516143   -22122.926   -11595.386 
  102400     320.7082   -21994.297    122.36419   -22116.662    8799.4012 
  102600    294.61339   -22005.833    112.40788   -22118.241    13347.133 
  102800    279.53141   -22009.964    106.65344   -22116.618   -15735.917 
  103000    297.68849    -22012.68    113.58116   -22126.261   -14422.992 
  103200    234.28865   -22030.083    89.391356   -22119.474   -12962.965 
  103400     295.3577   -22002.583    112.69187   -22115.275   -2122.8425 
  103600    288.77314   -22011.608    110.17957   -22121.787    1891.9571 
  103800    283.01967   -22029.531    107.98437   -22137.515    12521.175 
  104000    329.82626   -21997.295    125.84313   -22123.138    30452.168 
  104200    307.52843   -22010.811    117.33553   -22128.146    5489.3713 
  104400    285.25799   -22025.881    108.83838    -22134.72    16471.263 
  104600     321.5233   -22000.021    122.67518   -22122.697    3777.8824 
  104800    338.23732   -22001.907    129.05232    -22130.96     16809.44 
  105000    288.59675   -22027.603    110.11227   -22137.715    3249.7192 
  105200    308.62608    -22005.62    117.75433   -22123.375    9986.7632 
  105400    284.05949   -22005.152    108.38111   -22113.533   -9780.0225 
  105600    270.55141   -22033.216    103.22718   -22136.443    -8230.585 
  105800    292.95807   -22018.133     111.7763    -22129.91    17804.297 
  106000    306.96621   -22007.719    117.12102    -22124.84   -17086.882 
  106200    301.90228   -21997.703    115.18891   -22112.892    14350.712 
  106400    290.18263   -22006.543    110.71735   -22117.261    19000.934 
  106600    305.07704   -22021.118    116.40022   -22137.518    17409.058 
  106800    332.46521   -21991.343       126.85   -22118.193    18626.883 
  107000    318.04051   -22014.834    121.34635    -22136.18    7594.3471 
  107200    279.97248   -22016.018    106.82173    -22122.84   -30955.677 
  107400    318.09729   -22010.694    121.36801   -22132.062    11590.903 
  107600    294.51761    -22010.67    112.37134   -22123.042    -11995.65 
  107800    286.19208   -22009.934    109.19478   -22119.129     15030.89 
  108000    294.48624   -22016.098    112.35936   -22128.458   -15907.055 
  108200    292.97913   -22020.817    111.78434   -22132.601   -12048.745 
  108400    352.37134   -21992.945    134.44506    -22127.39    6342.4359 
  108600    303.12173   -22021.768    115.65418   -22137.422    4774.7424 
  108800    309.42713   -22006.963    118.05997   -22125.023    12392.584 
  109000    290.25581   -21999.286    110.74527   -22110.032    2526.5491 
  109200    268.02807   -22034.164    102.26442   -22136.428   -20545.176 
  109400    284.04219   -22010.448     108.3745   -22118.823   -23797.909 
  109600     293.9909   -22004.135    112.17037   -22116.305   -14873.999 
  109800    247.92138   -22034.331    94.592839   -22128.924    18219.178 
  110000    283.24308   -22011.236    108.06961   -22119.305   -4357.1034 
  110200    289.25446   -22006.772    110.36321   -22117.135    6387.4297 
  110400    247.19561    -22035.11    94.315926   -22129.426    12339.241 
  110600    279.51115   -22019.636    106.64572   -22126.282    119.37199 
  110800    294.58667   -22001.249    112.39768   -22113.647    9838.9932 
  111000     281.4404   -22019.732    107.38181   -22127.114    7367.5576 
  111200    283.81865   -22026.411    108.28921     -22134.7   -9493.6989 
  111400    295.76852   -22012.297    112.84861   -22125.145   -5140.4353 
  111600    282.79526    -22010.07    107.89875   -22117.968    14495.013 
  111800    286.47298   -22026.371    109.30195   -22135.673   -28.195304 
  112000    338.12083   -21999.712    129.00787    -22128.72     20771.69 
  112200    350.86763   -22007.754    133.87133   -22141.626    1027.9315 
  112400    296.11259   -22022.037    112.97989   -22135.017    746.20273 
  112600    300.38917   -22014.743    114.61159   -22129.355    12858.338 
  112800    308.08091   -21998.518    117.54633   -22116.065    -3954.683 
  113000    330.34056   -22021.794    126.03935   -22147.833    17271.882 
  113200    284.56393    -22016.44    108.57357   -22125.014    36994.577 
  113400    299.94218   -22005.478    114.44105    -22119.92    -32591.06 
  113600    272.24157   -22020.985    103.87205   -22124.857    12261.891 
  113800    260.39507   -22031.148    99.352095     -22130.5   -3962.0067 
  114000    292.43613     -22004.9    111.57716   -22116.477    16333.197 
  114200    290.06374    -22018.01    110.67199   -22128.682    8519.5883 
  114400    294.62129   -22028.209    112.41089    -22140.62    -15855.19 
  114600    319.44548   -21998.398    121.88241   -22120.281   -7743.3492 
  114800    282.56738   -22022.808     107.8118    -22130.62   -3619.2205 
  115000     310.4592   -22019.269    118.45375   -22137.723   -10090.318 
  115200    337.08496   -22000.043    128.61264   -22128.655    16198.633 
  115400    266.72638    -22017.82    101.76777   -22119.588   -9217.5507 
  115600    286.76947   -22022.806    109.41508   -22132.221    8498.8628 
  115800    306.79796   -21999.311    117.05683   -22116.368    9001.9289 
  116000    290.22675   -22017.919    110.73418   -22128.653   -311.19866 
  116200    289.38047   -22017.699    110.41129    -22128.11    2091.4342 
  116400    322.04311   -22004.647    122.87352   -22127.521    -16054.97 
  116600    300.74373   -22012.033    114.74687    -22126.78    16874.308 
  116800    271.09043   -22030.324    103.43284   -22133.757    17324.551 
  117000    282.04558    -22013.42    107.61271   -22121.033    7137.1813 
  117200    327.69011    -22005.67    125.02809   -22130.699   -21439.396 
  117400    284.07153   -22019.161     108.3857   -22127.547   -3581.3732 
  117600    288.47531   -22012.789    110.06593   -22122.854     25054.04 
  117800    323.58534    -21996.84    123.46194   -22120.302   -5119.8994 
  118000    302.53121   -22012.436    115.42887   -22127.864   -10014.015 
  118200    333.66249   -22003.514    127.30682   -22130.821   -7670.1204 
  118400    291.42574     -21995.4    111.19165   -22106.591   -10372.137 
  118600    296.87385   -22019.048    113.27034   -22132.319   -4819.0704 
  118800    320.82204   -22010.273    122.40762    -22132.68    12540.568 
  119000    310.05496   -22004.448    118.29951   -22122.748   -6747.0203 
  119200    276.72445   -22027.368    105.58247    -22132.95    4923.9467 
  119400    302.26047   -22009.869    115.32557   -22125.194   -14749.125 
  119600     311.0138    -22005.17    118.66535   -22123.836    10641.893 
  119800    265.24725   -22037.516    101.20341   -22138.719    -15981.61 
  120000    281.72086   -22035.379    107.48882   -22142.868    5405.7497 
  120200    298.53239    -22006.04    113.90315   -22119.943     27039.38 
  120400    321.37312   -21997.153    122.61789   -22119.771   -17082.383 
  120600    247.08038   -22023.946    94.271961   -22118.218   -22262.861 
  120800    315.10332   -22012.093    120.22568   -22132.319   -8690.9447 
  121000    311.27918   -22006.595    118.76661   -22125.362   -6718.3292 
  121200    258.11202   -22035.207     98.48101   -22133.688   -16730.316 
  121400    292.85443   -22008.688    111.73676   -22120.425    15869.597 
  121600    306.72731   -22010.163    117.02987   -22127.193   -954.74162 
  121800    246.15381   -22031.238    93.918433   -22125.157   -6104.1626 
  122000    325.41415   -22013.091    124.15971   -22137.251   -8222.6648 
  122200    347.27131   -21999.149    132.49918   -22131.649    13330.209 
  122400    271.26264   -22023.385    103.49855   -22126.884    18791.476 
  122600    272.26239   -22016.719       103.88   -22120.599   -6697.6711 
  122800    302.80424   -22003.872    115.53304   -22119.405   -9404.8298 
  123000    329.39931   -22004.643    125.68023   -22130.323   -3643.6772 
  123200    255.38049   -22025.743    97.438814   -22123.181    16612.304 
  123400    323.93212   -21998.599    123.59426   -22122.194    5743.4905 
  123600     313.5028   -22011.734    119.61501   -22131.349    12602.961 
  123800    302.11762   -22016.955    115.27107   -22132.226    19128.482 
  124000    336.21298   -21987.698    128.27994   -22115.978    8975.1979 
  124200    320.07798   -22013.628    122.12373   -22135.751    4583.6863 
  124400    311.48712   -22008.968    118.84595   -22127.814    18198.828 
  124600    357.58708    -21979.98    136.43509   -22116.415   -11531.835 
  124800     307.0022   -22008.307    117.13475   -22125.441    1746.8801 
  125000    287.62249   -22012.678    109.74055   -22122.419   -10797.918 
  125200    287.81544   -22016.798    109.81416   -22126.612    7893.2113 
  125400    297.92011   -22008.242    113.66954   -22121.911    5347.6706 
  125600    286.36017   -22024.916    109.25891   -22134.175    21600.322 
  125800    259.22897   -22026.021    98.907178   -22124.928   -14543.316 
  126000    296.22448   -22003.344    113.02258   -22116.366   -28464.417 
  126200    281.50156   -22026.996    107.40514   -22134.401   -4247.5939 
  126400    340.99774   -22001.224    130.10554   -22131.329   -6830.4367 
  126600    311.10811   -22003.928    118.70134   -22122.629    5671.7584 
  126800    262.28135   -22019.053    100.07179   -22119.125    9092.8509 
  127000    335.53202   -21990.742    128.02013   -22118.762   -8222.9221 
  127200    313.19765   -22012.355    119.49859   -22131.854   -21308.791 
  127400    289.43325   -22013.052    110.43143   -22123.483   -6643.8508 
  127600    319.73636     -21988.5    121.99339   -22110.494   -11860.589 
  127800    281.68805    -22011.33     107.4763   -22118.807   -20399.102 
  128000    333.57422   -22008.998    127.27314   -22136.271   -9907.2656 
  128200    314.11247   -22011.924    119.84763   -22131.771   -5835.6961 
  128400    278.85563   -22012.927     106.3956   -22119.322    27842.218 
  128600    299.95802   -22000.234    114.44709   -22114.681    9149.5436 
  128800    294.96208   -22001.362    112.54092   -22113.903   -25918.018 
  129000     292.1489   -22018.962    111.46757    -22130.43    23875.468 
  129200    296.52562   -21998.713    113.13748   -22111.851    20302.671 
  129400    273.84292   -22010.136    104.48304   -22114.619   -11857.875 
  129600    290.64127   -22010.601    110.89234   -22121.494   -11468.051 
  129800    291.25602   -22005.731     111.1269   -22116.858   -4524.8491 
  130000    316.63895   -21996.336    120.81159   -22117.148   -34923.671 
  130200    308.14999   -22023.267    117.57268    -22140.84    4386.4893 
  130400     273.9898    -22015.56    104.53908   -22120.099   -7974.1023 
  130600      342.164   -21990.549    130.55051   -22121.099    -15767.57 
  130800    307.90627   -22015.243    117.47969   -22132.723   -19726.216 
  131000    295.00096   -22012.012    112.55575   -22124.568   -4421.6447 
  131200    364.92207   -21979.593    139.23371   -22118.827    6195.5571 
  131400    297.12694   -22001.339    113.36691   -22114.706    19169.384 
  131600    291.49325   -22012.553    111.21741   -22123.771   -16040.071 
  131800    308.83502   -21992.432    117.83405   -22110.267   -6259.9019 
  132000    313.03965   -22006.352     119.4383    -22125.79    6675.7829 
  132200    263.22814   -22014.618    100.43304   -22115.051    2973.3902 
  132400    351.58282   -21998.005    134.14421    -22132.15    19280.702 
  132600    328.72908   -21992.411    125.42451   -22117.836   -19178.112 
  132800     311.8968   -22016.447    119.00225   -22135.449   -11835.462 
  133000    328.98752   -22002.717    125.52311    -22128.24   -3971.4283 
  133200    318.27333   -21999.075    121.43518    -22120.51    17546.925 
  133400    310.58551    -22014.25    118.50194   -22132.752    13973.459 
  133600     293.6212     -22005.2    112.02931   -22117.229    26315.639 
  133800    291.50437   -21994.802    111.22165   -22106.024   -13971.236 
  134000    302.09933   -22026.361    115.26409   -22141.625    6737.6856 
  134200    302.08262   -22005.387    115.25772   -22120.645   -6065.9568 
  134400    283.48508   -22005.651    108.16194   -22113.813   -23564.489 
  134600    269.44685   -22030.329    102.80575   -22133.135   -3676.6927 
  134800    294.74511   -22009.701    112.45814   -22122.159   -5356.6666 
  135000    310.55892   -22008.657     118.4918   -22127.149   -2967.0878 
  135200    302.55374   -22015.567    115.43747   -22131.004   -13918.711 
  135400     311.5916   -22016.571    118.88581   -22135.457   -7483.8795 
  135600    287.37143   -22000.477    109.64476   -22110.122   -7579.1505 
  135800    279.49683   -22024.917    106.64025   -22131.557   -9290.3027 
  136000    276.80819   -22012.356    105.61442    -22117.97   -23468.662 
  136200    293.56059   -22004.095    112.00619   -22116.101    -12879.27 
  136400    263.29745   -22016.871    100.45948   -22117.331    -7624.326 
  136600    285.68777    -21992.99    109.00237   -22101.993     5710.797 
  136800    318.90846   -22000.844    121.67751   -22122.521   -15296.948 
  137000    295.59393   -22017.623      112.782   -22130.405   -13081.272 
  137200    304.25226   -22012.752    116.08553   -22128.837    20192.984 
  137400    353.02378   -21991.042      134.694   -22125.736   -28967.776 
  137600    311.60908   -22012.717    118.89248   -22131.609    2830.8947 
  137800    290.19969   -22015.586    110.72386   -22126.309    14654.237 
  138000    322.72242   -21991.971     123.1327   -22115.103    11079.351 
  138200    325.75654   -21990.839    124.29035   -22115.129    6517.2716 
  138400    306.71951   -22006.671    117.02689   -22123.698   -3238.8442 
  138600    278.16909    -22027.54    106.13366   -22133.674    14054.431 
  138800    306.79671   -22003.285    117.05635   -22120.341   -31186.579 
  139000    296.90403   -22002.709    113.28186   -22115.991    4256.7732 
  139200    304.17004   -22021.738    116.05416   -22137.792    6491.3513 
  139400    296.55833   -22007.108    113.14996   -22120.258    22150.157 
  139600     342.8391   -21984.445     130.8081   -22115.253    17051.248 
  139800    307.39717   -22013.118    117.28545   -22130.404    13861.966 
  140000    289.54956   -22016.618    110.47581   -22127.093   -10552.114 
  140200    312.99092   -21992.789    119.41971   -22112.208    4373.7032 
  140400    271.78944   -22019.084    103.69955   -22122.783   -4375.7856 
  140600    272.77326   -22015.297    104.07491   -22119.372   -6463.2447 
  140800    291.07716   -22005.873    111.05865   -22116.932   -20020.421 
  141000    306.47756   -22005.243    116.93458   -22122.178    -36903.24 
  141200    338.20799   -22002.371    129.04112   -22131.412   -514.23004 
  141400    315.83648    -21999.42    120.50542   -22119.926    3659.6357 
  141600    275.45657    -22026.08    105.09871   -22131.178   -1683.4031 
  141800    289.74694   -22013.404    110.55111   -22123.955   -14847.557 
  142000    288.72346   -21999.932    110.16062   -22110.092    1053.0133 
  142200    311.38649   -22010.311    118.80755   -22129.119   -23641.765 
  142400    273.37166   -22025.434    104.30323   -22129.737    15569.468 
  142600    290.46986   -22005.103    110.82694    -22115.93   -18783.598 
  142800    300.73622   -22007.065    114.74401   -22121.809   -1376.5624 
  143000    283.22228   -22024.876    108.06167   -22132.938    8946.2516 
  143200    286.85647   -22017.486    109.44828   -22126.934    9275.1301 
  143400    306.14349   -22005.013    116.80712    -22121.82   -15338.586 
  143600    282.65247   -22018.438    107.84426   -22126.283   -1370.4258 
  143800    275.81181   -22034.717    105.23426   -22139.951   -12271.354 
  144000    331.44093   -21999.125    126.45919   -22125.585    8785.2716 
  144200    292.36036   -22011.697    111.54825   -22123.245    1996.6738 
  144400    263.12331   -22029.455    100.39304   -22129.848    -2597.338 
  144600    315.10205   -21999.252     120.2252   -22119.477    -4165.927 
  144800     275.9964   -22015.507    105.30468   -22120.812    5821.4988 
  145000    297.25444    -22010.92    113.41555   -22124.335   -5801.2722 
  145200    329.18963   -21996.419    125.60023    -22122.02    25543.646 
  145400    287.99997   -22021.823    109.88457   -22131.707    24058.465 
  145600    333.14503   -22006.314    127.10938   -22133.423   -12727.147 
  145800    307.80065    -21990.43    117.43939    -22107.87    15136.218 
  146000    302.72628   -22014.046     115.5033   -22129.549    8881.8117 
  146200    294.98981   -22021.976     112.5515   -22134.527   -1218.1316 
  146400    283.82668   -22029.715    108.29228   -22138.007     11382.01 
  146600    319.78902   -22000.675    122.01348   -22122.688    9056.0861 
  146800    278.20951    -22013.67    106.14908   -22119.819   -14488.525 
  147000    280.98202   -22024.629    107.20691   -22131.836    24369.639 
  147200    297.32185   -21992.651    113.44127   -22106.093    12267.122 
  147400    259.11636   -22014.347     98.86421   -22113.211   -21436.801 
  147600    285.56381    -22016.62    108.95507   -22125.575    9780.7899 
  147800    302.54187   -21993.601    115.43294   -22109.034    6158.4436 
  148000    308.01115   -22013.012    117.51971   -22130.532    -8536.658 
  148200    279.44011    -22011.12    106.61861   -22117.738   -18295.022 
  148400    285.33836   -22015.178    108.86905   -22124.047   -8358.8033 
  148600    262.76441   -22038.511     100.2561   -22138.767    -17430.82 
  148800    297.07596   -22010.722    113.34746   -22124.069   -30130.078 
  149000    317.98136   -22005.284    121.32378   -22126.608    13853.237 
  149200    277.53952   -22032.104    105.89345   -22137.997    12754.894 
  149400    315.11739   -22003.856    120.23105   -22124.087    18435.519 
  149600    314.53404   -22003.301    120.00848   -22123.309   -9578.6737 
  149800    281.37295   -22016.254    107.35607    -22123.61   -942.73433 
  150000    297.00991   -22006.804    113.32225   -22120.126     9323.302 
  150200    303.94664   -22002.832    115.96892   -22118.801    5804.1203 
  150400     303.9613   -22013.388    115.97451   -22129.363   -8535.1149 
  150600    289.98216   -22020.921    110.64086   -22131.562    11199.409 
  150800    336.30902   -21996.901    128.31658   -22125.218   -4339.1824 
  151000    271.50437   -22018.744    103.59078   -22122.335    2854.6893 
  151200    297.88886   -22016.964    113.65761   -22130.622   -8127.7294 
  151400    308.05012   -22008.596    117.53458    -22126.13    33882.218 
  151600    307.83669   -22005.037    117.45314    -22122.49    4617.8831 
  151800    268.75665   -22027.477     102.5424   -22130.019     9669.397 
  152000    324.68147   -22006.571    123.88016   -22130.452   -12160.016 
  152200    286.80489    -22012.28    109.42859   -22121.709   -10086.726 
  152400    256.39628   -22039.996    97.826381   -22137.822   -5694.1439 
  152600    298.07071   -22015.117      113.727   -22128.844    19734.004 
  152800    291.62307   -22000.744    111.26694   -22112.011   -3152.1685 
  153000     269.7912   -22019.285    102.93713   -22122.222   -13172.589 
  153200    292.69417   -22017.685    111.67561    -22129.36    7996.9474 
  153400    312.70993   -21995.526     119.3125   -22114.839    12720.074 
  153600    273.41414   -22015.613    104.31944   -22119.933    6080.6925 
  153800    295.90252   -22019.409    112.89974   -22132.309    18015.099 
  154000    326.62825    -22010.04    124.62295   -22134.663    20486.002 
  154200    297.46517   -22000.701    113.49596   -22114.197    17724.751 
  154400    312.35226   -21995.847    119.17603   -22115.023    18226.953 
  154600    319.69112   -22018.517    121.97613   -22140.493    6058.6023 
  154800    329.31006   -22001.132    125.64618   -22126.778   -23065.921 
  155000    316.81591   -21994.302    120.87911   -22115.181   -1901.0341 
  155200    302.32523   -22007.682    115.35028   -22123.032   -9138.8438 
  155400    331.07271   -22011.267     126.3187   -22137.585    14038.953 
  155600    304.50652   -21999.721    116.18254   -22115.903    11641.845 
  155800    317.00584   -21997.131    120.95158   -22118.082     5813.647 
  156000     281.8701   -22019.281    107.54576   -22126.826   -10614.581 
  156200     333.7291   -21996.323    127.33223   -22123.655   -26686.017 
  156400    316.84896   -21997.479    120.89172   -22118.371    -173.9117 
  156600    295.22163   -22015.436    112.63995   -22128.076   -1497.1525 
  156800    277.48811   -22020.993    105.87384   -22126.866    7915.5004 
  157000    313.62008   -21995.575    119.65976   -22115.234   -11128.352 
  157200    304.18973   -22012.774    116.06167   -22128.836   -14228.471 
  157400    251.67733    -22015.37    96.025896   -22111.396    26897.677 
  157600    309.17073   -22005.337    117.96214   -22123.299    14771.538 
  157800     288.9464   -22001.414    110.24567    -22111.66   -12269.758 
  158000    271.23595   -22023.276    103.48836   -22126.764    16692.349 
  158200    309.81277   -21995.122    118.20711   -22113.329     13525.29 
  158400    307.65382   -22009.318    117.38337   -22126.702    18417.637 
  158600    328.24399   -22017.394    125.23942   -22142.633    20783.802 
  158800    310.58591   -22003.919    118.50209   -22122.421     3191.068 
  159000    308.70019   -22006.001    117.78261   -22123.784    4057.2142 
  159200    269.04978   -22029.326    102.65425    -22131.98   -5049.8845 
  159400    338.54837   -22006.395    129.17099   -22135.566   -8015.7904 
  159600    292.32392   -22007.625    111.53435   -22119.159   -4223.4648 
  159800    271.61764   -22029.784      103.634   -22133.418   -2170.4297 
  160000    325.39794    -22015.07    124.15353   -22139.223   -7716.0769 
  160200    284.55391   -21998.938    108.56975   -22107.508    -12283.86 
  160400    267.63582   -22024.192    102.11476   -22126.307   -36.351863 
  160600    295.56119    -22011.14    112.76951    -22123.91    26517.568 
  160800    290.39721   -22005.175    110.79922   -22115.974   -6153.8915 
  161000    289.18148   -22016.639    110.33537   -22126.974    11202.615 
  161200     265.6013   -22029.611     101.3385   -22130.949   -9543.2195 
  161400    312.27451   -22005.373    119.14637    -22124.52    2939.7476 
  161600    302.95006   -22004.592    115.58868    -22120.18    10974.942 
  161800    264.05219   -22031.464    100.74744   -22132.212    15390.446 
  162000    285.49967    -22012.27     108.9306   -22121.201    12787.136 
  162200    323.37017   -22010.344    123.37985   -22133.724    6330.7969 
  162400    275.98033   -22015.567    105.29855   -22120.866    1807.0541 
  162600    315.79437   -22002.235    120.48935   -22122.725   -8785.6566 
  162800    290.83221   -22006.394     110.9652   -22117.359    9883.1742 
  163000    268.71918    -22025.97    102.52811   -22128.498   -1902.5184 
  163200    333.73764   -21996.712    127.33549   -22124.047    14418.008 
  163400    311.65865   -21998.488    118.91139   -22117.399    15461.471 
  163600    297.24141    -22019.23    113.41058    -22132.64   -4136.7899 
  163800    283.21398    -22013.05     108.0585   -22121.108   -15223.983 
  164000    316.41935   -21999.252     120.7278   -22119.979    9692.1422 
  164200    282.40275   -22019.854    107.74899   -22127.603   -4034.2727 
  164400    306.51925   -22010.506    116.95048   -22127.457    8029.6773 
  164600    301.81811   -21995.214     115.1568    -22110.37    42127.045 
  164800    306.50563   -21985.663    116.94529   -22102.608   -1590.6694 
  165000    298.82579   -22011.316    114.01509   -22125.331   -11446.886 
  165200    308.29666   -22010.454    117.62864   -22128.082   -11676.141 
  165400    343.68757   -21989.452    131.13182   -22120.584    5118.0687 
  165600    284.13556   -22021.044    108.41013   -22129.454    15823.238 
  165800    314.16367   -22008.993    119.86717    -22128.86    7245.6106 
  166000    306.18857   -22002.465    116.82431    -22119.29    -11648.89 
  166200    260.03066    -22028.48    99.213058   -22127.693    3781.9861 
  166400    294.84562   -22002.883    112.49648    -22115.38   -3369.3219 
  166600     276.1079    -22009.27    105.34723   -22114.617     7262.396 
  166800    277.66607   -22012.129    105.94174    -22118.07    7854.3743 
  167000    325.09768   -22005.299    124.03897   -22129.338    1733.9152 
  167200    282.71948   -22010.155    107.86983   -22118.025    6587.6366 
  167400    240.90011    -22033.04    91.913916   -22124.954    23361.966 
  167600    315.44929   -22007.111    120.35769   -22127.469    11011.024 
  167800    285.95641   -22009.113    109.10486   -22118.218    6481.9365 
  168000     270.8698   -22021.107    103.34866   -22124.456    12884.955 
  168200    306.50983   -22008.613    116.94689    -22125.56   -292.70626 
  168400    323.55943   -21999.198    123.45206    -22122.65    2184.7731 
  168600    284.49204   -22026.566    108.54614   -22135.112   -8981.0528 
  168800    321.17935   -22004.393    122.54395   -22126.937    7043.2661 
  169000    308.18075    -22011.15    117.58442   -22128.734   -16855.934 
  169200    297.61405   -22035.599    113.55276   -22149.151    16253.083 
  169400    277.66869   -22012.442    105.94274   -22118.385    2561.4194 
  169600    298.11254   -22006.374    113.74296   -22120.117    14716.914 
  169800    264.85337   -22034.361    101.05313   -22135.414    1452.7239 
  170000    279.60634    -22010.84    106.68203   -22117.522     10402.54 
  170200    300.76563   -22007.847    114.75523   -22122.602   -1975.1838 
  170400    274.62141   -22024.405    104.78007   -22129.185     20267.84 
  170600    288.30871    -21991.41    110.00237   -22101.412    10597.724 
  170800    290.44148   -22009.498    110.81611   -22120.314   -20734.957 
  171000    290.98597   -22013.602    111.02386   -22124.626    17194.233 
  171200    317.48327   -21976.499    121.13374   -22097.633    -14906.19 
  171400    302.15373   -22000.652    115.28485   -22115.937   -2396.8798 
  171600    313.93355   -22013.919    119.77936   -22133.698    14378.133 
  171800    317.10545   -22006.278    120.98958   -22127.267    22243.119 
  172000    288.58528   -21997.334    110.10789   -22107.442   -3336.0995 
  172200    306.21862   -22021.222    116.83578   -22138.058   -7975.3228 
  172400    310.87936   -22009.279    118.61406   -22127.893    2039.4608 
  172600    359.11363   -21975.087    137.01754   -22112.105   -822.25639 
  172800    284.18923   -22012.855    108.43061   -22121.286    7667.8639 
  173000    324.09322   -22009.719    123.65572   -22133.375   -25502.016 
  173200    325.82003   -21995.518    124.31458   -22119.832    7068.8077 
  173400    271.11223   -22024.264    103.44116   -22127.705   -21399.998 
  173600    318.37652   -22005.092    121.47455   -22126.566    118.25307 
  173800    305.90359   -22005.733    116.71558   -22122.449    782.94717 
  174000    302.82488   -22020.126    115.54092   -22135.667    4062.6487 
  174200     266.5577   -22025.521    101.70341   -22127.224     10327.97 
  174400    294.18618   -22005.761    112.24488   -22118.006   -20577.508 
  174600    291.35277   -22018.883    111.16381   -22130.047   -5072.3706 
  174800    253.01799   -22025.502    96.537418    -22122.04    25935.803 
  175000    286.41842   -22009.327    109.28114   -22118.608   -33166.252 
  175200    340.30222   -22002.308    129.84016   -22132.148    10800.527 
  175400    281.73721   -22029.225    107.49505    -22136.72   -7444.0542 
  175600    278.46884   -22012.268    106.24803   -22118.516     4892.423 
  175800    326.33154   -22005.149    124.50974   -22129.658     18278.64 
  176000    279.88572   -22009.795    106.78863   -22116.584    3409.4085 
  176200    339.54656   -22006.411    129.55185   -22135.962   -2000.4113 
  176400    316.94899   -22012.329    120.92989   -22133.258    4487.4191 
  176600    272.81875   -22025.709    104.09227   -22129.801    9388.5057 
  176800    317.61381   -21993.625    121.18354   -22114.809    1932.5906 
  177000    296.24833   -22010.776    113.03168   -22123.807    20672.054 
  177200    296.47779   -22001.743    113.11923   -22114.862   -4808.9893 
  177400    336.88448   -21989.465    128.53615   -22118.002   -437.44445 
  177600    299.20997   -22015.372    114.16167   -22129.534   -11734.844 
  177800    302.89713   -21999.905    115.56849   -22115.474   -8961.7205 
  178000    322.86994   -21979.524    123.18899   -22102.713    14605.369 
  178200    305.34884   -22015.873    116.50392   -22132.377    25156.592 
  178400    288.51118   -22012.754    110.07962   -22122.834    3048.7665 
  178600    302.18846   -21987.835     115.2981   -22103.133   -4555.3832 
  178800    306.05223   -22018.054    116.77229   -22134.826   -7637.2113 
  179000    290.50115   -22013.268    110.83888   -22124.107    10369.316 
  179200      323.538   -21987.353    123.44388   -22110.797    754.43447 
  179400    275.44567   -22019.444    105.09456   -22124.539    28522.048 
[...]
  950000     315.3862   -22058.684    120.33361   -22179.018   -3361.5679 
  950200    340.50569   -22045.918     129.9178   -22175.836    9148.4905 
  950400    327.64328   -22055.777    125.01023   -22180.787    6353.1557 
  950600    318.20329   -22056.867    121.40846   -22178.275    13150.858 
  950800    319.17036   -22025.851    121.77744   -22147.629    28762.634 
  951000    282.44291   -22054.693    107.76431   -22162.457    17241.471 
  951200     295.3136   -22063.064    112.67504   -22175.739   -5919.3224 
  951400     317.5363    -22055.68    121.15397   -22176.834   -11080.161 
  951600    331.19942   -22046.659    126.36705   -22173.026   -11497.287 
  951800     286.5104    -22073.83    109.31623   -22183.146   -5672.3889 
  952000    289.34526   -22058.372    110.39786    -22168.77    10774.754 
  952200    277.08709   -22057.829    105.72083    -22163.55    18047.285 
  952400    301.02622   -22056.007    114.85465   -22170.862   -22247.488 
  952600    298.86815   -22060.105    114.03125   -22174.136   -2686.8079 
  952800    295.25411   -22045.686    112.65234   -22158.338   -25469.954 
  953000    301.27083   -22048.172    114.94798    -22163.12    11002.973 
  953200     313.2317   -22062.753    119.51158   -22182.265     13782.37 
  953400    308.88446    -22044.33    117.85292   -22162.183    13660.297 
  953600    288.21654   -22040.444     109.9672   -22150.411   -38048.003 
  953800    299.87196   -22055.187    114.41425   -22169.601    13110.849 
  954000    310.02061   -22052.536    118.28641   -22170.822   -5489.2896 
  954200    309.65541   -22036.113    118.14707    -22154.26   -8251.8211 
  954400    287.22288   -22064.791    109.58808   -22174.379    26451.691 
  954600    285.79649   -22052.699    109.04384   -22161.743    15395.732 
  954800      277.498   -22044.695    105.87761   -22150.572   -15119.718 
  955000    271.29691   -22058.742    103.51163   -22162.254   -170.24701 
  955200    246.11744    -22086.17    93.904554   -22180.075    25538.733 
  955400    280.78986   -22064.561     107.1336   -22171.695    6633.6465 
  955600     305.9568   -22048.085    116.73588    -22164.82    1444.2891 
  955800    285.51311   -22068.231    108.93572   -22177.167   -11858.063 
  956000    302.09103   -22057.051    115.26093   -22172.312    36828.357 
  956200    324.31634   -22046.607    123.74085   -22170.348    13247.688 
  956400    278.51713   -22064.602    106.26645   -22170.868   -25337.937 
  956600    292.96127   -22053.511    111.77752   -22165.288   -35852.334 
  956800    309.92059    -22038.76    118.24824   -22157.009    31989.656 
  957000    270.65364   -22064.701    103.26619   -22167.967    2866.6635 
  957200    295.40321   -22056.262    112.70923   -22168.972    3346.3079 
  957400    327.20131   -22047.489     124.8416    -22172.33   -9598.5166 
  957600    305.57494   -22063.845    116.59019   -22180.435    1599.4607 
  957800    303.19534    -22069.59    115.68227   -22185.273   -7233.1473 
  958000    307.62093   -22047.768    117.37082   -22165.139   -27272.393 
  958200    284.75003   -22067.804    108.64458   -22176.449   -7082.5069 
  958400    312.35577   -22071.523    119.17737   -22190.701   -4371.0333 
  958600    264.00402   -22053.973    100.72907   -22154.702   -848.43526 
  958800    292.25075   -22047.547    111.50643   -22159.054    36432.099 
  959000    264.80525    -22071.21    101.03477   -22172.245   -13291.984 
  959200    307.57732   -22046.817    117.35418   -22164.171   -12094.279 
  959400    293.03066    -22050.66      111.804   -22162.464   -20700.197 
  959600    265.03765   -22071.873    101.12344   -22172.996   -11475.622 
  959800    294.72996   -22063.476    112.45236   -22175.928   -5150.7862 
  960000    325.12588   -22041.256    124.04973   -22165.306   -17593.954 
  960200    271.00208   -22063.279    103.39913   -22166.678    8870.1906 
  960400    283.91382   -22062.192    108.32553   -22170.518    14217.843 
  960600    302.12108   -22038.235    115.27239   -22153.508    8171.3506 
  960800    296.01875   -22062.758    112.94408   -22175.702   -14676.458 
  961000     269.2568   -22060.825    102.73323   -22163.558   -7800.1787 
  961200    323.34231   -22053.792    123.36922   -22177.162     1521.681 
  961400    350.02134   -22049.111    133.54843   -22182.659    13246.052 
  961600    278.38872   -22071.065    106.21746   -22177.283    18437.532 
  961800    301.24982   -22044.199    114.93997   -22159.139   -21565.191 
  962000    307.68161    -22046.37    117.39398   -22163.764   -27673.559 
  962200    301.13773   -22062.246     114.8972   -22177.143    7431.7343 
  962400    265.61621   -22088.294    101.34419   -22189.638   -14042.186 
  962600    273.64539   -22059.976    104.40767   -22164.383     7246.824 
  962800    318.74667   -22042.873    121.61578   -22164.489   -17494.504 
  963000    292.91175   -22062.565    111.75863   -22174.323    8457.2737 
  963200    271.99559    -22069.69     103.7782   -22173.469    24234.206 
  963400    339.68767   -22045.302    129.60569   -22174.908    33004.725 
  963600    284.69708   -22060.918    108.62438   -22169.542    11993.167 
  963800    255.57528   -22074.698    97.513133   -22172.211    13651.105 
  964000    308.63204    -22048.03    117.75661   -22165.787    5926.2674 
  964200    289.30193   -22062.043    110.38132   -22172.424   -14529.889 
  964400    294.87025   -22071.365    112.50588   -22183.871   -4892.5497 
  964600    268.78093    -22055.16    102.55167   -22157.712   -733.40355 
  964800    312.84282   -22043.722     119.3632   -22163.085   -2666.5036 
  965000    302.71491   -22054.337    115.49896   -22169.836   -10781.908 
  965200    275.09769   -22072.322    104.96179   -22177.284    2567.4853 
  965400    316.27021   -22043.467     120.6709   -22164.138   -12785.214 
  965600    302.34082   -22054.696    115.35623   -22170.053   -13442.929 
  965800    285.35434   -22081.371    108.87515   -22190.246    5933.3718 
  966000    277.81701   -22062.647    105.99933   -22168.647    -2200.477 
  966200    301.93042   -22048.347    115.19965   -22163.546   -12465.557 
  966400    295.48349   -22070.941    112.73986   -22183.681   -3559.0857 
  966600    304.63588   -22042.652     116.2319   -22158.884    287.20174 
  966800    310.73964   -22052.723    118.56075   -22171.284    22434.957 
  967000    273.34385    -22068.46    104.29262   -22172.753   -5582.3288 
  967200    324.80624   -22036.591    123.92777   -22160.519    120.41478 
  967400    302.31216   -22048.335     115.3453    -22163.68   -13819.501 
  967600    281.23451   -22060.926    107.30325   -22168.229    9602.9256 
  967800    310.65853   -22055.826     118.5298   -22174.355    3954.7495 
  968000    304.03602   -22042.176    116.00302   -22158.179    3885.3808 
  968200    295.42192   -22067.935    112.71637   -22180.651   -13055.468 
  968400    301.35166    -22053.94    114.97882   -22168.919    1632.8968 
  968600    288.61719   -22051.118    110.12007   -22161.238   -11077.987 
  968800    328.51335   -22055.156    125.34219   -22180.498    8619.4853 
  969000    291.95368   -22060.709    111.39308   -22172.102    12917.642 
  969200     305.1662   -22060.956    116.43424    -22177.39    -12666.38 
  969400    343.85193   -22038.298    131.19453   -22169.492    1209.0742 
  969600    282.26709   -22070.305    107.69723   -22178.002    12941.481 
  969800    300.21773   -22057.128    114.54618   -22171.674    -12739.19 
  970000    340.14492   -22043.496    129.78015   -22173.276   -22023.716 
  970200    280.92843   -22076.203    107.18647    -22183.39    17715.472 
  970400     305.6962   -22056.179    116.63646   -22172.816    3509.1273 
  970600    278.10149   -22047.762    106.10787   -22153.869    683.74387 
  970800    285.84227   -22065.494    109.06132   -22174.555   -1774.6011 
  971000    291.03868   -22063.198    111.04397   -22174.242    3833.7995 
  971200    299.74754   -22044.032    114.36678   -22158.399   -15683.127 
  971400     265.7789   -22060.608    101.40626   -22162.014   -8916.2493 
  971600    273.81168   -22072.001    104.47112   -22176.472   -1504.8616 
  971800    272.70909   -22056.008    104.05043   -22160.059    5724.3287 
  972000    320.55176   -22049.229     122.3045   -22171.534   -2421.2158 
  972200    266.80089   -22078.059     101.7962   -22179.855    17185.512 
  972400    300.25563   -22063.133    114.56064   -22177.693    9450.4473 
  972600    255.43835   -22052.485    97.460889   -22149.946    -11099.18 
  972800    313.71175   -22041.629    119.69474   -22161.323    19687.561 
  973000     314.9227   -22068.989    120.15677   -22189.146    -2294.104 
  973200    310.56224   -22046.641    118.49306   -22165.134    12396.173 
  973400    280.04351    -22046.09    106.84883   -22152.939     28673.82 
  973600     282.3994   -22063.188    107.74771   -22170.935    14237.906 
  973800    270.38378   -22089.027    103.16323    -22192.19   -7231.8287 
  974000    315.09938   -22064.478    120.22418   -22184.702   -26241.088 
  974200    315.41111   -22047.324    120.34312   -22167.667   -15608.985 
  974400     299.0985   -22065.444    114.11914   -22179.563   -24002.779 
  974600     255.1104   -22072.325    97.335764   -22169.661    1661.6067 
  974800    299.96616   -22056.096    114.45019   -22170.547   -17834.825 
  975000     310.7736   -22057.796    118.57371    -22176.37   -20546.187 
  975200    310.71294   -22044.071    118.55056   -22162.621    4353.7912 
  975400    306.74598   -22057.607    117.03699   -22174.644   -5987.8437 
  975600    305.29234   -22063.497    116.48236    -22179.98    375.62407 
  975800    332.65428   -22036.659    126.92214   -22163.581   -15007.554 
  976000    331.93542   -22047.239    126.64786   -22173.887   -8372.9161 
  976200    269.32741   -22063.351    102.76017   -22166.112     7677.132 
  976400    290.64121   -22049.412    110.89232   -22160.305    4187.6826 
  976600    291.62285   -22048.467    111.26686   -22159.734    1787.6524 
  976800    250.97219   -22070.539    95.756855   -22166.296    31540.725 
  977000    316.02836   -22045.778    120.57863   -22166.356   -7255.7211 
  977200    304.21047   -22056.465    116.06958   -22172.535    2454.4394 
  977400    261.98432   -22083.698    99.958465   -22183.656    9324.2123 
  977600    293.11538   -22059.241    111.83632   -22171.077   -10766.049 
  977800    318.10093   -22051.151     121.3694   -22172.521   -7838.9963 
  978000    284.53657   -22077.802    108.56313   -22186.365   -5811.4804 
  978200    312.82255   -22059.135    119.35547    -22178.49   -18432.683 
  978400    311.23027   -22055.317    118.74794   -22174.065    25933.305 
  978600     295.5137   -22072.659    112.75139    -22185.41    1923.2063 
  978800    279.26503   -22064.404    106.55181   -22170.956    17155.305 
  979000    335.14397   -22047.629    127.87207   -22175.501   -3678.6687 
  979200    257.46167   -22071.997    98.232875    -22170.23      1107.21 
  979400    277.66722   -22076.072    105.94217   -22182.014   -4519.8185 
  979600    297.98907   -22044.558    113.69585   -22158.254   -10024.882 
  979800    300.80948    -22056.95    114.77196   -22171.722   -3724.1598 
  980000    292.14638   -22064.319    111.46661   -22175.786    12427.778 
  980200    352.43825   -22037.758    134.47059   -22172.228    40757.814 
  980400    287.58731   -22062.373    109.72712     -22172.1   -3543.9109 
  980600    298.49171   -22053.265    113.88763   -22167.153   -942.02337 
  980800    339.01455   -22030.805    129.34886   -22160.154    18991.619 
  981000    274.69343   -22052.371    104.80754   -22157.179    4806.9028 
  981200    304.12487   -22054.047    116.03692   -22170.084   -14914.998 
  981400    261.35906   -22071.862    99.719899   -22171.582    179.05238 
  981600    284.08806   -22053.149      108.392   -22161.541   -14266.673 
  981800    308.94572   -22046.217    117.87629   -22164.093    549.36473 
  982000    259.89919   -22068.113    99.162893   -22167.276    30467.356 
  982200    266.51902   -22083.422    101.68865    -22185.11   -19460.088 
  982400    329.27949   -22052.737    125.63451   -22178.372    13031.673 
  982600    319.91371   -22042.617    122.06106   -22164.678    6174.4106 
  982800    301.90178   -22055.212    115.18872     -22170.4    17164.794 
  983000    273.83816   -22064.294    104.48122   -22168.775   -8197.4929 
  983200    319.68095   -22042.701    121.97225   -22164.674    26576.129 
  983400    291.83689   -22061.917    111.34852   -22173.265    556.52409 
  983600    290.62877   -22056.194    110.88757   -22167.082    13690.633 
  983800    307.56573   -22042.119    117.34976   -22159.469   -22570.628 
  984000    289.55473   -22065.262    110.47778    -22175.74   -13145.996 
  984200     328.3444   -22034.969    125.27773   -22160.246    14212.847 
  984400    241.87491   -22054.721    92.285845   -22147.007    16601.632 
  984600    311.91243   -22057.883    119.00822   -22176.891    36730.786 
  984800    312.29328   -22025.244    119.15353   -22144.398    15964.423 
  985000     300.5449       -22060    114.67101   -22174.671   -5717.7534 
  985200    322.41836   -22058.115    123.01669   -22181.132   -192.56572 
  985400    290.77569    -22048.92    110.94363   -22159.864    6143.2965 
  985600    342.17992   -22034.821    130.55659   -22165.377    15581.444 
  985800    297.70502   -22059.815    113.58747   -22173.402    5125.5701 
  986000    310.15854   -22060.516    118.33903   -22178.855       -12672 
  986200    338.93507   -22022.107    129.31854   -22151.425    19177.296 
  986400    350.12817   -22036.737    133.58919   -22170.326   -6283.5069 
  986600    312.72084   -22054.445    119.31666   -22173.762   -28170.453 
  986800    307.59528   -22053.148    117.36104   -22170.509    15562.587 
  987000    305.85913   -22051.526    116.69862   -22168.224    7503.3396 
  987200     264.0883   -22068.436    100.76122   -22169.197   -377.69643 
  987400    303.56812   -22048.414     115.8245   -22164.239   -3098.5715 
  987600    323.26732   -22045.091     123.3406   -22168.432     3974.964 
  987800    295.32541   -22064.566    112.67955   -22177.245    9585.4124 
  988000    327.70091   -22039.113    125.03221   -22164.145      1675.97 
  988200    291.28255   -22041.722    111.13702   -22152.859   -14603.932 
  988400    293.75118    -22062.01    112.07891   -22174.089    9668.2735 
  988600    297.49697   -22037.299    113.50809   -22150.807   -2678.6499 
  988800    326.04939     -22043.4    124.40209   -22167.802    2019.7867 
  989000    294.73125   -22057.742    112.45285   -22170.195    6680.4906 
  989200    266.20731   -22061.266    101.56972   -22162.835   -9730.5649 
  989400    339.91666   -22033.214    129.69305   -22162.907    3792.0141 
  989600     295.9227   -22058.537    112.90744   -22171.444   -2329.4983 
  989800    276.59633   -22061.989    105.53358   -22167.523    4218.9327 
  990000    309.89231   -22048.729    118.23745   -22166.966    21679.368 
  990200    315.64696   -22045.439    120.43311   -22165.872    -20157.88 
  990400    261.91032   -22066.895    99.930228   -22166.825    7674.8699 
  990600    282.03708   -22047.972    107.60947   -22155.581   -2362.9345 
  990800    357.30063   -22015.151     136.3258   -22151.477   -3142.1594 
  991000    282.18185   -22052.308     107.6647   -22159.973    23532.994 
  991200    310.15152   -22060.696    118.33635   -22179.032    3852.0048 
  991400    350.85226   -22035.697    133.86547   -22169.563   -21304.865 
  991600    296.59717   -22060.514    113.16478   -22173.679   -18892.048 
  991800    277.29865   -22063.811    105.80155   -22169.612    13762.111 
  992000     319.5827    -22037.64    121.93476   -22159.575   -10511.081 
  992200    272.83789       -22069    104.09957     -22173.1     -17658.8 
  992400    301.50349   -22054.649    115.03675   -22169.686      8248.23 
  992600    340.18813   -22045.374    129.79663   -22175.171   -25764.035 
  992800     284.2403   -22067.341    108.45009   -22175.791    12898.815 
  993000    299.92417   -22050.639    114.43417   -22165.073    10663.277 
  993200    315.79004   -22037.943     120.4877   -22158.431   -17414.251 
  993400    289.61065    -22068.62    110.49912   -22179.119      18679.2 
  993600    315.46715   -22054.969     120.3645   -22175.333   -9084.2609 
  993800    284.79961   -22046.198    108.66349   -22154.861   -32662.341 
  994000    279.58663   -22074.628    106.67451   -22181.302   -3839.6829 
  994200    299.54386    -22054.54    114.28907   -22168.829    12817.016 
  994400    281.12772   -22052.034    107.26251   -22159.297    22769.288 
  994600    243.04599   -22082.618    92.732661    -22175.35   -1303.5956 
  994800    270.35243   -22063.387    103.15126   -22166.538    2888.2591 
  995000    292.31116   -22047.763    111.52948   -22159.293   -16880.606 
  995200    307.73347   -22058.894    117.41376   -22176.308   -5588.7577 
  995400    266.52721   -22068.213    101.69177   -22169.905    21833.881 
  995600    280.92585     -22047.6    107.18548   -22154.785   -9750.3822 
  995800    277.17818   -22062.422    105.75558   -22168.177   -4654.3478 
  996000    258.94416   -22088.438    98.798509   -22187.237     15940.06 
  996200    296.47348   -22062.541    113.11758   -22175.658   -11430.235 
  996400    299.22117   -22045.097    114.16595   -22159.262    8468.6072 
  996600    281.12525   -22068.428    107.26156   -22175.689    5555.6681 
  996800    281.48841   -22065.684    107.40013   -22173.084   -1058.1826 
  997000    292.09001   -22058.264     111.4451   -22169.709    19160.351 
  997200    321.01126   -22033.946    122.47982   -22156.426    1504.6959 
  997400    292.30251   -22047.851    111.52618   -22159.377   -11656.205 
  997600     289.3616   -22060.257    110.40409   -22170.661   -965.64909 
  997800    308.33151   -22042.117    117.64194   -22159.759    -13622.98 
  998000    308.43603    -22046.02    117.68182   -22163.702   -6449.9821 
  998200    299.70129   -22062.914    114.34914   -22177.263   -6580.5007 
  998400      337.524   -22042.912    128.78015   -22171.692    178.74767 
  998600    286.55701   -22069.085    109.33402   -22178.419    1508.8458 
  998800    280.92852   -22080.845     107.1865   -22188.032    -9442.345 
  999000     339.3269   -22049.106    129.46804   -22178.574    4270.0879 
  999200    299.99981    -22055.55    114.46303   -22170.013   -6357.7453 
  999400    241.27558   -22076.353    92.057174    -22168.41   -15656.057 
  999600    309.30271   -22045.806     118.0125   -22163.819   -2346.2313 
  999800    296.54081   -22062.927    113.14328    -22176.07    8510.3556 
 1000000       271.85   -22070.289    103.72265   -22174.012    6276.8707 
Loop time of 13613.9 on 8 procs for 1000000 steps with 129 atoms

Performance: 1.587 ns/day, 15.127 hours/ns, 73.454 timesteps/s
99.7% CPU use with 8 MPI tasks x no OpenMP threads

MPI task timing breakdown:
Section |  min time  |  avg time  |  max time  |%varavg| %total
---------------------------------------------------------------
Pair    | 9388.3     | 10742      | 11428      | 658.0 | 78.91
Neigh   | 1.4555     | 1.5999     | 1.7252     |   8.6 |  0.01
Comm    | 176.03     | 864.07     | 2219.5     |2325.4 |  6.35
Output  | 0.41964    | 0.4517     | 0.64226    |  10.7 |  0.00
Modify  | 1983.8     | 1986.7     | 1991.4     |   5.5 | 14.59
Other   |            | 18.98      |            |       |  0.14

Nlocal:    16.125 ave 40 max 2 min
Histogram: 2 1 2 1 0 0 0 0 0 2
Nghost:    478.875 ave 526 max 431 min
Histogram: 2 1 0 1 0 0 0 2 0 2
Neighs:    1106 ave 2527 max 161 min
Histogram: 2 1 1 1 1 0 0 0 0 2

Total # of neighbors = 8848
Ave neighs/atom = 68.5891
Neighbor list builds = 824
Dangerous builds = 0

Please see the log.cite file for references relevant to this simulation

Total wall time: 3:47:44
