 # File generated with Atomsk by ana on 2024-09-05 17:52:39
  
          41  atoms
           2  atom types
 
      0.000000000000       9.898000000000  xlo xhi
      0.000000000000       9.898000000000  ylo yhi
      0.000000000000       9.898000000000  zlo zhi
 
Masses
 
            1   12.01100000             # C
            2   1.00800000              # H
 
Atoms # charge
 
         1    1   0.000000        1.091000000000       1.091000000000       1.091000000000
         2    1   0.000000        0.200000000000       0.200000000000       0.200000000000
         3    1   0.000000        1.982000000000       1.982000000000       0.200000000000
         4    1   0.000000        0.200000000000       1.982000000000       1.982000000000
         5    1   0.000000        1.982000000000       0.200000000000       1.982000000000
         6    1   0.000000        8.515000000000       8.515000000000       8.515000000000
         7    1   0.000000        9.405000000000       9.405000000000       9.405000000000
         8    1   0.000000        7.624000000000       7.624000000000       9.406000000000
         9    1   0.000000        7.624000000000       9.406000000000       7.624000000000
        10    1   0.000000        9.406000000000       7.624000000000       7.624000000000
        11    1   0.000000        3.566000000000       3.566000000000       8.515000000000
        12    1   0.000000        2.675000000000       2.675000000000       9.406000000000
        13    1   0.000000        4.456000000000       4.456000000000       9.405000000000
        14    1   0.000000        4.457000000000       2.675000000000       7.624000000000
        15    1   0.000000        2.675000000000       4.457000000000       7.624000000000
        16    1   0.000000        3.566000000000       8.515000000000       3.566000000000
        17    1   0.000000        2.675000000000       9.406000000000       2.675000000000
        18    1   0.000000        4.457000000000       7.624000000000       2.675000000000
        19    1   0.000000        4.456000000000       9.405000000000       4.456000000000
        20    1   0.000000        2.675000000000       7.624000000000       4.457000000000
        21    1   0.000000        6.040000000000       6.040000000000       1.091000000000
        22    1   0.000000        5.149000000000       6.931000000000       1.982000000000
        23    1   0.000000        6.931000000000       5.149000000000       1.982000000000
        24    1   0.000000        5.149000000000       5.149000000000       0.200000000000
        25    1   0.000000        6.931000000000       6.931000000000       0.200000000000
        26    1   0.000000        8.515000000000       3.566000000000       3.566000000000
        27    1   0.000000        9.406000000000       2.675000000000       2.675000000000
        28    1   0.000000        7.624000000000       4.457000000000       2.675000000000
        29    1   0.000000        7.624000000000       2.675000000000       4.457000000000
        30    1   0.000000        9.405000000000       4.456000000000       4.456000000000
        31    1   0.000000        1.091000000000       6.040000000000       6.040000000000
        32    1   0.000000        0.200000000000       5.149000000000       5.149000000000
        33    1   0.000000        1.982000000000       6.931000000000       5.149000000000
        34    1   0.000000        0.200000000000       6.931000000000       6.931000000000
        35    1   0.000000        1.982000000000       5.149000000000       6.931000000000
        36    1   0.000000        6.040000000000       1.091000000000       6.040000000000
        37    1   0.000000        6.931000000000       0.200000000000       6.931000000000
        38    1   0.000000        5.149000000000       0.200000000000       5.149000000000
        39    1   0.000000        5.149000000000       1.982000000000       6.931000000000
        40    1   0.000000        6.931000000000       1.982000000000       5.149000000000
        41    2   0.000000        0.514000000000       1.748000000000       0.428000000000
