ITEM: TIMESTEP
0
ITEM: NUMBER OF ATOMS
162
ITEM: BOX BOUNDS xy xz yz pp pp pp
-6.7755000000000001e+00 1.3552000000000000e+01 -6.7755000000000001e+00
0.0000000000000000e+00 1.1735510246683001e+01 0.0000000000000000e+00
0.0000000000000000e+00 2.2149999999999999e+01 0.0000000000000000e+00
ITEM: ATOMS id type x y z 
8 1 -2.486 5.297 9.849 
87 1 3.001 4.231 10.696 
90 1 2.733 5.481 9.824 
109 1 -2.486 5.297 0.765 
158 1 2.733 5.481 0.79 
11 1 4.24 4.139 20.131 
14 1 3.031 4.094 19.728 
18 1 1.299 5.827 18.554 
33 1 2.266 4.151 20.924 
43 1 4.343 3.96 21.647 
47 1 3.32 5.732 17.88 
52 1 4.24 4.139 12.633 
76 1 2.552 4.924 14.209 
85 1 4.343 3.96 11.117 
89 1 3.32 5.732 14.883 
91 1 1.036 5.037 11.84 
102 1 3.031 4.094 13.035 
105 1 1.299 5.827 14.209 
114 1 2.266 4.151 11.84 
150 1 2.552 4.924 18.554 
156 1 3.001 4.231 22.068 
159 1 1.036 5.037 20.924 
5 1 -5.049 10.63 8.653 
9 1 -3.317 8.897 7.479 
19 1 -1.707 7.414 10.572 
21 1 -2.66 8.795 10.993 
23 1 -3.31 7.532 6.805 
25 1 -4.284 10.573 9.849 
32 1 1.503 6.367 0.79 
36 1 -1.869 7.426 9.056 
38 1 -2.209 6.086 8.653 
54 1 0.3 8.576 10.696 
57 1 1.291 8.001 9.824 
60 1 -1.707 7.414 0.042 
65 1 -3.31 7.532 3.808 
78 1 -1.869 7.426 1.558 
80 1 -2.566 8.842 1.961 
84 1 -4.57 9.799 3.135 
99 1 -3.054 9.687 0.765 
100 1 -2.96 6.142 3.135 
107 1 -5.049 10.63 1.961 
110 1 -3.317 8.897 3.135 
111 1 0.642 5.929 10.696 
113 1 1.503 6.367 9.824 
119 1 -4.284 10.573 0.765 
127 1 -2.209 6.086 1.961 
131 1 -2.318 6.148 10.993 
138 1 1.291 8.001 0.79 
142 1 -2.566 8.842 8.653 
145 1 -4.57 9.799 7.479 
151 1 -5.019 10.493 10.993 
154 1 -3.054 9.687 9.849 
155 1 -2.96 6.142 7.479 
12 1 2.53 7.1 17.202 
17 1 0.468 9.427 20.924 
24 1 -3.52 8.357 11.865 
27 1 -0.31 7.31 21.647 
29 1 0.642 5.929 22.068 
31 1 1.292 7.192 17.88 
44 1 -0.148 7.298 20.131 
46 1 0.191 8.638 19.728 
51 1 -0.31 7.31 11.117 
53 1 2.53 7.1 15.561 
56 1 1.292 7.192 14.883 
63 1 -2.318 6.148 21.771 
66 1 -3.309 6.723 20.899 
70 1 -0.148 7.298 12.633 
72 1 0.548 5.882 13.035 
92 1 0.942 8.582 14.209 
95 1 -5.019 10.493 21.771 
98 1 -4.751 9.243 20.899 
104 1 0.468 9.427 11.84 
116 1 -2.66 8.795 21.771 
118 1 -3.52 8.357 20.899 
122 1 0.191 8.638 13.035 
133 1 -3.309 6.723 11.865 
136 1 0.3 8.576 22.068 
147 1 0.548 5.882 19.728 
153 1 -4.751 9.243 11.865 
160 1 0.942 8.582 18.554 
161 2 -1.67 7.547 11.913 
162 3 -1.67 7.547 12.889 
1 1 7.976 4.694 10.572 
4 1 9.274 4.77 10.993 
20 1 8.034 4.861 9.056 
42 1 9.55 5.41 7.479 
67 1 10.043 4.578 0.765 
77 1 7.976 4.694 0.042 
94 1 8.035 4.861 1.558 
96 1 9.278 4.635 1.961 
121 1 4.688 5.417 10.696 
130 1 9.55 5.41 3.135 
134 1 10.043 4.578 9.849 
152 1 9.278 4.635 8.653 
45 1 4.688 5.417 22.068 
55 1 4.788 5.329 13.035 
106 1 9.274 4.77 21.771 
137 1 4.788 5.329 19.728 
2 1 7.294 10.585 9.056 
3 1 9.004 7.624 6.127 
6 1 8.556 6.347 6.805 
16 1 2.314 8.72 0.79 
22 1 7.166 6.156 8.653 
26 1 7.226 8.565 7.479 
35 1 7.191 10.764 10.572 
37 1 6.846 9.307 10.993 
39 1 8.214 8.992 6.805 
41 1 6.677 7.002 9.849 
48 1 3.775 6.213 0.79 
61 1 7.294 10.585 1.558 
62 1 9.004 7.624 4.487 
64 1 6.747 9.395 1.961 
68 1 7.437 6.931 3.135 
71 1 4.29 8.493 10.696 
74 1 3.567 7.818 9.824 
81 1 8.556 6.347 3.808 
83 1 6.47 8.606 0.765 
93 1 7.191 10.764 0.042 
97 1 8.214 8.992 3.808 
101 1 2.261 9.954 10.696 
103 1 2.314 8.72 9.824 
117 1 7.166 6.156 1.961 
120 1 7.226 8.565 3.135 
123 1 3.775 6.213 9.824 
129 1 6.677 7.002 0.765 
132 1 6.747 9.395 8.653 
135 1 7.437 6.931 7.479 
141 1 7.244 6.231 10.993 
144 1 6.47 8.606 9.849 
148 1 3.567 7.818 0.79 
7 1 9.22 6.004 11.865 
10 1 3.558 10.029 21.647 
13 1 2.261 9.954 22.068 
15 1 2.978 8.376 17.88 
28 1 3.5 9.862 20.131 
30 1 4.369 8.568 19.728 
34 1 4.308 6.159 18.554 
40 1 7.76 8.511 11.865 
49 1 4.857 7.722 20.924 
50 1 1.984 9.314 18.554 
58 1 1.491 10.146 11.84 
59 1 4.097 7.793 14.209 
69 1 3.558 10.029 11.117 
73 1 2.978 8.376 14.883 
75 1 5.064 6.118 11.84 
79 1 7.244 6.231 21.771 
82 1 7.967 6.906 20.899 
86 1 3.5 9.862 12.633 
88 1 2.256 10.089 13.035 
108 1 9.22 6.004 20.899 
112 1 4.369 8.568 13.035 
115 1 4.308 6.159 14.209 
124 1 4.857 7.722 11.84 
125 1 1.984 9.314 14.209 
126 1 6.846 9.307 21.771 
128 1 7.76 8.511 20.899 
139 1 1.491 10.146 20.924 
140 1 4.097 7.793 18.554 
143 1 7.967 6.906 11.865 
146 1 4.29 8.493 22.068 
149 1 5.064 6.118 20.924 
157 1 2.256 10.089 19.728 
ITEM: TIMESTEP
10
ITEM: NUMBER OF ATOMS
162
ITEM: BOX BOUNDS xy xz yz pp pp pp
-6.7755000000000001e+00 1.3552000000000000e+01 -6.7755000000000001e+00
0.0000000000000000e+00 1.1735510246683001e+01 0.0000000000000000e+00
0.0000000000000000e+00 2.2149999999999999e+01 0.0000000000000000e+00
ITEM: ATOMS id type x y z 
8 1 -2.41397 5.34868 9.82079 
87 1 2.96162 4.30964 10.6351 
90 1 2.64565 5.51783 9.78925 
109 1 -2.41111 5.38784 0.755632 
158 1 2.64927 5.45793 0.83627 
11 1 4.27927 4.21605 20.1095 
14 1 2.91996 4.13678 19.697 
18 1 1.3376 5.87962 18.5752 
33 1 2.14721 4.20794 20.8963 
43 1 4.32497 4.14473 21.579 
47 1 3.23902 5.80171 17.8353 
52 1 4.2847 4.19805 12.6463 
76 1 2.4365 4.94565 14.2049 
85 1 4.28949 4.14912 11.173 
89 1 3.29845 5.8155 14.9377 
91 1 0.987535 5.09153 11.8669 
102 1 2.89889 4.14559 13.0759 
105 1 1.2863 5.86395 14.1613 
114 1 2.1277 4.24727 11.855 
150 1 2.43374 4.91717 18.585 
156 1 2.96067 4.26574 22.1344 
159 1 0.978135 5.04653 20.9191 
5 1 -4.92366 10.5976 8.62899 
9 1 -3.37796 8.85831 7.4868 
19 1 -1.72006 7.47335 10.6531 
21 1 -2.72319 8.80642 10.9602 
23 1 -3.30238 7.54078 6.83142 
25 1 -4.12063 10.4971 9.80825 
32 1 1.60403 6.34827 0.755861 
36 1 -1.92281 7.54543 9.07741 
38 1 -2.16225 6.22324 8.63418 
54 1 0.312864 8.51549 10.6549 
57 1 1.3859 7.93689 9.76171 
60 1 -1.76045 7.4845 0.0543067 
65 1 -3.3214 7.54262 3.78131 
78 1 -1.88919 7.52648 1.53922 
80 1 -2.52892 8.79355 1.84033 
84 1 -4.45849 9.80142 3.12019 
99 1 -2.97649 9.64742 0.766789 
100 1 -2.927 6.26983 3.17921 
107 1 -4.94175 10.5937 2.01177 
110 1 -3.32147 8.85262 3.09419 
111 1 0.579532 5.95304 10.7235 
113 1 1.52897 6.36187 9.82061 
119 1 -4.13639 10.5221 0.785591 
127 1 -2.15458 6.20454 1.97104 
131 1 -2.35436 6.12364 10.9849 
138 1 1.37293 7.96673 0.839359 
142 1 -2.56119 8.76593 8.73695 
145 1 -4.4476 9.853 7.5013 
151 1 -4.98489 10.4605 11.0732 
154 1 -2.98764 9.622 9.80703 
155 1 -2.9257 6.2735 7.43012 
12 1 2.56803 7.06121 17.1248 
17 1 0.403327 9.35944 20.9124 
24 1 -3.51555 8.41523 11.8216 
27 1 -0.27517 7.21084 21.6234 
29 1 0.59906 5.98506 21.9427 
31 1 1.31469 7.17224 17.9095 
44 1 -0.135166 7.19262 20.1557 
46 1 0.123011 8.52742 19.714 
51 1 -0.158185 7.19148 11.1208 
53 1 2.57948 7.02829 15.6066 
56 1 1.28276 7.15041 14.8419 
63 1 -2.33069 6.20212 21.7578 
66 1 -3.37134 6.75538 20.8697 
70 1 -0.212094 7.16942 12.6799 
72 1 0.540326 5.87249 12.9989 
92 1 0.944175 8.47462 14.2832 
95 1 -4.99298 10.4751 21.6852 
98 1 -4.66385 9.25328 20.8516 
104 1 0.400084 9.39647 11.8511 
116 1 -2.63388 8.74473 21.8853 
118 1 -3.60389 8.36609 20.942 
122 1 0.205545 8.60084 13.0706 
133 1 -3.36502 6.66812 11.8319 
136 1 0.290886 8.54181 22.1029 
147 1 0.513133 5.93562 19.8596 
153 1 -4.69456 9.22828 11.9278 
160 1 0.909157 8.44819 18.4929 
161 2 -1.73859 7.70057 11.8934 
162 3 -1.61818 7.42645 12.9374 
1 1 7.85197 4.91673 10.542 
4 1 9.17908 4.78812 11.0292 
20 1 7.85172 4.95247 9.03875 
42 1 9.46455 5.4321 7.42736 
67 1 9.97144 4.55366 0.750748 
77 1 7.88045 4.94621 0.0822661 
94 1 7.86832 4.94898 1.56424 
96 1 9.19031 4.65687 2.00363 
121 1 4.69392 5.46005 10.6738 
130 1 9.4498 5.44193 3.17463 
134 1 9.96274 4.53254 9.86273 
152 1 9.19279 4.64941 8.60164 
45 1 4.68305 5.46306 22.0546 
55 1 4.82528 5.48545 13.0573 
106 1 9.18306 4.7839 21.74 
137 1 4.81096 5.48113 19.7043 
2 1 7.22152 10.5282 9.0421 
3 1 8.97426 7.64609 6.03544 
6 1 8.51291 6.38123 6.83131 
16 1 2.35747 8.694 0.849852 
22 1 7.15831 6.18887 8.70709 
26 1 7.18895 8.40968 7.55871 
35 1 7.20977 10.563 10.501 
37 1 6.82289 9.25338 11.0041 
39 1 8.31074 8.92379 6.78727 
41 1 6.72577 7.01302 9.81736 
48 1 3.69915 6.36839 0.83648 
61 1 7.24227 10.5199 1.56223 
62 1 8.95112 7.66713 4.55822 
64 1 6.7113 9.24741 1.99282 
68 1 7.4088 6.95903 3.049 
71 1 4.29861 8.51899 10.769 
74 1 3.6327 7.75523 9.83568 
81 1 8.52907 6.39583 3.77618 
83 1 6.54301 8.42459 0.773833 
93 1 7.21546 10.5557 0.117848 
97 1 8.27708 8.91878 3.86127 
101 1 2.32437 9.95958 10.6163 
103 1 2.35522 8.64353 9.75898 
117 1 7.14359 6.19918 1.9022 
120 1 7.17734 8.4064 3.07072 
123 1 3.80852 6.33671 9.80283 
129 1 6.73822 7.00652 0.796049 
132 1 6.7219 9.22017 8.62046 
135 1 7.37937 6.97694 7.58674 
141 1 7.24099 6.20897 10.9298 
144 1 6.54239 8.43026 9.81643 
148 1 3.62152 7.78499 0.783818 
7 1 9.16323 6.04124 11.9252 
10 1 3.65482 9.77793 21.6076 
13 1 2.35145 9.94526 22.1007 
15 1 3.0071 8.32886 17.9054 
28 1 3.66806 9.77828 20.1241 
30 1 4.39213 8.52685 19.7882 
34 1 4.35312 6.30781 18.6287 
40 1 7.71674 8.38118 11.863 
49 1 4.79869 7.71329 20.8946 
50 1 2.08732 9.28964 18.5117 
58 1 1.56656 10.1844 11.8499 
59 1 4.1365 7.77607 14.1261 
69 1 3.72081 9.79611 11.1469 
73 1 3.01106 8.33579 14.8583 
75 1 4.99353 6.30649 11.8651 
79 1 7.22668 6.18399 21.8461 
82 1 7.91033 6.94834 20.9021 
86 1 3.69683 9.78505 12.6389 
88 1 2.35268 10.0936 13.0941 
108 1 9.18888 6.0309 20.842 
112 1 4.39729 8.53153 12.9686 
115 1 4.3506 6.29901 14.1634 
124 1 4.80008 7.70995 11.8669 
125 1 2.09288 9.28621 14.2795 
126 1 6.84969 9.27146 21.7818 
128 1 7.825 8.34919 20.8548 
139 1 1.56548 10.17 20.9339 
140 1 4.13194 7.75877 18.6401 
143 1 7.89368 6.98856 11.8471 
146 1 4.30608 8.5398 21.9975 
149 1 4.98941 6.2925 20.9051 
157 1 2.34042 10.0695 19.6901 
ITEM: TIMESTEP
20
ITEM: NUMBER OF ATOMS
162
ITEM: BOX BOUNDS xy xz yz pp pp pp
-6.7755000000000001e+00 1.3552000000000000e+01 -6.7755000000000001e+00
0.0000000000000000e+00 1.1735510246683001e+01 0.0000000000000000e+00
0.0000000000000000e+00 2.2149999999999999e+01 0.0000000000000000e+00
ITEM: ATOMS id type x y z 
8 1 -2.42568 5.34782 9.80635 
87 1 2.97861 4.32982 10.6419 
90 1 2.65377 5.53395 9.76956 
109 1 -2.42151 5.38394 0.770213 
158 1 2.64779 5.45787 0.833857 
11 1 4.28056 4.21774 20.1233 
14 1 2.90425 4.1415 19.6942 
18 1 1.31507 5.86778 18.6011 
33 1 2.12793 4.21969 20.907 
43 1 4.29976 4.1894 21.5714 
47 1 3.25346 5.80046 17.8315 
52 1 4.26969 4.21338 12.6462 
76 1 2.43857 4.95723 14.1988 
85 1 4.29085 4.16387 11.2001 
89 1 3.30115 5.79903 14.94 
91 1 0.978527 5.09853 11.8675 
102 1 2.88616 4.16474 13.0742 
105 1 1.27984 5.86043 14.1583 
114 1 2.12168 4.2633 11.8654 
150 1 2.42835 4.93404 18.5841 
156 1 2.9701 4.26997 22.1204 
159 1 0.97847 5.05133 20.9147 
5 1 -4.91754 10.5894 8.63037 
9 1 -3.34524 8.86865 7.50514 
19 1 -1.71095 7.49724 10.6411 
21 1 -2.72981 8.80963 10.9668 
23 1 -3.30332 7.54285 6.82076 
25 1 -4.13067 10.4775 9.83216 
32 1 1.60292 6.36857 0.752006 
36 1 -1.93432 7.54568 9.08791 
38 1 -2.15826 6.24996 8.63957 
54 1 0.328908 8.4972 10.6803 
57 1 1.37766 7.94736 9.76812 
60 1 -1.74858 7.48885 0.0590465 
65 1 -3.30972 7.55436 3.77557 
78 1 -1.87219 7.53065 1.54651 
80 1 -2.53355 8.79734 1.83915 
84 1 -4.44823 9.78707 3.10677 
99 1 -2.99187 9.67422 0.774187 
100 1 -2.93288 6.27738 3.17593 
107 1 -4.91959 10.5752 1.99432 
110 1 -3.33103 8.85614 3.09041 
111 1 0.576377 5.94589 10.7256 
113 1 1.5159 6.3619 9.81382 
119 1 -4.14507 10.5037 0.78082 
127 1 -2.15542 6.21548 1.97721 
131 1 -2.35424 6.1116 10.9956 
138 1 1.36846 7.96793 0.821658 
142 1 -2.55671 8.75673 8.73109 
145 1 -4.44942 9.82633 7.50412 
151 1 -4.99793 10.4223 11.0373 
154 1 -2.99603 9.63103 9.8155 
155 1 -2.93397 6.27755 7.43397 
12 1 2.56913 7.06693 17.135 
17 1 0.406731 9.33493 20.9196 
24 1 -3.50974 8.41478 11.8165 
27 1 -0.270165 7.23453 21.6276 
29 1 0.610017 5.96542 21.9519 
31 1 1.29634 7.17126 17.9097 
44 1 -0.143058 7.19954 20.146 
46 1 0.136292 8.50864 19.7109 
51 1 -0.149186 7.2034 11.1189 
53 1 2.56849 7.03243 15.6034 
56 1 1.29298 7.15877 14.8421 
63 1 -2.33085 6.20372 21.745 
66 1 -3.38389 6.75038 20.8656 
70 1 -0.21157 7.18007 12.6931 
72 1 0.53387 5.86841 12.9963 
92 1 0.936315 8.46471 14.2596 
95 1 -4.99034 10.4583 21.7193 
98 1 -4.6711 9.27171 20.8504 
104 1 0.419287 9.36158 11.8564 
116 1 -2.631 8.7573 21.891 
118 1 -3.62107 8.35591 20.9336 
122 1 0.216722 8.58205 13.0598 
133 1 -3.37516 6.67126 11.83 
136 1 0.312497 8.518 22.0919 
147 1 0.52222 5.9287 19.8538 
153 1 -4.70555 9.2416 11.9284 
160 1 0.911365 8.45039 18.5116 
161 2 -1.73777 7.71052 11.8969 
162 3 -1.61674 7.41574 12.9334 
1 1 7.84508 4.91754 10.5354 
4 1 9.14619 4.79082 11.0092 
20 1 7.85517 4.94302 9.06063 
42 1 9.45875 5.4488 7.43344 
67 1 9.97087 4.56193 0.762685 
77 1 7.86861 4.93841 0.0874131 
94 1 7.85747 4.93945 1.55328 
96 1 9.1808 4.66426 1.99932 
121 1 4.6747 5.45973 10.6701 
130 1 9.45746 5.45084 3.17463 
134 1 9.95575 4.54602 9.84655 
152 1 9.1772 4.66111 8.60358 
45 1 4.66322 5.47539 22.0627 
55 1 4.82525 5.50881 13.0524 
106 1 9.1639 4.79422 21.7428 
137 1 4.81772 5.50481 19.7005 
2 1 7.24389 10.5145 9.04996 
3 1 8.97299 7.63755 6.05815 
6 1 8.51574 6.38917 6.8238 
16 1 2.35602 8.6899 0.852657 
22 1 7.13323 6.182 8.71214 
26 1 7.2012 8.41855 7.54554 
35 1 7.23801 10.5467 10.4863 
37 1 6.82963 9.25128 11.0083 
39 1 8.2942 8.93129 6.77808 
41 1 6.71853 7.00435 9.83153 
48 1 3.70321 6.35697 0.827145 
61 1 7.25362 10.5078 1.57046 
62 1 8.96118 7.66143 4.54839 
64 1 6.71476 9.21906 1.99111 
68 1 7.39838 6.96643 3.06484 
71 1 4.30712 8.52851 10.7646 
74 1 3.63144 7.75829 9.81601 
81 1 8.5197 6.39125 3.79178 
83 1 6.54644 8.42965 0.783236 
93 1 7.23491 10.5336 0.11837 
97 1 8.27576 8.92579 3.85542 
101 1 2.37454 9.91485 10.6601 
103 1 2.36021 8.66975 9.7719 
117 1 7.11991 6.18976 1.90435 
120 1 7.18669 8.41965 3.06938 
123 1 3.7992 6.33075 9.79137 
129 1 6.72505 7.00506 0.782705 
132 1 6.71563 9.21699 8.62339 
135 1 7.38854 6.9655 7.55865 
141 1 7.23252 6.21489 10.9316 
144 1 6.53985 8.42428 9.81346 
148 1 3.60832 7.7884 0.794141 
7 1 9.15532 6.05108 11.9328 
10 1 3.66272 9.78207 21.602 
13 1 2.37057 9.92815 22.0947 
15 1 3.01848 8.33028 17.892 
28 1 3.67693 9.78144 20.1357 
30 1 4.41033 8.53503 19.786 
34 1 4.34098 6.30251 18.6195 
40 1 7.72365 8.3864 11.8718 
49 1 4.80895 7.72209 20.9055 
50 1 2.078 9.26973 18.5131 
58 1 1.59354 10.1663 11.8401 
59 1 4.14112 7.77579 14.1358 
69 1 3.67826 9.79336 11.1498 
73 1 3.01782 8.32517 14.8656 
75 1 4.9918 6.29614 11.8807 
79 1 7.21636 6.19704 21.8318 
82 1 7.92594 6.9337 20.8914 
86 1 3.68891 9.79179 12.6186 
88 1 2.36963 10.0696 13.0782 
108 1 9.178 6.03214 20.8346 
112 1 4.41236 8.54153 12.9788 
115 1 4.35348 6.30485 14.1572 
124 1 4.8163 7.70878 11.8632 
125 1 2.09966 9.29202 14.2633 
126 1 6.87323 9.25001 21.7756 
128 1 7.83657 8.36299 20.862 
139 1 1.56748 10.1595 20.9274 
140 1 4.13818 7.75986 18.629 
143 1 7.89785 6.98111 11.854 
146 1 4.3147 8.52913 22.0079 
149 1 4.98813 6.29429 20.9044 
157 1 2.35306 10.0605 19.6865 
ITEM: TIMESTEP
30
ITEM: NUMBER OF ATOMS
162
ITEM: BOX BOUNDS xy xz yz pp pp pp
-6.7755000000000001e+00 1.3552000000000000e+01 -6.7755000000000001e+00
0.0000000000000000e+00 1.1735510246683001e+01 0.0000000000000000e+00
0.0000000000000000e+00 2.2149999999999999e+01 0.0000000000000000e+00
ITEM: ATOMS id type x y z 
8 1 -2.43487 5.36064 9.80175 
87 1 2.95212 4.33786 10.6514 
90 1 2.65318 5.53248 9.7695 
109 1 -2.43383 5.39679 0.774154 
158 1 2.6377 5.45487 0.832715 
11 1 4.27717 4.22992 20.1166 
14 1 2.89526 4.15147 19.695 
18 1 1.30665 5.86608 18.6041 
33 1 2.11697 4.21696 20.9067 
43 1 4.28988 4.21511 21.5617 
47 1 3.2475 5.80399 17.8255 
52 1 4.25993 4.23228 12.6484 
76 1 2.43573 4.96868 14.2003 
85 1 4.27545 4.19819 11.201 
89 1 3.30414 5.79974 14.9482 
91 1 0.963757 5.10752 11.8628 
102 1 2.88074 4.18179 13.0757 
105 1 1.27198 5.86013 14.1604 
114 1 2.10917 4.27607 11.8568 
150 1 2.42545 4.94168 18.5863 
156 1 2.96336 4.27683 22.1242 
159 1 0.968194 5.04609 20.9198 
5 1 -4.90868 10.578 8.62303 
9 1 -3.31483 8.87223 7.50539 
19 1 -1.70736 7.50264 10.6458 
21 1 -2.72848 8.81109 10.9794 
23 1 -3.30093 7.54816 6.81694 
25 1 -4.12463 10.4722 9.83114 
32 1 1.60599 6.38468 0.750289 
36 1 -1.9308 7.55171 9.10382 
38 1 -2.15854 6.25745 8.63901 
54 1 0.342291 8.48369 10.6821 
57 1 1.38524 7.93768 9.76939 
60 1 -1.74762 7.49066 0.0615248 
65 1 -3.30193 7.55603 3.77654 
78 1 -1.8547 7.53611 1.5454 
80 1 -2.52877 8.79895 1.83334 
84 1 -4.44232 9.7841 3.10409 
99 1 -2.98321 9.67864 0.773546 
100 1 -2.93742 6.28341 3.17277 
107 1 -4.91112 10.5706 1.99215 
110 1 -3.32654 8.8581 3.087 
111 1 0.570928 5.93605 10.7191 
113 1 1.51557 6.37383 9.80682 
119 1 -4.1328 10.5054 0.779715 
127 1 -2.15484 6.22523 1.97731 
131 1 -2.35766 6.1133 11.0005 
138 1 1.37445 7.95816 0.814114 
142 1 -2.54933 8.76513 8.73274 
145 1 -4.45139 9.80307 7.50521 
151 1 -4.9966 10.407 11.0335 
154 1 -2.98522 9.63215 9.82063 
155 1 -2.93705 6.28807 7.43717 
12 1 2.56805 7.07084 17.1434 
17 1 0.418081 9.32561 20.9142 
24 1 -3.51505 8.41285 11.8171 
27 1 -0.271593 7.23093 21.6287 
29 1 0.608154 5.96127 21.9532 
31 1 1.28674 7.16702 17.9097 
44 1 -0.161413 7.19126 20.1431 
46 1 0.13712 8.49946 19.7097 
51 1 -0.148499 7.19599 11.121 
53 1 2.5724 7.03062 15.5985 
56 1 1.28874 7.15308 14.8438 
63 1 -2.34072 6.21485 21.7423 
66 1 -3.39215 6.76288 20.8734 
70 1 -0.220625 7.17148 12.6993 
72 1 0.521295 5.85837 13.0002 
92 1 0.94685 8.45813 14.2543 
95 1 -4.9807 10.4472 21.7132 
98 1 -4.6555 9.26771 20.8545 
104 1 0.436332 9.34839 11.8583 
116 1 -2.62915 8.76044 21.886 
118 1 -3.62277 8.34385 20.937 
122 1 0.219259 8.57009 13.0626 
133 1 -3.38066 6.67055 11.8219 
136 1 0.323409 8.5077 22.0967 
147 1 0.514375 5.92937 19.8567 
153 1 -4.70337 9.24112 11.9438 
160 1 0.91953 8.4418 18.5138 
161 2 -1.73651 7.71847 11.8977 
162 3 -1.62305 7.4021 12.9289 
1 1 7.81729 4.91296 10.5369 
4 1 9.13486 4.80693 10.9987 
20 1 7.83715 4.945 9.06275 
42 1 9.4564 5.45953 7.43858 
67 1 9.96007 4.57712 0.770989 
77 1 7.84839 4.94135 0.0908985 
94 1 7.83503 4.94416 1.54839 
96 1 9.16895 4.67937 1.99677 
121 1 4.68905 5.49477 10.6714 
130 1 9.45292 5.45927 3.17103 
134 1 9.94296 4.55944 9.83798 
152 1 9.16134 4.67309 8.60436 
45 1 4.6526 5.5015 22.0759 
55 1 4.82174 5.51695 13.0603 
106 1 9.14879 4.81139 21.7503 
137 1 4.81736 5.52089 19.6987 
2 1 7.25699 10.5006 9.04173 
3 1 8.96827 7.64438 6.07031 
6 1 8.50857 6.39118 6.81248 
16 1 2.36297 8.68915 0.85679 
22 1 7.11127 6.17593 8.70395 
26 1 7.20447 8.41509 7.537 
35 1 7.24175 10.5245 10.4815 
37 1 6.82271 9.23407 11.0114 
39 1 8.28671 8.93297 6.7642 
41 1 6.70806 6.99063 9.83565 
48 1 3.69994 6.34978 0.828921 
61 1 7.2555 10.4955 1.57448 
62 1 8.96378 7.65487 4.5388 
64 1 6.71338 9.20124 1.99196 
68 1 7.38813 6.96058 3.06514 
71 1 4.31405 8.51102 10.7508 
74 1 3.63052 7.76294 9.81185 
81 1 8.51269 6.39414 3.80095 
83 1 6.54544 8.41633 0.790066 
93 1 7.24549 10.5095 0.128894 
97 1 8.28329 8.92319 3.85996 
101 1 2.3908 9.89353 10.6617 
103 1 2.37676 8.66219 9.76945 
117 1 7.10334 6.18268 1.91168 
120 1 7.19391 8.41523 3.07792 
123 1 3.80303 6.33903 9.79205 
129 1 6.7156 6.98884 0.779707 
132 1 6.7145 9.20581 8.62348 
135 1 7.38713 6.95808 7.54962 
141 1 7.22394 6.22368 10.9411 
144 1 6.53356 8.4157 9.80881 
148 1 3.59682 7.80066 0.806388 
7 1 9.14915 6.05428 11.9324 
10 1 3.68386 9.78127 21.5971 
13 1 2.38486 9.91156 22.0906 
15 1 3.02463 8.32574 17.8825 
28 1 3.69792 9.78185 20.1399 
30 1 4.42925 8.54148 19.7782 
34 1 4.33617 6.30803 18.6122 
40 1 7.721 8.3894 11.8765 
49 1 4.82002 7.73512 20.9099 
50 1 2.08248 9.25983 18.5162 
58 1 1.60387 10.1555 11.8441 
59 1 4.15244 7.78217 14.1387 
69 1 3.70117 9.78986 11.1531 
73 1 3.02401 8.31929 14.876 
75 1 4.99435 6.30213 11.8718 
79 1 7.21177 6.20089 21.8209 
82 1 7.93665 6.92211 20.8825 
86 1 3.7119 9.78877 12.6166 
88 1 2.38383 10.0556 13.0761 
108 1 9.17233 6.03323 20.8304 
112 1 4.43202 8.54676 12.9845 
115 1 4.3527 6.30967 14.1625 
124 1 4.82225 7.72986 11.8591 
125 1 2.10879 9.28613 14.2608 
126 1 6.88139 9.22149 21.7619 
128 1 7.83382 8.37308 20.8602 
139 1 1.57576 10.1449 20.9165 
140 1 4.14559 7.76337 18.623 
143 1 7.89783 6.97762 11.8649 
146 1 4.32249 8.52451 22.0178 
149 1 4.9891 6.30817 20.8987 
157 1 2.36547 10.0435 19.6893 
ITEM: TIMESTEP
40
ITEM: NUMBER OF ATOMS
162
ITEM: BOX BOUNDS xy xz yz pp pp pp
-6.7755000000000001e+00 1.3552000000000000e+01 -6.7755000000000001e+00
0.0000000000000000e+00 1.1735510246683001e+01 0.0000000000000000e+00
0.0000000000000000e+00 2.2149999999999999e+01 0.0000000000000000e+00
ITEM: ATOMS id type x y z 
8 1 -2.46438 5.40515 9.79257 
87 1 2.92614 4.40414 10.6557 
90 1 2.64483 5.5546 9.73818 
109 1 -2.46957 5.44979 0.780939 
158 1 2.61017 5.459 0.854836 
11 1 4.25928 4.29466 20.0906 
14 1 2.86336 4.17479 19.7141 
18 1 1.28249 5.86694 18.6098 
33 1 2.07869 4.21474 20.9135 
43 1 4.25971 4.306 21.528 
47 1 3.22218 5.80457 17.8225 
52 1 4.22701 4.3031 12.6548 
76 1 2.41602 5.00513 14.2235 
85 1 4.23661 4.2996 11.214 
89 1 3.32109 5.79595 14.9694 
91 1 0.894188 5.11782 11.852 
102 1 2.83651 4.24055 13.0652 
105 1 1.23283 5.85582 14.1715 
114 1 2.05148 4.31021 11.8718 
150 1 2.39484 4.9505 18.586 
156 1 2.94612 4.31053 22.1232 
159 1 0.92034 5.02822 20.9279 
5 1 -4.87367 10.5458 8.62853 
9 1 -3.28196 8.87276 7.48125 
19 1 -1.70567 7.5236 10.6905 
21 1 -2.72394 8.82158 11.0155 
23 1 -3.30454 7.55486 6.80365 
25 1 -4.10698 10.4445 9.83447 
32 1 1.58165 6.40446 0.759494 
36 1 -1.91178 7.59208 9.13507 
38 1 -2.1544 6.29978 8.65074 
54 1 0.389434 8.43144 10.6907 
57 1 1.41161 7.91136 9.761 
60 1 -1.73968 7.5231 0.066161 
65 1 -3.30029 7.55301 3.7745 
78 1 -1.79243 7.56646 1.55327 
80 1 -2.49322 8.80879 1.83296 
84 1 -4.41499 9.77697 3.10185 
99 1 -2.93907 9.69686 0.757625 
100 1 -2.93462 6.29452 3.16167 
107 1 -4.88231 10.5522 1.97435 
110 1 -3.30013 8.85494 3.07664 
111 1 0.52896 5.92492 10.6854 
113 1 1.49047 6.3835 9.77017 
119 1 -4.09459 10.5099 0.776002 
127 1 -2.13604 6.26461 1.97551 
131 1 -2.36582 6.12497 11.0025 
138 1 1.39736 7.94186 0.809354 
142 1 -2.50936 8.78976 8.74871 
145 1 -4.40802 9.77047 7.50285 
151 1 -4.99319 10.3458 11.0289 
154 1 -2.93467 9.63807 9.84271 
155 1 -2.93283 6.30594 7.45075 
12 1 2.56374 7.05634 17.1402 
17 1 0.450518 9.27346 20.9062 
24 1 -3.52539 8.41088 11.8307 
27 1 -0.278763 7.20132 21.6217 
29 1 0.572747 5.9458 21.9556 
31 1 1.28038 7.16773 17.9051 
44 1 -0.225581 7.15742 20.1353 
46 1 0.121414 8.45862 19.7122 
51 1 -0.151291 7.15296 11.1309 
53 1 2.58965 7.00024 15.5962 
56 1 1.29673 7.15372 14.8488 
63 1 -2.36403 6.24634 21.7486 
66 1 -3.4142 6.78371 20.8784 
70 1 -0.254723 7.12936 12.7223 
72 1 0.456435 5.82593 13.0228 
92 1 0.973101 8.44086 14.2415 
95 1 -4.96246 10.4147 21.7154 
98 1 -4.62843 9.26946 20.8328 
104 1 0.491926 9.28711 11.8702 
116 1 -2.5915 8.77771 21.886 
118 1 -3.60184 8.3117 20.9316 
122 1 0.226251 8.52534 13.0632 
133 1 -3.39958 6.67363 11.8066 
136 1 0.347611 8.47727 22.0894 
147 1 0.475496 5.91449 19.8588 
153 1 -4.70964 9.2326 11.994 
160 1 0.919314 8.42686 18.5262 
161 2 -1.7336 7.7496 11.8994 
162 3 -1.66264 7.35317 12.9159 
1 1 7.71093 4.89595 10.5451 
4 1 9.0528 4.85288 10.9557 
20 1 7.75919 4.96827 9.07827 
42 1 9.43108 5.49891 7.44865 
67 1 9.9095 4.63826 0.785089 
77 1 7.76028 4.93765 0.0909255 
94 1 7.74951 4.94463 1.55939 
96 1 9.0914 4.72788 1.99829 
121 1 4.68181 5.55063 10.6579 
130 1 9.42753 5.48676 3.16745 
134 1 9.89287 4.61809 9.8104 
152 1 9.07774 4.71669 8.59401 
45 1 4.61363 5.5742 22.0879 
55 1 4.82502 5.57047 13.0658 
106 1 9.08942 4.85613 21.7652 
137 1 4.81586 5.58252 19.6883 
2 1 7.28454 10.4381 9.01312 
3 1 8.94817 7.67534 6.07452 
6 1 8.50474 6.40685 6.78072 
16 1 2.38866 8.69753 0.880121 
22 1 7.02494 6.14994 8.66602 
26 1 7.19913 8.37505 7.51277 
35 1 7.24867 10.4433 10.4472 
37 1 6.81914 9.17963 11.007 
39 1 8.31608 8.91532 6.73168 
41 1 6.66246 6.95426 9.83125 
48 1 3.67327 6.36656 0.874807 
61 1 7.2746 10.4279 1.59845 
62 1 8.967 7.66575 4.55401 
64 1 6.71775 9.14345 2.00288 
68 1 7.35376 6.93688 3.08468 
71 1 4.35715 8.50632 10.7285 
74 1 3.65486 7.78036 9.74846 
81 1 8.50129 6.40516 3.80889 
83 1 6.54491 8.36026 0.798628 
93 1 7.27454 10.4165 0.158353 
97 1 8.31099 8.92587 3.8607 
101 1 2.46518 9.83222 10.6815 
103 1 2.42591 8.64142 9.74929 
117 1 7.02069 6.15572 1.94024 
120 1 7.20697 8.3836 3.10728 
123 1 3.81279 6.35008 9.75745 
129 1 6.65797 6.94479 0.781324 
132 1 6.71974 9.14731 8.60318 
135 1 7.36321 6.94238 7.53133 
141 1 7.18681 6.23368 10.9674 
144 1 6.50559 8.37142 9.80079 
148 1 3.60452 7.82262 0.856101 
7 1 9.12135 6.07004 11.9365 
10 1 3.77254 9.78316 21.5966 
13 1 2.44527 9.86895 22.0705 
15 1 3.03233 8.31548 17.8686 
28 1 3.78579 9.77693 20.1293 
30 1 4.51393 8.56698 19.7443 
34 1 4.32794 6.34301 18.5815 
40 1 7.71411 8.38291 11.9217 
49 1 4.87387 7.77978 20.9058 
50 1 2.11068 9.23344 18.5206 
58 1 1.66114 10.1038 11.846 
59 1 4.19395 7.80319 14.1621 
69 1 3.81175 9.79812 11.1409 
73 1 3.0447 8.30672 14.8915 
75 1 5.02838 6.35911 11.8949 
79 1 7.1727 6.20166 21.7851 
82 1 7.93218 6.90226 20.8315 
86 1 3.79825 9.78308 12.6276 
88 1 2.46487 10.0104 13.0711 
108 1 9.14407 6.02576 20.8091 
112 1 4.51731 8.57957 13.0179 
115 1 4.36749 6.34364 14.1983 
124 1 4.87981 7.76433 11.8599 
125 1 2.15004 9.26373 14.2551 
126 1 6.92257 9.15014 21.7503 
128 1 7.86123 8.35776 20.8143 
139 1 1.62502 10.0849 20.9023 
140 1 4.18016 7.7857 18.6046 
143 1 7.8755 6.972 11.906 
146 1 4.36175 8.52097 22.0541 
149 1 4.98802 6.36242 20.8914 
157 1 2.44289 9.99152 19.6881 
ITEM: TIMESTEP
50
ITEM: NUMBER OF ATOMS
162
ITEM: BOX BOUNDS xy xz yz pp pp pp
-6.7755000000000001e+00 1.3552000000000000e+01 -6.7755000000000001e+00
0.0000000000000000e+00 1.1735510246683001e+01 0.0000000000000000e+00
0.0000000000000000e+00 2.2149999999999999e+01 0.0000000000000000e+00
ITEM: ATOMS id type x y z 
8 1 -2.47491 5.41159 9.79089 
87 1 2.92334 4.41827 10.6602 
90 1 2.63966 5.57135 9.72186 
109 1 -2.47959 5.45896 0.785641 
158 1 2.60712 5.47009 0.864178 
11 1 4.2519 4.30802 20.0889 
14 1 2.85746 4.17744 19.7104 
18 1 1.27831 5.87322 18.6098 
33 1 2.07642 4.2178 20.9194 
43 1 4.2538 4.31364 21.5288 
47 1 3.22136 5.80146 17.8309 
52 1 4.22348 4.31268 12.6694 
76 1 2.41115 5.00316 14.2235 
85 1 4.2335 4.29852 11.229 
89 1 3.3231 5.79682 14.9618 
91 1 0.876449 5.1127 11.8524 
102 1 2.83153 4.25026 13.0686 
105 1 1.22418 5.85902 14.1751 
114 1 2.05638 4.32135 11.856 
150 1 2.38508 4.94612 18.5874 
156 1 2.94021 4.32031 22.1237 
159 1 0.910107 5.02028 20.929 
5 1 -4.86783 10.5377 8.62777 
9 1 -3.2844 8.87151 7.49854 
19 1 -1.70812 7.52673 10.689 
21 1 -2.72494 8.82603 11.0208 
23 1 -3.30904 7.54903 6.77169 
25 1 -4.09923 10.4362 9.84305 
32 1 1.57218 6.39483 0.760452 
36 1 -1.90789 7.59799 9.14244 
38 1 -2.15649 6.30879 8.65503 
54 1 0.392939 8.42225 10.6923 
57 1 1.41715 7.91368 9.75521 
60 1 -1.73537 7.52473 0.0745444 
65 1 -3.31002 7.55799 3.77265 
78 1 -1.78616 7.5705 1.55604 
80 1 -2.48087 8.81819 1.82962 
84 1 -4.40668 9.77387 3.10269 
99 1 -2.92832 9.70388 0.76082 
100 1 -2.93765 6.29432 3.16258 
107 1 -4.87462 10.5463 1.97861 
110 1 -3.29423 8.8484 3.07727 
111 1 0.528257 5.91866 10.6866 
113 1 1.4798 6.37668 9.76164 
119 1 -4.09517 10.5069 0.770548 
127 1 -2.13278 6.26659 1.97621 
131 1 -2.37677 6.13093 11.0026 
138 1 1.40138 7.94629 0.813274 
142 1 -2.5102 8.7955 8.73377 
145 1 -4.40244 9.7834 7.50227 
151 1 -4.99462 10.3444 11.0314 
154 1 -2.92967 9.63986 9.84671 
155 1 -2.938 6.29495 7.45583 
12 1 2.56626 7.04892 17.1395 
17 1 0.461948 9.26483 20.9027 
24 1 -3.52576 8.41341 11.8368 
27 1 -0.282016 7.19909 21.6147 
29 1 0.569335 5.9399 21.9552 
31 1 1.28268 7.16959 17.9093 
44 1 -0.231162 7.15214 20.1322 
46 1 0.115608 8.45687 19.7127 
51 1 -0.156412 7.15025 11.1332 
53 1 2.59592 6.99405 15.5971 
56 1 1.30339 7.15361 14.8448 
63 1 -2.37292 6.25473 21.7464 
66 1 -3.41799 6.77549 20.8752 
70 1 -0.263726 7.12383 12.728 
72 1 0.44703 5.81634 13.0249 
92 1 0.976025 8.4459 14.2408 
95 1 -4.95774 10.4024 21.715 
98 1 -4.62486 9.25196 20.8239 
104 1 0.506201 9.27675 11.8696 
116 1 -2.58745 8.78367 21.8838 
118 1 -3.59038 8.33048 20.9294 
122 1 0.22898 8.51746 13.0638 
133 1 -3.40762 6.67402 11.8114 
136 1 0.355267 8.46918 22.0909 
147 1 0.464114 5.90648 19.8585 
153 1 -4.71534 9.22528 11.9961 
160 1 0.918475 8.43468 18.527 
161 2 -1.73339 7.75359 11.9022 
162 3 -1.67219 7.35126 12.9169 
1 1 7.70129 4.90152 10.5455 
4 1 9.04362 4.8571 10.9581 
20 1 7.73532 4.96091 9.06527 
42 1 9.433 5.51109 7.4551 
67 1 9.89831 4.65291 0.788674 
77 1 7.74248 4.9291 0.0888281 
94 1 7.73286 4.94668 1.55814 
96 1 9.07934 4.73475 1.99898 
121 1 4.67277 5.56205 10.6665 
130 1 9.42239 5.49418 3.16297 
134 1 9.87682 4.63364 9.80894 
152 1 9.0674 4.73202 8.58607 
45 1 4.60649 5.58265 22.083 
55 1 4.82777 5.5821 13.0707 
106 1 9.07271 4.86011 21.7689 
137 1 4.81425 5.59131 19.6823 
2 1 7.28609 10.4232 9.0073 
3 1 8.97185 7.66072 6.08568 
6 1 8.48994 6.42088 6.76011 
16 1 2.3948 8.69684 0.880664 
22 1 7.00651 6.15073 8.66371 
26 1 7.21408 8.37084 7.50129 
35 1 7.25636 10.4328 10.441 
37 1 6.82434 9.17144 11.0067 
39 1 8.32573 8.91019 6.73278 
41 1 6.6484 6.94836 9.82693 
48 1 3.66503 6.37592 0.884289 
61 1 7.28282 10.4168 1.59892 
62 1 8.97025 7.66866 4.59176 
64 1 6.71939 9.13233 2.00508 
68 1 7.35159 6.92656 3.08871 
71 1 4.37366 8.49806 10.7268 
74 1 3.68047 7.78349 9.746 
81 1 8.49611 6.41612 3.80847 
83 1 6.54781 8.35875 0.796361 
93 1 7.28163 10.4109 0.160121 
97 1 8.31407 8.91538 3.85334 
101 1 2.48923 9.82056 10.6817 
103 1 2.43014 8.64216 9.74927 
117 1 7.00463 6.15068 1.94912 
120 1 7.20637 8.37994 3.11365 
123 1 3.80536 6.36102 9.74027 
129 1 6.64996 6.93138 0.780052 
132 1 6.71976 9.13781 8.59711 
135 1 7.35027 6.93401 7.52612 
141 1 7.17431 6.2267 10.9691 
144 1 6.50145 8.36726 9.79461 
148 1 3.61659 7.82718 0.858675 
7 1 9.11167 6.07128 11.9299 
10 1 3.7899 9.79175 21.5979 
13 1 2.46121 9.86356 22.0692 
15 1 3.03726 8.30947 17.8711 
28 1 3.80327 9.77635 20.1294 
30 1 4.53067 8.57273 19.7382 
34 1 4.33088 6.34723 18.5775 
40 1 7.70585 8.37626 11.9313 
49 1 4.88414 7.79215 20.9074 
50 1 2.10886 9.23036 18.5252 
58 1 1.6758 10.0852 11.849 
59 1 4.20164 7.80983 14.1679 