 # File generated with Atomsk by ana on 2024-09-05 17:51:41
  
         131  atoms
           3  atom types
 
      0.000000000000      15.770000000000  xlo xhi
      0.000000000000      13.658086643084  ylo yhi
      0.000000000000      25.747000000000  zlo zhi
      7.884500000000       0.000000000000       0.000000000000  xy xz yz
 
Masses
 
            1   12.01100000             # C
            2   15.99900000             # O
            3   1.00800000              # H
 
Atoms # charge
 
         1    1   0.000000        2.149000000000       9.638000000000      16.194000000000
         2    1   0.000000        2.944000000000       8.261000000000      16.892000000000
         3    1   0.000000        3.758000000000       6.852000000000      12.254000000000
         4    1   0.000000        4.402000000000       5.735000000000      13.319000000000
         5    1   0.000000        3.307000000000       5.568000000000      14.201000000000
         6    1   0.000000        5.009000000000       8.108000000000      13.527000000000
         7    1   0.000000        4.217000000000       8.167000000000      12.289000000000
         8    1   0.000000        2.899000000000      10.449000000000      15.517000000000
         9    1   0.000000        2.944000000000       8.261000000000      18.442000000000
        10    1   0.000000       -0.664000000000       8.528000000000      12.804000000000
        11    1   0.000000       -4.498000000000       7.494000000000       3.321000000000
        12    1   0.000000       -5.293000000000       8.871000000000       4.018000000000
        13    1   0.000000       -6.107000000000      10.280000000000      25.128000000000
        14    1   0.000000       -6.752000000000      11.397000000000       0.446000000000
        15    1   0.000000       -5.656000000000      11.565000000000       1.328000000000
        16    1   0.000000       -7.358000000000       9.024000000000       0.654000000000
        17    1   0.000000       -6.566000000000       8.965000000000      25.162000000000
        18    1   0.000000       -5.248000000000       6.683000000000       2.644000000000
        19    1   0.000000       -5.293000000000       8.871000000000       5.569000000000
        20    1   0.000000       -1.686000000000       8.604000000000      -0.070000000000
        21    1   0.000000        2.494000000000       6.977000000000      16.194000000000
        22    1   0.000000        3.405000000000       9.576000000000      12.254000000000
        23    1   0.000000        3.771000000000      10.618000000000      13.320000000000
        24    1   0.000000        4.651000000000       9.484000000000      14.201000000000
        25    1   0.000000        1.626000000000      10.544000000000      13.527000000000
        26    1   0.000000        2.132000000000       9.668000000000      12.289000000000
        27    1   0.000000        1.385000000000       7.538000000000      15.517000000000
        28    1   0.000000        5.247000000000       4.273000000000      12.803000000000
        29    1   0.000000       -4.843000000000      10.156000000000       3.321000000000
        30    1   0.000000       -5.754000000000       7.556000000000      25.128000000000
        31    1   0.000000       -6.120000000000       6.514000000000       0.446000000000
        32    1   0.000000       -7.000000000000       7.648000000000       1.328000000000
        33    1   0.000000       -3.975000000000       6.589000000000       0.654000000000
        34    1   0.000000       -4.481000000000       7.464000000000      25.162000000000
        35    1   0.000000       -3.734000000000       9.594000000000       2.644000000000
        36    1   0.000000       -7.596000000000      12.859000000000      -0.070000000000
        37    1   0.000000        4.190000000000       8.169000000000      16.194000000000
        38    1   0.000000        1.669000000000       8.356000000000      12.254000000000
        39    1   0.000000        0.659000000000       8.430000000000      13.319000000000
        40    1   0.000000        0.874000000000       9.732000000000      14.201000000000
        41    1   0.000000        2.197000000000       6.132000000000      13.527000000000
        42    1   0.000000        2.484000000000       6.949000000000      12.289000000000
        43    1   0.000000        4.549000000000       6.796000000000      15.517000000000
        44    1   0.000000        4.249000000000      11.982000000000      12.804000000000
        45    1   0.000000       -6.539000000000       8.963000000000       3.321000000000
        46    1   0.000000       -4.018000000000       8.777000000000      25.128000000000
        47    1   0.000000       -3.008000000000       8.702000000000       0.446000000000
        48    1   0.000000       -3.224000000000       7.400000000000       1.328000000000
        49    1   0.000000       -4.546000000000      11.000000000000       0.654000000000
        50    1   0.000000       -4.833000000000      10.184000000000      25.162000000000
        51    1   0.000000       -6.898000000000      10.337000000000       2.644000000000
        52    1   0.000000       -6.598000000000       5.150000000000      -0.070000000000
        53    1   0.000000       -4.498000000000       7.494000000000       9.014000000000
        54    1   0.000000       -5.293000000000       8.871000000000       8.317000000000
        55    1   0.000000       -6.107000000000      10.280000000000      12.954000000000
        56    1   0.000000       -6.752000000000      11.397000000000      11.889000000000
        57    1   0.000000       -7.352000000000      10.372000000000      11.007000000000
        58    1   0.000000       -4.546000000000      11.000000000000      11.681000000000
        59    1   0.000000       -4.833000000000      10.184000000000      12.919000000000
        60    1   0.000000       -3.515000000000       7.901000000000       9.691000000000
        61    1   0.000000       -5.293000000000       8.871000000000       6.766000000000
        62    1   0.000000       -6.599000000000       5.150000000000      12.405000000000
        63    1   0.000000        2.149000000000       9.638000000000      21.888000000000
        64    1   0.000000        2.944000000000       8.261000000000      21.190000000000
        65    1   0.000000        3.758000000000       6.852000000000       0.081000000000
        66    1   0.000000        4.402000000000       5.735000000000      24.762000000000
        67    1   0.000000        5.003000000000       6.760000000000      23.881000000000
        68    1   0.000000        2.197000000000       6.132000000000      24.554000000000
        69    1   0.000000        2.484000000000       6.949000000000       0.046000000000
        70    1   0.000000        1.166000000000       9.231000000000      22.565000000000
        71    1   0.000000        2.944000000000       8.261000000000      19.640000000000
        72    1   0.000000        4.249000000000      11.982000000000      25.278000000000
        73    1   0.000000       -6.539000000000       8.963000000000       9.014000000000
        74    1   0.000000       -4.018000000000       8.777000000000      12.954000000000
        75    1   0.000000       -3.008000000000       8.702000000000      11.889000000000
        76    1   0.000000       -3.568000000000      10.061000000000      11.007000000000
        77    1   0.000000       -3.975000000000       6.589000000000      11.681000000000
        78    1   0.000000       -4.481000000000       7.464000000000      12.919000000000
        79    1   0.000000       -6.546000000000       7.617000000000       9.691000000000
        80    1   0.000000       -7.596000000000      12.859000000000      12.405000000000
        81    1   0.000000        4.190000000000       8.169000000000      21.888000000000
        82    1   0.000000        1.669000000000       8.356000000000       0.081000000000
        83    1   0.000000        0.659000000000       8.430000000000      24.762000000000
        84    1   0.000000        1.219000000000       7.071000000000      23.881000000000
        85    1   0.000000        1.626000000000      10.544000000000      24.555000000000
        86    1   0.000000        2.132000000000       9.668000000000       0.046000000000
        87    1   0.000000        4.197000000000       9.515000000000      22.565000000000
        88    1   0.000000        5.247000000000       4.273000000000      25.278000000000
        89    1   0.000000       -4.843000000000      10.156000000000       9.014000000000
        90    1   0.000000       -5.754000000000       7.556000000000      12.954000000000
        91    1   0.000000       -6.120000000000       6.514000000000      11.889000000000
        92    1   0.000000       -4.960000000000       6.180000000000      11.007000000000
        93    1   0.000000       -7.358000000000       9.024000000000      11.681000000000
        94    1   0.000000       -6.566000000000       8.965000000000      12.919000000000
        95    1   0.000000       -5.819000000000      11.095000000000       9.691000000000
        96    1   0.000000       -1.686000000000       8.604000000000      12.405000000000
        97    1   0.000000        2.493000000000       6.977000000000      21.888000000000
        98    1   0.000000        3.405000000000       9.576000000000       0.081000000000
        99    1   0.000000        3.771000000000      10.618000000000      24.762000000000
       100    1   0.000000        2.610000000000      10.953000000000      23.881000000000
       101    1   0.000000        5.009000000000       8.108000000000      24.555000000000
       102    1   0.000000        4.217000000000       8.167000000000       0.046000000000
       103    1   0.000000        3.470000000000       6.037000000000      22.565000000000
       104    1   0.000000       -0.664000000000       8.528000000000      25.278000000000
       105    1   0.000000       -5.656000000000      11.565000000000      11.007000000000
       106    1   0.000000       -5.248000000000       6.683000000000       9.691000000000
       107    1   0.000000        3.307000000000       5.568000000000      23.881000000000
       108    1   0.000000        2.899000000000      10.449000000000      22.565000000000
       109    1   0.000000       -7.000000000000       7.648000000000      11.007000000000
       110    1   0.000000       -3.734000000000       9.594000000000       9.691000000000
       111    1   0.000000        4.651000000000       9.484000000000      23.881000000000
       112    1   0.000000        1.385000000000       7.538000000000      22.565000000000
       113    1   0.000000       -3.224000000000       7.400000000000      11.007000000000
       114    1   0.000000       -6.898000000000      10.337000000000       9.691000000000
       115    1   0.000000        0.874000000000       9.732000000000      23.881000000000
       116    1   0.000000        4.549000000000       6.796000000000      22.565000000000
       117    1   0.000000        5.003000000000       6.760000000000      14.201000000000
       118    1   0.000000        1.166000000000       9.231000000000      15.517000000000
       119    1   0.000000       -7.352000000000      10.372000000000       1.328000000000
       120    1   0.000000       -3.515000000000       7.901000000000       2.644000000000
       121    1   0.000000        1.219000000000       7.071000000000      14.201000000000
       122    1   0.000000        4.197000000000       9.515000000000      15.517000000000
       123    1   0.000000       -3.568000000000      10.061000000000       1.328000000000
       124    1   0.000000       -6.546000000000       7.617000000000       2.644000000000
       125    1   0.000000        2.610000000000      10.953000000000      14.201000000000
       126    1   0.000000        3.470000000000       6.037000000000      15.517000000000
       127    1   0.000000       -4.960000000000       6.180000000000       1.328000000000
       128    1   0.000000       -5.819000000000      11.095000000000       2.644000000000
       129    2   0.000000        4.288000000000       5.444000000000      12.003000000000
       130    2   0.000000        3.282000000000       5.074000000000      10.956000000000
       131    3   0.000000        3.945000000000       4.716000000000      10.337000000000
