ITEM: TIMESTEP
0
ITEM: NUMBER OF ATOMS
160
ITEM: BOX BOUNDS xy xz yz pp pp pp
-6.6294000000000004e+00 1.3258800000000001e+01 -6.6294000000000004e+00
0.0000000000000000e+00 1.1482457623697000e+01 0.0000000000000000e+00
0.0000000000000000e+00 2.1688700000000001e+01 0.0000000000000000e+00
ITEM: ATOMS id type x y z 
8 1 0.706561 4.95147 9.88528 
29 1 4.09014 3.93653 0.162448 
38 1 1.4535 5.38447 8.66377 
67 1 -0.706561 4.95147 0.959074 
87 1 5.45421 1.5739 10.6819 
96 1 -1.4535 5.38447 2.18058 
109 1 0.706561 4.95147 0.959074 
111 1 4.09014 3.93653 10.6819 
127 1 1.4535 5.38447 2.18058 
134 1 -0.706561 4.95147 9.88528 
152 1 -1.4535 5.38447 8.66377 
156 1 5.45421 1.5739 0.162448 
4 1 -1.36407 5.51043 11.0068 
14 1 5.38983 1.43347 19.5081 
33 1 4.64138 1.86383 20.7296 
63 1 1.36407 5.51043 21.5263 
72 1 3.93634 3.951 13.0249 
91 1 3.93481 3.08763 11.8034 
102 1 5.38983 1.43347 13.0249 
106 1 -1.36407 5.51043 21.5263 
114 1 4.64138 1.86383 11.8034 
131 1 1.36407 5.51043 11.0068 
147 1 3.93634 3.951 19.5081 
159 1 3.93481 3.08763 20.7296 
1 1 -2.68855 6.10281 10.5886 
2 1 6.6294e-05 10.583 9.0906 
3 1 -6.6294e-05 7.65501 6.19971 
6 1 -1.17148 6.97869 6.86643 
9 1 1.98769 7.93909 7.51166 
19 1 2.68849 6.1027 10.5886 
20 1 -2.53581 6.191 9.0906 
22 1 -2.69306 7.53146 8.66377 
23 1 1.17141 6.97858 6.86643 
26 1 -1.2399 9.23431 7.51166 
35 1 6.6294e-05 10.7594 10.5886 
36 1 2.53575 6.19088 9.0906 
39 1 6.6294e-05 9.00764 6.86643 
41 1 -2.69459 8.39482 9.88528 
42 1 -0.747796 5.79152 7.51166 
60 1 2.68855 6.10281 0.25571 
61 1 -6.6294e-05 10.583 1.75375 
62 1 6.6294e-05 7.65501 4.64464 
64 1 -1.23957 10.049 2.18058 
65 1 1.17148 6.97869 3.97792 
68 1 -1.98769 7.93909 3.33269 
77 1 -2.68849 6.1027 0.25571 
78 1 2.53581 6.191 1.75375 
81 1 -1.17141 6.97858 3.97792 
83 1 -1.98802 9.61863 0.959074 
84 1 1.2399 9.23431 3.33269 
93 1 -6.6294e-05 10.7594 0.25571 
94 1 -2.53575 6.19088 1.75375 
97 1 -6.6294e-05 9.00764 3.97792 
100 1 0.747796 5.79152 3.33269 
110 1 1.98769 7.93909 3.33269 
117 1 -2.69306 7.53146 2.18058 
120 1 -1.2399 9.23431 3.33269 
129 1 -2.69459 8.39482 0.959074 
130 1 -0.747796 5.79152 3.33269 
132 1 -1.23957 10.049 8.66377 
135 1 -1.98769 7.93909 7.51166 
144 1 -1.98802 9.61863 9.88528 
145 1 1.2399 9.23431 7.51166 
155 1 0.747796 5.79152 7.51166 
7 1 -0.706628 6.38344 11.9045 
24 1 1.45449 7.67878 11.9045 
37 1 -1.17519 9.90856 11.0068 
40 1 -0.747863 8.90269 11.9045 
66 1 0.706628 6.38344 20.6286 
79 1 -2.53926 7.54593 21.5263 
82 1 -1.45449 7.67878 20.6286 
98 1 0.747863 8.90269 20.6286 
108 1 -0.706628 6.38344 20.6286 
118 1 1.45449 7.67878 20.6286 
126 1 -1.17519 9.90856 21.5263 
128 1 -0.747863 8.90269 20.6286 
133 1 0.706628 6.38344 11.9045 
141 1 -2.53926 7.54593 11.0068 
143 1 -1.45449 7.67878 11.9045 
153 1 0.747863 8.90269 11.9045 
16 1 7.33603 5.09901 1.06014 
32 1 5.17491 3.80368 1.06014 
45 1 7.80459 1.5739 0.162448 
48 1 7.37726 2.57976 1.06014 
57 1 5.92277 5.09901 9.78421 
71 1 9.16866 3.93653 10.6819 
74 1 8.08389 3.80368 9.78421 
90 1 5.88154 2.57976 9.78421 
103 1 7.33603 5.09901 9.78421 
113 1 5.17491 3.80368 9.78421 
121 1 7.80459 1.5739 10.6819 
123 1 7.37726 2.57976 9.78421 
138 1 5.92277 5.09901 1.06014 
146 1 9.16866 3.93653 0.162448 
148 1 8.08389 3.80368 1.06014 
158 1 5.88154 2.57976 1.06014 
10 1 9.31795 5.37965 21.433 
11 1 6.62933 0.899421 19.935 
12 1 6.62947 3.82745 17.0441 
15 1 7.80088 4.50376 17.7108 
18 1 4.64171 3.54337 18.356 
27 1 3.94091 5.37976 21.433 
28 1 9.16521 5.29146 19.935 
30 1 9.32246 3.951 19.5081 
31 1 5.45799 4.50388 17.7108 
34 1 7.8693 2.24815 18.356 
43 1 6.62933 0.72305 21.433 
44 1 4.09365 5.29158 19.935 
47 1 6.62933 2.47481 17.7108 
49 1 9.32399 3.08763 20.7296 
50 1 7.3772 5.69094 18.356 
51 1 3.94085 5.37965 11.1001 
52 1 6.62947 0.899421 12.5981 
53 1 6.62933 3.82745 15.489 
55 1 7.86897 1.43347 13.0249 
56 1 5.45792 4.50376 14.8223 
59 1 8.61709 3.54337 14.177 
69 1 9.31789 5.37976 11.1001 
70 1 4.09359 5.29146 12.5981 
73 1 7.80081 4.50388 14.8223 
75 1 8.61742 1.86383 11.8034 
76 1 5.3895 2.24815 14.177 
85 1 6.62947 0.72305 11.1001 
86 1 9.16515 5.29158 12.5981 
89 1 6.62947 2.47481 14.8223 
92 1 5.8816 5.69094 14.177 
105 1 4.64171 3.54337 14.177 
112 1 9.32246 3.951 13.0249 
115 1 7.8693 2.24815 14.177 
124 1 9.32399 3.08763 11.8034 
125 1 7.3772 5.69094 14.177 
137 1 7.86897 1.43347 19.5081 
140 1 8.61709 3.54337 18.356 
149 1 8.61742 1.86383 20.7296 
150 1 5.3895 2.24815 18.356 
160 1 5.8816 5.69094 18.356 
5 1 1.23957 10.049 8.66377 
13 1 7.99347 5.97203 0.162448 
25 1 1.98802 9.61863 9.88528 
54 1 5.26533 5.97203 10.6819 
80 1 2.69306 7.53146 2.18058 
99 1 2.69459 8.39482 0.959074 
101 1 7.99347 5.97203 10.6819 
107 1 1.23957 10.049 2.18058 
119 1 1.98802 9.61863 0.959074 
136 1 5.26533 5.97203 0.162448 
142 1 2.69306 7.53146 8.66377 
154 1 2.69459 8.39482 9.88528 
17 1 5.92284 6.53099 20.7296 
21 1 2.53926 7.54593 11.0068 
46 1 5.1759 6.09799 19.5081 
58 1 7.33596 6.53099 11.8034 
88 1 8.0829 6.09799 13.0249 
95 1 1.17519 9.90856 21.5263 
104 1 5.92284 6.53099 11.8034 
116 1 2.53926 7.54593 21.5263 
122 1 5.1759 6.09799 13.0249 
139 1 7.33596 6.53099 20.7296 
151 1 1.17519 9.90856 11.0068 
157 1 8.0829 6.09799 19.5081 
ITEM: TIMESTEP
10
ITEM: NUMBER OF ATOMS
160
ITEM: BOX BOUNDS xy xz yz pp pp pp
-6.6294000000000004e+00 1.3258800000000001e+01 -6.6294000000000004e+00
0.0000000000000000e+00 1.1482457623697000e+01 0.0000000000000000e+00
0.0000000000000000e+00 2.1688700000000001e+01 0.0000000000000000e+00
ITEM: ATOMS id type x y z 
8 1 0.717094 4.94841 9.87562 
29 1 4.07996 3.91445 0.176214 
38 1 1.45227 5.374 8.67486 
67 1 -0.717094 4.94841 0.968725 
87 1 5.42999 1.57613 10.6681 
96 1 -1.45227 5.374 2.16949 
109 1 0.71711 4.94842 0.968727 
111 1 4.07996 3.91441 10.6681 
127 1 1.45229 5.37403 2.16949 
134 1 -0.71711 4.94842 9.87562 
152 1 -1.45229 5.37403 8.67486 
156 1 5.42996 1.57614 0.176233 
4 1 -1.35003 5.49058 11.0206 
14 1 5.38015 1.42929 19.5192 
33 1 4.64399 1.85318 20.72 
63 1 1.35003 5.49058 21.5125 
72 1 3.92788 3.9447 13.0138 
91 1 3.9269 3.09522 11.8131 
102 1 5.38019 1.42929 13.0138 
106 1 -1.35 5.49055 21.5125 
114 1 4.64401 1.85317 11.8131 
131 1 1.35 5.49055 11.0206 
147 1 3.9279 3.94473 19.5192 
159 1 3.9269 3.09524 20.72 
1 1 -2.67797 6.10888 10.5848 
2 1 2.27882e-05 10.595 9.06469 
3 1 -2.80277e-05 7.65499 6.20777 
6 1 -1.19522 6.96494 6.86281 
9 1 1.98478 7.95205 7.50419 
19 1 2.67794 6.10883 10.5848 
20 1 -2.54619 6.18496 9.06469 
22 1 -2.70152 7.53775 8.67486 
23 1 1.19516 6.96491 6.86281 
26 1 -1.24968 9.2253 7.5042 
35 1 2.76602e-05 10.7472 10.5848 
36 1 2.54616 6.18492 9.06468 
39 1 2.51061e-05 9.03507 6.86281 
41 1 -2.7025 8.38723 9.87563 
42 1 -0.735104 5.78756 7.5042 
60 1 2.67797 6.10888 0.259515 
61 1 -2.27882e-05 10.595 1.77966 
62 1 2.80277e-05 7.65499 4.63658 
64 1 -1.24925 10.0532 2.16949 
65 1 1.19522 6.96494 3.98154 
68 1 -1.98478 7.95205 3.34016 
77 1 -2.67794 6.10883 0.259514 
78 1 2.54619 6.18496 1.77966 
81 1 -1.19516 6.96491 3.98154 
83 1 -1.98541 9.62928 0.968723 
84 1 1.24968 9.2253 3.34015 
93 1 -2.76602e-05 10.7472 0.259515 
94 1 -2.54616 6.18492 1.77967 
97 1 -2.51061e-05 9.03507 3.98154 
100 1 0.735104 5.78756 3.34015 
110 1 1.9848 7.9521 3.34016 
117 1 -2.7015 7.53772 2.16949 
120 1 -1.24972 9.22529 3.34016 
129 1 -2.7025 8.38721 0.968729 
130 1 -0.73508 5.78753 3.34016 
132 1 -1.24921 10.0532 8.67486 
135 1 -1.9848 7.9521 7.50419 
144 1 -1.98539 9.62928 9.87562 
145 1 1.24972 9.22529 7.50419 
155 1 0.73508 5.78753 7.50419 
7 1 -0.717183 6.3916 11.9111 
24 1 1.4527 7.66556 11.9111 
37 1 -1.19941 9.90633 11.0206 
40 1 -0.73552 8.90776 11.9111 
66 1 0.717183 6.3916 20.622 
79 1 -2.54944 7.56801 21.5125 
82 1 -1.4527 7.66556 20.622 
98 1 0.73552 8.90776 20.622 
108 1 -0.717176 6.3916 20.622 
118 1 1.4527 7.66556 20.622 
126 1 -1.19944 9.90632 21.5125 
128 1 -0.735521 8.90775 20.622 
133 1 0.717176 6.3916 11.9111 
141 1 -2.54944 7.56804 11.0206 
143 1 -1.4527 7.66556 11.9111 
153 1 0.735521 8.90775 11.9111 
16 1 7.34658 5.09086 1.06673 
32 1 5.1767 3.8169 1.06673 
45 1 7.82881 1.57613 0.176214 
48 1 7.36492 2.5747 1.06673 
57 1 5.91222 5.09086 9.77762 
71 1 9.17884 3.91445 10.6681 
74 1 8.0821 3.8169 9.77762 
90 1 5.89388 2.5747 9.77762 
103 1 7.34658 5.09085 9.77761 
113 1 5.1767 3.81689 9.77761 
121 1 7.82884 1.57614 10.6681 
123 1 7.36492 2.57471 9.77761 
138 1 5.91222 5.09085 1.06674 
146 1 9.17884 3.91441 0.176234 
148 1 8.0821 3.81689 1.06674 
158 1 5.89388 2.57471 1.06674 
10 1 9.30737 5.37358 21.4292 
11 1 6.62938 0.887414 19.909 
12 1 6.62943 3.82747 17.0521 
15 1 7.82462 4.51751 17.7072 
18 1 4.64462 3.5304 18.3485 
27 1 3.95146 5.37363 21.4292 
28 1 9.17559 5.2975 19.909 
30 1 9.33092 3.9447 19.5192 
31 1 5.43424 4.51754 17.7072 
34 1 7.87908 2.25716 18.3485 
43 1 6.62937 0.735247 21.4292 
44 1 4.08324 5.29754 19.909 
47 1 6.62937 2.44738 17.7072 
49 1 9.3319 3.09522 20.72 
50 1 7.3645 5.6949 18.3485 
51 1 3.95143 5.37358 11.1039 
52 1 6.62942 0.887414 12.624 
53 1 6.62937 3.82747 15.4809 
55 1 7.87865 1.42929 13.0138 
56 1 5.43418 4.51751 14.8259 
59 1 8.61418 3.5304 14.1845 
69 1 9.30734 5.37363 11.1039 
70 1 4.08321 5.2975 12.624 
73 1 7.82456 4.51754 14.8259 
75 1 8.61481 1.85318 11.8131 
76 1 5.37972 2.25716 14.1845 
85 1 6.62943 0.735247 11.1039 
86 1 9.17556 5.29754 12.624 
89 1 6.62943 2.44738 14.8259 
92 1 5.8943 5.6949 14.1845 
105 1 4.6446 3.53036 14.1845 
112 1 9.3309 3.94473 13.0138 
115 1 7.87912 2.25717 14.1845 
124 1 9.3319 3.09524 11.8131 
125 1 7.36448 5.69493 14.1845 
137 1 7.87861 1.42929 19.5192 
140 1 8.6142 3.53036 18.3485 
149 1 8.61479 1.85317 20.72 
150 1 5.37968 2.25717 18.3485 
160 1 5.89432 5.69493 18.3485 
5 1 1.24925 10.0532 8.67486 
13 1 7.97943 5.99188 0.176214 
25 1 1.98541 9.62928 9.87563 
54 1 5.27937 5.99188 10.6681 
80 1 2.70152 7.53775 2.16949 
99 1 2.7025 8.38723 0.968723 
101 1 7.9794 5.9919 10.6681 
107 1 1.24921 10.0532 2.16949 
119 1 1.98539 9.62928 0.968727 
136 1 5.2794 5.9919 0.176233 
142 1 2.7015 7.53772 8.67486 
154 1 2.7025 8.38721 9.87562 
17 1 5.91231 6.53405 20.72 
21 1 2.54944 7.56801 11.0206 
46 1 5.17713 6.10846 19.5192 
58 1 7.34649 6.53405 11.8131 
88 1 8.08167 6.10846 13.0138 
95 1 1.19941 9.90633 21.5125 
104 1 5.91229 6.53404 11.8131 
116 1 2.54944 7.56804 21.5125 
122 1 5.17711 6.10843 13.0138 
139 1 7.34651 6.53404 20.72 
151 1 1.19944 9.90632 11.0206 
157 1 8.08169 6.10843 19.5192 
ITEM: TIMESTEP
20
ITEM: NUMBER OF ATOMS
160
ITEM: BOX BOUNDS xy xz yz pp pp pp
-6.6294000000000004e+00 1.3258800000000001e+01 -6.6294000000000004e+00
0.0000000000000000e+00 1.1482457623697000e+01 0.0000000000000000e+00
0.0000000000000000e+00 2.1688700000000001e+01 0.0000000000000000e+00
ITEM: ATOMS id type x y z 
8 1 0.718024 4.94826 9.87396 
29 1 4.07684 3.91334 0.178686 
38 1 1.45159 5.37317 8.67582 
67 1 -0.718024 4.94826 0.97039 
87 1 5.42747 1.57397 10.6657 
96 1 -1.45159 5.37317 2.16853 
109 1 0.718048 4.94828 0.970391 
111 1 4.07683 3.91331 10.6657 
127 1 1.45162 5.3732 2.16853 
134 1 -0.718048 4.94828 9.87396 
152 1 -1.45162 5.3732 8.67582 
156 1 5.42744 1.57398 0.178698 
4 1 -1.35064 5.48731 11.023 
14 1 5.3791 1.42947 19.5202 
33 1 4.64433 1.85231 20.7183 
63 1 1.35064 5.48731 21.51 
72 1 3.9275 3.9437 13.0129 
91 1 3.92631 3.09596 11.8147 
102 1 5.37913 1.42946 13.0129 
106 1 -1.35061 5.4873 21.51 
114 1 4.64436 1.85229 11.8147 
131 1 1.35061 5.4873 11.023 
147 1 3.92752 3.94374 19.5202 
159 1 3.92631 3.09599 20.7183 
1 1 -2.66225 6.11794 10.5785 
2 1 2.36781e-05 10.5997 9.06242 
3 1 -1.5394e-05 7.65498 6.22315 
6 1 -1.19815 6.96325 6.85815 
9 1 1.98338 7.95299 7.50344 
19 1 2.66223 6.11791 10.5785 
20 1 -2.55025 6.18261 9.06242 
22 1 -2.7019 7.53876 8.67582 
23 1 1.19811 6.96322 6.85815 
26 1 -1.24979 9.22363 7.50344 
35 1 2.2643e-05 10.7291 10.5785 
36 1 2.55023 6.18257 9.06242 
39 1 1.4232e-05 9.03846 6.85816 
41 1 -2.70309 8.3865 9.87396 
42 1 -0.733601 5.7883 7.50344 
60 1 2.66225 6.11794 0.265817 
61 1 -2.36781e-05 10.5997 1.78193 
62 1 1.5394e-05 7.65498 4.6212 
64 1 -1.2503 10.053 2.16853 
65 1 1.19815 6.96325 3.9862 
68 1 -1.98338 7.95299 3.34091 
77 1 -2.66223 6.11791 0.265818 
78 1 2.55025 6.18261 1.78193 
81 1 -1.19811 6.96322 3.9862 
83 1 -1.98507 9.63015 0.970388 
84 1 1.24979 9.22363 3.34091 
93 1 -2.2643e-05 10.7291 0.265817 
94 1 -2.55023 6.18257 1.78193 
97 1 -1.4232e-05 9.03846 3.98619 
100 1 0.733601 5.7883 3.34091 
110 1 1.9834 7.95303 3.34091 
117 1 -2.70188 7.53872 2.16853 
120 1 -1.24982 9.22362 3.34091 
129 1 -2.70309 8.38647 0.970393 
130 1 -0.73357 5.78828 3.34091 
132 1 -1.25027 10.053 8.67583 
135 1 -1.9834 7.95303 7.50344 
144 1 -1.98504 9.63017 9.87396 
145 1 1.24982 9.22362 7.50344 
155 1 0.73357 5.78828 7.50344 
7 1 -0.718111 6.39292 11.9124 
24 1 1.45203 7.6641 11.9124 
37 1 -1.20193 9.90849 11.023 
40 1 -0.733915 8.9079 11.9124 
66 1 0.718111 6.39292 20.6207 
79 1 -2.55256 7.56912 21.51 
82 1 -1.45203 7.6641 20.6207 
98 1 0.733915 8.9079 20.6207 
108 1 -0.718102 6.39291 20.6207 
118 1 1.45203 7.66411 20.6207 
126 1 -1.20196 9.90847 21.51 
128 1 -0.733927 8.9079 20.6207 
133 1 0.718102 6.39291 11.9124 
141 1 -2.55257 7.56915 11.023 
143 1 -1.45203 7.66411 11.9124 
153 1 0.733927 8.9079 11.9124 
16 1 7.34751 5.08954 1.06803 
32 1 5.17737 3.81836 1.06803 
45 1 7.83133 1.57397 0.178687 
48 1 7.36332 2.57456 1.06803 
57 1 5.91129 5.08954 9.77632 
71 1 9.18196 3.91334 10.6657 
74 1 8.08143 3.81836 9.77632 
90 1 5.89548 2.57456 9.77632 
103 1 7.3475 5.08955 9.77632 
113 1 5.17737 3.81835 9.77632 
121 1 7.83136 1.57398 10.6657 
123 1 7.36333 2.57456 9.77632 
138 1 5.9113 5.08955 1.06803 
146 1 9.18197 3.91331 0.178698 
148 1 8.08143 3.81835 1.06803 
158 1 5.89547 2.57456 1.06803 
10 1 9.29165 5.36451 21.4229 
11 1 6.62938 0.882723 19.9068 
12 1 6.62942 3.82748 17.0675 
15 1 7.82755 4.51921 17.7025 
18 1 4.64602 3.52946 18.3478 
27 1 3.96717 5.36455 21.4229 
28 1 9.17965 5.29985 19.9068 
30 1 9.3313 3.9437 19.5202 
31 1 5.43129 4.51924 17.7025 
34 1 7.87919 2.25883 18.3478 
43 1 6.62938 0.753392 21.4229 
44 1 4.07917 5.29989 19.9068 
47 1 6.62939 2.444 17.7025 
49 1 9.33249 3.09596 20.7183 
50 1 7.363 5.69416 18.3478 
51 1 3.96715 5.36451 11.1102 
52 1 6.62942 0.882723 12.6263 
53 1 6.62938 3.82748 15.4656 
55 1 7.8797 1.42947 13.0129 
56 1 5.43125 4.51921 14.8305 
59 1 8.61278 3.52946 14.1853 
69 1 9.29163 5.36455 11.1102 
70 1 4.07915 5.29985 12.6263 
73 1 7.82751 4.51924 14.8305 
75 1 8.61447 1.85231 11.8147 
76 1 5.37961 2.25883 14.1853 
85 1 6.62942 0.753392 11.1102 
86 1 9.17963 5.29989 12.6263 
89 1 6.62941 2.444 14.8305 
92 1 5.8958 5.69416 14.1853 
105 1 4.646 3.52943 14.1853 
112 1 9.33128 3.94374 13.0129 
115 1 7.87922 2.25884 14.1853 
124 1 9.33249 3.09599 11.8147 
125 1 7.36297 5.69418 14.1853 
137 1 7.87967 1.42946 19.5202 
140 1 8.6128 3.52943 18.3478 
149 1 8.61444 1.85229 20.7183 
150 1 5.37958 2.25884 18.3478 
160 1 5.89583 5.69418 18.3478 
5 1 1.2503 10.053 8.67582 
13 1 7.98004 5.99514 0.178686 
25 1 1.98507 9.63015 9.87396 
54 1 5.27876 5.99514 10.6657 
80 1 2.7019 7.53876 2.16853 
99 1 2.70309 8.3865 0.970387 
101 1 7.98001 5.99516 10.6657 
107 1 1.25027 10.053 2.16852 
119 1 1.98504 9.63017 0.97039 
136 1 5.27879 5.99516 0.178697 
142 1 2.70188 7.53872 8.67582 
154 1 2.70309 8.38647 9.87396 
17 1 5.91138 6.53419 20.7183 
21 1 2.55256 7.56912 11.023 
46 1 5.17781 6.10929 19.5202 
58 1 7.34742 6.53419 11.8147 
88 1 8.08099 6.10929 13.0129 
95 1 1.20193 9.90849 21.51 
104 1 5.91135 6.53418 11.8147 
116 1 2.55257 7.56915 21.51 
122 1 5.17778 6.10926 13.0129 
139 1 7.34745 6.53418 20.7183 
151 1 1.20196 9.90847 11.023 
157 1 8.08102 6.10926 19.5202 
ITEM: TIMESTEP
30
ITEM: NUMBER OF ATOMS
160
ITEM: BOX BOUNDS xy xz yz pp pp pp
-6.6294000000000004e+00 1.3258800000000001e+01 -6.6294000000000004e+00
0.0000000000000000e+00 1.1482457623697000e+01 0.0000000000000000e+00
0.0000000000000000e+00 2.1688700000000001e+01 0.0000000000000000e+00
ITEM: ATOMS id type x y z 
8 1 0.718309 4.9485 9.87379 
29 1 4.07691 3.91337 0.178737 
38 1 1.45166 5.37337 8.67597 
67 1 -0.718309 4.9485 0.97056 
87 1 5.42753 1.57402 10.6656 
96 1 -1.45166 5.37337 2.16838 
109 1 0.718335 4.94851 0.970562 
111 1 4.0769 3.91334 10.6656 
127 1 1.45169 5.37339 2.16838 
134 1 -0.718335 4.94851 9.87379 
152 1 -1.45169 5.37339 8.67597 
156 1 5.4275 1.57403 0.178744 
4 1 -1.35062 5.48739 11.0231 
14 1 5.3793 1.42951 19.5203 
33 1 4.64468 1.85218 20.7181 
63 1 1.35062 5.48739 21.51 
72 1 3.92764 3.94386 13.0127 
91 1 3.92637 3.09632 11.8149 
102 1 5.37934 1.4295 13.0127 
106 1 -1.3506 5.48737 21.51 
114 1 4.6447 1.85216 11.8149 
131 1 1.3506 5.48737 11.0231 
147 1 3.92765 3.94389 19.5203 
159 1 3.92637 3.09635 20.7181 
1 1 -2.66235 6.11789 10.5785 
2 1 2.22669e-05 10.6001 9.0623 
3 1 -1.15057e-05 7.65498 6.22299 
6 1 -1.19836 6.96312 6.85732 
9 1 1.98296 7.95294 7.50316 
19 1 2.66233 6.11785 10.5785 
20 1 -2.55059 6.18241 9.0623 
22 1 -2.70176 7.5386 8.67597 
23 1 1.19833 6.9631 6.85732 
26 1 -1.24953 9.22329 7.50317 
35 1 2.11059e-05 10.7292 10.5785 
36 1 2.55056 6.18238 9.06229 
39 1 1.17567e-05 9.03871 6.85732 
41 1 -2.70303 8.38613 9.87379 
42 1 -0.733444 5.78869 7.50316 
60 1 2.66235 6.11789 0.265802 
61 1 -2.22669e-05 10.6001 1.78205 
62 1 1.15057e-05 7.65498 4.62136 
64 1 -1.2501 10.053 2.16838 
65 1 1.19836 6.96312 3.98703 
68 1 -1.98296 7.95294 3.34119 
77 1 -2.66233 6.11785 0.265804 
78 1 2.55059 6.18241 1.78205 
81 1 -1.19833 6.9631 3.98703 
83 1 -1.98472 9.63028 0.970559 
84 1 1.24953 9.22329 3.34118 
93 1 -2.11059e-05 10.7292 0.265802 
94 1 -2.55056 6.18238 1.78206 
97 1 -1.17567e-05 9.03871 3.98703 
100 1 0.733444 5.78869 3.34119 
110 1 1.98297 7.95297 3.34118 
117 1 -2.70175 7.53857 2.16838 
120 1 -1.24955 9.22328 3.34119 
129 1 -2.70303 8.3861 0.970563 
130 1 -0.733411 5.78868 3.34119 
132 1 -1.25006 10.053 8.67597 
135 1 -1.98297 7.95297 7.50317 
144 1 -1.9847 9.6303 9.87379 
145 1 1.24955 9.22328 7.50316 
155 1 0.733411 5.78868 7.50316 
7 1 -0.71836 6.39298 11.9125 
24 1 1.4521 7.66385 11.9125 
37 1 -1.20187 9.90844 11.0231 
40 1 -0.733737 8.90809 11.9125 
66 1 0.71836 6.39298 20.6205 
79 1 -2.55249 7.56909 21.51 
82 1 -1.4521 7.66385 20.6205 
98 1 0.733737 8.90809 20.6205 
108 1 -0.718348 6.39297 20.6205 
118 1 1.4521 7.66386 20.6205 
126 1 -1.2019 9.90843 21.51 
128 1 -0.733751 8.90808 20.6205 
133 1 0.718348 6.39297 11.9126 
141 1 -2.5525 7.56912 11.0231 
143 1 -1.4521 7.66386 11.9126 
153 1 0.733751 8.90808 11.9126 
16 1 7.34776 5.08948 1.0682 
32 1 5.1773 3.81861 1.0682 
45 1 7.83127 1.57402 0.178739 
48 1 7.36314 2.57437 1.0682 
57 1 5.91104 5.08948 9.77615 
71 1 9.18189 3.91337 10.6656 
74 1 8.0815 3.81861 9.77615 
90 1 5.89566 2.57437 9.77615 
103 1 7.34775 5.08949 9.77615 
113 1 5.1773 3.81859 9.77615 
121 1 7.8313 1.57403 10.6656 
123 1 7.36315 2.57438 9.77615 
138 1 5.91105 5.08949 1.0682 
146 1 9.1819 3.91334 0.178745 
148 1 8.0815 3.81859 1.0682 
158 1 5.89565 2.57438 1.0682 
10 1 9.29175 5.36457 21.4229 
11 1 6.62938 0.882333 19.9066 
12 1 6.62941 3.82748 17.0673 
15 1 7.82776 4.51934 17.7017 
18 1 4.64644 3.52952 18.3475 
27 1 3.96707 5.36461 21.4229 
28 1 9.17999 5.30004 19.9066 
30 1 9.33116 3.94386 19.5203 
31 1 5.43107 4.51936 17.7017 
34 1 7.87893 2.25917 18.3475 
43 1 6.62938 0.75328 21.4229 
44 1 4.07884 5.30008 19.9066 
47 1 6.62939 2.44375 17.7017 
49 1 9.33243 3.09632 20.7181 
50 1 7.36284 5.69376 18.3475 
51 1 3.96705 5.36457 11.1102 
52 1 6.62942 0.882333 12.6264 
53 1 6.62939 3.82748 15.4657 
55 1 7.8795 1.42951 13.0127 
56 1 5.43104 4.51934 14.8314 
59 1 8.61236 3.52952 14.1855 
69 1 9.29173 5.36461 11.1102 
70 1 4.07881 5.30004 12.6264 
73 1 7.82773 4.51936 14.8314 
75 1 8.61412 1.85218 11.8149 
76 1 5.37987 2.25917 14.1855 
85 1 6.62942 0.75328 11.1102 
86 1 9.17996 5.30008 12.6264 
89 1 6.62941 2.44375 14.8314 
92 1 5.89596 5.69376 14.1855 
105 1 4.64643 3.52949 14.1855 
112 1 9.33115 3.94389 13.0127 
115 1 7.87895 2.25918 14.1855 
124 1 9.33243 3.09635 11.8149 
125 1 7.36281 5.69378 14.1855 
137 1 7.87946 1.4295 19.5203 
140 1 8.61237 3.52949 18.3475 
149 1 8.6141 1.85216 20.7181 
150 1 5.37985 2.25918 18.3475 
160 1 5.89599 5.69378 18.3475 
5 1 1.2501 10.053 8.67597 
13 1 7.98002 5.99507 0.178738 
25 1 1.98472 9.63028 9.87379 
54 1 5.27878 5.99507 10.6656 
80 1 2.70176 7.5386 2.16838 
99 1 2.70303 8.38613 0.970558 
101 1 7.98 5.99509 10.6656 
107 1 1.25006 10.053 2.16838 
119 1 1.9847 9.6303 0.97056 
136 1 5.2788 5.99509 0.178743 
142 1 2.70175 7.53857 8.67597 
154 1 2.70303 8.3861 9.87379 
17 1 5.91109 6.53396 20.7181 
21 1 2.55249 7.56909 11.0231 
46 1 5.17774 6.10909 19.5203 
58 1 7.34771 6.53396 11.8149 
88 1 8.08106 6.10909 13.0127 
95 1 1.20187 9.90844 21.51 
104 1 5.91107 6.53394 11.8149 
116 1 2.5525 7.56912 21.51 
122 1 5.17771 6.10907 13.0127 
139 1 7.34773 6.53394 20.7181 
151 1 1.2019 9.90843 11.0231 
157 1 8.08109 6.10907 19.5203 
ITEM: TIMESTEP
32
ITEM: NUMBER OF ATOMS
160
ITEM: BOX BOUNDS xy xz yz pp pp pp
-6.6294000000000004e+00 1.3258800000000001e+01 -6.6294000000000004e+00
0.0000000000000000e+00 1.1482457623697000e+01 0.0000000000000000e+00
0.0000000000000000e+00 2.1688700000000001e+01 0.0000000000000000e+00
ITEM: ATOMS id type x y z 
8 1 0.718083 4.94885 9.87372 
29 1 4.07706 3.91347 0.1787 
38 1 1.45153 5.37377 8.6757 
67 1 -0.718083 4.94885 0.970627 
87 1 5.4277 1.5741 10.6656 
96 1 -1.45153 5.37377 2.16865 
109 1 0.718112 4.94886 0.970628 
111 1 4.07706 3.91344 10.6656 
127 1 1.45156 5.37379 2.16864 
134 1 -0.718112 4.94886 9.87372 
152 1 -1.45156 5.37379 8.67571 
156 1 5.42767 1.57411 0.178705 
4 1 -1.35064 5.48757 11.0231 
14 1 5.37958 1.42982 19.5201 
33 1 4.64487 1.85255 20.7181 
63 1 1.35064 5.48757 21.51 
72 1 3.92805 3.94395 13.013 
91 1 3.92679 3.0963 11.815 
102 1 5.37962 1.4298 13.013 
106 1 -1.35061 5.48756 21.51 
114 1 4.6449 1.85253 11.815 
131 1 1.35061 5.48756 11.0231 
147 1 3.92806 3.94398 19.5201 
159 1 3.92679 3.09633 20.7181 
1 1 -2.66236 6.11788 10.5785 
2 1 2.22038e-05 10.6004 9.06229 
3 1 -9.00083e-06 7.65498 6.22283 
6 1 -1.19851 6.96304 6.85671 
9 1 1.98273 7.95263 7.50318 
19 1 2.66234 6.11785 10.5785 
20 1 -2.55084 6.18227 9.06229 
22 1 -2.70135 7.53851 8.6757 
23 1 1.19848 6.96301 6.85672 
26 1 -1.24915 9.22325 7.50319 
35 1 2.06244e-05 10.7292 10.5785 
36 1 2.55082 6.18223 9.06228 
39 1 1.09803e-05 9.03888 6.85672 
41 1 -2.70261 8.38616 9.87373 
42 1 -0.733596 5.78905 7.50318 
60 1 2.66236 6.11788 0.26584 
61 1 -2.22038e-05 10.6004 1.78206 
62 1 9.00083e-06 7.65498 4.62152 
64 1 -1.24982 10.0526 2.16865 
65 1 1.19851 6.96304 3.98764 
68 1 -1.98273 7.95263 3.34117 
77 1 -2.66234 6.11785 0.265843 
78 1 2.55084 6.18227 1.78206 
81 1 -1.19848 6.96301 3.98763 
83 1 -1.98453 9.62991 0.970625 
84 1 1.24915 9.22325 3.34116 
93 1 -2.06244e-05 10.7292 0.26584 
94 1 -2.55082 6.18223 1.78207 
97 1 -1.09803e-05 9.03888 3.98763 
100 1 0.733596 5.78905 3.34117 
110 1 1.98274 7.95266 3.34116 
117 1 -2.70134 7.53848 2.16865 
120 1 -1.24917 9.22323 3.34117 
129 1 -2.70261 8.38612 0.970629 
130 1 -0.733563 5.78903 3.34117 
132 1 -1.24978 10.0527 8.67571 
135 1 -1.98274 7.95266 7.50319 
144 1 -1.9845 9.62993 9.87372 
145 1 1.24917 9.22323 7.50318 
155 1 0.733563 5.78903 7.50318 
7 1 -0.718142 6.39299 11.9126 
24 1 1.45198 7.66403 11.9126 
37 1 -1.2017 9.90836 11.0231 
40 1 -0.733841 8.90789 11.9126 
66 1 0.718142 6.39299 20.6204 
79 1 -2.55234 7.56898 21.51 
82 1 -1.45198 7.66403 20.6204 
98 1 0.733841 8.90789 20.6204 
108 1 -0.718131 6.39298 20.6204 
118 1 1.45199 7.66405 20.6204 
126 1 -1.20173 9.90834 21.51 
128 1 -0.733855 8.90789 20.6204 
133 1 0.718131 6.39298 11.9126 
141 1 -2.55234 7.56902 11.0231 
143 1 -1.45199 7.66405 11.9126 
153 1 0.733855 8.90789 11.9126 
16 1 7.34754 5.08947 1.06828 
32 1 5.17742 3.81842 1.06828 
45 1 7.8311 1.5741 0.178702 
48 1 7.36324 2.57456 1.06828 
57 1 5.91126 5.08947 9.77607 
71 1 9.18174 3.91347 10.6657 
74 1 8.08138 3.81842 9.77607 
90 1 5.89556 2.57456 9.77607 
103 1 7.34753 5.08948 9.77607 
113 1 5.17741 3.81841 9.77607 
121 1 7.83113 1.57411 10.6656 
123 1 7.36326 2.57457 9.77607 
138 1 5.91127 5.08948 1.06828 
146 1 9.18174 3.91344 0.178706 
148 1 8.08139 3.81841 1.06828 
158 1 5.89554 2.57457 1.06828 
10 1 9.29176 5.36457 21.4229 
11 1 6.62938 0.88204 19.9066 
12 1 6.62941 3.82748 17.0672 
15 1 7.82791 4.51942 17.7011 
18 1 4.64667 3.52983 18.3475 
27 1 3.96706 5.36461 21.4229 
28 1 9.18024 5.30019 19.9066 
30 1 9.33075 3.94395 19.5201 
31 1 5.43092 4.51945 17.7011 
34 1 7.87855 2.25921 18.3475 
43 1 6.62938 0.753274 21.4229 
44 1 4.07858 5.30023 19.9066 
47 1 6.62939 2.44358 17.7011 
49 1 9.33201 3.0963 20.7181 
50 1 7.363 5.69341 18.3475 
51 1 3.96704 5.36457 11.1102 
52 1 6.62942 0.88204 12.6264 
53 1 6.62939 3.82748 15.4659 
55 1 7.87922 1.42982 13.013 
56 1 5.43089 4.51942 14.832 
59 1 8.61213 3.52983 14.1855 
69 1 9.29174 5.36461 11.1102 
70 1 4.07856 5.30019 12.6264 
73 1 7.82788 4.51945 14.832 
75 1 8.61393 1.85255 11.815 
76 1 5.38025 2.25921 14.1855 
85 1 6.62942 0.753274 11.1102 
86 1 9.18022 5.30023 12.6264 
89 1 6.62941 2.44358 14.832 
92 1 5.8958 5.69341 14.1855 
105 1 4.64666 3.5298 14.1855 
112 1 9.33074 3.94398 13.013 
115 1 7.87857 2.25922 14.1855 
124 1 9.33201 3.09633 11.815 
125 1 7.36296 5.69342 14.1855 
137 1 7.87918 1.4298 19.5201 
140 1 8.61214 3.5298 18.3475 
149 1 8.6139 1.85253 20.7181 
150 1 5.38023 2.25922 18.3475 
160 1 5.89584 5.69342 18.3475 
5 1 1.24982 10.0526 8.6757 
13 1 7.98004 5.99488 0.1787 
25 1 1.98453 9.62991 9.87372 
54 1 5.27876 5.99488 10.6656 
80 1 2.70135 7.53851 2.16865 
99 1 2.70261 8.38616 0.970624 
101 1 7.98001 5.9949 10.6656 
107 1 1.24978 10.0527 2.16864 
119 1 1.9845 9.62993 0.970626 
136 1 5.27879 5.9949 0.178704 
142 1 2.70134 7.53848 8.6757 
154 1 2.70261 8.38612 9.87372 
17 1 5.91132 6.53361 20.7181 
21 1 2.55234 7.56898 11.023 
46 1 5.17787 6.10869 19.52 
58 1 7.34748 6.53361 11.815 
88 1 8.08093 6.10869 13.013 
95 1 1.2017 9.90836 21.51 
104 1 5.91129 6.5336 11.815 
116 1 2.55234 7.56902 21.51 
122 1 5.17784 6.10867 13.013 
139 1 7.34751 6.5336 20.7181 
151 1 1.20173 9.90834 11.0231 
157 1 8.08096 6.10867 19.5201 
ITEM: TIMESTEP
39
ITEM: NUMBER OF ATOMS
160
ITEM: BOX BOUNDS xy xz yz pp pp pp
-6.6294000000000004e+00 1.3258800000000001e+01 -6.6294000000000004e+00
0.0000000000000000e+00 1.1482457623697000e+01 0.0000000000000000e+00
0.0000000000000000e+00 2.1688700000000001e+01 0.0000000000000000e+00
ITEM: ATOMS id type x y z 
8 1 0.718357 4.94906 9.87361 
29 1 4.07711 3.9134 0.178764 
38 1 1.45166 5.37384 8.67579 
67 1 -0.718357 4.94906 0.970736 
87 1 5.42766 1.57418 10.6656 
96 1 -1.45166 5.37384 2.16856 
109 1 0.718388 4.94907 0.970737 
111 1 4.07711 3.91337 10.6656 
127 1 1.45169 5.37386 2.16856 
134 1 -0.718388 4.94907 9.87361 
152 1 -1.45169 5.37386 8.67579 
156 1 5.42763 1.5742 0.178768 
4 1 -1.35055 5.48759 11.0231 
14 1 5.37971 1.42974 19.5201 
33 1 4.64519 1.85241 20.718 
63 1 1.35055 5.48759 21.5099 
72 1 3.92805 3.94409 13.0129 
91 1 3.92683 3.09665 11.8151 
102 1 5.37974 1.42973 13.0129 
106 1 -1.35052 5.48757 21.5099 
114 1 4.64522 1.8524 11.8151 
131 1 1.35052 5.48757 11.0231 
147 1 3.92806 3.94413 19.5201 
159 1 3.92683 3.09668 20.718 
1 1 -2.66244 6.11784 10.5785 
2 1 2.11121e-05 10.6006 9.06207 
3 1 -7.33666e-06 7.65498 6.22261 
6 1 -1.19866 6.96294 6.85624 
9 1 1.98252 7.9527 7.50282 
19 1 2.66242 6.1178 10.5785 
20 1 -2.55103 6.18216 9.06207 
22 1 -2.70135 7.53837 8.67579 
23 1 1.19864 6.96292 6.85624 
26 1 -1.2491 9.22303 7.50282 
35 1 2.00395e-05 10.7293 10.5785 
36 1 2.55101 6.18212 9.06207 
39 1 8.17837e-06 9.03906 6.85624 
41 1 -2.70257 8.38581 9.87362 
42 1 -0.73343 5.7892 7.50282 
60 1 2.66244 6.11784 0.265873 
61 1 -2.11121e-05 10.6006 1.78228 
62 1 7.33666e-06 7.65498 4.62174 
64 1 -1.24969 10.0527 2.16856 
65 1 1.19866 6.96294 3.98811 
68 1 -1.98252 7.9527 3.34153 
77 1 -2.66242 6.1178 0.265876 
78 1 2.55103 6.18216 1.78228 
81 1 -1.19864 6.96292 3.98811 
83 1 -1.98421 9.63004 0.970735 
84 1 1.2491 9.22303 3.34153 
93 1 -2.00395e-05 10.7293 0.265874 
94 1 -2.55101 6.18212 1.78228 
97 1 -8.17837e-06 9.03906 3.98811 
100 1 0.73343 5.7892 3.34153 
110 1 1.98253 7.95273 3.34153 
117 1 -2.70134 7.53833 2.16856 
120 1 -1.24912 9.22301 3.34153 
129 1 -2.70257 8.38578 0.970738 
130 1 -0.733396 5.78918 3.34153 
132 1 -1.24966 10.0527 8.67579 
135 1 -1.98253 7.95273 7.50282 
144 1 -1.98418 9.63006 9.87362 
145 1 1.24912 9.22301 7.50282 
155 1 0.733396 5.78918 7.50282 
7 1 -0.718406 6.393 11.9128 
24 1 1.45211 7.6638 11.9128 
37 1 -1.20174 9.90827 11.0231 
40 1 -0.7337 8.90812 11.9128 
66 1 0.718406 6.393 20.6203 
79 1 -2.55229 7.56905 21.5099 
82 1 -1.45211 7.6638 20.6203 
98 1 0.7337 8.90812 20.6203 
108 1 -0.718393 6.39299 20.6203 
118 1 1.45211 7.66382 20.6203 
126 1 -1.20177 9.90826 21.5099 
128 1 -0.733716 8.90811 20.6203 
133 1 0.718393 6.39299 11.9128 
141 1 -2.55229 7.56909 11.0231 
143 1 -1.45211 7.66382 11.9128 
153 1 0.733716 8.90811 11.9128 
16 1 7.34781 5.08946 1.06844 
32 1 5.17729 3.81866 1.06844 
45 1 7.83114 1.57418 0.178767 
48 1 7.3631 2.57434 1.06844 
57 1 5.91099 5.08946 9.77591 
71 1 9.18169 3.9134 10.6656 
74 1 8.08151 3.81866 9.77591 
90 1 5.8957 2.57434 9.77591 
103 1 7.34779 5.08947 9.77591 
113 1 5.17729 3.81864 9.77591 
121 1 7.83117 1.5742 10.6656 
123 1 7.36312 2.57435 9.77591 
138 1 5.91101 5.08947 1.06844 
146 1 9.18169 3.91337 0.178769 
148 1 8.08151 3.81864 1.06844 
158 1 5.89568 2.57435 1.06844 
10 1 9.29184 5.36462 21.4228 
11 1 6.62938 0.88182 19.9064 
12 1 6.62941 3.82748 17.067 
15 1 7.82806 4.51952 17.7006 
18 1 4.64688 3.52976 18.3472 
27 1 3.96698 5.36466 21.4228 
28 1 9.18043 5.3003 19.9064 
30 1 9.33075 3.94409 19.5201 
31 1 5.43076 4.51953 17.7006 
34 1 7.8785 2.25943 18.3472 
43 1 6.62938 0.753181 21.4228 
44 1 4.07839 5.30034 19.9064 
47 1 6.62939 2.4434 17.7006 
49 1 9.33197 3.09665 20.718 
50 1 7.36283 5.69326 18.3472 
51 1 3.96696 5.36462 11.1102 
52 1 6.62942 0.88182 12.6266 
53 1 6.62939 3.82748 15.4661 
55 1 7.87909 1.42974 13.0129 
56 1 5.43074 4.51952 14.8325 
59 1 8.61192 3.52976 14.1859 
69 1 9.29182 5.36466 11.1102 
70 1 4.07837 5.3003 12.6266 
73 1 7.82804 4.51953 14.8325 