ITEM: TIMESTEP
0
ITEM: NUMBER OF ATOMS
163
ITEM: BOX BOUNDS xy xz yz pp pp pp
-6.7755000000000001e+00 1.3552000000000000e+01 -6.7755000000000001e+00
0.0000000000000000e+00 1.1735510246683001e+01 0.0000000000000000e+00
0.0000000000000000e+00 2.2149999999999999e+01 0.0000000000000000e+00
ITEM: ATOMS id type x y z 
8 1 -2.486 5.297 9.849 
87 1 3.001 4.231 10.696 
90 1 2.733 5.481 9.824 
109 1 -2.486 5.297 0.765 
158 1 2.733 5.481 0.79 
163 3 -2.271 5.495 5.232 
11 1 4.24 4.139 20.131 
14 1 3.031 4.094 19.728 
18 1 1.299 5.827 18.554 
33 1 2.266 4.151 20.924 
43 1 4.343 3.96 21.647 
47 1 3.32 5.732 17.88 
52 1 4.24 4.139 12.633 
76 1 2.552 4.924 14.209 
85 1 4.343 3.96 11.117 
89 1 3.32 5.732 14.883 
91 1 1.036 5.037 11.84 
102 1 3.031 4.094 13.035 
105 1 1.299 5.827 14.209 
114 1 2.266 4.151 11.84 
150 1 2.552 4.924 18.554 
156 1 3.001 4.231 22.068 
159 1 1.036 5.037 20.924 
5 1 -5.049 10.63 8.653 
9 1 -3.317 8.897 7.479 
19 1 -1.707 7.414 10.572 
21 1 -2.66 8.795 10.993 
23 1 -3.31 7.532 6.805 
25 1 -4.284 10.573 9.849 
32 1 1.503 6.367 0.79 
36 1 -1.869 7.426 9.056 
38 1 -2.209 6.086 8.653 
54 1 0.3 8.576 10.696 
57 1 1.291 8.001 9.824 
60 1 -1.707 7.414 0.042 
65 1 -3.31 7.532 3.808 
78 1 -1.869 7.426 1.558 
80 1 -2.566 8.842 1.961 
84 1 -4.57 9.799 3.135 
99 1 -3.054 9.687 0.765 
100 1 -2.96 6.142 3.135 
107 1 -5.049 10.63 1.961 
110 1 -3.317 8.897 3.135 
111 1 0.642 5.929 10.696 
113 1 1.503 6.367 9.824 
119 1 -4.284 10.573 0.765 
127 1 -2.209 6.086 1.961 
131 1 -2.318 6.148 10.993 
138 1 1.291 8.001 0.79 
142 1 -2.566 8.842 8.653 
145 1 -4.57 9.799 7.479 
151 1 -5.019 10.493 10.993 
154 1 -3.054 9.687 9.849 
155 1 -2.96 6.142 7.479 
12 1 2.53 7.1 17.202 
17 1 0.468 9.427 20.924 
24 1 -3.52 8.357 11.865 
27 1 -0.31 7.31 21.647 
29 1 0.642 5.929 22.068 
31 1 1.292 7.192 17.88 
44 1 -0.148 7.298 20.131 
46 1 0.191 8.638 19.728 
51 1 -0.31 7.31 11.117 
53 1 2.53 7.1 15.561 
56 1 1.292 7.192 14.883 
63 1 -2.318 6.148 21.771 
66 1 -3.309 6.723 20.899 
70 1 -0.148 7.298 12.633 
72 1 0.548 5.882 13.035 
92 1 0.942 8.582 14.209 
95 1 -5.019 10.493 21.771 
98 1 -4.751 9.243 20.899 
104 1 0.468 9.427 11.84 
116 1 -2.66 8.795 21.771 
118 1 -3.52 8.357 20.899 
122 1 0.191 8.638 13.035 
133 1 -3.309 6.723 11.865 
136 1 0.3 8.576 22.068 
147 1 0.548 5.882 19.728 
153 1 -4.751 9.243 11.865 
160 1 0.942 8.582 18.554 
1 1 7.976 4.694 10.572 
4 1 9.274 4.77 10.993 
20 1 8.034 4.861 9.056 
42 1 9.55 5.41 7.479 
67 1 10.043 4.578 0.765 
77 1 7.976 4.694 0.042 
94 1 8.035 4.861 1.558 
96 1 9.278 4.635 1.961 
121 1 4.688 5.417 10.696 
130 1 9.55 5.41 3.135 
134 1 10.043 4.578 9.849 
152 1 9.278 4.635 8.653 
162 2 10.344 5.198 5.393 
45 1 4.688 5.417 22.068 
55 1 4.788 5.329 13.035 
106 1 9.274 4.77 21.771 
137 1 4.788 5.329 19.728 
2 1 7.294 10.585 9.056 
3 1 9.004 7.624 6.127 
6 1 8.556 6.347 6.805 
16 1 2.314 8.72 0.79 
22 1 7.166 6.156 8.653 
26 1 7.226 8.565 7.479 
35 1 7.191 10.764 10.572 
37 1 6.846 9.307 10.993 
39 1 8.214 8.992 6.805 
41 1 6.677 7.002 9.849 
48 1 3.775 6.213 0.79 
61 1 7.294 10.585 1.558 
62 1 9.004 7.624 4.487 
64 1 6.747 9.395 1.961 
68 1 7.437 6.931 3.135 
71 1 4.29 8.493 10.696 
74 1 3.567 7.818 9.824 
81 1 8.556 6.347 3.808 
83 1 6.47 8.606 0.765 
93 1 7.191 10.764 0.042 
97 1 8.214 8.992 3.808 
101 1 2.261 9.954 10.696 
103 1 2.314 8.72 9.824 
117 1 7.166 6.156 1.961 
120 1 7.226 8.565 3.135 
123 1 3.775 6.213 9.824 
129 1 6.677 7.002 0.765 
132 1 6.747 9.395 8.653 
135 1 7.437 6.931 7.479 
141 1 7.244 6.231 10.993 
144 1 6.47 8.606 9.849 
148 1 3.567 7.818 0.79 
161 2 9.671 6.513 5.727 
7 1 9.22 6.004 11.865 
10 1 3.558 10.029 21.647 
13 1 2.261 9.954 22.068 
15 1 2.978 8.376 17.88 
28 1 3.5 9.862 20.131 
30 1 4.369 8.568 19.728 
34 1 4.308 6.159 18.554 
40 1 7.76 8.511 11.865 
49 1 4.857 7.722 20.924 
50 1 1.984 9.314 18.554 
58 1 1.491 10.146 11.84 
59 1 4.097 7.793 14.209 
69 1 3.558 10.029 11.117 
73 1 2.978 8.376 14.883 
75 1 5.064 6.118 11.84 
79 1 7.244 6.231 21.771 
82 1 7.967 6.906 20.899 
86 1 3.5 9.862 12.633 
88 1 2.256 10.089 13.035 
108 1 9.22 6.004 20.899 
112 1 4.369 8.568 13.035 
115 1 4.308 6.159 14.209 
124 1 4.857 7.722 11.84 
125 1 1.984 9.314 14.209 
126 1 6.846 9.307 21.771 
128 1 7.76 8.511 20.899 
139 1 1.491 10.146 20.924 
140 1 4.097 7.793 18.554 
143 1 7.967 6.906 11.865 
146 1 4.29 8.493 22.068 
149 1 5.064 6.118 20.924 
157 1 2.256 10.089 19.728 
ITEM: TIMESTEP
10
ITEM: NUMBER OF ATOMS
163
ITEM: BOX BOUNDS xy xz yz pp pp pp
-6.7755000000000001e+00 1.3552000000000000e+01 -6.7755000000000001e+00
0.0000000000000000e+00 1.1735510246683001e+01 0.0000000000000000e+00
0.0000000000000000e+00 2.2149999999999999e+01 0.0000000000000000e+00
ITEM: ATOMS id type x y z 
8 1 -2.41078 5.35592 9.83865 
87 1 2.97849 4.25624 10.6438 
90 1 2.65618 5.46227 9.78865 
109 1 -2.40571 5.3519 0.758281 
158 1 2.65684 5.46656 0.826864 
163 3 -2.27263 5.47829 5.23384 
11 1 4.29505 4.17358 20.1552 
14 1 2.91944 4.12088 19.684 
18 1 1.32612 5.8597 18.5883 
33 1 2.14849 4.21483 20.9127 
43 1 4.31348 4.12671 21.5894 
47 1 3.27158 5.79668 17.8397 
52 1 4.29333 4.17807 12.6093 
76 1 2.46759 4.90632 14.192 
85 1 4.31358 4.12957 11.1753 
89 1 3.24237 5.80382 14.9116 
91 1 0.999622 5.06092 11.8462 
102 1 2.9263 4.12062 13.0769 
105 1 1.34238 5.83883 14.1986 
114 1 2.15055 4.20888 11.8527 
150 1 2.43681 4.93363 18.573 
156 1 2.97559 4.25558 22.117 
159 1 1.00386 5.06462 20.9047 
5 1 -4.93498 10.598 8.60836 
9 1 -3.26746 8.89151 7.53 
19 1 -1.76526 7.50723 10.568 
21 1 -2.61132 8.76813 10.9107 
23 1 -3.17036 7.61424 6.94329 
25 1 -4.14537 10.4909 9.82219 
32 1 1.57491 6.34479 0.773915 
36 1 -1.8852 7.54133 9.06388 
38 1 -2.14964 6.19861 8.64174 
54 1 0.288992 8.53399 10.6719 
57 1 1.35245 7.98239 9.78514 
60 1 -1.75369 7.48792 0.0616242 
65 1 -3.3246 7.51821 3.77515 
78 1 -1.89428 7.5103 1.54751 
80 1 -2.55048 8.79757 1.84894 
84 1 -4.44709 9.84938 3.10838 
99 1 -3.01804 9.66606 0.772449 
100 1 -2.93006 6.24035 3.17798 
107 1 -4.93859 10.6201 1.98289 
110 1 -3.37955 8.88139 3.12636 
111 1 0.594042 5.9632 10.8162 
113 1 1.57934 6.34576 9.83989 
119 1 -4.16368 10.5037 0.786959 
127 1 -2.14519 6.19185 1.96802 
131 1 -2.31142 6.19068 11.0152 
138 1 1.35379 7.98294 0.828672 
142 1 -2.55117 8.80205 8.7476 
145 1 -4.50473 9.78872 7.48028 
151 1 -4.98607 10.4736 11.0463 
154 1 -3.00636 9.63123 9.83172 
155 1 -2.91077 6.31562 7.44365 
12 1 2.5719 7.05988 17.1418 
17 1 0.3831 9.37105 20.9249 
24 1 -3.57886 8.38766 11.8701 
27 1 -0.269529 7.23941 21.6229 
29 1 0.595074 5.95623 21.9455 
31 1 1.2972 7.17583 17.9239 
44 1 -0.118426 7.21012 20.1411 
46 1 0.136681 8.52804 19.7077 
51 1 -0.267326 7.23737 11.1386 
53 1 2.5845 7.06734 15.6276 
56 1 1.29486 7.20281 14.8653 
63 1 -2.30893 6.19251 21.7447 
66 1 -3.36494 6.73493 20.8593 
70 1 -0.123287 7.21421 12.6154 
72 1 0.506896 5.93035 12.9006 
92 1 0.910671 8.47616 14.2529 
95 1 -4.99038 10.4718 21.7174 
98 1 -4.6704 9.26051 20.8543 
104 1 0.388381 9.36888 11.8374 
116 1 -2.60521 8.76513 21.8868 
118 1 -3.59496 8.38521 20.9062 
122 1 0.134427 8.53163 13.0514 
133 1 -3.36137 6.72144 11.9008 
136 1 0.289718 8.53261 22.0969 
147 1 0.533004 5.92961 19.8406 
153 1 -4.69567 9.26185 11.9075 
160 1 0.911455 8.46675 18.5103 
1 1 7.8858 4.90649 10.5549 
4 1 9.18933 4.78055 11.0328 
20 1 7.85794 4.92466 9.05968 
42 1 9.44597 5.42436 7.42354 
67 1 9.98396 4.5333 0.757606 
77 1 7.89465 4.91869 0.0889892 
94 1 7.88508 4.94502 1.54271 
96 1 9.20646 4.63532 1.99575 
121 1 4.69847 5.42251 10.7281 
130 1 9.4766 5.41894 3.17022 
134 1 9.98714 4.54145 9.85016 
152 1 9.20918 4.63492 8.61317 
162 2 10.3889 5.15727 5.37765 
45 1 4.69811 5.42269 22.0412 
55 1 4.8146 5.48005 13.0609 
106 1 9.18567 4.76992 21.7304 
137 1 4.81689 5.47703 19.6977 
2 1 7.24263 10.5517 9.0814 
3 1 9.01973 7.58784 6.05998 
6 1 8.46696 6.27633 6.87698 
16 1 2.34129 8.68999 0.841283 
22 1 7.16212 6.19996 8.74418 
26 1 7.19193 8.46973 7.51985 
35 1 7.20955 10.5984 10.5099 
37 1 6.83495 9.30333 10.9624 
39 1 8.24154 8.92841 6.78572 
41 1 6.72979 7.02348 9.83255 
48 1 3.74108 6.35683 0.8327 
61 1 7.23503 10.5578 1.54245 
62 1 8.94416 7.68503 4.49298 
64 1 6.7106 9.24253 1.98762 
68 1 7.39465 6.96598 3.05066 
71 1 4.28957 8.54004 10.7798 
74 1 3.62656 7.78689 9.84745 
81 1 8.5357 6.40372 3.77242 
83 1 6.53553 8.44957 0.78741 
93 1 7.21044 10.5995 0.0995187 
97 1 8.30311 8.94274 3.8413 
101 1 2.3449 9.96229 10.6439 
103 1 2.33984 8.68557 9.76891 
117 1 7.16014 6.19095 1.88448 
120 1 7.16196 8.42405 3.05171 
123 1 3.73664 6.35332 9.78023 
129 1 6.73956 7.01617 0.783901 
132 1 6.71175 9.25112 8.62812 
135 1 7.40815 6.92579 7.54818 
141 1 7.25267 6.18333 10.9053 
144 1 6.53571 8.46706 9.81786 
148 1 3.62676 7.7831 0.763933 
161 2 9.53345 6.52521 5.71536 
7 1 9.19253 6.02448 11.9135 
10 1 3.647 9.80288 21.6132 
13 1 2.34951 9.95551 22.1172 
15 1 3.00287 8.32472 17.9068 
28 1 3.65771 9.78828 20.1368 
30 1 4.37539 8.51627 19.7966 
34 1 4.35002 6.2976 18.6226 
40 1 7.78926 8.36911 11.9101 
49 1 4.79035 7.70886 20.9016 
50 1 2.05986 9.29917 18.5081 
58 1 1.54219 10.1912 11.8436 
59 1 4.12644 7.75594 14.1261 
69 1 3.65184 9.80631 11.1546 
73 1 3.0028 8.32596 14.8553 
75 1 4.99483 6.26646 11.8655 
79 1 7.24083 6.17817 21.8606 
82 1 7.90801 6.92506 20.919 
86 1 3.65526 9.78581 12.6288 
88 1 2.32023 10.0841 13.0804 
108 1 9.19444 6.02782 20.8475 
112 1 4.37132 8.52163 12.9721 
115 1 4.34892 6.29604 14.1391 
124 1 4.79618 7.70346 11.8626 
125 1 2.0651 9.2993 14.253 
126 1 6.83536 9.31185 21.8035 
128 1 7.79012 8.36851 20.8445 
139 1 1.54716 10.1958 20.9252 
140 1 4.12739 7.75571 18.6373 
143 1 7.90983 6.93242 11.8437 
146 1 4.29077 8.53721 21.9812 
149 1 4.99529 6.27894 20.9004 
157 1 2.31971 10.087 19.6832 
ITEM: TIMESTEP
20
ITEM: NUMBER OF ATOMS
163
ITEM: BOX BOUNDS xy xz yz pp pp pp
-6.7755000000000001e+00 1.3552000000000000e+01 -6.7755000000000001e+00
0.0000000000000000e+00 1.1735510246683001e+01 0.0000000000000000e+00
0.0000000000000000e+00 2.2149999999999999e+01 0.0000000000000000e+00
ITEM: ATOMS id type x y z 
8 1 -2.41919 5.38004 9.83624 
87 1 2.96992 4.26367 10.6468 
90 1 2.65073 5.4602 9.78623 
109 1 -2.41915 5.37331 0.763742 
158 1 2.65221 5.46009 0.82835 
163 3 -2.2675 5.47584 5.23596 
11 1 4.28656 4.19958 20.1265 
14 1 2.91038 4.13783 19.69 
18 1 1.318 5.85937 18.595 
33 1 2.13311 4.21746 20.9055 
43 1 4.30808 4.16683 21.5827 
47 1 3.26285 5.79839 17.8314 
52 1 4.28614 4.1997 12.6364 
76 1 2.42869 4.94513 14.1697 
85 1 4.30728 4.16768 11.1815 
89 1 3.25751 5.78757 14.9238 
91 1 0.992327 5.0628 11.8529 
102 1 2.90648 4.14488 13.0779 
105 1 1.32484 5.85944 14.1611 
114 1 2.13253 4.22023 11.8594 
150 1 2.43855 4.93573 18.5859 
156 1 2.9709 4.26369 22.1199 
159 1 0.99292 5.0584 20.9133 
5 1 -4.92055 10.5658 8.61034 
9 1 -3.24873 8.90025 7.52856 
19 1 -1.76879 7.51666 10.5657 
21 1 -2.63126 8.76402 10.9423 
23 1 -3.19269 7.61988 6.93134 
25 1 -4.13544 10.4716 9.82087 
32 1 1.60526 6.36399 0.754873 
36 1 -1.86958 7.55103 9.07466 
38 1 -2.14701 6.22068 8.65552 
54 1 0.30973 8.51794 10.6708 
57 1 1.36253 7.97339 9.8005 
60 1 -1.75018 7.4887 0.0634446 
65 1 -3.30521 7.55267 3.76204 
78 1 -1.88186 7.52357 1.54572 
80 1 -2.55909 8.79011 1.83734 
84 1 -4.44246 9.81696 3.09269 
99 1 -3.00634 9.67185 0.773362 
100 1 -2.93566 6.26153 3.1618 
107 1 -4.9282 10.5991 1.99881 
110 1 -3.33956 8.87664 3.09162 
111 1 0.609247 5.96558 10.8249 
113 1 1.60428 6.36433 9.85949 
119 1 -4.15357 10.5057 0.776452 
127 1 -2.15371 6.20197 1.97424 
131 1 -2.32652 6.20914 11.0163 
138 1 1.35926 7.97466 0.8112 
142 1 -2.52958 8.80291 8.75483 
145 1 -4.49906 9.7742 7.4894 
151 1 -4.98021 10.4555 11.0304 
154 1 -2.99657 9.62456 9.84605 
155 1 -2.91942 6.3195 7.45255 
12 1 2.56589 7.06978 17.1543 
17 1 0.403607 9.3458 20.924 
24 1 -3.6177 8.374 11.8551 
27 1 -0.264833 7.23997 21.627 
29 1 0.608252 5.96552 21.95 
31 1 1.28696 7.16844 17.9192 
44 1 -0.137486 7.2029 20.1436 
46 1 0.141122 8.52057 19.7146 
51 1 -0.267239 7.23892 11.1375 
53 1 2.5612 7.07826 15.6166 
56 1 1.2883 7.16097 14.8355 
63 1 -2.32622 6.20422 21.7415 
66 1 -3.38034 6.75103 20.8717 
70 1 -0.134375 7.19985 12.6204 
72 1 0.539183 5.93042 12.9128 
92 1 0.918372 8.44925 14.2473 
95 1 -4.99057 10.4574 21.7201 
98 1 -4.66979 9.26115 20.8573 
104 1 0.402749 9.34634 11.8449 
116 1 -2.62445 8.75647 21.8901 
118 1 -3.61781 8.36581 20.9315 
122 1 0.14439 8.51583 13.0511 
133 1 -3.37147 6.72935 11.8908 
136 1 0.312082 8.51828 22.0915 
147 1 0.528271 5.93214 19.8505 
153 1 -4.68876 9.27446 11.9076 
160 1 0.918156 8.45425 18.5152 
1 1 7.85903 4.90749 10.5371 
4 1 9.17326 4.79688 11.0136 
20 1 7.85017 4.93763 9.07001 
42 1 9.45026 5.43747 7.45074 
67 1 9.97947 4.55167 0.760225 
77 1 7.87078 4.92149 0.084802 
94 1 7.86558 4.93936 1.54604 
96 1 9.19182 4.6542 1.9941 
121 1 4.66913 5.46156 10.7066 
130 1 9.46544 5.43889 3.16584 
134 1 9.97709 4.55849 9.84573 
152 1 9.1849 4.65616 8.61719 
162 2 10.3949 5.14496 5.37503 
45 1 4.66988 5.46235 22.0565 
55 1 4.81242 5.49363 13.0641 
106 1 9.17262 4.79436 21.7426 
137 1 4.81279 5.49452 19.699 
2 1 7.25259 10.5277 9.04867 
3 1 9.03232 7.5918 6.06309 
6 1 8.44787 6.27663 6.88257 
16 1 2.3506 8.68971 0.841913 
22 1 7.14788 6.19379 8.74153 
26 1 7.19852 8.44472 7.52285 
35 1 7.22777 10.563 10.5096 
37 1 6.86409 9.26401 10.9754 
39 1 8.24076 8.92234 6.79136 
41 1 6.72718 7.01089 9.83387 
48 1 3.70365 6.35346 0.820624 
61 1 7.2442 10.5265 1.56003 
62 1 8.95308 7.67739 4.45574 
64 1 6.71684 9.22907 1.98932 
68 1 7.38235 6.97379 3.05343 
71 1 4.29974 8.52655 10.7714 
74 1 3.5996 7.78904 9.8337 
81 1 8.51904 6.39846 3.77991 
83 1 6.5392 8.44194 0.781751 
93 1 7.22805 10.5574 0.109874 
97 1 8.25939 8.95408 3.84759 
101 1 2.36179 9.92747 10.6699 
103 1 2.35077 8.6888 9.772 
117 1 7.13502 6.1891 1.88713 
120 1 7.1924 8.42816 3.05774 
123 1 3.70549 6.35273 9.79392 
129 1 6.7306 7.00552 0.772983 
132 1 6.72044 9.2386 8.6243 
135 1 7.39636 6.93225 7.55415 
141 1 7.2414 6.19883 10.913 
144 1 6.53833 8.45229 9.82182 
148 1 3.60051 7.78711 0.780341 
161 2 9.51299 6.53639 5.71193 
7 1 9.1805 6.03196 11.9207 
10 1 3.66577 9.80474 21.6037 
13 1 2.36204 9.92828 22.0936 
15 1 3.01272 8.3301 17.898 
28 1 3.66739 9.78247 20.1425 
30 1 4.39204 8.53095 19.7961 
34 1 4.34225 6.29849 18.6242 
40 1 7.82865 8.36561 11.8984 
49 1 4.80132 7.71894 20.9094 
50 1 2.07168 9.28198 18.5139 
58 1 1.55658 10.1691 11.8406 
59 1 4.13523 7.75842 14.1319 
69 1 3.667 9.80671 11.1588 
73 1 3.01444 8.33294 14.863 
75 1 4.99535 6.28236 11.8625 
79 1 7.23295 6.19429 21.8433 
82 1 7.93315 6.93176 20.9081 
86 1 3.66684 9.78328 12.6221 
88 1 2.34177 10.0639 13.0706 
108 1 9.183 6.03341 20.8449 
112 1 4.39219 8.5298 12.9676 
115 1 4.34052 6.29952 14.1378 
124 1 4.80249 7.71905 11.8532 
125 1 2.0696 9.27922 14.2502 
126 1 6.86265 9.26503 21.7868 
128 1 7.82615 8.36739 20.8625 
139 1 1.55584 10.1689 20.9244 
140 1 4.13556 7.7559 18.632 
143 1 7.93421 6.9339 11.8545 
146 1 4.30078 8.5279 21.9925 
149 1 4.99329 6.28376 20.9009 
157 1 2.34198 10.0635 19.6915 
ITEM: TIMESTEP
30
ITEM: NUMBER OF ATOMS
163
ITEM: BOX BOUNDS xy xz yz pp pp pp
-6.7755000000000001e+00 1.3552000000000000e+01 -6.7755000000000001e+00
0.0000000000000000e+00 1.1735510246683001e+01 0.0000000000000000e+00
0.0000000000000000e+00 2.2149999999999999e+01 0.0000000000000000e+00
ITEM: ATOMS id type x y z 
8 1 -2.42539 5.40009 9.83634 
87 1 2.96647 4.27102 10.6402 
90 1 2.63966 5.4526 9.78514 
109 1 -2.42801 5.3908 0.765104 
158 1 2.63883 5.45338 0.828638 
163 3 -2.26268 5.47295 5.23747 
11 1 4.28194 4.21872 20.1209 
14 1 2.90067 4.14573 19.6957 
18 1 1.31002 5.86043 18.601 
33 1 2.12029 4.21396 20.9046 
43 1 4.29545 4.20195 21.5672 
47 1 3.25047 5.80256 17.8257 
52 1 4.28239 4.21901 12.6432 
76 1 2.43199 4.93612 14.1773 
85 1 4.29607 4.20239 11.196 
89 1 3.24369 5.80334 14.9329 
91 1 0.975858 5.0527 11.8439 
102 1 2.90082 4.14248 13.0644 
105 1 1.31122 5.86058 14.1647 
114 1 2.11948 4.21468 11.8592 
150 1 2.43162 4.93932 18.5867 
156 1 2.96605 4.27077 22.1237 
159 1 0.976792 5.0514 20.9175 
5 1 -4.90584 10.5475 8.61011 
9 1 -3.22944 8.90733 7.52674 
19 1 -1.7709 7.53203 10.5742 
21 1 -2.62971 8.7645 10.9666 
23 1 -3.19915 7.62673 6.92657 
25 1 -4.12271 10.4599 9.81477 
32 1 1.60667 6.38466 0.75007 
36 1 -1.84734 7.56589 9.0794 
38 1 -2.14171 6.23875 8.65953 
54 1 0.316094 8.50974 10.668 
57 1 1.37199 7.95827 9.80316 
60 1 -1.74771 7.49351 0.0629737 
65 1 -3.30037 7.55386 3.76026 
78 1 -1.86167 7.5322 1.54419 
80 1 -2.54439 8.79235 1.83031 
84 1 -4.43993 9.81377 3.0951 
99 1 -2.99173 9.6753 0.7667 
100 1 -2.93855 6.27461 3.15811 
107 1 -4.91924 10.5945 1.98929 
110 1 -3.33257 8.8811 3.08758 
111 1 0.605155 5.96527 10.8096 
113 1 1.6057 6.38512 9.86306 
119 1 -4.13785 10.5108 0.778471 
127 1 -2.14686 6.21423 1.97178 
131 1 -2.33232 6.21976 11.0178 
138 1 1.37138 7.95805 0.809677 
142 1 -2.50408 8.81054 8.7508 
145 1 -4.48308 9.75512 7.48696 
151 1 -4.97246 10.4481 11.0301 
154 1 -2.97846 9.61888 9.86016 
155 1 -2.92085 6.33244 7.46063 
12 1 2.56432 7.0715 17.1525 
17 1 0.411606 9.33138 20.918 
24 1 -3.62474 8.35393 11.8596 
27 1 -0.269786 7.23173 21.6262 
29 1 0.607799 5.9628 21.9526 
31 1 1.28268 7.16664 17.9159 
44 1 -0.15884 7.19412 20.1429 
46 1 0.137061 8.50569 19.7122 
51 1 -0.271955 7.23261 11.1383 
53 1 2.56447 7.07752 15.6156 
56 1 1.28274 7.16523 14.8501 
63 1 -2.33453 6.21315 21.7403 
66 1 -3.38877 6.7669 20.8762 
70 1 -0.159641 7.19226 12.618 
72 1 0.521114 5.92933 12.9103 
92 1 0.920789 8.44326 14.2475 
95 1 -4.98446 10.4526 21.7128 
98 1 -4.65867 9.26905 20.8568 
104 1 0.411549 9.33121 11.8479 
116 1 -2.62465 8.76218 21.8825 
118 1 -3.62372 8.34041 20.9358 
122 1 0.137107 8.50493 13.0509 
133 1 -3.3812 6.73871 11.8925 
136 1 0.318016 8.51124 22.0951 
147 1 0.520555 5.93146 19.855 
153 1 -4.67625 9.28376 11.9129 
160 1 0.920558 8.44392 18.5176 
1 1 7.82846 4.90713 10.539 
4 1 9.152 4.81334 11.0054 
20 1 7.82969 4.93648 9.06728 
42 1 9.4444 5.45398 7.46117 
67 1 9.96919 4.56681 0.765117 
77 1 7.84112 4.92077 0.0838495 
94 1 7.8419 4.94058 1.54501 
96 1 9.1709 4.6697 1.99382 
121 1 4.65609 5.49346 10.6905 
130 1 9.45367 5.45078 3.1613 
134 1 9.97085 4.57216 9.8437 
152 1 9.16589 4.66733 8.62164 
162 2 10.4023 5.13152 5.37215 
45 1 4.65606 5.49408 22.0729 
55 1 4.8163 5.5153 13.0635 
106 1 9.15358 4.81168 21.75 
137 1 4.81573 5.5148 19.6988 
2 1 7.26178 10.506 9.04322 
3 1 9.03301 7.59549 6.06421 
6 1 8.43451 6.27432 6.88271 
16 1 2.35813 8.69042 0.84936 
22 1 7.12358 6.18288 8.73642 
26 1 7.19952 8.43609 7.51606 
35 1 7.23905 10.5331 10.492 
37 1 6.88201 9.2351 10.9933 
39 1 8.24507 8.91144 6.78588 
41 1 6.71025 7.00155 9.83774 
48 1 3.69986 6.3484 0.821399 
61 1 7.25046 10.5074 1.56602 
62 1 8.94997 7.68334 4.44645 
64 1 6.71276 9.2121 1.9869 
68 1 7.37114 6.96792 3.05505 
71 1 4.30925 8.5219 10.7567 
74 1 3.59588 7.79791 9.81697 
81 1 8.51126 6.3998 3.78399 
83 1 6.53796 8.42196 0.786323 
93 1 7.23934 10.5208 0.123803 
97 1 8.27797 8.95648 3.8572 
101 1 2.38163 9.90996 10.6781 
103 1 2.35857 8.69065 9.76439 
117 1 7.10869 6.18166 1.89759 
120 1 7.19152 8.41868 3.06309 
123 1 3.69983 6.34868 9.79294 
129 1 6.71381 6.99534 0.770109 
132 1 6.7163 9.22147 8.62339 
135 1 7.38061 6.92203 7.54765 
141 1 7.23224 6.20526 10.9282 
144 1 6.53761 8.43555 9.81599 
148 1 3.59585 7.79786 0.796987 
161 2 9.49288 6.5441 5.70151 
7 1 9.1743 6.02829 11.9289 
10 1 3.69562 9.8051 21.6053 
13 1 2.38158 9.91077 22.086 
15 1 3.0194 8.32822 17.8899 
28 1 3.69097 9.78164 20.14 
30 1 4.41619 8.53858 19.7861 
34 1 4.33664 6.30651 18.6155 
40 1 7.8301 8.37266 11.8966 
49 1 4.81745 7.72882 20.9123 
50 1 2.08119 9.26986 18.5157 
58 1 1.56748 10.1546 11.8452 
59 1 4.14448 7.76367 14.1353 
69 1 3.69683 9.80671 11.158 
73 1 3.02265 8.33117 14.8735 
75 1 4.99565 6.30063 11.8668 
79 1 7.22357 6.19889 21.8274 
82 1 7.93842 6.92565 20.8892 
86 1 3.69106 9.78126 12.6236 
88 1 2.36273 10.0465 13.0737 
108 1 9.17706 6.0327 20.8372 
112 1 4.41571 8.53767 12.9767 
115 1 4.33449 6.30687 14.147 
124 1 4.81853 7.72804 11.8512 
125 1 2.08221 9.26987 14.2476 
126 1 6.8765 9.23118 21.7647 
128 1 7.83402 8.37348 20.8652 
139 1 1.56797 10.1547 20.9185 
140 1 4.14462 7.7617 18.6277 
143 1 7.93856 6.92627 11.8703 
146 1 4.30938 8.52259 22.0078 
149 1 4.99328 6.30162 20.8969 
157 1 2.36296 10.0469 19.6904 
ITEM: TIMESTEP
40
ITEM: NUMBER OF ATOMS
163
ITEM: BOX BOUNDS xy xz yz pp pp pp
-6.7755000000000001e+00 1.3552000000000000e+01 -6.7755000000000001e+00
0.0000000000000000e+00 1.1735510246683001e+01 0.0000000000000000e+00
0.0000000000000000e+00 2.2149999999999999e+01 0.0000000000000000e+00
ITEM: ATOMS id type x y z 
8 1 -2.46033 5.47408 9.83492 
87 1 2.94774 4.3138 10.64 
90 1 2.60144 5.46219 9.76168 
109 1 -2.46632 5.44935 0.771023 
158 1 2.60607 5.45652 0.850665 
163 3 -2.24487 5.46136 5.24761 
11 1 4.26191 4.29809 20.0874 
14 1 2.86309 4.17437 19.7158 
18 1 1.28353 5.86871 18.6116 
33 1 2.07524 4.21396 20.9131 
43 1 4.2576 4.31395 21.5231 
47 1 3.22318 5.7973 17.8243 
52 1 4.26044 4.30077 12.6748 
76 1 2.39307 4.96501 14.1676 
85 1 4.25973 4.31204 11.2427 
89 1 3.2236 5.78683 14.9374 
91 1 0.921062 5.01369 11.8358 
102 1 2.85844 4.17952 13.0624 
105 1 1.28305 5.85765 14.1461 
114 1 2.08286 4.21076 11.848 
150 1 2.394 4.94688 18.5875 
156 1 2.94658 4.3106 22.1246 
159 1 0.920956 5.02524 20.9306 
5 1 -4.85223 10.4743 8.61167 
9 1 -3.15486 8.91872 7.51652 
19 1 -1.77176 7.58109 10.5985 
21 1 -2.59592 8.77926 11.0249 
23 1 -3.20088 7.64742 6.92221 
25 1 -4.0737 10.4088 9.80952 
32 1 1.58195 6.4085 0.757234 
36 1 -1.77257 7.62 9.0937 
38 1 -2.12333 6.31033 8.67257 
54 1 0.345155 8.47511 10.6694 
57 1 1.40063 7.93912 9.80672 
60 1 -1.73974 7.52789 0.0622134 
65 1 -3.30813 7.56278 3.74895 
78 1 -1.79159 7.57269 1.54745 
80 1 -2.489 8.81207 1.82103 
84 1 -4.4047 9.81886 3.08979 
99 1 -2.94216 9.70091 0.750713 
100 1 -2.94435 6.29424 3.12918 
107 1 -4.87816 10.5738 1.9629 
110 1 -3.30799 8.88371 3.06884 
111 1 0.563641 5.95434 10.8176 
113 1 1.58065 6.40794 9.86106 
119 1 -4.09131 10.5157 0.765272 
127 1 -2.1211 6.25981 1.9673 
131 1 -2.36156 6.26217 11.0269 
138 1 1.39772 7.94276 0.805036 
142 1 -2.40173 8.85415 8.74257 
145 1 -4.42357 9.69737 7.47142 
151 1 -4.94609 10.404 11.0258 
154 1 -2.91263 9.60205 9.89276 
155 1 -2.93372 6.38076 7.49117 
12 1 2.56847 7.05316 17.1467 
17 1 0.451017 9.27143 20.9068 
24 1 -3.61141 8.32863 11.9067 
27 1 -0.278093 7.20138 21.6218 
29 1 0.572111 5.9454 21.9542 
31 1 1.28078 7.17283 17.9134 
44 1 -0.229582 7.15383 20.1378 
46 1 0.113719 8.45838 19.713 
51 1 -0.286246 7.20941 11.1445 
53 1 2.56627 7.05455 15.6167 
56 1 1.28639 7.17476 14.8467 
63 1 -2.36249 6.24732 21.7396 
66 1 -3.41499 6.78066 20.8793 
70 1 -0.236541 7.15512 12.6303 
72 1 0.480392 5.91996 12.8877 
92 1 0.919531 8.42884 14.2338 
95 1 -4.9665 10.4144 21.7077 
98 1 -4.62349 9.26775 20.8338 
104 1 0.451243 9.27024 11.8578 
116 1 -2.58752 8.78023 21.8758 
118 1 -3.60087 8.31396 20.9261 
122 1 0.117989 8.45833 13.0535 
133 1 -3.41241 6.74372 11.9085 
136 1 0.347555 8.47548 22.0934 
147 1 0.475272 5.91653 19.8581 
153 1 -4.64549 9.28214 11.9489 
160 1 0.918379 8.42963 18.5298 
1 1 7.72238 4.89872 10.5422 
4 1 9.07418 4.86113 10.9735 
20 1 7.74328 4.93331 9.07352 
42 1 9.42024 5.51589 7.50184 
67 1 9.91857 4.63619 0.779359 
77 1 7.72839 4.90347 0.0741931 
94 1 7.74541 4.95642 1.5445 
96 1 9.086 4.72303 1.98616 
121 1 4.61623 5.57512 10.6709 
130 1 9.42593 5.49086 3.13964 
134 1 9.93491 4.64081 9.83436 
152 1 9.10338 4.71597 8.63975 
162 2 10.4335 5.07729 5.36127 
45 1 4.61522 5.57324 22.0938 
55 1 4.8201 5.58375 13.0721 
106 1 9.0812 4.86864 21.7767 
137 1 4.81809 5.58497 19.6904 
2 1 7.2989 10.4255 9.00386 
3 1 9.02452 7.60021 6.07728 
6 1 8.39192 6.27094 6.87536 
16 1 2.39233 8.69429 0.873168 
22 1 7.01951 6.14451 8.7114 
26 1 7.19062 8.39114 7.48711 
35 1 7.28965 10.4288 10.4417 
37 1 6.91835 9.16546 11.0076 
39 1 8.26599 8.86503 6.77897 
41 1 6.64996 6.95333 9.84504 
48 1 3.67269 6.36165 0.87107 
61 1 7.27147 10.4288 1.59278 
62 1 8.94418 7.71102 4.44708 
64 1 6.70669 9.14334 1.98788 
68 1 7.33378 6.94852 3.06802 
71 1 4.35745 8.51493 10.712 
74 1 3.60783 7.82419 9.75712 
81 1 8.49062 6.4228 3.78681 
83 1 6.53112 8.36041 0.787551 
93 1 7.27417 10.4109 0.163517 
97 1 8.3009 8.96573 3.855 
101 1 2.45713 9.85183 10.7087 
103 1 2.39197 8.69544 9.74144 
117 1 7.00438 6.1481 1.93294 
120 1 7.19891 8.39021 3.0961 
123 1 3.67365 6.36192 9.74303 
129 1 6.654 6.94041 0.766927 
132 1 6.70958 9.1534 8.60948 
135 1 7.31285 6.88943 7.52561 
141 1 7.18879 6.21319 10.9748 
144 1 6.53228 8.37818 9.8092 
148 1 3.60669 7.82465 0.857561 
161 2 9.41996 6.56836 5.66536 
7 1 9.13866 6.02005 11.9621 
10 1 3.80908 9.82387 21.6098 
13 1 2.45538 9.85366 22.057 
15 1 3.03259 8.31809 17.8756 
28 1 3.78569 9.7698 20.1368 
30 1 4.51415 8.56937 19.7476 
34 1 4.32565 6.34286 18.5816 
40 1 7.84495 8.36987 11.9428 
49 1 4.87569 7.78233 20.9135 
50 1 2.1087 9.23722 18.5263 
58 1 1.61778 10.0837 11.8645 
59 1 4.17894 7.78778 14.1539 
69 1 3.80874 9.8225 11.1527 
73 1 3.03148 8.31585 14.8898 
75 1 5.00195 6.36101 11.8674 
79 1 7.17852 6.20979 21.7793 
82 1 7.92797 6.89724 20.8267 
86 1 3.78647 9.76986 12.6275 
88 1 2.4455 9.99189 13.0694 
108 1 9.14165 6.02706 20.812 
112 1 4.51232 8.56626 13.0143 
115 1 4.31974 6.34448 14.1778 
124 1 4.87841 7.77963 11.849 
125 1 2.10659 9.23656 14.2377 
126 1 6.91812 9.1489 21.7381 
128 1 7.86049 8.36389 20.8159 
139 1 1.61835 10.0841 20.8999 
140 1 4.17678 7.7854 18.6068 
143 1 7.92723 6.9094 11.9218 
146 1 4.35397 8.51374 22.0513 
149 1 4.99822 6.36237 20.8938 
157 1 2.44482 9.99247 19.6921 
ITEM: TIMESTEP
50
ITEM: NUMBER OF ATOMS
163
ITEM: BOX BOUNDS xy xz yz pp pp pp
-6.7755000000000001e+00 1.3552000000000000e+01 -6.7755000000000001e+00
0.0000000000000000e+00 1.1735510246683001e+01 0.0000000000000000e+00
0.0000000000000000e+00 2.2149999999999999e+01 0.0000000000000000e+00
ITEM: ATOMS id type x y z 
8 1 -2.46552 5.48088 9.83531 
87 1 2.94403 4.31766 10.6417 
90 1 2.60505 5.46533 9.7543 
109 1 -2.47132 5.45402 0.772989 
158 1 2.60573 5.46534 0.85918 
163 3 -2.24278 5.45958 5.24982 
11 1 4.25593 4.30607 20.0863 
14 1 2.85952 4.17509 19.7132 
18 1 1.28135 5.87208 18.6111 
33 1 2.07623 4.21606 20.918 
43 1 4.2557 4.31353 21.5241 
47 1 3.22275 5.79593 17.8295 
52 1 4.25536 4.30727 12.6773 
76 1 2.3886 4.94625 14.1721 
85 1 4.25707 4.31474 11.2389 
89 1 3.21935 5.79683 14.9347 
91 1 0.913246 5.02435 11.831 
102 1 2.85942 4.17163 13.0495 
105 1 1.27964 5.87189 14.1518 
114 1 2.07547 4.21782 11.8455 
150 1 2.38812 4.94467 18.5872 
156 1 2.94323 4.31685 22.1225 
159 1 0.913483 5.02228 20.9288 
5 1 -4.84717 10.4667 8.61007 
9 1 -3.14839 8.91652 7.51492 
19 1 -1.76859 7.5809 10.5971 
21 1 -2.59588 8.78174 11.0266 
23 1 -3.19671 7.64905 6.92133 
25 1 -4.07124 10.4041 9.81591 
32 1 1.57506 6.4001 0.758747 
36 1 -1.76877 7.62322 9.09654 
38 1 -2.1223 6.3149 8.67388 
54 1 0.349095 8.46953 10.6707 
57 1 1.40039 7.94638 9.80378 
60 1 -1.73762 7.52827 0.0672921 
65 1 -3.30825 7.56483 3.74921 
78 1 -1.78798 7.57488 1.54856 
80 1 -2.48386 8.82015 1.8205 
84 1 -4.39975 9.82017 3.09078 
99 1 -2.93272 9.70357 0.751109 
100 1 -2.94493 6.29468 3.12914 
107 1 -4.87724 10.5746 1.96416 
110 1 -3.30595 8.88271 3.0661 
111 1 0.562268 5.94467 10.806 
113 1 1.57371 6.40039 9.85878 
119 1 -4.09295 10.5143 0.75924 
127 1 -2.11942 6.26252 1.96503 
131 1 -2.36754 6.26658 11.028 
138 1 1.40068 7.94593 0.809797 
142 1 -2.3899 8.864 8.73893 
145 1 -4.41735 9.69508 7.46916 
151 1 -4.94047 10.3964 11.0251 
154 1 -2.90394 9.60303 9.89387 
155 1 -2.93555 6.383 7.49441 
12 1 2.5684 7.05009 17.149 
17 1 0.455959 9.26677 20.9046 
24 1 -3.60361 8.3367 11.9134 
27 1 -0.280872 7.19871 21.6171 
29 1 0.569098 5.94116 21.9558 
31 1 1.28222 7.17233 17.9146 
44 1 -0.232615 7.15192 20.1345 
46 1 0.111111 8.45686 19.7138 
51 1 -0.284596 7.20298 11.1509 
53 1 2.56871 7.05156 15.6169 
56 1 1.2836 7.17212 14.848 
63 1 -2.36675 6.25159 21.7397 
66 1 -3.41762 6.77714 20.8748 
70 1 -0.236242 7.15134 12.6291 
72 1 0.470683 5.90885 12.9021 
92 1 0.917314 8.43542 14.2341 
95 1 -4.96313 10.4081 21.7091 
98 1 -4.62348 9.25801 20.8245 
104 1 0.456209 9.26519 11.8594 
116 1 -2.58519 8.78498 21.8741 
118 1 -3.59291 8.32291 20.9244 
122 1 0.112272 8.45658 13.05 
133 1 -3.41711 6.74254 11.916 
136 1 0.350852 8.47282 22.093 
147 1 0.468003 5.90929 19.8594 
153 1 -4.64706 9.27461 11.9577 
160 1 0.916614 8.4348 18.5305 
1 1 7.71717 4.8923 10.5454 
4 1 9.07022 4.86165 10.9804 
20 1 7.73763 4.93558 9.07376 
42 1 9.41509 5.52285 7.50119 
67 1 9.90763 4.64724 0.77973 
77 1 7.7187 4.89766 0.0716601 
94 1 7.73581 4.95588 1.54345 
96 1 9.07745 4.72682 1.98699 
121 1 4.61203 5.57907 10.6766 
130 1 9.42166 5.49601 3.13772 
134 1 9.92399 4.65253 9.83824 
152 1 9.09025 4.72068 8.63803 
162 2 10.4381 5.06988 5.36029 
45 1 4.61075 5.57877 22.087 
55 1 4.81875 5.59209 13.076 
106 1 9.07056 4.86793 21.775 
137 1 4.81748 5.59161 19.6871 
2 1 7.30443 10.4165 8.99755 
3 1 9.02573 7.59633 6.07778 
6 1 8.38722 6.27411 6.8738 
16 1 2.39765 8.6943 0.872461 
22 1 7.00474 6.13698 8.70724 
26 1 7.1858 8.38403 7.48239 
35 1 7.29403 10.4252 10.4388 
37 1 6.92261 9.16266 10.9998 
39 1 8.26835 8.86065 6.78537 
41 1 6.64606 6.94736 9.84768 
48 1 3.66728 6.36979 0.879212 
61 1 7.27773 10.4219 1.5944 
62 1 8.94542 7.71119 4.44885 
64 1 6.70769 9.13839 1.99221 
68 1 7.32701 6.94352 3.06933 
71 1 4.36431 8.51811 10.7139 
74 1 3.6183 7.82542 9.75628 
81 1 8.48667 6.42602 3.78657 
83 1 6.53209 8.35968 0.782401 
93 1 7.27576 10.4113 0.159797 
97 1 8.30495 8.96676 3.84864 
101 1 2.46619 9.85367 10.7067 
103 1 2.39777 8.69448 9.74127 
117 1 6.99578 6.14663 1.93461 
120 1 7.19637 8.38848 3.09643 
123 1 3.66564 6.37043 9.7359 
129 1 6.64756 6.93532 0.766246 
132 1 6.71116 9.14659 8.60668 
135 1 7.30443 6.88415 7.52147 
141 1 7.17955 6.21212 10.9746 
144 1 6.53238 8.37617 9.81314 
148 1 3.61764 7.82527 0.858305 
161 2 9.41726 6.56715 5.66363 
7 1 9.13386 6.01959 11.9619 
10 1 3.81664 9.82703 21.6111 
13 1 2.46621 9.85407 22.0577 
15 1 3.03566 8.31595 17.8763 
28 1 3.79468 9.76994 20.1381 
30 1 4.52334 8.57228 19.7448 