LAMMPS (3 Mar 2020)
Reading data file ...
  orthogonal box = (0 0 0) to (16.525 16.526 16.526)
  2 by 2 by 2 MPI processor grid
  reading atoms ...
  98 atoms
  read_data CPU = 0.0052262 secs
WARNING: Using 'neigh_modify every 1 delay 0 check yes' setting during minimization (../min.cpp:190)
WARNING: Total cutoff < 2*bond cutoff. May need to use an increased neighbor list skin. (../pair_reaxc.cpp:413)
Neighbor list info ...
  update every 1 steps, delay 0 steps, check yes
  max neighbors/atom: 2000, page size: 100000
  master list distance cutoff = 9.5
  ghost atom cutoff = 9.5
  binsize = 4.75, bins = 4 4 4
  2 neighbor lists, perpetual/occasional/extra = 2 0 0
  (1) pair reax/c, perpetual
      attributes: half, newton off, ghost
      pair build: half/bin/newtoff/ghost
      stencil: half/ghost/bin/3d/newtoff
      bin: standard
  (2) fix qeq/reax, perpetual, copy from (1)
      attributes: half, newton off, ghost
      pair build: copy
      stencil: none
      bin: none
Setting up cg style minimization ...
  Unit style    : real
  Current step  : 0
Per MPI rank memory allocation (min/avg/max) = 14.95 | 15.03 | 15.19 Mbytes
Step Temp E_pair E_mol TotEng Press 
       0            0   -17562.313            0   -17562.313    83.271311 
     150            0   -17607.732            0   -17607.732    -1424.106 
Loop time of 6.35764 on 8 procs for 150 steps with 98 atoms

98.6% CPU use with 8 MPI tasks x no OpenMP threads

Minimization stats:
  Stopping criterion = linesearch alpha is zero
  Energy initial, next-to-last, final = 
        -17562.3125577     -17607.7317763     -17607.7317763
  Force two-norm initial, final = 290.938 59.137
  Force max component initial, final = 113.202 20.892
  Final line search alpha, max atom move = 3.81282e-11 7.96575e-10
  Iterations, force evaluations = 150 950

MPI task timing breakdown:
Section |  min time  |  avg time  |  max time  |%varavg| %total
---------------------------------------------------------------
Pair    | 3.5644     | 3.6034     | 3.6433     |   1.3 | 56.68
Neigh   | 0          | 0          | 0          |   0.0 |  0.00
Comm    | 0.098429   | 0.13806    | 0.17714    |   6.5 |  2.17
Output  | 0.00095512 | 0.0014505  | 0.0022302  |   1.1 |  0.02
Modify  | 2.5954     | 2.5955     | 2.5957     |   0.0 | 40.82
Other   |            | 0.01924    |            |       |  0.30

Nlocal:    12.25 ave 14 max 12 min
Histogram: 7 0 0 0 0 0 0 0 0 1
Nghost:    372.5 ave 382 max 366 min
Histogram: 1 0 3 0 0 3 0 0 0 1
Neighs:    771.875 ave 886 max 743 min
Histogram: 4 3 0 0 0 0 0 0 0 1

Total # of neighbors = 6175
Ave neighs/atom = 63.0102
Neighbor list builds = 0
Dangerous builds = 0
WARNING: Using 'neigh_modify every 1 delay 0 check yes' setting during minimization (../min.cpp:190)
WARNING: Total cutoff < 2*bond cutoff. May need to use an increased neighbor list skin. (../pair_reaxc.cpp:413)
Setting up cg style minimization ...
  Unit style    : real
  Current step  : 150
Per MPI rank memory allocation (min/avg/max) = 14.95 | 15.03 | 15.19 Mbytes
Step Temp E_pair E_mol TotEng Press 
     150            0   -17607.732            0   -17607.732    -1424.106 
     184            0   -17608.356            0   -17608.356   -1526.6366 
Loop time of 1.87119 on 8 procs for 34 steps with 98 atoms

98.8% CPU use with 8 MPI tasks x no OpenMP threads

Minimization stats:
  Stopping criterion = energy tolerance
  Energy initial, next-to-last, final = 
        -17607.7317763     -17608.3559454     -17608.3560532
  Force two-norm initial, final = 59.137 16.2664
  Force max component initial, final = 20.892 3.63353
  Final line search alpha, max atom move = 0.000374794 0.00136183
  Iterations, force evaluations = 34 285

MPI task timing breakdown:
Section |  min time  |  avg time  |  max time  |%varavg| %total
---------------------------------------------------------------
Pair    | 1.0631     | 1.0746     | 1.0923     |   1.0 | 57.43
Neigh   | 0          | 0          | 0          |   0.0 |  0.00
Comm    | 0.026479   | 0.044128   | 0.055735   |   4.7 |  2.36
Output  | 0.00019882 | 0.00029318 | 0.00044759 |   0.0 |  0.02
Modify  | 0.74658    | 0.74665    | 0.74675    |   0.0 | 39.90
Other   |            | 0.005536   |            |       |  0.30

Nlocal:    12.25 ave 14 max 12 min
Histogram: 7 0 0 0 0 0 0 0 0 1
Nghost:    372.5 ave 382 max 366 min
Histogram: 1 0 3 0 0 3 0 0 0 1
Neighs:    775.625 ave 893 max 745 min
Histogram: 4 3 0 0 0 0 0 0 0 1

Total # of neighbors = 6205
Ave neighs/atom = 63.3163
Neighbor list builds = 0
Dangerous builds = 0
WARNING: Using 'neigh_modify every 1 delay 0 check yes' setting during minimization (../min.cpp:190)
WARNING: Total cutoff < 2*bond cutoff. May need to use an increased neighbor list skin. (../pair_reaxc.cpp:413)
Setting up cg style minimization ...
  Unit style    : real
  Current step  : 184
WARNING: Energy due to 3 extra global DOFs will be included in minimizer energies
Per MPI rank memory allocation (min/avg/max) = 14.95 | 15.03 | 15.19 Mbytes
Step Temp E_pair E_mol TotEng Press Volume 
     184            0   -17608.356            0   -17608.356   -1526.6366    4513.1209 
     407            0   -17609.125            0   -17609.125    -14.86221    4507.1577 
Loop time of 2.12882 on 8 procs for 223 steps with 98 atoms

98.8% CPU use with 8 MPI tasks x no OpenMP threads

Minimization stats:
  Stopping criterion = energy tolerance
  Energy initial, next-to-last, final = 
        -17608.3560532     -17609.1247556     -17609.1248839
  Force two-norm initial, final = 180.22 17.4761
  Force max component initial, final = 136.304 5.0922
  Final line search alpha, max atom move = 1.05067e-05 5.35023e-05
  Iterations, force evaluations = 223 395

MPI task timing breakdown:
Section |  min time  |  avg time  |  max time  |%varavg| %total
---------------------------------------------------------------
Pair    | 1.4606     | 1.4812     | 1.5047     |   1.1 | 69.58
Neigh   | 0          | 0          | 0          |   0.0 |  0.00
Comm    | 0.032225   | 0.055515   | 0.075909   |   5.7 |  2.61
Output  | 0.0013566  | 0.0019292  | 0.0028337  |   1.0 |  0.09
Modify  | 0.5687     | 0.56876    | 0.56884    |   0.0 | 26.72
Other   |            | 0.0214     |            |       |  1.01

Nlocal:    12.25 ave 14 max 12 min
Histogram: 7 0 0 0 0 0 0 0 0 1
Nghost:    372.5 ave 382 max 366 min
Histogram: 1 0 3 0 0 3 0 0 0 1
Neighs:    775.375 ave 892 max 745 min
Histogram: 4 2 1 0 0 0 0 0 0 1

Total # of neighbors = 6203
Ave neighs/atom = 63.2959
Neighbor list builds = 0
Dangerous builds = 0
WARNING: Using 'neigh_modify every 1 delay 0 check yes' setting during minimization (../min.cpp:190)
WARNING: Total cutoff < 2*bond cutoff. May need to use an increased neighbor list skin. (../pair_reaxc.cpp:413)
Setting up cg style minimization ...
  Unit style    : real
  Current step  : 407
Per MPI rank memory allocation (min/avg/max) = 14.95 | 15.03 | 15.19 Mbytes
Step Temp E_pair E_mol TotEng Press 
     407            0   -17609.125            0   -17609.125    -14.86221 
     490            0   -17609.484            0   -17609.484   -519.78902 
Loop time of 5.27746 on 8 procs for 83 steps with 98 atoms

98.8% CPU use with 8 MPI tasks x no OpenMP threads

Minimization stats:
  Stopping criterion = energy tolerance
  Energy initial, next-to-last, final = 
        -17609.1248839     -17609.4841312      -17609.484136
  Force two-norm initial, final = 17.0182 44.6104
  Force max component initial, final = 5.0922 14.3992
  Final line search alpha, max atom move = 0.000424457 0.00611183
  Iterations, force evaluations = 83 851

MPI task timing breakdown:
Section |  min time  |  avg time  |  max time  |%varavg| %total
---------------------------------------------------------------
Pair    | 3.143      | 3.1868     | 3.2357     |   1.6 | 60.39
Neigh   | 0          | 0          | 0          |   0.0 |  0.00
Comm    | 0.076209   | 0.12477    | 0.16891    |   8.3 |  2.36
Output  | 0.00060461 | 0.0008324  | 0.0012144  |   0.0 |  0.02
Modify  | 1.9493     | 1.9494     | 1.9496     |   0.0 | 36.94
Other   |            | 0.01558    |            |       |  0.30

Nlocal:    12.25 ave 14 max 12 min
Histogram: 7 0 0 0 0 0 0 0 0 1
Nghost:    372.5 ave 382 max 366 min
Histogram: 1 0 3 0 0 3 0 0 0 1
Neighs:    777.125 ave 892 max 748 min
Histogram: 4 2 1 0 0 0 0 0 0 1

Total # of neighbors = 6217
Ave neighs/atom = 63.4388
Neighbor list builds = 0
Dangerous builds = 0
WARNING: Using 'neigh_modify every 1 delay 0 check yes' setting during minimization (../min.cpp:190)
WARNING: Total cutoff < 2*bond cutoff. May need to use an increased neighbor list skin. (../pair_reaxc.cpp:413)
Setting up cg style minimization ...
  Unit style    : real
  Current step  : 490
WARNING: Energy due to 3 extra global DOFs will be included in minimizer energies
Per MPI rank memory allocation (min/avg/max) = 14.95 | 15.03 | 15.19 Mbytes
Step Temp E_pair E_mol TotEng Press Volume 
     490            0   -17609.484            0   -17609.484   -519.78902    4507.1577 
     568            0    -17609.89            0    -17609.89    2.5960057     4505.333 
Loop time of 0.698097 on 8 procs for 78 steps with 98 atoms

98.8% CPU use with 8 MPI tasks x no OpenMP threads

Minimization stats:
  Stopping criterion = energy tolerance
  Energy initial, next-to-last, final = 
         -17609.484136     -17609.8898255     -17609.8899865
  Force two-norm initial, final = 75.3038 12.9716
  Force max component initial, final = 43.1766 3.45027
  Final line search alpha, max atom move = 2.15336e-05 7.42969e-05
  Iterations, force evaluations = 78 129

MPI task timing breakdown:
Section |  min time  |  avg time  |  max time  |%varavg| %total
---------------------------------------------------------------
Pair    | 0.47802    | 0.48406    | 0.49197    |   0.7 | 69.34
Neigh   | 0          | 0          | 0          |   0.0 |  0.00
Comm    | 0.011112   | 0.018999   | 0.025081   |   3.4 |  2.72
Output  | 0.00046005 | 0.00063176 | 0.00089379 |   0.0 |  0.09
Modify  | 0.18716    | 0.18718    | 0.18721    |   0.0 | 26.81
Other   |            | 0.007225   |            |       |  1.03

Nlocal:    12.25 ave 14 max 12 min
Histogram: 7 0 0 0 0 0 0 0 0 1
Nghost:    372.5 ave 382 max 366 min
Histogram: 1 0 3 0 0 3 0 0 0 1
Neighs:    777.625 ave 890 max 748 min
Histogram: 4 2 1 0 0 0 0 0 0 1

Total # of neighbors = 6221
Ave neighs/atom = 63.4796
Neighbor list builds = 0
Dangerous builds = 0
WARNING: Using 'neigh_modify every 1 delay 0 check yes' setting during minimization (../min.cpp:190)
WARNING: Total cutoff < 2*bond cutoff. May need to use an increased neighbor list skin. (../pair_reaxc.cpp:413)
Setting up cg style minimization ...
  Unit style    : real
  Current step  : 568
Per MPI rank memory allocation (min/avg/max) = 14.95 | 15.03 | 15.19 Mbytes
Step Temp E_pair E_mol TotEng Press 
     568            0    -17609.89            0    -17609.89    2.5960057 
     573            0   -17609.894            0   -17609.894    8.2727378 
Loop time of 0.386934 on 8 procs for 5 steps with 98 atoms

98.8% CPU use with 8 MPI tasks x no OpenMP threads

Minimization stats:
  Stopping criterion = energy tolerance
  Energy initial, next-to-last, final = 
        -17609.8899865     -17609.8937676     -17609.8937887
  Force two-norm initial, final = 12.1923 11.2554
  Force max component initial, final = 3.45027 3.3915
  Final line search alpha, max atom move = 0.0044415 0.0150634
  Iterations, force evaluations = 5 62

MPI task timing breakdown:
Section |  min time  |  avg time  |  max time  |%varavg| %total
---------------------------------------------------------------
Pair    | 0.22859    | 0.23429    | 0.23907    |   0.7 | 60.55
Neigh   | 0          | 0          | 0          |   0.0 |  0.00
Comm    | 0.0049069  | 0.0096648  | 0.015335   |   3.4 |  2.50
Output  | 6.3292e-05 | 8.8444e-05 | 0.00014256 |   0.0 |  0.02
Modify  | 0.14151    | 0.14152    | 0.14155    |   0.0 | 36.58
Other   |            | 0.001369   |            |       |  0.35

Nlocal:    12.25 ave 14 max 12 min
Histogram: 7 0 0 0 0 0 0 0 0 1
Nghost:    372.5 ave 382 max 366 min
Histogram: 1 0 3 0 0 3 0 0 0 1
Neighs:    779.125 ave 890 max 752 min
Histogram: 4 3 0 0 0 0 0 0 0 1

Total # of neighbors = 6233
Ave neighs/atom = 63.602
Neighbor list builds = 0
Dangerous builds = 0
WARNING: Total cutoff < 2*bond cutoff. May need to use an increased neighbor list skin. (../pair_reaxc.cpp:413)
Setting up Verlet run ...
  Unit style    : real
  Current step  : 0
  Time step     : 0.25
Per MPI rank memory allocation (min/avg/max) = 13.82 | 13.9 | 14.06 Mbytes
Step Temp TotEng KinEng PotEng Press 
       0          300   -17523.152    86.741572   -17609.894    888.37522 
     200    212.76253   -17491.003    61.517854   -17552.521   -4178.5309 
     400    293.58401   -17442.427    84.886463   -17527.313   -2475.5937 
     600    346.60003   -17413.624    100.21544   -17513.839   -6566.8685 
     800     278.5364   -17447.326    80.535617   -17527.862   -387.02754 
    1000    279.84341   -17454.641    80.913525   -17535.554   -1085.3805 
    1200    297.75831   -17430.932    86.093414   -17517.025    1491.4018 
    1400    272.72698   -17436.775     78.85589    -17515.63   -491.21765 
    1600    287.65779   -17456.155    83.172963   -17539.327    6517.8889 
    1800    305.35469   -17446.999     88.28982   -17535.289   -3135.5529 
    2000    294.81596    -17439.73    85.242666   -17524.973    1231.4923 
    2200    323.85221   -17419.331    93.638166   -17512.969    -10473.55 
    2400    308.09133   -17444.696    89.081087   -17533.777    -10741.59 
    2600    268.49939   -17445.734     77.63353   -17523.368   -5714.3555 
    2800    341.11042   -17434.808     98.62818   -17533.436   -7513.0137 
    3000    317.46932    -17438.32    91.792626   -17530.113    4834.2691 
    3200    243.13466   -17464.093    70.299609   -17534.393   -1831.4177 
    3400    263.37966   -17450.661    76.153219   -17526.814   -7332.4727 
    3600    280.87624   -17435.626    81.212157   -17516.838   -529.30078 
    3800    303.13643   -17450.257    87.648436   -17537.906   -3276.0192 
    4000    287.13869   -17449.707    83.022873    -17532.73   -8431.0542 
    4200    310.03104   -17424.159    89.641932   -17513.801   -856.63213 
    4400    299.36405   -17449.738    86.557696   -17536.295   -283.87263 
    4600    321.28215   -17442.062    92.895063   -17534.957    2776.1354 
    4800    338.61302   -17429.361    97.906086   -17527.267    4772.8947 
    5000    285.94484   -17449.516    82.677682   -17532.193   -1413.0132 
    5200    318.76974    -17436.25    92.168627   -17528.419    687.43404 
    5400    297.08562   -17436.084    85.898912   -17521.982   -1034.9178 
    5600    281.08358   -17443.026    81.272106   -17524.298   -11190.195 
    5800    306.25439   -17432.217    88.549959   -17520.767   -1104.8718 
    6000    289.96831   -17425.928    83.841023   -17509.769    1807.5226 
    6200    309.39725   -17445.534     89.45868   -17534.993    8482.4066 
    6400    302.19891   -17444.728    87.377361   -17532.105    6950.6282 
    6600    299.80103   -17439.598    86.684044   -17526.282   -7062.8543 
    6800    356.74902     -17412.1     103.1499    -17515.25     2493.545 
    7000    287.11156   -17436.637    83.015028   -17519.652    567.23787 
    7200    308.14126   -17447.907    89.095524   -17537.002   -4134.2427 
    7400    334.98705   -17433.824    96.857679   -17530.681   -6625.1272 
    7600    322.04709   -17431.992    93.116235   -17525.109    5415.7836 
    7800    279.04308   -17452.847     80.68212   -17533.529    6376.7592 
    8000    277.36964   -17432.518    80.198262   -17512.716    5666.2835 
    8200    313.70223    -17435.97    90.703416   -17526.674    7859.8829 
    8400    267.46856   -17452.016    77.335478   -17529.351    8929.8242 
    8600    305.24569   -17442.851    88.258303   -17531.109    7512.1248 
    8800    315.53065   -17432.336    91.232082   -17523.568   -1336.1309 
    9000    341.02393    -17428.96    98.603173   -17527.563    2816.9691 
    9200    273.02954   -17448.626    78.943371   -17527.569   -3682.2544 
    9400    297.41571   -17432.524    85.994355   -17518.518   -6281.3456 
    9600    274.71041   -17438.507    79.429376   -17517.937   -1268.3908 
    9800    319.14877   -17447.299    92.278221   -17539.577    4889.7282 
   10000    324.51235   -17427.961    93.829038   -17521.791    4535.3016 
   10200    312.39535   -17443.075    90.325546     -17533.4    4634.2244 
   10400    307.74309   -17448.171    88.980398   -17537.151    3227.6585 
   10600    315.21247   -17428.117    91.140083   -17519.257     2662.646 
   10800    294.02438   -17451.691     85.01379   -17536.704    8097.8858 
   11000    308.70895   -17451.078    89.259667   -17540.338     3398.905 
   11200    330.28462   -17428.538    95.498023   -17524.036    10259.805 
   11400    298.65216   -17434.245     86.35186   -17520.597    5899.2393 
   11600    295.78705   -17440.194    85.523446   -17525.717   -2140.3336 
   11800    264.85965   -17463.338    76.581141   -17539.919    2833.6124 
   12000    283.14491   -17449.635    81.868115   -17531.504    6633.3402 
   12200    294.80549   -17434.579     85.23964   -17519.819   -8307.6466 
   12400    298.09381   -17433.535    86.190421   -17519.726    9054.1322 
   12600     248.3275    -17460.35    71.801058   -17532.151   -2228.6535 
   12800    325.04572   -17439.623    93.983255   -17533.606    10458.182 
   13000    298.39479   -17437.012    86.277443    -17523.29    14718.537 
   13200    329.63826   -17419.894    95.311138   -17515.205    8715.0955 
   13400     303.9706   -17445.079    87.889627   -17532.969    1985.1141 
   13600     250.8846   -17449.001    72.540414   -17521.541    2931.2814 
   13800    336.29529   -17426.359     97.23594   -17523.595   -2570.3173 
   14000    311.40581   -17435.109    90.039432   -17525.149    4608.2289 
   14200    279.33824   -17450.003     80.76746    -17530.77   -1023.8881 
   14400     283.8654    -17449.93    82.076437   -17532.006    1126.2576 
   14600    302.60254   -17434.979    87.494068   -17522.474    8129.3439 
   14800    253.48605   -17449.567    73.292595    -17522.86    4684.6593 
   15000    277.53135   -17448.323     80.24502   -17528.568    4632.0225 
   15200    310.11771   -17429.314    89.666993   -17518.981    6919.5974 
   15400    268.37052   -17456.662    77.596269   -17534.259    2126.7968 
   15600    297.05729   -17444.719     85.89072   -17530.609   -6748.5671 
   15800    338.62239   -17432.322    97.908795    -17530.23    7041.4195 
   16000    270.43322   -17454.341    78.192676   -17532.534    8781.7565 
   16200      288.343   -17438.714    83.371084   -17522.085    2458.6174 
   16400    357.68411   -17430.067    103.42027   -17533.487    8327.1279 
   16600     270.7701   -17446.962     78.29008   -17525.252   -5060.4335 
   16800     278.6268   -17443.747    80.561757   -17524.309    5714.4453 
   17000    317.42782   -17412.777    91.780627   -17504.557   -8980.4739 
   17200    311.60434   -17427.118    90.096835   -17517.214   -10757.845 
   17400    299.81539   -17446.047    86.688195   -17532.735    2530.2079 
   17600    274.67595   -17446.103    79.419414   -17525.523   -9121.2239 
   17800    329.13785   -17429.504    95.166448    -17524.67   -47.229885 
   18000    288.30995    -17447.93    83.361528   -17531.291     1041.699 
   18200    230.96049   -17468.174    66.779587   -17534.953   -2025.7342 
   18400    290.93178   -17445.458    84.119599   -17529.578     -10134.5 
   18600    341.81568   -17432.261      98.8321   -17531.093   -4649.8554 
   18800    295.62324   -17449.117    85.476081   -17534.593   -9510.1838 
   19000    293.61485   -17439.904    84.895379   -17524.799   -3823.5342 
   19200    312.95562   -17435.471    90.487543   -17525.959   -745.05464 
   19400    286.23556   -17453.287    82.761742   -17536.049     6266.576 
   19600    292.09025   -17446.756    84.454558   -17531.211    2060.3593 
   19800    316.65412    -17423.72    91.556922   -17515.277    1233.1201 
   20000    304.67663   -17444.623    88.093768   -17532.717   -3537.1666 
   20200    303.27303   -17445.293    87.687932   -17532.981   -1432.9388 
   20400     301.8635   -17441.258    87.280383   -17528.539    12.073529 
   20600    276.19526   -17457.968    79.858704   -17537.827    277.22389 
   20800    313.65847   -17436.938    90.690764   -17527.629     2764.629 
   21000    346.07937   -17430.649     100.0649   -17530.714   -6833.2173 
   21200     275.9821    -17453.75    79.797072   -17533.547   -2832.7357 
   21400    302.81488   -17443.237    87.555462   -17530.793    -415.5969 
   21600    311.99351   -17427.934     90.20936   -17518.144    1789.1651 
   21800    318.19272   -17428.228     92.00179    -17520.23    9226.1487 
   22000    291.32232   -17446.201    84.232519   -17530.433    9546.6877 
   22200    329.93534   -17430.771    95.397034   -17526.168    6356.0813 
   22400    327.95729   -17429.142    94.825103   -17523.967   -1394.4047 
   22600    301.26974   -17444.625    87.108704   -17531.734    409.47023 
   22800    335.71623   -17423.871    97.068511    -17520.94   -1382.3975 
   23000    326.44931   -17440.146    94.389089   -17534.535   -2423.6399 
   23200    293.54138   -17442.335    84.874137   -17527.209    4437.0192 
   23400     319.5509   -17439.941    92.394493   -17532.335    3961.7096 
   23600    339.18919   -17424.479    98.072678   -17522.552    3016.6344 
   23800    299.07625    -17451.24    86.474482   -17537.714   -4692.7698 
   24000    283.44085    -17441.46    81.953685   -17523.414   -3319.8832 
   24200    355.68971   -17417.504    102.84362   -17520.348    3515.8695 
   24400    266.64671   -17439.105     77.09785   -17516.203    2851.0289 
   24600    272.28424   -17449.832    78.727879    -17528.56   -5334.6995 
   24800    334.29184   -17425.583    96.656667    -17522.24   -7363.0696 
   25000    296.28942   -17446.778    85.668702   -17532.447    4938.5744 
   25200    281.17308   -17443.199    81.297982   -17524.497     1615.128 
   25400    294.78287   -17441.097    85.233098    -17526.33    6421.9774 
   25600    310.18023   -17432.856    89.685069   -17522.541    3230.7985 
   25800    275.14392   -17455.267    79.554721   -17534.822   -6669.5146 
   26000    286.56184   -17442.744    82.856083     -17525.6   -5960.6129 
   26200     318.0069   -17440.887    91.948063   -17532.835    8272.4139 
   26400     298.7851   -17440.671    86.390298   -17527.061    7000.1983 
   26600    308.16727   -17432.795    89.103045   -17521.898    9361.9888 
   26800    297.41606   -17453.798    85.994457   -17539.793    9872.7332 
   27000    305.55628   -17448.548    88.348109   -17536.896    6385.8235 
   27200    310.04909   -17430.434    89.647151   -17520.081    12214.158 
   27400     283.3438   -17449.354    81.925621    -17531.28     7529.403 
   27600    281.72098   -17465.668    81.456403   -17547.124    7624.7424 
   27800    311.73535   -17438.055    90.134716    -17528.19    5999.2545 
   28000    294.00515   -17447.957    85.008229   -17532.965    967.26578 
   28200    293.52602   -17429.502    84.869694   -17514.372   -6471.3998 
   28400    298.45852    -17430.65    86.295872   -17516.946    1296.9628 
   28600    317.51348     -17442.7    91.805394   -17534.505   -5433.3216 
   28800    311.66451   -17436.409    90.114233   -17526.523    6802.4666 
   29000    336.04092   -17419.995    97.162391   -17517.158    2418.2843 
   29200    311.69632   -17435.402     90.12343   -17525.526     1208.608 
   29400    287.54608   -17446.325    83.140664   -17529.466   -895.69529 
   29600    309.40911   -17443.067     89.46211    -17532.53    610.76157 
   29800    311.99241   -17432.092     90.20904   -17522.301   -1795.2583 
   30000    299.55799   -17449.572    86.613769   -17536.186   -7600.0204 
   30200    335.58721    -17440.69    97.031207   -17537.721    5693.7092 
   30400    362.72477   -17433.372    104.87772    -17538.25   -3871.8214 
   30600    274.72663   -17451.006    79.434067    -17530.44   -7504.7913 
   30800     354.2439   -17422.103    102.42558   -17524.528    199.45465 
   31000    345.70599   -17436.333    99.956937    -17536.29   -3729.9963 
   31200    325.90897   -17447.493    94.232856   -17541.726    2677.2964 
   31400    334.96297    -17435.24    96.850716    -17532.09   -5280.4602 
   31600    321.06058    -17425.87       92.831   -17518.701   -9054.7623 
   31800    286.53158   -17447.954    82.847332   -17530.801   -7634.2778 
   32000    334.92206   -17430.756    96.838887   -17527.595   -7188.3272 
   32200      305.134   -17432.835     88.22601   -17521.061     475.2757 
   32400    301.47927   -17446.069    87.169287   -17533.239    1404.3917 
   32600    261.18162   -17462.877    75.517681   -17538.395   -5065.5308 
   32800    308.71868   -17436.171    89.262479   -17525.433    1333.9752 
   33000    317.52746   -17431.506    91.809436   -17523.315    4431.5267 
   33200    288.86133   -17459.748    83.520953   -17543.269    3282.3885 
   33400    294.52826   -17442.433    85.159481   -17527.593   -5037.5698 
   33600      278.989   -17445.978    80.666482   -17526.644   -2317.4849 
   33800    331.07336   -17435.869    95.726079   -17531.595    -5035.365 
   34000     319.2221   -17424.424    92.299423   -17516.723   -2619.7114 
   34200    329.95196   -17442.409     95.40184    -17537.81    5361.1455 
   34400    282.44847   -17448.799    81.666748   -17530.466    8566.7054 
   34600    341.17537   -17423.631     98.64696   -17522.278   -819.30968 
   34800    291.02895   -17441.823    84.147695    -17525.97   -466.34955 
   35000     322.6361   -17436.746    93.286541   -17530.033   -1621.5291 
   35200    286.29314   -17441.362    82.778391   -17524.141   -7417.0219 
   35400    300.84565   -17434.506    86.986083   -17521.492   -5949.0467 
   35600    300.91792   -17421.314    87.006979   -17508.321    5918.3852 
   35800    295.04668   -17444.133    85.309377   -17529.442   -2275.8787 
   36000     312.2218   -17445.613    90.275368   -17535.888    583.78835 
   36200    248.28147   -17460.993    71.787751    -17532.78    1272.0976 
   36400    295.55651    -17435.26    85.456788   -17520.717    8317.4323 
   36600    315.69662    -17446.88    91.280071    -17538.16    1430.3364 
   36800    269.61663   -17470.171    77.956567   -17548.127    7960.6969 
   37000    295.21514   -17450.065    85.358086   -17535.423     1837.644 
   37200    298.91945   -17438.749    86.429145   -17525.178     3982.394 
   37400    316.37893   -17440.834    91.477352   -17532.311    4108.1756 
   37600    296.82588   -17441.662    85.823812   -17527.485     4614.144 
   37800    296.41263   -17446.467    85.704325   -17532.171    3795.7184 
   38000    325.86231   -17434.597    94.219365   -17528.816     7575.846 
   38200    306.89937   -17437.382    88.736448   -17526.118    4989.9255 
   38400    289.24339   -17452.684    83.631423   -17536.315   -5937.1098 
   38600      313.877   -17426.271    90.753947   -17517.025    3925.2702 
   38800    333.48542   -17435.618    96.423498   -17532.041   -50.734868 
   39000    290.48087   -17447.289    83.989225   -17531.278   -1785.5706 
   39200    304.99229   -17425.386    88.185036   -17513.571    1614.2077 
   39400    289.93928    -17431.47    83.832631   -17515.302   -7676.5767 
   39600    261.42253   -17444.421    75.587339   -17520.008   -7105.6284 
   39800    322.87241   -17430.883    93.354867   -17524.238   -3983.0417 
   40000     284.8212   -17437.819    82.352796   -17520.172   -14794.355 
   40200    278.13734   -17443.428    80.420233   -17523.848   -6281.6451 
   40400    322.79375   -17444.148    93.332124    -17537.48   -7895.4714 
   40600    281.14472   -17444.578    81.289784   -17525.868    633.73864 
   40800    269.79596   -17437.358     78.00842   -17515.367   -1194.3833 
   41000    320.93426   -17433.972    92.794475   -17526.767    4823.9094 
   41200    273.60343   -17453.228    79.109305   -17532.337    5270.5881 
   41400    299.42055   -17430.265     86.57403   -17516.839    6657.5721 
   41600    291.70914   -17440.537    84.344364   -17524.882   -69.432413 
   41800     309.9007   -17451.085    89.604248   -17540.689   -5048.3408 
   42000    314.41881   -17442.398    90.910605   -17533.309    2448.2433 
   42200    320.51114   -17434.267    92.672133   -17526.939   -7803.2923 
   42400    267.09991   -17450.631    77.228886    -17527.86   -3891.1467 
   42600    320.35521   -17426.283    92.627049    -17518.91    10016.158 
   42800    269.84495   -17443.968    78.022585    -17521.99   -2820.6673 
   43000    320.13241   -17423.557    92.562628   -17516.119    14646.094 
   43200    294.64384   -17430.447    85.192901    -17515.64   -1608.2132 
   43400     274.3392   -17449.578    79.322046     -17528.9    -4252.481 
   43600     313.8535   -17445.674    90.747153   -17536.421   -542.43933 
   43800    307.61633   -17421.295    88.943747   -17510.239   -6390.1936 
   44000    305.10892   -17445.499    88.218758   -17533.717   -13451.437 
   44200    297.99012   -17437.412    86.160438   -17523.572   -754.52657 
   44400     281.1466   -17444.793    81.290328   -17526.084    195.63625 
   44600     262.6779    -17451.47    75.950313    -17527.42   -3371.0162 
   44800    305.83493   -17433.897    88.428676   -17522.326   -5104.2163 
   45000    295.63799   -17437.115    85.480347   -17522.595   -8853.5156 
   45200    244.51684   -17465.735    70.699251   -17536.435     -11371.4 
   45400    252.18697   -17455.404    72.916981   -17528.321   -2094.5536 
   45600    313.06231   -17435.323    90.518391   -17525.841    6776.4162 
   45800    333.05752   -17434.592    96.299776   -17530.892   -73.280445 
   46000    274.96923   -17459.189    79.504212   -17538.693   -5973.7544 
   46200    304.56489   -17446.717    88.061458   -17534.778   -2663.8002 
   46400    291.06963   -17438.785    84.159457   -17522.944    685.44623 
   46600    303.80212   -17417.985    87.840912   -17505.826    3810.0188 
   46800    310.97017   -17435.198    89.913471   -17525.111    5206.1224 
   47000    300.07159   -17449.835    86.762271   -17536.597    61.455294 
   47200    307.54249   -17445.906    88.922397   -17534.828    12371.563 
   47400    319.17831   -17428.377    92.286762   -17520.664    2588.1989 
   47600    305.38536   -17446.969    88.298687   -17535.267   -611.71835 
   47800    288.06184   -17453.026     83.28979   -17536.316     97.58248 
   48000    276.21862   -17428.104    79.865458   -17507.969   -6466.2043 
   48200    242.82342   -17449.905    70.209617   -17520.114    -2280.216 
   48400    298.59122   -17432.357    86.334239   -17518.691    1146.0502 
   48600    305.45157   -17428.459    88.317833   -17516.777   -2929.0186 
   48800    289.93069   -17451.293    83.830145   -17535.123   -1059.1089 
   49000    284.69406   -17441.791    82.316036   -17524.107    6342.1067 
   49200    314.15705    -17434.96    90.834923   -17525.795    2829.2484 
   49400    300.61433   -17450.335    86.919198   -17537.254   -4437.8275 
   49600    276.63475   -17454.579    79.985778   -17534.565   -2595.7796 
   49800    351.54358   -17431.748    101.64481   -17533.393    3129.7766 
   50000    310.55876   -17445.253    89.794518   -17535.048   -440.43864 
   50200    305.30454   -17441.306     88.27532   -17529.581   -353.50702 
   50400     303.6841    -17429.38    87.806787   -17517.187    8475.9645 
   50600    296.13846   -17451.149    85.625051   -17536.774    10312.005 
   50800    284.43902    -17439.64    82.242291   -17521.883    4706.0606 
   51000    332.12727    -17425.65    96.030806   -17521.681    3365.2732 
   51200    261.50957   -17446.036    75.612505   -17521.649    1289.0421 
   51400    277.81183   -17441.957    80.326116   -17522.283    2583.9833 
   51600    357.12528   -17410.596    103.25869   -17513.855    754.53919 
   51800    283.22016   -17431.955    81.889873   -17513.845     5466.226 
   52000    309.42607   -17447.385    89.467013   -17536.852   -174.21743 
   52200    313.16577   -17449.684    90.548306   -17540.233    3547.6723 
   52400    343.84033   -17430.052    99.417502   -17529.469   -2832.9574 
   52600    321.50845   -17444.829    92.960494   -17537.789   -2707.5117 
   52800    291.42039   -17440.074    84.260876   -17524.335   -5896.2037 
   53000    342.76324   -17415.459    99.106075   -17514.565    561.81776 
   53200    293.13808   -17446.585    84.757528   -17531.342    2688.5502 
   53400    322.93233   -17435.482    93.372195   -17528.854    3133.7048 
   53600    323.64108   -17434.523    93.577121   -17528.101   -222.66256 
   53800    302.94367   -17444.059    87.592702   -17531.652     -13517.1 
   54000    334.95891   -17428.961    96.849541    -17525.81   -1418.4572 
   54200    292.96087   -17436.874    84.706289   -17521.581    2665.3358 
   54400    281.29873   -17447.399    81.334314   -17528.734   -3352.0333 
   54600    323.73731   -17420.614    93.604945   -17514.219    2194.6512 
   54800    289.96066   -17438.462    83.838811   -17522.301    11634.765 
   55000    287.80274    -17439.55    83.214874   -17522.765    5658.4037 
   55200    319.16236   -17424.438    92.282149    -17516.72    2295.2315 
   55400    292.62195   -17445.984    84.608293   -17530.592   -84.630754 
   55600    302.50584   -17446.919    87.466107   -17534.386    9978.4118 
   55800    301.65948   -17425.445    87.221393   -17512.667    2951.8495 
   56000    320.82557   -17439.898    92.763048   -17532.661   -9492.5243 
   56200    309.77035   -17447.998    89.566556   -17537.564   -128.92344 
   56400    234.78688   -17470.019    67.885944   -17537.905    5055.4031 
   56600    295.67962   -17444.839    85.492385   -17530.332    4289.1673 
   56800    300.20418   -17434.613    86.800608   -17521.414    17926.351 
   57000     268.0968   -17452.606    77.517126   -17530.123    6650.2789 
   57200    300.52482   -17428.649    86.893317   -17515.542    3641.5597 
   57400    300.81357   -17440.858    86.976806   -17527.835   -1460.2215 
   57600    279.44125   -17446.095    80.797245   -17526.892    -165.5408 
   57800    304.76582    -17434.03    88.119554    -17522.15    7354.6085 
   58000    287.53488   -17443.917    83.137424   -17527.055    6119.5862 
   58200    318.52625   -17430.971    92.098226   -17523.069   -3444.4645 
   58400    324.84451   -17419.679    93.925079   -17513.604    9634.4321 
   58600    291.90108   -17443.374    84.399863   -17527.774   -1209.6757 
   58800    317.90636   -17439.212    91.918992   -17531.131   -441.70528 
   59000    342.07202   -17435.833    98.906216   -17534.739    4606.6428 
   59200    274.67266   -17456.371    79.418462   -17535.789    487.66636 
   59400    306.63653   -17435.635    88.660449   -17524.296    -3428.201 
   59600    316.89726   -17436.648    91.627224   -17528.275     140.9267 
   59800     277.5906   -17446.857    80.262151   -17527.119   -5673.3386 
   60000    338.73006   -17413.559    97.939927   -17511.499   -4621.9764 
   60200    312.73523   -17434.983     90.42382   -17525.407    8300.9019 
   60400    321.08122   -17434.802    92.836965   -17527.639   -1321.9439 
   60600    259.64375   -17452.821    75.073025   -17527.894   -402.66227 
   60800    303.66911   -17436.507    87.802452    -17524.31   -6245.9822 
   61000    284.35376   -17430.766    82.217641   -17512.983   -7210.1351 
   61200    260.17385   -17448.617    75.226295   -17523.843   -4202.5756 
   61400    336.27892   -17423.286    97.231208   -17520.517   -1925.6337 
   61600    323.70953   -17440.603    93.596912     -17534.2   -3238.2883 
   61800    261.14203   -17444.369    75.506234   -17519.875   -1945.8187 
   62000    325.43271   -17423.869    94.095151   -17517.964    704.43098 
   62200    273.11375   -17437.029    78.967719   -17515.997   -1049.2039 
   62400    288.94841   -17448.569    83.546132   -17532.115   -10348.592 
   62600    297.31857   -17439.278    85.966268   -17525.244   -9752.7552 
   62800    301.32841   -17434.699    87.125666   -17521.825   -8224.0432 
   63000     275.3221   -17446.052    79.606241   -17525.658   -7166.2011 
   63200    342.65283   -17418.224    99.074151   -17517.298    4728.3111 
   63400    281.12019   -17437.935    81.282691   -17519.217     8424.702 
   63600    315.39069   -17437.842    91.191615   -17529.033    403.70604 
   63800    370.68613   -17416.783    107.17966   -17523.963   -6067.3365 
   64000    310.99319   -17440.739    89.920129    -17530.66   -3711.0276 
   64200    286.39578   -17441.479    82.808068   -17524.287   -6984.6491 
   64400    286.64504    -17416.12    82.880137       -17499    4359.8762 
   64600    295.23091   -17441.712    85.362645   -17527.075   -2282.5333 
   64800    236.25816    -17454.25    68.311347   -17522.561     -6054.62 
   65000    284.37425   -17433.026    82.223566   -17515.249   -6408.0943 
   65200    300.16797    -17441.48     86.79014    -17528.27    8781.8761 
   65400    230.47545   -17470.164    66.639343   -17536.803      2547.97 
   65600     270.3236    -17452.58    78.160979   -17530.741    -7190.589 
   65800    284.88004   -17435.091    82.369808   -17517.461    11786.453 
   66000    313.31026     -17436.8    90.590082    -17527.39    4911.0382 
   66200    273.74654   -17455.385    79.150684   -17534.536   -5510.3146 
   66400     336.6192   -17433.321    97.329597    -17530.65    135.53041 
   66600    248.45575    -17446.25    71.838142   -17518.088    3255.4399 
   66800     310.8056   -17431.676    89.865889   -17521.542    2701.9915 
   67000    337.82215   -17424.433    97.677414    -17522.11   -2868.6626 
   67200    295.28257   -17450.414    85.377582   -17535.791   -4124.0931 
   67400    288.49659   -17443.508    83.415494   -17526.924    3989.4226 
   67600    309.80526   -17427.461    89.576651   -17517.038    5094.9862 
   67800    312.33799    -17442.45    90.308961   -17532.759    3770.4912 
   68000    291.11306   -17457.316    84.172016   -17541.488     1568.679 
   68200    282.80348   -17457.773    81.769394   -17539.543   -58.343229 
   68400    332.07016    -17439.66    96.014293   -17535.674    4953.1923 
   68600    311.34534    -17430.69    90.021947   -17520.712   -7260.9554 
   68800    313.69994   -17435.243    90.702753   -17525.946     4349.465 
   69000    291.26589   -17454.097    84.216205   -17538.313   -2358.8259 
   69200     327.7259   -17431.423    94.758199   -17526.181    8144.0905 
   69400    298.46901   -17431.116    86.298904   -17517.415    10334.647 
   69600    307.36973   -17440.976    88.872444   -17529.848    4358.3853 
   69800     293.1758   -17444.322    84.768433    -17529.09     2960.666 
   70000    268.97104   -17443.749    77.769902   -17521.519   -703.37968 
   70200    275.98789   -17433.871    79.798745   -17513.669   -3013.9521 
   70400    296.34588   -17441.139    85.685026   -17526.824   -7362.3182 
   70600    287.08891   -17447.383    83.008477   -17530.391    334.48965 
   70800    284.88964   -17433.155    82.372585   -17515.527    1718.1086 
   71000    267.41305   -17427.387    77.319428   -17504.707    8232.9787 
   71200    254.67838   -17451.159    73.637343   -17524.796   -1205.3906 
   71400    315.66942   -17434.606    91.272207   -17525.878    9589.1488 
   71600    292.71186    -17440.64     84.63429   -17525.275     63.84633 
   71800    275.38564   -17450.958    79.624611   -17530.582     5405.558 
   72000    297.77532   -17450.603     86.09833   -17536.702   -1562.2698 
   72200    306.47868   -17435.698     88.61481   -17524.312   -3563.8895 
   72400      277.672   -17454.398    80.285688   -17534.683     2273.852 
   72600    295.29084    -17439.04    85.379973    -17524.42   -4482.6191 
   72800    301.81765   -17433.344    87.267124   -17520.611   -3755.7096 
   73000    287.04078    -17452.46    82.994561   -17535.455   -1689.5748 
   73200    260.00226   -17465.236    75.176684   -17540.413    1453.6908 
   73400    283.29747   -17440.636    81.912226   -17522.548   -489.02427 
   73600     295.0022   -17434.921    85.296515   -17520.218     8707.152 
   73800    307.43259   -17451.286    88.890621   -17540.177    8822.6006 
   74000     327.5868   -17424.538     94.71798   -17519.256   -10731.936 
   74200    256.92032   -17444.919    74.285576   -17519.205   -3283.9993 
   74400    306.86105   -17439.217    88.725367   -17527.943   -6682.3404 
   74600    317.67895   -17407.799    91.853238   -17499.652   -3748.2339 
   74800    351.19764   -17434.099    101.54479   -17535.644   -9917.1726 
   75000    273.55099   -17446.434    79.094143   -17525.528   -5125.9712 
   75200    343.36874   -17424.845    99.281149   -17524.126    6341.9626 
   75400    362.91762    -17409.08    104.93348   -17514.013    3732.6906 
   75600    304.01686   -17436.759    87.903003   -17524.662    1002.1811 
   75800    293.49532   -17456.691    84.860818   -17541.552    3456.1986 
   76000    320.01794   -17439.914     92.52953   -17532.443    864.21457 
   76200    300.59769    -17440.78    86.914389   -17527.694    1424.4275 
   76400    303.28748   -17439.626    87.692111   -17527.318    5862.9578 
   76600    277.84205   -17449.407    80.334853   -17529.742    2790.2134 
   76800    302.56746   -17435.483    87.483925   -17522.967   -2636.9709 
   77000    330.60152    -17432.05    95.589652   -17527.639    1337.2685 
   77200    324.05511   -17441.937    93.696832   -17535.634    10044.336 
   77400    277.43726   -17450.978    80.217814   -17531.196    4133.6944 
   77600    286.61006   -17458.077    82.870023   -17540.947   -7252.1708 
   77800    322.85893   -17435.839     93.35097    -17529.19   -3380.4177 
   78000    276.38917   -17448.823     79.91477   -17528.738    -1602.389 
   78200    319.54992   -17444.142    92.394208   -17536.536   -2461.7408 
   78400    308.23632   -17425.213    89.123009   -17514.336   -5248.2734 
   78600     315.1686   -17442.201    91.127401   -17533.328     3141.781 
   78800    291.54618    -17449.72    84.297247   -17534.017    7770.5105 
   79000    347.22397   -17425.488    100.39584   -17525.883   -144.77892 
   79200    257.60975    -17437.58    74.484917   -17512.065   -2873.1981 
   79400    271.80483    -17436.12     78.58926   -17514.709    1259.1634 
   79600    284.57939   -17436.783     82.28288   -17519.066    5607.7301 
   79800     291.2241   -17448.405    84.204121   -17532.609   -868.87288 
   80000    293.25735   -17434.233    84.792011   -17519.025   -10295.041 
   80200    307.69147   -17427.358    88.965473   -17516.323    1547.8218 
   80400    298.60515   -17449.636    86.338269   -17535.974    570.89908 
   80600    309.82826   -17439.008    89.583302   -17528.592   -7217.5323 
   80800    318.06624   -17432.781    91.965218   -17524.746   -8128.1509 
   81000    275.24828    -17454.46    79.584896   -17534.045   -1429.8896 
   81200    311.13959   -17434.695    89.962457   -17524.657    -3606.066 
   81400    304.66542   -17440.011    88.090525   -17528.102   -3197.5266 
   81600    281.04829   -17441.681    81.261902   -17522.943   -1683.8933 
   81800    280.22454   -17441.548    81.023725   -17522.572    362.70882 
   82000    277.36326   -17437.813    80.196417   -17518.009    -11778.61 
   82200    270.14068   -17451.896    78.108093   -17530.004   -5122.7883 
   82400    282.90308   -17443.867    81.798195   -17525.665   -8595.0436 
   82600    327.16089   -17433.999    94.594833   -17528.594   -10627.634 
   82800    288.05871   -17448.694    83.288884   -17531.983   -15708.531 
   83000    294.74046   -17430.849    85.220836    -17516.07   -7234.0034 
   83200     302.9706   -17431.845    87.600489   -17519.445     1099.811 
   83400    276.15563   -17444.378    79.847246   -17524.225    8714.9008 
   83600    285.07565   -17436.285    82.426368   -17518.711   -860.30309 
   83800    311.35323   -17430.592    90.024231   -17520.616    3126.6161 
   84000    312.78009    -17448.43     90.43679   -17538.867    1526.7596 
   84200    303.41326   -17423.448    87.728479   -17511.177    1014.8732 
   84400    286.43091   -17425.411    82.818224    -17508.23    5043.6932 
   84600    278.73186   -17446.789    80.592131   -17527.381     1245.598 
   84800    310.29152   -17438.414    89.717247   -17528.131     5079.309 
   85000    312.42994   -17420.823    90.335546   -17511.159    12004.778 
   85200    299.10965   -17432.823    86.484139   -17519.307    7398.2309 
   85400    318.71594    -17436.48    92.153074   -17528.633   -3215.9828 
   85600    297.87968     -17454.5    86.128508   -17540.629    788.06096 
   85800    334.11126   -17429.406    96.604454   -17526.011    3639.4122 
   86000    294.63872   -17441.384     85.19142   -17526.575    8070.7778 
   86200    293.20019   -17445.744    84.775484   -17530.519   -320.15759 
   86400    306.80727   -17423.144    88.709818   -17511.853    3542.6798 
   86600    297.01105   -17444.017    85.877352   -17529.895   -3967.0154 
   86800     325.2378   -17440.857    94.038793   -17534.895    6023.3206 
   87000    357.94599    -17427.92    103.49599   -17531.416    8940.6558 
   87200    307.33494   -17440.453    88.862386   -17529.316     2228.888 
   87400    268.29249   -17451.311    77.573708   -17528.885     5004.481 
   87600    321.71518   -17423.155    93.020267   -17516.175    4447.9173 
   87800    315.91755   -17436.944    91.343951   -17528.288    1993.1556 
   88000    277.45142   -17448.147    80.221908   -17528.369    2729.6943 
   88200    334.08232   -17422.109    96.596087   -17518.705    1752.5869 
   88400    329.54729   -17433.443    95.284833   -17528.728    4858.6492 
   88600    301.84433   -17439.973     87.27484   -17527.248    10731.733 
   88800    286.86614   -17448.147    82.944066   -17531.091   -91.237213 
   89000    304.10663   -17439.785    87.928957   -17527.714    1898.9686 
   89200    308.14117   -17434.139    89.095499   -17523.234   -1637.9606 
   89400    270.48124   -17447.523    78.206559    -17525.73    2604.0286 
   89600    303.22147   -17442.046    87.673024   -17529.719    2018.7198 
   89800    328.49049   -17428.316    94.979272   -17523.295    3213.1083 
   90000    339.18971   -17428.426    98.072829   -17526.499    4544.0521 
   90200     258.9783   -17446.078    74.880617   -17520.959     3769.801 
   90400    344.43795    -17432.43    99.590297    -17532.02   -8866.0345 
   90600    322.53484   -17433.053    93.257264   -17526.311   -10008.673 
   90800    294.38024    -17443.49    85.116683   -17528.607   -3476.7539 
   91000    303.25832   -17442.223    87.683677   -17529.906   -662.08303 
   91200    312.75928   -17434.441    90.430772   -17524.872   -1241.3871 
   91400     284.9348   -17449.207    82.385643   -17531.593    4264.3025 
   91600    250.89512   -17456.886    72.543458    -17529.43    9663.2725 
   91800    330.10281   -17430.561    95.445457   -17526.007   -1604.3105 
   92000    280.68588   -17439.031    81.157114   -17520.189   -5101.2514 
   92200    263.22262    -17457.58    76.107813   -17533.688   -12918.891 
   92400    295.14278   -17439.794    85.337164   -17525.131    5234.2883 
   92600     275.8655   -17443.329    79.763358   -17523.092    10921.817 
   92800     280.1652   -17444.293    81.006567   -17525.299   -782.01521 
   93000    294.36625   -17432.474    85.112638   -17517.586   -7091.9352 
   93200     288.9054   -17452.892    83.533695   -17536.425   -11534.828 
   93400    325.60706   -17442.072     94.14556   -17536.218    1344.3208 
   93600    331.34401   -17428.366    95.804334    -17524.17    6462.3523 
   93800    302.73281   -17451.757    87.531734   -17539.289   -7771.7648 
   94000     287.4916   -17445.206    83.124913    -17528.33    3490.2721 
   94200    281.23974   -17440.116    81.317257   -17521.434   -6946.8122 
   94400    306.52086   -17435.745    88.627005   -17524.372    3594.2593 
   94600     366.4762    -17434.72    105.96241   -17540.683   -40.580027 
   94800    287.58968   -17447.732    83.153269   -17530.885    8765.7143 
   95000    287.07148   -17433.456    83.003438    -17516.46   -2859.3492 
   95200    333.75212   -17420.233    96.500613   -17516.733   -7068.9138 
   95400    279.13032   -17440.888    80.707343   -17521.595   -2117.9738 
   95600    275.85636   -17447.594    79.760715   -17527.355    8929.4795 
   95800    349.52632   -17428.008    101.06154   -17529.069     3928.637 
   96000    302.05181   -17441.102    87.334829   -17528.437    2248.0285 
   96200    267.44542   -17456.784    77.328789   -17534.112    1280.2176 
   96400    305.86298   -17439.732    88.436785   -17528.168    10212.843 
   96600    310.63461   -17439.893    89.816449   -17529.709   -190.24907 
   96800    272.14659   -17442.597    78.688076   -17521.286   -1728.4611 
   97000    322.06408   -17445.178     93.12115   -17538.299    301.45385 
   97200    306.58156   -17429.957    88.644556   -17518.602   -2821.7428 
   97400    277.81311   -17434.513    80.326488    -17514.84   -4141.8445 
   97600    306.49799   -17443.804    88.620391   -17532.424   -3342.9807 
   97800    284.04836   -17448.033    82.129339   -17530.163   -1477.2536 
   98000    276.15714   -17450.899    79.847682   -17530.747    1515.5446 
   98200    330.32648   -17428.868    95.510127   -17524.378   -11184.334 
   98400    325.22383   -17426.865    94.034754     -17520.9    6736.2963 
   98600    300.11513   -17454.104     86.77486   -17540.879   -1979.5158 
   98800    304.43495   -17437.351    88.023888   -17525.375   -4234.2976 
   99000    280.73708   -17439.406     81.17192   -17520.578   -2291.9501 
   99200    334.83018   -17413.073     96.81232   -17509.885    4052.2996 
   99400    322.06391    -17432.79      93.1211   -17525.911    8694.4243 
   99600    277.26177   -17446.985    80.167072   -17527.152   -2582.6626 
   99800    274.75793   -17448.253    79.443116   -17527.696    4643.7908 
  100000    301.54792   -17436.456    87.189135   -17523.645   -1361.9951 
  100200    268.05308   -17441.461    77.504486   -17518.966   -1160.1274 
  100400    263.75863   -17468.354    76.262795   -17544.617    17589.715 
  100600    277.70875   -17451.334    80.296313   -17531.631     2712.741 
  100800    275.38804   -17434.256    79.625306   -17513.881     -3336.55 
  101000    313.42691   -17437.991    90.623811   -17528.615    105.86774 
  101200    288.83901   -17444.637      83.5145   -17528.152   -14646.951 
  101400    328.46442   -17433.473    94.971735   -17528.445   -8368.3011 
  101600    264.64402   -17456.729    76.518794   -17533.248    4855.0788 
  101800    307.45209    -17453.65    88.896258   -17542.546    6022.7805 
  102000     346.1978   -17433.172    100.09914   -17533.272    6979.3145 
  102200    299.52904   -17448.112      86.6054   -17534.718     5408.557 
  102400    284.41258   -17446.883    82.234649   -17529.118   -5691.6639 
  102600    347.87668   -17432.638    100.58457   -17533.222    -1096.766 
  102800    312.31972   -17447.479    90.303678   -17537.783    880.99943 
  103000    260.57668     -17460.2    75.342769   -17535.542   -4278.8572 
  103200    319.59919   -17431.975    92.408454   -17524.383   -3915.1183 
  103400     309.6697   -17444.705    89.537456   -17534.242    3784.6622 
  103600    302.79362   -17451.688    87.549316   -17539.237    5775.1568 
  103800    289.90027   -17432.049    83.821351    -17515.87    5241.0195 
  104000      332.634   -17415.002    96.177319   -17511.179   -1908.5249 
  104200    315.06757   -17443.832    91.098188    -17534.93    4545.0472 
  104400    324.46402   -17438.126    93.815064   -17531.941    448.73947 
  104600    260.83614   -17443.014     75.41779   -17518.432    6330.5639 
  104800     331.8927   -17437.287    95.962984    -17533.25    1426.7422 
  105000    333.96176    -17421.02    96.561227   -17517.582    4745.2207 
  105200    281.20616   -17447.043    81.307547    -17528.35    -326.6081 
  105400    278.24331   -17450.412    80.450874   -17530.863    9259.3891 
  105600     328.2275   -17422.979    94.903233   -17517.882    10530.356 
  105800    316.75747   -17439.183    91.586804   -17530.769    -5746.659 
  106000    299.36329   -17446.465    86.557475   -17533.023   -4441.6051 
  106200    309.03536   -17443.171    89.354045   -17532.525   -2580.8375 
  106400    285.51879   -17441.298    82.554495   -17523.852    -383.5001 
  106600     324.1354   -17425.514    93.720046   -17519.234    6071.1664 
  106800    297.88129   -17448.829    86.128972   -17534.957    5647.1917 
  107000    286.16096   -17454.173    82.740172   -17536.913    3806.4604 
  107200    320.84371   -17432.611    92.768292   -17525.379    7987.9796 
  107400    296.73997   -17442.287    85.798972   -17528.086     8557.319 
  107600    260.24927   -17458.966    75.248103   -17534.214   -3530.9719 
  107800    284.12477   -17437.177    82.151432   -17519.329   -17801.311 
  108000    329.16604    -17432.17      95.1746   -17527.344   -6083.9663 
  108200    275.67157   -17446.608    79.707285   -17526.315    3143.6911 
  108400       251.57   -17464.517    72.738591   -17537.255   -3146.6161 
  108600    305.74998   -17440.351    88.404113   -17528.755   -12325.523 
  108800    301.57697   -17438.154    87.197535   -17525.352   -6686.1389 
  109000    300.73509   -17453.095    86.954115   -17540.049   -5184.9405 
  109200    312.40603   -17441.878    90.328634   -17532.207     1906.135 
  109400    270.57653   -17431.187    78.234111   -17509.421   -240.91736 
  109600    287.21007   -17454.084    83.043512   -17537.128   -4777.6638 
  109800     284.5156   -17436.839    82.264435   -17519.103    -8652.215 
  110000    319.44924   -17433.299    92.365098   -17525.664   -7008.5858 
  110200    274.43058   -17449.749    79.348468   -17529.097   -2764.2471 
  110400    306.46022   -17435.208     88.60947   -17523.818   -2354.9262 
  110600    273.35031    -17438.73    79.036118   -17517.767    3477.7399 
  110800    273.90645   -17462.456    79.196922   -17541.653   -5172.8881 
  111000    333.66051   -17442.528    96.474125   -17539.002    4284.7308 
  111200    293.17536   -17442.585    84.768305   -17527.354    12157.785 
  111400    332.52712   -17420.278    96.146417   -17516.424    1729.1822 
  111600    264.27005   -17442.882    76.410667   -17519.293    5517.0052 
  111800    272.87897   -17453.028    78.899837   -17531.928   -6776.1533 
  112000    306.42037   -17428.023    88.597951   -17516.621   -6060.2459 
  112200    299.91695   -17440.223     86.71756    -17526.94    3341.7591 
  112400    345.14865    -17435.37    99.795789   -17535.166    1132.4277 
  112600    283.94432     -17433.6    82.099255     -17515.7    -12850.38 
  112800    279.31987    -17449.05    80.762148   -17529.812   -5196.1635 
  113000    326.54642   -17420.834    94.417165   -17515.251   -2237.2386 
  113200    295.89892   -17433.655    85.555791   -17519.211   -4962.1174 
  113400    330.86058   -17453.512    95.664557   -17549.177    1654.8269 
  113600    313.62169   -17438.664    90.680127   -17529.344   -604.40893 
  113800    276.76482   -17434.392    80.023386   -17514.416   -3039.2959 
  114000    265.77977   -17448.577    76.847184   -17525.424   -1971.5477 
  114200    299.15113   -17438.675    86.496131   -17525.171    1398.3978 
  114400    312.29669   -17437.723     90.29702    -17528.02    9720.0688 
  114600    285.35149   -17452.836    82.506124   -17535.342   -13051.406 
  114800    285.60739   -17440.133    82.580114   -17522.713   -13190.537 
  115000    308.54696    -17441.85    89.212829   -17531.062   -4620.0584 
  115200    290.19584   -17444.561    83.906813   -17528.467    1001.5257 
  115400    263.13757   -17444.508    76.083223   -17520.591   -4430.4934 
  115600    279.97067   -17431.713     80.95032   -17512.663    2796.3903 
  115800     314.3201   -17444.754    90.882065   -17535.636    3649.7592 
  116000      288.736   -17453.222    83.484716   -17536.706     7755.636 
  116200    315.89082   -17439.241     91.33622   -17530.577   -1063.4279 
  116400     274.3063   -17442.634    79.312533   -17521.946   -3526.1257 
  116600    294.95111   -17438.812    85.281743   -17524.094    1253.3614 
  116800    292.95635   -17438.997     84.70498   -17523.702    7191.3522 
  117000    289.25918   -17452.102    83.635987   -17535.738    1995.1195 
  117200    273.21335   -17444.433     78.99652    -17523.43    686.65828 
  117400    333.23203   -17431.062    96.350235   -17527.412   -6562.7658 
  117600    269.26677   -17451.861     77.85541   -17529.716   -6730.7182 
  117800    236.34889   -17467.936    68.337582   -17536.273     10148.21 
  118000     322.6909   -17440.627    93.302387    -17533.93     3858.576 
  118200    304.25251    -17436.11    87.971136   -17524.081    7793.6965 
  118400    331.20385   -17427.697    95.763808    -17523.46   -380.16415 
  118600    263.41412   -17447.263    76.163184   -17523.426   -4725.5155 
  118800    276.18128   -17442.042     79.85466   -17521.896   -6410.3462 
  119000    310.01018   -17426.816    89.635901   -17516.452   -518.15425 
  119200    310.36225   -17444.263      89.7377       -17534    1607.1245 
  119400     318.6111   -17443.512     92.12276   -17535.635    2912.3273 
  119600     325.7905   -17422.335    94.198601   -17516.534    1903.5464 
  119800    312.65459    -17440.34    90.400503   -17530.741   -534.22098 
  120000    285.63748   -17440.735    82.588814   -17523.324      10481.5 
  120200    309.37669   -17441.294    89.452736   -17530.747    6301.5667 
  120400    280.65166   -17452.375    81.147221   -17533.523    4619.7345 
  120600    296.13635   -17438.515    85.624441   -17524.139    13966.757 
  120800    290.89087   -17443.515    84.107772   -17527.623   -6271.3436 
  121000    278.19877   -17461.656    80.437997   -17542.094    7192.7832 
  121200    258.76783   -17432.341     74.81976    -17507.16    3937.9982 
  121400    315.80296   -17435.645    91.310818   -17526.955    5788.9563 
  121600     289.0257   -17452.882     83.56848    -17536.45    3173.6989 
  121800    320.74358   -17424.313    92.739342   -17517.052    5513.0785 
  122000    315.69891   -17435.776    91.280733   -17527.057   -5970.7463 
  122200    315.42304   -17448.889    91.200967    -17540.09   -2579.9179 
  122400    359.90345   -17423.015    104.06197   -17527.077    8864.3603 
  122600    304.84345   -17441.843    88.142001   -17529.985   -2099.1143 
  122800    272.49259   -17437.369    78.788119   -17516.157   -6037.7819 
  123000    352.02914    -17410.89     101.7852   -17512.675   -2610.9817 
  123200     304.3947   -17431.188    88.012251     -17519.2   -2950.0455 
  123400    288.70753   -17443.082    83.476483   -17526.559    1348.0954 
  123600    265.71548   -17451.964    76.828595   -17528.793     -1471.48 
  123800    332.57521   -17430.544    96.160323   -17526.704    5737.2117 
  124000     277.3149   -17451.571    80.182434   -17531.754    10400.655 
  124200    294.16442    -17433.28    85.054282   -17518.334    8880.3096 
  124400    301.16496    -17429.83    87.078409   -17516.908    4905.8467 
  124600    321.26057   -17447.283    92.888824   -17540.172   -4590.7387 
  124800    281.76642   -17450.224    81.469541   -17531.693   -10900.025 
  125000    345.39623   -17426.209    99.867374   -17526.076   -12710.031 
  125200     280.2996    -17444.57    81.045428   -17525.616   -468.38428 
  125400    276.09668   -17439.315      79.8302   -17519.145   -3484.3477 
  125600    307.99853   -17434.635    89.054257    -17523.69    6270.3663 
  125800    284.58336   -17452.193    82.284028   -17534.477    7909.8687 
  126000    306.80123   -17440.213    88.708072   -17528.921   -5540.2184 
  126200    320.10003    -17433.18    92.553267   -17525.733    2679.8745 
  126400    278.18512   -17444.086     80.43405    -17524.52   -4562.3238 
  126600    315.84602   -17434.456    91.323268   -17525.779    2498.0889 
  126800    324.46826   -17442.037    93.816291   -17535.853    -94.10381 
  127000    300.49718   -17438.616    86.885327   -17525.501    2405.8381 
  127200    284.41116   -17435.987    82.234237   -17518.221    2729.8745 
  127400    331.92156   -17429.015    95.971327   -17524.987   -5549.6596 
  127600    324.57132   -17451.505    93.846088   -17545.351   -1861.4689 
  127800     316.2099   -17444.388    91.428479   -17535.817     1539.308 
  128000    331.21485   -17433.544     95.76699   -17529.311    12042.612 
  128200    287.13341   -17447.689    83.021344    -17530.71   -8902.5367 
  128400    267.11701   -17451.403    77.233831   -17528.637    3712.4271 
  128600    312.68482   -17429.018    90.409242   -17519.427    3351.0558 
  128800    235.13216   -17449.622    67.985778   -17517.608    4645.1523 
  129000    283.20843   -17443.588    81.886482   -17525.475   -10437.026 
  129200    294.37256   -17436.117    85.114461   -17521.232   -4788.3316 
  129400    310.03768   -17436.713    89.643854   -17526.357    5808.6521 
  129600    309.09118   -17444.837    89.370182   -17534.207    3530.6052 
  129800    326.06885   -17423.145    94.279083   -17517.424    3683.4327 
  130000    301.89265   -17446.811     87.28881     -17534.1    -4407.121 
  130200    307.05076   -17447.766    88.780218   -17536.546    673.50341 
  130400    305.26033   -17431.624    88.262537   -17519.887   -461.06521 
  130600    300.00717   -17453.879    86.743646   -17540.622   -7128.3925 
  130800    258.08107   -17450.413    74.621193   -17525.034   -2333.3317 
  131000    286.93537    -17437.56    82.964084   -17520.525    672.76372 
  131200    301.94325    -17450.72    87.303441   -17538.023   -5483.9198 
  131400    328.63495   -17440.428    95.021041   -17535.449   -2676.6421 
  131600    281.94545   -17438.697    81.521306   -17520.219   -2558.6528 
  131800    313.04177   -17445.552    90.512451   -17536.065    2298.8976 
  132000      312.004   -17439.017    90.212391   -17529.229    8229.7049 
  132200    270.06128   -17442.551    78.085132   -17520.636    9303.1007 
  132400    281.56026   -17457.029    81.409934   -17538.439    711.99199 
  132600     323.3233   -17429.718    93.485237   -17523.203    3253.8553 
  132800    283.05754   -17443.992    81.842853   -17525.835   -4417.5867 
  133000    287.61323   -17456.151    83.160079   -17539.312   -6391.3277 
  133200    293.23205   -17433.411    84.784697   -17518.196   -12775.595 
  133400    334.73125   -17429.548    96.783716   -17526.332   -3670.6223 
  133600    301.52649   -17451.909     87.18294   -17539.091    5878.2716 
  133800    321.09042   -17433.329    92.839626   -17526.169    1190.4355 
  134000    304.83572   -17447.633    88.139765   -17535.773    10298.385 
  134200    308.75065   -17444.949    89.271722   -17534.221   -3470.2984 
  134400    326.62867   -17434.552    94.440947   -17528.993   -1646.8478 
  134600    267.20654   -17456.666    77.259718   -17533.926   -7153.7518 
  134800    304.72106   -17444.103    88.106612    -17532.21   -2379.0224 
  135000    291.28743   -17437.067    84.222432    -17521.29   -1526.0333 
  135200    297.36053   -17429.113    85.978399   -17515.092   -14323.128 
  135400    265.38079   -17453.648    76.731823    -17530.38   -7734.3967 
  135600    298.68036   -17433.358    86.360013   -17519.718   -7814.0749 
  135800    304.88862   -17434.004    88.155062   -17522.159   -6678.2361 
  136000    311.43218   -17443.131    90.047056   -17533.178   -2702.8978 
  136200    258.78055   -17466.453    74.823441   -17541.276     6785.648 
  136400    297.68936   -17446.371    86.073478   -17532.445   -336.33275 
  136600    298.19728   -17432.538    86.220336   -17518.758    5608.8198 
  136800    298.97934   -17447.072    86.446459   -17533.519    2778.7403 
  137000    304.76702   -17447.637    88.119903   -17535.757   -96.199281 
  137200    337.45222   -17427.112    97.570454   -17524.683    5179.0172 
  137400    288.73017   -17441.273    83.483031   -17524.756    3286.2848 
  137600    313.81903   -17447.273    90.737187    -17538.01    2784.6532 
  137800    261.97521   -17459.932     75.74714   -17535.679    4485.1694 
  138000    303.64292   -17436.133    87.794881   -17523.928   -3524.5829 
  138200    305.53891   -17440.192    88.343085   -17528.535   -1658.6214 
  138400    325.72872   -17436.828    94.180739   -17531.008   -4633.2408 
  138600    306.73952   -17431.256    88.690229   -17519.947    153.25503 
  138800    305.05981   -17445.566     88.20456    -17533.77    7386.8479 
  139000     346.0215   -17419.296    100.04816   -17519.344   -4777.8325 
  139200    309.27979   -17428.224    89.424719   -17517.648   -4730.6913 
  139400    327.47653   -17446.931    94.686098   -17541.617   -3919.3831 
  139600    283.12312   -17440.954    81.861816   -17522.815   -2966.5082 
  139800    327.41109   -17437.511    94.667175   -17532.179   -867.08075 
  140000     280.9699    -17462.27    81.239237   -17543.509   -5056.0304 
  140200    301.11078   -17445.305    87.062741   -17532.368   -3068.4225 
  140400    289.19781    -17436.62    83.618243   -17520.238   -6849.1849 
  140600    338.94361   -17420.919    98.001671    -17518.92   -6549.9275 
  140800    264.51692   -17445.788    76.482046    -17522.27   -76.125579 
  141000    276.41902   -17445.852    79.923402   -17525.775   -946.07829 
  141200    336.35434   -17429.658    97.253016   -17526.911    8168.0543 
  141400    282.71696   -17437.221    81.744377   -17518.966    2506.6043 
  141600    286.97395   -17448.999    82.975239   -17531.974    1941.8077 
  141800    303.53135    -17438.98    87.762623   -17526.743     2308.207 
  142000    263.41975   -17444.844     76.16481   -17521.009   -2155.8789 
  142200    321.86838   -17425.927    93.064564   -17518.992    4438.9065 
  142400    287.69499   -17440.431    83.183718   -17523.614    5981.5093 
  142600    293.45125   -17450.829    84.848076   -17535.677    6698.2463 
  142800     333.2746   -17437.953    96.362542   -17534.316    -2552.637 
  143000     279.3881   -17439.619    80.781876   -17520.401    -5058.505 
  143200      266.401   -17443.306    77.026805   -17520.332    -4802.913 
  143400    327.57074   -17435.984    94.713336   -17530.697   -3360.9977 
  143600    316.53768   -17423.486    91.523254   -17515.009    -1793.891 
  143800    324.07703   -17448.067    93.703172    -17541.77    4611.3545 
  144000    285.66612   -17446.298    82.597095   -17528.895   -990.29774 
  144200    328.19787   -17427.178    94.894664   -17522.073    11480.842 
  144400    285.36868   -17446.291    82.511093   -17528.802    2323.1265 
  144600    314.69274   -17426.772     90.98981   -17517.761      659.095 
  144800     339.6343   -17435.383    98.201376   -17533.585   -356.95403 
  145000    305.04714   -17443.797    88.200897   -17531.997   -3321.1773 
  145200    344.20854   -17417.408    99.523967   -17516.932   -2732.2495 
  145400    299.59528   -17429.071    86.624553   -17515.696   -5310.4108 
  145600    273.82555   -17450.422     79.17353   -17529.595     4076.141 
  145800    316.85053   -17439.897     91.61371   -17531.511     11186.71 
  146000    340.61423   -17428.634    98.484713   -17527.118    14809.763 
  146200    284.12757   -17445.666    82.152241   -17527.818    7627.3907 
  146400    303.85169   -17435.858    87.855244   -17523.713    3824.6303 
  146600     248.5936   -17452.909    71.877999   -17524.787    1688.9046 
  146800    279.84233   -17444.865    80.913213   -17525.778   -2472.2433 
  147000    340.75416    -17419.53    98.525171   -17518.055    8889.7187 
  147200    308.92501   -17420.023    89.322138   -17509.345   -3531.1317 
  147400    293.14335   -17446.096    84.759052   -17530.855    -5380.017 
  147600    281.79432   -17443.027    81.477608   -17524.505   -5664.2169 
  147800    304.22833   -17434.197    87.964146   -17522.161    4088.3818 
  148000    309.98853   -17443.051    89.629642   -17532.681   -2347.6245 
  148200     293.5109   -17449.828    84.865322   -17534.694    2203.9327 
  148400    353.06231    -17433.31    102.08393   -17535.394   -64.984566 
  148600    318.44061   -17440.637    92.073464   -17532.711    1110.3082 
  148800    283.69766    -17451.42    82.027936   -17533.448    1829.2417 
  149000    306.59342     -17435.3    88.647985   -17523.948    4912.4168 
  149200    306.35956   -17443.968    88.580367   -17532.549    -5056.345 
  149400    264.31146   -17465.068    76.422638    -17541.49    -4306.973 
  149600    297.32294   -17442.232    85.967531     -17528.2    2605.9509 
  149800     303.5941   -17432.998    87.780765   -17520.779    6732.9737 
  150000    222.59095   -17456.719     64.35963   -17521.078    4897.9769 
  150200    261.41145   -17445.068    75.584133   -17520.653    5823.6831 
  150400    308.65524   -17438.312    89.244135   -17527.556    9900.3911 
  150600    250.82663   -17454.639    72.523655   -17527.163    8888.4535 
  150800    285.14796    -17436.22    82.447274   -17518.667    10128.417 
  151000    292.18525   -17427.118    84.482026     -17511.6   -3581.4863 
  151200      283.395   -17450.569    81.940426    -17532.51   -8736.2726 
  151400    300.36123   -17444.749    86.846019   -17531.595   -2212.7372 
  151600    320.38251   -17426.399    92.634944   -17519.034    649.52881 
  151800    291.59328   -17438.169    84.310864    -17522.48   -2405.9297 
  152000    291.74629   -17449.034    84.355108    -17533.39    3958.1945 
  152200    313.83248    -17428.19    90.741077   -17518.932    11925.753 
  152400    278.70013   -17447.572    80.582958   -17528.155    7202.6428 
  152600    321.16501   -17443.921    92.861194   -17536.783   -4184.1805 
  152800    302.59753   -17440.635     87.49262   -17528.128   -5908.6075 
  153000    350.13524   -17426.892     101.2376    -17528.13   -7503.2505 
  153200     310.1743     -17448.8    89.683356   -17538.484    3380.9691 
  153400    332.52242   -17436.698    96.145059   -17532.844      2063.22 
  153600     341.4922   -17431.248    98.738568   -17529.987    -5108.756 
  153800    286.80162   -17448.761    82.925411   -17531.687    5330.5508 
  154000    346.25291   -17423.587    100.11507   -17523.702    957.51625 
  154200     291.7422   -17433.691    84.353923   -17518.045    6721.2832 
  154400    277.99795   -17454.729     80.37993   -17535.109     3419.065 
  154600    321.24675    -17451.53    92.884827   -17544.415   -30.370744 
  154800    302.52411   -17434.695    87.471389   -17522.166    1651.5753 
  155000    311.87491   -17441.608    90.175068   -17531.783    2128.9302 
  155200    249.90637   -17451.646    72.257572   -17523.903   -3667.7333 
  155400     280.1558   -17437.038    81.003849   -17518.042   -3392.4127 
  155600    312.88772   -17437.652    90.467909    -17528.12    4882.5282 
  155800    267.67719   -17453.975      77.3958    -17531.37    1607.6189 
  156000     293.8814   -17431.621    84.972449   -17516.594   -1176.4638 
  156200     332.1983   -17433.721    96.051343   -17529.772    4.8205701 
  156400    291.45513   -17444.845    84.270921   -17529.116   -13608.643 
  156600    316.27752   -17434.428    91.448031   -17525.876   -10434.046 
  156800     353.7105   -17414.148    102.27135    -17516.42    988.88073 
  157000    289.96957   -17442.425    83.841388   -17526.266    7667.8693 
  157200    328.87465   -17437.109    95.090348   -17532.199   -862.52939 
  157400    343.93068   -17432.774    99.443626   -17532.218   -4499.3189 
  157600    284.60668   -17453.774    82.290771   -17536.065     8023.455 
  157800     311.9271   -17428.841    90.190158   -17519.031    2168.1995 
  158000    298.14441   -17439.961    86.205051   -17526.166    757.02259 
  158200    247.15002   -17461.796    71.460606   -17533.256   -3715.4321 
  158400    286.75186   -17436.346    82.911023   -17519.257    4174.0565 
  158600    267.86069    -17439.21    77.448858   -17516.659   -3254.0811 
  158800    310.10774   -17442.871    89.664109   -17532.535   -7768.5018 
  159000    283.18221    -17454.26      81.8789   -17536.139    3290.4975 
  159200    308.13322   -17427.815    89.093199   -17516.909    7407.7226 
  159400    275.62653   -17444.187    79.694262   -17523.881   -819.73595 
  159600    286.04857   -17442.616    82.707676   -17525.324    7557.9879 
  159800    309.76466   -17434.953    89.564912   -17524.518   -260.54629 
  160000    287.67261   -17433.515    83.177248   -17516.693    4967.9695 
  160200    310.84907   -17440.229    89.878456   -17530.107    -7467.973 
  160400    249.08888   -17455.283    72.021203   -17527.304   -1242.6644 
  160600    324.74749   -17429.924    93.897026   -17523.821   -7781.3256 
  160800    296.84875   -17441.117    85.830424   -17526.947    7220.2174 
  161000    279.66613   -17450.414    80.862265   -17531.276   -3598.6406 
  161200     313.0118   -17432.979    90.503785   -17523.483   -4088.2205 
  161400     266.7691   -17451.326    77.133238    -17528.46   -2463.2459 
  161600    258.76511    -17460.16    74.818975   -17534.979    2062.7993 
  161800    290.38317   -17436.788    83.960977   -17520.749   -11138.873 
  162000    298.53184   -17436.533    86.317072    -17522.85   -1746.1543 
  162200    274.15398   -17456.742     79.26849    -17536.01    5902.9831 
  162400    288.96441   -17438.892    83.550759   -17522.443   -245.87936 
  162600    308.81402    -17439.42    89.290044    -17528.71   -6923.8365 
  162800    283.37929   -17453.827    81.935885   -17535.763    8371.5357 
  163000    321.23872   -17421.697    92.882507   -17514.579    1711.5507 
  163200    296.91589   -17438.993    85.849838   -17524.843   -1660.1933 
  163400     337.9679   -17442.639    97.719557   -17540.359   -3491.8205 
  163600    315.38331   -17422.226     91.18948   -17513.416    2826.2447 
  163800    303.20425    -17431.19    87.668045   -17518.858   -13145.289 
  164000    306.76031   -17445.021    88.696239   -17533.717   -6772.4244 
  164200    373.01429   -17425.702    107.85282   -17533.555    4427.4239 
  164400    273.74306   -17446.675    79.149679   -17525.825    10492.885 
  164600    274.65917   -17445.824     79.41456   -17525.238    651.61124 
  164800    303.22897   -17429.517    87.675192   -17517.192     6292.951 
  165000    272.64401   -17456.542    78.831901   -17535.374    1882.0624 
  165200    283.14883   -17442.731     81.86925     -17524.6    5709.0574 
  165400    297.14532   -17429.511    85.916174   -17515.427   -11771.235 
  165600    260.95607   -17456.568    75.452465   -17532.021    4303.8655 
  165800    311.86611   -17440.455    90.172522   -17530.627     1812.771 
  166000    324.17429   -17429.605    93.731291   -17523.337    -1677.442 
  166200    289.88262    -17459.15    83.816249   -17542.966    955.90981 
  166400    301.52167    -17439.01    87.181546   -17526.191    7858.0966 
  166600    274.97324   -17440.634     79.50537   -17520.139     5840.419 
  166800    276.32161   -17461.427    79.895237   -17541.322    3244.7987 
  167000    300.72078   -17436.817    86.949977   -17523.767    4475.4912 
  167200    295.58165   -17442.138    85.464058   -17527.602   -3287.2436 
  167400    265.81673   -17458.884    76.857869   -17535.742   -16966.633 
  167600    271.64605   -17437.314    78.543353   -17515.858   -13628.737 
  167800    319.48475   -17427.605    92.375367   -17519.981    -5169.958 
  168000    254.12005   -17450.712    73.475909   -17524.188    1738.8765 
  168200    308.52352   -17441.096    89.206051   -17530.302   -2590.0914 
  168400    340.88603   -17417.695    98.563302   -17516.258    349.18848 
  168600    342.54723   -17438.222    99.043619   -17537.265    10521.583 
  168800    296.71972   -17448.873    85.793116   -17534.666     210.8302 
  169000    259.83764   -17465.063    75.129086   -17540.192    5170.6519 
  169200    323.42768   -17440.825     93.51542    -17534.34   -6751.9369 
  169400      281.433   -17439.042    81.373136   -17520.415   -3447.6255 
  169600    257.29239   -17454.852    74.393154   -17529.245     5808.763 
  169800     286.6424   -17437.931    82.879375   -17520.811    4757.0295 
  170000    315.02014   -17433.324    91.084473   -17524.408    3711.6763 
  170200    284.92258   -17448.985    82.382108   -17531.367    6217.2154 
  170400    321.88126   -17419.102    93.068288   -17512.171   -5313.3238 
  170600    340.79312   -17439.378    98.536436   -17537.914    3999.6669 
  170800    302.59702   -17441.776    87.492472   -17529.268    463.98291 
  171000    321.02765   -17427.873    92.821476   -17520.694    3896.5317 
  171200    284.41043   -17449.712    82.234026   -17531.946    642.44925 
  171400    300.35023   -17443.233    86.842837   -17530.076   -9981.2494 
  171600    303.21781   -17436.918    87.671966    -17524.59   -2375.9145 
  171800    328.33317   -17438.837    94.933786    -17533.77   -1442.6333 
  172000    258.90091   -17457.499     74.85824   -17532.357    768.09253 
  172200    296.59417   -17436.669    85.756816   -17522.426   -1607.9769 
  172400    321.26691   -17433.335    92.890655   -17526.225    4754.2136 
  172600    264.08264   -17459.619    76.356478   -17535.975    5527.3072 
  172800    259.09488   -17448.838    74.914325   -17523.753   -5886.4843 
  173000    310.70385   -17434.986    89.836467   -17524.823   -2995.9709 
  173200    308.72283   -17435.707    89.263678   -17524.971   -6602.3332 
  173400    260.80512   -17458.952     75.40882   -17534.361    274.75743 
  173600    313.06297   -17438.527    90.518582   -17529.045    5718.9158 
  173800    297.81114   -17443.551    86.108689    -17529.66    12626.726 
  174000    293.24712   -17449.399    84.789055   -17534.188    2073.0772 
  174200    336.05295   -17427.505    97.165871   -17524.671    2011.1642 
  174400     282.6211   -17447.865    81.716663   -17529.582   -3022.9793 
  174600    332.92463   -17439.421    96.261353   -17535.682    1008.9909 
  174800    267.08892   -17452.536     77.22571   -17529.762   -2154.3419 
  175000    251.98956   -17465.822    72.859902   -17538.682    187.88464 
  175200    299.99702    -17442.42    86.740712    -17529.16      7247.55 
  175400    288.34074    -17439.66    83.370432    -17523.03     4476.018 
  175600    257.70382    -17455.16    74.512114   -17529.672   -5141.5791 
  175800    316.75264   -17435.305    91.585406   -17526.891    1706.5939 
  176000    319.00519   -17432.269    92.236707   -17524.506   -2071.5367 
  176200    287.67336   -17452.399    83.177464   -17535.577   -2074.7798 
  176400    279.83837   -17437.559    80.912068   -17518.471   -924.30675 
  176600    342.35067   -17423.944    98.986785   -17522.931    12063.789 
  176800     272.1085   -17453.635    78.677065   -17532.312   -848.83139 
  177000    287.46668   -17444.168    83.117706   -17527.286   -6139.0162 
  177200     307.4755   -17431.077    88.903029    -17519.98   -757.57965 
  177400    278.93772   -17453.709    80.651654    -17534.36    10882.414 
  177600    264.52134    -17455.11    76.483323   -17531.594    16670.225 
  177800    287.10202   -17436.901    83.012269   -17519.914    1402.4949 
  178000    245.28413   -17451.387    70.921103   -17522.308    1393.8226 
  178200    279.35577    -17447.39    80.772528   -17528.163    605.80346 
  178400    358.27402   -17431.223    103.59084   -17534.814   -7943.2719 
  178600    266.47805   -17453.071    77.049083    -17530.12     -11068.2 
  178800    307.03298   -17433.296    88.775077   -17522.071    1850.2275 
  179000    312.07265   -17437.876    90.232241   -17528.108   -1313.0729 
  179200    286.61087   -17460.596    82.870259   -17543.467     10909.48 
  179400    315.82432   -17446.374    91.316994   -17537.691     7943.996 
[...]
  950000    317.59017   -17432.184     91.82757   -17524.011    2635.1147 
  950200    300.35992   -17435.959    86.845638   -17522.804    2282.8408 
  950400    258.60774   -17458.978    74.773474   -17533.752    9118.9619 
  950600      306.002   -17434.378    88.476982   -17522.855    11498.306 
  950800    302.43518   -17442.566    87.445678   -17530.012    6863.8604 
  951000    255.82964   -17450.169    73.970217   -17524.139    3767.1812 
  951200    319.01782   -17435.515    92.240357   -17527.755   -1121.2394 
  951400    307.75933    -17437.36    88.985094   -17526.345    1088.4742 
  951600     247.6162   -17453.218    71.595394   -17524.814   -6932.7305 
  951800    279.97108   -17438.831    80.950438   -17519.782   -4703.2009 
  952000    304.86619   -17435.764    88.148575   -17523.913   -9976.8199 
  952200     305.3033    -17446.04    88.274961   -17534.315    -3085.105 
  952400    231.53546   -17466.612    66.945834   -17533.558    8078.1884 
  952600    285.29305   -17446.003    82.489227   -17528.492    5766.3993 
  952800    298.03684   -17433.426    86.173948   -17519.599    942.27469 
  953000    279.34209   -17437.447    80.768574   -17518.215   -7413.3445 
  953200     318.7191   -17450.106    92.153986    -17542.26   -2340.2209 
  953400    350.34336    -17420.39    101.29778   -17521.687   -7534.1741 
  953600    347.15963   -17430.748    100.37724   -17531.125   -108.72438 
  953800    300.06893    -17445.84    86.761502   -17532.601    1397.8968 
  954000    258.50407   -17448.566    74.743497    -17523.31    11750.966 
  954200    370.71075   -17422.724    107.18678   -17529.911    3699.3484 
  954400    278.50047   -17445.145     80.52523    -17525.67    -8483.303 
  954600    290.54502   -17443.202    84.007774    -17527.21   -2174.5874 
  954800    327.38576   -17416.356    94.659852   -17511.016   -5517.6796 
  955000    328.33584   -17438.404    94.934557   -17533.339    -4139.135 
  955200    328.02451   -17446.106    94.844541    -17540.95   -2199.4143 
  955400    278.49683    -17455.73    80.524177   -17536.255    -1389.545 
  955600    322.11129   -17431.957      93.1348   -17525.092   -11199.174 
  955800    289.76963   -17443.352    83.783576   -17527.136    2402.3001 
  956000    262.20312   -17462.838    75.813035   -17538.651    5339.4223 
  956200    274.54928   -17442.767    79.382789   -17522.149    8293.3954 
  956400    322.27422   -17428.262    93.181909   -17521.444   -4034.3753 
  956600     276.3527   -17448.466    79.904226    -17528.37   -7442.6769 
  956800    267.70287   -17447.636    77.403225   -17525.039   -1952.3477 
  957000     318.4632   -17438.209    92.079995   -17530.289   -2399.2673 
  957200    282.06583   -17445.568    81.556113   -17527.124    2279.2312 
  957400    300.79637   -17432.154    86.971834   -17519.126     2564.694 
  957600    321.56181   -17433.832    92.975924   -17526.808   -2718.0538 
  957800    296.43868   -17448.889    85.711856   -17534.601    5344.9612 
  958000    295.15722    -17440.35    85.341337   -17525.691    1171.9482 
  958200    349.28837   -17428.841    100.99274   -17529.833   -7306.1382 
  958400    317.53528   -17425.293    91.811699   -17517.105   -7043.8445 
  958600    268.81493   -17446.207    77.724767   -17523.932   -6075.4069 
  958800    322.55939   -17433.518    93.264361   -17526.782     3260.327 
  959000    273.56362    -17442.32    79.097794   -17521.418    3106.2243 
  959200    287.74678   -17455.009    83.198692   -17538.208    10024.639 
  959400    297.69229   -17427.376    86.074324    -17513.45     4630.371 
  959600    270.61938   -17441.974    78.246502    -17520.22    8649.6403 
  959800    316.44346   -17437.791    91.496011   -17529.287    -3907.074 
  960000    322.06297    -17437.58    93.120827     -17530.7    -3078.306 
  960200    319.49218   -17436.614    92.377512   -17528.992   -149.77567 
  960400     294.2619   -17455.516    85.082467   -17540.598   -1161.8246 
  960600    290.02778   -17437.967    83.858219   -17521.825    929.93912 
  960800    307.20809   -17435.952     88.82571   -17524.777   -7252.7453 
  961000    288.20674   -17444.768    83.331686     -17528.1   -4412.0896 
  961200    263.98153   -17454.887    76.327243   -17531.215    2789.6746 
  961400    291.86092   -17440.858     84.38825   -17525.246   -1389.4214 
  961600    291.80618   -17436.718    84.372423    -17521.09   -6680.2886 
  961800    322.93987   -17434.476    93.374373    -17527.85    718.70675 
  962000    304.77495   -17447.183    88.122195   -17535.306    3711.5768 
  962200    291.44193    -17447.09    84.267105   -17531.357    1666.5729 
  962400    306.14541    -17422.14    88.518448   -17510.658   -1597.8331 
  962600    292.55914   -17442.592    84.590131   -17527.182    1447.8173 
  962800    292.61597   -17443.389    84.606566   -17527.996    947.31813 
  963000    322.78501   -17440.794    93.329599   -17534.123    8509.0177 
  963200    331.87364    -17426.37    95.957473   -17522.328    251.63547 
  963400     277.4973   -17447.048    80.235174   -17527.284   -7481.9492 
  963600    306.39059   -17424.764    88.589337   -17513.354   -10097.438 
  963800    304.01943   -17436.201    87.903745   -17524.105   -7555.8403 
  964000    272.61234    -17447.62    78.822742   -17526.443   -187.73147 
  964200    361.83538   -17422.705    104.62057   -17527.326   -2424.8391 
  964400    313.12546   -17413.134     90.53665   -17503.671    3100.1696 
  964600    279.20621   -17445.024    80.729285   -17525.753    2704.9175 
  964800    258.58556   -17454.057    74.767061   -17528.824   -3714.5028 
  965000    360.98148   -17432.287    104.37367    -17536.66    724.70986 
  965200      269.426   -17450.032    77.901449   -17527.933    4485.7432 
  965400    335.28048   -17424.861    96.942519   -17521.803   -7601.8217 
  965600      305.379   -17432.911    88.296847   -17521.208   -1488.4213 
  965800    289.52184   -17444.518    83.711933   -17528.229   -4432.9169 
  966000    343.82636   -17435.391    99.413465   -17534.804   -4501.7003 
  966200    326.91037   -17427.715    94.522398   -17522.238    1681.7064 
  966400    288.94515   -17447.201    83.545189   -17530.746   -4446.3673 
  966600    355.71303   -17422.931    102.85036   -17525.781   -6237.3785 
  966800    327.93297   -17434.151    94.818071   -17528.969    1670.3866 
  967000    312.66778   -17449.777    90.404317   -17540.181   -6327.4938 
  967200    310.68285   -17439.578    89.830396   -17529.408   -6113.3093 
  967400    319.73318   -17433.634    92.447196   -17526.081   -834.21761 
  967600    252.75845   -17457.405    73.082218   -17530.487    156.03298 
  967800    274.08896   -17449.166    79.249692   -17528.416    2807.4105 
  968000    311.92355   -17437.966    90.189131   -17528.155    1551.4701 
  968200    328.68361   -17411.305     95.03511    -17506.34   -4469.4491 
  968400    322.32939   -17430.235    93.197859   -17523.433    4210.0648 
  968600    285.18477   -17447.611    82.457918   -17530.069    2822.5763 
  968800    296.94466    -17440.76    85.858155   -17526.618    7513.9024 
  969000    350.36168   -17424.403    101.30308   -17525.706    -4805.072 
  969200    265.26322   -17438.134    76.697828   -17514.831    -7113.992 
  969400    318.29588   -17435.686    92.031617   -17527.718   -3223.8892 
  969600    272.71507   -17456.944    78.852448   -17535.796   -2562.7269 
  969800    329.08041   -17437.104    95.149841   -17532.254   -4767.8836 
  970000     300.8774   -17439.281    86.995263   -17526.276   -6293.1534 
  970200    359.05722   -17413.914    103.81729   -17517.731   -2392.8188 
  970400    297.41543   -17438.554    85.994272   -17524.548   -4308.2769 
  970600     267.7867   -17449.531    77.427465   -17526.959   -7073.2521 
  970800    344.74678   -17426.362    99.679592   -17526.041   -3658.9753 
  971000    295.63232   -17436.571    85.478707    -17522.05    9004.4701 
  971200     283.1634   -17462.885    81.873462   -17544.759     61.49042 
  971400     299.2019    -17444.46     86.51081   -17530.971   -1637.4131 
  971600    319.08818   -17433.979    92.260702   -17526.239   -5334.7082 
  971800    347.02981   -17417.359     100.3397   -17517.699   -7017.8416 
  972000    309.51261   -17441.245    89.492034   -17530.737    2386.3357 
  972200    304.17129   -17443.365    87.947653   -17531.312   -7107.6067 
  972400    331.77489   -17424.263    95.928918   -17520.191   -6618.9525 
  972600    289.24871   -17446.598    83.632959   -17530.231   -5105.6441 
  972800     277.8876    -17448.34    80.348023   -17528.688     -2504.07 
  973000    296.40296   -17437.312    85.701528   -17523.014   -3686.3139 
  973200    337.73132   -17442.369    97.651153    -17540.02   -6500.2156 
  973400    240.41067   -17466.664    69.511999   -17536.176   -5864.7742 
  973600    317.80747    -17446.81      91.8904     -17538.7    1567.9844 
  973800    310.71836   -17436.647    89.840663   -17526.488   -1804.8515 
  974000    329.35732   -17417.184    95.229907   -17512.414      4696.54 
  974200    282.31174   -17447.069    81.627214   -17528.697     4681.137 
  974400    333.58974   -17442.308    96.453663   -17538.761    675.17267 
  974600    307.88522   -17427.022    89.021495   -17516.043    2382.9457 
  974800    293.29002   -17449.805    84.801459   -17534.607   -8078.5018 
  975000     301.6974   -17439.151    87.232356   -17526.383    771.42473 
  975200    289.02793   -17437.403    83.569125   -17520.972    4564.2016 
  975400    310.59605   -17446.844    89.805299   -17536.649   -10191.008 
  975600    322.94506   -17424.614    93.375875   -17517.989   -4023.2442 
  975800    279.61266   -17437.317    80.846807   -17518.164    4435.2777 
  976000    326.72981   -17441.129    94.470193   -17535.599    3980.4542 
  976200    294.41302   -17444.703    85.126162   -17529.829   -5020.6977 
  976400     300.9967   -17444.099    87.029757   -17531.129   -1800.7227 
  976600    285.83979   -17433.703    82.647309    -17516.35    1715.4984 
  976800    294.11842    -17426.63    85.040981   -17511.671   -5956.7024 
  977000    293.79936   -17447.656    84.948727   -17532.605   -2347.1805 
  977200    315.65559   -17442.751    91.268208    -17534.02   -3260.7545 
  977400    319.63293   -17440.538    92.418211   -17532.956   -4537.0402 
  977600    288.00006   -17455.907    83.271926   -17539.179    -436.7043 
  977800    302.39658   -17446.086    87.434515   -17533.521    1591.6346 
  978000    278.88387   -17435.161    80.636086   -17515.797    1511.3996 
  978200      322.853   -17449.701    93.349256    -17543.05    3878.1231 
  978400    310.80405   -17456.161    89.865439   -17546.027   -12720.656 
  978600    321.44495   -17430.224    92.942135   -17523.166    1774.9679 
  978800    285.88637   -17438.728    82.660779   -17521.389    1211.5408 
  979000     285.2673   -17461.105     82.48178   -17543.587     4931.022 
  979200    291.70486   -17441.571    84.343128   -17525.914    7189.6501 
  979400    318.85534   -17441.635    92.193379   -17533.828   -2123.4628 
  979600    243.96334   -17454.517    70.539212   -17525.056    578.24716 
  979800    309.84313   -17432.091    89.587602   -17521.679   -5720.0577 
  980000    272.53032   -17446.917    78.799029   -17525.716   -7363.8555 
  980200    309.65469   -17441.266    89.533116   -17530.799   -7188.6467 
  980400    315.76049   -17429.766    91.298539   -17521.064   -2950.2091 
  980600    258.83114   -17450.336    74.838068   -17525.174    -1750.497 
  980800    365.72002   -17428.236    105.74376    -17533.98   -1212.6339 
  981000    339.75101   -17434.518    98.235124   -17532.753    3350.3266 
  981200    256.00975   -17461.193    74.022293   -17535.216     4362.754 
  981400    299.16872   -17439.574    86.501216   -17526.075    1322.2273 
  981600    326.52856   -17422.349    94.412002   -17516.761    14770.833 
  981800    291.06656   -17445.952     84.15857    -17530.11   -2401.9512 
  982000     295.9002    -17438.49    85.556161   -17524.047    654.95149 
  982200    272.93522   -17444.898    78.916099   -17523.814   -5729.3854 
  982400    301.98208   -17443.595    87.314669    -17530.91   -5630.5178 
  982600    319.29541   -17424.827    92.320621   -17517.147    4577.4821 
  982800    304.84875   -17444.315    88.143533   -17532.459   -2106.2919 
  983000    307.28486   -17444.937    88.847908   -17533.785    4522.3263 
  983200    288.04172   -17438.683    83.283972   -17521.967     2552.366 
  983400    338.88243   -17416.414    97.983982   -17514.398   -282.17851 
  983600    297.24306   -17442.048    85.944434   -17527.992    1412.5167 
  983800    302.88662   -17446.119    87.576205   -17533.696    -100.2296 
  984000    323.86053   -17425.898    93.640572   -17519.538   -6533.0856 
  984200    284.72616   -17445.666    82.325316   -17527.992    -4047.641 
  984400    266.62405    -17441.56    77.091299   -17518.651    2164.4461 
  984600    290.01928   -17435.294    83.855762    -17519.15    3501.4077 
  984800    265.02257   -17460.482    76.628249   -17537.111    878.58499 
  985000    287.17801   -17441.479    83.034239   -17524.513      4550.53 
  985200     284.9223   -17436.883    82.382026   -17519.265    2456.2955 
  985400    297.02136   -17443.837    85.880332   -17529.717   -6317.9827 
  985600    303.74576   -17450.275    87.824616     -17538.1    3622.4425 
  985800     319.6797   -17435.098    92.431734   -17527.529    12821.781 
  986000    321.94468   -17441.053    93.086626   -17534.139    12505.268 
  986200    355.10025   -17424.841    102.67318   -17527.514   -4990.8682 
  986400    298.09387   -17432.621    86.190437   -17518.812   -4702.1717 
  986600    259.60349   -17450.698    75.061384    -17525.76   -1835.2647 
  986800    281.45081   -17436.651    81.378285   -17518.029   -547.37095 
  987000    341.48911   -17409.663    98.737675   -17508.401     -650.746 
  987200    297.63404   -17431.609    86.057481   -17517.666     3609.687 
  987400    294.81676   -17446.666    85.242899   -17531.909    7879.2725 
  987600    296.17058   -17439.591    85.634339   -17525.225    5962.2924 
  987800    321.59024     -17431.4    92.984145   -17524.385    4140.0987 
  988000    265.50052   -17445.812    76.766441   -17522.578    29.907853 
  988200     313.4659   -17431.354    90.635083   -17521.989    5364.0076 
  988400    323.85666     -17441.8    93.639453    -17535.44    3717.2077 
  988600    349.21335   -17435.364    100.97105   -17536.335   -1362.0796 
  988800    303.04394   -17432.557    87.621692   -17520.178   -9429.6643 
  989000    263.55303    -17448.83    76.203349   -17525.033    -4051.552 
  989200    248.80251   -17458.177    71.938403   -17530.115   -4241.8671 
  989400    291.23816   -17432.442    84.208186    -17516.65     4276.547 
  989600    298.26803   -17447.389    86.240793    -17533.63    10892.715 
  989800    294.71714   -17447.187    85.214094   -17532.401    6964.2854 
  990000    322.72295   -17434.754    93.311655   -17528.066   -1079.9738 
  990200    277.31047   -17454.523    80.181153   -17534.705     1043.737 
  990400    247.74899   -17452.761     71.63379   -17524.395   -2757.4739 
  990600    311.18311   -17433.379     89.97504   -17523.354   -4253.4505 
  990800    269.34184   -17445.408    77.877116   -17523.285    4513.6224 
  991000    307.55323   -17455.813    88.925501   -17544.739    4984.3776 
  991200    334.88053   -17430.707    96.826878   -17527.533    3459.9094 
  991400    278.15451   -17446.115    80.425198    -17526.54   -4506.6845 
  991600    294.23509   -17462.176    85.074715    -17547.25   -7039.3774 
  991800    288.65005   -17427.487    83.459864   -17510.947   -9454.0079 
  992000    300.40742   -17438.921    86.859374   -17525.781   -6363.0555 
  992200    284.37843   -17452.584    82.224774   -17534.809    -829.0815 
  992400     319.9238   -17432.232    92.502312   -17524.734   -4968.6053 
  992600    296.17528   -17441.437    85.635698   -17527.073   -5124.8306 
  992800    261.06683   -17447.537    75.484491   -17523.022   -5616.8933 
  993000    317.28682    -17427.09    91.739859   -17518.829   -7277.5998 
  993200    276.08727   -17450.243    79.827479    -17530.07   -121.52198 
  993400    312.88057   -17444.847    90.465841   -17535.313    7359.6589 
  993600    313.71878   -17431.232      90.7082    -17521.94   -257.05908 
  993800    369.69854   -17417.239    106.89411   -17524.133    2128.9489 
  994000     320.5319    -17446.32    92.678137   -17538.998    1524.0171 
  994200    284.03846   -17442.226    82.126475   -17524.353   -3230.6619 
  994400    303.74565   -17434.186    87.824584   -17522.011   -8067.4876 
  994600    277.29411   -17442.311    80.176423   -17522.487   -2962.0002 
  994800    335.99249   -17416.137    97.148388   -17513.285    13135.724 
  995000    317.56056   -17438.888    91.819009   -17530.707   -593.58521 
  995200    308.16884   -17439.807    89.103499    -17528.91    2338.2328 
  995400    305.65911   -17421.761    88.377838   -17510.139     -384.593 
  995600    288.30713   -17447.667    83.360713   -17531.027   -2463.9662 
  995800    308.25528   -17441.738    89.128491   -17530.867    2333.6739 
  996000    318.86625   -17435.833    92.196534   -17528.029     3922.897 
  996200    352.57203   -17425.351    101.94217   -17527.293    1294.7703 
  996400    285.19685   -17449.324    82.461411   -17531.785    11927.943 
  996600    319.13029   -17433.801    92.272878   -17526.074    3425.5111 
  996800    288.87285   -17447.104    83.524284   -17530.628    2584.6691 
  997000    291.87025   -17448.302    84.390947   -17532.693   -510.62051 
  997200    293.92409   -17437.593    84.984794   -17522.578    13603.212 
  997400    300.06203   -17453.582    86.759507   -17540.341    6164.6142 
  997600    290.11579   -17453.546    83.883667    -17537.43    1026.2744 
  997800    298.14298   -17437.196    86.204635   -17523.401   -7026.2988 
  998000    297.07182   -17438.888    85.894924   -17524.783   -476.94717 
  998200    235.61233   -17461.894    68.124614   -17530.019   -2063.4965 
  998400    274.36528   -17440.066    79.329585   -17519.395     9121.502 
  998600    263.11328   -17434.109    76.076199   -17510.185    4030.1042 
  998800    256.19609   -17440.466    74.076173   -17514.542   -11879.306 
  999000    280.01084   -17449.337    80.961934   -17530.299   -1361.7007 
  999200    320.97814   -17427.464    92.807162   -17520.271    4463.2436 
  999400    289.95688   -17449.337    83.837718   -17533.174   -4089.0165 
  999600    264.35123   -17454.004    76.434138   -17530.439   -7651.0687 
  999800     322.0597   -17433.197    93.119883   -17526.317    8745.5251 
 1000000    335.73968   -17434.796    97.075292   -17531.871    5268.7141 
Loop time of 5677.86 on 8 procs for 1000000 steps with 98 atoms

Performance: 3.804 ns/day, 6.309 hours/ns, 176.123 timesteps/s
98.9% CPU use with 8 MPI tasks x no OpenMP threads

MPI task timing breakdown:
Section |  min time  |  avg time  |  max time  |%varavg| %total
---------------------------------------------------------------
Pair    | 4131.9     | 4201.9     | 4294.4     |  75.0 | 74.00
Neigh   | 1.5092     | 1.5302     | 1.5612     |   1.3 |  0.03
Comm    | 82.183     | 174.44     | 244.76     | 367.4 |  3.07
Output  | 0.26586    | 0.2981     | 0.4477     |  10.5 |  0.01
Modify  | 1291.5     | 1292       | 1292.4     |   0.8 | 22.75
Other   |            | 7.756      |            |       |  0.14

Nlocal:    12.25 ave 14 max 11 min
Histogram: 1 0 0 5 0 0 1 0 0 1
Nghost:    372.5 ave 382 max 363 min
Histogram: 1 0 1 1 1 1 1 1 0 1
Neighs:    782.75 ave 902 max 715 min
Histogram: 1 1 2 2 0 0 1 0 0 1

Total # of neighbors = 6262
Ave neighs/atom = 63.898
Neighbor list builds = 1037
Dangerous builds = 0

Please see the log.cite file for references relevant to this simulation

Total wall time: 1:34:54
