ITEM: TIMESTEP
0
ITEM: NUMBER OF ATOMS
161
ITEM: BOX BOUNDS xy xz yz pp pp pp
-6.7755000000000001e+00 1.3552000000000000e+01 -6.7755000000000001e+00
0.0000000000000000e+00 1.1735510246683001e+01 0.0000000000000000e+00
0.0000000000000000e+00 2.2149999999999999e+01 0.0000000000000000e+00
ITEM: ATOMS id type x y z 
8 1 -2.486 5.297 9.849 
87 1 3.001 4.231 10.696 
90 1 2.733 5.481 9.824 
109 1 -2.486 5.297 0.765 
158 1 2.733 5.481 0.79 
11 1 4.24 4.139 20.131 
14 1 3.031 4.094 19.728 
18 1 1.299 5.827 18.554 
33 1 2.266 4.151 20.924 
43 1 4.343 3.96 21.647 
47 1 3.32 5.732 17.88 
52 1 4.24 4.139 12.633 
76 1 2.552 4.924 14.209 
85 1 4.343 3.96 11.117 
89 1 3.32 5.732 14.883 
91 1 1.036 5.037 11.84 
102 1 3.031 4.094 13.035 
105 1 1.299 5.827 14.209 
114 1 2.266 4.151 11.84 
150 1 2.552 4.924 18.554 
156 1 3.001 4.231 22.068 
159 1 1.036 5.037 20.924 
5 1 -5.049 10.63 8.653 
9 1 -3.317 8.897 7.479 
19 1 -1.707 7.414 10.572 
21 1 -2.66 8.795 10.993 
23 1 -3.31 7.532 6.805 
25 1 -4.284 10.573 9.849 
32 1 1.503 6.367 0.79 
36 1 -1.869 7.426 9.056 
38 1 -2.209 6.086 8.653 
54 1 0.3 8.576 10.696 
57 1 1.291 8.001 9.824 
60 1 -1.707 7.414 0.042 
65 1 -3.31 7.532 3.808 
78 1 -1.869 7.426 1.558 
80 1 -2.566 8.842 1.961 
84 1 -4.57 9.799 3.135 
99 1 -3.054 9.687 0.765 
100 1 -2.96 6.142 3.135 
107 1 -5.049 10.63 1.961 
110 1 -3.317 8.897 3.135 
111 1 0.642 5.929 10.696 
113 1 1.503 6.367 9.824 
119 1 -4.284 10.573 0.765 
127 1 -2.209 6.086 1.961 
131 1 -2.318 6.148 10.993 
138 1 1.291 8.001 0.79 
142 1 -2.566 8.842 8.653 
145 1 -4.57 9.799 7.479 
151 1 -5.019 10.493 10.993 
154 1 -3.054 9.687 9.849 
155 1 -2.96 6.142 7.479 
12 1 2.53 7.1 17.202 
17 1 0.468 9.427 20.924 
24 1 -3.52 8.357 11.865 
27 1 -0.31 7.31 21.647 
29 1 0.642 5.929 22.068 
31 1 1.292 7.192 17.88 
44 1 -0.148 7.298 20.131 
46 1 0.191 8.638 19.728 
51 1 -0.31 7.31 11.117 
53 1 2.53 7.1 15.561 
56 1 1.292 7.192 14.883 
63 1 -2.318 6.148 21.771 
66 1 -3.309 6.723 20.899 
70 1 -0.148 7.298 12.633 
72 1 0.548 5.882 13.035 
92 1 0.942 8.582 14.209 
95 1 -5.019 10.493 21.771 
98 1 -4.751 9.243 20.899 
104 1 0.468 9.427 11.84 
116 1 -2.66 8.795 21.771 
118 1 -3.52 8.357 20.899 
122 1 0.191 8.638 13.035 
133 1 -3.309 6.723 11.865 
136 1 0.3 8.576 22.068 
147 1 0.548 5.882 19.728 
153 1 -4.751 9.243 11.865 
160 1 0.942 8.582 18.554 
1 1 7.976 4.694 10.572 
4 1 9.274 4.77 10.993 
20 1 8.034 4.861 9.056 
42 1 9.55 5.41 7.479 
67 1 10.043 4.578 0.765 
77 1 7.976 4.694 0.042 
94 1 8.035 4.861 1.558 
96 1 9.278 4.635 1.961 
121 1 4.688 5.417 10.696 
130 1 9.55 5.41 3.135 
134 1 10.043 4.578 9.849 
152 1 9.278 4.635 8.653 
45 1 4.688 5.417 22.068 
55 1 4.788 5.329 13.035 
106 1 9.274 4.77 21.771 
137 1 4.788 5.329 19.728 
2 1 7.294 10.585 9.056 
3 1 9.004 7.624 6.127 
6 1 8.556 6.347 6.805 
16 1 2.314 8.72 0.79 
22 1 7.166 6.156 8.653 
26 1 7.226 8.565 7.479 
35 1 7.191 10.764 10.572 
37 1 6.846 9.307 10.993 
39 1 8.214 8.992 6.805 
41 1 6.677 7.002 9.849 
48 1 3.775 6.213 0.79 
61 1 7.294 10.585 1.558 
62 1 9.004 7.624 4.487 
64 1 6.747 9.395 1.961 
68 1 7.437 6.931 3.135 
71 1 4.29 8.493 10.696 
74 1 3.567 7.818 9.824 
81 1 8.556 6.347 3.808 
83 1 6.47 8.606 0.765 
93 1 7.191 10.764 0.042 
97 1 8.214 8.992 3.808 
101 1 2.261 9.954 10.696 
103 1 2.314 8.72 9.824 
117 1 7.166 6.156 1.961 
120 1 7.226 8.565 3.135 
123 1 3.775 6.213 9.824 
129 1 6.677 7.002 0.765 
132 1 6.747 9.395 8.653 
135 1 7.437 6.931 7.479 
141 1 7.244 6.231 10.993 
144 1 6.47 8.606 9.849 
148 1 3.567 7.818 0.79 
7 1 9.22 6.004 11.865 
10 1 3.558 10.029 21.647 
13 1 2.261 9.954 22.068 
15 1 2.978 8.376 17.88 
28 1 3.5 9.862 20.131 
30 1 4.369 8.568 19.728 
34 1 4.308 6.159 18.554 
40 1 7.76 8.511 11.865 
49 1 4.857 7.722 20.924 
50 1 1.984 9.314 18.554 
58 1 1.491 10.146 11.84 
59 1 4.097 7.793 14.209 
69 1 3.558 10.029 11.117 
73 1 2.978 8.376 14.883 
75 1 5.064 6.118 11.84 
79 1 7.244 6.231 21.771 
82 1 7.967 6.906 20.899 
86 1 3.5 9.862 12.633 
88 1 2.256 10.089 13.035 
108 1 9.22 6.004 20.899 
112 1 4.369 8.568 13.035 
115 1 4.308 6.159 14.209 
124 1 4.857 7.722 11.84 
125 1 1.984 9.314 14.209 
126 1 6.846 9.307 21.771 
128 1 7.76 8.511 20.899 
139 1 1.491 10.146 20.924 
140 1 4.097 7.793 18.554 
143 1 7.967 6.906 11.865 
146 1 4.29 8.493 22.068 
149 1 5.064 6.118 20.924 
157 1 2.256 10.089 19.728 
161 2 5.447 7.793 14.209 
ITEM: TIMESTEP
10
ITEM: NUMBER OF ATOMS
161
ITEM: BOX BOUNDS xy xz yz pp pp pp
-6.7755000000000001e+00 1.3552000000000000e+01 -6.7755000000000001e+00
0.0000000000000000e+00 1.1735510246683001e+01 0.0000000000000000e+00
0.0000000000000000e+00 2.2149999999999999e+01 0.0000000000000000e+00
ITEM: ATOMS id type x y z 
8 1 -2.41245 5.3607 9.84358 
87 1 2.96775 4.279 10.6467 
90 1 2.67392 5.50497 9.80371 
109 1 -2.41195 5.36093 0.769561 
158 1 2.66874 5.49953 0.816481 
11 1 4.29571 4.17578 20.151 
14 1 2.91617 4.11671 19.7127 
18 1 1.34546 5.84687 18.5976 
33 1 2.13204 4.24471 20.9105 
43 1 4.30782 4.12158 21.5917 
47 1 3.249 5.79642 17.8576 
52 1 4.28018 4.14494 12.6033 
76 1 2.43027 4.92399 14.1918 
85 1 4.30821 4.11646 11.1674 
89 1 3.28396 5.7835 14.9304 
91 1 0.992377 5.09569 11.8471 
102 1 2.90125 4.12942 13.075 
105 1 1.26823 5.85329 14.1499 
114 1 2.12884 4.24634 11.8571 
150 1 2.43885 4.88643 18.5834 
156 1 2.96853 4.28073 22.1163 
159 1 0.986377 5.10585 20.8982 
5 1 -4.93057 10.5965 8.6228 
9 1 -3.34574 8.88347 7.5275 
19 1 -1.75884 7.50687 10.5551 
21 1 -2.62318 8.75159 10.9164 
23 1 -3.29481 7.53364 6.83599 
25 1 -4.14906 10.4787 9.83111 
32 1 1.52111 6.33665 0.771368 
36 1 -1.91035 7.53629 9.06375 
38 1 -2.16084 6.20146 8.65109 
54 1 0.299632 8.51404 10.6786 
57 1 1.34356 7.96849 9.78925 
60 1 -1.75807 7.50589 0.0608487 
65 1 -3.2922 7.53198 3.7838 
78 1 -1.9148 7.53869 1.54877 
80 1 -2.56958 8.78777 1.88133 
84 1 -4.45582 9.83101 3.10491 
99 1 -3.00621 9.61921 0.788837 
100 1 -2.92342 6.23182 3.16876 
107 1 -4.93406 10.6046 1.97964 
110 1 -3.36221 8.88127 3.09058 
111 1 0.616601 5.97089 10.7686 
113 1 1.52438 6.32928 9.8538 
119 1 -4.14571 10.4772 0.783917 
127 1 -2.15927 6.20341 1.96172 
131 1 -2.31366 6.20906 11.0075 
138 1 1.33156 7.9666 0.826994 
142 1 -2.56499 8.78855 8.7369 
145 1 -4.46385 9.8124 7.50592 
151 1 -4.97919 10.4461 11.0442 
154 1 -3.00627 9.62287 9.82745 
155 1 -2.92469 6.23579 7.44384 
12 1 2.57601 7.07483 17.1266 
17 1 0.394329 9.36342 20.917 
24 1 -3.53782 8.39388 11.8422 
27 1 -0.261565 7.21625 21.6267 
29 1 0.601527 5.96875 21.9852 
31 1 1.27944 7.19594 17.9033 
44 1 -0.100654 7.18254 20.1402 
46 1 0.142069 8.52034 19.7286 
51 1 -0.260076 7.2155 11.1331 
53 1 2.55505 7.02127 15.6273 
56 1 1.28237 7.16279 14.8352 
63 1 -2.31319 6.21029 21.7568 
66 1 -3.37218 6.7424 20.8629 
70 1 -0.117372 7.20106 12.6152 
72 1 0.537565 5.93353 12.957 
92 1 0.90354 8.46551 14.2535 
95 1 -4.97868 10.4453 21.7188 
98 1 -4.68448 9.2194 20.8742 
104 1 0.391581 9.36103 11.8426 
116 1 -2.62059 8.75437 21.8491 
118 1 -3.53823 8.39274 20.919 
122 1 0.134271 8.5141 13.0369 
133 1 -3.37294 6.74357 11.901 
136 1 0.293982 8.51243 22.0848 
147 1 0.553914 5.93754 19.8065 
153 1 -4.68473 9.21825 11.8883 
160 1 0.903412 8.49227 18.5213 
1 1 7.8929 4.94072 10.5299 
4 1 9.18099 4.78563 11.0427 
20 1 7.88262 4.93981 9.0734 
42 1 9.46715 5.41724 7.43823 
67 1 9.98858 4.5453 0.760079 
77 1 7.89259 4.9416 0.0865464 
94 1 7.88343 4.94223 1.53951 
96 1 9.21143 4.64602 1.99508 
121 1 4.68046 5.4422 10.7004 
130 1 9.46592 5.41596 3.17503 
134 1 9.98878 4.54548 9.85366 
152 1 9.21315 4.64656 8.61889 
45 1 4.67859 5.44851 22.072 
55 1 4.83262 5.43644 13.0393 
106 1 9.18097 4.78508 21.721 
137 1 4.81575 5.48297 19.7001 
2 1 7.24009 10.5428 9.07645 
3 1 8.95675 7.65879 6.04965 
6 1 8.53417 6.3957 6.83363 
16 1 2.35763 8.70677 0.819955 
22 1 7.15383 6.19646 8.72182 
26 1 7.17417 8.43923 7.54811 
35 1 7.22281 10.6003 10.517 
37 1 6.85043 9.26677 10.9913 
39 1 8.26994 8.92814 6.78098 
41 1 6.73996 7.01567 9.83592 
48 1 3.7872 6.33418 0.796599 
61 1 7.24109 10.5448 1.53908 
62 1 8.96164 7.6459 4.57099 
64 1 6.71676 9.24392 1.98134 
68 1 7.4076 6.96523 3.04821 
71 1 4.27258 8.55468 10.7634 
74 1 3.62302 7.75901 9.82098 
81 1 8.53468 6.39534 3.78021 
83 1 6.54719 8.43849 0.793618 
93 1 7.21955 10.6046 0.0977529 
97 1 8.28091 8.92893 3.82819 
101 1 2.34761 9.93953 10.6445 
103 1 2.33979 8.69301 9.78198 
117 1 7.15662 6.19421 1.89162 
120 1 7.17647 8.43684 3.06493 
123 1 3.76973 6.33802 9.8121 
129 1 6.73965 7.01645 0.780145 
132 1 6.71904 9.24613 8.63488 
135 1 7.41206 6.96572 7.56515 
141 1 7.25948 6.18225 10.9054 
144 1 6.54599 8.4401 9.81916 
148 1 3.63514 7.75651 0.772778 
7 1 9.20072 6.03395 11.898 
10 1 3.64696 9.78159 21.5976 
13 1 2.35206 9.93913 22.1284 
15 1 2.99433 8.32122 17.9109 
28 1 3.65125 9.78104 20.1493 
30 1 4.37803 8.53155 19.7936 
34 1 4.3487 6.28901 18.6251 
40 1 7.743 8.38652 11.8688 
49 1 4.79676 7.70995 20.9061 
50 1 2.07155 9.30808 18.512 
58 1 1.53705 10.1854 11.8288 
59 1 4.26448 7.7607 14.0898 
69 1 3.6541 9.82637 11.1424 
73 1 2.9654 8.42712 14.9737 
75 1 4.98893 6.25683 11.8544 
79 1 7.2559 6.18124 21.8584 
82 1 7.89535 6.97116 20.9247 
86 1 3.6706 9.76415 12.6478 
88 1 2.30832 10.0814 13.0643 
108 1 9.20137 6.0333 20.8657 
112 1 4.34296 8.57048 12.8888 
115 1 4.35909 6.1836 14.1636 
124 1 4.8038 7.71308 11.8603 
125 1 1.97996 9.36112 14.2367 
126 1 6.85019 9.26657 21.771 
128 1 7.74243 8.38627 20.8945 
139 1 1.54156 10.1788 20.9238 
140 1 4.12277 7.75592 18.6361 
143 1 7.89543 6.97263 11.8384 
146 1 4.2839 8.54965 21.9815 
149 1 4.99169 6.28599 20.8938 
157 1 2.32307 10.0791 19.6962 
161 2 5.58352 7.86061 14.2863 
ITEM: TIMESTEP
20
ITEM: NUMBER OF ATOMS
161
ITEM: BOX BOUNDS xy xz yz pp pp pp
-6.7755000000000001e+00 1.3552000000000000e+01 -6.7755000000000001e+00
0.0000000000000000e+00 1.1735510246683001e+01 0.0000000000000000e+00
0.0000000000000000e+00 2.2149999999999999e+01 0.0000000000000000e+00
ITEM: ATOMS id type x y z 
8 1 -2.41994 5.38318 9.843 
87 1 2.9571 4.2997 10.6478 
90 1 2.65965 5.51054 9.79935 
109 1 -2.41969 5.38317 0.770659 
158 1 2.6525 5.51324 0.817535 
11 1 4.2801 4.20488 20.1424 
14 1 2.90392 4.1359 19.7023 
18 1 1.31064 5.85482 18.5871 
33 1 2.10873 4.25834 20.9114 
43 1 4.29276 4.16085 21.5889 
47 1 3.25976 5.78405 17.8455 
52 1 4.25677 4.16428 12.6128 
76 1 2.41902 4.9481 14.1841 
85 1 4.29102 4.14437 11.1712 
89 1 3.29165 5.78352 14.9331 
91 1 0.981644 5.09819 11.8468 
102 1 2.88965 4.15201 13.0733 
105 1 1.26779 5.85385 14.1539 
114 1 2.10949 4.25879 11.861 
150 1 2.45288 4.91138 18.5879 
156 1 2.95726 4.30613 22.1158 
159 1 0.978826 5.10797 20.9015 
5 1 -4.92183 10.5834 8.62429 
9 1 -3.32605 8.87147 7.51338 
19 1 -1.75432 7.5019 10.551 
21 1 -2.60915 8.77035 10.9476 
23 1 -3.3021 7.53795 6.83361 
25 1 -4.12787 10.4653 9.83358 
32 1 1.5265 6.36093 0.771336 
36 1 -1.895 7.54897 9.06191 
38 1 -2.16246 6.21884 8.64359 
54 1 0.30665 8.50606 10.673 
57 1 1.36434 7.95112 9.79287 
60 1 -1.75303 7.50406 0.062678 
65 1 -3.30142 7.53589 3.78415 
78 1 -1.89862 7.5499 1.55228 
80 1 -2.56044 8.79094 1.89121 
84 1 -4.47143 9.80815 3.10244 
99 1 -2.99579 9.61447 0.786574 
100 1 -2.93443 6.26425 3.1728 
107 1 -4.92165 10.5869 1.98767 
110 1 -3.3269 8.87092 3.10002 
111 1 0.596838 5.94998 10.7417 
113 1 1.53136 6.36129 9.84099 
119 1 -4.12643 10.4648 0.779004 
127 1 -2.16196 6.2197 1.97002 
131 1 -2.32637 6.21831 11.0112 
138 1 1.36119 7.95182 0.817823 
142 1 -2.55543 8.79079 8.72745 
145 1 -4.471 9.80142 7.51043 
151 1 -4.97544 10.4172 11.0399 
154 1 -2.99579 9.61855 9.82709 
155 1 -2.93456 6.26584 7.44125 
12 1 2.55589 7.07235 17.1558 
17 1 0.402623 9.33918 20.9194 
24 1 -3.54553 8.36652 11.8476 
27 1 -0.265994 7.21857 21.6252 
29 1 0.592198 5.95248 22.0224 
31 1 1.28256 7.19107 17.9064 
44 1 -0.119167 7.17408 20.1366 
46 1 0.144285 8.50474 19.7204 
51 1 -0.266297 7.2195 11.1341 
53 1 2.55711 7.03283 15.6137 
56 1 1.29438 7.1561 14.8334 
63 1 -2.32616 6.2182 21.7523 
66 1 -3.38299 6.76768 20.869 
70 1 -0.135831 7.18765 12.6144 
72 1 0.520087 5.92493 12.9721 
92 1 0.918685 8.45128 14.2491 
95 1 -4.97484 10.417 21.7242 
98 1 -4.67338 9.21189 20.873 
104 1 0.399675 9.34065 11.8417 
116 1 -2.60917 8.7719 21.8161 
118 1 -3.54403 8.36753 20.9166 
122 1 0.1357 8.50288 13.0459 
133 1 -3.38285 6.76799 11.8946 
136 1 0.307771 8.50368 22.0885 
147 1 0.544752 5.93274 19.7971 
153 1 -4.67276 9.21188 11.8904 
160 1 0.915404 8.46043 18.5161 
1 1 7.8713 4.9333 10.5302 
4 1 9.17342 4.8058 11.0283 
20 1 7.86337 4.94221 9.06789 
42 1 9.46153 5.43815 7.43989 
67 1 9.97663 4.56055 0.7602 
77 1 7.87159 4.93462 0.0840002 
94 1 7.86286 4.94179 1.54664 
96 1 9.19162 4.66165 1.99379 
121 1 4.68243 5.47889 10.6843 
130 1 9.46218 5.43758 3.17318 
134 1 9.97629 4.56066 9.8534 
152 1 9.19108 4.66259 8.62046 
45 1 4.68445 5.47944 22.0805 
55 1 4.83371 5.4501 13.0429 
106 1 9.17328 4.80546 21.7356 
137 1 4.81504 5.49583 19.7067 
2 1 7.25643 10.5189 9.06775 
3 1 8.97504 7.64933 6.07197 
6 1 8.5219 6.39218 6.82503 
16 1 2.35841 8.67332 0.828535 
22 1 7.13516 6.1882 8.71552 
26 1 7.18706 8.42609 7.54609 
35 1 7.24125 10.5639 10.5131 
37 1 6.84888 9.24575 11.0054 
39 1 8.27333 8.92909 6.76789 
41 1 6.7257 7.00505 9.83261 
48 1 3.79124 6.34059 0.796899 
61 1 7.2555 10.5189 1.5464 
62 1 8.97866 7.64349 4.54404 
64 1 6.71778 9.22989 1.98215 
68 1 7.40295 6.96842 3.05467 
71 1 4.27521 8.53408 10.7513 
74 1 3.61249 7.76775 9.82067 
81 1 8.52049 6.39107 3.78894 
83 1 6.54313 8.42921 0.801459 
93 1 7.24091 10.5642 0.1 
97 1 8.2742 8.93277 3.84098 
101 1 2.3631 9.91375 10.6626 
103 1 2.35077 8.67484 9.77498 
117 1 7.13614 6.18893 1.89915 
120 1 7.19133 8.4269 3.06892 
123 1 3.78555 6.34671 9.81474 
129 1 6.7258 7.0045 0.782238 
132 1 6.71761 9.22873 8.63093 
135 1 7.4038 6.97008 7.56005 
141 1 7.24284 6.20203 10.928 
144 1 6.54128 8.42873 9.81262 
148 1 3.61855 7.761 0.778946 
7 1 9.18027 6.05048 11.9055 
10 1 3.66363 9.78769 21.6036 
13 1 2.36219 9.9197 22.104 
15 1 3.01134 8.33359 17.9004 
28 1 3.67159 9.7815 20.1421 
30 1 4.3999 8.53576 19.7889 
34 1 4.33781 6.2955 18.6206 
40 1 7.7396 8.38461 11.873 
49 1 4.80818 7.72057 20.9064 
50 1 2.072 9.28857 18.5159 
58 1 1.5464 10.1706 11.8263 
59 1 4.27346 7.77094 14.1415 
69 1 3.68124 9.82036 11.1392 
73 1 2.97753 8.40938 14.9544 
75 1 4.98733 6.27649 11.8679 
79 1 7.24184 6.20198 21.8355 
82 1 7.91748 6.9657 20.9129 
86 1 3.67055 9.78608 12.6287 
88 1 2.31803 10.0665 13.0739 
108 1 9.18012 6.05027 20.8581 
112 1 4.34833 8.56006 12.8782 
115 1 4.34549 6.16683 14.159 
124 1 4.8113 7.71452 11.8422 
125 1 1.98566 9.34199 14.2318 
126 1 6.84899 9.24554 21.7581 
128 1 7.73963 8.38407 20.8915 
139 1 1.55796 10.1618 20.9303 
140 1 4.12972 7.75564 18.6319 
143 1 7.91778 6.9658 11.8517 
146 1 4.29647 8.52309 22.0045 
149 1 4.99182 6.2955 20.888 
157 1 2.34248 10.063 19.6976 
161 2 5.61958 7.87932 14.3177 
ITEM: TIMESTEP
30
ITEM: NUMBER OF ATOMS
161
ITEM: BOX BOUNDS xy xz yz pp pp pp
-6.7755000000000001e+00 1.3552000000000000e+01 -6.7755000000000001e+00
0.0000000000000000e+00 1.1735510246683001e+01 0.0000000000000000e+00
0.0000000000000000e+00 2.2149999999999999e+01 0.0000000000000000e+00
ITEM: ATOMS id type x y z 
8 1 -2.44739 5.43866 9.83398 
87 1 2.93906 4.36525 10.648 
90 1 2.65167 5.54053 9.76563 
109 1 -2.44753 5.43788 0.781295 
158 1 2.64699 5.5393 0.845666 
11 1 4.24779 4.26366 20.1317 
14 1 2.86094 4.16572 19.7159 
18 1 1.28053 5.83704 18.5545 
33 1 2.06952 4.28667 20.9028 
43 1 4.27469 4.23726 21.5696 
47 1 3.2404 5.79389 17.8086 
52 1 4.22319 4.2112 12.6236 
76 1 2.40315 4.98234 14.193 
85 1 4.25695 4.21979 11.19 
89 1 3.29998 5.79645 14.9507 
91 1 0.924301 5.1328 11.8206 
102 1 2.83894 4.19367 13.0543 
105 1 1.24274 5.85284 14.1614 
114 1 2.06143 4.28989 11.8623 
150 1 2.43454 4.9483 18.5817 
156 1 2.9358 4.37182 22.1107 
159 1 0.930444 5.13474 20.9309 
5 1 -4.87963 10.557 8.64344 
9 1 -3.30089 8.88265 7.48643 
19 1 -1.7602 7.53402 10.559 
21 1 -2.55245 8.7967 10.9846 
23 1 -3.29677 7.54585 6.81238 
25 1 -4.08685 10.4357 9.82962 
32 1 1.49467 6.39932 0.787091 
36 1 -1.8531 7.58683 9.05756 
38 1 -2.15569 6.26303 8.6383 
54 1 0.326786 8.47749 10.6693 
57 1 1.3761 7.92518 9.79443 
60 1 -1.75633 7.53642 0.0530174 
65 1 -3.29692 7.54876 3.79954 
78 1 -1.85304 7.58603 1.55448 
80 1 -2.51935 8.79848 1.90352 
84 1 -4.45435 9.77134 3.10849 
99 1 -2.94693 9.59019 0.758931 
100 1 -2.93947 6.29537 3.16641 
107 1 -4.87852 10.5547 1.97378 
110 1 -3.29662 8.8856 3.13276 
111 1 0.543104 5.91604 10.6995 
113 1 1.49415 6.39802 9.82126 
119 1 -4.08824 10.4368 0.786133 
127 1 -2.15764 6.2617 1.97701 
131 1 -2.34864 6.24757 11.0129 
138 1 1.38976 7.92505 0.818203 
142 1 -2.52119 8.79974 8.70296 
145 1 -4.45505 9.7813 7.50496 
151 1 -4.95771 10.3532 11.0307 
154 1 -2.94525 9.58965 9.85397 
155 1 -2.93971 6.29571 7.44801 
12 1 2.56941 7.0661 17.1743 
17 1 0.428433 9.28436 20.9131 
24 1 -3.51228 8.32179 11.8642 
27 1 -0.260089 7.18996 21.638 
29 1 0.531964 5.92813 22.0591 
31 1 1.27597 7.17913 17.893 
44 1 -0.163587 7.13726 20.1328 
46 1 0.138517 8.46123 19.7121 
51 1 -0.26778 7.19263 11.1191 
53 1 2.60462 7.0735 15.6021 
56 1 1.299 7.14893 14.8462 
63 1 -2.34736 6.24931 21.7496 
66 1 -3.39808 6.80299 20.8725 
70 1 -0.172984 7.15222 12.6201 
72 1 0.452322 5.90496 12.9912 
92 1 0.926475 8.42022 14.2315 
95 1 -4.95817 10.3557 21.7319 
98 1 -4.6677 9.18543 20.8412 
104 1 0.420094 9.28287 11.8413 
116 1 -2.54966 8.79415 21.7812 
118 1 -3.51218 8.32218 20.8998 
122 1 0.128021 8.46222 13.049 
133 1 -3.39624 6.80184 11.8907 
136 1 0.326294 8.4733 22.0833 
147 1 0.501721 5.92598 19.7859 
153 1 -4.66864 9.18599 11.9221 
160 1 0.919333 8.43213 18.5236 
1 1 7.79661 4.93078 10.5375 
4 1 9.12729 4.86686 11.0018 
20 1 7.8018 4.9477 9.06887 
42 1 9.43564 5.47355 7.44968 
67 1 9.94922 4.60809 0.775266 
77 1 7.79733 4.9318 0.0780251 
94 1 7.80201 4.94746 1.54607 
96 1 9.13883 4.70601 1.99304 
121 1 4.68144 5.52589 10.6667 
130 1 9.43646 5.47312 3.1635 
134 1 9.94867 4.60844 9.83894 
152 1 9.13864 4.70628 8.62028 
45 1 4.68179 5.52816 22.0991 
55 1 4.83797 5.48503 13.0568 
106 1 9.12754 4.86644 21.7616 
137 1 4.81824 5.54427 19.6984 
2 1 7.28169 10.4584 9.05475 
3 1 8.97058 7.64077 6.07546 
6 1 8.50545 6.39328 6.79819 
16 1 2.38168 8.64607 0.849307 
22 1 7.07467 6.16835 8.68891 
26 1 7.20849 8.4029 7.52854 
35 1 7.26044 10.4861 10.4922 
37 1 6.85224 9.19782 11.0226 
39 1 8.29844 8.91554 6.73872 
41 1 6.68538 6.9763 9.83417 
48 1 3.79366 6.34002 0.834455 
61 1 7.28429 10.4635 1.55719 
62 1 8.96613 7.64675 4.53195 
64 1 6.71527 9.17874 1.99145 
68 1 7.37652 6.95525 3.06608 
71 1 4.30221 8.5343 10.7333 
74 1 3.61196 7.7834 9.77638 
81 1 8.50739 6.3931 3.81856 
83 1 6.52866 8.39083 0.813267 
93 1 7.26438 10.4828 0.12176 
97 1 8.29683 8.91622 3.88125 
101 1 2.41275 9.85875 10.6837 
103 1 2.38322 8.65682 9.75768 
117 1 7.07621 6.16789 1.92606 
120 1 7.20364 8.40223 3.08275 
123 1 3.79665 6.34661 9.78661 
129 1 6.68584 6.97554 0.780444 
132 1 6.71369 9.1776 8.62397 
135 1 7.37489 6.95403 7.5486 
141 1 7.19895 6.21435 10.9526 
144 1 6.52494 8.39151 9.80226 
148 1 3.60786 7.77903 0.827932 
7 1 9.14529 6.07106 11.9247 
10 1 3.73788 9.78983 21.612 
13 1 2.40762 9.85634 22.078 
15 1 3.02331 8.33206 17.8712 
28 1 3.73362 9.77604 20.1423 
30 1 4.45826 8.55554 19.7605 
34 1 4.33032 6.32274 18.6072 
40 1 7.74007 8.3866 11.9089 
49 1 4.84852 7.74905 20.9079 
50 1 2.09559 9.25377 18.5259 
58 1 1.57331 10.1222 11.8489 
59 1 4.34944 7.8217 14.2327 
69 1 3.74867 9.81403 11.1159 
73 1 2.98628 8.34681 14.8896 
75 1 4.99589 6.30282 11.8911 
79 1 7.20355 6.21282 21.8145 
82 1 7.92827 6.94655 20.861 
86 1 3.7071 9.79764 12.6194 
88 1 2.34445 10.0387 13.0631 
108 1 9.14503 6.07162 20.8391 
112 1 4.33584 8.54741 12.8729 
115 1 4.32534 6.18144 14.1633 
124 1 4.83945 7.73665 11.8459 
125 1 2.07033 9.2771 14.2504 
126 1 6.85167 9.19892 21.7401 
128 1 7.74081 8.38656 20.8555 
139 1 1.58701 10.1151 20.916 
140 1 4.15368 7.76702 18.6214 
143 1 7.92697 6.94601 11.9033 
146 1 4.33271 8.51244 22.0248 
149 1 5.00601 6.33602 20.8758 
157 1 2.39549 10.0189 19.6969 
161 2 5.67814 7.91893 14.4187 
ITEM: TIMESTEP
40
ITEM: NUMBER OF ATOMS
161
ITEM: BOX BOUNDS xy xz yz pp pp pp
-6.7755000000000001e+00 1.3552000000000000e+01 -6.7755000000000001e+00
0.0000000000000000e+00 1.1735510246683001e+01 0.0000000000000000e+00
0.0000000000000000e+00 2.2149999999999999e+01 0.0000000000000000e+00
ITEM: ATOMS id type x y z 
8 1 -2.45608 5.44982 9.82954 
87 1 2.93205 4.3852 10.6515 
90 1 2.63583 5.56295 9.75119 
109 1 -2.45594 5.45023 0.782885 
158 1 2.63183 5.5596 0.861387 
11 1 4.24405 4.27889 20.1211 
14 1 2.85728 4.17739 19.7176 
18 1 1.27952 5.85091 18.5538 
33 1 2.06003 4.3021 20.9214 
43 1 4.26314 4.25124 21.5656 
47 1 3.23385 5.79934 17.8265 
52 1 4.21317 4.22708 12.6362 
76 1 2.40385 4.98456 14.194 
85 1 4.25033 4.23469 11.1991 
89 1 3.29934 5.80178 14.9382 
91 1 0.905176 5.12321 11.8314 
102 1 2.83325 4.21226 13.0589 
105 1 1.22685 5.85251 14.1671 
114 1 2.05048 4.31032 11.8445 
150 1 2.4157 4.92442 18.5799 
156 1 2.93736 4.38358 22.1048 
159 1 0.912813 5.13056 20.9222 
5 1 -4.8761 10.5413 8.64208 
9 1 -3.29474 8.87216 7.47869 
19 1 -1.75365 7.54995 10.5572 
21 1 -2.53737 8.78695 10.9885 
23 1 -3.29762 7.54001 6.82089 
25 1 -4.08186 10.4229 9.84295 
32 1 1.48108 6.37624 0.801352 
36 1 -1.84221 7.59487 9.05746 
38 1 -2.14678 6.27332 8.64157 
54 1 0.323502 8.46565 10.671 
57 1 1.37871 7.93032 9.78105 
60 1 -1.74982 7.55068 0.0559984 
65 1 -3.29639 7.5368 3.79618 
78 1 -1.84252 7.59425 1.5559 
80 1 -2.51255 8.8104 1.91497 
84 1 -4.4349 9.79451 3.11097 
99 1 -2.92897 9.59511 0.766099 
100 1 -2.93696 6.29096 3.16673 
107 1 -4.87579 10.5443 1.97138 
110 1 -3.29661 8.87261 3.1358 
111 1 0.519493 5.93477 10.6947 
113 1 1.48746 6.37802 9.80566 
119 1 -4.0811 10.4231 0.768404 
127 1 -2.14639 6.27428 1.97179 
131 1 -2.3495 6.25904 11.011 
138 1 1.37763 7.93339 0.824266 
142 1 -2.50984 8.81171 8.70064 
145 1 -4.43627 9.791 7.50169 
151 1 -4.95541 10.3401 11.0306 
154 1 -2.92822 9.595 9.848 
155 1 -2.93717 6.29106 7.44794 
12 1 2.57077 7.06406 17.1392 
17 1 0.438267 9.27343 20.9051 
24 1 -3.49947 8.34849 11.8781 
27 1 -0.268204 7.17281 21.6311 
29 1 0.519183 5.93341 22.0652 
31 1 1.28173 7.18091 17.8897 
44 1 -0.174568 7.13039 20.1348 
46 1 0.128146 8.45047 19.7191 
51 1 -0.268868 7.17341 11.1251 
53 1 2.61786 7.10076 15.5739 
56 1 1.27542 7.14598 14.8455 
63 1 -2.3492 6.26037 21.7532 
66 1 -3.39634 6.78956 20.8637 
70 1 -0.194227 7.14102 12.6112 
72 1 0.437621 5.89068 12.9811 
92 1 0.925932 8.40293 14.2305 
95 1 -4.95431 10.3407 21.7311 
98 1 -4.64905 9.16649 20.8275 
104 1 0.430689 9.27466 11.8573 
116 1 -2.53719 8.78838 21.7728 
118 1 -3.49905 8.34814 20.8867 
122 1 0.131082 8.45365 13.0497 
133 1 -3.3958 6.7893 11.9003 
136 1 0.333737 8.46263 22.0874 
147 1 0.497788 5.91202 19.7741 
153 1 -4.65096 9.16685 11.9357 
160 1 0.920629 8.43454 18.5216 
1 1 7.76314 4.9172 10.5407 
4 1 9.11339 4.88411 11.0037 
20 1 7.78421 4.95406 9.06498 
42 1 9.43732 5.47377 7.45065 
67 1 9.93409 4.63123 0.773716 
77 1 7.76506 4.91713 0.0746967 
94 1 7.78395 4.95224 1.55096 
96 1 9.11674 4.71232 1.98859 
121 1 4.67343 5.53121 10.6795 
130 1 9.43759 5.4729 3.16354 
134 1 9.93402 4.63138 9.8401 
152 1 9.11555 4.71253 8.62513 
45 1 4.67588 5.54454 22.0934 
55 1 4.82734 5.49593 13.063 
106 1 9.11475 4.88328 21.7591 
137 1 4.80972 5.55724 19.6954 
2 1 7.28931 10.4456 9.04231 
3 1 8.96043 7.66094 6.06575 
6 1 8.5026 6.3918 6.81051 
16 1 2.38934 8.6543 0.847479 
22 1 7.05274 6.15877 8.68398 
26 1 7.20331 8.39495 7.52064 
35 1 7.27057 10.4698 10.4879 
37 1 6.85617 9.18125 11.0195 
39 1 8.29523 8.92618 6.75217 
41 1 6.67317 6.9653 9.8323 
48 1 3.79321 6.35731 0.847039 
61 1 7.28699 10.448 1.57262 
62 1 8.96083 7.65913 4.54577 
64 1 6.72389 9.16828 1.99376 
68 1 7.37271 6.94452 3.07809 
71 1 4.32619 8.52219 10.7189 
74 1 3.64666 7.77972 9.76599 
81 1 8.5035 6.39118 3.80489 
83 1 6.52535 8.3848 0.803184 
93 1 7.2732 10.4681 0.129269 
97 1 8.29639 8.92712 3.8616 
101 1 2.42013 9.84913 10.6767 
103 1 2.38314 8.65784 9.75866 
117 1 7.05296 6.15838 1.93058 
120 1 7.2055 8.39492 3.0951 
123 1 3.78927 6.36192 9.76991 
129 1 6.674 6.96448 0.783072 
132 1 6.72251 9.16601 8.62093 
135 1 7.37323 6.94324 7.53592 
141 1 7.18749 6.22184 10.9603 
144 1 6.51997 8.38437 9.81169 
148 1 3.64424 7.77621 0.836286 
7 1 9.14459 6.0683 11.9225 
10 1 3.76803 9.80525 21.6141 
13 1 2.42133 9.83921 22.0816 
15 1 3.03014 8.32763 17.8804 
28 1 3.75042 9.77168 20.1372 
30 1 4.48053 8.56409 19.7565 
34 1 4.32624 6.32665 18.5935 
40 1 7.73961 8.36601 11.9207 
49 1 4.86057 7.76079 20.9039 
50 1 2.09567 9.24985 18.5265 
58 1 1.58617 10.0971 11.8486 
59 1 4.34459 7.82215 14.2421 
69 1 3.76091 9.83221 11.1141 
73 1 2.99874 8.33729 14.8888 
75 1 4.99883 6.31553 11.8804 
79 1 7.19246 6.22165 21.8063 
82 1 7.88909 6.94944 20.8531 
86 1 3.71209 9.79824 12.6164 
88 1 2.38621 10.0232 13.061 
108 1 9.14622 6.06891 20.8418 
112 1 4.3569 8.54479 12.9135 
115 1 4.33711 6.20935 14.1743 
124 1 4.83538 7.73668 11.8417 
125 1 2.1059 9.24154 14.2567 
126 1 6.85777 9.18265 21.7442 
128 1 7.74138 8.36616 20.8423 
139 1 1.59892 10.0921 20.9146 
140 1 4.15854 7.77869 18.6108 
143 1 7.88832 6.95025 11.9111 
146 1 4.34342 8.5032 22.0333 
149 1 5.00899 6.3399 20.8852 
157 1 2.41761 10.01 19.6995 
161 2 5.70234 7.93251 14.4528 
ITEM: TIMESTEP
50
ITEM: NUMBER OF ATOMS
161
ITEM: BOX BOUNDS xy xz yz pp pp pp
-6.7755000000000001e+00 1.3552000000000000e+01 -6.7755000000000001e+00
0.0000000000000000e+00 1.1735510246683001e+01 0.0000000000000000e+00
0.0000000000000000e+00 2.2149999999999999e+01 0.0000000000000000e+00
ITEM: ATOMS id type x y z 
8 1 -2.45668 5.45281 9.82999 
87 1 2.92777 4.38528 10.6512 
90 1 2.63737 5.56322 9.75055 
109 1 -2.45654 5.45342 0.783287 
158 1 2.63165 5.56055 0.86164 
11 1 4.24272 4.28088 20.122 
14 1 2.85337 4.18099 19.717 
18 1 1.276 5.84719 18.5559 
33 1 2.05996 4.30414 20.9201 
43 1 4.26149 4.25598 21.5638 
47 1 3.23249 5.79977 17.8249 
52 1 4.21299 4.22939 12.6361 
76 1 2.40059 4.98696 14.195 
85 1 4.24706 4.23934 11.1993 
89 1 3.29898 5.80048 14.938 
91 1 0.899463 5.12432 11.8275 
102 1 2.83068 4.21381 13.0575 
105 1 1.2239 5.85288 14.1666 
114 1 2.05188 4.31058 11.8451 
150 1 2.41562 4.92839 18.5794 
156 1 2.93484 4.38641 22.1063 
159 1 0.910698 5.13119 20.923 
5 1 -4.87273 10.5399 8.6424 
9 1 -3.29358 8.8741 7.4798 
19 1 -1.75377 7.54961 10.5555 
21 1 -2.53873 8.79284 10.9904 
23 1 -3.3011 7.5394 6.81789 
25 1 -4.0785 10.4186 9.84341 
32 1 1.47937 6.37918 0.802479 
36 1 -1.84122 7.59735 9.05543 
38 1 -2.14661 6.27475 8.64099 
54 1 0.329569 8.46466 10.6712 
57 1 1.37709 7.93174 9.78348 
60 1 -1.74942 7.55065 0.0568796 
65 1 -3.29964 7.53778 3.7976 
78 1 -1.84202 7.59719 1.55772 
80 1 -2.51196 8.81252 1.91264 
84 1 -4.43377 9.79227 3.1112 
99 1 -2.9284 9.59267 0.766563 
100 1 -2.93625 6.29059 3.16546 
107 1 -4.87209 10.5413 1.97066 
110 1 -3.29425 8.87355 3.13393 
111 1 0.522458 5.92986 10.6919 
113 1 1.48254 6.38061 9.80538 
119 1 -4.07847 10.4187 0.769441 
127 1 -2.14673 6.27557 1.97228 
131 1 -2.35144 6.26066 11.0114 
138 1 1.37792 7.93039 0.824828 
142 1 -2.50865 8.81388 8.70255 
145 1 -4.43464 9.79029 7.50102 
151 1 -4.95349 10.3372 11.0311 
154 1 -2.92806 9.59382 9.84695 
155 1 -2.93651 6.29046 7.44887 
12 1 2.56911 7.06506 17.1435 
17 1 0.43904 9.27073 20.9051 
24 1 -3.49949 8.34475 11.8783 
27 1 -0.268394 7.17255 21.6314 
29 1 0.519008 5.93036 22.0659 
31 1 1.28515 7.18124 17.8855 
44 1 -0.175437 7.12778 20.132 
46 1 0.129445 8.44898 19.717 
51 1 -0.269569 7.1749 11.1227 
53 1 2.61523 7.09401 15.5797 
56 1 1.27783 7.1457 14.8446 
63 1 -2.35087 6.2618 21.7529 
66 1 -3.39623 6.7933 20.8633 
70 1 -0.195117 7.1392 12.6179 
72 1 0.434779 5.89224 12.9843 
92 1 0.926534 8.4024 14.2308 
95 1 -4.9522 10.3384 21.731 
98 1 -4.64857 9.16458 20.827 
104 1 0.430261 9.2709 11.8531 
116 1 -2.53792 8.79361 21.7739 
118 1 -3.49803 8.34491 20.8859 
122 1 0.129332 8.44863 13.0498 
133 1 -3.39686 6.79331 11.9005 
136 1 0.334879 8.46126 22.0874 
147 1 0.495089 5.91185 19.7749 
153 1 -4.64902 9.16417 11.936 
160 1 0.920266 8.43448 18.5236 
1 1 7.76044 4.91429 10.5416 
4 1 9.10836 4.88589 11.0022 
20 1 7.78145 4.9545 9.06675 
42 1 9.43631 5.47395 7.45222 
67 1 9.93203 4.63394 0.77365 
77 1 7.76217 4.91311 0.0741049 
94 1 7.78165 4.95341 1.54892 
96 1 9.11429 4.71412 1.99017 
121 1 4.6736 5.53483 10.6767 
130 1 9.43672 5.47356 3.16214 
134 1 9.9315 4.63404 9.8397 
152 1 9.11387 4.71442 8.62388 
45 1 4.67512 5.54485 22.0942 
55 1 4.82733 5.49694 13.0621 
106 1 9.10993 4.88507 21.7611 
137 1 4.80884 5.55909 19.6944 
2 1 7.28979 10.4434 9.04471 
3 1 8.96137 7.6598 6.06749 
6 1 8.50346 6.39438 6.80806 
16 1 2.39182 8.65224 0.848416 
22 1 7.04964 6.15881 8.68202 
26 1 7.20325 8.39278 7.52035 
35 1 7.27305 10.4649 10.4857 
37 1 6.8567 9.18089 11.0198 
39 1 8.29716 8.92602 6.75228 
41 1 6.67104 6.96407 9.83132 
48 1 3.79283 6.35733 0.848361 
61 1 7.28877 10.4462 1.57107 
62 1 8.96183 7.65915 4.54447 
64 1 6.72433 9.16562 1.99433 
68 1 7.37091 6.94358 3.07779 
71 1 4.32752 8.52408 10.7166 
74 1 3.64537 7.78085 9.76485 
81 1 8.5037 6.39319 3.80639 
83 1 6.52451 8.38309 0.804366 
93 1 7.27611 10.4632 0.130934 
97 1 8.29772 8.92787 3.86103 
101 1 2.42241 9.84772 10.6763 
103 1 2.38449 8.65386 9.75847 
117 1 7.05022 6.15792 1.93287 
120 1 7.20522 8.39342 3.09527 
123 1 3.79084 6.36197 9.77051 
129 1 6.67201 6.96368 0.784046 
132 1 6.72285 9.16385 8.62004 
135 1 7.37059 6.94311 7.53657 
141 1 7.18511 6.22101 10.9606 
144 1 6.51915 8.38262 9.81094 
148 1 3.64388 7.77759 0.838572 
7 1 9.14282 6.0718 11.9233 
10 1 3.77185 9.81031 21.6142 
13 1 2.42448 9.83724 22.0787 
15 1 3.03028 8.32526 17.8763 
28 1 3.75221 9.76981 20.1392 
30 1 4.48315 8.56595 19.7546 
34 1 4.32674 6.32837 18.5936 
40 1 7.74052 8.36649 11.9224 
49 1 4.86258 7.76163 20.9038 
50 1 2.09602 9.24761 18.5278 
58 1 1.5901 10.0951 11.85 
59 1 4.34929 7.82256 14.2462 
69 1 3.76377 9.83125 11.1121 
73 1 3.00069 8.34025 14.8885 
75 1 5.00047 6.31515 11.8808 
79 1 7.18968 6.22138 21.806 
82 1 7.88979 6.94804 20.8508 
86 1 3.71901 9.79851 12.6145 
88 1 2.38492 10.021 13.0627 