ITEM: TIMESTEP
0
ITEM: NUMBER OF ATOMS
75
ITEM: BOX BOUNDS pp pp pp
0.0000000000000000e+00 1.3600000000000000e+01
0.0000000000000000e+00 1.3600000000000000e+01
0.0000000000000000e+00 1.3600000000000000e+01
ITEM: ATOMS id type x y z 
1 1 6.672 0.882 7.682 
2 1 6.673 1.896 8.696 
3 1 6.672 2.763 9.563 
7 1 6.673 5.663 12.463 
8 1 6.672 4.65 11.449 
9 1 6.672 3.783 10.582 
49 1 5.663 6.673 12.463 
50 1 4.65 6.672 11.449 
51 1 3.783 6.672 10.582 
55 1 0.882 6.672 7.682 
56 1 1.896 6.673 8.696 
57 1 2.763 6.672 9.563 
25 1 0.882 7.682 6.672 
26 1 1.896 8.696 6.673 
27 1 2.763 9.563 6.672 
31 1 5.663 12.463 6.673 
32 1 4.65 11.449 6.672 
33 1 3.783 10.582 6.672 
37 1 6.673 12.463 5.663 
38 1 6.672 11.449 4.65 
39 1 6.672 10.582 3.783 
43 1 6.672 7.682 0.882 
44 1 6.673 8.696 1.896 
45 1 6.672 9.563 2.763 
28 1 5.662 7.683 13.473 
29 1 4.649 8.696 13.472 
30 1 3.781 9.563 13.471 
34 1 0.882 12.462 13.473 
35 1 1.896 11.449 13.472 
36 1 2.763 10.582 13.472 
52 1 5.662 13.473 7.683 
53 1 4.649 13.472 8.696 
54 1 3.781 13.472 9.563 
58 1 0.882 13.472 12.462 
59 1 1.896 13.472 11.449 
60 1 2.763 13.472 10.582 
13 1 7.682 6.672 0.882 
14 1 8.696 6.673 1.896 
15 1 9.563 6.672 2.763 
19 1 12.463 6.673 5.663 
20 1 11.449 6.672 4.65 
21 1 10.582 6.672 3.783 
61 1 12.463 5.663 6.673 
62 1 11.449 4.65 6.672 
63 1 10.582 3.783 6.672 
67 1 7.682 0.882 6.672 
68 1 8.696 1.896 6.673 
69 1 9.563 2.763 6.672 
4 1 13.473 5.662 7.683 
5 1 13.472 4.649 8.696 
6 1 13.471 3.781 9.563 
10 1 13.473 0.883 12.462 
11 1 13.473 1.896 11.449 
12 1 13.472 2.763 10.582 
64 1 7.683 5.662 13.473 
65 1 8.696 4.649 13.472 
66 1 9.563 3.781 13.471 
70 1 12.462 0.883 13.473 
71 1 11.449 1.896 13.473 
72 1 10.582 2.763 13.472 
73 2 7.677 0.22 8.328 
16 1 7.683 13.473 5.662 
17 1 8.696 13.472 4.649 
18 1 9.563 13.471 3.781 
22 1 12.462 13.473 0.882 
23 1 11.449 13.473 1.896 
24 1 10.582 13.472 2.763 
40 1 13.473 7.683 5.662 
41 1 13.472 8.696 4.649 
42 1 13.471 9.563 3.781 
46 1 13.473 12.462 0.882 
47 1 13.473 11.449 1.896 
48 1 13.472 10.582 2.763 
74 2 8.615 12.644 8.436 
75 3 8.869 13.265 9.153 
ITEM: TIMESTEP
10
ITEM: NUMBER OF ATOMS
75
ITEM: BOX BOUNDS pp pp pp
0.0000000000000000e+00 1.3600000000000000e+01
0.0000000000000000e+00 1.3600000000000000e+01
0.0000000000000000e+00 1.3600000000000000e+01
ITEM: ATOMS id type x y z 
1 1 6.67888 0.882714 7.70362 
2 1 6.66577 1.91858 8.70989 
3 1 6.67085 2.77729 9.57404 
7 1 6.67287 5.65392 12.4538 
8 1 6.67144 4.64849 11.4471 
9 1 6.67228 3.78486 10.5845 
49 1 5.64181 6.67697 12.4458 
50 1 4.63838 6.67186 11.4372 
51 1 3.77233 6.6721 10.5717 
55 1 0.898138 6.67203 7.69889 
56 1 1.90774 6.67396 8.7051 
57 1 2.77167 6.6715 9.57289 
25 1 0.897674 7.69804 6.6724 
26 1 1.90683 8.70417 6.67401 
27 1 2.77059 9.57172 6.67153 
31 1 5.64307 12.443 6.67307 
32 1 4.63674 11.4353 6.67153 
33 1 3.77177 10.5709 6.67175 
37 1 6.66733 12.4387 5.6454 
38 1 6.67085 11.4363 4.63901 
39 1 6.67199 10.5709 3.77134 
43 1 6.67243 7.69939 0.899054 
44 1 6.674 8.70509 1.90773 
45 1 6.67151 9.57278 2.77164 
28 1 5.64597 7.70074 13.4729 
29 1 4.63831 8.70811 13.477 
30 1 3.77125 9.57219 13.4686 
34 1 0.898518 12.447 13.4716 
35 1 1.90662 11.4388 13.4713 
36 1 2.77198 10.5725 13.4721 
52 1 5.58962 13.4423 7.69455 
53 1 4.63301 13.4746 8.70625 
54 1 3.76995 13.4714 9.57705 
58 1 0.899259 13.473 12.4456 
59 1 1.90847 13.4669 11.438 
60 1 2.77403 13.4743 10.5706 
13 1 7.69884 6.67377 0.899922 
14 1 8.70558 6.67413 1.90819 
15 1 9.57318 6.67144 2.772 
19 1 12.4463 6.67191 5.64742 
20 1 11.4378 6.67132 4.63935 
21 1 10.5725 6.67233 3.77305 
61 1 12.4444 5.64473 6.67277 
62 1 11.4351 4.63613 6.67173 
63 1 10.5688 3.76887 6.67245 
67 1 7.73097 0.925841 6.61543 
68 1 8.704 1.91981 6.66917 
69 1 9.58298 2.77648 6.67488 
4 1 13.4705 5.64637 7.69797 
5 1 13.4769 4.63878 8.70739 
6 1 13.4685 3.77185 9.57185 
10 1 13.473 0.899443 12.4473 
11 1 13.4752 1.90393 11.4352 
12 1 13.4706 2.77401 10.5737 
64 1 7.70352 5.64586 13.4758 
65 1 8.70863 4.63823 13.477 
66 1 9.57256 3.77084 13.4685 
70 1 12.4469 0.900961 13.472 
71 1 11.4355 1.90367 13.4751 
72 1 10.5739 2.77383 13.4706 
73 2 7.69184 0.235169 8.37177 
16 1 7.7011 13.4683 5.63835 
17 1 8.71195 13.4728 4.63359 
18 1 9.57538 13.4704 3.76911 
22 1 12.4478 13.4726 0.898675 
23 1 11.4378 13.4751 1.90107 
24 1 10.5766 13.471 2.77118 
40 1 13.4712 7.69901 5.64592 
41 1 13.4769 8.70758 4.63875 
42 1 13.4685 9.57193 3.77172 
46 1 13.4733 12.4463 0.899545 
47 1 13.4751 11.4352 1.90352 
48 1 13.4707 10.5739 2.77395 
74 2 8.64135 12.6381 8.45826 
75 3 8.85751 13.2416 9.12935 
ITEM: TIMESTEP
20
ITEM: NUMBER OF ATOMS
75
ITEM: BOX BOUNDS pp pp pp
0.0000000000000000e+00 1.3600000000000000e+01
0.0000000000000000e+00 1.3600000000000000e+01
0.0000000000000000e+00 1.3600000000000000e+01
ITEM: ATOMS id type x y z 
1 1 6.6694 0.863338 7.69954 
2 1 6.65533 1.91785 8.72111 
3 1 6.66238 2.79299 9.56942 
7 1 6.67236 5.66625 12.4662 
8 1 6.67211 4.65888 11.4573 
9 1 6.67312 3.7943 10.5927 
49 1 5.63758 6.68235 12.4464 
50 1 4.63531 6.67284 11.436 
51 1 3.77053 6.67156 10.5702 
55 1 0.898163 6.66966 7.70008 
56 1 1.90581 6.67414 8.70548 
57 1 2.77119 6.67165 9.57063 
25 1 0.895184 7.69462 6.67171 
26 1 1.89909 8.69894 6.67495 
27 1 2.76442 9.56382 6.67147 
31 1 5.64363 12.4401 6.66378 
32 1 4.63153 11.4244 6.66351 
33 1 3.76452 10.5629 6.67194 
37 1 6.6661 12.4285 5.64184 
38 1 6.67171 11.4334 4.63695 
39 1 6.67129 10.5695 3.77009 
43 1 6.67205 7.70127 0.902147 
44 1 6.67499 8.70562 1.90578 
45 1 6.67126 9.57107 2.77153 
28 1 5.64509 7.70534 13.476 
29 1 4.63601 8.7099 13.4773 
30 1 3.76972 9.57506 13.4699 
34 1 0.899399 12.4442 13.4731 
35 1 1.90701 11.4394 13.4712 
36 1 2.77065 10.5726 13.4711 
52 1 5.56847 13.45 7.67481 
53 1 4.61411 13.4734 8.70096 
54 1 3.76615 13.4735 9.58681 
58 1 0.896895 13.4728 12.4485 
59 1 1.90092 13.4679 11.4447 
60 1 2.768 13.4718 10.5803 
13 1 7.70017 6.67588 0.904473 
14 1 8.70862 6.67567 1.91049 
15 1 9.57509 6.67152 2.77518 
19 1 12.4448 6.67414 5.64371 
20 1 11.4378 6.67148 4.63918 
21 1 10.573 6.67183 3.77293 
61 1 12.4502 5.65059 6.67298 
62 1 11.4448 4.64524 6.67119 
63 1 10.5808 3.7764 6.67464 
67 1 7.71519 0.939757 6.57933 
68 1 8.70359 1.92502 6.64713 
69 1 9.58577 2.78199 6.68139 
4 1 13.4735 5.6447 7.70242 
5 1 13.4756 4.63759 8.708 
6 1 13.4693 3.7723 9.57347 
10 1 13.4735 0.902815 12.4442 
11 1 13.4736 1.90487 11.4337 
12 1 13.4712 2.77413 10.572 
64 1 7.70835 5.64764 13.4822 
65 1 8.71014 4.63707 13.4776 
66 1 9.57447 3.77097 13.4688 
70 1 12.4485 0.902605 13.4701 
71 1 11.436 1.9029 13.4728 
72 1 10.5742 2.77182 13.4711 
73 2 7.71796 0.273676 8.43819 
16 1 7.69593 13.468 5.63218 
17 1 8.71314 13.4636 4.61991 
18 1 9.58514 13.4688 3.76193 
22 1 12.4526 13.4735 0.893972 
23 1 11.4455 13.4738 1.89299 
24 1 10.5847 13.4718 2.76313 
40 1 13.4699 7.70014 5.644 
41 1 13.4758 8.7068 4.63751 
42 1 13.469 9.57341 3.7731 
46 1 13.4776 12.4429 0.900057 
47 1 13.4738 11.4336 1.90371 
48 1 13.4713 10.5729 2.7738 
74 2 8.69247 12.5862 8.47091 
75 3 8.85264 13.222 9.12216 
ITEM: TIMESTEP
30
ITEM: NUMBER OF ATOMS
75
ITEM: BOX BOUNDS pp pp pp
0.0000000000000000e+00 1.3600000000000000e+01
0.0000000000000000e+00 1.3600000000000000e+01
0.0000000000000000e+00 1.3600000000000000e+01
ITEM: ATOMS id type x y z 
1 1 6.56108 0.983633 7.62721 
2 1 6.63607 1.93047 8.63238 
3 1 6.63409 2.80612 9.60726 
7 1 6.67093 5.64571 12.4529 
8 1 6.67596 4.65869 11.4388 
9 1 6.66484 3.77567 10.5649 
49 1 5.62863 6.68807 12.4494 
50 1 4.63898 6.67704 11.4381 
51 1 3.76937 6.67145 10.5715 
55 1 0.895459 6.66584 7.70193 
56 1 1.91149 6.67554 8.70736 
57 1 2.77103 6.6701 9.57194 
25 1 0.885947 7.68557 6.67228 
26 1 1.90085 8.69301 6.68038 
27 1 2.76114 9.56153 6.67256 
31 1 5.62488 12.446 6.64559 
32 1 4.64266 11.4235 6.63966 
33 1 3.77538 10.5656 6.66595 
37 1 6.6759 12.4455 5.66268 
38 1 6.67479 11.4345 4.64587 
39 1 6.67226 10.5867 3.78884 
43 1 6.67172 7.70631 0.905332 
44 1 6.67986 8.70799 1.91603 
45 1 6.66894 9.57786 2.77489 
28 1 5.64435 7.70939 13.4855 
29 1 4.64951 8.72485 13.4898 
30 1 3.76208 9.57222 13.4688 
34 1 0.89985 12.4468 13.4692 
35 1 1.90789 11.4428 13.4633 
36 1 2.76826 10.571 13.4715 
52 1 5.55403 13.5057 7.61698 
53 1 4.58543 13.4698 8.65779 
54 1 3.77051 13.4741 9.57579 
58 1 0.896724 13.4681 12.448 
59 1 1.91772 13.4607 11.4489 
60 1 2.77718 13.4734 10.581 
13 1 7.69617 6.6861 0.910535 
14 1 8.7026 6.68557 1.91551 
15 1 9.5778 6.67054 2.77569 
19 1 12.4432 6.66493 5.6519 
20 1 11.4389 6.66503 4.64064 
21 1 10.5745 6.67292 3.77354 
61 1 12.4379 5.63468 6.67087 
62 1 11.4297 4.62812 6.67553 
63 1 10.5652 3.75504 6.68951 
67 1 7.61974 0.976155 6.61096 
68 1 8.67847 1.90169 6.59812 
69 1 9.56543 2.77857 6.66921 
4 1 13.4636 5.64408 7.69121 
5 1 13.4804 4.6467 8.71117 
6 1 13.4647 3.77523 9.56591 
10 1 13.4702 0.893871 12.44 
11 1 13.4963 1.91107 11.4359 
12 1 13.4604 2.77181 10.5665 
64 1 7.71131 5.64573 13.489 
65 1 8.72221 4.65452 13.4945 
66 1 9.56729 3.76721 13.4618 
70 1 12.4408 0.895689 13.462 
71 1 11.4408 1.92004 13.4952 
72 1 10.5643 2.76669 13.4572 
73 2 8.0476 0.215536 8.70289 
16 1 7.6826 13.5018 5.61232 
17 1 8.69224 13.448 4.61349 
18 1 9.57916 13.4589 3.76335 
22 1 12.4505 13.4642 0.882667 
23 1 11.4525 13.5016 1.90913 
24 1 10.5798 13.4578 2.763 
40 1 13.4699 7.69032 5.63635 
41 1 13.4727 8.72804 4.65758 
42 1 13.4672 9.56571 3.76204 
46 1 13.4683 12.435 0.890864 
47 1 13.5122 11.4413 1.91581 
48 1 13.4533 10.5646 2.76805 
74 2 8.86462 12.4274 8.52497 
75 3 8.74654 13.2325 9.06687 
ITEM: TIMESTEP
40
ITEM: NUMBER OF ATOMS
75
ITEM: BOX BOUNDS pp pp pp
0.0000000000000000e+00 1.3600000000000000e+01
0.0000000000000000e+00 1.3600000000000000e+01
0.0000000000000000e+00 1.3600000000000000e+01
ITEM: ATOMS id type x y z 
1 1 6.56221 0.98826 7.61538 
2 1 6.61606 1.95403 8.65518 
3 1 6.64281 2.78587 9.57383 
7 1 6.67363 5.65607 12.4496 
8 1 6.67012 4.64849 11.4551 
9 1 6.66594 3.7876 10.5701 
49 1 5.64582 6.67649 12.4528 
50 1 4.64166 6.67293 11.4419 
51 1 3.77587 6.67351 10.5779 
55 1 0.895621 6.66581 7.70184 
56 1 1.90785 6.67377 8.70561 
57 1 2.77075 6.6712 9.5709 
25 1 0.890929 7.69006 6.67277 
26 1 1.89924 8.69275 6.67816 
27 1 2.76277 9.55987 6.67441 
31 1 5.63002 12.4561 6.64841 
32 1 4.63727 11.4236 6.64231 
33 1 3.7702 10.5597 6.66364 
37 1 6.67668 12.4474 5.65423 
38 1 6.67565 11.4428 4.65176 
39 1 6.67301 10.5787 3.7829 
43 1 6.67138 7.70449 0.903391 
44 1 6.67745 8.70791 1.9133 
45 1 6.67082 9.57718 2.77617 
28 1 5.6508 7.70337 13.479 
29 1 4.64521 8.71463 13.4899 
30 1 3.77251 9.5704 13.4703 
34 1 0.897712 12.4472 13.4695 
35 1 1.90619 11.4412 13.4644 
36 1 2.76684 10.5734 13.4695 
52 1 5.56254 13.5146 7.6258 
53 1 4.59076 13.4747 8.65885 
54 1 3.76822 13.4745 9.56685 
58 1 0.899113 13.4718 12.4443 
59 1 1.91473 13.4636 11.4466 
60 1 2.78076 13.4703 10.5828 
13 1 7.69384 6.67962 0.901977 
14 1 8.7023 6.6832 1.91292 
15 1 9.57264 6.67295 2.77192 
19 1 12.4437 6.66501 5.65007 
20 1 11.4391 6.66348 4.64166 
21 1 10.5765 6.6727 3.77514 
61 1 12.4368 5.63397 6.67115 
62 1 11.4285 4.62533 6.67763 
63 1 10.5682 3.7584 6.68925 
67 1 7.62484 0.965843 6.60616 
68 1 8.67629 1.91818 6.60769 
69 1 9.55235 2.76215 6.66191 
4 1 13.4663 5.64439 7.69419 
5 1 13.4772 4.64447 8.70777 
6 1 13.4652 3.77598 9.56891 
10 1 13.4747 0.901652 12.4427 
11 1 13.4837 1.89824 11.4271 
12 1 13.4679 2.77606 10.5732 
64 1 7.6976 5.65277 13.4779 
65 1 8.71131 4.65261 13.4908 
66 1 9.56516 3.77675 13.4634 
70 1 12.4473 0.902885 13.4685 
71 1 11.4301 1.90082 13.4816 
72 1 10.5734 2.77334 13.4644 
73 2 8.07856 0.174881 8.70626 
16 1 7.67749 13.5026 5.62346 
17 1 8.69285 13.4584 4.6147 
18 1 9.57547 13.4544 3.76428 
22 1 12.4513 13.4738 0.892102 
23 1 11.4396 13.4873 1.89372 
24 1 10.5882 13.4662 2.7718 
40 1 13.4648 7.69703 5.64516 
41 1 13.484 8.71047 4.64707 
42 1 13.4577 9.56979 3.77543 
46 1 13.476 12.4441 0.898439 
47 1 13.4942 11.4288 1.89833 
48 1 13.4653 10.5733 2.77309 
74 2 8.84501 12.4584 8.52673 
75 3 8.75258 13.2314 9.07425 
ITEM: TIMESTEP
50
ITEM: NUMBER OF ATOMS
75
ITEM: BOX BOUNDS pp pp pp
0.0000000000000000e+00 1.3600000000000000e+01
0.0000000000000000e+00 1.3600000000000000e+01
0.0000000000000000e+00 1.3600000000000000e+01
ITEM: ATOMS id type x y z 
1 1 6.56208 0.989457 7.6095 
2 1 6.60989 1.95702 8.66059 
3 1 6.64355 2.78448 9.56237 
7 1 6.67177 5.65261 12.4537 
8 1 6.67847 4.6447 11.44 
9 1 6.66085 3.7805 10.5733 
49 1 5.64713 6.67596 12.452 
50 1 4.64002 6.67295 11.4411 
51 1 3.77434 6.67326 10.576 
55 1 0.896288 6.66634 7.70157 
56 1 1.90706 6.67276 8.70604 
57 1 2.77216 6.67187 9.57221 
25 1 0.889449 7.68881 6.6734 
26 1 1.90113 8.69538 6.67725 
27 1 2.76569 9.56058 6.67511 
31 1 5.62418 12.4537 6.65048 
32 1 4.63734 11.4283 6.64441 
33 1 3.77428 10.5633 6.66244 
37 1 6.67667 12.4538 5.65513 
38 1 6.67502 11.4413 4.64824 
39 1 6.67415 10.5774 3.78317 
43 1 6.67213 7.70504 0.904473 
44 1 6.67626 8.70997 1.91411 
45 1 6.67176 9.57666 2.77692 
28 1 5.6478 7.70306 13.4781 
29 1 4.64526 8.71418 13.4858 
30 1 3.77201 9.57104 13.4729 
34 1 0.896997 12.4472 13.4703 
35 1 1.90548 11.4409 13.4653 
36 1 2.76796 10.5729 13.4685 
52 1 5.57446 13.5224 7.62659 
53 1 4.59321 13.4792 8.65984 
54 1 3.76735 13.4743 9.56194 
58 1 0.898349 13.4732 12.4443 
59 1 1.91414 13.4657 11.4462 
60 1 2.78143 13.4683 10.5833 
13 1 7.69665 6.67851 0.903748 
14 1 8.70276 6.68187 1.91185 
15 1 9.57241 6.67415 2.77246 
19 1 12.4446 6.66453 5.65019 
20 1 11.4383 6.66458 4.64282 
21 1 10.5763 6.67152 3.77416 
61 1 12.4369 5.63453 6.67155 
62 1 11.4308 4.62622 6.67863 
63 1 10.5683 3.75809 6.6883 
67 1 7.61676 0.959853 6.60888 
68 1 8.67045 1.91936 6.61438 
69 1 9.55375 2.76495 6.65831 
4 1 13.4664 5.64409 7.69391 
5 1 13.4744 4.64378 8.70717 
6 1 13.4666 3.77632 9.57018 
10 1 13.4728 0.899442 12.4426 
11 1 13.484 1.90213 11.4315 
12 1 13.4675 2.77233 10.5714 
64 1 7.69595 5.65223 13.4764 
65 1 8.71191 4.64971 13.486 
66 1 9.56859 3.77609 13.4662 
70 1 12.4467 0.901483 13.4691 
71 1 11.4326 1.90308 13.4794 
72 1 10.5708 2.77208 13.465 
73 2 8.08608 0.161487 8.70442 
16 1 7.67914 13.5016 5.62131 
17 1 8.6932 13.4632 4.61897 
18 1 9.5711 13.4543 3.76747 
22 1 12.4519 13.4745 0.891495 
23 1 11.441 13.4846 1.89729 
24 1 10.5849 13.4661 2.77142 
40 1 13.467 7.69458 5.64548 
41 1 13.4773 8.71181 4.6477 
42 1 13.4615 9.56983 3.77533 
46 1 13.4753 12.4456 0.899551 
47 1 13.4882 11.43 1.89854 
48 1 13.4676 10.5728 2.77168 
74 2 8.83608 12.4675 8.52307 
75 3 8.76448 13.2287 9.08758 
ITEM: TIMESTEP
60
ITEM: NUMBER OF ATOMS
75
ITEM: BOX BOUNDS pp pp pp
0.0000000000000000e+00 1.3600000000000000e+01
0.0000000000000000e+00 1.3600000000000000e+01
0.0000000000000000e+00 1.3600000000000000e+01
ITEM: ATOMS id type x y z 
1 1 6.56057 0.994174 7.60545 
2 1 6.60261 1.95874 8.65658 
3 1 6.64202 2.78711 9.55612 
7 1 6.67242 5.65049 12.4504 
8 1 6.67761 4.64103 11.4409 
9 1 6.6623 3.77853 10.5732 
49 1 5.64771 6.67524 12.4504 
50 1 4.64005 6.67233 11.4419 
51 1 3.77548 6.67348 10.5765 
55 1 0.896584 6.66686 7.70106 
56 1 1.90643 6.67167 8.70676 
57 1 2.77186 6.67235 9.57217 
25 1 0.89109 7.69075 6.67396 
26 1 1.90165 8.69607 6.67633 
27 1 2.76799 9.56054 6.67551 
31 1 5.62341 12.4563 6.65101 
32 1 4.63413 11.4313 6.64774 
33 1 3.7736 10.5616 6.66113 
37 1 6.67413 12.4536 5.64918 
38 1 6.6734 11.4418 4.64658 
39 1 6.67621 10.5751 3.78289 
43 1 6.67233 7.70423 0.903742 
44 1 6.67476 8.70974 1.91261 
45 1 6.6731 9.57547 2.77747 
28 1 5.64742 7.70121 13.4762 
29 1 4.64352 8.71152 13.4824 
30 1 3.77353 9.57177 13.4744 
34 1 0.896687 12.4472 13.4707 
35 1 1.90497 11.4402 13.4665 
36 1 2.7685 10.573 13.468 
52 1 5.57788 13.5262 7.63134 
53 1 4.59601 13.4854 8.66225 
54 1 3.76354 13.474 9.55868 
58 1 0.899199 13.4738 12.4449 
59 1 1.91346 13.4672 11.4451 
60 1 2.78213 13.4668 10.583 
13 1 7.69719 6.67676 0.902314 
14 1 8.70347 6.68019 1.91061 
15 1 9.57165 6.67515 2.7726 
19 1 12.4452 6.6646 5.65038 
20 1 11.4387 6.66552 4.64272 
21 1 10.5762 6.6707 3.77465 
61 1 12.4373 5.63584 6.67312 
62 1 11.4322 4.62564 6.67716 
63 1 10.5688 3.7585 6.68716 
67 1 7.61788 0.960769 6.60844 
68 1 8.66543 1.92569 6.62232 
69 1 9.55384 2.76667 6.6549 
4 1 13.467 5.64469 7.69441 
5 1 13.4718 4.64199 8.70625 
6 1 13.4677 3.7763 9.57094 
10 1 13.4726 0.898889 12.444 
11 1 13.4797 1.90273 11.4336 
12 1 13.4697 2.77092 10.5717 
64 1 7.6971 5.65153 13.476 
65 1 8.70921 4.64763 13.481 
66 1 9.5695 3.77776 13.469 
70 1 12.4465 0.900809 13.4693 
71 1 11.4343 1.90447 13.475 
72 1 10.5704 2.77112 13.467 
73 2 8.09936 0.146982 8.70903 
16 1 7.6785 13.5001 5.62101 
17 1 8.69482 13.4691 4.62152 
18 1 9.57124 13.4552 3.76789 
22 1 12.4517 13.4751 0.89435 
23 1 11.4418 13.4792 1.90008 
24 1 10.5819 13.4661 2.77049 
40 1 13.4668 7.69443 5.64675 
41 1 13.4725 8.70831 4.64528 
42 1 13.4646 9.57063 3.77722 
46 1 13.4743 12.4462 0.899136 
47 1 13.4818 11.4326 1.90094 
48 1 13.4699 10.5718 2.77037 
74 2 8.8286 12.4756 8.51994 
75 3 8.77756 13.2228 9.10037 
ITEM: TIMESTEP
70
ITEM: NUMBER OF ATOMS
75
ITEM: BOX BOUNDS pp pp pp
0.0000000000000000e+00 1.3600000000000000e+01
0.0000000000000000e+00 1.3600000000000000e+01
0.0000000000000000e+00 1.3600000000000000e+01
ITEM: ATOMS id type x y z 
1 1 6.55996 0.996066 7.60293 
2 1 6.60167 1.96057 8.65227 
3 1 6.63794 2.78852 9.55265 
7 1 6.67445 5.6495 12.4469 
8 1 6.67318 4.63718 11.4446 
9 1 6.66586 3.78005 10.572 
49 1 5.64755 6.67457 12.4499 
50 1 4.64102 6.6728 11.4421 
51 1 3.77534 6.67316 10.5766 
55 1 0.896593 6.66708 7.70092 
56 1 1.90628 6.6712 8.70735 
57 1 2.77119 6.67249 9.57172 
25 1 0.891775 7.69198 6.67388 
26 1 1.90272 8.69685 6.67603 
27 1 2.76865 9.56005 6.67521 
31 1 5.62349 12.4591 6.65108 
32 1 4.63297 11.434 6.64965 
33 1 3.77412 10.5614 6.66086 
37 1 6.67087 12.4544 5.64704 
38 1 6.67358 11.4425 4.64498 
39 1 6.67687 10.5737 3.78338 
43 1 6.67214 7.70308 0.902459 
44 1 6.67407 8.70916 1.91151 
45 1 6.67396 9.57406 2.7772 
28 1 5.64768 7.70026 13.4754 
29 1 4.64261 8.70953 13.4808 
30 1 3.77424 9.57248 13.4744 
34 1 0.89682 12.4469 13.471 
35 1 1.9052 11.4395 13.4674 
36 1 2.76847 10.5733 13.4681 
52 1 5.57822 13.5258 7.63191 
53 1 4.59776 13.4892 8.66313 
54 1 3.76155 13.474 9.55739 
58 1 0.899435 13.4739 12.4459 
59 1 1.91344 13.4677 11.4444 
60 1 2.78117 13.4663 10.5827 
13 1 7.69722 6.67651 0.901573 
14 1 8.70366 6.67926 1.90983 
15 1 9.57149 6.67524 2.77291 
19 1 12.4451 6.66458 5.65043 
20 1 11.4384 6.6659 4.64216 
21 1 10.5759 6.67063 3.77481 
61 1 12.438 5.63652 6.67266 
62 1 11.4325 4.62589 6.67911 
63 1 10.5696 3.75893 6.6838 
67 1 7.61858 0.961433 6.60696 
68 1 8.66251 1.92921 6.62604 
69 1 9.55339 2.76789 6.65421 
4 1 13.4674 5.64475 7.69542 
5 1 13.4707 4.64083 8.70587 
6 1 13.4681 3.77595 9.57096 
10 1 13.4729 0.898853 12.4449 
11 1 13.4767 1.90219 11.4343 
12 1 13.4713 2.7711 10.5724 
64 1 7.69774 5.65123 13.4754 
65 1 8.7077 4.64642 13.4788 
66 1 9.56964 3.77799 13.4703 
70 1 12.4462 0.900656 13.4699 
71 1 11.435 1.9046 13.4725 
72 1 10.5713 2.77107 13.4681 
73 2 8.10732 0.142136 8.71526 
16 1 7.67699 13.5001 5.62203 
17 1 8.69496 13.4726 4.62314 
18 1 9.57107 13.4565 3.76914 
22 1 12.4515 13.4755 0.896074 
23 1 11.4416 13.476 1.90125 
24 1 10.5806 13.4657 2.77021 
40 1 13.4668 7.69527 5.64774 
41 1 13.4709 8.70579 4.64338 
42 1 13.4657 9.57064 3.77789 
46 1 13.4736 12.446 0.899038 
47 1 13.4789 11.4341 1.90254 
48 1 13.4709 10.5718 2.77039 
74 2 8.82718 12.4765 8.51837 
75 3 8.78508 13.2175 9.10647 
ITEM: TIMESTEP
76
ITEM: NUMBER OF ATOMS
75
ITEM: BOX BOUNDS pp pp pp
0.0000000000000000e+00 1.3600000000000000e+01
0.0000000000000000e+00 1.3600000000000000e+01
0.0000000000000000e+00 1.3600000000000000e+01
ITEM: ATOMS id type x y z 
1 1 6.56004 0.996272 7.60235 
2 1 6.60115 1.96097 8.65243 
3 1 6.63775 2.7895 9.5521 
7 1 6.67322 5.64897 12.4482 
8 1 6.67595 4.63843 11.4422 
9 1 6.66418 3.77811 10.5725 
49 1 5.64783 6.67422 12.4498 
50 1 4.64066 6.67289 11.4416 
51 1 3.7753 6.67312 10.5767 
55 1 0.89657 6.6672 7.70083 
56 1 1.90605 6.67115 8.70719 
57 1 2.77146 6.67246 9.57203 
25 1 0.891725 7.69187 6.67404 
26 1 1.90258 8.69663 6.67599 
27 1 2.76912 9.56032 6.6751 
31 1 5.62303 12.4589 6.65085 
32 1 4.63268 11.4342 6.64995 
33 1 3.77463 10.5619 6.66089 
37 1 6.67052 12.4548 5.64675 
38 1 6.67359 11.4425 4.6446 
39 1 6.677 10.5734 3.78327 
43 1 6.67214 7.70307 0.902461 
44 1 6.67399 8.70904 1.91135 
45 1 6.67407 9.57376 2.7771 
28 1 5.64747 7.70014 13.4755 
29 1 4.64257 8.70987 13.4803 
30 1 3.77438 9.57211 13.4746 
34 1 0.896746 12.4469 13.4711 
35 1 1.90493 11.4397 13.4675 
36 1 2.76874 10.5732 13.4682 
52 1 5.57847 13.5261 7.63204 
53 1 4.59752 13.4897 8.66361 
54 1 3.76151 13.474 9.55709 
58 1 0.899594 13.4738 12.446 
59 1 1.91299 13.4677 11.4447 
60 1 2.78113 13.4663 10.5824 
13 1 7.69729 6.67647 0.901506 
14 1 8.70378 6.67913 1.90983 
15 1 9.57129 6.67522 2.77275 
19 1 12.4452 6.66479 5.65032 
20 1 11.4385 6.66595 4.6423 
21 1 10.5758 6.67063 3.77474 
61 1 12.438 5.63663 6.67275 
62 1 11.4333 4.62564 6.67973 
63 1 10.5694 3.75925 6.68306 
67 1 7.61842 0.961626 6.6069 
68 1 8.66238 1.9299 6.62649 
69 1 9.5533 2.7682 6.6542 
4 1 13.4674 5.64487 7.69536 
5 1 13.4706 4.64081 8.70577 
6 1 13.4682 3.77574 9.57111 
10 1 13.4725 0.898431 12.4448 
11 1 13.4772 1.90301 11.435 
12 1 13.4709 2.7706 10.5722 
64 1 7.69758 5.65117 13.4751 
65 1 8.70784 4.64613 13.4784 
66 1 9.56975 3.77776 13.4705 
70 1 12.4461 0.900314 13.4698 
71 1 11.4355 1.90516 13.4728 
72 1 10.571 2.77102 13.468 
73 2 8.10853 0.141741 8.71652 
16 1 7.6769 13.5 5.62169 
17 1 8.69502 13.473 4.62345 
18 1 9.57093 13.4568 3.76939 
22 1 12.4514 13.4753 0.895982 
23 1 11.4418 13.4759 1.90175 
24 1 10.5801 13.4654 2.7702 
40 1 13.467 7.69493 5.64759 
41 1 13.4702 8.70621 4.64371 
42 1 13.4661 9.57032 3.77749 
46 1 13.4735 12.446 0.898976 
47 1 13.4785 11.4342 1.90277 
48 1 13.471 10.5718 2.77056 
74 2 8.82723 12.4764 8.51815 
75 3 8.7862 13.2165 9.10726 
ITEM: TIMESTEP
77
ITEM: NUMBER OF ATOMS
75
ITEM: BOX BOUNDS pp pp pp
0.0000000000000000e+00 1.3600000000000000e+01
0.0000000000000000e+00 1.3600000000000000e+01
0.0000000000000000e+00 1.3600000000000000e+01
ITEM: ATOMS id type x y z 
1 1 6.56004 0.996272 7.60235 
2 1 6.60115 1.96097 8.65243 
3 1 6.63775 2.7895 9.5521 
7 1 6.67322 5.64897 12.4482 
8 1 6.67595 4.63843 11.4422 
9 1 6.66418 3.77811 10.5725 
49 1 5.64783 6.67422 12.4498 
50 1 4.64066 6.67289 11.4416 
51 1 3.7753 6.67312 10.5767 
55 1 0.89657 6.6672 7.70083 
56 1 1.90605 6.67115 8.70719 
57 1 2.77146 6.67246 9.57203 
25 1 0.891725 7.69187 6.67404 
26 1 1.90258 8.69663 6.67599 
27 1 2.76912 9.56032 6.6751 
31 1 5.62303 12.4589 6.65085 
32 1 4.63268 11.4342 6.64995 
33 1 3.77463 10.5619 6.66089 
37 1 6.67052 12.4548 5.64675 
38 1 6.67359 11.4425 4.6446 
39 1 6.677 10.5734 3.78327 
43 1 6.67214 7.70307 0.902461 
44 1 6.67399 8.70904 1.91135 
45 1 6.67407 9.57376 2.7771 
28 1 5.64747 7.70014 13.4755 
29 1 4.64257 8.70987 13.4803 
30 1 3.77438 9.57211 13.4746 
34 1 0.896746 12.4469 13.4711 
35 1 1.90493 11.4397 13.4675 
36 1 2.76874 10.5732 13.4682 
52 1 5.57847 13.5261 7.63204 
53 1 4.59752 13.4897 8.66361 
54 1 3.76151 13.474 9.55709 
58 1 0.899594 13.4738 12.446 
59 1 1.91299 13.4677 11.4447 
60 1 2.78113 13.4663 10.5824 
13 1 7.69729 6.67647 0.901505 
14 1 8.70378 6.67913 1.90983 
15 1 9.57129 6.67522 2.77275 
19 1 12.4452 6.66479 5.65032 
20 1 11.4385 6.66595 4.6423 
21 1 10.5758 6.67063 3.77474 
61 1 12.438 5.63663 6.67275 
62 1 11.4333 4.62564 6.67973 
63 1 10.5694 3.75925 6.68305 
67 1 7.61842 0.961626 6.6069 
68 1 8.66238 1.9299 6.62649 
69 1 9.5533 2.76821 6.6542 
4 1 13.4674 5.64487 7.69536 
5 1 13.4706 4.64081 8.70577 
6 1 13.4682 3.77574 9.57111 
10 1 13.4725 0.898431 12.4448 
11 1 13.4772 1.90301 11.435 
12 1 13.4709 2.7706 10.5722 
64 1 7.69758 5.65117 13.4751 
65 1 8.70784 4.64613 13.4784 
66 1 9.56975 3.77776 13.4705 
70 1 12.4461 0.900314 13.4698 
71 1 11.4355 1.90516 13.4728 
72 1 10.571 2.77102 13.468 
73 2 8.10853 0.141741 8.71652 
16 1 7.6769 13.5 5.62169 
17 1 8.69502 13.473 4.62345 
18 1 9.57093 13.4568 3.76939 
22 1 12.4514 13.4753 0.895982 
23 1 11.4418 13.4759 1.90175 
24 1 10.5801 13.4654 2.7702 
40 1 13.467 7.69493 5.64759 
41 1 13.4702 8.70621 4.64371 
42 1 13.4661 9.57032 3.77749 
46 1 13.4735 12.446 0.898976 
47 1 13.4785 11.4342 1.90277 
48 1 13.471 10.5718 2.77056 
74 2 8.82723 12.4764 8.51815 
75 3 8.7862 13.2165 9.10726 
ITEM: TIMESTEP
80
ITEM: NUMBER OF ATOMS
75
ITEM: BOX BOUNDS pp pp pp
-2.0400000000000006e-03 1.3602039999999997e+01
-1.9984742710461635e-03 1.3601998474271046e+01
-2.0089205997986933e-03 1.3602008920599799e+01
ITEM: ATOMS id type x y z 
1 1 6.55997 0.994562 7.60259 
2 1 6.60109 1.95955 8.65298 
3 1 6.63771 2.78832 9.55291 
7 1 6.67318 5.64863 12.4499 
8 1 6.67591 4.6378 11.4436 
9 1 6.66414 3.77722 10.5736 
49 1 5.64749 6.67418 12.4514 
50 1 4.64001 6.67285 11.4429 
51 1 3.77439 6.67309 10.5778 
55 1 0.894797 6.66716 7.7011 
56 1 1.90458 6.67111 8.70776 
57 1 2.77025 6.67243 9.57285 
25 1 0.889951 7.69213 6.674 
26 1 1.90111 8.69718 6.67596 
27 1 2.76791 9.56113 6.67506 
31 1 5.62268 12.4606 6.65081 
32 1 4.63203 11.4356 6.64991 
33 1 3.77373 10.5631 6.66084 
37 1 6.67048 12.4564 5.64641 
38 1 6.67355 11.4438 4.64397 
39 1 6.67696 10.5745 3.78238 
43 1 6.6721 7.70334 0.900716 
44 1 6.67395 8.7096 1.90991 
45 1 6.67403 9.57458 2.77591 
28 1 5.64713 7.7004 13.4775 
29 1 4.64193 8.71043 13.4822 
30 1 3.77347 9.57292 13.4765 
34 1 0.894973 12.4485 13.473 
35 1 1.90347 11.441 13.4695 
36 1 2.76753 10.5743 13.4701 
52 1 5.57811 13.5281 7.63229 
53 1 4.59686 13.4917 8.66417 
54 1 3.7606 13.476 9.55791 
58 1 0.897823 13.4758 12.4477 
59 1 1.91152 13.4696 11.4461 
60 1 2.77992 13.4683 10.5835 
13 1 7.69756 6.67643 0.899761 
14 1 8.70435 6.6791 1.90838 
15 1 9.57212 6.67518 2.77156 
19 1 12.4469 6.66475 5.64998 
20 1 11.4399 6.66592 4.64166 
21 1 10.5769 6.67059 3.77385 
61 1 12.4397 5.63628 6.67271 
62 1 11.4347 4.625 6.67969 
63 1 10.5705 3.75835 6.68302 
67 1 7.61866 0.959909 6.60684 
68 1 8.66294 1.92847 6.62644 
69 1 9.55412 2.76702 6.65416 
4 1 13.4694 5.64453 7.69562 
5 1 13.4726 4.64017 8.70634 
6 1 13.4702 3.77485 9.57193 
10 1 13.4745 0.896695 12.4464 
11 1 13.4792 1.90157 11.4364 
12 1 13.4729 2.76942 10.5733 
64 1 7.69785 5.65084 13.477 
65 1 8.70841 4.6455 13.4804 
66 1 9.57058 3.77687 13.4725 
70 1 12.4478 0.898578 13.4718 
71 1 11.4369 1.90372 13.4747 
72 1 10.5722 2.76983 13.47 
73 2 8.10892 0.139783 8.71709 
16 1 7.67716 13.502 5.62134 
17 1 8.69559 13.475 4.62281 
18 1 9.57176 13.4587 3.7685 
22 1 12.4531 13.4773 0.894236 
23 1 11.4432 13.4779 1.9003 
24 1 10.5812 13.4673 2.76901 
40 1 13.469 7.69519 5.64725 
41 1 13.4722 8.70677 4.64307 
42 1 13.4681 9.57113 3.77659 
46 1 13.4755 12.4477 0.897231 
47 1 13.4805 11.4356 1.90133 
48 1 13.473 10.5729 2.76936 
74 2 8.82784 12.478 8.51865 
75 3 8.7868 13.2184 9.10795 
ITEM: TIMESTEP
90
ITEM: NUMBER OF ATOMS
75
ITEM: BOX BOUNDS pp pp pp
-4.6902702407140310e-03 1.3604690270240710e+01
-3.8713997633502838e-03 1.3603871399763349e+01
-4.3053179663805115e-03 1.3604305317966380e+01
ITEM: ATOMS id type x y z 
1 1 6.56 0.992325 7.60248 
2 1 6.60087 1.9584 8.65341 
3 1 6.63753 2.78696 9.55339 
7 1 6.67321 5.64874 12.4523 
8 1 6.67578 4.63713 11.4452 
9 1 6.66414 3.77668 10.5752 
49 1 5.64753 6.67411 12.4538 
50 1 4.63911 6.67282 11.4444 
51 1 3.77355 6.67305 10.5794 
55 1 0.89203 6.66715 7.70093 
56 1 1.90266 6.67106 8.70842 
57 1 2.7683 6.67238 9.57342 
25 1 0.887174 7.69189 6.67398 
26 1 1.89924 8.69772 6.6759 
27 1 2.76604 9.56155 6.67499 
31 1 5.62265 12.4627 6.65071 
32 1 4.63111 11.4369 6.64992 
33 1 3.77294 10.5645 6.66082 
37 1 6.67029 12.4585 5.64637 
38 1 6.67349 11.4451 4.64317 
39 1 6.67695 10.5758 3.78172 
43 1 6.67205 7.70307 0.898207 
44 1 6.67388 8.71009 1.90822 
45 1 6.67401 9.57494 2.7742 
28 1 5.64715 7.70019 13.4797 
29 1 4.64102 8.7109 13.4844 
30 1 3.7727 9.57333 13.4788 
34 1 0.892192 12.4506 13.4753 
35 1 1.90156 11.4423 13.4718 
36 1 2.76562 10.5757 13.4724 
52 1 5.57814 13.53 7.63215 
53 1 4.59599 13.4937 8.66488 
54 1 3.75975 13.4779 9.55839 
58 1 0.895071 13.4776 12.4501 
59 1 1.9096 13.4715 11.4476 
60 1 2.77792 13.4701 10.5852 
13 1 7.69745 6.67638 0.897269 
14 1 8.70513 6.67903 1.90673 
15 1 9.5728 6.67514 2.76981 
19 1 12.4495 6.66474 5.65005 
20 1 11.4417 6.6659 4.64089 
21 1 10.5787 6.67056 3.77319 
61 1 12.4424 5.6364 6.67274 
62 1 11.4366 4.62444 6.67975 
63 1 10.5724 3.7579 6.68281 
67 1 7.61857 0.957854 6.60675 
68 1 8.6636 1.92729 6.62649 
69 1 9.55479 2.76565 6.65409 
4 1 13.472 5.64471 7.69545 
5 1 13.4751 4.63955 8.70695 
6 1 13.4729 3.77434 9.57253 
10 1 13.4772 0.894595 12.4489 
11 1 13.4817 1.90017 11.4379 
12 1 13.4756 2.76799 10.575 
64 1 7.69772 5.65099 13.4793 
65 1 8.70915 4.64482 13.4826 
66 1 9.57131 3.77638 13.4748 
70 1 12.4505 0.896486 13.4741 
71 1 11.4386 1.90234 13.4769 
72 1 10.5741 2.76841 13.4723 
73 2 8.10971 0.137871 8.71804 
16 1 7.67695 13.5038 5.62138 
17 1 8.69636 13.4769 4.62207 
18 1 9.57246 13.4607 3.76791 
22 1 12.4557 13.4791 0.891813 
23 1 11.4449 13.4796 1.89872 
24 1 10.583 13.4691 2.7673 
40 1 13.4716 7.69502 5.64741 
41 1 13.4748 8.70714 4.64222 
42 1 13.4707 9.57159 3.77595 
46 1 13.4781 12.4497 0.894752 
47 1 13.483 11.4369 1.89973 
48 1 13.4756 10.5743 2.76768 
74 2 8.82865 12.4796 8.5192 
75 3 8.78783 13.2199 9.10889 
ITEM: TIMESTEP
100
ITEM: NUMBER OF ATOMS
75
ITEM: BOX BOUNDS pp pp pp
-5.9870746190009375e-03 1.3605987074618993e+01
-3.7748118512678920e-03 1.3603774811851265e+01
-4.8645771352608634e-03 1.3604864577135260e+01
ITEM: ATOMS id type x y z 
1 1 6.56005 0.99185 7.60213 
2 1 6.60081 1.95846 8.65342 
3 1 6.63731 2.78691 9.55313 
7 1 6.67323 5.64917 12.4532 
8 1 6.67567 4.63714 11.4456 
9 1 6.66415 3.77695 10.5757 
49 1 5.64777 6.67408 12.4547 
50 1 4.63873 6.67282 11.4448 
51 1 3.77324 6.67305 10.58 
55 1 0.890472 6.66719 7.70056 
56 1 1.90166 6.67105 8.70853 
57 1 2.76723 6.67237 9.57336 
25 1 0.885604 7.69143 6.67399 
26 1 1.89831 8.69767 6.67588 
27 1 2.76504 9.56122 6.67494 
31 1 5.62282 12.4632 6.65065 
32 1 4.6307 11.437 6.64998 
33 1 3.77268 10.5648 6.66083 
37 1 6.67012 12.459 5.64659 