ITEM: TIMESTEP
0
ITEM: NUMBER OF ATOMS
322
ITEM: BOX BOUNDS pp pp pp
0.0000000000000000e+00 1.9018000000000001e+01
0.0000000000000000e+00 1.9018000000000001e+01
0.0000000000000000e+00 1.9018000000000001e+01
ITEM: ATOMS id type x y z 
10 1 6.117 6.117 0.228 
22 1 0.228 6.117 6.117 
34 1 6.117 0.228 6.117 
89 1 3.299 4.982 1.363 
90 1 1.962 4.752 0.945 
97 1 4.982 3.299 1.363 
98 1 4.752 3.716 2.699 
105 1 3.299 1.362 4.982 
106 1 3.716 2.699 4.752 
121 1 4.982 1.362 3.299 
122 1 4.752 0.945 1.962 
125 1 8.053 8.053 0.228 
127 1 0.422 4.239 4.239 
130 1 4.239 0.422 4.239 
133 1 0.422 0.422 0.422 
136 1 4.239 4.239 0.422 
157 1 1.363 3.299 4.982 
158 1 0.945 1.962 4.752 
165 1 1.363 4.982 3.299 
166 1 2.699 4.752 3.716 
189 1 0.228 8.053 8.053 
207 1 8.053 0.228 8.053 
277 1 4.752 1.962 0.945 
284 1 3.716 4.752 2.699 
297 1 2.699 3.716 4.752 
306 1 0.945 4.752 1.962 
315 1 1.962 0.945 4.752 
319 1 4.752 2.699 3.716 
11 1 7.454 5.7 19.015 
16 1 4.433 6.117 17.562 
17 1 4.664 7.454 17.979 
25 1 6.117 4.433 17.562 
26 1 5.7 4.664 16.225 
39 1 8.994 8.994 18.502 
42 1 5.176 5.176 18.502 
43 1 1.363 1.362 18.696 
44 1 0.945 2.699 18.927 
45 1 5.176 8.994 14.685 
48 1 8.994 5.176 14.685 
79 1 3.299 3.299 18.696 
80 1 3.716 1.962 18.927 
85 1 3.299 9.187 12.807 
86 1 1.962 9.418 13.224 
95 1 9.187 3.299 12.807 
96 1 9.418 3.716 11.47 
119 1 9.187 1.362 10.871 
120 1 9.418 0.945 12.208 
126 1 6.716 8.47 19.015 
144 1 9.506 6.716 17.979 
148 1 8.47 9.506 16.225 
161 1 1.363 9.187 10.871 
162 1 2.699 9.418 10.454 
179 1 6.117 8.053 13.942 
180 1 7.454 8.47 14.173 
185 1 4.433 8.053 15.626 
186 1 4.664 6.716 15.209 
200 1 5.7 9.506 16.963 
201 1 8.053 4.433 15.626 
202 1 8.47 4.664 16.963 
215 1 8.053 6.117 13.942 
216 1 6.716 5.7 14.173 
220 1 9.506 7.454 15.209 
227 1 2.699 0.945 18.927 
240 1 5.7 7.454 19.015 
242 1 7.454 4.664 17.979 
245 1 4.664 5.7 16.225 
252 1 8.47 6.716 19.015 
254 1 6.716 9.506 17.979 
257 1 9.506 8.47 16.225 
264 1 8.47 7.454 14.173 
266 1 6.716 4.664 15.209 
269 1 9.506 5.7 16.963 
274 1 1.962 3.716 18.927 
279 1 9.418 1.962 13.224 
281 1 3.716 9.418 11.47 
288 1 5.7 6.716 14.173 
290 1 7.454 9.506 15.209 
293 1 4.664 8.47 16.963 
307 1 0.945 9.418 12.208 
317 1 9.418 2.699 10.454 
4 1 6.117 17.562 4.433 
5 1 7.454 17.979 4.664 
13 1 4.433 17.562 6.117 
14 1 4.664 16.225 5.7 
35 1 5.7 19.015 7.454 
51 1 8.994 18.502 8.994 
54 1 5.176 18.502 5.176 
55 1 1.363 18.696 1.363 
56 1 2.699 18.927 0.945 
57 1 8.994 14.685 5.176 
60 1 5.176 14.685 8.994 
93 1 9.187 10.871 1.363 
94 1 9.418 10.454 2.699 
103 1 3.299 12.807 9.187 
104 1 3.716 11.47 9.418 
113 1 3.299 18.696 3.299 
114 1 1.962 18.927 3.716 
117 1 9.187 12.807 3.299 
118 1 9.418 13.224 1.962 
131 1 8.053 15.626 4.433 
132 1 6.716 15.209 4.664 
142 1 9.506 16.963 5.7 
149 1 8.053 13.942 6.117 
150 1 8.47 14.173 7.454 
155 1 1.363 10.871 9.187 
156 1 0.945 12.208 9.418 
184 1 7.454 15.209 9.506 
187 1 4.433 15.626 8.053 
188 1 4.664 16.963 8.47 
193 1 6.117 13.942 8.053 
194 1 5.7 14.173 6.716 
208 1 8.47 19.015 6.716 
212 1 6.716 17.979 9.506 
218 1 9.506 16.225 8.47 
235 1 0.945 18.927 2.699 
237 1 5.7 16.225 4.664 
244 1 7.454 19.015 5.7 
246 1 4.664 17.979 7.454 
249 1 8.47 16.963 4.664 
256 1 6.716 14.173 5.7 
258 1 9.506 15.209 7.454 
261 1 8.47 16.225 9.506 
268 1 6.716 19.015 8.47 
270 1 9.506 17.979 6.716 
280 1 9.418 12.208 0.945 
285 1 5.7 16.963 9.506 
292 1 7.454 14.173 8.47 
294 1 4.664 15.209 6.716 
299 1 2.699 10.454 9.418 
311 1 3.716 18.927 1.962 
313 1 1.962 13.224 9.418 
318 1 9.418 11.47 3.716 
15 1 0.422 9.931 9.931 
18 1 0.422 13.748 13.748 
19 1 0.228 17.562 17.562 
21 1 4.239 9.931 13.748 
24 1 4.239 13.748 9.931 
40 1 1.363 12.807 14.491 
41 1 0.945 11.47 14.26 
49 1 1.363 14.491 12.807 
50 1 2.699 14.26 13.224 
76 1 3.299 10.871 14.491 
77 1 3.716 12.208 14.26 
99 1 4.982 10.871 12.807 
100 1 4.752 10.454 11.47 
109 1 3.299 14.491 10.871 
110 1 1.962 14.26 10.454 
123 1 4.982 12.807 10.871 
124 1 4.752 13.224 12.208 
147 1 8.053 9.737 17.562 
183 1 6.117 15.626 9.737 
191 1 0.228 15.626 15.626 
199 1 6.117 9.737 15.626 
211 1 8.053 17.562 9.737 
225 1 2.699 13.224 14.26 
234 1 0.945 14.26 11.47 
276 1 1.962 10.454 14.26 
278 1 4.752 12.208 13.224 
310 1 3.716 14.26 12.208 
320 1 4.752 11.47 10.454 
321 2 9.382 10.708 18.483 
322 3 9.44 11.487 17.9 
1 1 17.562 6.117 4.433 
2 1 16.225 5.7 4.664 
23 1 19.015 7.454 5.7 
28 1 17.562 4.433 6.117 
29 1 17.979 4.664 7.454 
63 1 18.502 8.994 8.994 
66 1 18.502 5.176 5.176 
67 1 18.696 1.362 1.363 
68 1 18.927 0.945 2.699 
69 1 14.685 5.176 8.994 
72 1 14.685 8.994 5.176 
87 1 10.871 9.187 1.363 
88 1 12.208 9.418 0.945 
101 1 10.871 1.362 9.187 
102 1 10.454 2.699 9.418 
134 1 15.626 8.053 4.433 
135 1 16.963 8.47 4.664 
139 1 13.942 8.053 6.117 
140 1 14.173 6.716 5.7 
146 1 15.209 9.506 7.454 
153 1 12.807 3.299 9.187 
154 1 13.224 1.962 9.418 
163 1 12.807 9.187 3.299 
164 1 11.47 9.418 3.716 
173 1 18.696 3.299 3.299 
174 1 18.927 3.716 1.962 
182 1 16.225 8.47 9.506 
190 1 19.015 6.716 8.47 
198 1 17.979 9.506 6.716 
203 1 15.626 4.433 8.053 
204 1 15.209 4.664 6.716 
210 1 16.963 5.7 9.506 
223 1 13.942 6.117 8.053 
224 1 14.173 7.454 8.47 
231 1 18.927 2.699 0.945 
238 1 17.979 7.454 4.664 
241 1 16.225 4.664 5.7 
248 1 19.015 5.7 7.454 
250 1 15.209 6.716 4.664 
253 1 16.963 9.506 5.7 
260 1 14.173 8.47 7.454 
262 1 15.209 7.454 9.506 
265 1 16.963 4.664 8.47 
272 1 14.173 5.7 6.716 
282 1 10.454 9.418 2.699 
286 1 17.979 6.716 9.506 
289 1 16.225 9.506 8.47 
296 1 19.015 8.47 6.716 
300 1 11.47 3.716 9.418 
304 1 18.927 1.962 3.716 
308 1 13.224 9.418 1.962 
314 1 12.208 0.945 9.418 
27 1 9.931 0.422 9.931 
30 1 13.748 0.422 13.748 
31 1 17.562 0.228 17.562 
33 1 13.748 4.239 9.931 
36 1 9.931 4.239 13.748 
37 1 12.807 1.362 14.491 
38 1 13.224 2.699 14.26 
64 1 14.491 1.362 12.807 
65 1 14.26 0.945 11.47 
73 1 10.871 3.299 14.491 
74 1 10.454 1.962 14.26 
91 1 10.871 4.982 12.807 
92 1 12.208 4.752 13.224 
143 1 9.737 8.053 17.562 
167 1 12.807 4.982 10.871 
168 1 11.47 4.752 10.454 
171 1 14.491 3.299 10.871 
172 1 14.26 3.716 12.208 
181 1 17.562 8.053 9.737 
205 1 15.626 0.228 15.626 
209 1 15.626 6.117 9.737 
219 1 9.737 6.117 15.626 
226 1 11.47 0.945 14.26 
229 1 14.26 2.699 13.224 
275 1 12.208 3.716 14.26 
283 1 10.454 4.752 11.47 
302 1 14.26 1.962 10.454 
305 1 13.224 4.752 12.208 
3 1 9.931 9.931 0.422 
6 1 13.748 13.748 0.422 
7 1 17.562 17.562 0.228 
9 1 9.931 13.748 4.239 
12 1 13.748 9.931 4.239 
52 1 12.807 14.491 1.363 
53 1 11.47 14.26 0.945 
61 1 14.491 12.807 1.363 
62 1 14.26 13.224 2.699 
107 1 10.871 12.807 4.982 
108 1 10.454 11.47 4.752 
111 1 10.871 14.491 3.299 
112 1 12.208 14.26 3.716 
128 1 15.626 15.626 0.228 
141 1 9.737 15.626 6.117 
145 1 15.626 9.737 6.117 
159 1 12.807 10.871 4.982 
160 1 13.224 12.208 4.752 
169 1 14.491 10.871 3.299 
170 1 14.26 10.454 1.962 
197 1 17.562 9.737 8.053 
217 1 9.737 17.562 8.053 
230 1 14.26 11.47 0.945 
233 1 13.224 14.26 2.699 
298 1 11.47 10.454 4.752 
301 1 14.26 12.208 3.716 
309 1 10.454 14.26 1.962 
316 1 12.208 13.224 4.752 
8 1 16.225 17.979 19.015 
20 1 19.015 16.225 17.979 
32 1 17.979 19.015 16.225 
46 1 12.807 12.807 18.696 
47 1 13.224 11.47 18.927 
58 1 12.807 18.696 12.807 
59 1 11.47 18.927 13.224 
70 1 18.696 12.807 12.807 
71 1 18.927 13.224 11.47 
75 1 14.685 14.685 18.502 
78 1 18.502 18.502 18.502 
81 1 18.502 14.685 14.685 
82 1 10.871 10.871 18.696 
83 1 10.454 12.208 18.927 
84 1 14.685 18.502 14.685 
115 1 10.871 18.696 10.871 
116 1 12.208 18.927 10.454 
129 1 16.963 15.209 19.015 
137 1 13.942 15.626 17.562 
138 1 14.173 16.963 17.979 
151 1 15.626 13.942 17.562 
152 1 15.209 14.173 16.225 
175 1 18.696 10.871 10.871 
176 1 18.927 10.454 12.208 
177 1 17.562 15.626 13.942 
178 1 16.225 15.209 14.173 
192 1 19.015 16.963 15.209 
195 1 17.562 13.942 15.626 
196 1 17.979 14.173 16.963 
206 1 15.209 19.015 16.963 
213 1 15.626 17.562 13.942 
214 1 16.963 17.979 14.173 
221 1 13.942 17.562 15.626 
222 1 14.173 16.225 15.209 
228 1 11.47 13.224 18.927 
232 1 18.927 11.47 13.224 
236 1 13.224 18.927 11.47 
239 1 17.979 16.225 19.015 
243 1 16.225 19.015 17.979 
247 1 19.015 17.979 16.225 
251 1 15.209 16.963 19.015 
255 1 16.963 14.173 17.979 
259 1 14.173 15.209 16.225 
263 1 15.209 16.225 14.173 
267 1 16.963 19.015 15.209 
271 1 14.173 17.979 16.963 
273 1 12.208 10.454 18.927 
287 1 17.979 16.963 14.173 
291 1 16.225 14.173 15.209 
295 1 19.015 15.209 16.963 
303 1 18.927 12.208 10.454 
312 1 10.454 18.927 12.208 
ITEM: TIMESTEP
10
ITEM: NUMBER OF ATOMS
322
ITEM: BOX BOUNDS pp pp pp
0.0000000000000000e+00 1.9018000000000001e+01
0.0000000000000000e+00 1.9018000000000001e+01
0.0000000000000000e+00 1.9018000000000001e+01
ITEM: ATOMS id type x y z 
10 1 6.1145 6.11208 0.258326 
22 1 0.256605 6.11519 6.11518 
34 1 6.11509 0.256533 6.11509 
89 1 3.30045 5.011 1.36133 
90 1 1.94561 4.7998 0.908908 
97 1 5.01103 3.3002 1.36111 
98 1 4.8002 3.7521 2.71547 
105 1 3.30026 1.36111 5.01097 
106 1 3.75215 2.71478 4.80011 
121 1 5.01097 1.36111 3.30025 
122 1 4.79995 0.908997 1.94581 
125 1 8.05613 8.05021 0.274463 
127 1 0.422843 4.23773 4.23768 
130 1 4.23778 0.422862 4.23778 
133 1 0.423187 0.423291 0.423185 
136 1 4.23782 4.23789 0.422693 
157 1 1.36117 3.30014 5.01102 
158 1 0.908929 1.94578 4.7998 
165 1 1.36141 5.01097 3.30038 
166 1 2.71506 4.80031 3.75213 
189 1 0.256683 8.05458 8.05456 
207 1 8.05466 0.25662 8.05464 
277 1 4.79976 1.94566 0.908899 
284 1 3.75219 4.80028 2.71516 
297 1 2.71536 3.75207 4.80023 
306 1 0.908961 4.79984 1.94571 
315 1 1.94583 0.908973 4.79995 
319 1 4.80011 2.7148 3.75213 
11 1 7.47164 5.65919 19.0622 
16 1 4.40628 6.11298 17.5622 
17 1 4.61366 7.46876 18.0152 
25 1 6.1147 4.40534 17.5639 
26 1 5.66337 4.61537 16.2107 
39 1 8.9648 8.93078 18.4868 
42 1 5.17736 5.17801 18.4994 
43 1 1.36101 1.36059 18.6679 
44 1 0.909035 2.71497 18.8792 
45 1 5.1769 8.99196 14.686 
48 1 8.99054 5.17832 14.6865 
79 1 3.30044 3.29996 18.6676 
80 1 3.75205 1.94623 18.8789 
85 1 3.30081 9.1586 12.8086 
86 1 1.94562 9.36995 13.2605 
95 1 9.15827 3.30033 12.8086 
96 1 9.36964 3.75213 11.4541 
119 1 9.15838 1.36087 10.8698 
120 1 9.36972 0.908896 12.2239 
126 1 6.70118 8.4963 19.086 
144 1 9.55782 6.7035 18.0129 
148 1 8.51342 9.54024 16.1804 
161 1 1.36113 9.15835 10.8696 
162 1 2.71536 9.36967 10.4177 
179 1 6.11484 8.05209 13.9124 
180 1 7.46696 8.50323 14.1186 
185 1 4.40357 8.052 15.6231 
186 1 4.61585 6.70104 15.1726 
200 1 5.64395 9.56097 16.9713 
201 1 8.05511 4.40557 15.6237 
202 1 8.50669 4.61547 16.9777 
215 1 8.05346 6.1128 13.9155 
216 1 6.70289 5.66519 14.1239 
220 1 9.55595 7.46669 15.1678 
227 1 2.71513 0.909061 18.8789 
240 1 5.65679 7.46555 19.0657 
242 1 7.46895 4.61485 18.0151 
245 1 4.6149 5.66505 16.2119 
252 1 8.50447 6.70329 19.0664 
254 1 6.65268 9.54735 18.0362 
257 1 9.57033 8.49865 16.2112 
264 1 8.5068 7.46896 14.1236 
266 1 6.70189 4.61532 15.1725 
269 1 9.55301 5.65975 16.9799 
274 1 1.94586 3.75195 18.879 
279 1 9.36988 1.94589 13.2604 
281 1 3.7523 9.36966 11.4542 
288 1 5.66378 6.70091 14.1249 
290 1 7.46412 9.55917 15.1583 
293 1 4.60832 8.50237 16.9753 
307 1 0.908853 9.36983 12.224 
317 1 9.36986 2.71503 10.4177 
4 1 6.11524 17.5638 4.40432 
5 1 7.46982 18.0156 4.61575 
13 1 4.40431 17.5638 6.11522 
14 1 4.61572 16.209 5.66352 
35 1 5.66353 19.0632 7.46987 
51 1 8.99235 18.5012 8.99232 
54 1 5.17779 18.5011 5.17777 
55 1 1.36089 18.6678 1.36089 
56 1 2.71531 18.8789 0.90894 
57 1 8.9917 14.6875 5.17849 
60 1 5.17763 14.6866 8.99235 
93 1 9.12155 10.879 1.40774 
94 1 9.36874 10.3942 2.7605 
103 1 3.30046 12.8082 9.15836 
104 1 3.75217 11.4544 9.36954 
113 1 3.30007 18.6676 3.30007 
114 1 1.94618 18.8788 3.75208 
117 1 9.13986 12.8091 3.33792 
118 1 9.35404 13.3035 1.98575 
131 1 8.0544 15.6246 4.40391 
132 1 6.70006 15.1726 4.61551 
142 1 9.55446 16.979 5.6636 
149 1 8.05428 13.913 6.11571 
150 1 8.50639 14.1245 7.47001 
155 1 1.36117 10.8696 9.15836 
156 1 0.90883 12.224 9.36984 
184 1 7.46983 15.1725 9.55425 
187 1 4.4043 15.6243 8.05473 
188 1 4.61574 16.9788 8.50647 
193 1 6.11532 13.9133 8.05468 
194 1 5.66343 14.1248 6.70029 
208 1 8.50649 19.0632 6.70021 
212 1 6.70014 18.0154 9.55425 
218 1 9.55426 16.2092 8.50655 
235 1 0.908942 18.8789 2.7153 
237 1 5.66342 16.2091 4.61572 
244 1 7.46988 19.0632 5.66352 
246 1 4.61572 18.0154 7.46993 
249 1 8.50641 16.979 4.61555 
256 1 6.69999 14.1245 5.66363 
258 1 9.55449 15.1726 7.46996 
261 1 8.50649 16.2091 9.55426 
268 1 6.70022 19.0632 8.50647 
270 1 9.55422 18.0155 6.70024 
280 1 9.37653 12.2258 1.04975 
285 1 5.66352 16.9789 9.55426 
292 1 7.46971 14.1248 8.50657 
294 1 4.61577 15.1725 6.70019 
299 1 2.71531 10.4177 9.36966 
311 1 3.75208 18.8788 1.94618 
313 1 1.9459 13.2604 9.36985 
318 1 9.36606 11.4471 3.77716 
15 1 0.423046 9.93196 9.93196 
18 1 0.422846 13.7464 13.7464 
19 1 0.256803 17.5634 17.5634 
21 1 4.23727 9.93205 13.746 
24 1 4.23781 13.7465 9.93166 
40 1 1.36086 12.8087 14.5196 
41 1 0.908957 11.454 14.3082 
49 1 1.36091 14.5196 12.8086 
50 1 2.71524 14.3084 13.2603 
76 1 3.30068 10.8695 14.5195 
77 1 3.75225 12.2239 14.3084 
99 1 5.01099 10.8691 12.8089 
100 1 4.80002 10.4173 11.4539 
109 1 3.30024 14.5198 10.87 
110 1 1.94582 14.3082 10.4178 
123 1 5.01128 12.8085 10.8695 
124 1 4.80014 13.2607 12.2239 
147 1 8.01692 9.69832 17.5455 
183 1 6.11525 15.6243 9.76573 
191 1 0.256682 15.6243 15.6243 
199 1 6.11255 9.76758 15.6207 
211 1 8.05453 17.5635 9.7658 
225 1 2.71531 13.2603 14.3084 
234 1 0.90891 14.3082 11.4541 
276 1 1.94556 10.4177 14.3081 
278 1 4.80002 12.2241 13.2608 
310 1 3.75212 14.3085 12.2237 
320 1 4.80014 11.4541 10.4174 
321 2 9.13112 10.6773 18.4825 
322 3 9.7524 11.5601 17.645 
1 1 17.5637 6.1153 4.40426 
2 1 16.2091 5.66351 4.61571 
23 1 19.0632 7.46985 5.66356 
28 1 17.5637 4.40425 6.11531 
29 1 18.0154 4.61574 7.46989 
63 1 18.5013 8.99247 8.99245 
66 1 18.5012 5.17764 5.17762 
67 1 18.6679 1.36059 1.36101 
68 1 18.8789 0.909029 2.71511 
69 1 14.6866 5.17762 8.99236 
72 1 14.6872 8.99185 5.17821 
87 1 10.8954 9.10101 1.38219 
88 1 12.2412 9.36818 0.91105 
101 1 10.8698 1.36086 9.15838 
102 1 10.4177 2.71501 9.36986 
134 1 15.6241 8.05495 4.40435 
135 1 16.9791 8.50649 4.6157 
139 1 13.9134 8.05486 6.11513 
140 1 14.1247 6.69995 5.66351 
146 1 15.1724 9.55431 7.47005 
153 1 12.8084 3.3002 9.15832 
154 1 13.2604 1.94599 9.36986 
163 1 12.8129 9.15617 3.30538 
164 1 11.4565 9.36857 3.76025 
173 1 18.6677 3.29982 3.3003 
174 1 18.8789 3.75192 1.94596 
182 1 16.2091 8.50646 9.55427 
190 1 19.0632 6.70023 8.50648 
198 1 18.0155 9.55423 6.7002 
203 1 15.6243 4.40428 8.0547 
204 1 15.1725 4.61574 6.70018 
210 1 16.9789 5.66353 9.55426 
223 1 13.9133 6.1153 8.05469 
224 1 14.1247 7.4698 8.50646 
231 1 18.8792 2.71495 0.909003 
238 1 18.0155 7.46987 4.61573 
241 1 16.2091 4.61571 5.66355 
248 1 19.0632 5.66353 7.46985 
250 1 15.1725 6.69998 4.61571 
253 1 16.9791 9.5543 5.66349 
260 1 14.1247 8.50648 7.47005 
262 1 15.1725 7.46983 9.55427 
265 1 16.9789 4.61574 8.50646 
272 1 14.1247 5.66354 6.7002 
282 1 10.4153 9.36516 2.73423 
286 1 18.0155 6.70017 9.55424 
289 1 16.2092 9.55427 8.5065 
296 1 19.0632 8.50645 6.70023 
300 1 11.4542 3.75211 9.36963 
304 1 18.8789 1.94633 3.75203 
308 1 13.2677 9.36302 1.9541 
314 1 12.2238 0.908867 9.36971 
27 1 9.93187 0.423043 9.93187 
30 1 13.7465 0.422845 13.7465 
31 1 17.5634 0.256791 17.5634 
33 1 13.7465 4.23785 9.93165 
36 1 9.93145 4.23808 13.7467 
37 1 12.8085 1.3606 14.5196 
38 1 13.2603 2.71496 14.3082 
64 1 14.5196 1.3606 12.8085 
65 1 14.3083 0.908942 11.4542 
73 1 10.8697 3.30004 14.5198 
74 1 10.4177 1.9458 14.3082 
91 1 10.8695 5.0113 12.8085 
92 1 12.2239 4.80011 13.2607 
143 1 9.7785 8.05632 17.57 
167 1 12.8084 5.01127 10.8696 
168 1 11.4542 4.80013 10.4174 
171 1 14.5198 3.29999 10.8698 
172 1 14.3084 3.75207 12.2239 
181 1 17.5635 8.05446 9.76586 
205 1 15.6242 0.256628 15.6243 
209 1 15.6243 6.11527 9.76575 
219 1 9.7669 6.11344 15.6233 
226 1 11.4542 0.908966 14.3083 
229 1 14.3082 2.71494 13.2604 
275 1 12.224 3.75209 14.3084 
283 1 10.4174 4.8001 11.4541 
302 1 14.3082 1.94591 10.4178 
305 1 13.2607 4.80014 12.2238 
3 1 9.91582 9.89406 0.429314 
6 1 13.7532 13.7458 0.420214 
7 1 17.5635 17.5635 0.256814 
9 1 9.93412 13.7488 4.24364 
12 1 13.7478 9.93103 4.23597 
52 1 12.8246 14.5333 1.37065 
53 1 11.4667 14.3279 0.920828 
61 1 14.5266 12.812 1.36641 
62 1 14.3099 13.2616 2.71782 
107 1 10.8699 12.8084 5.01371 
108 1 10.4278 11.4529 4.81306 
111 1 10.8696 14.5263 3.30779 
112 1 12.2265 14.3128 3.75538 
128 1 15.6253 15.6253 0.257016 
141 1 9.76621 15.6246 6.1156 
145 1 15.6241 9.76572 6.11506 
159 1 12.8066 10.8685 5.01289 
160 1 13.2618 12.2248 4.80079 
169 1 14.5187 10.8715 3.30332 
170 1 14.314 10.4185 1.94905 
197 1 17.5635 9.76585 8.05447 
217 1 9.76579 17.5635 8.05451 
230 1 14.3254 11.4558 0.916006 
233 1 13.2678 14.3095 2.71977 
298 1 11.4545 10.4197 4.80436 
301 1 14.3104 12.2194 3.75236 
309 1 10.4342 14.3518 1.94984 
316 1 12.2244 13.2589 4.80394 
8 1 16.2092 18.0155 19.0633 
20 1 19.0633 16.2092 18.0153 
32 1 18.0154 19.0632 16.2092 
46 1 12.8093 12.8143 18.6673 
47 1 13.2787 11.4595 18.8696 
58 1 12.8088 18.6675 12.8088 
59 1 11.4544 18.8788 13.2606 
70 1 18.6676 12.8088 12.8088 
71 1 18.8789 13.2606 11.4544 
75 1 14.6876 14.6874 18.5003 
78 1 18.5015 18.5015 18.5015 
81 1 18.5015 14.6863 14.6863 
82 1 10.9015 10.8215 18.4912 
83 1 10.3031 12.3685 18.8314 
84 1 14.6864 18.5014 14.6865 
115 1 10.8697 18.6673 10.8697 
116 1 12.2238 18.8788 10.4174 
129 1 16.9788 15.1722 19.063 
137 1 13.9125 15.6252 17.5628 
138 1 14.1248 16.9788 18.0156 
151 1 15.6252 13.9124 17.5627 
152 1 15.1723 14.1248 16.2092 
175 1 18.6674 10.8697 10.8697 
176 1 18.8788 10.4175 12.2237 
177 1 17.5635 15.6245 13.9132 
178 1 16.2092 15.1727 14.1246 
192 1 19.0632 16.9787 15.1725 
195 1 17.5636 13.9132 15.6243 
196 1 18.0154 14.1247 16.9789 
206 1 15.1726 19.0633 16.9787 
213 1 15.6244 17.5636 13.9132 
214 1 16.9788 18.0154 14.1247 
221 1 13.9132 17.5637 15.6243 
222 1 14.1246 16.2091 15.1725 
228 1 11.4699 13.2838 18.8875 
232 1 18.8789 11.4544 13.2605 
236 1 13.2606 18.8788 11.4544 
239 1 18.0155 16.2092 19.0633 
243 1 16.2092 19.0633 18.0153 
247 1 19.0632 18.0154 16.2092 
251 1 15.1722 16.9788 19.0631 
255 1 16.9788 14.1248 18.0156 
259 1 14.1248 15.1722 16.2092 
263 1 15.1727 16.2092 14.1246 
267 1 16.9787 19.0632 15.1725 
271 1 14.1246 18.0154 16.9789 
273 1 12.2484 10.4191 18.8958 
287 1 18.0154 16.9787 14.1247 
291 1 16.2091 14.1246 15.1725 
295 1 19.0633 15.1726 16.9787 
303 1 18.8789 12.2237 10.4175 
312 1 10.4174 18.8788 12.2238 
ITEM: TIMESTEP
20
ITEM: NUMBER OF ATOMS
322
ITEM: BOX BOUNDS pp pp pp
0.0000000000000000e+00 1.9018000000000001e+01
0.0000000000000000e+00 1.9018000000000001e+01
0.0000000000000000e+00 1.9018000000000001e+01
ITEM: ATOMS id type x y z 
10 1 6.12252 6.11584 0.242668 
22 1 0.238789 6.12334 6.12335 
34 1 6.12333 0.238841 6.12337 
89 1 3.2922 4.99328 1.36893 
90 1 1.93991 4.80739 0.902675 
97 1 4.99319 3.29209 1.36898 
98 1 4.80764 3.75846 2.72128 
105 1 3.29219 1.36878 4.99328 
106 1 3.75856 2.72087 4.80748 
121 1 4.99326 1.36881 3.29218 
122 1 4.80732 0.902418 1.94024 
125 1 8.01843 8.01524 0.285375 
127 1 0.425773 4.23515 4.2352 
130 1 4.23519 0.425709 4.2352 
133 1 0.425738 0.425666 0.425724 
136 1 4.23429 4.23421 0.426501 
157 1 1.3689 3.29215 4.99324 
158 1 0.902599 1.9401 4.80726 
165 1 1.36894 4.99325 3.29219 
166 1 2.72098 4.80746 3.75867 
189 1 0.238739 8.04663 8.04664 
207 1 8.04659 0.238812 8.04666 
277 1 4.80744 1.93988 0.902626 
284 1 3.75853 4.80766 2.72129 
297 1 2.72104 3.75852 4.80747 
306 1 0.90254 4.8072 1.94024 
315 1 1.94009 0.902523 4.80731 
319 1 4.80748 2.72076 3.75864 
11 1 7.47797 5.65083 19.0712 
16 1 4.42135 6.1228 17.5563 
17 1 4.60218 7.47203 18.0223 
25 1 6.12354 4.41961 17.5548 
26 1 5.65733 4.6068 16.2018 
39 1 8.92685 8.91066 18.4585 
42 1 5.17919 5.17686 18.4975 
43 1 1.36893 1.36879 18.6857 
44 1 0.90247 2.72073 18.8717 
45 1 5.18133 8.98829 14.6897 
48 1 8.98933 5.17856 14.6889 
79 1 3.2921 3.29205 18.6854 
80 1 3.75847 1.93977 18.8713 
85 1 3.29181 9.17618 12.8002 
86 1 1.9399 9.36235 13.267 
95 1 9.17612 3.29212 12.8005 
96 1 9.36199 3.7585 11.4484 
119 1 9.17634 1.36884 10.8776 
120 1 9.36227 0.90237 12.2295 
126 1 6.66572 8.50328 19.1134 
144 1 9.56309 6.68378 18.0283 
148 1 8.50895 9.52 16.1731 
161 1 1.36888 9.17635 10.8775 
162 1 2.721 9.36214 10.4111 
179 1 6.11923 8.04403 13.9268 
180 1 7.4734 8.50682 14.0994 
185 1 4.41756 8.0423 15.6252 
186 1 4.60662 6.69175 15.1632 
200 1 5.62006 9.56977 16.9722 
201 1 8.04571 4.4205 15.6313 
202 1 8.51268 4.60473 16.9843 
215 1 8.04816 6.12352 13.9309 
216 1 6.694 5.65463 14.1163 
220 1 9.56979 7.46791 15.1561 
227 1 2.72095 0.902317 18.8716 
240 1 5.64087 7.46412 19.0813 
242 1 7.4751 4.60337 18.0202 
245 1 4.6069 5.65509 16.2019 
252 1 8.51903 6.67875 19.0739 
254 1 6.63592 9.52656 18.0407 
257 1 9.59008 8.50412 16.1881 
264 1 8.51409 7.47336 14.1142 
266 1 6.69388 4.60708 15.1663 
269 1 9.56301 5.65409 16.9854 
274 1 1.93981 3.75835 18.8714 
279 1 9.3621 1.93995 13.2668 
281 1 3.75875 9.36219 11.4483 
288 1 5.65436 6.69212 14.1155 
290 1 7.46056 9.56569 15.1391 
293 1 4.58614 8.50556 16.9813 
307 1 0.902455 9.36223 12.2295 
317 1 9.36227 2.72079 10.4111 
4 1 6.12324 17.5557 4.42215 
5 1 7.47498 18.0224 4.60794 
13 1 4.42209 17.5556 6.12338 
14 1 4.60793 16.2036 5.65713 
35 1 5.65698 19.0708 7.47542 
51 1 8.98963 18.4985 8.9896 
54 1 5.18021 18.4987 5.18021 
55 1 1.36892 18.6856 1.36894 
56 1 2.72105 18.8716 0.902508 
57 1 8.98653 14.6944 5.18587 
60 1 5.18026 14.6892 8.9897 
93 1 9.18325 10.9154 1.44982 
94 1 9.35458 10.39 2.77383 
103 1 3.29226 12.8006 9.17625 
104 1 3.75858 11.4486 9.36202 
113 1 3.29218 18.6854 3.2922 
114 1 1.94 18.8715 3.75845 
117 1 9.15801 12.7977 3.35214 
118 1 9.36765 13.3176 2.01889 
131 1 8.04601 15.6331 4.42225 
132 1 6.6937 15.1659 4.60754 
142 1 9.56245 16.9861 5.65665 
149 1 8.04553 13.9315 6.12457 
150 1 8.51319 14.1166 7.47671 
155 1 1.36893 10.8776 9.17636 
156 1 0.902534 12.2295 9.36229 
184 1 7.47526 15.1661 9.56219 
187 1 4.42211 15.6323 8.04673 
188 1 4.60806 16.9844 8.51298 
193 1 6.12317 13.9312 8.04679 
194 1 5.65651 14.1169 6.695 
208 1 8.51275 19.0712 6.69463 
212 1 6.69454 18.0219 9.56194 
218 1 9.56212 16.204 8.51367 
235 1 0.902531 18.8716 2.72107 
237 1 5.65659 16.2039 4.60796 
244 1 7.4753 19.071 5.6571 
246 1 4.6081 18.022 7.4754 
249 1 8.51312 16.9854 4.60749 
256 1 6.69344 14.1167 5.65685 
258 1 9.56253 15.1657 7.47709 
261 1 8.51276 16.2036 9.56224 
268 1 6.69452 19.0709 8.51297 
270 1 9.56212 18.0226 6.69507 
280 1 9.40329 12.2607 1.00731 
285 1 5.657 16.9844 9.56194 
292 1 7.47495 14.1169 8.51355 
294 1 4.60784 15.1662 6.69469 
299 1 2.721 10.4112 9.3621 
311 1 3.75847 18.8715 1.94002 
313 1 1.94021 13.2668 9.36226 
318 1 9.3524 11.4434 3.79617 
15 1 0.42582 9.93461 9.93459 
18 1 0.425601 13.7438 13.7438 
19 1 0.238786 17.5557 17.5556 
21 1 4.2352 9.93437 13.7436 
24 1 4.23524 13.7437 9.9345 
40 1 1.36874 12.8008 14.5018 
41 1 0.902431 11.4487 14.3158 
49 1 1.36878 14.5018 12.8007 
50 1 2.72087 14.3159 13.2669 
76 1 3.29191 10.8778 14.5018 
77 1 3.75868 12.2297 14.3159 
99 1 4.99344 10.8778 12.8003 
100 1 4.8075 10.4109 11.4484 
109 1 3.29222 14.5018 10.8775 
110 1 1.94017 14.3158 10.4112 
123 1 4.99343 12.8007 10.8774 
124 1 4.80764 13.267 12.2294 
147 1 7.97221 9.65207 17.5089 
183 1 6.12323 15.6323 9.74791 
191 1 0.238789 15.6322 15.6321 
199 1 6.11726 9.74735 15.6308 
211 1 8.04659 17.5556 9.74791 
225 1 2.7209 13.267 14.3159 
234 1 0.902457 14.3158 11.4487 
276 1 1.93994 10.4111 14.3157 
278 1 4.8075 12.2296 13.2671 
310 1 3.75852 14.316 12.2295 
320 1 4.80766 11.4487 10.411 
321 2 9.15866 10.6891 18.6547 
322 3 10.0097 11.5715 17.5139 
1 1 17.5557 6.12326 4.42217 
2 1 16.2037 5.6569 4.60804 
23 1 19.0709 7.4753 5.65712 
28 1 17.5556 4.42214 6.12334 
29 1 18.0219 4.60812 7.47533 
63 1 18.4985 8.98962 8.9896 
66 1 18.4987 5.1802 5.18017 
67 1 18.6857 1.36875 1.36892 
68 1 18.8717 0.902412 2.72108 
69 1 14.6892 5.18023 8.98972 
72 1 14.6907 8.98857 5.18176 
87 1 10.8758 9.17995 1.37419 
88 1 12.2184 9.3776 0.917045 
101 1 10.8776 1.36878 9.17635 
102 1 10.4111 2.72086 9.36227 
134 1 15.6327 8.0463 4.4222 
135 1 16.9847 8.51309 4.60798 
139 1 13.9312 8.0463 6.12372 
140 1 14.117 6.6943 5.65693 
146 1 15.1659 9.56202 7.47578 
153 1 12.8007 3.29223 9.17628 
154 1 13.2669 1.94011 9.36229 
163 1 12.8047 9.17413 3.29635 
164 1 11.4603 9.35815 3.76905 
173 1 18.6855 3.29215 3.29224 
174 1 18.8716 3.75839 1.94007 
182 1 16.2036 8.5128 9.56205 
190 1 19.0709 6.69458 8.51291 
198 1 18.0221 9.56201 6.69476 
203 1 15.6323 4.42214 8.04664 
204 1 15.1661 4.608 6.69469 
210 1 16.9843 5.65702 9.56189 
223 1 13.9312 6.12328 8.0467 
224 1 14.117 7.47523 8.51314 
231 1 18.8717 2.72084 0.902546 
238 1 18.0221 7.47521 4.60804 
241 1 16.2036 4.60801 5.65715 
248 1 19.0708 5.65703 7.47534 
250 1 15.1659 6.69433 4.608 
253 1 16.9848 9.56202 5.65687 
260 1 14.117 8.51309 7.47572 
262 1 15.1661 7.47528 9.56201 
265 1 16.9843 4.60811 8.51297 
272 1 14.117 5.65688 6.69476 
282 1 10.4212 9.33459 2.72201 
286 1 18.0219 6.69461 9.56193 
289 1 16.2037 9.56201 8.51313 
296 1 19.071 8.5128 6.69462 
300 1 11.4486 3.75859 9.36217 
304 1 18.8716 1.93999 3.75849 
308 1 13.2763 9.36463 1.94931 
314 1 12.2296 0.902439 9.36227 
27 1 9.93459 0.425723 9.93457 
30 1 13.7439 0.425493 13.7438 
31 1 17.5557 0.238775 17.5556 
33 1 13.7437 4.2352 9.93447 
36 1 9.93502 4.23454 13.7431 
37 1 12.8007 1.36865 14.5018 
38 1 13.267 2.72066 14.3158 
64 1 14.5018 1.36859 12.8007 
65 1 14.3158 0.902358 11.4486 
73 1 10.8776 3.2921 14.5018 
74 1 10.4113 1.93992 14.316 
91 1 10.8775 4.99348 12.8006 
92 1 12.2296 4.80768 13.2669 
143 1 9.77393 8.02617 17.5438 
167 1 12.8007 4.99341 10.8774 
168 1 11.4487 4.80751 10.411 
171 1 14.5018 3.29218 10.8775 
172 1 14.3159 3.75853 12.2295 
181 1 17.5556 8.04665 9.74783 
205 1 15.6323 0.2388 15.6322 
209 1 15.6323 6.12333 9.74788 
219 1 9.75067 6.11916 15.6314 
226 1 11.4487 0.90228 14.3158 
229 1 14.3158 2.72073 13.267 
275 1 12.2297 3.75842 14.3161 
283 1 10.4111 4.80769 11.4485 
302 1 14.3158 1.94008 10.4112 
305 1 13.2671 4.8075 12.2294 
3 1 9.85191 9.93706 0.377799 
6 1 13.7452 13.7427 0.427636 
7 1 17.5556 17.5557 0.23883 
9 1 9.94358 13.7494 4.25759 
12 1 13.7458 9.93618 4.23982 
52 1 12.8315 14.5126 1.3787 
53 1 11.4618 14.3451 0.935142 
61 1 14.5076 12.8022 1.37034 
62 1 14.3237 13.2656 2.72494 
107 1 10.8861 12.7992 5.00442 
108 1 10.4178 11.4493 4.82479 
111 1 10.8843 14.5198 3.30745 
112 1 12.2391 14.3195 3.76719 
128 1 15.6327 15.6326 0.237908 
141 1 9.74868 15.6345 6.12551 
145 1 15.6329 9.74795 6.12395 
159 1 12.803 10.8768 4.99633 
160 1 13.2705 12.2283 4.81016 
169 1 14.5057 10.8789 3.29471 
170 1 14.3231 10.4109 1.94181 
197 1 17.5557 9.7478 8.04674 
217 1 9.74785 17.5557 8.04677 
230 1 14.3247 11.4498 0.905401 
233 1 13.2786 14.3219 2.73025 
298 1 11.455 10.4069 4.81345 
301 1 14.3186 12.2287 3.76123 
309 1 10.4104 14.3687 1.96411 
316 1 12.2318 13.2688 4.81169 
8 1 16.2036 18.022 19.0709 
20 1 19.0709 16.2037 18.0219 
32 1 18.0219 19.0709 16.2036 
46 1 12.7808 12.8098 18.6996 
47 1 13.2695 11.4601 18.88 
58 1 12.8008 18.6853 12.8008 
59 1 11.4487 18.8714 13.2671 
70 1 18.6854 12.8008 12.8008 
71 1 18.8714 13.2671 11.4487 
75 1 14.6897 14.6886 18.4982 
78 1 18.4988 18.4988 18.4986 
81 1 18.4988 14.6892 14.689 
82 1 10.9055 10.8262 18.4103 
83 1 10.2515 12.3864 18.7634 
84 1 14.6892 18.4988 14.689 
115 1 10.8776 18.6854 10.8775 
116 1 12.2296 18.8714 10.4111 
129 1 16.9848 15.1661 19.0708 
137 1 13.9315 15.6323 17.5555 
138 1 14.117 16.9845 18.0218 
151 1 15.6329 13.9309 17.5549 
152 1 15.166 14.117 16.2031 
175 1 18.6855 10.8775 10.8775 
176 1 18.8713 10.4112 12.2295 
177 1 17.5558 15.6323 13.9311 
178 1 16.2037 15.166 14.117 
192 1 19.0709 16.9842 15.166 
195 1 17.5557 13.9311 15.6322 
196 1 18.0221 14.1171 16.9843 
206 1 15.1659 19.0708 16.9842 
213 1 15.6323 17.5557 13.9311 
214 1 16.9842 18.0219 14.1171 
221 1 13.9311 17.5556 15.6323 
222 1 14.1171 16.2036 15.166 
228 1 11.4367 13.2788 18.9362 
232 1 18.8713 11.4488 13.267 
236 1 13.2671 18.8714 11.4487 
239 1 18.0221 16.2036 19.0709 
243 1 16.2037 19.0709 18.0219 
247 1 19.0709 18.0219 16.2036 
251 1 15.1661 16.9847 19.0707 
255 1 16.9848 14.1169 18.0219 
259 1 14.117 15.1661 16.2034 
263 1 15.1659 16.2037 14.1171 
267 1 16.9842 19.0708 15.166 
271 1 14.1171 18.022 16.9844 
273 1 12.2401 10.4287 18.8808 
287 1 18.0219 16.9842 14.1171 
291 1 16.2036 14.1171 15.1659 
295 1 19.0709 15.166 16.9842 
303 1 18.8714 12.2295 10.4111 
312 1 10.4111 18.8714 12.2296 
ITEM: TIMESTEP
30
ITEM: NUMBER OF ATOMS
322
ITEM: BOX BOUNDS pp pp pp
0.0000000000000000e+00 1.9018000000000001e+01
0.0000000000000000e+00 1.9018000000000001e+01
0.0000000000000000e+00 1.9018000000000001e+01
ITEM: ATOMS id type x y z 
10 1 6.12234 6.11346 0.239775 
22 1 0.237149 6.12409 6.12417 
34 1 6.12402 0.237216 6.12424 
89 1 3.29091 4.99166 1.3702 
90 1 1.93893 4.80791 0.901782 
97 1 4.99158 3.2907 1.37034 
98 1 4.80808 3.75931 2.72229 
105 1 3.2913 1.36967 4.99162 
106 1 3.75926 2.7219 4.80814 
121 1 4.99162 1.36965 3.29135 
122 1 4.808 0.90163 1.93913 
125 1 8.01341 8.01358 0.273969 
127 1 0.425663 4.23528 4.23534 
130 1 4.23527 0.425569 4.23532 
133 1 0.425694 0.425573 0.425713 
136 1 4.23446 4.23432 0.426105 
157 1 1.36978 3.29127 4.99159 
158 1 0.901825 1.93906 4.80795 
165 1 1.36977 4.99158 3.29138 
166 1 2.72201 4.8081 3.75939 
189 1 0.237158 8.04569 8.04579 
207 1 8.04558 0.237285 8.04591 
277 1 4.80795 1.93877 0.901752 
284 1 3.75937 4.80811 2.7222 
297 1 2.72201 3.75921 4.80813 
306 1 0.901764 4.80791 1.93917 
315 1 1.93908 0.901739 4.80796 
319 1 4.80812 2.72189 3.7594 
11 1 7.4729 5.646 19.0729 
16 1 4.42301 6.12042 17.553 
17 1 4.59673 7.47216 18.023 
25 1 6.12393 4.42002 17.5531 
26 1 5.65503 4.60571 16.2012 
39 1 8.9131 8.88956 18.4527 
42 1 5.1801 5.17553 18.4971 
43 1 1.3697 1.36955 18.6874 
44 1 0.901693 2.72177 18.871 