ITEM: TIMESTEP
0
ITEM: NUMBER OF ATOMS
203
ITEM: BOX BOUNDS pp pp pp
0.0000000000000000e+00 1.6114000000000001e+01
0.0000000000000000e+00 1.6113000000000000e+01
0.0000000000000000e+00 1.6111999999999998e+01
ITEM: ATOMS id type x y z 
5 1 5.384 5.384 5.384 
65 1 5.66 6.662 2.461 
66 1 5.336 7.323 3.711 
68 1 4.865 6.606 4.866 
79 1 5.364 7.322 1.219 
89 1 6.662 2.461 5.66 
90 1 7.323 3.711 5.336 
92 1 6.606 4.866 4.866 
101 1 7.322 1.219 5.364 
109 1 2.461 5.66 6.662 
110 1 3.71 5.336 7.323 
112 1 4.865 4.866 6.606 
121 1 1.218 5.364 7.322 
129 1 6.662 5.66 2.461 
130 1 7.323 5.336 3.711 
137 1 7.322 5.364 1.219 
141 1 2.461 6.662 5.66 
142 1 3.71 7.323 5.336 
149 1 1.218 7.322 5.364 
153 1 5.66 2.461 6.662 
154 1 5.336 3.711 7.323 
161 1 5.364 1.219 7.322 
201 2 4.347 4.676 4.896 
202 2 4.16 4.015 3.569 
203 3 4.743 3.244 3.515 
7 1 6.662 5.66 13.616 
8 1 7.323 5.336 12.366 
10 1 6.606 4.866 11.211 
21 1 7.322 5.364 14.858 
32 1 1.218 7.322 10.713 
40 1 2.461 6.662 10.417 
41 1 3.71 7.323 10.741 
43 1 4.865 6.606 11.211 
47 1 5.364 1.219 8.755 
55 1 5.66 2.461 9.415 
56 1 5.336 3.711 8.754 
58 1 4.865 4.866 9.471 
64 1 5.629 6.643 16.094 
75 1 5.384 5.384 10.693 
118 1 6.643 5.629 16.094 
168 1 5.66 6.662 13.616 
169 1 5.336 7.323 12.366 
176 1 5.364 7.322 14.858 
182 1 7.322 1.219 10.713 
186 1 6.662 2.461 10.417 
187 1 7.323 3.711 10.741 
191 1 1.218 5.364 8.755 
195 1 2.461 5.66 9.415 
196 1 3.71 5.336 8.754 
9 1 7.322 10.713 1.219 
19 1 6.662 10.417 2.461 
20 1 7.323 10.741 3.711 
22 1 6.606 11.211 4.866 
27 1 1.218 8.755 5.364 
35 1 2.461 9.415 5.66 
36 1 3.71 8.754 5.336 
38 1 4.865 9.471 4.866 
44 1 6.643 16.095 5.63 
50 1 5.66 13.616 6.662 
51 1 5.336 12.366 7.323 
53 1 4.865 11.211 6.606 
62 1 5.364 14.858 7.322 
76 1 5.629 16.095 6.643 
81 1 5.384 10.693 5.384 
167 1 5.364 8.755 1.219 
171 1 5.66 9.415 2.461 
172 1 5.336 8.754 3.711 
180 1 6.662 13.616 5.66 
181 1 7.323 12.366 5.336 
188 1 7.322 14.858 5.364 
194 1 1.218 10.713 7.322 
198 1 2.461 10.417 6.662 
199 1 3.71 10.741 7.323 
17 1 5.384 10.693 10.693 
39 1 6.643 16.095 10.448 
49 1 5.629 9.434 16.095 
73 1 5.364 8.755 14.858 
82 1 5.629 16.095 9.434 
83 1 5.66 9.415 13.616 
84 1 5.336 8.754 12.366 
86 1 4.865 9.471 11.211 
91 1 7.322 14.858 10.713 
99 1 6.662 13.616 10.417 
100 1 7.323 12.366 10.741 
102 1 6.606 11.211 11.211 
113 1 6.643 10.448 16.094 
114 1 2.461 10.417 9.415 
115 1 3.71 10.741 8.754 
117 1 4.865 11.211 9.471 
126 1 1.218 10.713 8.755 
131 1 7.322 10.713 14.858 
135 1 6.662 10.417 13.616 
136 1 7.323 10.741 12.366 
144 1 2.461 9.415 10.417 
145 1 3.71 8.754 10.741 
152 1 1.218 8.755 10.713 
158 1 5.364 14.858 8.755 
162 1 5.66 13.616 9.415 
163 1 5.336 12.366 8.754 
3 1 8.755 5.364 1.219 
13 1 9.415 5.66 2.461 
14 1 8.754 5.336 3.711 
16 1 9.471 4.866 4.866 
24 1 16.095 5.629 6.643 
30 1 13.616 6.662 5.66 
31 1 12.367 7.323 5.336 
33 1 11.212 6.606 4.866 
42 1 14.859 7.322 5.364 
52 1 10.713 1.219 7.322 
60 1 10.417 2.461 6.662 
61 1 10.741 3.711 7.323 
63 1 11.212 4.866 6.606 
87 1 10.693 5.384 5.384 
98 1 16.095 6.643 5.63 
170 1 10.713 7.322 1.219 
174 1 10.417 6.662 2.461 
175 1 10.741 7.323 3.711 
179 1 8.755 1.219 5.364 
183 1 9.415 2.461 5.66 
184 1 8.754 3.711 5.336 
192 1 13.616 5.66 6.662 
193 1 12.367 5.336 7.323 
200 1 14.859 5.364 7.322 
6 1 16.096 5.629 9.434 
23 1 10.693 5.384 10.693 
59 1 10.448 6.643 16.095 
67 1 10.713 7.322 14.858 
77 1 10.417 6.662 13.616 
78 1 10.741 7.323 12.366 
80 1 11.212 6.606 11.211 
93 1 16.096 6.643 10.448 
94 1 9.415 2.461 10.417 
95 1 8.754 3.711 10.741 
97 1 9.471 4.866 11.211 
106 1 8.755 1.219 10.713 
116 1 14.859 5.364 8.755 
123 1 9.434 5.629 16.094 
124 1 13.616 5.66 9.415 
125 1 12.367 5.336 8.754 
127 1 11.212 4.866 9.471 
134 1 8.755 5.364 14.858 
138 1 9.415 5.66 13.616 
139 1 8.754 5.336 12.366 
143 1 14.859 7.322 10.713 
147 1 13.616 6.662 10.417 
148 1 12.367 7.323 10.741 
156 1 10.417 2.461 9.415 
157 1 10.741 3.711 8.754 
164 1 10.713 1.219 8.755 
11 1 10.693 10.693 5.384 
18 1 16.096 10.448 6.643 
29 1 9.434 16.095 5.63 
70 1 10.448 16.095 6.643 
71 1 10.417 9.415 2.461 
72 1 10.741 8.754 3.711 
74 1 11.212 9.471 4.866 
85 1 10.713 8.755 1.219 
96 1 8.755 14.858 5.364 
103 1 16.095 9.434 5.63 
104 1 9.415 13.616 5.66 
105 1 8.754 12.366 5.336 
107 1 9.471 11.211 4.866 
111 1 14.859 10.713 7.322 
119 1 13.616 10.417 6.662 
120 1 12.367 10.741 7.323 
122 1 11.212 11.211 6.606 
132 1 9.415 10.417 2.461 
133 1 8.754 10.741 3.711 
140 1 8.755 10.713 1.219 
146 1 14.859 8.755 5.364 
150 1 13.616 9.415 5.66 
151 1 12.367 8.754 5.336 
155 1 10.713 14.858 7.322 
159 1 10.417 13.616 6.662 
160 1 10.741 12.366 7.323 
1 1 9.415 10.417 13.616 
2 1 8.754 10.741 12.366 
4 1 9.471 11.211 11.211 
12 1 16.096 10.448 9.434 
15 1 8.755 10.713 14.858 
25 1 13.616 9.415 10.417 
26 1 12.367 8.754 10.741 
28 1 11.212 9.471 11.211 
34 1 9.434 16.095 10.448 
37 1 14.859 8.755 10.713 
45 1 10.417 13.616 9.415 
46 1 10.741 12.366 8.754 
48 1 11.212 11.211 9.471 
54 1 10.448 9.434 16.094 
57 1 10.713 14.858 8.755 
69 1 10.693 10.693 10.693 
88 1 10.448 16.095 9.434 
108 1 16.096 9.434 10.448 
128 1 9.434 10.448 16.094 
165 1 10.417 9.415 13.616 
166 1 10.741 8.754 12.366 
173 1 10.713 8.755 14.858 
177 1 9.415 13.616 10.417 
178 1 8.754 12.366 10.741 
185 1 8.755 14.858 10.713 
189 1 13.616 10.417 9.415 
190 1 12.367 10.741 8.754 
197 1 14.859 10.713 8.755 
ITEM: TIMESTEP
10
ITEM: NUMBER OF ATOMS
203
ITEM: BOX BOUNDS pp pp pp
0.0000000000000000e+00 1.6114000000000001e+01
0.0000000000000000e+00 1.6113000000000000e+01
0.0000000000000000e+00 1.6111999999999998e+01
ITEM: ATOMS id type x y z 
5 1 5.21026 5.26339 5.28048 
65 1 5.5884 6.59887 2.43198 
66 1 5.38027 7.32206 3.71138 
68 1 4.93323 6.66824 4.92862 
79 1 5.23965 7.30675 1.207 
89 1 6.60419 2.43481 5.58551 
90 1 7.31012 3.71986 5.37088 
92 1 6.59366 4.90053 4.90205 
101 1 7.30605 1.20758 5.23923 
109 1 2.43324 5.58693 6.6008 
110 1 3.71737 5.3838 7.32045 
112 1 4.94951 4.94491 6.6989 
121 1 1.20603 5.23951 7.30449 
129 1 6.60264 5.58524 2.43659 
130 1 7.30957 5.37059 3.72075 
137 1 7.30521 5.23983 1.20885 
141 1 2.43627 6.60252 5.58406 
142 1 3.71474 7.32097 5.37397 
149 1 1.20574 7.30652 5.23911 
153 1 5.58914 2.43092 6.59826 
154 1 5.38954 3.71313 7.32018 
161 1 5.23866 1.20536 7.30566 
201 2 4.35206 4.62895 4.84916 
202 2 4.16474 3.96734 3.50028 
203 3 4.72523 3.22694 3.48244 
7 1 6.59796 5.57852 13.6519 
8 1 7.32817 5.3784 12.3852 
10 1 6.61689 4.87544 11.2007 
21 1 7.30949 5.23665 14.8786 
32 1 1.19847 7.31011 10.8403 
40 1 2.4242 6.59585 10.4971 
41 1 3.69072 7.32828 10.6983 
43 1 4.87452 6.61678 11.2007 
47 1 5.23688 1.20116 8.76459 
55 1 5.57741 2.42382 9.47939 
56 1 5.37734 3.69673 8.75082 
58 1 4.8689 4.87096 9.45792 
64 1 5.53438 6.56435 16.0964 
75 1 5.34002 5.33991 10.7283 
118 1 6.56556 5.53383 16.0975 
168 1 5.57855 6.59802 13.6527 
169 1 5.3784 7.32818 12.3848 
176 1 5.23678 7.30994 14.8777 
182 1 7.31013 1.19906 10.84 
186 1 6.59683 2.42484 10.4975 
187 1 7.32821 3.69113 10.698 
191 1 1.20147 5.2371 8.76415 
195 1 2.42557 5.57711 9.47788 
196 1 3.69516 5.3771 8.74877 
9 1 7.31007 10.8405 1.1999 
19 1 6.59602 10.4967 2.42522 
20 1 7.32723 10.699 3.69146 
22 1 6.61634 11.1998 4.87598 
27 1 1.19973 8.76577 5.23783 
35 1 2.43052 9.47425 5.57742 
36 1 3.69443 8.74426 5.37399 
38 1 4.86908 9.4545 4.87279 
44 1 6.56547 16.0973 5.53397 
50 1 5.57913 13.6514 6.59795 
51 1 5.37772 12.3845 7.32726 
53 1 4.87496 11.1999 6.61625 
62 1 5.23655 14.8771 7.31059 
76 1 5.53383 16.0968 6.56427 
81 1 5.33924 10.7294 5.33996 
167 1 5.23779 8.76492 1.20153 
171 1 5.57831 9.47639 2.42886 
172 1 5.37458 8.74718 3.69392 
180 1 6.59787 13.6515 5.57904 
181 1 7.32697 12.3843 5.37757 
188 1 7.31028 14.8777 5.23685 
194 1 1.19819 10.8403 7.31034 
198 1 2.4243 10.4971 6.59627 
199 1 3.69136 10.6993 7.32814 
17 1 5.34129 10.7345 10.735 
39 1 6.56331 16.0953 10.5418 
49 1 5.53425 9.51232 16.0959 
73 1 5.23644 8.76635 14.879 
82 1 5.53458 16.0957 9.51252 
83 1 5.57812 9.47925 13.6517 
84 1 5.37796 8.74858 12.3841 
86 1 4.87492 9.45948 11.2016 
91 1 7.31056 14.8782 10.8402 
99 1 6.5978 13.6525 10.4984 
100 1 7.32704 12.385 10.6989 
102 1 6.61774 11.2011 11.2011 
113 1 6.5626 10.5418 16.0947 
114 1 2.42441 10.4991 9.4788 
115 1 3.69178 10.6996 8.74883 
117 1 4.87491 11.2021 9.45848 
126 1 1.19776 10.8405 8.76633 
131 1 7.31067 10.8408 14.8777 
135 1 6.59737 10.4986 13.6523 
136 1 7.32737 10.6991 12.3841 
144 1 2.42405 9.47955 10.4989 
145 1 3.69238 8.74938 10.6994 
152 1 1.19787 8.76637 10.8406 
158 1 5.23684 14.879 8.76663 
162 1 5.57845 13.652 9.47874 
163 1 5.37757 12.3844 8.74844 
3 1 8.76557 5.23773 1.20212 
13 1 9.47319 5.57872 2.43069 
14 1 8.73969 5.37439 3.69846 
16 1 9.45022 4.87048 4.86964 
24 1 16.0986 5.53375 6.56486 
30 1 13.6526 6.59793 5.57856 
31 1 12.3853 7.32821 5.37746 
33 1 11.201 6.61705 4.87568 
42 1 14.8787 7.30974 5.23694 
52 1 10.8399 1.19954 7.3097 
60 1 10.4961 2.42414 6.59612 
61 1 10.6988 3.69102 7.32801 
63 1 11.2008 4.87527 6.61709 
87 1 10.727 5.33843 5.33887 
98 1 16.0964 6.56517 5.53434 
170 1 10.8401 7.3094 1.20036 
174 1 10.4958 6.59585 2.42475 
175 1 10.6986 7.32794 3.69061 
179 1 8.76611 1.20126 5.23754 
183 1 9.47409 2.43024 5.57891 
184 1 8.74096 3.69814 5.37444 
192 1 13.6521 5.57874 6.59784 
193 1 12.3853 5.37745 7.32835 
200 1 14.8783 5.23653 7.30986 
6 1 16.0966 5.53418 9.51239 
23 1 10.7342 5.34113 10.7348 
59 1 10.5422 6.56321 16.0951 
67 1 10.8408 7.31057 14.8779 
77 1 10.4984 6.5973 13.6525 
78 1 10.6992 7.32701 12.3843 
80 1 11.202 6.61783 11.2015 
93 1 16.0962 6.56299 10.5419 
94 1 9.47906 2.42446 10.4987 
95 1 8.74995 3.69291 10.6992 
97 1 9.45924 4.87562 11.2014 
106 1 8.7666 1.19859 10.8402 
116 1 14.8797 5.23672 8.76715 
123 1 9.51231 5.53398 16.0956 
124 1 13.652 5.57823 9.47875 
125 1 12.3849 5.37714 8.74872 
127 1 11.2028 4.87555 9.45851 
134 1 8.76696 5.23659 14.878 
138 1 9.47893 5.57813 13.6519 
139 1 8.74888 5.37787 12.384 
143 1 14.8787 7.31066 10.8405 
147 1 13.6529 6.59751 10.4984 
148 1 12.3852 7.32706 10.6994 
156 1 10.4986 2.42512 9.47902 
157 1 10.6995 3.69255 8.7496 
164 1 10.8405 1.1983 8.76604 
11 1 10.7353 10.7345 5.34167 
18 1 16.096 10.5418 6.56331 
29 1 9.51267 16.0955 5.5352 
70 1 10.5419 16.0958 6.56366 
71 1 10.4988 9.47918 2.42544 
72 1 10.6995 8.74977 3.69312 
74 1 11.2025 9.45867 4.87543 
85 1 10.8409 8.7662 1.19866 
96 1 8.76657 14.8788 5.23692 
103 1 16.0967 9.5128 5.53529 
104 1 9.47866 13.6517 5.57843 
105 1 8.74843 12.3847 5.3777 
107 1 9.45867 11.2018 4.87595 
111 1 14.8793 10.8406 7.31022 
119 1 13.653 10.4986 6.59756 
120 1 12.3848 10.6996 7.32736 
122 1 11.2023 11.2014 6.61803 
132 1 9.47912 10.4989 2.42512 
133 1 8.74914 10.6993 3.69277 
140 1 8.7665 10.8407 1.1987 
146 1 14.8796 8.76655 5.23667 
150 1 13.6519 9.47878 5.57815 
151 1 12.3849 8.74862 5.3773 
155 1 10.8405 14.8781 7.31046 
159 1 10.4983 13.6526 6.59769 
160 1 10.6991 12.3847 7.32711 
1 1 9.47923 10.499 13.6523 
2 1 8.74956 10.699 12.3842 
4 1 9.45908 11.2014 11.2011 
12 1 16.0959 10.5423 9.5135 
15 1 8.76653 10.8408 14.8783 
25 1 13.6533 9.47888 10.4991 
26 1 12.3852 8.74957 10.6993 
28 1 11.2023 9.45915 11.2012 
34 1 9.51316 16.0948 10.5421 
37 1 14.8795 8.76662 10.8404 
45 1 10.4988 13.6526 9.47896 
46 1 10.6992 12.3848 8.74962 
48 1 11.2021 11.2015 9.45911 
54 1 10.5423 9.51383 16.094 
57 1 10.8404 14.8789 8.76667 
69 1 10.7351 10.7353 10.7351 
88 1 10.542 16.0948 9.51352 
108 1 16.0953 9.51367 10.5422 
128 1 9.51381 10.5424 16.0942 
165 1 10.499 9.4791 13.6524 
166 1 10.6991 8.74957 12.3845 
173 1 10.8407 8.76646 14.8784 
177 1 9.47877 13.6529 10.4989 
178 1 8.74975 12.3846 10.699 
185 1 8.76661 14.8788 10.8402 
189 1 13.6528 10.499 9.47913 
190 1 12.3852 10.6994 8.74941 
197 1 14.8797 10.8406 8.7666 
ITEM: TIMESTEP
20
ITEM: NUMBER OF ATOMS
203
ITEM: BOX BOUNDS pp pp pp
0.0000000000000000e+00 1.6114000000000001e+01
0.0000000000000000e+00 1.6113000000000000e+01
0.0000000000000000e+00 1.6111999999999998e+01
ITEM: ATOMS id type x y z 
5 1 5.18295 5.25096 5.27241 
65 1 5.59768 6.61045 2.43711 
66 1 5.37133 7.32432 3.71458 
68 1 4.93878 6.66022 4.93541 
79 1 5.23399 7.30301 1.21069 
89 1 6.60563 2.43644 5.60279 
90 1 7.30086 3.73046 5.35303 
92 1 6.58294 4.88737 4.88768 
101 1 7.30485 1.2093 5.23348 
109 1 2.44397 5.59928 6.60978 
110 1 3.72107 5.37121 7.3347 
112 1 4.96015 4.95967 6.69912 
121 1 1.21331 5.23437 7.30002 
129 1 6.6058 5.5976 2.43639 
130 1 7.3014 5.35334 3.73215 
137 1 7.30505 5.23317 1.20849 
141 1 2.44079 6.60601 5.59889 
142 1 3.71607 7.32429 5.36323 
149 1 1.21209 7.30241 5.23377 
153 1 5.59954 2.44082 6.61418 
154 1 5.37678 3.71934 7.3333 
161 1 5.23443 1.21352 7.29988 
201 2 4.36252 4.61032 4.83348 
202 2 4.16017 3.93234 3.43126 
203 3 4.71727 3.19159 3.44318 
7 1 6.60204 5.58563 13.6615 
8 1 7.32485 5.35983 12.3908 
10 1 6.60894 4.86585 11.2105 
21 1 7.3077 5.22792 14.8853 
32 1 1.19551 7.30848 10.8494 
40 1 2.41621 6.60031 10.4902 
41 1 3.6849 7.32567 10.7161 
43 1 4.86543 6.60892 11.2109 
47 1 5.22848 1.19802 8.76198 
55 1 5.58219 2.42279 9.46959 
56 1 5.35261 3.68754 8.75492 
58 1 4.86023 4.85783 9.4605 
64 1 5.52916 6.5594 16.0997 
75 1 5.36014 5.3603 10.7117 
118 1 6.5613 5.52822 16.1021 
168 1 5.58577 6.60202 13.6613 
169 1 5.35982 7.32494 12.3906 
176 1 5.22803 7.30757 14.8845 
182 1 7.30847 1.19586 10.8494 
186 1 6.59975 2.41684 10.4896 
187 1 7.3255 3.68571 10.716 
191 1 1.19727 5.2289 8.76168 
195 1 2.42063 5.58246 9.4701 
196 1 3.68832 5.35104 8.75625 
9 1 7.30791 10.8489 1.19711 
19 1 6.5997 10.4883 2.41776 
20 1 7.32377 10.7169 3.68773 
22 1 6.60967 11.2106 4.86472 
27 1 1.198 8.76264 5.23023 
35 1 2.42332 9.46765 5.58477 
36 1 3.68835 8.74874 5.34775 
38 1 4.86301 9.46342 4.86131 
44 1 6.56089 16.1015 5.52834 
50 1 5.58569 13.661 6.60213 
51 1 5.35867 12.3882 7.32279 
53 1 4.8641 11.211 6.60991 
62 1 5.22818 14.8849 7.30762 
76 1 5.52815 16.1005 6.56019 
81 1 5.36025 10.7113 5.36073 
167 1 5.22972 8.76288 1.19891 
171 1 5.58368 9.46788 2.42472 
172 1 5.34909 8.74815 3.68862 
180 1 6.60239 13.6614 5.58547 
181 1 7.32258 12.3886 5.35879 
188 1 7.30847 14.8843 5.22823 
194 1 1.19653 10.8487 7.30759 
198 1 2.41705 10.4876 6.59954 
199 1 3.68671 10.7171 7.3238 
17 1 5.36015 10.7153 10.7157 
39 1 6.55806 16.0954 10.5485 
49 1 5.52682 9.5147 16.0981 
73 1 5.22681 8.7661 14.8832 
82 1 5.52694 16.0973 9.5151 
83 1 5.58436 9.47384 13.6609 
84 1 5.36 8.74915 12.3904 
86 1 4.86332 9.46201 11.2136 
91 1 7.30879 14.8832 10.85 
99 1 6.60075 13.662 10.4913 
100 1 7.32566 12.3906 10.7165 
102 1 6.61364 11.2125 11.2124 
113 1 6.5577 10.5485 16.0955 
114 1 2.41556 10.492 9.47545 
115 1 3.68572 10.7175 8.74983 
117 1 4.86349 11.2134 9.4621 
126 1 1.19462 10.8506 8.76616 
131 1 7.30907 10.8505 14.8828 
135 1 6.60071 10.4916 13.6614 
136 1 7.32578 10.7165 12.3904 
144 1 2.41594 9.4753 10.492 
145 1 3.68586 8.75073 10.7172 
152 1 1.19456 8.76698 10.8506 
158 1 5.22705 14.8824 8.7653 
162 1 5.58462 13.6614 9.47359 
163 1 5.36002 12.3909 8.74881 
3 1 8.76251 5.23034 1.20219 
13 1 9.459 5.58642 2.43144 
14 1 8.73008 5.34929 3.69286 
16 1 9.45531 4.86167 4.86111 
24 1 16.1015 5.52852 6.56037 
30 1 13.6624 6.602 5.58518 
31 1 12.39 7.32288 5.35908 
33 1 11.21 6.60912 4.86546 
42 1 14.8852 7.30825 5.22814 
52 1 10.8479 1.19784 7.30641 
60 1 10.4836 2.41824 6.59717 
61 1 10.7163 3.6865 7.32369 
63 1 11.2103 4.86556 6.60915 
87 1 10.7087 5.35751 5.35769 
98 1 16.1012 6.55971 5.52927 
170 1 10.8478 7.30672 1.19814 
174 1 10.4837 6.59729 2.41855 
175 1 10.7161 7.32389 3.68682 
179 1 8.76347 1.20146 5.23015 
183 1 9.46008 2.43086 5.58669 
184 1 8.73075 3.69223 5.34917 
192 1 13.6622 5.58522 6.60189 
193 1 12.3896 5.35888 7.32312 
200 1 14.8867 5.22809 7.30735 
6 1 16.0988 5.52684 9.51469 
23 1 10.7156 5.36055 10.7159 
59 1 10.5483 6.55782 16.0958 
67 1 10.8503 7.3086 14.8834 
77 1 10.4917 6.60063 13.6616 
78 1 10.7166 7.32589 12.3907 
80 1 11.2133 6.61382 11.2127 
93 1 16.0958 6.55816 10.5486 
94 1 9.47501 2.41632 10.4924 
95 1 8.75041 3.68647 10.7168 
97 1 9.46182 4.86412 11.2136 
106 1 8.76674 1.19507 10.8506 
116 1 14.883 5.22696 8.76557 
123 1 9.51457 5.52675 16.0992 
124 1 13.6623 5.58465 9.47407 
125 1 12.392 5.36024 8.74923 
127 1 11.214 4.86373 9.46203 
134 1 8.76639 5.22688 14.8835 
138 1 9.47359 5.58425 13.6612 
139 1 8.74919 5.36015 12.3906 
143 1 14.8838 7.30886 10.8498 
147 1 13.6628 6.60076 10.4914 
148 1 12.3916 7.32577 10.7167 
156 1 10.4923 2.41573 9.47547 
157 1 10.7169 3.68635 8.75014 
164 1 10.8505 1.19495 8.76546 
11 1 10.7157 10.7158 5.36069 
18 1 16.0967 10.5483 6.55778 
29 1 9.51475 16.0987 5.52721 
70 1 10.5481 16.0962 6.55792 
71 1 10.4922 9.47539 2.41586 
72 1 10.7168 8.75019 3.68657 
74 1 11.2138 9.4622 4.86386 
85 1 10.8504 8.76544 1.19531 
96 1 8.76597 14.8839 5.22745 
103 1 16.0989 9.5145 5.52733 
104 1 9.47327 13.6618 5.58436 
105 1 8.74869 12.3907 5.36006 
107 1 9.46203 11.2134 4.86435 
111 1 14.884 10.8504 7.30874 
119 1 13.6623 10.492 6.60103 
120 1 12.3913 10.7169 7.32574 
122 1 11.2131 11.2128 6.61378 
132 1 9.47507 10.4923 2.4163 
133 1 8.74972 10.7171 3.68661 
140 1 8.76623 10.8507 1.1953 
146 1 14.8846 8.76603 5.22722 
150 1 13.6625 9.47398 5.58421 
151 1 12.3912 8.74934 5.36019 
155 1 10.8503 14.8836 7.30842 
159 1 10.4915 13.6617 6.60082 
160 1 10.7167 12.3907 7.32582 
1 1 9.47554 10.4922 13.6611 
2 1 8.75144 10.7168 12.3899 
4 1 9.46355 11.2125 11.2124 
12 1 16.0962 10.5499 9.51837 
15 1 8.76692 10.8509 14.8822 
25 1 13.662 9.47531 10.4923 
26 1 12.3909 8.75159 10.7171 
28 1 11.2132 9.46348 11.2126 
34 1 9.51821 16.0952 10.5501 
37 1 14.8835 8.76635 10.8506 
45 1 10.4923 13.6612 9.47554 
46 1 10.717 12.3902 8.75152 
48 1 11.2132 11.2128 9.4636 
54 1 10.5502 9.51802 16.0952 
57 1 10.851 14.8826 8.76682 
69 1 10.716 10.7158 10.7157 
88 1 10.5502 16.0958 9.518 
108 1 16.0958 9.51826 10.55 
128 1 9.51834 10.5501 16.0947 
165 1 10.4922 9.47551 13.6611 
166 1 10.717 8.75164 12.3901 
173 1 10.8509 8.76684 14.8822 
177 1 9.47535 13.6614 10.4923 
178 1 8.75157 12.3901 10.7168 
185 1 8.76643 14.8827 10.8508 
189 1 13.6619 10.4922 9.4757 
190 1 12.3909 10.7172 8.75163 
197 1 14.8833 10.8509 8.76701 
ITEM: TIMESTEP
30
ITEM: NUMBER OF ATOMS
203
ITEM: BOX BOUNDS pp pp pp
0.0000000000000000e+00 1.6114000000000001e+01
0.0000000000000000e+00 1.6113000000000000e+01
0.0000000000000000e+00 1.6111999999999998e+01
ITEM: ATOMS id type x y z 
5 1 5.1583 5.22623 5.26147 
65 1 5.60576 6.62401 2.44245 
66 1 5.35832 7.32188 3.72961 
68 1 4.93165 6.64935 4.93437 
79 1 5.2234 7.30052 1.20859 
89 1 6.61252 2.43643 5.61803 
90 1 7.29161 3.7274 5.33487 
92 1 6.55485 4.88001 4.88017 
101 1 7.29974 1.20989 5.22614 
109 1 2.45497 5.60712 6.62636 
110 1 3.73041 5.35973 7.3422 
112 1 4.97021 4.97557 6.70179 
121 1 1.21655 5.22556 7.29587 
129 1 6.61225 5.60876 2.43483 
130 1 7.29119 5.33602 3.72778 
137 1 7.30064 5.22265 1.20855 
141 1 2.44758 6.61644 5.61122 
142 1 3.72542 7.32692 5.34968 
149 1 1.21429 7.29642 5.22577 
153 1 5.60652 2.45308 6.63341 
154 1 5.36336 3.73606 7.33664 
161 1 5.22459 1.2129 7.29832 
201 2 4.35753 4.56995 4.78379 
202 2 4.15337 3.87536 3.31732 
203 3 4.70253 3.13097 3.3759 
7 1 6.60928 5.59317 13.6725 
8 1 7.32547 5.3301 12.4053 
10 1 6.60515 4.85531 11.2231 
21 1 7.30609 5.21602 14.8957 
32 1 1.18775 7.30818 10.8623 
40 1 2.40818 6.60836 10.4845 
41 1 3.67358 7.32656 10.7454 
43 1 4.85488 6.6051 11.2231 
47 1 5.2161 1.18898 8.75851 
55 1 5.58854 2.40587 9.46942 
56 1 5.32455 3.67348 8.76041 
58 1 4.85806 4.85466 9.48708 
64 1 5.51751 6.54993 16.1058 
75 1 5.38323 5.3832 10.7048 
118 1 6.55036 5.51704 16.1055 
168 1 5.59354 6.60896 13.6717 
169 1 5.32992 7.32575 12.4051 
176 1 5.21625 7.30485 14.8957 
182 1 7.3077 1.18837 10.8621 
186 1 6.60745 2.40852 10.4838 
187 1 7.32606 3.67369 10.7449 
191 1 1.18908 5.21723 8.75646 
195 1 2.4043 5.58852 9.47135 
196 1 3.6732 5.32035 8.76673 
9 1 7.30629 10.8603 1.19113 
19 1 6.60659 10.4792 2.41123 
20 1 7.32608 10.7446 3.67535 
22 1 6.60398 11.2228 4.85515 
27 1 1.19189 8.75594 5.21922 
35 1 2.41244 9.46377 5.59067 
36 1 3.6767 8.75369 5.31472 
38 1 4.85794 9.48274 4.85491 
44 1 6.55044 16.1061 5.51805 
50 1 5.59391 13.6718 6.60917 
51 1 5.32915 12.4048 7.32439 
53 1 4.8544 11.2228 6.60418 
62 1 5.21733 14.8967 7.30365 
76 1 5.51766 16.1082 6.5504 
81 1 5.38321 10.7015 5.38356 
167 1 5.21756 8.75979 1.19244 
171 1 5.58958 9.46333 2.41444 
172 1 5.31984 8.74842 3.67759 
180 1 6.60935 13.6725 5.59382 
181 1 7.32436 12.4047 5.32938 
188 1 7.30591 14.8955 5.21726 
194 1 1.19007 10.8599 7.30619 
198 1 2.41051 10.4787 6.60726 
199 1 3.67489 10.7451 7.32633 
17 1 5.3796 10.6947 10.6941 
39 1 6.54623 16.096 10.5585 
49 1 5.51566 9.52288 16.0986 
73 1 5.21428 8.76476 14.8908 
82 1 5.51556 16.0964 9.5224 
83 1 5.59261 9.46538 13.6697 
84 1 5.32923 8.7491 12.4025 
86 1 4.85625 9.47274 11.2211 
91 1 7.30647 14.8903 10.8623 
99 1 6.6071 13.669 10.4821 
100 1 7.32506 12.4028 10.7461 
102 1 6.60317 11.2207 11.2207 
113 1 6.54632 10.5589 16.0964 
114 1 2.40881 10.4837 9.46784 
115 1 3.67446 10.7484 8.74965 
117 1 4.85602 11.2216 9.47205 
126 1 1.1886 10.8632 8.76658 
131 1 7.30668 10.8627 14.8905 
135 1 6.60725 10.4827 13.6688 
136 1 7.32526 10.7462 12.4023 
144 1 2.40845 9.46857 10.4834 
145 1 3.67452 8.7504 10.7476 
152 1 1.18831 8.76847 10.8636 
158 1 5.21476 14.8895 8.76281 
162 1 5.59275 13.6691 9.46415 
163 1 5.32904 12.4025 8.74779 
3 1 8.75999 5.21958 1.19846 
13 1 9.4451 5.5955 2.43017 
14 1 8.72198 5.31614 3.687 
16 1 9.46585 4.8565 4.85674 
24 1 16.11 5.51774 6.55078 
30 1 13.6721 6.60918 5.59327 
31 1 12.4032 7.32232 5.32943 
33 1 11.2206 6.60045 4.85647 
42 1 14.8965 7.30465 5.21734 
52 1 10.8562 1.1945 7.30279 
60 1 10.4692 2.41473 6.60396 
61 1 10.7436 3.67692 7.32445 
63 1 11.2206 4.85618 6.6004 
87 1 10.6939 5.37842 5.37844 
98 1 16.1087 6.55067 5.51803 
170 1 10.8563 7.30325 1.19504 
174 1 10.4693 6.6043 2.41528 
175 1 10.7433 7.3248 3.67735 
179 1 8.75907 1.19761 5.22002 
183 1 9.44537 2.42925 5.59561 
184 1 8.72252 3.68584 5.31515 
192 1 13.6722 5.59309 6.60908 
193 1 12.4035 5.32927 7.32192 
200 1 14.8976 5.21704 7.30344 
6 1 16.098 5.51579 9.52177 
23 1 10.6953 5.37974 10.6944 
59 1 10.5576 6.54589 16.098 
67 1 10.8622 7.30613 14.8915 
77 1 10.4826 6.60704 13.6696 
78 1 10.7461 7.32559 12.4032 
80 1 11.2213 6.6039 11.2212 
93 1 16.0968 6.54614 10.5583 
94 1 9.46878 2.40862 10.4836 
95 1 8.75011 3.67466 10.7471 
97 1 9.47219 4.85674 11.2214 
106 1 8.76819 1.18848 10.8637 
116 1 14.8905 5.21443 8.7629 
123 1 9.52163 5.51535 16.1028 
124 1 13.6697 5.59218 9.46422 
125 1 12.4033 5.32994 8.74594 
127 1 11.2229 4.85543 9.47082 
134 1 8.76584 5.21445 14.8934 
138 1 9.46521 5.59247 13.6709 
139 1 8.74888 5.32966 12.4036 
143 1 14.8913 7.30663 10.8625 
147 1 13.67 6.60684 10.4824 
148 1 12.4041 7.32539 10.7463 
156 1 10.484 2.40884 9.46744 
157 1 10.7473 3.67443 8.74827 
164 1 10.8623 1.18945 8.76355 
11 1 10.6948 10.6945 5.37964 
18 1 16.0977 10.5579 6.54587 
29 1 9.521 16.1026 5.51547 
70 1 10.557 16.0984 6.54559 
71 1 10.4836 9.46741 2.40922 
72 1 10.7473 8.7485 3.67472 
74 1 11.2227 9.47114 4.85572 
85 1 10.862 8.76381 1.18993 
96 1 8.76493 14.8938 5.21544 
103 1 16.1004 9.52128 5.5162 
104 1 9.46386 13.6705 5.59256 
105 1 8.74771 12.4036 5.32941 
107 1 9.47183 11.2216 4.85679 
111 1 14.8919 10.8625 7.30638 
119 1 13.67 10.4825 6.60684 
120 1 12.4038 10.7465 7.3254 
122 1 11.2213 11.2212 6.60374 
132 1 9.46811 10.4836 2.40937 
133 1 8.74955 10.7479 3.67486 
140 1 8.76683 10.8632 1.18917 
146 1 14.8923 8.76407 5.21503 
150 1 13.6699 9.46425 5.59219 
151 1 12.4034 8.74619 5.32996 
155 1 10.862 14.8918 7.30579 
159 1 10.4821 13.6697 6.6069 
160 1 10.7462 12.4033 7.32546 
1 1 9.46819 10.4846 13.6691 
2 1 8.74971 10.7458 12.4026 
4 1 9.47243 11.2213 11.2213 
12 1 16.0968 10.5621 9.52801 
15 1 8.76725 10.864 14.89 
25 1 13.6703 9.46827 10.4846 
26 1 12.4036 8.75017 10.7461 
28 1 11.2219 9.47244 11.2214 
34 1 9.529 16.0956 10.5614 
37 1 14.8909 8.76713 10.8639 
45 1 10.4847 13.6696 9.4684 
46 1 10.7459 12.403 8.7501 
48 1 11.2221 11.2216 9.47239 
54 1 10.5619 9.52712 16.0966 
57 1 10.864 14.8904 8.76632 
69 1 10.6957 10.6954 10.6953 
88 1 10.5622 16.0969 9.527 
108 1 16.0962 9.52872 10.5618 
128 1 9.52866 10.5613 16.0958 
165 1 10.4846 9.46832 13.6694 
166 1 10.7459 8.75004 12.4029 
173 1 10.8639 8.76654 14.8902 
177 1 9.4681 13.6695 10.4847 
178 1 8.74983 12.4028 10.7458 
185 1 8.76703 14.8904 10.8638 
189 1 13.6702 10.4847 9.46841 
190 1 12.4036 10.7461 8.75007 
197 1 14.8908 10.8641 8.76694 
ITEM: TIMESTEP
40
ITEM: NUMBER OF ATOMS
203
ITEM: BOX BOUNDS pp pp pp
0.0000000000000000e+00 1.6114000000000001e+01
0.0000000000000000e+00 1.6113000000000000e+01
0.0000000000000000e+00 1.6111999999999998e+01
ITEM: ATOMS id type x y z 
5 1 5.15604 5.21967 5.25477 
65 1 5.60581 6.62459 2.44186 
66 1 5.35768 7.32243 3.72891 
68 1 4.92582 6.64371 4.92931 
79 1 5.22381 7.30127 1.20885 
89 1 6.61276 2.43586 5.61772 
90 1 7.29224 3.72571 5.33414 
92 1 6.55451 4.87821 4.87948 
101 1 7.29884 1.2101 5.22779 
109 1 2.45255 5.60816 6.6266 
110 1 3.73072 5.36345 7.34281 
112 1 4.96473 4.97048 6.6993 
121 1 1.21502 5.22619 7.29794 
129 1 6.61115 5.60932 2.43404 
130 1 7.29093 5.33466 3.72709 
137 1 7.30035 5.22356 1.2081 
141 1 2.4466 6.6185 5.61192 
142 1 3.72344 7.32821 5.35044 
149 1 1.21456 7.29614 5.22742 
153 1 5.60627 2.4502 6.63285 
154 1 5.36658 3.73658 7.33688 
161 1 5.22452 1.21191 7.30088 
201 2 4.35905 4.56636 4.77065 
202 2 4.15288 3.86765 3.30077 
203 3 4.69949 3.12196 3.36606 
7 1 6.60932 5.59337 13.6732 
8 1 7.32666 5.32638 12.4075 
10 1 6.60838 4.85573 11.2233 
21 1 7.30617 5.21698 14.897 
32 1 1.18673 7.30872 10.8609 
40 1 2.40706 6.60841 10.4848 
41 1 3.6726 7.32726 10.7497 
43 1 4.85552 6.60811 11.2233 
47 1 5.21738 1.18854 8.75881 
55 1 5.58815 2.40419 9.47186 
56 1 5.32613 3.67308 8.76283 
58 1 4.8591 4.85651 9.49275 
64 1 5.51605 6.54873 16.107 
75 1 5.38056 5.38041 10.7116 
118 1 6.54861 5.5159 16.1062 
168 1 5.59362 6.60906 13.6727 
169 1 5.32601 7.32675 12.4071 
176 1 5.21727 7.30488 14.8971 
182 1 7.30838 1.18746 10.8607 
186 1 6.60765 2.40747 10.484 
187 1 7.32682 3.6727 10.749 
191 1 1.18884 5.21884 8.7563 
195 1 2.40268 5.58772 9.47392 
196 1 3.67202 5.32142 8.76832 
9 1 7.3068 10.8586 1.1902 
19 1 6.60674 10.479 2.41074 
20 1 7.32643 10.7484 3.674 
22 1 6.60627 11.2223 4.85662 
27 1 1.19193 8.75596 5.22074 
35 1 2.41227 9.46406 5.58928 
36 1 3.67619 8.75459 5.3156 
38 1 4.85838 9.48313 4.85537 
44 1 6.54897 16.1073 5.51671 
50 1 5.59362 13.6728 6.6091 
51 1 5.32527 12.4069 7.32525 
53 1 4.8561 11.2225 6.60619 
62 1 5.21793 14.8982 7.30323 
76 1 5.51571 16.1107 6.5496 
81 1 5.37966 10.7073 5.37971 
167 1 5.21847 8.76028 1.19226 
171 1 5.5889 9.4633 2.41499 
172 1 5.32186 8.74857 3.67733 
180 1 6.60947 13.6726 5.5936 
181 1 7.3254 12.4071 5.3258 
188 1 7.30545 14.8975 5.21797 
194 1 1.18901 10.8584 7.30683 
198 1 2.40988 10.4791 6.60773 
199 1 3.67354 10.749 7.32672 
17 1 5.37744 10.6985 10.6979 
39 1 6.54526 16.096 10.5589 
49 1 5.51501 9.52387 16.0986 
73 1 5.21587 8.7644 14.8918 
82 1 5.51505 16.0972 9.52336 
83 1 5.59312 9.46544 13.67 
84 1 5.32583 8.74984 12.4044 
86 1 4.857 9.4707 11.2197 
91 1 7.30731 14.8905 10.8606 
99 1 6.60748 13.6692 10.4816 
100 1 7.32502 12.404 10.7493 
102 1 6.60497 11.2199 11.2196 
113 1 6.54554 10.5594 16.0964 
114 1 2.40863 10.4838 9.46745 
115 1 3.67326 10.7514 8.7498 
117 1 4.85723 11.2202 9.47037 
126 1 1.18758 10.8616 8.76632 
131 1 7.3072 10.8609 14.8909 
135 1 6.60775 10.4823 13.6693 
136 1 7.32499 10.7494 12.4037 
144 1 2.40895 9.46798 10.4836 
145 1 3.67313 8.75042 10.7507 
152 1 1.18715 8.7681 10.8622 
158 1 5.21611 14.8909 8.76288 
162 1 5.5936 13.6691 9.46466 
163 1 5.32564 12.404 8.74832 
3 1 8.75907 5.22081 1.19814 
13 1 9.44514 5.59501 2.4296 
14 1 8.72186 5.31792 3.6867 
16 1 9.46477 4.85824 4.85816 
24 1 16.1124 5.51635 6.54985 
30 1 13.6726 6.60914 5.59317 
31 1 12.4053 7.32248 5.3258 
33 1 11.2203 6.60218 4.8579 
42 1 14.8988 7.30387 5.21852 
52 1 10.8539 1.19409 7.30321 
60 1 10.4688 2.41472 6.60524 
61 1 10.7467 3.67605 7.32456 
63 1 11.2204 4.85761 6.60207 
87 1 10.6972 5.37482 5.37483 
98 1 16.1102 6.5495 5.51687 
170 1 10.854 7.30331 1.1948 
174 1 10.4685 6.60521 2.41539 
175 1 10.7465 7.32468 3.67645 
179 1 8.75798 1.19737 5.22147 
183 1 9.44535 2.42839 5.59481 
184 1 8.72294 3.68597 5.3165 
192 1 13.6732 5.59295 6.60886 
193 1 12.4054 5.32556 7.3221 
200 1 14.8991 5.21814 7.30286 
6 1 16.0986 5.51542 9.5221 
23 1 10.699 5.37729 10.6978 
59 1 10.5581 6.54513 16.0984 
67 1 10.8603 7.30625 14.8924 
77 1 10.4823 6.60757 13.6702 
78 1 10.7494 7.32503 12.4047 
80 1 11.2205 6.60542 11.2201 
93 1 16.0968 6.54508 10.5584 
94 1 9.46826 2.40896 10.4835 
95 1 8.75028 3.67322 10.7503 
97 1 9.47036 4.8575 11.2201 
106 1 8.76788 1.18741 10.862 
116 1 14.8917 5.21609 8.76263 
123 1 9.52221 5.5144 16.1035 
124 1 13.6697 5.59309 9.4641 
125 1 12.4048 5.32644 8.74617 
127 1 11.2215 4.85714 9.46951 
134 1 8.76574 5.21593 14.8943 
138 1 9.46528 5.59278 13.6716 
139 1 8.75002 5.32613 12.4054 
143 1 14.8915 7.3069 10.8606 
147 1 13.6702 6.60694 10.4816 
148 1 12.4052 7.32503 10.7495 
156 1 10.4837 2.40853 9.46683 
157 1 10.7507 3.67342 8.74858 
164 1 10.8602 1.18857 8.76314 
11 1 10.6987 10.698 5.37733 
18 1 16.0977 10.5582 6.54519 
29 1 9.52158 16.104 5.51452 
70 1 10.5577 16.0987 6.54509 
71 1 10.4832 9.46709 2.40896 
72 1 10.7506 8.74879 3.67381 
74 1 11.2215 9.46993 4.85757 
85 1 10.86 8.76341 1.18918 
96 1 8.76523 14.8942 5.2167 
103 1 16.1012 9.52143 5.51556 
104 1 9.46429 13.6713 5.59321 
105 1 8.74878 12.4053 5.32587 
107 1 9.47033 11.2205 4.85806 
111 1 14.8921 10.8605 7.30638 
119 1 13.6704 10.4817 6.607 
120 1 12.4052 10.7496 7.32501 
122 1 11.2203 11.2202 6.60526 
132 1 9.46792 10.4834 2.40912 
133 1 8.74983 10.751 3.67368 
140 1 8.76658 10.8614 1.1884 
146 1 14.8927 8.76378 5.21668 
150 1 13.6703 9.46403 5.59304 
151 1 12.4051 8.74658 5.32646 
155 1 10.8599 14.8926 7.3059 
159 1 10.4816 13.6703 6.6074 
160 1 10.7493 12.4049 7.32507 
1 1 9.46793 10.4838 13.6698 