LAMMPS (3 Mar 2020)
Reading data file ...
  orthogonal box = (0 0 0) to (7.097 7.097 24.588)
  1 by 2 by 4 MPI processor grid
  reading atoms ...
  34 atoms
  read_data CPU = 0.00934642 secs
WARNING: Using 'neigh_modify every 1 delay 0 check yes' setting during minimization (../min.cpp:190)
WARNING: Total cutoff < 2*bond cutoff. May need to use an increased neighbor list skin. (../pair_reaxc.cpp:413)
Neighbor list info ...
  update every 1 steps, delay 0 steps, check yes
  max neighbors/atom: 2000, page size: 100000
  master list distance cutoff = 9.5
  ghost atom cutoff = 9.5
  binsize = 4.75, bins = 2 2 6
  2 neighbor lists, perpetual/occasional/extra = 2 0 0
  (1) pair reax/c, perpetual
      attributes: half, newton off, ghost
      pair build: half/bin/newtoff/ghost
      stencil: half/ghost/bin/3d/newtoff
      bin: standard
  (2) fix qeq/reax, perpetual, copy from (1)
      attributes: half, newton off, ghost
      pair build: copy
      stencil: none
      bin: none
Setting up cg style minimization ...
  Unit style    : real
  Current step  : 0
Per MPI rank memory allocation (min/avg/max) = 14.45 | 15.02 | 15.59 Mbytes
Step Temp E_pair E_mol TotEng Press 
       0            0   -5938.9437            0   -5938.9437    1666.8762 
      50            0   -5973.0566            0   -5973.0566    859.32077 
Loop time of 0.525266 on 8 procs for 50 steps with 34 atoms

99.4% CPU use with 8 MPI tasks x no OpenMP threads

Minimization stats:
  Stopping criterion = energy tolerance
  Energy initial, next-to-last, final = 
        -5938.94368477     -5973.05658413     -5973.05660544
  Force two-norm initial, final = 384.203 54.4273
  Force max component initial, final = 300.346 15.1326
  Final line search alpha, max atom move = 0.000206505 0.00312497
  Iterations, force evaluations = 50 311

MPI task timing breakdown:
Section |  min time  |  avg time  |  max time  |%varavg| %total
---------------------------------------------------------------
Pair    | 0.34161    | 0.35263    | 0.36585    |   1.4 | 67.13
Neigh   | 0          | 0          | 0          |   0.0 |  0.00
Comm    | 0.0038779  | 0.017102   | 0.028275   |   6.5 |  3.26
Output  | 5.7018e-05 | 7.105e-05  | 9.6581e-05 |   0.0 |  0.01
Modify  | 0.15378    | 0.15385    | 0.15391    |   0.0 | 29.29
Other   |            | 0.00162    |            |       |  0.31

Nlocal:    4.25 ave 10 max 0 min
Histogram: 4 0 0 0 0 0 0 0 3 1
Nghost:    408.75 ave 417 max 399 min
Histogram: 1 1 0 0 0 4 0 0 0 2
Neighs:    425.625 ave 1047 max 0 min
Histogram: 4 0 0 0 0 0 0 3 0 1

Total # of neighbors = 3405
Ave neighs/atom = 100.147
Neighbor list builds = 0
Dangerous builds = 0
WARNING: Using 'neigh_modify every 1 delay 0 check yes' setting during minimization (../min.cpp:190)
WARNING: Total cutoff < 2*bond cutoff. May need to use an increased neighbor list skin. (../pair_reaxc.cpp:413)
Setting up cg style minimization ...
  Unit style    : real
  Current step  : 50
Per MPI rank memory allocation (min/avg/max) = 14.45 | 15.02 | 15.59 Mbytes
Step Temp E_pair E_mol TotEng Press 
      50            0   -5973.0566            0   -5973.0566    859.32077 
      51            0   -5973.0566            0   -5973.0566    859.30981 
Loop time of 0.0146488 on 8 procs for 1 steps with 34 atoms

99.6% CPU use with 8 MPI tasks x no OpenMP threads

Minimization stats:
  Stopping criterion = energy tolerance
  Energy initial, next-to-last, final = 
        -5973.05660544     -5973.05660544     -5973.05661179
  Force two-norm initial, final = 54.4273 54.4261
  Force max component initial, final = 15.1326 15.1326
  Final line search alpha, max atom move = 0.000206507 0.00312499
  Iterations, force evaluations = 1 8

MPI task timing breakdown:
Section |  min time  |  avg time  |  max time  |%varavg| %total
---------------------------------------------------------------
Pair    | 0.0096674  | 0.01001    | 0.010393   |   0.2 | 68.33
Neigh   | 0          | 0          | 0          |   0.0 |  0.00
Comm    | 0.00010806 | 0.00049007 | 0.00083748 |   0.0 |  3.35
Output  | 0          | 0          | 0          |   0.0 |  0.00
Modify  | 0.004065   | 0.0040676  | 0.0040701  |   0.0 | 27.77
Other   |            | 8.15e-05   |            |       |  0.56

Nlocal:    4.25 ave 10 max 0 min
Histogram: 4 0 0 0 0 0 0 0 3 1
Nghost:    408.75 ave 417 max 399 min
Histogram: 1 1 0 0 0 4 0 0 0 2
Neighs:    424.875 ave 1044 max 0 min
Histogram: 4 0 0 0 0 0 0 3 0 1

Total # of neighbors = 3399
Ave neighs/atom = 99.9706
Neighbor list builds = 0
Dangerous builds = 0
WARNING: Using 'neigh_modify every 1 delay 0 check yes' setting during minimization (../min.cpp:190)
WARNING: Total cutoff < 2*bond cutoff. May need to use an increased neighbor list skin. (../pair_reaxc.cpp:413)
Setting up cg style minimization ...
  Unit style    : real
  Current step  : 51
WARNING: Energy due to 3 extra global DOFs will be included in minimizer energies
Per MPI rank memory allocation (min/avg/max) = 14.45 | 15.02 | 15.59 Mbytes
Step Temp E_pair E_mol TotEng Press Volume 
      51            0   -5973.0566            0   -5973.0566    859.30981    1238.4339 
     126            0   -5974.5064            0   -5974.5064    -205.1678    1238.6108 
Loop time of 0.132355 on 8 procs for 75 steps with 34 atoms

99.6% CPU use with 8 MPI tasks x no OpenMP threads

Minimization stats:
  Stopping criterion = energy tolerance
  Energy initial, next-to-last, final = 
        -5973.05661179     -5974.50639358     -5974.50643385
  Force two-norm initial, final = 68.4066 29.6615
  Force max component initial, final = 30.7355 16.9715
  Final line search alpha, max atom move = 4.53997e-08 7.70503e-07
  Iterations, force evaluations = 75 88

MPI task timing breakdown:
Section |  min time  |  avg time  |  max time  |%varavg| %total
---------------------------------------------------------------
Pair    | 0.094706   | 0.097853   | 0.10137    |   0.7 | 73.93
Neigh   | 0          | 0          | 0          |   0.0 |  0.00
Comm    | 0.0010266  | 0.0045284  | 0.0077163  |   3.4 |  3.42
Output  | 8.6322e-05 | 0.00010497 | 0.00013679 |   0.0 |  0.08
Modify  | 0.028434   | 0.028456   | 0.028482   |   0.0 | 21.50
Other   |            | 0.001413   |            |       |  1.07

Nlocal:    4.25 ave 10 max 0 min
Histogram: 4 0 0 0 0 0 0 0 3 1
Nghost:    408.75 ave 417 max 399 min
Histogram: 1 1 0 0 0 4 0 0 0 2
Neighs:    424.875 ave 1044 max 0 min
Histogram: 4 0 0 0 0 0 0 3 0 1

Total # of neighbors = 3399
Ave neighs/atom = 99.9706
Neighbor list builds = 0
Dangerous builds = 0
WARNING: Using 'neigh_modify every 1 delay 0 check yes' setting during minimization (../min.cpp:190)
WARNING: Total cutoff < 2*bond cutoff. May need to use an increased neighbor list skin. (../pair_reaxc.cpp:413)
Setting up cg style minimization ...
  Unit style    : real
  Current step  : 126
Per MPI rank memory allocation (min/avg/max) = 14.45 | 15.02 | 15.59 Mbytes
Step Temp E_pair E_mol TotEng Press 
     126            0   -5974.5064            0   -5974.5064    -205.1678 
     127            0   -5974.5064            0   -5974.5064    -205.1678 
Loop time of 0.0833178 on 8 procs for 1 steps with 34 atoms

99.6% CPU use with 8 MPI tasks x no OpenMP threads

Minimization stats:
  Stopping criterion = linesearch alpha is zero
  Energy initial, next-to-last, final = 
        -5974.50643385     -5974.50643385     -5974.50643385
  Force two-norm initial, final = 23.916 23.916
  Force max component initial, final = 8.11541 8.11541
  Final line search alpha, max atom move = 1.1476e-11 9.31323e-11
  Iterations, force evaluations = 1 55

MPI task timing breakdown:
Section |  min time  |  avg time  |  max time  |%varavg| %total
---------------------------------------------------------------
Pair    | 0.059522   | 0.061474   | 0.063612   |   0.6 | 73.78
Neigh   | 0          | 0          | 0          |   0.0 |  0.00
Comm    | 0.00067029 | 0.0028032  | 0.0047793  |   2.6 |  3.36
Output  | 0          | 0          | 0          |   0.0 |  0.00
Modify  | 0.018722   | 0.018731   | 0.018741   |   0.0 | 22.48
Other   |            | 0.0003094  |            |       |  0.37

Nlocal:    4.25 ave 10 max 0 min
Histogram: 4 0 0 0 0 0 0 0 3 1
Nghost:    408.75 ave 417 max 399 min
Histogram: 1 1 0 0 0 4 0 0 0 2
Neighs:    422.875 ave 1046 max 0 min
Histogram: 4 0 0 0 0 0 0 3 0 1

Total # of neighbors = 3383
Ave neighs/atom = 99.5
Neighbor list builds = 0
Dangerous builds = 0
WARNING: Using 'neigh_modify every 1 delay 0 check yes' setting during minimization (../min.cpp:190)
WARNING: Total cutoff < 2*bond cutoff. May need to use an increased neighbor list skin. (../pair_reaxc.cpp:413)
Setting up cg style minimization ...
  Unit style    : real
  Current step  : 127
WARNING: Energy due to 3 extra global DOFs will be included in minimizer energies
Per MPI rank memory allocation (min/avg/max) = 14.45 | 15.02 | 15.59 Mbytes
Step Temp E_pair E_mol TotEng Press Volume 
     127            0   -5974.5064            0   -5974.5064    -205.1678    1238.6108 
     128            0   -5974.5065            0   -5974.5065     -202.399    1238.6105 
Loop time of 0.0171866 on 8 procs for 1 steps with 34 atoms

99.6% CPU use with 8 MPI tasks x no OpenMP threads

Minimization stats:
  Stopping criterion = energy tolerance
  Energy initial, next-to-last, final = 
        -5974.50643385     -5974.50643385     -5974.50645408
  Force two-norm initial, final = 29.652 29.5667
  Force max component initial, final = 16.9544 16.8297
  Final line search alpha, max atom move = 2.30398e-08 3.87752e-07
  Iterations, force evaluations = 1 11

MPI task timing breakdown:
Section |  min time  |  avg time  |  max time  |%varavg| %total
---------------------------------------------------------------
Pair    | 0.012838   | 0.013241   | 0.013737   |   0.3 | 77.04
Neigh   | 0          | 0          | 0          |   0.0 |  0.00
Comm    | 0.00013928 | 0.00063401 | 0.001042   |   0.0 |  3.69
Output  | 0          | 0          | 0          |   0.0 |  0.00
Modify  | 0.0031355  | 0.0031396  | 0.0031442  |   0.0 | 18.27
Other   |            | 0.0001722  |            |       |  1.00

Nlocal:    4.25 ave 10 max 0 min
Histogram: 4 0 0 0 0 0 0 0 3 1
Nghost:    408.75 ave 417 max 399 min
Histogram: 1 1 0 0 0 4 0 0 0 2
Neighs:    422.875 ave 1046 max 0 min
Histogram: 4 0 0 0 0 0 0 3 0 1

Total # of neighbors = 3383
Ave neighs/atom = 99.5
Neighbor list builds = 0
Dangerous builds = 0
WARNING: Using 'neigh_modify every 1 delay 0 check yes' setting during minimization (../min.cpp:190)
WARNING: Total cutoff < 2*bond cutoff. May need to use an increased neighbor list skin. (../pair_reaxc.cpp:413)
Setting up cg style minimization ...
  Unit style    : real
  Current step  : 128
Per MPI rank memory allocation (min/avg/max) = 14.45 | 15.02 | 15.59 Mbytes
Step Temp E_pair E_mol TotEng Press 
     128            0   -5974.5065            0   -5974.5065     -202.399 
     129            0   -5974.5065            0   -5974.5065     -202.399 
Loop time of 0.0842164 on 8 procs for 1 steps with 34 atoms

99.6% CPU use with 8 MPI tasks x no OpenMP threads

Minimization stats:
  Stopping criterion = linesearch alpha is zero
  Energy initial, next-to-last, final = 
        -5974.50645408     -5974.50645408     -5974.50645408
  Force two-norm initial, final = 23.8955 23.8955
  Force max component initial, final = 8.10186 8.10186
  Final line search alpha, max atom move = 1.14952e-11 9.31323e-11
  Iterations, force evaluations = 1 55

MPI task timing breakdown:
Section |  min time  |  avg time  |  max time  |%varavg| %total
---------------------------------------------------------------
Pair    | 0.059718   | 0.061702   | 0.063791   |   0.6 | 73.27
Neigh   | 0          | 0          | 0          |   0.0 |  0.00
Comm    | 0.0014191  | 0.0034918  | 0.0054969  |   2.4 |  4.15
Output  | 0          | 0          | 0          |   0.0 |  0.00
Modify  | 0.018711   | 0.018723   | 0.018733   |   0.0 | 22.23
Other   |            | 0.0003003  |            |       |  0.36

Nlocal:    4.25 ave 10 max 0 min
Histogram: 4 0 0 0 0 0 0 0 3 1
Nghost:    408.75 ave 417 max 399 min
Histogram: 1 1 0 0 0 4 0 0 0 2
Neighs:    422.875 ave 1046 max 0 min
Histogram: 4 0 0 0 0 0 0 3 0 1

Total # of neighbors = 3383
Ave neighs/atom = 99.5
Neighbor list builds = 0
Dangerous builds = 0
WARNING: Total cutoff < 2*bond cutoff. May need to use an increased neighbor list skin. (../pair_reaxc.cpp:413)
Setting up Verlet run ...
  Unit style    : real
  Current step  : 0
  Time step     : 0.25
Per MPI rank memory allocation (min/avg/max) = 13.33 | 13.9 | 14.47 Mbytes
Step Temp TotEng KinEng PotEng Press 
       0          300   -5944.9964    29.510019   -5974.5065    886.70056 
     200     326.3753    -5932.748    32.104471   -5964.8525     9454.151 
     400    322.71703   -5929.6972    31.744619   -5961.4418    6548.5728 
     600    326.18451   -5943.1261    32.085704   -5975.2118   -21002.313 
     800     360.2737   -5942.8648    35.438946   -5978.3037    8405.2505 
    1000    258.53993   -5941.7637    25.431728   -5967.1954    3654.2369 
    1200     292.2244   -5940.1439    28.745159   -5968.8891    19388.847 
    1400    281.61854   -5942.1036    27.701895   -5969.8055    635.92785 
    1600    290.04564   -5946.7504    28.530841   -5975.2812   -5259.5273 
    1800    338.48682   -5940.8587    33.295842   -5974.1546    12817.998 
    2000    281.49398   -5941.3725    27.689642   -5969.0621    8654.0499 
    2200    314.03342   -5945.0956    30.890442   -5975.9861     5279.633 
    2400    254.29012   -5937.1016    25.013688   -5962.1153   -12076.879 
    2600    365.82686   -5930.2344    35.985192   -5966.2196   -3655.6587 
    2800     279.0578   -5944.6224    27.450003   -5972.0724    10045.121 
    3000    293.96763   -5937.9194    28.916635    -5966.836      43275.3 
    3200    324.99024   -5936.1377    31.968228   -5968.1059    1137.6046 
    3400    282.43495   -5949.0137    27.782203   -5976.7959   -10619.962 
    3600    339.41254   -5942.1811    33.386903    -5975.568    10083.301 
    3800    313.44165   -5942.9322    30.832231   -5973.7644    14674.993 
    4000    282.61804   -5943.8123    27.800213   -5971.6125   -13703.453 
    4200    343.45594    -5932.467    33.784639   -5966.2517    3390.1704 
    4400    345.31452   -5930.2688     33.96746   -5964.2363   -23115.754 
    4600    289.36883   -5940.4642    28.464266   -5968.9285    11261.129 
    4800    285.41913   -5938.2593    28.075747    -5966.335    3033.9494 
    5000    299.69519   -5935.5489    29.480036   -5965.0289   -2250.0071 
    5200    271.32589   -5939.3496    26.689441   -5966.0391    18512.076 
    5400    312.33289   -5932.6566    30.723166   -5963.3798   -14662.953 
    5600    367.89829   -5924.1517    36.188952   -5960.3407    28591.367 
    5800    339.50761   -5940.0524    33.396254   -5973.4486    13180.068 
    6000    241.07958   -5945.8523     23.71421   -5969.5665    14923.115 
    6200    390.97719   -5929.3735    38.459149   -5967.8326     14474.45 
    6400     309.5023   -5938.3504    30.444729   -5968.7952    13622.705 
    6600    312.23063   -5930.0599    30.713107    -5960.773   -17829.731 
    6800    357.46222   -5927.4848     35.16239   -5962.6472    7725.3352 
    7000    267.37521     -5941.22    26.300826   -5967.5208     8880.612 
    7200    332.04224   -5940.9238     32.66191   -5973.5857    338.80689 
    7400    311.14971   -5928.2743     30.60678    -5958.881    11982.257 
    7600    318.92017   -5941.3192    31.371134   -5972.6903    3556.8031 
    7800    277.60139   -5936.5278    27.306741   -5963.8345    5185.4356 
    8000    374.61976   -5927.1485    36.850122   -5963.9986    16247.258 
    8200    295.77276    -5945.845      29.0942   -5974.9392   -12085.924 
    8400    251.96664   -5948.4981    24.785135   -5973.2832   -1021.8244 
    8600    391.33613   -5936.7109    38.494456   -5975.2054   -11142.853 
    8800    248.78973   -5950.5019    24.472633   -5974.9746   -17427.208 
    9000    257.53396   -5944.3278    25.332774   -5969.6605   -16488.814 
    9200     331.6632   -5938.4145    32.624625   -5971.0392   -6906.8805 
    9400    249.27468   -5952.3085    24.520336   -5976.8289    22934.906 
    9600    275.51375   -5942.1399    27.101387   -5969.2413    12317.096 
    9800    246.89508   -5936.1584    24.286262   -5960.4447    2313.3796 
   10000    322.07332   -5926.6792    31.681299   -5958.3605    4850.5189 
   10200    314.45824   -5943.4563     30.93223   -5974.3886    -17197.85 
   10400    334.75337   -5938.3183    32.928595   -5971.2469    11001.906 
   10600    274.97526   -5940.1224    27.048418   -5967.1708   -21786.101 
   10800    246.25243   -5944.8368    24.223047   -5969.0598    13111.968 
   11000    275.13591    -5932.446    27.064221   -5959.5103   -3234.1281 
   11200    365.21743   -5937.2873    35.925245   -5973.2125    9324.6551 
   11400    257.37229    -5945.544    25.316871   -5970.8609    15382.771 
   11600     315.1922   -5936.8668    31.004427   -5967.8713    9561.8283 
   11800    398.82158   -5923.8106    39.230775   -5963.0414     17798.18 
   12000    259.40729   -5939.9254    25.517047   -5965.4425   -8824.3923 
   12200    303.74065   -5941.7831    29.877975   -5971.6611    6241.3501 
   12400    378.85758   -5933.5975    37.266982   -5970.8644   -5779.5983 
   12600    273.15386    -5950.056    26.869252   -5976.9253    17076.952 
   12800    317.16942   -5941.9101    31.198919    -5973.109    4290.7172 
   13000    344.83561   -5938.2953    33.920352   -5972.2156    23480.216 
   13200    302.16093   -5940.3075    29.722583   -5970.0301    2272.7519 
   13400    327.61957   -5933.3694    32.226866   -5965.5963    8512.3217 
   13600    246.81282   -5946.4696     24.27817   -5970.7477   -27542.562 
   13800    262.52968   -5935.9794    25.824187   -5961.8036   -952.68944 
   14000    230.14068   -5940.7906    22.638187   -5963.4288    959.37787 
   14200     304.1143   -5939.5637     29.91473   -5969.4784    10480.737 
   14400    331.51989    -5932.022    32.610528   -5964.6326    20548.832 
   14600    320.60755   -5944.1663    31.537117   -5975.7035    9359.8165 
   14800    293.09885   -5950.2176    28.831176   -5979.0487   -10388.192 
   15000     336.6664   -5937.4048    33.116774   -5970.5216    3955.8759 
   15200    272.97264   -5941.4969    26.851426   -5968.3483    23115.795 
   15400    309.71225   -5939.3137    30.465382   -5969.7791    26555.511 
   15600    321.11329   -5937.5817    31.586865   -5969.1685    5320.3738 
   15800    272.35185   -5951.0567    26.790361   -5977.8471     1542.846 
   16000    314.08536   -5939.4151     30.89555   -5970.3106   -18296.558 
   16200    338.20161   -5935.7652    33.267787    -5969.033    5133.1291 
   16400    253.81255    -5946.046    24.966711   -5971.0127   -2324.3925 
   16600    246.55836   -5941.9644     24.25314   -5966.2176     18141.17 
   16800    343.63223    -5939.194     33.80198    -5972.996   -6750.4537 
   17000    227.32962   -5942.7663    22.361672    -5965.128    11954.821 
   17200    357.33888   -5928.4271    35.150258   -5963.5774    4481.7072 
   17400    251.82497   -5935.7488    24.771199     -5960.52    -13824.12 
   17600    283.95117   -5939.5615    27.931348   -5967.4929    6558.0087 
   17800    335.16835   -5932.6135    32.969415   -5965.5829    649.31328 
   18000     298.4356   -5935.9291    29.356134   -5965.2852    14461.746 
   18200    268.75717   -5942.7301    26.436764   -5969.1669   -24493.174 
   18400     352.9456   -5927.8063    34.718105   -5962.5244    9433.6474 
   18600    329.36574   -5937.5591    32.398631   -5969.9577   -4328.1784 
   18800    266.91037   -5937.6527    26.255101   -5963.9078   -1180.3679 
   19000    402.01788    -5922.224    39.545185   -5961.7692     9332.582 
   19200    344.86511   -5927.1176    33.923254   -5961.0409    12002.296 
   19400    290.39407   -5936.0778    28.565116    -5964.643   -168.16436 
   19600    280.56058   -5941.7294    27.597827   -5969.3273   -21451.502 
   19800    154.84833   -5949.3614    15.231925   -5964.5934   -25134.259 
   20000     324.7569   -5932.8851    31.945275   -5964.8304    8801.8519 
   20200    293.48415   -5933.4521    28.869077   -5962.3211    4810.0015 
   20400    183.67685   -5945.9848    18.067691   -5964.0525    3969.2449 
   20600    326.11772   -5934.7988    32.079134    -5966.878   -17707.988 
   20800    266.66631   -5938.2805    26.231094   -5964.5116    17041.376 
   21000    290.56423   -5940.3281    28.581853   -5968.9099    4909.7067 
   21200    349.22879   -5923.7125    34.352495    -5958.065   -31144.324 
   21400    310.17793   -5933.4275     30.51119   -5963.9387    15860.603 
   21600    296.30513   -5941.7137    29.146567   -5970.8603   -4553.0746 
   21800    298.55382   -5940.8142    29.367763   -5970.1819    14646.081 
   22000    210.64501   -5949.9399    20.720461   -5970.6604   -8347.2113 
   22200     300.1683   -5944.7423    29.526575   -5974.2688    3523.3821 
   22400    302.43556   -5940.7155    29.749597   -5970.4651    4408.1599 
   22600    284.59585   -5946.8449    27.994764   -5974.8396   -1959.8646 
   22800    243.92342   -5932.5096     23.99395   -5956.5036   -9153.4361 
   23000    301.88425    -5936.241    29.695367   -5965.9364   -21238.229 
   23200    299.52492   -5946.2107    29.463288    -5975.674   -2683.1745 
   23400    329.33475   -5943.3574    32.395583    -5975.753   -25968.039 
   23600    350.47301    -5934.032    34.474885   -5968.5069    26811.908 
   23800     264.7559   -5945.8409    26.043173   -5971.8841    1055.2024 
   24000    316.04497    -5938.019    31.088311   -5969.1073   -8777.1491 
   24200     291.9169   -5933.7534    28.714911   -5962.4683   -3626.7029 
   24400    323.06088   -5942.6686    31.778443    -5974.447    11940.125 
   24600    231.92927   -5946.8415    22.814124   -5969.6556    35795.382 
   24800      373.815   -5937.1085     36.77096   -5973.8795   -8030.0279 
   25000    255.15493   -5939.7703    25.098756   -5964.8691   -8701.7984 
   25200    437.92771   -5923.8882    43.077518   -5966.9658    6329.7494 
   25400    278.38149   -5941.0388    27.383477   -5968.4223    23294.579 
   25600    307.53203   -5943.0287    30.250921   -5973.2796   -4523.8252 
   25800     266.4868   -5948.9812    26.213436   -5975.1946    24039.209 
   26000     248.1955   -5944.9514     24.41418   -5969.3656   -2601.0791 
   26200    291.80017   -5936.8132    28.703429   -5965.5166    3200.5346 
   26400    310.50522   -5936.3429    30.543384   -5966.8863   -21003.204 
   26600    358.56323   -5931.9305    35.270693   -5967.2012     34486.49 
   26800    298.42224   -5947.1845     29.35482   -5976.5393   -4756.7475 
   27000    305.64115   -5944.2633    30.064921   -5974.3282    8240.2347 
   27200    390.37627   -5930.2389    38.400038   -5968.6389   -11536.985 
   27400     264.9714   -5939.0967     26.06437    -5965.161   -4220.1774 
   27600    289.30147   -5933.6834     28.45764   -5962.1411    1187.9926 
   27800    438.22273    -5922.078    43.106537   -5965.1846   -3042.4201 
   28000    336.18927   -5941.3893     33.06984   -5974.4591    -3369.736 
   28200    281.33505   -5941.3167    27.674009   -5968.9907     -2383.82 
   28400    371.32839   -5929.7647     36.52636    -5966.291   -11594.295 
   28600    284.77253   -5945.4649    28.012143    -5973.477    4850.4137 
   28800    233.42939   -5946.7165    22.961686   -5969.6781   -90.008181 
   29000     298.5665   -5939.2911    29.369011   -5968.6601   -1669.3449 
   29200    273.89186   -5950.7989    26.941847   -5977.7407     12372.88 
   29400    301.67775   -5945.5966    29.675054   -5975.2716   -5860.4909 
   29600    290.05948   -5942.0105    28.532203   -5970.5427    11498.713 
   29800    272.59951   -5943.7835    26.814722   -5970.5982    28081.404 
   30000    248.94125   -5950.5271    24.487537   -5975.0147    -15111.49 
   30200    302.40997    -5936.045     29.74708   -5965.7921    5015.3005 
   30400     328.3862    -5942.188    32.302277   -5974.4902   -945.91835 
   30600    301.75611   -5933.8885    29.682762   -5963.5713   -5982.8155 
   30800    332.26641    -5931.943    32.683961    -5964.627    7217.6718 
   31000    297.47194   -5939.6749    29.261343   -5968.9362      30419.8 
   31200    278.82261    -5940.771    27.426869   -5968.1979    10038.087 
   31400    267.78261   -5929.0465      26.3409   -5955.3874    5560.3729 
   31600    247.47679   -5943.3503    24.343483   -5967.6937   -17772.254 
   31800    277.63699   -5936.0016    27.310244   -5963.3118   -387.98891 
   32000    319.30931   -5940.7044    31.409413   -5972.1138    3694.6706 
   32200    249.38542   -5947.2693    24.531229   -5971.8005   -9867.4737 
   32400    258.38859   -5939.3793    25.416841   -5964.7961     4614.173 
   32600    352.99479   -5939.0231    34.722944    -5973.746   -927.74585 
   32800    300.72211   -5945.0759    29.581051   -5974.6569    9132.5686 
   33000    375.62856   -5932.9384    36.949353   -5969.8878   -3763.4086 
   33200    302.76465   -5943.9226    29.781969   -5973.7046   -3918.6784 
   33400    264.94166   -5948.1101    26.061445   -5974.1715    16904.295 
   33600    363.83897   -5936.2258     35.78965   -5972.0155    15973.766 
   33800    287.60688   -5935.2881    28.290949   -5963.5791   -495.69876 
   34000     256.0075   -5943.3301    25.182621   -5968.5127   -2901.9557 
   34200    288.08224   -5937.1927    28.337708   -5965.5304   -1323.8062 
   34400    215.20544   -5953.4751    21.169056   -5974.6442    -14506.16 
   34600     268.3313   -5941.7709    26.394873   -5968.1658   -563.87453 
   34800    320.06499   -5933.5231    31.483747   -5965.0068    536.86626 
   35000    383.94844   -5923.0709    37.767753   -5960.8387     4996.353 
   35200    296.77492   -5936.5118    29.192779   -5965.7046    12775.719 
   35400    349.94681   -5941.6165    34.423124   -5976.0396    4946.9667 
   35600    223.61474   -5954.6273    21.996251   -5976.6236   -8818.9661 
   35800    269.51974   -5945.1979    26.511776   -5971.7097   -16724.202 
   36000    340.49443   -5938.8037    33.493324    -5972.297   -4473.0961 
   36200    318.38413   -5930.9312    31.318406   -5962.2496      16879.1 
   36400    247.45164   -5946.0764    24.341009   -5970.4174   -9365.4294 
   36600    399.03571   -5935.9167    39.251839   -5975.1685   -9660.6293 
   36800    265.30236   -5950.9631    26.096926     -5977.06    28855.591 
   37000    302.80248    -5947.044    29.785691   -5976.8297   -5543.2179 
   37200    291.28442   -5937.8781    28.652697   -5966.5308   -4519.3534 
   37400    301.05556   -5936.3553    29.613851   -5965.9691    6241.6913 
   37600    292.24879   -5941.1359    28.747558   -5969.8834    1741.0388 
   37800    278.00736   -5943.1467    27.346676   -5970.4934    4022.3864 
   38000    266.02188   -5938.5006    26.167703   -5964.6683    11603.559 
   38200    266.30511   -5946.6995    26.195564    -5972.895   -6538.2601 
   38400    356.01923   -5932.9209    35.020449   -5967.9413   -20590.518 
   38600    282.72363   -5939.8101    27.810599   -5967.6207   -21766.688 
   38800    376.44172    -5930.266    37.029342   -5967.2953    587.09842 
   39000    236.43236   -5943.2326    23.257079   -5966.4897    30643.201 
   39200    328.40363   -5939.6094    32.303992   -5971.9134    15.504373 
   39400    257.93227   -5948.6261    25.371954   -5973.9981    19956.494 
   39600    332.76318   -5941.1876    32.732826   -5973.9205    17833.855 
   39800    261.06146   -5947.1694    25.679763   -5972.8492    4988.1503 
   40000    390.13336   -5937.2593    38.376143   -5975.6355   -35857.318 
   40200    302.91063   -5943.4448    29.796329   -5973.2411   -4869.1704 
   40400    318.02855   -5940.7727    31.283429   -5972.0561    4436.4307 
   40600    291.19968    -5938.375    28.644361   -5967.0194   -4316.5272 
   40800    207.43904   -5947.9348    20.405101   -5968.3399   -1236.0749 
   41000    315.29735   -5938.6597     31.01477   -5969.6745    13252.883 
   41200    373.64848   -5925.3984     36.75458    -5962.153    18941.723 
   41400    263.53717   -5943.0302     25.92329   -5968.9535    23988.894 
   41600    282.20468   -5937.8575    27.759552   -5965.6171    16707.611 
   41800    371.13184   -5926.5006    36.507026   -5963.0076    832.60067 
   42000     268.3244   -5938.6868    26.394194    -5965.081   -4743.8512 
   42200    278.91037   -5944.1654    27.435501   -5971.6009   -12886.557 
   42400    325.21035    -5938.671     31.98988   -5970.6609   -12527.296 
   42600    297.46168   -5940.0774    29.260333   -5969.3377   -5323.1235 
   42800    238.20986   -5948.8872    23.431925   -5972.3191    36764.232 
   43000    296.19721   -5943.1749    29.135951   -5972.3109    8539.3057 
   43200    314.53415   -5935.4376    30.939696   -5966.3773   -6814.4587 
   43400    289.06493   -5949.8132    28.434372   -5978.2476    647.30249 
   43600    304.88547    -5942.706    29.990588   -5972.6966   -10199.187 
   43800    281.05977   -5941.7532    27.646931   -5969.4002    27400.552 
   44000    291.95805   -5934.2373    28.718959   -5962.9563    6999.3775 
   44200    304.90648   -5935.2859    29.992654   -5965.2786    -757.9826 
   44400     241.5276   -5942.3538    23.758281   -5966.1121   -14421.907 
   44600    318.44666   -5938.5472    31.324558   -5969.8718     -18517.8 
   44800    269.64416   -5940.9285    26.524015   -5967.4525   -12537.389 
   45000    362.19231   -5932.8895    35.627674   -5968.5172   -17725.156 
   45200    332.60879   -5933.5211     32.71764   -5966.2388   -14457.585 
   45400    308.81856   -5941.2858    30.377473   -5971.6633   -11964.432 
   45600    357.06678   -5939.7885    35.123492    -5974.912   -4704.3489 
   45800    241.88309   -5952.8267    23.793249     -5976.62   -8538.7313 
   46000    356.48555   -5940.9284    35.066318   -5975.9947   -11096.212 
   46200    296.84923   -5942.4821    29.200089   -5971.6822    3881.6012 
   46400    304.49592   -5936.4204    29.952269   -5966.3727    16100.931 
   46600      305.051   -5938.6941     30.00687   -5968.7009    4196.6223 
   46800    245.78104   -5944.8296    24.176678   -5969.0063    2182.9341 
   47000    224.46138   -5952.3039    22.079532   -5974.3834    10607.117 
   47200    312.25865   -5938.3094    30.715863   -5969.0252   -19281.392 
   47400    213.54234   -5944.3569    21.005462   -5965.3623    3970.4091 
   47600    345.01789   -5931.5916    33.938282   -5965.5299    1853.5492 
   47800    252.81133   -5936.7535    24.868224   -5961.6217    12932.482 
   48000    322.12556   -5940.0294    31.686438   -5971.7158   -6206.5411 
   48200    323.95065   -5932.8877    31.865967   -5964.7537   -16044.044 
   48400    374.91642   -5927.4016    36.879303   -5964.2809   -28373.287 
   48600    280.42497   -5939.0078    27.584488   -5966.5923    8472.2428 
   48800    334.18207   -5939.2508    32.872398   -5972.1232   -3793.6847 
   49000    370.62699   -5928.9571    36.457366   -5965.4144   -19255.114 
   49200    275.22414   -5944.6531    27.072899    -5971.726    26176.345 
   49400    310.97615   -5939.9641    30.589707   -5970.5538    5273.1918 
   49600    324.05129   -5930.8437    31.875866   -5962.7195   -6094.6498 
   49800    302.72316   -5936.0999    29.777887   -5965.8778    11794.217 
   50000    274.66809   -5945.0826    27.018202   -5972.1008   -9599.1832 
   50200    316.23432   -5941.9311    31.106937   -5973.0381     -10270.9 
   50400    296.80561   -5945.6128    29.195798   -5974.8086    41854.482 
   50600    281.73142   -5943.4215    27.712999   -5971.1345    8128.6196 
   50800    286.69924   -5931.9539    28.201667   -5960.1556   -6684.1804 
   51000    234.27733   -5939.9832    23.045095   -5963.0283   -18815.609 
   51200    251.86947   -5951.3975    24.775576    -5976.173    -1300.564 
   51400    247.22587   -5945.3714    24.318801   -5969.6902   -10529.622 
   51600    319.79896   -5939.2373    31.457579   -5970.6949   -3701.7583 
   51800    358.34295   -5929.4438    35.249024   -5964.6928    11657.074 
   52000    330.83042    -5927.712    32.542707   -5960.2547     12615.61 
   52200    265.99758    -5940.731    26.165313   -5966.8963    11635.178 
   52400    257.64453    -5944.651     25.34365   -5969.9947    2577.5571 
   52600    209.57665   -5955.0686     20.61537    -5975.684    18456.497 
   52800    274.81825   -5946.4644    27.032973   -5973.4974   -3623.8362 
   53000    299.72769   -5935.7109    29.483234   -5965.1942      583.255 
   53200    356.79006   -5933.0853    35.096272   -5968.1816      24509.3 
   53400    289.13402   -5940.9956    28.441169   -5969.4368    5202.5858 
   53600    323.94689   -5941.2796    31.865597   -5973.1452    2523.4745 
   53800    234.23573   -5953.4999    23.041004   -5976.5409   -14008.819 
   54000    309.84787   -5940.4409    30.478722   -5970.9196   -39688.001 
   54200    278.93716   -5934.0687    27.438137   -5961.5068    22288.571 
   54400    376.33138   -5927.0192    37.018488   -5964.0377    27518.057 
   54600    277.57907   -5938.7722    27.304545   -5966.0768     -12580.6 
   54800    253.60933   -5944.6303    24.946721   -5969.5771   -3626.4725 
   55000    326.36617   -5930.1364    32.103573   -5962.2399    1523.1242 
   55200    273.40029   -5947.0584    26.893493   -5973.9519   -9920.7973 
   55400    304.09868   -5938.7965    29.913193   -5968.7097    3829.2803 
   55600    391.36802   -5930.2714    38.497593    -5968.769    10737.175 
   55800    306.74353   -5945.0757    30.173359   -5975.2491   -17891.556 
   56000    266.46182    -5944.301    26.210979    -5970.512    1291.2342 
   56200    317.98746   -5933.5527    31.279387   -5964.8321   -16646.585 
   56400    292.07886   -5941.9887    28.730843   -5970.7196   -9748.6705 
   56600    281.01478   -5939.0703    27.642506   -5966.7128    2874.5948 
   56800    388.58345   -5926.0303    38.223684    -5964.254    3177.4577 
   57000    319.88604   -5944.3754    31.466144   -5975.8416    2020.2049 
   57200    286.48382   -5940.8972    28.180477   -5969.0777    9350.7829 
   57400    326.41195   -5930.7204    32.108076   -5962.8285    2323.8771 
   57600    243.60764   -5945.9062    23.962887    -5969.869   -17226.755 
   57800    348.54481    -5937.992    34.285214   -5972.2772   -8314.6445 
   58000    299.77367   -5933.3716    29.487756   -5962.8594    14181.928 
   58200    275.13319   -5945.3805    27.063953   -5972.4445    17515.779 
   58400    237.87025    -5949.857    23.398519   -5973.2555    11540.571 
   58600    351.56219   -5933.1647    34.582024   -5967.7468   -20445.883 
   58800    300.25103   -5945.0556    29.534713   -5974.5903   -10136.285 
   59000    242.67694   -5941.3759    23.871338   -5965.2473    -13255.74 
   59200    322.24617   -5937.8526    31.698303   -5969.5509   -14475.871 
   59400    260.57243   -5948.3116    25.631659   -5973.9432   -13126.844 
   59600    313.06162   -5935.7157    30.794848   -5966.5105   -834.77356 
   59800    301.98168   -5938.2287    29.704951   -5967.9336   -4977.0877 
   60000    291.14905   -5939.8642    28.639381   -5968.5036   -18567.532 
   60200    229.42679   -5951.9808    22.567963   -5974.5488    14152.361 
   60400    319.56752   -5939.0454    31.434812   -5970.4802     -11569.7 
   60600    291.56342   -5942.8891     28.68014   -5971.5693    19453.433 
   60800    329.52921   -5940.4581    32.414711   -5972.8728    8378.5586 
   61000    333.09414   -5930.7322    32.765382   -5963.4976   -9280.2197 
   61200    345.16801   -5938.0596    33.953049   -5972.0126   -1461.5531 
   61400     256.5054   -5953.1756    25.231598   -5978.4072   -2123.2317 
   61600    304.12697   -5943.6931    29.915976    -5973.609   -8905.8268 
   61800    345.33298   -5941.0981    33.969277   -5975.0674   -287.18729 
   62000    208.60997   -5954.8267    20.520281    -5975.347    5940.7661 
   62200    246.98992   -5944.0291    24.295591   -5968.3247    -1059.258 
   62400    351.02476   -5934.4024    34.529158   -5968.9316    13320.223 
   62600    272.81182    -5949.114    26.835607   -5975.9496   -490.39883 
   62800    287.41905   -5947.6045    28.272473   -5975.8769    4944.8188 
   63000    338.12453   -5938.7306    33.260205   -5971.9908    1851.7625 
   63200    261.83891   -5941.2978    25.756237    -5967.054   -2238.1306 
   63400    392.77797   -5931.6785    38.636285   -5970.3148    -13668.96 
   63600    336.27064   -5933.9049    33.077843   -5966.9827   -509.03701 
   63800    279.67229   -5943.6624    27.510449   -5971.1728    2345.0113 
   64000    308.63665    -5937.093    30.359578   -5967.4525    14510.981 
   64200    321.25168   -5930.5128    31.600478   -5962.1133   -4856.2258 
   64400    245.17141   -5944.2915    24.116711   -5968.4082    14403.297 
   64600    341.86976   -5936.6846    33.628611   -5970.3132   -14361.144 
   64800    330.66762   -5937.3678    32.526693   -5969.8945    1462.9428 
   65000    242.57609    -5947.712    23.861417   -5971.5734   -4256.0405 
   65200    266.26241   -5935.8519    26.191363   -5962.0433    -28377.57 
   65400    313.52113   -5932.5266    30.840049   -5963.3666   -29922.708 
   65600     265.0471   -5941.9289    26.071817   -5968.0007   -16713.113 
   65800    328.98866   -5932.4967    32.361539   -5964.8583   -9558.0363 
   66000    399.36698   -5937.3171    39.284424   -5976.6016    9327.6155 
   66200    278.42768   -5946.3515    27.388021   -5973.7395    9940.3469 
   66400    280.34592   -5936.4123    27.576712    -5963.989    -17606.46 
   66600    289.40043   -5935.0365    28.467375   -5963.5039    10951.913 
   66800    214.87354   -5947.1545    21.136408   -5968.2909   -1787.4697 
   67000     233.1831   -5944.6154    22.937459   -5967.5528   -783.92068 
   67200    353.48331   -5935.1432    34.770998   -5969.9142   -6055.5882 
   67400    264.72499   -5944.4816    26.040133   -5970.5217     16221.26 
   67600    344.08156   -5930.1349    33.846178   -5963.9811   -11823.431 
   67800    335.22639   -5937.2476    32.975124   -5970.2228    5698.4611 
   68000    302.86224   -5941.7404    29.791569   -5971.5319   -381.69074 
   68200    302.66708    -5939.956    29.772371   -5969.7284   -58.154265 
   68400    364.98247   -5924.3465    35.902132   -5960.2486    20370.036 
   68600    272.11615   -5941.7452    26.767176   -5968.5124   -11815.623 
   68800    297.37749    -5941.424    29.252051   -5970.6761    -14578.37 
   69000    340.67313   -5929.7192    33.510902   -5963.2301   -991.13774 
   69200    293.55744    -5946.979    28.876286   -5975.8553   -15118.587 
   69400     341.4677   -5938.5952    33.589062   -5972.1843   -349.87681 
   69600    280.98594   -5937.8033    27.639669   -5965.4429   -4756.4577 
   69800    244.99452   -5948.5924     24.09931   -5972.6917    14724.011 
   70000    285.28971   -5937.3239    28.063017    -5965.387    23607.684 
   70200    342.71317   -5941.1208    33.711574   -5974.8324    8042.6371 
   70400    250.40767   -5952.5721    24.631784   -5977.2039   -8247.3526 
   70600    253.75271   -5943.3622    24.960825    -5968.323   -363.15327 
   70800    290.81862   -5935.5812    28.606877   -5964.1881     146.1744 
   71000     381.7862   -5927.3989    37.555061   -5964.9539    859.57134 
   71200    316.23086    -5938.243    31.106596   -5969.3496    14907.002 
   71400    322.30869   -5944.9167    31.704453   -5976.6211    3135.3344 
   71600    379.98109   -5932.5519    37.377498   -5969.9294     10193.58 
   71800    346.80863   -5938.1752    34.114431   -5972.2896   -12768.649 
   72000    283.36177   -5941.9894    27.873371   -5969.8627    38244.986 
   72200    302.07635   -5935.0226    29.714263   -5964.7368    25109.271 
   72400    261.88898   -5949.6255    25.761164   -5975.3866    12126.129 
   72600    322.12305   -5943.6423    31.686192   -5975.3285    375.61641 
   72800    332.34926   -5938.7511    32.692111   -5971.4432    1645.9175 
   73000    283.31555    -5942.661    27.868825   -5970.5298   -12943.518 
   73200    355.25376   -5937.2948    34.945151   -5972.2399    4916.7354 
   73400    278.79843   -5933.5579    27.424491   -5960.9824   -17483.293 
   73600    284.79496   -5947.1913    28.014349   -5975.2056   -10054.179 
   73800    279.70287   -5940.5775    27.513457    -5968.091    13054.294 
   74000     347.0876   -5933.2123    34.141873   -5967.3541    9904.7225 
   74200     262.6384   -5939.6274    25.834881   -5965.4622   -22292.974 
   74400    288.97643   -5936.4027    28.425667   -5964.8283    -2746.662 
   74600    352.39955   -5932.9886    34.664392    -5967.653   -19598.041 
   74800    273.11639   -5946.0782    26.865566   -5972.9437    10455.292 
   75000    328.28233   -5937.8737     32.29206   -5970.1658    17157.399 
   75200    444.72255   -5916.4211    43.745903    -5960.167   -6843.0403 
   75400    337.23414   -5934.1314     33.17262    -5967.304   -1634.6199 
   75600    352.31135   -5942.8874    34.655716   -5977.5431   -6939.5935 
   75800    269.19979   -5945.1212    26.480304   -5971.6015     31452.19 
   76000    342.74867   -5933.4238    33.715066   -5967.1388    9736.8033 
   76200    268.91649   -5948.6988    26.452437   -5975.1513    14987.524 
   76400    319.76566   -5940.3228    31.454303   -5971.7771    5852.5331 
   76600    368.56866   -5933.4361    36.254894    -5969.691   -6763.2008 
   76800     305.8447   -5939.9261    30.084943    -5970.011   -15306.476 
   77000    279.96043    -5942.342    27.538793   -5969.8808    4415.1991 
   77200    318.18303   -5932.0961    31.298625   -5963.3947   -13698.816 
   77400    341.41446   -5931.5209    33.583824   -5965.1048   -4593.9629 
   77600    327.16568   -5939.1089    32.182218   -5971.2911    18019.207 
   77800    423.40087   -5932.9439     41.64856   -5974.5925    16457.375 
   78000    375.74252   -5935.2147    36.960564   -5972.1752     22539.61 
   78200    282.46106   -5949.0559    27.784772   -5976.8407   -14049.743 
   78400    326.24392    -5935.617    32.091548   -5967.7086    9942.6866 
   78600    290.82673   -5937.4758    28.607675   -5966.0835   -9247.9541 
   78800    288.73025    -5948.505    28.401451   -5976.9064     16708.54 
   79000    321.25758   -5938.8785    31.601058   -5970.4796   -16149.655 
   79200    329.89745   -5947.4098    32.450934   -5979.8607    24702.244 
   79400    265.29096   -5952.0583    26.095805   -5978.1541    9181.2558 
   79600    247.02826   -5939.9847    24.299363   -5964.2841     -8259.45 
   79800    273.88155   -5934.4776    26.940833   -5961.4184    8747.5174 
   80000    227.38068   -5948.1806    22.366695   -5970.5473    5335.1148 
   80200    321.52951   -5941.2255    31.627807   -5972.8533   -7536.0252 
   80400    307.71054   -5938.4229     30.26848   -5968.6914   -6017.6647 
   80600    275.48322    -5942.703    27.098384   -5969.8014   -9342.2291 
   80800    324.31864   -5930.5997    31.902164   -5962.5019    -7376.244 
   81000    277.81263    -5934.975    27.327521   -5962.3025     29156.31 
   81200    266.38864   -5941.8466     26.20378   -5968.0504   -2509.3685 
   81400       306.86   -5940.9831    30.184815   -5971.1679     37630.03 
   81600    377.68472   -5932.1667    37.151612   -5969.3183   -43867.679 
   81800    260.11037   -5945.6126    25.586207   -5971.1988    6388.8287 
   82000    307.91149   -5940.2193    30.288247   -5970.5075    6401.2771 
   82200    338.22597   -5937.9043    33.270183   -5971.1745   -13447.018 
   82400    251.71313   -5946.8162    24.760198   -5971.5764    20517.515 
   82600    237.41232   -5954.0801    23.353474   -5977.4336   -14332.568 
   82800    367.96333   -5938.3882     36.19535   -5974.5835   -7301.9766 
   83000    281.29012   -5933.7817     27.66959   -5961.4513   -13947.044 
   83200    270.08139   -5941.0193    26.567024   -5967.5864   -23537.667 
   83400    287.92453   -5944.4501    28.322195   -5972.7723   -3728.5278 
   83600    307.31242   -5932.3909    30.229318   -5962.6202   -9570.7805 
   83800    245.27895   -5942.8704    24.127289   -5966.9977      105.475 
   84000     315.2426   -5939.8307    31.009384   -5970.8401   -10221.334 
   84200    266.82558   -5934.2622     26.24676   -5960.5089    6389.3894 
   84400    378.60158   -5919.4195      37.2418   -5956.6613   -5291.9049 
   84600    287.63276   -5940.3314    28.293495   -5968.6249    18860.216 
   84800    305.77085   -5944.4339     30.07768   -5974.5116   -6386.7009 
   85000    307.68287   -5933.0873    30.265758    -5963.353   -6886.7294 
   85200    338.05841   -5936.5836    33.253701   -5969.8373   -17639.997 
   85400    285.69238    -5942.827    28.102626   -5970.9296    20235.016 
   85600    321.57945   -5936.3097     31.63272   -5967.9424   -23007.762 
   85800    315.88974   -5947.2672    31.073042   -5978.3402   -6849.4758 
   86000    261.34676    -5947.209    25.707826   -5972.9168    -8444.032 
   86200    297.10426   -5939.1954    29.225175   -5968.4206    11156.578 
   86400     316.8603   -5935.7401    31.168512   -5966.9086   -1443.9316 
   86600    325.92754   -5930.3268    32.060427   -5962.3872    2545.5256 
   86800    290.48942   -5944.4527    28.574495   -5973.0272   -25255.105 
   87000    338.16391   -5936.0696    33.264078   -5969.3337     12568.61 
   87200    377.46225   -5930.9651    37.129727   -5968.0948    2376.0756 
   87400     262.4478   -5943.6172    25.816132   -5969.4333   -23529.381 
   87600    301.83802   -5933.3359     29.69082   -5963.0267    14614.676 
   87800    251.50897   -5943.7597    24.740116   -5968.4998   -36104.347 
   88000    272.97998   -5945.1267    26.852148   -5971.9789    1255.7163 
   88200    257.85964   -5934.1352     25.36481      -5959.5    14440.142 
   88400    300.13783   -5941.1944    29.523577    -5970.718   -22412.203 
   88600    261.76683   -5942.1871    25.749148   -5967.9363   -11776.302 
   88800    284.44444   -5936.8703     27.97987   -5964.8501    429.38224 
   89000    297.32104   -5945.4625    29.246499    -5974.709    22973.564 
   89200    282.99423   -5943.8518    27.837218    -5971.689    7008.8968 
   89400    358.35929   -5932.5664    35.250633   -5967.8171   -20723.759 
   89600    305.04042    -5938.776    30.005829   -5968.7818    -15049.22 
   89800    286.53885   -5940.4964     28.18589   -5968.6823   -9354.3821 
   90000    388.54881   -5926.1115    38.220277   -5964.3318    10872.346 
   90200    266.02654   -5943.7143    26.168162   -5969.8824    4407.4444 
   90400    309.05213   -5938.7911    30.400448   -5969.1916    16863.081 
   90600    347.05521   -5930.7627    34.138687   -5964.9014   -7969.8725 
   90800    351.27173   -5942.8862    34.553452   -5977.4397     11394.43 
   91000    258.56909   -5935.9452    25.434597   -5961.3798    5609.7432 
   91200    432.47143   -5923.8676    42.540801   -5966.4084   -16911.049 
   91400    289.11612   -5943.4574    28.439408   -5971.8968   -6741.1839 
   91600    289.34059   -5940.2266    28.461488   -5968.6881    6365.1993 
   91800    339.82238   -5933.7272    33.427216   -5967.1545   -36488.237 
   92000    257.79579   -5940.4037    25.358529   -5965.7622    14692.534 
   92200    325.05411   -5939.1603     31.97451   -5971.1348    14589.259 
   92400    253.75106   -5949.7718    24.960663   -5974.7325    25291.419 
   92600    368.71533   -5934.6789    36.269322   -5970.9482    19837.597 
   92800    326.30922   -5940.4625    32.097972   -5972.5604    348.66525 
   93000    251.72672   -5949.9661    24.761535   -5974.7276   -11134.581 
   93200    272.23705   -5945.4794    26.779069   -5972.2585   -15777.918 
   93400    275.67466   -5935.7198    27.117215    -5962.837    18633.279 
   93600    266.99852   -5946.6155    26.263772   -5972.8793    25304.672 
   93800    253.46255   -5946.7538    24.932283    -5971.686   -7585.7363 
   94000    281.31366   -5938.7693    27.671906   -5966.4412   -7229.2896 
   94200    300.83652   -5931.7934    29.592305   -5961.3857    -8213.194 
   94400    258.04502   -5948.5298    25.383045   -5973.9128     2767.244 
   94600    331.27277   -5938.5962     32.58622   -5971.1824   -24882.123 
   94800    254.08698   -5937.5684    24.993706   -5962.5621    5389.1303 
   95000    293.66206   -5939.3491    28.886578   -5968.2356    14221.546 
   95200    358.07604   -5931.2078     35.22277   -5966.4306    247.47519 
   95400    366.45546   -5934.0426    36.047026   -5970.0896    29540.009 
   95600    307.81487   -5944.1803    30.278742   -5974.4591   -12824.472 
   95800    323.00826   -5938.1192    31.773267   -5969.8925     -5109.61 
   96000    365.22214   -5932.4415    35.925708   -5968.3672   -4542.1062 
   96200    241.59386   -5944.1372    23.764798    -5967.902   -12854.715 
   96400     347.2501   -5937.6566    34.157857   -5971.8144    5568.8917 
   96600    384.21878   -5939.0385    37.794345   -5976.8329    6294.0949 
   96800    237.05453   -5947.2056    23.318279   -5970.5239     5936.346 
   97000    361.66064   -5936.0948    35.575376   -5971.6702   -10276.117 
   97200    261.89204   -5939.5799    25.761464   -5965.3414   -19691.832 
   97400    240.32173   -5952.2199    23.639663   -5975.8595   -11559.825 
   97600    255.26941   -5943.8722    25.110017   -5968.9823    6097.3415 
   97800    290.12332   -5939.3123    28.538483   -5967.8508   -14350.284 
   98000    274.27272   -5947.6497    26.979311    -5974.629   -1803.4251 
   98200    245.13462   -5947.8933    24.113091   -5972.0064   -4033.6917 
   98400    334.01359    -5937.345    32.855825   -5970.2008   -16926.204 
   98600    277.92153   -5943.4292    27.338232   -5970.7674    11781.004 
   98800    242.69407   -5949.8938    23.873023   -5973.7668   -676.09789 
   99000    309.59578   -5934.3428    30.453925   -5964.7967    8479.7049 
   99200    261.79771   -5943.5715    25.752186   -5969.3237   -18962.802 
   99400    281.33186   -5942.1463    27.673695     -5969.82     5286.765 
   99600    370.72529   -5933.5451    36.467035   -5970.0122    19144.639 
   99800    256.03233   -5946.6717    25.185064   -5971.8567    573.37101 
  100000    299.08751   -5944.5151    29.420261   -5973.9354   -20689.208 
  100200    354.82865   -5939.0218    34.903334   -5973.9252   -17429.504 
  100400    340.02226   -5927.3801    33.446878   -5960.8269    3106.7662 
  100600    282.35033   -5937.4566    27.773879   -5965.2305   -10789.214 
  100800    286.75798   -5940.1116    28.207446    -5968.319   -11724.503 
  101000    227.46903   -5937.8978    22.375385   -5960.2732    17501.359 
  101200    279.21819   -5946.1702     27.46578    -5973.636   -11624.197 
  101400    303.40768   -5941.5583    29.845222   -5971.4035    11743.849 
  101600    333.65695   -5932.6781    32.820743   -5965.4988    8040.1277 
  101800    259.01866   -5944.7259    25.478819   -5970.2047    3449.2909 
  102000    341.68995   -5930.1851    33.610923    -5963.796   -2896.6892 
  102200    332.20818   -5938.3131    32.678233   -5970.9913   -30331.718 
  102400    292.45578   -5944.2102    28.767919   -5972.9781    9387.9417 
  102600    298.53721   -5930.7214     29.36613   -5960.0875    15789.066 
  102800    351.05007   -5935.1377    34.531648   -5969.6693     29942.69 
  103000    302.84051   -5939.9652    29.789431   -5969.7546   -14570.911 
  103200    331.00171   -5939.3868    32.559556   -5971.9464   -19216.242 
  103400    330.31591   -5940.3117    32.492097   -5972.8038   -17454.244 
  103600    285.75483   -5938.3927    28.108769   -5966.5014    5959.5334 
  103800    295.08736   -5928.8781    29.026779   -5957.9049   -3427.3421 
  104000    321.43497    -5942.562    31.618507   -5974.1805    35689.662 
  104200    324.67085   -5939.7136     31.93681   -5971.6504    8358.3202 
  104400     300.1464   -5942.9568     29.52442   -5972.4812    3986.4637 
  104600    261.91721   -5950.4953     25.76394   -5976.2592   -16983.918 
  104800    334.81188   -5936.6524    32.934351   -5969.5867    10736.691 
  105000     256.2495   -5937.6068    25.206426   -5962.8132    15905.696 
  105200     301.2156   -5947.5609    29.629594   -5977.1905    2903.7052 
  105400    345.53885   -5936.8293    33.989527   -5970.8189    4672.7621 
  105600    316.05784   -5939.6579    31.089577   -5970.7475    -28000.51 
  105800    296.01911    -5941.781    29.118432   -5970.8994   -5299.5948 
  106000    304.40728   -5933.9028    29.943549   -5963.8464    18967.331 
  106200    370.17459   -5921.2909    36.412865   -5957.7038   -25814.297 
  106400    234.66827   -5943.6329     23.08355   -5966.7164    4980.3002 
  106600    264.83655   -5943.0033    26.051106   -5969.0544    6786.8821 
  106800     330.2489   -5935.6908    32.485505   -5968.1763   -1608.7335 
  107000    282.48635   -5935.8039    27.787259   -5963.5911   -4748.9328 
  107200    301.55533   -5945.1676    29.663013   -5974.8306   -4130.0329 
  107400    313.64511   -5929.0831    30.852245   -5959.9354   -11590.203 
  107600    283.41912   -5940.2527    27.879012   -5968.1317    6900.2827 
  107800    254.75319   -5943.4042    25.059239   -5968.4634   -13232.118 
  108000    380.22444   -5931.2475    37.401436    -5968.649     12183.21 
  108200     354.7309   -5935.1494    34.893719   -5970.0431   -4351.0413 
  108400    291.94246   -5941.2574    28.717426   -5969.9748    -7081.412 
  108600    325.84168   -5938.0892    32.051981   -5970.1412    4952.2067 
  108800    288.01149   -5945.6028    28.330749   -5973.9336   -20900.308 
  109000    242.43969   -5947.1414       23.848   -5970.9894   -19618.752 
  109200    334.62542   -5934.5222    32.916009   -5967.4382    38987.134 
  109400    271.13443   -5943.2703    26.670608   -5969.9409     11321.35 
  109600    218.16593   -5955.9108    21.460269   -5977.3711    6614.5154 
  109800    282.34647   -5943.6998    27.773499   -5971.4733    10357.361 
  110000    272.86792   -5940.7679    26.841126   -5967.6091     8777.912 
  110200    328.10552    -5935.463    32.274667   -5967.7377    -16735.65 
  110400    208.67553   -5948.7099     20.52673   -5969.2366   -5271.6907 
  110600    320.14191    -5940.132    31.491314   -5971.6233   -447.04283 
  110800    315.06427   -5939.2783    30.991842   -5970.2701     -9143.75 
  111000    312.00896   -5944.8092    30.691302   -5975.5005   -21662.554 
  111200    285.08142   -5948.7018    28.042528   -5976.7443      2649.55 
  111400    379.26478    -5933.868    37.307037    -5971.175    4045.5708 
  111600     312.4958   -5939.1455    30.739191   -5969.8847    19169.774 
  111800    287.31062   -5946.9023    28.261807   -5975.1641    18743.772 
  112000    376.33816   -5928.8654    37.019154   -5965.8845   -13330.475 
  112200    356.91606   -5939.6136    35.108666   -5974.7223    8600.6506 
  112400    239.32805   -5948.8419    23.541918   -5972.3838    1550.8817 
  112600    274.36204   -5933.3458    26.988097   -5960.3339    21468.273 
  112800    292.47694   -5937.3201    28.770001   -5966.0901    733.44146 
  113000      309.585   -5945.2086    30.452865   -5975.6615    22874.424 
  113200    350.55061   -5933.3699    34.482518   -5967.8524    1650.7085 
  113400    367.14845   -5927.6436    36.115193   -5963.7588      22291.2 
  113600    302.75015   -5939.6073    29.780543   -5969.3879    8441.3486 
  113800    310.31961   -5940.3973    30.525126   -5970.9224    6178.5286 
  114000    420.06376   -5927.5511    41.320299   -5968.8714   -10665.995 
  114200    304.57731   -5941.1243    29.960275   -5971.0846    14423.229 
  114400    322.61719   -5944.0714    31.734798   -5975.8062     6448.122 
  114600    351.61718   -5935.4614    34.587433   -5970.0488   -1724.4545 
  114800    346.58725   -5935.6612    34.092655   -5969.7538    21630.048 
  115000    237.35481   -5948.1349    23.347817   -5971.4828    -9682.048 
  115200    350.91213   -5938.7196     34.51808   -5973.2377   -4978.8921 
  115400    270.08152   -5940.8669    26.567036   -5967.4339   -6988.5997 
  115600    228.45836    -5945.974    22.472702   -5968.4467   -7722.1943 
  115800    188.86277     -5945.41    18.577814   -5963.9878   -2983.6967 
  116000    229.71829   -5936.8353    22.596637   -5959.4319    23591.704 
  116200     265.5323   -5941.5723    26.119544   -5967.6918    7559.0909 
  116400    253.60847    -5950.182    24.946637   -5975.1287    -8518.439 
  116600    340.25644    -5932.713    33.469914    -5966.183   -8669.2573 
  116800    274.80397   -5942.6411    27.031568   -5969.6727    1924.0743 
  117000    293.03005   -5939.5158    28.824408   -5968.3402    10061.029 
  117200    378.68084   -5932.4507    37.249597   -5969.7003    6208.0657 
  117400    250.00016   -5943.0518    24.591699   -5967.6435   -6060.9703 
  117600    291.49427   -5943.0273    28.673339   -5971.7006    14782.643 
  117800    307.56797   -5929.9775    30.254456    -5960.232        24150 
  118000    279.13711   -5942.7744    27.457805   -5970.2322   -2480.2035 
  118200     268.8765   -5941.1223    26.448503   -5967.5708   -29536.297 
  118400    279.60433   -5939.1516    27.503764   -5966.6554    2745.4819 
  118600    217.74899   -5955.9363    21.419256   -5977.3556   -14061.129 
  118800    287.07601   -5943.5436    28.238729   -5971.7823   -5145.8118 
  119000     267.1756   -5936.6679    26.281191   -5962.9491    919.01088 
  119200    226.41631   -5939.6156    22.271833   -5961.8874    1698.5754 
  119400    178.78836   -5948.8582    17.586827   -5966.4451   -4646.1539 
  119600    321.13671    -5934.675    31.589168   -5966.2642   -11211.058 
  119800    270.82542   -5942.3763    26.640211   -5969.0165    5498.7957 
  120000    270.36643   -5941.8359    26.595062    -5968.431    15068.975 
  120200    346.88079   -5923.7774     34.12153    -5957.899    14498.915 
  120400    302.77079   -5936.7637    29.782573   -5966.5463    20124.454 
  120600    348.87452   -5941.8766    34.317646   -5976.1942   -9171.1426 
  120800    340.17625   -5933.6367    33.462026   -5967.0987    14138.568 
  121000    275.85056   -5940.0898    27.134518   -5967.2243   -12838.131 
  121200    255.12418   -5941.9433    25.095731    -5967.039    3078.5013 
  121400    381.81514   -5927.0197    37.557907   -5964.5776    4928.0964 
  121600    300.25216    -5941.346    29.534824   -5970.8808    3110.4685 
  121800    324.68518   -5944.4394     31.93822   -5976.3776    648.54138 
  122000    387.64127   -5934.9488    38.131005   -5973.0798     986.6763 
  122200    350.47398   -5936.3282     34.47498   -5970.8032   -62.487616 
  122400    317.46018    -5945.629     31.22752   -5976.8566   -8908.5357 
  122600    275.41765   -5933.0341    27.091934    -5960.126   -8687.6979 
  122800     349.3994   -5941.1292    34.369277   -5975.4985   -3428.6314 
  123000    271.88923   -5943.3271    26.744855    -5970.072    22340.805 
  123200    336.51262   -5936.1871    33.101647   -5969.2887    4947.3967 
  123400    259.61905    -5942.436    25.537877   -5967.9739    13702.942 
  123600    328.48823   -5941.6804    32.312313   -5973.9927    1865.1769 
  123800    410.03709   -5929.4343    40.334009   -5969.7683   -20856.894 
  124000    383.49698   -5938.2164    37.723344   -5975.9398   -8823.7116 
  124200    336.82645    -5945.861    33.132517   -5978.9935   -4648.6362 
  124400    343.54501   -5932.1565      33.7934   -5965.9499   -720.38378 
  124600    311.25343   -5935.4357    30.616983   -5966.0527    7538.5046 
  124800    284.10935     -5942.14    27.946908   -5970.0869    15718.404 
  125000    327.24835   -5939.5091     32.19035   -5971.6994   -1065.2484 
  125200    276.16956   -5942.4764    27.165897   -5969.6423   -9857.3918 
  125400    222.06885   -5946.4054    21.844187   -5968.2496   -11951.304 
  125600    297.62619   -5936.8994    29.276516   -5966.1759    13506.557 
  125800    302.51921   -5936.8942    29.757826   -5966.6521   -17757.751 
  126000    259.53193   -5948.5386    25.529308   -5974.0679    838.76572 
  126200    315.27792   -5941.3881    31.012858   -5972.4009    10314.811 
  126400     338.2089   -5936.3785    33.268505    -5969.647    5204.7217 
  126600    241.51944   -5944.9034    23.757478   -5968.6608   -6495.3369 
  126800    286.96454   -5936.7327    28.227764   -5964.9604    502.47495 
  127000    347.34419   -5938.8339    34.167113    -5973.001      31616.3 
  127200    276.89965   -5942.3998    27.237714   -5969.6375    10197.303 
  127400    354.67327    -5939.891    34.888051    -5974.779   -18807.673 
  127600    286.66736   -5942.4416    28.198531   -5970.6401    4763.7985 
  127800    354.78562   -5930.2109    34.899102     -5965.11    14485.165 
  128000    257.57106   -5941.5576    25.336424   -5966.8941    10901.579 
  128200     229.5756    -5946.623    22.582602   -5969.2056   -2607.2645 
  128400    355.61883   -5937.9498    34.981062   -5972.9309   -28787.645 
  128600    319.12735   -5945.2266    31.391514   -5976.6182   -18384.217 
  128800    239.10226   -5941.8459    23.519708   -5965.3656    21563.387 
  129000    308.02422   -5929.7751    30.299336   -5960.0744   -27518.107 
  129200    239.71124    -5943.071    23.579611   -5966.6506   -13661.895 
  129400    253.58768   -5940.1429    24.944591   -5965.0875    -16764.29 
  129600    320.86686    -5946.005    31.562625   -5977.5676   -15497.184 
  129800    235.88016   -5948.6446     23.20276   -5971.8474   -39172.133 
  130000    342.70894   -5938.1489    33.711158     -5971.86    19089.489 
  130200    361.79536   -5929.6027    35.588627   -5965.1914    6649.5899 
  130400    309.62793    -5938.852    30.457087   -5969.3091    17795.665 
  130600    304.04341   -5946.5001    29.907757   -5976.4078    28990.993 
  130800    339.67135   -5934.3623    33.412361   -5967.7747   -5575.0156 
  131000    310.03512   -5941.6291    30.497141   -5972.1262   -18593.702 
  131200    266.41275   -5941.5128    26.206152    -5967.719   -9818.8439 
  131400    334.04784   -5932.7383    32.859195   -5965.5975   -22945.674 
  131600     291.9713   -5948.6301    28.720262   -5977.3504      4071.54 
  131800    319.30202   -5942.7017    31.408697   -5974.1104     16213.16 
  132000    343.77419   -5937.9703    33.815944   -5971.7862     17981.32 
  132200    260.85823   -5940.4587    25.659771   -5966.1185   -5515.1433 
  132400    290.22734   -5936.4918    28.548715   -5965.0405     24656.66 
  132600    264.15184   -5938.5304    25.983753   -5964.5141   -4374.6322 
  132800    220.83624   -5949.5602    21.722939   -5971.2831    14165.853 
  133000     263.5376   -5948.4568    25.923332   -5974.3801    201.69287 
  133200    279.53512   -5941.0806    27.496957   -5968.5776    15063.604 
  133400     355.6248   -5936.2572    34.981649   -5971.2388    -4176.881 
  133600    297.12238   -5928.9246    29.226958   -5958.1515    19026.922 
  133800    237.99217   -5943.9851    23.410512   -5967.3956   -16586.231 
  134000    266.63018   -5940.2717     26.22754   -5966.4992   -3585.2903 
  134200     228.8025    -5941.154    22.506554   -5963.6605   -25718.899 
  134400    271.63758   -5942.2919    26.720101    -5969.012    16565.553 
  134600    334.88055   -5931.1186    32.941106   -5964.0597   -6725.9435 
  134800    292.01163   -5942.1062    28.724229   -5970.8305   -6595.7439 
  135000    285.64005   -5947.4994    28.097478   -5975.5968   -8547.8143 
  135200    365.74432   -5939.3456    35.977074   -5975.3227   -7823.7149 
  135400    227.97852   -5951.5847    22.425502   -5974.0102    2111.2784 
  135600    270.34931   -5946.2898    26.593379   -5972.8832   -32.748441 
  135800     342.5013   -5936.2049    33.690734   -5969.8957    1748.7745 
  136000    310.23874   -5938.0603    30.517171   -5968.5775   -7238.9174 
  136200    241.35492   -5949.3862    23.741295   -5973.1275    13635.049 
  136400    315.97274    -5938.862    31.081206   -5969.9432   -6992.1873 
  136600    267.14043    -5940.359    26.277731   -5966.6367    5172.1419 
  136800    324.35552   -5932.4903    31.905792   -5964.3961     18362.88 
  137000    364.71783   -5933.1221    35.876101   -5968.9982   -17061.727 
  137200     322.9635   -5939.1991    31.768864    -5970.968    19393.884 
  137400    286.01659   -5948.8859    28.134517   -5977.0204   -15984.308 
  137600    353.21929   -5935.3376    34.745027   -5970.0826   -8867.0287 
  137800    295.27343    -5940.455    29.045082   -5969.5001   -33330.363 
  138000    242.07385     -5941.75    23.812014    -5965.562   -10130.926 
  138200    298.36635    -5936.548    29.349323   -5965.8974    19048.348 
  138400    283.00081   -5947.0282    27.837865    -5974.866    19912.377 
  138600    283.26964   -5948.1695    27.864309   -5976.0338    11126.724 
  138800    316.95305   -5941.7065    31.177635   -5972.8841    16415.744 
  139000    298.29074   -5934.6258    29.341885   -5963.9677   -2185.8167 
  139200    366.39893   -5926.4377    36.041465   -5962.4792   -4712.7758 
  139400    321.25061   -5942.0973    31.600372   -5973.6977    1526.5149 
  139600     338.2475   -5941.2844    33.272301   -5974.5567   -10397.956 
  139800      426.191   -5933.8222    41.923016   -5975.7452   -13252.221 
  140000    232.11406   -5947.4808    22.832302   -5970.3131    25753.702 
  140200    254.85955     -5938.02    25.069701   -5963.0897   -40653.286 
  140400    333.24281   -5936.4569    32.780006   -5969.2369   -13133.288 
  140600    319.17064   -5946.9382    31.395772    -5978.334   -22164.436 
  140800     312.7497   -5950.0284    30.764166   -5980.7926   -734.61964 
  141000    322.85675   -5935.3519    31.758364   -5967.1102   -19025.981 
  141200    270.36461   -5944.0735    26.594884   -5970.6684   -6060.8067 
  141400    312.22641   -5938.5165    30.712692   -5969.2292    14646.395 
  141600    354.52628   -5930.2736    34.873592   -5965.1472   -2716.5252 
  141800    281.24736   -5943.7876    27.665383   -5971.4529    6190.6516 
  142000     291.3547   -5941.7024     28.65961    -5970.362     24876.36 
  142200    383.99891   -5925.3851    37.772718   -5963.1578   -21352.281 
  142400    311.01019   -5934.6173    30.593056   -5965.2103   -13244.233 
  142600    322.93157    -5942.515    31.765723   -5974.2807   -8506.2229 
  142800    245.01642     -5944.62    24.101464   -5968.7215    9671.6581 
  143000    354.42887   -5942.9836     34.86401   -5977.8476   -12870.911 
  143200    364.14985   -5933.1985    35.820231   -5969.0187   -4102.7707 
  143400    268.82624   -5946.3227    26.443558   -5972.7663   -14863.791 
  143600    275.63776    -5939.595    27.113585   -5966.7085   -7944.4068 
  143800    281.24261   -5939.4653    27.664916   -5967.1302    13277.302 
  144000    273.53511   -5948.9615    26.906755   -5975.8683    2502.0394 
  144200    257.13503   -5949.7906    25.293532   -5975.0842   -1267.5318 
  144400    343.41673   -5940.2095    33.780782   -5973.9903   -13267.016 
  144600     309.6985   -5932.1832    30.464029   -5962.6472   -9703.0938 
  144800    288.85627   -5935.9283    28.413847   -5964.3421    19112.354 
  145000    328.39853   -5947.5184     32.30349   -5979.8219   -485.92771 
  145200    383.86419   -5935.4603    37.759466   -5973.2198   -10243.273 
  145400    298.52504   -5941.0844    29.364933   -5970.4494   -5908.0983 
  145600    321.00015   -5940.5945    31.575736   -5972.1703   -1491.7305 
  145800     314.8194   -5934.8822    30.967755     -5965.85   -5588.2331 
  146000    292.71285   -5937.1337    28.793206   -5965.9269    -959.5465 
  146200    243.24511   -5951.0373    23.927227   -5974.9645    -216.0703 
  146400    285.82877   -5949.9808    28.116042   -5978.0968    -5025.764 
  146600    303.62962   -5939.6753    29.867053   -5969.5423   -5886.6151 
  146800    303.30273   -5935.0008    29.834899   -5964.8357    21422.568 
  147000    416.37205   -5925.0592    40.957157   -5966.0164   -7714.2486 
  147200    342.57296   -5940.9965    33.697782   -5974.6942    13852.811 
  147400    288.64993   -5945.3655     28.39355    -5973.759    3262.0438 
  147600    263.20443   -5942.7948    25.890559   -5968.6853    7354.4411 
  147800    334.52226   -5936.2769    32.905861   -5969.1828   -15471.528 
  148000    308.09938   -5934.9898    30.306729   -5965.2965    21718.743 
  148200    311.88912   -5940.0994    30.679513   -5970.7789    2074.1469 
  148400    277.89442   -5942.4441    27.335566   -5969.7797    5516.0255 
  148600    272.79702   -5935.4757    26.834151   -5962.3098   -8507.1107 
  148800    291.50724   -5948.0242    28.674614   -5976.6988   -18682.957 
  149000    310.11429   -5939.4464    30.504929   -5969.9514   -261.10211 
  149200    328.77347   -5936.0101    32.340371   -5968.3504   -19394.428 
  149400    238.84375   -5944.6675    23.494279   -5968.1618   -14378.667 
  149600    265.38055   -5952.5187    26.104617   -5978.6233   -34299.636 
  149800    362.06836   -5937.8742    35.615482   -5973.4896    798.26771 
  150000     263.8972   -5944.5584    25.958705   -5970.5171   -12511.881 
  150200     320.5027   -5939.6043    31.526803   -5971.1311    14571.554 
  150400    347.61603   -5931.6778    34.193852   -5965.8717    10517.429 
  150600    245.36186   -5945.5232    24.135445   -5969.6586    17365.285 
  150800    256.95795   -5941.5616    25.276114   -5966.8377   -13686.815 
  151000    312.77359   -5931.3217    30.766516   -5962.0882   -7102.7108 
  151200    247.46642   -5945.6221    24.342463   -5969.9646   -12066.989 
  151400     272.7579   -5936.7066    26.830303   -5963.5369   -4126.5234 
  151600    382.69191   -5934.2524    37.644152   -5971.8965   -6111.9422 
  151800    278.58386   -5942.5991    27.403384   -5970.0025   -17712.134 
  152000    291.09146   -5943.1747    28.633716   -5971.8084   -17355.079 
  152200    369.24719    -5929.921    36.321639   -5966.2427   -29305.821 
  152400    268.86258   -5942.7514    26.447134   -5969.1985   -10997.481 
  152600     296.3143   -5939.3944     29.14747   -5968.5418    8832.4541 
  152800    280.16917   -5939.4128    27.559326   -5966.9721   -116.73841 
  153000    207.20373   -5954.6813    20.381954   -5975.0633   -6423.7117 
  153200    283.52317   -5941.2853    27.889248   -5969.1745   -12995.334 
  153400    322.60607   -5936.1981    31.733705   -5967.9318    10477.476 
  153600    259.49974   -5937.4239    25.526141     -5962.95    8440.0644 
  153800    255.47734   -5945.5584    25.130471   -5970.6889   -3206.8968 
  154000    357.78639   -5931.5438    35.194278    -5966.738   -26066.014 
  154200    236.76626    -5948.464    23.289923   -5971.7539   -5281.0178 
  154400    238.37332   -5943.6407    23.448004   -5967.0887    -28235.86 
  154600    317.27616   -5931.9221    31.209419   -5963.1315    5808.6877 
  154800    336.48175   -5935.5462     33.09861   -5968.6448    2122.4767 
  155000    334.96879   -5938.3131    32.949785   -5971.2629    -21323.28 
  155200    262.24687   -5941.5718    25.796368   -5967.3682    6856.8016 
  155400    256.03823   -5951.3663    25.185644   -5976.5519    -1234.359 
  155600    279.81675    -5939.129    27.524659   -5966.6536    14425.189 
  155800    250.50957   -5936.0164    24.641807   -5960.6582    14761.598 
  156000    369.83667   -5925.6662    36.379625   -5962.0458    1899.3604 
  156200    270.81622   -5943.4847    26.639307    -5970.124   -4127.6419 
  156400    327.64112   -5941.3835    32.228986   -5973.6125    6104.2249 
  156600     270.1593   -5943.3388    26.574687   -5969.9134   -2999.6734 
  156800    236.83707   -5947.7268    23.296888   -5971.0236   -26669.606 
  157000    360.17721   -5933.7232    35.429455   -5969.1527   -26990.823 
  157200    370.46795   -5937.8069    36.441722   -5974.2486   -8500.3598 
  157400    242.70711   -5950.7567    23.874305    -5974.631    11005.919 
  157600    260.05372   -5941.2881    25.580634   -5966.8687   -22987.158 
  157800    282.32632   -5941.4173    27.771518   -5969.1889    17197.732 
  158000    284.33387   -5947.9839    27.968994   -5975.9529    -12185.77 
  158200    385.34106   -5936.4355    37.904741   -5974.3403   -9134.0195 
  158400    311.92181   -5937.2288    30.682729   -5967.9115   -14724.857 
  158600    285.71494   -5950.2348    28.104845   -5978.3396   -13464.949 
  158800    341.32033   -5938.2401    33.574566   -5971.8147    17777.746 
  159000     372.5586   -5936.4549    36.647372   -5973.1023   -14475.222 
  159200    226.74346   -5953.6399    22.304013   -5975.9439    7757.7959 
  159400       250.99   -5948.9551    24.689066   -5973.6442    15576.317 
  159600    314.49489   -5939.0613    30.935834   -5969.9971   -7043.9611 
  159800     257.4573   -5943.9919    25.325234   -5969.3171   -31233.888 
  160000    253.86986   -5947.5855    24.972348   -5972.5578   -13100.345 
  160200    253.93685   -5932.8687    24.978938   -5957.8477    3296.5102 
  160400    249.83658   -5942.1383    24.575608   -5966.7139    15246.198 
  160600    244.56963   -5944.5839    24.057515   -5968.6414    17809.387 
  160800    280.82581   -5941.3691    27.623917    -5968.993    -7310.132 
  161000    301.14101   -5941.6183    29.622257   -5971.2406     -2179.76 
  161200    326.63984   -5937.8609    32.130493   -5969.9914    16494.808 
  161400    323.95673   -5928.1101    31.866565   -5959.9766   -11422.584 
  161600    231.65768   -5942.2824    22.787409   -5965.0699   -3220.4664 
  161800    267.98712   -5943.2006    26.361017   -5969.5616   -1533.4706 
  162000    325.60348   -5927.7548     32.02855   -5959.7833    16049.078 
  162200    305.76482   -5945.5406    30.077086   -5975.6177    3638.4131 
  162400    227.11559   -5938.1967    22.340618   -5960.5373    20699.696 
  162600    340.12035   -5929.6054    33.456527   -5963.0619   -12771.882 
  162800    242.04724   -5945.5906    23.809396      -5969.4     4920.886 
  163000    341.25927   -5938.9008    33.568559   -5972.4694   -891.56331 
  163200    325.79041   -5937.5289    32.046938   -5969.5758     12899.87 
  163400    223.51012   -5948.3284     21.98596   -5970.3144     20646.21 
  163600    304.42738   -5935.9219    29.945526   -5965.8675    -10572.25 
  163800    242.47562   -5939.5327    23.851534   -5963.3842    5317.4443 
  164000     235.7347    -5953.114    23.188452   -5976.3024    -30085.08 
  164200     323.6844    -5941.119    31.839776   -5972.9588    6255.7967 
  164400    296.15288   -5940.4396    29.131591   -5969.5712    -10404.19 
  164600    274.75933   -5939.2337    27.027177   -5966.2608    3406.2646 
  164800    308.29943   -5930.0755    30.326407   -5960.4019     4563.591 
  165000    293.03086   -5940.9205    28.824488    -5969.745    28482.578 
  165200    299.25548   -5946.1893    29.436783   -5975.6261    5712.2813 
  165400    426.54603   -5928.3401    41.957939   -5970.2981   -847.13151 
  165600    343.08192   -5939.0595    33.747847   -5972.8073   -12764.508 
  165800    274.68819   -5939.3147    27.020179   -5966.3349    6539.1593 
  166000     316.5722   -5929.2523    31.140173   -5960.3925   -13847.289 
  166200    276.09232   -5945.8691    27.158299   -5973.0274    11865.316 
  166400     283.6021   -5943.7418    27.897011   -5971.6389   -3678.0672 
  166600     400.0879    -5928.667    39.355339   -5968.0224    4444.1391 
  166800    243.45572   -5943.5224    23.947944   -5967.4704   -7037.4355 
  167000    336.32119   -5935.2122    33.082817    -5968.295    15378.372 
  167200     346.8919   -5934.1135    34.122622   -5968.2361   -17511.885 
  167400    295.20724   -5942.9366    29.038571   -5971.9751    13353.355 
  167600     291.4725   -5943.8686    28.671197   -5972.5398   -31616.732 
  167800    403.08052   -5929.2859    39.649713   -5968.9356   -17579.526 
  168000    274.79173   -5938.7866    27.030365   -5965.8169    11448.027 
  168200    317.10464   -5938.2461    31.192547   -5969.4386    9089.4406 
  168400    347.74138   -5942.0169    34.206183   -5976.2231    12153.221 
  168600    240.17262    -5954.832    23.624996    -5978.457   -9024.0907 
  168800    257.20091   -5945.1689    25.300013   -5970.4689    -5371.421 
  169000    295.34832   -5934.5067    29.052449   -5963.5592    17002.564 
  169200    263.95094   -5938.7779    25.963992   -5964.7419    12355.308 
  169400    255.07681   -5944.8921    25.091072   -5969.9832   -15869.523 
  169600    227.27621   -5939.6252    22.356418   -5961.9816    8802.5991 
  169800    304.86108   -5940.0991    29.988188   -5970.0873   -8334.8231 
  170000    255.24487   -5946.6982    25.107604   -5971.8058    11085.634 
  170200    328.07847   -5934.2141    32.272007   -5966.4861     18157.55 
  170400    334.46467   -5939.4882    32.900196   -5972.3884    9742.1391 
  170600     268.6625   -5943.6558    26.427452   -5970.0832     -2693.69 
  170800    392.87666   -5927.3138    38.645993   -5965.9597   -5219.0742 
  171000    236.21143   -5941.3204    23.235346   -5964.5557   -3497.0088 
  171200    275.03844   -5941.4403    27.054632   -5968.4949   -17451.473 
  171400    315.52164   -5935.7206    31.036833   -5966.7574    -808.9866 
  171600     263.0243   -5940.6651    25.872841   -5966.5379   -10074.916 
  171800    304.64869   -5943.5926    29.967296   -5973.5598    9242.6713 
  172000    323.64101   -5936.1075    31.835509    -5967.943    24470.732 
  172200    252.42731   -5947.0732     24.83045   -5971.9036    14411.427 
  172400    342.86701    -5940.846    33.726707   -5974.5728   -5462.1789 
  172600    362.68696   -5933.5642     35.67633   -5969.2405   -11939.093 
  172800    316.05814   -5946.3795    31.089606   -5977.4691   -254.58386 
  173000    305.39189   -5944.3714    30.040402   -5974.4118   -16249.946 
  173200    289.77043   -5937.0616    28.503771   -5965.5654    1585.7504 
  173400    254.97068   -5946.0741    25.080633   -5971.1547     3790.431 
  173600    289.27675   -5939.6838    28.455208    -5968.139     11250.69 
  173800    340.16682   -5933.6432    33.461099   -5967.1043   -5491.0472 
  174000    299.17111   -5945.7065    29.428485    -5975.135   -25073.473 
  174200    358.71155   -5936.3176    35.285282   -5971.6029    16737.827 
  174400    360.85743   -5933.5405    35.496366   -5969.0369    2261.3518 
  174600    349.17018   -5941.4119     34.34673   -5975.7587   -11.818661 
  174800      352.198   -5933.1058    34.644566   -5967.7504   -13617.319 
  175000    421.30624   -5932.7304    41.442518   -5974.1729   -9352.1463 
  175200    300.69409   -5942.0909    29.578294   -5971.6692    11109.765 
  175400    343.27121   -5945.0085    33.766467    -5978.775    11553.336 
  175600     335.0233   -5928.8556    32.955147   -5961.8107    4232.2506 
  175800     330.6148   -5936.7666    32.521497   -5969.2881    30361.581 
  176000    312.02917   -5939.1085    30.693289   -5969.8017    23892.539 
  176200    356.13647   -5936.2128     35.03198   -5971.2448    9660.1709 
  176400    282.64288   -5946.0912    27.802656   -5973.8939   -15768.377 
  176600    245.45575   -5945.7302     24.14468   -5969.8749    602.84293 
  176800    290.37259   -5938.2994    28.563002   -5966.8624   -10670.656 
  177000    318.09488   -5935.8005    31.289954   -5967.0904    4659.2624 
  177200    248.72081   -5947.6153    24.465853   -5972.0812    2965.8331 
  177400    345.92879   -5939.9587    34.027885   -5973.9866    12173.682 
  177600    349.00364   -5935.0602    34.330347   -5969.3905    8417.0623 
  177800    286.59767   -5943.6781    28.191676   -5971.8698    25513.545 
  178000    308.36936    -5939.171    30.333287   -5969.5043   -686.71155 
  178200    292.62318    -5939.666    28.784386   -5968.4503   -21386.252 
  178400    285.10635   -5944.0028     28.04498   -5972.0478   -2141.5093 
  178600    295.27302   -5937.3894    29.045042   -5966.4344   -2160.0448 
  178800    328.08071   -5931.0563    32.272227   -5963.3285   -6654.3723 
  179000    275.64861   -5945.3045    27.114653   -5972.4191   -18776.602 
  179200    323.65433   -5938.8876    31.836819   -5970.7245    -12193.58 
  179400     358.0091   -5937.8242    35.216185   -5973.0403   -13545.591 
[...]
  950000    280.49773   -5945.3165    27.591645   -5972.9082    2162.2793 
  950200    312.20633   -5932.1303    30.710717    -5962.841    8678.9523 
  950400    313.68554   -5941.0758    30.856221    -5971.932   -1394.3976 
  950600    309.13194   -5944.5677    30.408298    -5974.976    138.17992 
  950800    391.93257   -5929.0028    38.553126   -5967.5559   -9262.5946 
  951000    333.65002   -5942.2993    32.820062   -5975.1193    15387.338 
  951200    307.53572   -5939.4488    30.251283   -5969.7001    14741.085 
  951400    331.54979   -5922.4165    32.613469   -5955.0299   -877.83746 
  951600    272.81789   -5938.1522    26.836204   -5964.9884   -8795.0207 
  951800     274.9829   -5942.6583    27.049169   -5969.7075   -1371.9073 
  952000    258.29684   -5943.8713    25.407816   -5969.2791   -15376.934 
  952200    321.35046   -5937.0716    31.610195   -5968.6818    2543.5043 
  952400    333.52872   -5935.0525    32.808131   -5967.8606   -14118.799 
  952600    233.70029   -5947.0707    22.988333   -5970.0591    485.21213 
  952800     314.5389   -5937.9788    30.940164    -5968.919   -11692.573 
  953000    296.41473   -5941.5881    29.157348   -5970.7455   -8820.0735 
  953200    249.19382    -5943.669    24.512382   -5968.1814    8745.1646 
  953400    305.99292   -5934.8446    30.099524   -5964.9441     -17457.7 
  953600    317.37681   -5934.3594    31.219319   -5965.5788   -1024.4804 
  953800    247.14834   -5946.1172    24.311174   -5970.4284    1210.7899 
  954000    310.69585   -5939.1541    30.562135   -5969.7163    9036.4277 
  954200     287.2761   -5938.3428    28.258411   -5966.6012   -23766.479 
  954400    211.54722    -5951.465    20.809209   -5972.2742    12637.287 
  954600    322.51628   -5939.6085    31.724872   -5971.3334    18212.347 
  954800    328.47943   -5938.8673    32.311448   -5971.1787   -8804.3481 
  955000    275.15644   -5951.9279     27.06624   -5978.9942   -22776.497 
  955200    350.43985   -5942.0319    34.471622   -5976.5036   -18745.593 
  955400     288.9515   -5937.2952    28.423214   -5965.7184   -25596.098 
  955600    236.48947   -5949.9131    23.262696   -5973.1758   -8943.4856 
  955800    264.53216   -5942.7458    26.021164   -5968.7669    2560.0191 
  956000     301.0509   -5938.9403    29.613393   -5968.5537   -10911.307 
  956200    241.04018   -5945.0426    23.710335   -5968.7529   -25520.014 
  956400    306.19361   -5930.9994    30.119264   -5961.1186    9706.9571 
  956600    265.54869   -5933.2375    26.121156   -5959.3587   -5271.9047 
  956800    272.73943   -5945.2548    26.828487   -5972.0833    398.95387 
  957000    316.06335   -5936.4786    31.090119   -5967.5687   -3186.5285 
  957200    242.90165   -5950.8384    23.893442   -5974.7319    14945.524 
  957400    277.65664   -5946.5084    27.312176   -5973.8206    -1508.071 
  957600     269.2821   -5938.2024      26.4884   -5964.6908    4101.1153 
  957800    265.05791   -5943.3915     26.07288   -5969.4644   -21230.474 
  958000    293.16093   -5948.2345    28.837282   -5977.0718   -6086.9294 
  958200    348.32828   -5938.0247    34.263915   -5972.2886    21035.237 
  958400    281.54833    -5946.123    27.694989    -5973.818   -6307.9062 
  958600    218.15021   -5956.0318    21.458723   -5977.4906   -7745.1714 
  958800    247.31568   -5941.5081    24.327635   -5965.8357   -7473.0519 
  959000    362.42283   -5933.8695    35.650349   -5969.5199    1014.7872 
  959200    267.72528   -5946.1146    26.335261   -5972.4499    28781.169 
  959400    266.30688   -5942.4604    26.195737   -5968.6562    7723.6728 
  959600    318.03832    -5936.961     31.28439   -5968.2453    8445.4131 
  959800    315.45401   -5942.1154     31.03018   -5973.1455    10078.893 
  960000    238.07068   -5947.6369    23.418234   -5971.0551    -19297.26 
  960200     364.1641   -5934.4183    35.821632   -5970.2399    3702.5388 
  960400    271.25234   -5943.3502    26.682206   -5970.0324   -2251.6018 
  960600    272.88125   -5937.4102    26.842437   -5964.2526   -1110.2338 
  960800    297.92146   -5931.2508     29.30556   -5960.5564    -24826.38 
  961000    261.99134   -5941.2161    25.771232   -5966.9873   -20958.653 
  961200    284.71391   -5942.0435    28.006377   -5970.0498   -24632.565 
  961400     311.6678    -5939.945    30.657743   -5970.6027   -11442.415 
  961600    249.28211   -5943.9555    24.521067   -5968.4766    12256.552 
  961800    262.23872   -5946.0222    25.795566   -5971.8178    5080.5815 
  962000     375.3881   -5933.5898      36.9257   -5970.5155   -6664.9204 
  962200    277.84647   -5941.3111     27.33085   -5968.6419    29405.417 
  962400    299.93978   -5940.7618    29.504096   -5970.2659    3025.5755 
  962600     268.3163   -5939.3186    26.393398    -5965.712   -11673.714 
  962800    365.32335   -5927.3288    35.935664   -5963.2644   -10548.044 
  963000    253.20981   -5942.9421    24.907422   -5967.8496   -9324.3752 
  963200    319.05804   -5937.7396    31.384696   -5969.1243   -932.57759 
  963400    317.46845   -5927.8178    31.228333   -5959.0462   -7544.1856 
  963600    273.12473   -5938.1216    26.866387    -5964.988    7953.5984 
  963800    247.94919   -5939.9602    24.389951   -5964.3502    4265.9759 
  964000    416.60833   -5928.2176    40.980399    -5969.198    28438.663 
  964200     221.6414   -5946.0207     21.80214   -5967.8228   -23152.919 
  964400    338.12474   -5937.7144    33.260226   -5970.9746    17320.492 
  964600    354.00276   -5934.9467    34.822095   -5969.7688    -16499.42 
  964800    298.44418   -5942.3686    29.356979   -5971.7256    14041.049 
  965000    274.09587   -5946.1785    26.961915   -5973.1404   -5837.7909 
  965200    324.98493   -5937.2117    31.967705   -5969.1794   -686.51117 
  965400    271.52298   -5954.5583    26.708828   -5981.2671   -10461.812 
  965600    282.07674   -5946.1061    27.746967   -5973.8531   -398.91954 
  965800     300.8391   -5937.8739    29.592559   -5967.4664    5746.0108 
  966000     337.7981   -5938.6555    33.228095   -5971.8836    20208.276 
  966200    269.90225   -5947.8571    26.549402   -5974.4065   -16495.136 
  966400     289.6214   -5934.5371    28.489111   -5963.0263    1851.8723 
  966600    271.40928   -5938.1199    26.697644   -5964.8175     11384.72 
  966800    252.86679   -5940.7712     24.87368   -5965.6449    15634.511 
  967000    345.82663   -5927.5901    34.017835   -5961.6079    2824.3769 
  967200    256.03038   -5943.3164    25.184872   -5968.5012   -26669.154 
  967400    278.36688    -5940.615     27.38204   -5967.9971    10716.779 
  967600    400.85955   -5927.2186    39.431243   -5966.6498    15417.677 
  967800    326.84648   -5942.4868     32.15082   -5974.6376   -6294.9973 
  968000    286.97095   -5944.5123    28.228394   -5972.7407   -14341.668 
  968200    374.71032   -5931.6911     36.85903   -5968.5501   -3587.2749 
  968400    262.67367   -5947.4626    25.838351    -5973.301    11348.784 
  968600    309.03517   -5943.4183     30.39878   -5973.8171    11356.013 
  968800     403.5278   -5935.1236     39.69371   -5974.8173   -20347.114 
  969000    257.85554   -5946.5935    25.364407   -5971.9579    -1055.552 
  969200    268.05084   -5953.0983    26.367285   -5979.4656   -12755.928 
  969400    289.92826   -5941.3394    28.519295   -5969.8587    4280.5008 
  969600      297.977   -5936.7042    29.311024   -5966.0152    -10250.78 
  969800     277.3524    -5945.512    27.282249   -5972.7942    2006.2106 
  970000    339.78152   -5941.0805    33.423198   -5974.5037   -13053.904 
  970200    342.89659   -5934.4937    33.729617   -5968.2233    5723.9966 
  970400    203.12489   -5943.7579    19.980732   -5963.7386   -16277.324 
  970600    320.51273    -5939.395     31.52779   -5970.9227   -17118.388 
  970800    331.34007   -5929.2717     32.59284   -5961.8645    10381.498 
  971000     359.7471   -5933.2996    35.387146   -5968.6868    4759.1533 
  971200    306.89639   -5939.2244    30.188395   -5969.4128    6980.4273 
  971400    228.57938   -5945.0501    22.484606   -5967.5347    19310.367 
  971600    258.63321   -5947.8781    25.440904    -5973.319   -8912.7879 
  971800    331.12921   -5934.4965    32.572098   -5967.0686   -13111.059 
  972000    254.64365   -5944.8047    25.048464   -5969.8531    17613.988 
  972200    270.18158   -5944.1046    26.576879   -5970.6814   -13517.987 
  972400    343.38401   -5931.9956    33.777563   -5965.7731    -6323.675 
  972600    293.13671   -5941.6288      28.8349   -5970.4637    379.99272 
  972800    262.07627   -5945.8544    25.779586    -5971.634    12254.397 
  973000    358.79595   -5934.2707    35.293585   -5969.5643     8656.663 
  973200    234.41394   -5946.3037    23.058533   -5969.3623   -577.76237 
  973400    220.88236   -5954.8146    21.727476    -5976.542     14970.58 
  973600    280.17542   -5939.9268     27.55994   -5967.4868   -8941.9866 
  973800    277.44801   -5933.8885    27.291654   -5961.1802   -9807.9376 
  974000     268.1254   -5947.5051    26.374619   -5973.8798    13088.246 
  974200    297.83325   -5943.1536    29.296883   -5972.4505   -24825.466 
  974400    321.77616    -5939.049    31.652069    -5970.701     5656.088 
  974600     294.4064    -5938.515    28.959795   -5967.4748    19967.001 
  974800    285.86951   -5948.6795    28.120049   -5976.7995    11593.086 
  975000    331.74143   -5933.9194     32.63232   -5966.5517   -498.32925 
  975200    335.32366   -5937.2395    32.984693   -5970.2242    20520.901 
  975400    300.44841   -5940.9024    29.554128   -5970.4566   -32963.068 
  975600    289.97457   -5934.4037    28.523851   -5962.9276   -7137.4999 
  975800    283.67653   -5936.7828    27.904333   -5964.6872   -9332.4221 
  976000    239.14236   -5946.5768    23.523652   -5970.1005   -2916.9441 
  976200    273.86546   -5937.9286     26.93925   -5964.8678    4784.2461 
  976400     289.3854   -5936.9917    28.465896   -5965.4576    32621.384 
  976600    334.99701   -5942.8512    32.952561   -5975.8038   -5257.4936 
  976800    238.28682   -5953.4744    23.439496   -5976.9139    2402.5245 
  977000    279.78012   -5940.1236    27.521056   -5967.6447   -1708.1295 
  977200    268.52189   -5939.8233    26.413621   -5966.2369    -12895.01 
  977400    202.57605   -5948.2914    19.926744   -5968.2182   -4205.1966 
  977600    318.36313    -5940.332    31.316341   -5971.6484    -6530.801 
  977800    242.04399   -5937.2221    23.809076   -5961.0311    6437.9351 
  978000    262.02442   -5947.9939    25.774486   -5973.7684    -10568.77 
  978200    272.95299   -5932.0322    26.849494   -5958.8817    8905.8054 
  978400    289.18201   -5938.9854    28.445889   -5967.4313    24851.652 
  978600    345.06233    -5941.381    33.942654   -5975.3237   -13755.115 
  978800     327.5068   -5927.5864    32.215773   -5959.8022    3028.9937 
  979000     324.1495   -5940.5254    31.885527   -5972.4109   -13266.979 
  979200    309.49378   -5947.4368    30.443892   -5977.8806   -7541.8847 
  979400    398.58969   -5932.3354    39.207965   -5971.5434     24852.55 
  979600     278.6599   -5938.5718    27.410864   -5965.9826   -7274.2431 
  979800    294.29629   -5941.3243    28.948964   -5970.2733    5604.1155 
  980000    324.38278   -5940.7671    31.908474   -5972.6755    627.34596 
  980200    297.76974   -5933.5137    29.290636   -5962.8044   -17664.751 
  980400    258.33678   -5940.7933    25.411745   -5966.2051   -649.25206 
  980600    251.75826   -5943.2449    24.764637   -5968.0095   -4310.4155 
  980800    351.06795   -5929.4722    34.533407   -5964.0056   -2515.8288 
  981000     300.0316   -5937.8471    29.513128   -5967.3602    3760.4837 
  981200    336.70847   -5943.6425    33.120912   -5976.7634    1139.1267 
  981400    285.45349   -5951.7817    28.079127   -5979.8608   -8022.4845 
  981600    315.53696   -5939.5528    31.038339   -5970.5911    18.139187 
  981800    320.51675   -5944.3719    31.528185   -5975.9001    9010.3129 
  982000    311.11932   -5940.0831    30.603791   -5970.6869   -5199.7142 
  982200    389.76808   -5931.7537    38.340212   -5970.0939    20965.138 
  982400    305.96091   -5945.6268    30.096375   -5975.7232   -28606.482 
  982600    347.43625   -5933.8297    34.176169   -5968.0059    12536.184 
  982800    267.27801    -5937.024    26.291265   -5963.3153   -20000.395 
  983000    301.03927   -5940.2856    29.612249   -5969.8978    7466.3319 
  983200    333.61239   -5933.0944     32.81636   -5965.9108    -28568.99 
  983400    298.32219   -5927.6417    29.344979   -5956.9867   -8218.5723 
  983600    302.59049   -5943.4752    29.764837     -5973.24    1356.3817 
  983800      352.034   -5933.2812    34.628434   -5967.9097   -17011.841 
  984000    420.83931   -5926.5404    41.396588   -5967.9369    8083.8756 
  984200    315.78929   -5944.1418    31.063161    -5975.205    5837.4879 
  984400    291.82135   -5943.3105    28.705513    -5972.016   -9284.3379 
  984600    301.79094   -5932.1179    29.686189   -5961.8041    14583.129 
  984800    261.29322   -5941.4366     25.70256   -5967.1392    21342.168 
  985000    296.77024   -5938.9052    29.192319   -5968.0976    31895.639 
  985200    313.65706   -5940.7163     30.85342   -5971.5698    11434.158 
  985400      233.917    -5947.115    23.009651   -5970.1247   -25360.849 
  985600    309.01348   -5934.5244    30.396646    -5964.921   -3966.3366 
  985800     253.5869   -5947.5297    24.944514   -5972.4742   -1138.6714 
  986000    267.87943   -5943.3479    26.350424   -5969.6983    7936.9921 
  986200    277.90284   -5935.3567    27.336394   -5962.6931    6120.3866 
  986400     332.0765   -5940.9189     32.66528   -5973.5842    15493.768 
  986600    254.69139   -5951.3065     25.05316   -5976.3597    14333.845 
  986800    347.14363   -5934.9481    34.147384   -5969.0954    11022.951 
  987000    311.07616   -5942.2098    30.599545   -5972.8094   -8730.0001 
  987200    251.74989   -5940.2738    24.763814   -5965.0376   -20979.637 
  987400    304.96792   -5936.2262    29.998698   -5966.2249   -6826.9602 
  987600    258.08654   -5941.9577    25.387129   -5967.3448   -27371.792 
  987800    303.04381   -5932.1398    29.809429   -5961.9493    14441.418 
  988000     273.9586   -5943.4082    26.948412   -5970.3566    9049.5438 
  988200    338.60354   -5940.6501    33.307324   -5973.9574   -5678.8821 
  988400    364.42723   -5925.8509    35.847516   -5961.6984   -24158.425 
  988600    328.46964   -5939.7166    32.310485   -5972.0271    6523.2322 
  988800    261.16309   -5945.7357     25.68976   -5971.4254    1883.8923 
  989000    305.72326   -5935.9131    30.072997   -5965.9861    11511.702 
  989200    314.79788   -5943.3217    30.965638   -5974.2874    14593.546 
  989400    367.59315   -5936.8049    36.158937   -5972.9638    12358.365 
  989600    337.47172   -5937.3308     33.19599   -5970.5268   -13867.368 
  989800    268.74707   -5942.2747    26.435771   -5968.7104   -15283.269 
  990000    298.14469   -5938.6813    29.327519   -5968.0089   -9085.1317 
  990200    249.66526   -5945.3169    24.558755   -5969.8756   -661.99108 
  990400    306.30464   -5932.7704    30.130186   -5962.9005    15105.956 
  990600    295.79983    -5939.255    29.096863   -5968.3518    -8051.444 
  990800    339.57595   -5938.2184    33.402976   -5971.6214   -4273.7603 
  991000      317.408    -5946.614    31.222388   -5977.8364    179.52277 
  991200    337.92336   -5933.1387    33.240416   -5966.3791   -4627.0828 
  991400    284.67893   -5945.1001    28.002936   -5973.1031    5716.5647 
  991600     319.6682   -5942.0895    31.444716   -5973.5342   -12321.488 
  991800    242.97245   -5944.3631    23.900406   -5968.2635   -19699.376 
  992000    323.84265   -5938.1006    31.855343   -5969.9559   -21557.876 
  992200    422.77535   -5918.4354    41.587029   -5960.0224    2340.5251 
  992400    250.40751   -5933.2489    24.631768   -5957.8806    34614.696 
  992600    269.46125   -5946.2825    26.506022   -5972.7885   -3731.9914 
  992800    258.90751   -5942.0091    25.467885   -5967.4769    5706.1434 
  993000    371.42252   -5935.4169     36.53562   -5971.9526   -1306.5882 
  993200    315.83963    -5943.627    31.068112   -5974.6951    7822.7232 
  993400    339.50027   -5928.9227    33.395532   -5962.3182    6582.0799 
  993600    298.40518   -5939.5903    29.353143   -5968.9435   -16278.418 
  993800    287.70315   -5942.7203    28.300418   -5971.0207    876.93154 
  994000    311.21215   -5932.4522    30.612922   -5963.0651   -16040.881 
  994200    247.26839   -5940.9404    24.322983   -5965.2634   -7411.1606 
  994400    246.89057   -5945.0607    24.285819   -5969.3465    26640.481 
  994600    401.96967   -5929.4786    39.540442    -5969.019   -20225.603 
  994800    326.31932   -5938.5542    32.098965   -5970.6532    1940.2347 
  995000    233.77843   -5941.9717     22.99602   -5964.9677     17626.13 
  995200    367.05866   -5931.8655     36.10636   -5967.9719    4984.5264 
  995400    307.36019   -5923.6974    30.234018   -5953.9314    7916.1518 
  995600    221.05863     -5942.64    21.744815   -5964.3848   -39095.026 
  995800    268.50602   -5943.9579    26.412059     -5970.37   -8290.5411 
  996000    336.09954   -5931.9337    33.061013   -5964.9947    11073.008 
  996200    319.82845   -5947.9725    31.460479    -5979.433    18336.622 
  996400    295.04446   -5941.6639    29.022559   -5970.6864    16571.897 
  996600     316.7907   -5936.3237    31.161666   -5967.4853    31260.868 
  996800    379.25309   -5931.0724    37.305887   -5968.3783   -23474.669 
  997000    278.01585   -5945.0504     27.34751    -5972.398    1432.3476 
  997200    282.94903   -5932.6567    27.832771   -5960.4895   -18080.652 
  997400    295.79173   -5929.3717    29.096066   -5958.4678   -18267.574 
  997600    358.03029   -5935.7521    35.218269   -5970.9703    -21286.41 
  997800    220.53069   -5945.5234    21.692883   -5967.2163   -11600.096 
  998000    393.30269    -5929.553      38.6879   -5968.2409    9822.3174 
  998200    271.81057   -5941.5335    26.737117   -5968.2706    18777.693 
  998400    300.13198   -5937.7924    29.523002   -5967.3155    9072.4339 
  998600    339.88151   -5937.0804    33.433033   -5970.5134   -2450.5913 
  998800    248.00303   -5945.1796    24.395247   -5969.5748    7116.9787 
  999000    279.22649   -5944.0173    27.466597   -5971.4839   -3567.8527 
  999200    320.43691   -5941.8606    31.520331   -5973.3809    14145.242 
  999400    352.30613   -5937.7667    34.655203   -5972.4219    16417.805 
  999600    259.77821   -5947.5213    25.553534   -5973.0748   -8885.6968 
  999800    364.23901   -5939.2958    35.829001   -5975.1248    6234.6417 
 1000000    308.26953   -5941.4909    30.323466   -5971.8144   -4588.9626 
Loop time of 1448.32 on 8 procs for 1000000 steps with 34 atoms

Performance: 14.914 ns/day, 1.609 hours/ns, 690.455 timesteps/s
99.6% CPU use with 8 MPI tasks x no OpenMP threads

MPI task timing breakdown:
Section |  min time  |  avg time  |  max time  |%varavg| %total
---------------------------------------------------------------
Pair    | 1063.4     | 1112.7     | 1153.3     |  92.9 | 76.83
Neigh   | 0.40343    | 0.41875    | 0.43348    |   1.4 |  0.03
Comm    | 20.413     | 60.654     | 109.93     | 397.4 |  4.19
Output  | 0.058331   | 0.062925   | 0.088939   |   3.9 |  0.00
Modify  | 272.84     | 273.03     | 273.37     |   0.9 | 18.85
Other   |            | 1.434      |            |       |  0.10

Nlocal:    4.25 ave 10 max 0 min
Histogram: 3 0 1 0 0 0 1 0 2 1
Nghost:    449.75 ave 479 max 424 min
Histogram: 1 0 1 1 3 0 0 0 1 1
Neighs:    466.375 ave 1162 max 0 min
Histogram: 3 1 0 0 0 1 1 1 0 1

Total # of neighbors = 3731
Ave neighs/atom = 109.735
Neighbor list builds = 930
Dangerous builds = 0

Please see the log.cite file for references relevant to this simulation

Total wall time: 0:24:09
