LAMMPS (3 Mar 2020)
# Alpha
clear
units		real
dimension 3
boundary        p p p
atom_style	charge
newton on
read_data       OH_4.lmp
  orthogonal box = (0 0 0) to (11 11.002 11)
  2 by 2 by 2 MPI processor grid
  reading atoms ...
  50 atoms
  read_data CPU = 0.0520768 secs

timestep 0.25

# ---------- Define Interatomic Potential ---------------------
pair_style      reax/c NULL checkqeq no
pair_coeff      * * ffield.reax C H O
WARNING: Changed valency_val to valency_boc for X (../reaxc_ffield.cpp:315)
fix             2 all qeq/reax 1 0.0 10.0 1.0e-6 reax/c

#------------ Equilibration of the system -------------------------
reset_timestep 0

dump 1 all custom 10 min.lammpstrj id type x y z

minimize 1.0e-8 1.0e-8 100000 100000
WARNING: Using 'neigh_modify every 1 delay 0 check yes' setting during minimization (../min.cpp:190)
Neighbor list info ...
  update every 1 steps, delay 0 steps, check yes
  max neighbors/atom: 2000, page size: 100000
  master list distance cutoff = 12
  ghost atom cutoff = 12
  binsize = 6, bins = 2 2 2
  2 neighbor lists, perpetual/occasional/extra = 2 0 0
  (1) pair reax/c, perpetual
      attributes: half, newton off, ghost
      pair build: half/bin/newtoff/ghost
      stencil: half/ghost/bin/3d/newtoff
      bin: standard
  (2) fix qeq/reax, perpetual, copy from (1)
      attributes: half, newton off, ghost
      pair build: copy
      stencil: none
      bin: none
Per MPI rank memory allocation (min/avg/max) = 25.13 | 25.28 | 25.44 Mbytes
Step Temp E_pair E_mol TotEng Press 
       0            0   -8582.7382            0   -8582.7382    121444.24 
      87            0   -8832.1484            0   -8832.1484    39444.839 
Loop time of 3.79438 on 8 procs for 87 steps with 50 atoms

98.8% CPU use with 8 MPI tasks x no OpenMP threads

Minimization stats:
  Stopping criterion = energy tolerance
  Energy initial, next-to-last, final = 
        -8582.73819745     -8832.14840783      -8832.1484476
  Force two-norm initial, final = 1600.86 60.0399
  Force max component initial, final = 710.748 14.2677
  Final line search alpha, max atom move = 1.5898e-07 2.26828e-06
  Iterations, force evaluations = 87 734

MPI task timing breakdown:
Section |  min time  |  avg time  |  max time  |%varavg| %total
---------------------------------------------------------------
Pair    | 3.1659     | 3.2126     | 3.2693     |   2.0 | 84.67
Neigh   | 0          | 0          | 0          |   0.0 |  0.00
Comm    | 0.047919   | 0.10469    | 0.15115    |  11.0 |  2.76
Output  | 0.00029825 | 0.00037587 | 0.00062036 |   0.0 |  0.01
Modify  | 0.46769    | 0.468      | 0.46815    |   0.0 | 12.33
Other   |            | 0.008741   |            |       |  0.23

Nlocal:    6.25 ave 8 max 6 min
Histogram: 7 0 0 0 0 0 0 0 0 1
Nghost:    970.75 ave 980 max 962 min
Histogram: 4 0 0 0 0 0 0 0 1 3
Neighs:    1766.12 ave 2253 max 1687 min
Histogram: 7 0 0 0 0 0 0 0 0 1

Total # of neighbors = 14129
Ave neighs/atom = 282.58
Neighbor list builds = 0
Dangerous builds = 0

###
min_style cg
minimize 1.0e-8 1.0e-8 100000 100000
WARNING: Using 'neigh_modify every 1 delay 0 check yes' setting during minimization (../min.cpp:190)
Per MPI rank memory allocation (min/avg/max) = 25.13 | 25.28 | 25.44 Mbytes
Step Temp E_pair E_mol TotEng Press 
      87            0   -8832.1484            0   -8832.1484    39444.861 
      89            0   -8832.1487            0   -8832.1487    39444.832 
Loop time of 0.172674 on 8 procs for 2 steps with 50 atoms

99.0% CPU use with 8 MPI tasks x no OpenMP threads

Minimization stats:
  Stopping criterion = energy tolerance
  Energy initial, next-to-last, final = 
        -8832.14844176     -8832.14865107     -8832.14870094
  Force two-norm initial, final = 60.04 59.1546
  Force max component initial, final = 14.2676 14.2327
  Final line search alpha, max atom move = 2.61163e-07 3.71705e-06
  Iterations, force evaluations = 2 34

MPI task timing breakdown:
Section |  min time  |  avg time  |  max time  |%varavg| %total
---------------------------------------------------------------
Pair    | 0.149      | 0.15104    | 0.15339    |   0.4 | 87.47
Neigh   | 0          | 0          | 0          |   0.0 |  0.00
Comm    | 0.0018608  | 0.0042232  | 0.0062521  |   2.5 |  2.45
Output  | 0          | 0          | 0          |   0.0 |  0.00
Modify  | 0.016944   | 0.016961   | 0.016977   |   0.0 |  9.82
Other   |            | 0.0004469  |            |       |  0.26

Nlocal:    6.25 ave 8 max 6 min
Histogram: 7 0 0 0 0 0 0 0 0 1
Nghost:    970.75 ave 980 max 962 min
Histogram: 4 0 0 0 0 0 0 0 1 3
Neighs:    1765.88 ave 2247 max 1685 min
Histogram: 7 0 0 0 0 0 0 0 0 1

Total # of neighbors = 14127
Ave neighs/atom = 282.54
Neighbor list builds = 0
Dangerous builds = 0

###
fix 1 all box/relax aniso 0.0
min_style cg
minimize 1.0e-8 1.0e-8 100000 100000
WARNING: Using 'neigh_modify every 1 delay 0 check yes' setting during minimization (../min.cpp:190)
Per MPI rank memory allocation (min/avg/max) = 25.13 | 25.28 | 25.44 Mbytes
Step Temp E_pair E_mol TotEng Press Volume 
      89            0   -8832.1487            0   -8832.1487    39444.842     1331.242 
     205            0   -8837.4044            0   -8837.4044   -1542.6924    1347.4437 
Loop time of 1.02676 on 8 procs for 116 steps with 50 atoms

98.8% CPU use with 8 MPI tasks x no OpenMP threads

Minimization stats:
  Stopping criterion = energy tolerance
  Energy initial, next-to-last, final = 
        -8832.14869857     -8837.40428082     -8837.40436895
  Force two-norm initial, final = 1327.85 70.0253
  Force max component initial, final = 779.055 30.2389
  Final line search alpha, max atom move = 8.17967e-06 0.000247344
  Iterations, force evaluations = 116 209

MPI task timing breakdown:
Section |  min time  |  avg time  |  max time  |%varavg| %total
---------------------------------------------------------------
Pair    | 0.89305    | 0.90917    | 0.92592    |   1.2 | 88.55
Neigh   | 0          | 0          | 0          |   0.0 |  0.00
Comm    | 0.010561   | 0.027247   | 0.043321   |   6.8 |  2.65
Output  | 0.00034081 | 0.00048733 | 0.00083735 |   0.0 |  0.05
Modify  | 0.083451   | 0.083481   | 0.083517   |   0.0 |  8.13
Other   |            | 0.006377   |            |       |  0.62

Nlocal:    6.25 ave 8 max 6 min
Histogram: 7 0 0 0 0 0 0 0 0 1
Nghost:    970.75 ave 980 max 962 min
Histogram: 4 0 0 0 0 0 0 0 1 3
Neighs:    1765.88 ave 2247 max 1685 min
Histogram: 7 0 0 0 0 0 0 0 0 1

Total # of neighbors = 14127
Ave neighs/atom = 282.54
Neighbor list builds = 0
Dangerous builds = 0

unfix 1
###
min_style cg
minimize 1.0e-8 1.0e-8 100000 100000
WARNING: Using 'neigh_modify every 1 delay 0 check yes' setting during minimization (../min.cpp:190)
Per MPI rank memory allocation (min/avg/max) = 25.13 | 25.28 | 25.44 Mbytes
Step Temp E_pair E_mol TotEng Press 
     205            0   -8837.4044            0   -8837.4044   -1542.7073 
     230            0   -8837.7101            0   -8837.7101    1222.3136 
Loop time of 1.36936 on 8 procs for 25 steps with 50 atoms

98.9% CPU use with 8 MPI tasks x no OpenMP threads

Minimization stats:
  Stopping criterion = energy tolerance
  Energy initial, next-to-last, final = 
        -8837.40437277     -8837.71006851     -8837.71013046
  Force two-norm initial, final = 46.568 47.2813
  Force max component initial, final = 10.9531 10.7347
  Final line search alpha, max atom move = 8.03524e-06 8.62558e-05
  Iterations, force evaluations = 25 281

MPI task timing breakdown:
Section |  min time  |  avg time  |  max time  |%varavg| %total
---------------------------------------------------------------
Pair    | 1.1307     | 1.1562     | 1.1817     |   1.5 | 84.44
Neigh   | 0          | 0          | 0          |   0.0 |  0.00
Comm    | 0.017333   | 0.04288    | 0.068402   |   7.6 |  3.13
Output  | 9.0129e-05 | 0.0001059  | 0.00015253 |   0.0 |  0.01
Modify  | 0.16696    | 0.16706    | 0.16723    |   0.0 | 12.20
Other   |            | 0.003082   |            |       |  0.23

Nlocal:    6.25 ave 8 max 6 min
Histogram: 7 0 0 0 0 0 0 0 0 1
Nghost:    944.5 ave 962 max 929 min
Histogram: 1 2 0 0 2 0 0 2 0 1
Neighs:    1755.38 ave 2225 max 1677 min
Histogram: 7 0 0 0 0 0 0 0 0 1

Total # of neighbors = 14043
Ave neighs/atom = 280.86
Neighbor list builds = 0
Dangerous builds = 0

###
fix 1 all box/relax aniso 0.0
min_style cg
minimize 1.0e-8 1.0e-8 100000 100000
WARNING: Using 'neigh_modify every 1 delay 0 check yes' setting during minimization (../min.cpp:190)
Per MPI rank memory allocation (min/avg/max) = 25.13 | 25.28 | 25.44 Mbytes
Step Temp E_pair E_mol TotEng Press Volume 
     230            0   -8837.7101            0   -8837.7101    1222.3209    1347.4437 
     242            0   -8837.7297            0   -8837.7297    1526.0589    1347.4646 
Loop time of 0.222914 on 8 procs for 12 steps with 50 atoms

98.7% CPU use with 8 MPI tasks x no OpenMP threads

Minimization stats:
  Stopping criterion = energy tolerance
  Energy initial, next-to-last, final = 
        -8837.71012858     -8837.72965555     -8837.72966784
  Force two-norm initial, final = 63.0081 68.9481
  Force max component initial, final = 25.5657 30.8457
  Final line search alpha, max atom move = 7.05056e-06 0.000217479
  Iterations, force evaluations = 12 47

MPI task timing breakdown:
Section |  min time  |  avg time  |  max time  |%varavg| %total
---------------------------------------------------------------
Pair    | 0.19239    | 0.19697    | 0.20138    |   0.6 | 88.36
Neigh   | 0          | 0          | 0          |   0.0 |  0.00
Comm    | 0.0022699  | 0.006682   | 0.011259   |   3.4 |  3.00
Output  | 3.1108e-05 | 3.8128e-05 | 5.8349e-05 |   0.0 |  0.02
Modify  | 0.017878   | 0.017893   | 0.017921   |   0.0 |  8.03
Other   |            | 0.001328   |            |       |  0.60

Nlocal:    6.25 ave 8 max 6 min
Histogram: 7 0 0 0 0 0 0 0 0 1
Nghost:    944.5 ave 962 max 929 min
Histogram: 1 2 0 0 2 0 0 2 0 1
Neighs:    1755.12 ave 2224 max 1677 min
Histogram: 7 0 0 0 0 0 0 0 0 1

Total # of neighbors = 14041
Ave neighs/atom = 280.82
Neighbor list builds = 0
Dangerous builds = 0

unfix 1
###
min_style cg
minimize 1.0e-8 1.0e-8 100000 100000
WARNING: Using 'neigh_modify every 1 delay 0 check yes' setting during minimization (../min.cpp:190)
Per MPI rank memory allocation (min/avg/max) = 25.13 | 25.28 | 25.44 Mbytes
Step Temp E_pair E_mol TotEng Press 
     242            0   -8837.7297            0   -8837.7297    1526.0679 
     321            0   -8838.6865            0   -8838.6865    1726.2559 
Loop time of 4.77827 on 8 procs for 79 steps with 50 atoms

98.9% CPU use with 8 MPI tasks x no OpenMP threads

Minimization stats:
  Stopping criterion = energy tolerance
  Energy initial, next-to-last, final = 
        -8837.72966549     -8838.68641704     -8838.68649132
  Force two-norm initial, final = 45.3286 42.2746
  Force max component initial, final = 10.1614 10.1708
  Final line search alpha, max atom move = 1.58022e-07 1.60721e-06
  Iterations, force evaluations = 79 995

MPI task timing breakdown:
Section |  min time  |  avg time  |  max time  |%varavg| %total
---------------------------------------------------------------
Pair    | 3.9832     | 4.0731     | 4.1631     |   2.7 | 85.24
Neigh   | 0          | 0          | 0          |   0.0 |  0.00
Comm    | 0.053345   | 0.14378    | 0.23366    |  14.6 |  3.01
Output  | 0.00026559 | 0.00033112 | 0.00055952 |   0.0 |  0.01
Modify  | 0.55027    | 0.5507     | 0.55118    |   0.0 | 11.53
Other   |            | 0.01035    |            |       |  0.22

Nlocal:    6.25 ave 8 max 6 min
Histogram: 7 0 0 0 0 0 0 0 0 1
Nghost:    944.5 ave 962 max 929 min
Histogram: 1 2 0 0 2 0 0 2 0 1
Neighs:    1755.12 ave 2224 max 1677 min
Histogram: 7 0 0 0 0 0 0 0 0 1

Total # of neighbors = 14041
Ave neighs/atom = 280.82
Neighbor list builds = 0
Dangerous builds = 0

undump 1
#############
#----------- Thermo ------------
reset_timestep 0
thermo  200

thermo_style    custom step temp etotal ke pe press
velocity all create 300 12345 mom yes rot yes
fix 1 all npt temp 300 300 25.0 iso 0.0 0.0 250.0

variable vpe equal pe
variable vtemp equal temp
variable vstep equal step

fix output all print 2500 "${vstep} ${vtemp} ${vpe}" file temp-tpdh-Pt.dat screen no

dump 1 all custom 2500 thermo-tpdh-Pt.lammpstrj id type x y z

run 1000000
Per MPI rank memory allocation (min/avg/max) = 24 | 24.16 | 24.31 Mbytes
Step Temp TotEng KinEng PotEng Press 
       0          300   -8794.8686    43.817908   -8838.6865    3212.7513 
     200    229.27469   -8776.7524    33.487791   -8810.2402    44568.367 
     400    385.98653   -8753.1497    56.377074   -8809.5267   -22712.259 
     600    266.13815   -8771.7512    38.872057   -8810.6232   -27664.913 
     800    333.66483   -8766.1015    48.734983   -8814.8365     12696.21 
    1000    370.23447   -8760.2338    54.076332   -8814.3101   -48166.511 
    1200    297.12099   -8766.9012    43.397401   -8810.2986    21212.375 
    1400    330.86181   -8756.8216    48.325574   -8805.1472   -26263.728 
    1600    313.01306    -8763.364    45.718592   -8809.0826     9204.314 
    1800    244.21916   -8770.4364    35.670575    -8806.107   -8824.2321 
    2000    317.40831    -8756.037     46.36056   -8802.3976   -28842.644 
    2200    239.63745   -8768.7534    35.001372   -8803.7548    53688.222 
    2400      310.002    -8752.568    45.278797   -8797.8468    -17436.81 
    2600      289.176   -8746.3987    42.236957   -8788.6357    20089.337 
    2800    311.13828   -8764.3213    45.444762    -8809.766    51160.405 
    3000    299.53286    -8760.596    43.749678   -8804.3456   -3598.5298 
    3200     323.5751   -8753.0682     47.26128   -8800.3295    5561.8738 
    3400    312.30191   -8756.6408    45.614721   -8802.2556    47644.053 
    3600    274.49196   -8765.9872    40.092211   -8806.0794   -2075.4437 
    3800    310.80985   -8758.1594     45.39679   -8803.5562    17388.595 
    4000    332.43904   -8754.7881    48.555944   -8803.3441   -22716.206 
    4200    267.50489   -8759.4691    39.071682   -8798.5408    8384.1218 
    4400    322.13619   -8757.2919    47.051113    -8804.343   -14495.944 
    4600    345.42485   -8753.9011    50.452647   -8804.3537   -2543.8826 
    4800    352.96035   -8739.7058    51.553281   -8791.2591    48720.875 
    5000    331.71232   -8748.8226    48.449799   -8797.2724     43555.21 
    5200     320.1679   -8758.4115    46.763625   -8805.1751    5932.9185 
    5400    323.55733   -8759.6954    47.258684   -8806.9541   -34362.587 
    5600    306.52905   -8747.4641    44.771539   -8792.2356   -40649.424 
    5800    215.84472   -8763.5473    31.526213   -8795.0735   -10031.002 
    6000    287.57251   -8762.5282    42.002752   -8804.5309    19446.607 
    6200     283.3755   -8742.4768    41.389738   -8783.8665   -42884.653 
    6400    316.60879   -8751.4914    46.243783   -8797.7352   -19694.868 
    6600    296.10752   -8758.3085    43.249374   -8801.5579   -9511.4477 
    6800    288.24826   -8747.3301    42.101452   -8789.4316    2813.5567 
    7000    395.66449   -8740.9728    57.790634   -8798.7634   -12794.252 
    7200    340.92682   -8761.9972    49.795667   -8811.7929    464.81065 
    7400    326.15155   -8753.3416    47.637594   -8800.9792   -51373.475 
    7600    320.20192   -8749.4985    46.768594    -8796.267    45679.362 
    7800     302.4533   -8752.4096    44.176236   -8796.5858   -52664.839 
    8000    296.55311   -8755.9186    43.314457    -8799.233    18503.096 
    8200    256.80735   -8765.6096    37.509202   -8803.1188    -35922.65 
    8400     360.4377   -8751.1663     52.64542   -8803.8117    71356.653 
    8600    280.33261   -8761.4059    40.945295   -8802.3512   -30216.163 
    8800    260.33251   -8772.0869    38.024087   -8810.1109   -36547.414 
    9000    303.21749   -8751.6485    44.287853   -8795.9364    24077.226 
    9200    339.05098   -8747.6961    49.521682   -8797.2178   -6851.7552 
    9400    273.76433   -8763.7119    39.985934   -8803.6978    3186.6765 
    9600    314.88364   -8754.3455    45.991808   -8800.3373    8454.7523 
    9800    316.59252   -8748.5746    46.241406    -8794.816    -28143.49 
   10000    279.91856   -8763.1264    40.884818   -8804.0112    50699.029 
   10200    266.28938   -8762.8049    38.894145    -8801.699   -17007.879 
   10400    292.44367   -8757.3977    42.714233    -8800.112    18267.718 
   10600    296.63249   -8756.4174     43.32605   -8799.7435     1217.519 
   10800    249.12069   -8768.2411    36.386491   -8804.6276   -1982.1679 
   11000    322.21009   -8754.1098    47.061907   -8801.1717    7939.9452 
   11200    325.35891   -8750.6301    47.521822   -8798.1519     1874.052 
   11400    282.96448   -8760.1954    41.329705   -8801.5251    1608.9823 
   11600    305.60607   -8760.1001    44.636729   -8804.7368    -9868.985 
   11800    301.35873   -8751.8598    44.016363   -8795.8762    4585.2481 
   12000    285.28097   -8755.8099    41.668051    -8797.478   -33751.242 
   12200    253.30907   -8773.2106    36.998245   -8810.2088   -26349.556 
   12400    287.66562   -8763.1784    42.016353   -8805.1947     388.9752 
   12600    280.40012    -8753.673    40.955156   -8794.6282   -23231.969 
   12800    322.00243    -8746.036    47.031576   -8793.0676    18693.743 
   13000     296.3595   -8763.7148    43.286178    -8807.001    27066.681 
   13200     289.2287    -8756.003    42.244656   -8798.2476    22093.074 
   13400    349.96245   -8747.5156    51.115408    -8798.631   -26641.889 
   13600    279.97684   -8759.1641    40.893331   -8800.0574    14821.325 
   13800    338.70547   -8759.2301    49.471217   -8808.7013    7506.6422 
   14000    363.12697   -8742.6804    53.038214   -8795.7186    44453.035 
   14200    286.42638   -8757.3454     41.83535   -8799.1807   -23464.582 
   14400    253.99745   -8760.5634    37.098789   -8797.6622    19755.304 
   14600    386.64605   -8744.0383    56.473404   -8800.5117    9570.0917 
   14800    297.15773   -8756.1367    43.402767   -8799.5394   -1471.7834 
   15000    285.45484   -8761.1613    41.693446   -8802.8547    24296.402 
   15200     239.9173   -8775.9285    35.042247   -8810.9707    2220.3396 
   15400    315.22622   -8760.6594    46.041845   -8806.7012   -7971.2222 
   15600     315.7416   -8754.3203    46.117121   -8800.4375    475.75708 
   15800    317.53125   -8748.5748    46.378517   -8794.9534    8344.8042 
   16000     260.3418   -8758.5549    38.025443   -8796.5803    30742.598 
   16200     319.3198   -8750.7213    46.639751   -8797.3611   -395.28979 
   16400    268.55067   -8763.4517    39.224429   -8802.6761    21658.256 
   16600    275.52678   -8761.4668    40.243356   -8801.7101    10358.082 
   16800    317.03835   -8743.0223    46.306524   -8789.3288    1125.9579 
   17000    324.43201   -8761.7412     47.38644   -8809.1276    13017.779 
   17200    296.26118   -8759.5981    43.271816   -8802.8699   -47231.144 
   17400    346.98852   -8749.3049    50.681036    -8799.986    -15483.03 
   17600    230.12004   -8760.7673    33.611262   -8794.3786     5167.236 
   17800    342.19625   -8753.7524    49.981079   -8803.7335   -2062.1029 
   18000    269.47688   -8761.7957     39.35971   -8801.1554    21028.365 
   18200    313.05331   -8766.1613    45.724471   -8811.8858   -5287.1895 
   18400     314.7819   -8747.8144    45.976947   -8793.7913    29018.562 
   18600    337.16437   -8756.9548    49.246125   -8806.2009    13518.918 
   18800    264.99492   -8760.4763    38.705076   -8799.1814    3702.0577 
   19000    359.28422   -8744.5902    52.476942   -8797.0672   -1311.3975 
   19200    252.35095   -8763.9222    36.858302   -8800.7805    20863.506 
   19400    324.26267   -8751.9156    47.361705   -8799.2773    2804.3948 
   19600    268.24232    -8762.592    39.179391   -8801.7714    24812.922 
   19800    289.97747   -8759.0247     42.35402   -8801.3787   -11295.179 
   20000    329.75445   -8753.4137    48.163833   -8801.5775   -30394.878 
   20200    290.79003   -8764.6863    42.472702    -8807.159   -26334.203 
   20400    245.78118   -8759.9514    35.898724   -8795.8501   -23046.741 
   20600    299.60853   -8754.9247    43.760729   -8798.6854   -60148.758 
   20800     247.0163   -8762.4157    36.079124   -8798.4948    21856.767 
   21000    404.36074   -8749.6796    59.060806   -8808.7404    7996.8876 
   21200    285.87432   -8762.1904    41.754716   -8803.9451     -40595.8 
   21400    333.57092   -8745.9621    48.721266   -8794.6833   -38070.819 
   21600    346.33794   -8754.4087    50.586014   -8804.9947    -29204.21 
   21800    336.38909    -8757.121    49.132886   -8806.2539   -20904.299 
   22000     280.1393   -8759.2977     40.91706   -8800.2147    1906.9494 
   22200    255.66747   -8762.3356    37.342713   -8799.6783   -7272.1701 
   22400    276.13248   -8756.2972    40.331826   -8796.6291     7821.322 
   22600    334.19187   -8754.8284    48.811961   -8803.6403    26802.501 
   22800     301.3311   -8758.5635    44.012328   -8802.5758   -23314.007 
   23000    273.60295   -8755.2761    39.962362   -8795.2385   -20512.443 
   23200    244.16656   -8758.0532    35.662893   -8793.7161   -2188.0355 
   23400    345.22817   -8741.9922     50.42392   -8792.4161   -36312.564 
   23600    263.32977   -8758.1672    38.461866    -8796.629   -8143.0272 
   23800    303.00259   -8761.8964    44.256465   -8806.1529    55093.013 
   24000    347.45411   -8755.8556    50.749041   -8806.6046   -20697.472 
   24200    293.33919    -8757.055    42.845033   -8799.9001    61791.683 
   24400    231.32443   -8767.7326    33.787175   -8801.5197    32729.616 
   24600     313.4847   -8752.4259     45.78748   -8798.2133   -16217.858 
   24800    355.99693   -8739.3951    51.996803   -8791.3919   -30669.868 
   25000     306.3741   -8753.4912    44.748907   -8798.2401   -3511.8075 
   25200    332.00983   -8759.2619    48.493253   -8807.7552     22914.02 
   25400    281.32586   -8757.1416    41.090368    -8798.232    25629.942 
   25600    317.51345   -8746.8137    46.375917   -8793.1896    25616.874 
   25800    285.75685   -8764.2838    41.737557   -8806.0213   -12939.628 
   26000    281.55605   -8754.8068     41.12399   -8795.9308   -27042.931 
   26200    266.98058   -8761.9741    38.995102   -8800.9692    56976.973 
   26400    247.80697    -8764.903     36.19461   -8801.0976    29377.995 
   26600    320.83924   -8757.2046    46.861681   -8804.0663   -2750.6286 
   26800     310.0028   -8746.1613    45.278913   -8791.4402    4615.5367 
   27000     290.4431   -8748.4071    42.422029   -8790.8291    54660.537 
   27200    251.44641   -8760.9067    36.726185   -8797.6329    -12298.92 
   27400    287.07824   -8755.5259    41.930559   -8797.4565   -44088.844 
   27600    319.78494   -8749.0374     46.70769   -8795.7451   -13626.655 
   27800    259.50584   -8759.6445    37.903344   -8797.5479     35663.55 
   28000    348.95339   -8746.5964    50.968025   -8797.5644   -55371.048 
   28200    332.42604   -8740.3996    48.554045   -8788.9537   -46346.769 
   28400    308.71122   -8758.4766    45.090265   -8803.5669     27525.23 
   28600    249.74068   -8766.8171    36.477047   -8803.2942   -2916.0156 
   28800    290.81814   -8748.0054    42.476808   -8790.4822   -1168.9161 
   29000    265.10156   -8755.8421    38.720653   -8794.5628   -874.50307 
   29200    235.93023    -8772.665    34.459897   -8807.1249    14201.141 
   29400    245.43439   -8761.5125    35.848072   -8797.3606    -40758.91 
   29600    316.31707   -8753.9486    46.201175   -8800.1497   -8244.8786 
   29800    235.84687   -8767.2253    34.447721    -8801.673    48414.104 
   30000    325.02534   -8746.6349    47.473101    -8794.108   -10779.927 
   30200    238.11937   -8755.0493    34.779643   -8789.8289   -29545.214 
   30400    283.61421   -8756.3465    41.424605   -8797.7711   -12461.943 
   30600     261.2989   -8765.4369    38.165237   -8803.6022   -27159.823 
   30800    340.34346   -8753.9544    49.710461   -8803.6648   -28433.976 
   31000    277.06576     -8755.53    40.468139   -8795.9981    25389.219 
   31200    287.76767   -8752.4309    42.031257   -8794.4621    6389.4693 
   31400    285.23251    -8761.146    41.660973    -8802.807   -4781.6164 
   31600    370.35551   -8746.2549    54.094013   -8800.3489    17386.161 
   31800    284.93195    -8759.877    41.617074    -8801.494    14289.993 
   32000    365.30989   -8756.2541     53.35705   -8809.6111   -19212.528 
   32200    301.36206   -8751.9368     44.01685   -8795.9536    3231.9283 
   32400    310.38075   -8753.2465    45.334117   -8798.5807   -19946.781 
   32600    275.20442   -8761.0286    40.196273   -8801.2249    14452.297 
   32800    266.44999   -8760.7178    38.917604   -8799.6354    5160.9826 
   33000    284.24482   -8755.1295    41.516711   -8796.6462    3320.6721 
   33200    226.89172   -8764.4575    33.139735   -8797.5972    30283.736 
   33400     283.5176   -8755.4405    41.410493    -8796.851   -10241.909 
   33600    265.16212   -8754.1826    38.729497   -8792.9121    5978.8761 
   33800    291.99445   -8752.6079    42.648619   -8795.2565     21469.42 
   34000    246.67884   -8768.4528    36.029836   -8804.4826    581.26341 
   34200    333.36558   -8751.5117    48.691275   -8800.2029    9068.7613 
   34400    266.70603   -8756.4217       38.955   -8795.3767    17471.066 
   34600    381.02318    -8745.139    55.652128   -8800.7911   -20056.991 
   34800    298.82199   -8760.7355    43.645849   -8804.3813   -30103.908 
   35000    309.70708   -8753.1271    45.235721   -8798.3628   -23884.919 
   35200    322.55496   -8752.9281    47.112279   -8800.0404   -14867.786 
   35400    231.75099   -8771.6475    33.849478    -8805.497    17828.609 
   35600    269.70685    -8757.632    39.393299   -8797.0253    40929.018 
   35800    316.19651   -8753.1557    46.183565   -8799.3393    41092.396 
   36000    241.40663   -8765.8447    35.259778   -8801.1044    -5355.728 
   36200    340.35163   -8757.0294    49.711654    -8806.741   -1278.6028 
   36400    306.11514   -8760.5149    44.711083    -8805.226    -13447.55 
   36600    343.03015   -8743.3577    50.102878   -8793.4606   -18529.332 
   36800    268.30779   -8758.9147    39.188954   -8798.1036   -19352.138 
   37000    301.55589   -8753.1895     44.04516   -8797.2347   -27180.663 
   37200    365.58481   -8736.6652    53.397205   -8790.0624   -32398.712 
   37400    347.24673   -8746.5465    50.718751   -8797.2652   -8000.0893 
   37600    292.94298   -8756.1239    42.787162   -8798.9111     14834.11 
   37800    326.92047    -8752.959    47.749903   -8800.7089    -25278.07 
   38000    276.76427   -8760.0693    40.424104   -8800.4934   -45307.352 
   38200    385.61423   -8744.8935    56.322696   -8801.2162   -9624.0908 
   38400    262.73458   -8756.2254    38.374933   -8794.6003   -31964.427 
   38600    312.30662   -8754.3424    45.615408   -8799.9578   -2775.6557 
   38800    242.43044   -8758.8003    35.409315   -8794.2097    34515.048 
   39000    275.63923   -8760.6278    40.259782   -8800.8876   -11210.883 
   39200    331.68684   -8747.0442    48.446077   -8795.4903    5854.7706 
   39400    279.62432   -8765.1589    40.841842   -8806.0007    18209.809 
   39600       262.97   -8757.0689    38.409317   -8795.4782   -41457.149 
   39800    279.19154    -8755.373    40.778631   -8796.1516   -15103.503 
   40000    268.65431   -8758.7434    39.239567    -8797.983   -16164.749 
   40200    345.36504   -8749.4939    50.443911   -8799.9378     9255.468 
   40400    247.33646   -8762.0383    36.125887   -8798.1642   -14465.577 
   40600    308.59051   -8744.9702    45.072635   -8790.0428    29482.122 
   40800    240.10825    -8760.649    35.070137   -8795.7192    72544.585 
   41000    286.45349   -8758.5304    41.839308   -8800.3697   -25351.306 
   41200    343.93292   -8745.9666    50.234737   -8796.2013   -5645.8321 
   41400    248.11304   -8762.5532    36.239314   -8798.7926   -13130.681 
   41600    345.03615   -8755.5569    50.395874   -8805.9528   -11722.166 
   41800    259.23686   -8760.6165    37.864056   -8798.4805    7555.7072 
   42000    276.13462   -8765.4431    40.332138   -8805.7753     32693.37 
   42200    259.45593   -8762.8604    37.896054   -8800.7565    2288.8012 
   42400    278.56474   -8747.3487     40.68708   -8788.0357    16033.622 
   42600    279.50026    -8754.819    40.823722   -8795.6428    3299.5549 
   42800    280.10646   -8761.5012    40.912264   -8802.4135   -16367.407 
   43000    292.79073   -8742.9383    42.764924   -8785.7033   -18383.815 
   43200    295.99485   -8752.5208    43.232917   -8795.7537    22646.152 
   43400    240.20666   -8758.9869    35.084511   -8794.0714    63743.242 
   43600    362.20355   -8745.6067    52.903339   -8798.5101    24449.059 
   43800    286.56875   -8757.0581    41.856144   -8798.9142   -3993.7553 
   44000    341.33386   -8758.0861    49.855119   -8807.9412    -27186.48 
   44200    268.63896   -8769.7904    39.237324   -8809.0277    31914.346 
   44400     327.7845   -8751.1992    47.876103   -8799.0753    23132.515 
   44600    303.92774    -8760.678    44.391592   -8805.0696    25253.874 
   44800     276.6337   -8769.6501    40.405033   -8810.0551    11923.129 
   45000    246.00095   -8770.4415    35.930823   -8806.3723   -19079.985 
   45200    343.81175   -8757.7828    50.217039   -8807.9998   -2876.1833 
   45400    258.47269   -8766.8683    37.752441   -8804.6208    16277.126 
   45600    240.32347     -8777.84    35.101572   -8812.9415    24867.311 
   45800    232.39428   -8760.4494    33.943437   -8794.3929   -16250.024 
   46000    279.57531   -8762.1774    40.834684   -8803.0121    6765.1545 
   46200    244.31483   -8777.6355    35.684549   -8813.3201   -10557.324 
   46400    297.89128   -8763.0116    43.509909   -8806.5215   -28933.678 
   46600    430.66456   -8760.2968    62.902733   -8823.1995    4670.4582 
   46800    293.41188   -8790.5727    42.855649   -8833.4284   -35486.514 
   47000    237.81841   -8801.5333    34.735684    -8836.269    10833.166 
   47200     319.6935    -8785.587    46.694334   -8832.2813    33201.825 
   47400    324.68688   -8782.7355    47.423666   -8830.1591    3882.0744 
   47600    261.10091   -8805.0331    38.136319   -8843.1694    8512.6129 
   47800    251.42324   -8790.6718    36.722801   -8827.3946   -122.21522 
   48000    365.42503   -8785.3376    53.373868   -8838.7115    23873.813 
   48200    234.85414   -8802.8604    34.302723   -8837.1631    8273.5223 
   48400    333.07276   -8788.5283    48.648505   -8837.1768    33444.466 
   48600    277.14661   -8790.7477    40.479949   -8831.2277   -8528.7773 
   48800    382.44093   -8776.0826    55.859205   -8831.9418   -29433.034 
   49000    315.49082   -8789.3521    46.080492   -8835.4326    21822.543 
   49200    296.09209   -8794.3216    43.247119   -8837.5687   -4480.8848 
   49400    281.91786   -8775.2318    41.176836   -8816.4086   -33494.907 
   49600    304.65295    -8781.662    44.497517   -8826.1595    7443.9688 
   49800     304.4755   -8794.6363    44.471598   -8839.1079    20069.964 
   50000    322.63383    -8788.511    47.123798   -8835.6348   -35650.228 
   50200    323.81584   -8772.4988    47.296443   -8819.7953    24796.633 
   50400    318.06386   -8787.3043     46.45631   -8833.7606   -20749.404 
   50600    289.99847   -8795.6837    42.357088   -8838.0408    2061.2494 
   50800    343.88378    -8786.063    50.227559   -8836.2905    57031.752 
   51000    295.43952   -8783.9313    43.151805   -8827.0831   -11065.025 
   51200    306.16695   -8800.3066    44.718651   -8845.0252   -7526.0554 
   51400    259.24175   -8797.8697    37.864771   -8835.7345   -7480.2362 
   51600    336.21405   -8783.5017     49.10732    -8832.609    5169.2219 
   51800    300.68255    -8797.284    43.917601   -8841.2016    17988.587 
   52000    253.99185   -8794.2617    37.097971   -8831.3597   -27588.652 
   52200    294.32229   -8790.9988    42.988623   -8833.9874   -9928.4894 
   52400    302.23471   -8786.9806    44.144308   -8831.1249    -27504.66 
   52600    314.57155    -8785.987    45.946224   -8831.9333   -30154.632 
   52800    319.24307   -8798.6991    46.628545   -8845.3277    21516.656 
   53000    312.44253    -8793.896     45.63526   -8839.5313    17381.895 
   53200    345.93443   -8781.2443    50.527077   -8831.7714    11292.449 
   53400    282.06677   -8796.7745    41.198586    -8837.973    45836.299 
   53600    258.41506   -8797.7844    37.744024   -8835.5284   -18335.604 
   53800    288.49676   -8790.4462    42.137748   -8832.5839    16956.021 
   54000    353.60975    -8777.865    51.648131   -8829.5131   -34188.157 
   54200    287.31473   -8797.7727    41.965101   -8839.7378    13099.246 
   54400    275.02809   -8792.2206    40.170518   -8832.3911    33132.581 
   54600    308.90521   -8782.6621    45.118601   -8827.7807    32806.321 
   54800    321.04736   -8793.0903    46.892079   -8839.9824   -15754.318 
   55000    308.81536   -8793.9901    45.105476   -8839.0955    3143.4835 
   55200    361.28563   -8776.9112    52.769269   -8829.6805   -39151.759 
   55400    279.52249   -8788.6522     40.82697   -8829.4791    44510.283 
   55600    245.41208   -8802.4661    35.844813    -8838.311    47130.019 
   55800    278.74815   -8797.4362    40.713869     -8838.15   -39576.128 
   56000     300.8355   -8786.1936     43.93994   -8830.1336     20339.98 
   56200    234.91436   -8798.4979    34.311519   -8832.8094    11360.334 
   56400    339.33692   -8786.5998    49.563446   -8836.1633   -15520.016 
   56600     257.0275   -8787.5786    37.541357   -8825.1199    24204.993 
   56800    230.26129   -8803.2779    33.631893   -8836.9098    36633.301 
   57000    266.93131   -8803.1103    38.987906   -8842.0982    21394.023 
   57200    279.67714   -8789.0692    40.849557   -8829.9187    12635.916 
   57400    318.90273   -8778.0224    46.578834   -8824.6013    6265.2823 
   57600    276.76224   -8797.6997    40.423808   -8838.1235   -76.449087 
   57800    313.80069   -8789.9293    45.833632   -8835.7629   -12766.768 
   58000    333.97429   -8783.6464    48.780182   -8832.4266   -2831.7387 
   58200    272.93328   -8789.1861    39.864552   -8829.0506    12418.609 
   58400    281.85216    -8791.052    41.167239   -8832.2192    54739.829 
   58600    226.63559   -8798.1849    33.102325   -8831.2872   -2929.3535 
   58800    312.32998   -8789.7891    45.618821   -8835.4079   -7665.4142 
   59000    307.58801   -8783.1423     44.92621   -8828.0685   -25848.354 
   59200     268.3793   -8799.7607    39.199398   -8838.9601    24379.687 
   59400    314.75336   -8790.7708    45.972779   -8836.7436   -27355.004 
   59600    305.22294   -8780.3432    44.580769    -8824.924   -1787.4737 
   59800    317.72101   -8791.0568    46.406233   -8837.4631    16253.687 
   60000    244.27846    -8802.083    35.679237   -8837.7623   -14026.251 
   60200    252.18888    -8803.435    36.834631   -8840.2697   -30422.389 
   60400    299.21156   -8788.6613    43.702748    -8832.364   -4123.3021 
   60600       334.14   -8786.6024    48.804386   -8835.4067    3746.6328 
   60800    320.40102   -8775.4728    46.797674   -8822.2705   -14600.821 
   61000    292.73948   -8795.6371    42.757439   -8838.3945   -5443.2157 
   61200    298.95092   -8784.7728    43.664679   -8828.4375   -2782.8418 
   61400    346.03938    -8784.998    50.542406   -8835.5404   -12044.724 
   61600    274.14785   -8791.2514     40.04195   -8831.2933     26861.57 
   61800    353.21343    -8781.745    51.590245   -8833.3353   -1756.7026 
   62000     279.0462   -8796.9807    40.757402   -8837.7381   -20541.689 
   62200    289.75425    -8789.219    42.321417   -8831.5405   -5294.0788 
   62400    302.90644   -8784.9675    44.242421   -8829.2099    28045.954 
   62600    319.07796   -8793.8371    46.604428   -8840.4415   -5395.8131 
   62800    204.98633   -8806.9637    29.940241    -8836.904   -21512.855 
   63000    293.59576   -8788.9524    42.882507   -8831.8349     62840.88 
   63200    314.43042   -8781.3842     45.92561   -8827.3098    13154.317 
   63400    289.87997   -8789.4086     42.33978   -8831.7483   -11148.901 
   63600    300.29415   -8794.3137    43.860872   -8838.1746    21544.463 
   63800    374.86733   -8781.4071    54.753007   -8836.1601   -4593.1951 
   64000    278.36146   -8800.0258    40.657389   -8840.6832    953.57376 
   64200    290.07588   -8795.1786    42.368394    -8837.547   -25314.766 
   64400     303.1902   -8783.5804    44.283868   -8827.8642    34028.127 
   64600    363.55278   -8786.7559    53.100407   -8839.8563   -26212.518 
   64800    290.71656   -8793.7028    42.461971   -8836.1647     42297.65 
   65000    323.74011   -8777.0986    47.285381   -8824.3839   -6318.6663 
   65200     312.2068   -8789.2104    45.600829   -8834.8112    6031.9887 
   65400    275.14848   -8796.3982    40.188103   -8836.5863      5688.96 
   65600    305.50535   -8782.6329    44.622018   -8827.2549    5299.5468 
   65800    335.87352   -8782.2193    49.057583   -8831.2769   -14290.688 
   66000    294.95243    -8792.891    43.080662   -8835.9716   -5700.8777 
   66200     321.0942   -8788.5443     46.89892   -8835.4432   -496.93038 
   66400    320.44742   -8779.5782    46.804452   -8826.3826    19252.728 
   66600    284.38007   -8796.8799    41.536466   -8838.4163    14820.779 
   66800    260.95845   -8793.5973    38.115511   -8831.7129   -3591.7861 
   67000    329.41771   -8786.3537     48.11465   -8834.4684   -28477.133 
   67200    289.71264   -8792.2028    42.315339   -8834.5181   -35725.054 
   67400    228.32157   -8804.4206    33.348578   -8837.7692   -7216.9761 
   67600    249.18894   -8790.2021     36.39646   -8826.5985    50489.182 
   67800    274.62829   -8786.7327    40.112123   -8826.8448     13154.79 
   68000    287.36605   -8794.8463    41.972597   -8836.8189     34668.56 
   68200    235.76122    -8798.791    34.435211   -8833.2262   -10241.328 
   68400    307.35006   -8786.9212    44.891455   -8831.8126    67487.395 
   68600    242.26075   -8790.7462    35.384531   -8826.1307   -20602.115 
   68800    271.96968   -8800.7473    39.723808   -8840.4711    12893.862 
   69000    273.36924   -8785.5748    39.928227   -8825.5031   -48611.846 
   69200    288.82262   -8785.4213    42.185343   -8827.6067   -39077.997 
   69400    283.73582   -8794.8325    41.442366   -8836.2749    2754.4872 
   69600    297.91541   -8791.9625    43.513433   -8835.4759   -14973.408 
   69800    263.19702   -8788.2968    38.442476   -8826.7393   -22965.231 
   70000    341.08206    -8779.256    49.818341   -8829.0743    1469.6052 
   70200    281.93802   -8797.6644    41.179781   -8838.8442    17121.991 
   70400    301.52418   -8793.0412     44.04053   -8837.0818    3623.7889 
   70600    270.10613   -8785.5526    39.451619   -8825.0042    40410.833 
   70800    276.44201   -8790.7377    40.377034   -8831.1148   -28837.765 
   71000     230.5955   -8798.7093    33.680708     -8832.39   -9271.4606 
   71200     325.3738   -8780.0095    47.523998   -8827.5335    864.65668 
   71400    289.00794   -8792.6827    42.212411   -8834.8951    3606.3797 
   71600    279.56456   -8801.7256    40.833114   -8842.5587   -38837.771 
   71800    300.27053   -8790.1885    43.857421   -8834.0459    35264.409 
   72000    345.21596    -8783.844    50.422137   -8834.2662    9514.9763 
   72200     300.2758   -8795.5551    43.858192   -8839.4133    7406.4799 
   72400    305.10003   -8799.1119    44.562817   -8843.6747   -18833.238 
   72600    368.53566   -8782.2702    53.828205   -8836.0984    12645.872 
   72800    299.21252   -8789.1914    43.702889   -8832.8943     10156.24 
   73000    265.50609    -8793.398    38.779738   -8832.1777    28764.586 
   73200     299.8975   -8785.6572    43.802936   -8829.4602   -47846.856 
   73400    338.95269   -8776.2777    49.507326    -8825.785    4924.8957 
   73600    352.43013   -8789.7327    51.475836   -8841.2086    608.19933 
   73800    317.72591   -8793.8953    46.406948   -8840.3022   -45319.582 
   74000    380.36142   -8774.0895    55.555471   -8829.6449    23504.716 
   74200    280.28466   -8794.8077    40.938291   -8835.7459    -21180.52 
   74400    306.38201   -8791.8783    44.750062   -8836.6284   -8772.9362 
   74600    287.60121   -8779.5804    42.006944   -8821.5874    11580.258 
   74800    328.52048   -8784.1456      47.9836   -8832.1292    11263.524 
   75000    270.34685   -8795.7367    39.486778   -8835.2235   -2446.4746 
   75200    301.37427   -8779.4651    44.018633   -8823.4837    4263.0237 
   75400    280.01873   -8792.5342    40.899449   -8833.4336    31684.693 
   75600    263.16945   -8794.3899     38.43845   -8832.8284    7840.9673 
   75800    283.50017   -8782.2893    41.407948   -8823.6972   -31276.612 
   76000    248.25472    -8800.618    36.260009    -8836.878   -36612.674 
   76200    309.18655   -8792.4431    45.159693   -8837.6028   -56259.862 
   76400    319.81699   -8787.3151    46.712371   -8834.0274   -11428.549 
   76600    414.34743   -8770.3527    60.519458   -8830.8722    25523.831 
   76800    266.73706    -8784.024    38.959533   -8822.9836    49481.257 
   77000     256.1145   -8793.5064    37.408005   -8830.9144   -13181.365 
   77200    306.16826    -8785.492    44.718841   -8830.2109    140.31361 
   77400    309.49122   -8786.6442    45.204192   -8831.8484    25664.608 
   77600    320.76319   -8792.5989    46.850572   -8839.4495    31251.164 
   77800    414.54829    -8770.419    60.548796   -8830.9678    23068.261 
   78000    305.49141   -8783.3166    44.619981   -8827.9366   -8891.0253 
   78200    285.88889   -8795.3085    41.756843   -8837.0653   -8747.5764 
   78400    287.24865   -8804.1532    41.955449   -8846.1087    17167.615 
   78600    296.41713    -8784.777    43.294595   -8828.0716   -30937.078 
   78800    325.86445   -8782.3371    47.595661   -8829.9328   -30519.241 
   79000    240.16705   -8800.2573    35.078725   -8835.3361    10524.637 
   79200    356.93676   -8787.6853    52.134073   -8839.8194   -7633.3868 
   79400    246.82596   -8788.6061    36.051323   -8824.6574   -27855.455 
   79600    378.91807   -8785.8418    55.344656   -8841.1865    352.69054 
   79800     283.3078    -8782.773    41.379849   -8824.1529   -10734.182 
   80000     266.1371   -8793.4494    38.871903   -8832.3213    13067.539 
   80200    337.55175    -8775.295    49.302704   -8824.5977    48681.122 
   80400    284.67708   -8787.9873    41.579846   -8829.5671    29387.306 
   80600    317.33542    -8792.916    46.349914   -8839.2659    23861.328 
   80800    379.40301   -8779.9677    55.415488   -8835.3831   -4936.3575 
   81000    323.77729   -8796.0273    47.290811   -8843.3181    14816.136 
   81200    292.36151   -8793.0155    42.702232   -8835.7178   -18468.931 
   81400    296.01904    -8780.721     43.23645   -8823.9575    13883.402 
   81600    364.03894   -8765.0802    53.171415   -8818.2516    -486.2735 
   81800    315.82636   -8789.9959    46.129501   -8836.1254   -26253.639 
   82000    248.13283   -8790.8513    36.242204   -8827.0935   -42736.877 
   82200     402.9933   -8779.4407    58.861077   -8838.3018    25028.037 
   82400    298.55347   -8792.6598    43.606627   -8836.2664    -8592.843 
   82600     296.4864   -8783.7847    43.304712   -8827.0895    27909.377 
   82800    290.27194   -8798.2283    42.397031   -8840.6254   -7627.0987 
   83000    277.71914   -8794.1493    40.563572   -8834.7128    -18480.85 
   83200    281.38775   -8784.7809    41.099409   -8825.8803   -34163.897 
   83400    343.97101   -8786.3517    50.240299    -8836.592    13186.299 
   83600    312.09525   -8789.9145    45.584536    -8835.499    5485.2242 
   83800    357.89724   -8769.1344     52.27436   -8821.4087    42761.503 
   84000    306.52993    -8780.859    44.771668   -8825.6306    33782.229 
   84200    277.56021   -8793.0352    40.540359   -8833.5756   -3394.2777 
   84400    296.50932   -8795.2353    43.308061   -8838.5433   -50752.529 
   84600    324.31183   -8784.6362    47.368887   -8832.0051    21754.363 
   84800    270.27468    -8795.002    39.476237   -8834.4782    10982.074 
   85000    321.79983   -8780.9728    47.001984   -8827.9748   -35099.297 
   85200    278.18212   -8785.1874    40.631195   -8825.8186    17804.842 
   85400    288.17082   -8798.9074    42.090141   -8840.9975   -29767.062 
   85600    276.61019   -8790.5511      40.4016   -8830.9527    56673.893 
   85800    319.24116   -8782.5158    46.628265   -8829.1441   -7671.4045 
   86000    246.13092   -8796.1312    35.949807    -8832.081   -72649.756 
   86200    244.04011   -8806.5912    35.644423   -8842.2356   -1242.1349 
   86400    264.45342   -8789.6032    38.625985   -8828.2292    39668.707 
   86600    282.14304   -8784.5838    41.209726   -8825.7936   -36454.248 
   86800    234.26531   -8798.5966    34.216719   -8832.8133    9322.5358 
   87000    297.33949    -8791.641    43.429314   -8835.0703    -19287.14 
   87200    290.78959   -8792.3987    42.472638   -8834.8713   -27143.596 
   87400    318.71135   -8776.4217    46.550882   -8822.9726   -47629.521 
   87600     247.0708   -8792.9668    36.087084   -8829.0539    -4216.781 
   87800    271.66078   -8791.1608     39.67869   -8830.8395    11106.477 
   88000    353.76577   -8779.2986    51.670919   -8830.9695    1533.5284 
   88200    250.96102   -8799.0361    36.655289   -8835.6914   -9429.6997 
   88400    276.23117   -8790.4187     40.34624   -8830.7649   -41751.922 
   88600    336.95896   -8783.9004    49.216122   -8833.1166   -10348.908 
   88800    252.64001   -8797.8029    36.900523   -8834.7034    22094.193 
   89000     313.1066   -8788.1905    45.732254   -8833.9227   -11541.133 
   89200    283.01051   -8787.2192    41.336428   -8828.5556    12732.058 
   89400    272.16153   -8806.1311    39.751829   -8845.8829    18784.551 
   89600    281.24489   -8797.3753    41.078543   -8838.4539   -1062.7363 
   89800    359.15232    -8787.284    52.457677   -8839.7417    8532.6528 
   90000    290.11635   -8792.4503    42.374305   -8834.8246   -3702.0273 
   90200    262.40744   -8799.1255     38.32715   -8837.4526   -146.70054 
   90400    246.26547   -8785.3331    35.969459   -8821.3026    47.149343 
   90600    290.58098   -8793.1626    42.442169   -8835.6047   -43788.779 
   90800    271.96097   -8798.8563    39.722536   -8838.5788   -9917.8114 
   91000    355.69162    -8786.919    51.952208   -8838.8712   -34902.491 
   91200    271.15384   -8791.9671    39.604647   -8831.5717    4925.3722 
   91400    380.36863   -8775.5238    55.556525   -8831.0803   -53169.678 
   91600    286.08428    -8790.963    41.785382   -8832.7484    -30671.35 
   91800    316.22979    -8788.166    46.188427   -8834.3544    28740.631 
   92000    290.12438   -8788.3696    42.375477   -8830.7451   -2483.4051 
   92200    278.11291   -8796.0307    40.621086   -8836.6518    1046.3761 
   92400    342.78756     -8781.36    50.067446   -8831.4275    14096.432 
   92600    296.41905   -8791.9095    43.294875   -8835.2044   -34186.149 
   92800    342.24061    -8789.279    49.987559   -8839.2666    6081.1789 
   93000    298.65535   -8796.9743    43.621508   -8840.5958    19966.049 
   93200    244.32819    -8798.424      35.6865   -8834.1105    26152.447 
   93400    319.11398   -8788.2788     46.60969   -8834.8885   -31076.829 
   93600    299.94032   -8787.8693     43.80919   -8831.6785   -21126.484 
   93800    345.46833   -8780.4533    50.458998   -8830.9123    34848.364 
   94000    328.32482   -8786.6781    47.955022   -8834.6331    3770.1142 
   94200    278.73525   -8796.1861    40.711985   -8836.8981    25108.822 
   94400    324.70482   -8783.1575    47.426286   -8830.5838      12365.7 
   94600    260.05575   -8790.7126    37.983663   -8828.6963    -11985.21 
   94800     315.3729   -8789.0778    46.063269   -8835.1411   -29915.986 
   95000    273.74721    -8798.275    39.983433   -8838.2584     10044.62 
   95200    311.40635   -8792.8133    45.483915   -8838.2972   -4102.3088 
   95400    323.72272   -8779.2226    47.282841   -8826.5054   -32239.373 
   95600    335.12087   -8788.8995    48.947651   -8837.8472    16814.238 
   95800    267.85548   -8794.1778    39.122889   -8833.3007    12070.926 
   96000     300.3367   -8782.9727    43.867086   -8826.8398     24378.67 
   96200    274.97066   -8798.3406     40.16213   -8838.5027    2651.0665 
   96400     333.2845   -8794.2832    48.679431   -8842.9626    5183.6498 
   96600    316.76042   -8772.9661     46.26593    -8819.232    33973.714 
   96800    302.05631   -8788.6994    44.118252   -8832.8177   -3108.1141 
   97000    309.15959    -8793.342    45.155754   -8838.4977   -23584.815 
   97200    358.79589   -8777.9722    52.405617   -8830.3778   -3962.4696 
   97400    323.45168   -8777.5621    47.243253   -8824.8054   -7566.7954 
   97600      298.018    -8795.254    43.528418   -8838.7824    34354.299 
   97800    324.06249   -8790.7437    47.332467   -8838.0762    15964.674 
   98000    361.33305   -8780.3754    52.776195   -8833.1516    28096.272 
   98200    303.26387   -8787.6943    44.294627    -8831.989    9479.7078 
   98400     294.4395   -8796.5057    43.005744   -8839.5114   -27398.251 
   98600    246.85999   -8804.8477    36.056294    -8840.904    14439.996 
   98800    286.54393   -8791.7531    41.852518   -8833.6056   -354.44792 
   99000    352.37808   -8780.1755    51.468234   -8831.6437    19517.305 
   99200    275.00944    -8798.051    40.167794   -8838.2188   -8644.7712 
   99400    295.74668    -8791.812    43.196669   -8835.0087     14944.04 
   99600    341.05309   -8775.6257     49.81411   -8825.4398    3619.8039 
   99800    373.86402   -8780.2329    54.606463   -8834.8394     11176.71 
  100000    257.39418   -8795.2817    37.594915   -8832.8767   -7038.2571 
  100200    268.31314   -8791.6663    39.189735    -8830.856    747.77302 
  100400    276.27013   -8784.4903     40.35193   -8824.8422   -32191.708 
  100600    242.03857   -8798.5697    35.352079   -8833.9218    -3182.069 
  100800    324.55955   -8787.3789    47.405068    -8834.784   -1193.7123 
  101000    288.31099   -8795.7787    42.110615   -8837.8893    9603.8608 
  101200    286.21265   -8796.7575    41.804132   -8838.5617    -25445.57 
  101400    307.16087   -8790.8669    44.863822   -8835.7307    31498.145 
  101600    304.97691   -8787.1289    44.544833   -8831.6738    3744.5501 
  101800     369.2825    -8769.145    53.937289   -8823.0823    400.18567 
  102000    233.11319   -8790.8796    34.048441    -8824.928     15047.43 
  102200    275.14941   -8790.3341    40.188238   -8830.5223   -26152.914 
  102400     230.9197   -8790.6907     33.72806   -8824.4188   -7564.6229 
  102600    254.74466   -8797.6485    37.207927   -8834.8564    40616.102 
  102800    292.63003   -8782.3714    42.741452   -8825.1129    9820.9452 
  103000    264.46247   -8793.7738    38.627307   -8832.4011   -17404.978 
  103200    218.53538   -8809.1723     31.91921   -8841.0915   -2349.9325 
  103400     251.5505   -8792.1608    36.741388   -8828.9022   -18715.528 
  103600    277.73214    -8787.328    40.565472   -8827.8935   -5314.0782 
  103800    339.16093   -8774.6916     49.53774   -8824.2293   -6675.9475 
  104000    252.96313   -8797.1393    36.947717    -8834.087   -23337.667 
  104200    292.13862   -8788.6157    42.669677   -8831.2854   -18003.613 
  104400    378.38889   -8776.9907    55.267364   -8832.2581    18531.413 
  104600    244.80416   -8799.0018    35.756021   -8834.7578   -2557.6802 
  104800    281.86293   -8785.5309    41.168813   -8826.6997   -29512.033 
  105000    292.74012   -8788.9505    42.757532    -8831.708   -8024.8074 
  105200    292.47238   -8796.0082    42.718426   -8838.7267   -17133.548 
  105400    336.36647   -8787.1008    49.129584   -8836.2304   -3118.9667 
  105600    218.71797   -8803.2863     31.94588   -8835.2321    11052.095 
  105800    287.13117   -8785.4452     41.93829   -8827.3835   -2811.6579 
  106000    274.11955   -8785.0412    40.037817    -8825.079    17388.463 
  106200    249.79982   -8797.6917    36.485686   -8834.1774    5195.7918 
  106400    369.76429   -8779.9365    54.007659   -8833.9441    6693.3044 
  106600    304.89538   -8792.7313    44.532926   -8837.2642    14966.427 
  106800      314.046   -8789.3494    45.869463   -8835.2188   -37906.059 
  107000    303.94396   -8788.7618    44.393962   -8833.1558    -29281.54 
  107200    278.84986   -8799.0488    40.728724   -8839.7775   -2254.2051 
  107400     278.4458   -8785.1197    40.669708   -8825.7894   -65837.937 
  107600    249.49312   -8794.6846    36.440888   -8831.1255   -33320.437 
  107800    265.13117   -8799.9612    38.724977   -8838.6862    39898.775 
  108000    322.10202    -8785.268    47.046123   -8832.3141    34790.317 
  108200     352.6296     -8782.53    51.504971   -8834.0349     15880.73 
  108400    298.97942   -8792.8918    43.668842   -8836.5606    12682.922 
  108600    286.59813   -8797.1186    41.860435    -8838.979    33311.123 
  108800    307.11137   -8786.9761    44.856592   -8831.8326      4554.12 
  109000    307.25712   -8785.6559    44.877881   -8830.5338   -56521.559 
  109200    240.62607   -8801.1493    35.145769    -8836.295    -9657.229 
  109400    315.46062   -8786.9604    46.076081   -8833.0365    22179.254 
  109600    285.30673   -8791.9458    41.671813   -8833.6176   -20983.848 
  109800    323.10801   -8780.6685    47.193056   -8827.8615    10661.296 
  110000    260.38758   -8789.5466     38.03213   -8827.5787   -21409.037 
  110200     273.7541   -8789.2097     39.98444   -8829.1942   -7950.1754 
  110400    362.00074   -8778.5463    52.873717   -8831.4201   -13412.512 
  110600    281.66725   -8791.4809    41.140232   -8832.6212   -8124.6842 
  110800    305.18216   -8790.4305    44.574812   -8835.0053   -27169.167 
  111000    363.38175   -8774.4412    53.075427   -8827.5166   -43202.027 
  111200    258.03399   -8793.1398    37.688365   -8830.8282    19321.984 
  111400    285.59607    -8791.876    41.714074   -8833.5901     19580.88 
  111600    308.54355   -8783.0705    45.065777   -8828.1362   -6292.2397 
  111800    332.38341   -8778.9831    48.547819    -8827.531    20652.629 
  112000    256.26235   -8797.9192      37.4296   -8835.3488    6138.1538 
  112200    351.90602   -8785.5042    51.399285   -8836.9035   -25151.456 
  112400     345.5699   -8787.6252    50.473833   -8838.0991   -9565.0709 
  112600    296.48989   -8791.1044    43.305223   -8834.4096    20170.329 
  112800    345.28539   -8776.6565    50.432277   -8827.0888    26213.367 
  113000    243.39933   -8792.8372    35.550832   -8828.3881   -3661.0059 
  113200    292.12814   -8792.2443    42.668146   -8834.9124    23404.968 
  113400     323.3494   -8774.1253    47.228314   -8821.3536   -59112.285 
  113600    301.78584   -8793.0176    44.078748   -8837.0964   -12961.578 
  113800     312.0143   -8791.4394    45.572712   -8837.0121   -21881.615 
  114000     318.4153   -8782.5186     46.50764   -8829.0262   -11528.406 
  114200    357.92131   -8786.0434    52.277876   -8838.3213    15747.865 
  114400    248.38149   -8798.3184    36.278524    -8834.597     -4711.92 
  114600    296.48429   -8784.5664    43.304404   -8827.8709    23649.266 
  114800    281.83653   -8789.2579    41.164956   -8830.4228   -64619.565 
  115000    266.81013   -8798.1104    38.970206   -8837.0806   -29645.203 
  115200    251.65172   -8794.0795    36.756173   -8830.8356    52739.306 
  115400    325.93942   -8785.8151    47.606612   -8833.4217   -61190.193 
  115600    329.36599   -8796.9302    48.107095   -8845.0373   -34411.934 
  115800    367.76391   -8781.6425    53.715484   -8835.3579     21470.81 
  116000    269.08313   -8792.7324    39.302199   -8832.0346   -31778.274 
  116200    305.74803   -8784.2217    44.657463   -8828.8791    69850.934 
  116400     335.5412   -8780.6809    49.009044   -8829.6899    10938.688 
  116600    258.81419   -8792.3317    37.802321    -8830.134    13354.513 
  116800    336.64248   -8781.8684    49.169898   -8831.0383    55421.652 
  117000    312.73731   -8784.3409    45.678315   -8830.0192   -13116.183 
  117200    299.51833   -8790.7718    43.747555   -8834.5193     1230.037 
  117400    315.23737   -8784.1317    46.043473   -8830.1752    11580.563 
  117600    280.76461   -8780.2086    41.008392    -8821.217    19958.621 
  117800    320.49862   -8795.8895     46.81193   -8842.7015    3902.8854 
  118000    292.41934   -8795.5975    42.710679   -8838.3082    1699.4986 
  118200    342.40679   -8780.3613     50.01183   -8830.3731   -20014.667 
  118400    280.91716   -8792.4007    41.030674   -8833.4314   -15517.885 
  118600     266.1556   -8797.7462    38.874605   -8836.6208   -1918.0531 
  118800    238.01323   -8791.8216    34.764139   -8826.5857    47.529895 
  119000    325.38178   -8781.4311    47.525162   -8828.9563     8086.876 
  119200    274.24003   -8800.0628    40.055415   -8840.1182     1509.759 
  119400    283.96801   -8790.0443    41.476281   -8831.5205    1889.1829 
  119600    311.31069   -8790.7943    45.469944   -8836.2642   -47196.049 
  119800    332.41308   -8786.6134    48.552152   -8835.1656    25279.963 
  120000    273.56823   -8804.5824    39.957292   -8844.5397    32146.273 
  120200    290.23461   -8795.1273    42.391578   -8837.5189   -11212.329 
  120400    331.21449   -8783.0497    48.377087   -8831.4268   -8218.4544 
  120600     329.5811   -8787.5821    48.138514   -8835.7206   -42487.828 
  120800    305.64953   -8798.9895    44.643076   -8843.6326    21843.574 
  121000    296.73732   -8781.4413    43.341361   -8824.7827   -13901.478 
  121200    310.22974   -8783.9547    45.312061   -8829.2668   -32781.284 
  121400     298.0425   -8797.2812    43.531996   -8840.8132    3132.7095 
  121600    265.90795   -8794.6859    38.838433   -8833.5243    23766.391 
  121800    284.30978   -8783.2256    41.526199   -8824.7518    16026.895 
  122000    269.20266   -8794.8536    39.319657   -8834.1733   -49292.649 
  122200    250.66243   -8797.2094    36.611677    -8833.821    13169.813 
  122400    272.18518   -8787.0467    39.755284    -8826.802   -1916.1662 
  122600    290.93688   -8791.2347    42.494152   -8833.7289    3934.3806 
  122800    303.97179   -8800.1248    44.398026   -8844.5229    26022.421 
  123000    288.63728   -8785.3787    42.158272    -8827.537    2897.6042 
  123200    285.54979   -8783.3287    41.707314    -8825.036    31375.205 
  123400    313.45719    -8789.169    45.783461   -8834.9524    2094.8759 
  123600    272.01761   -8791.2853    39.730808   -8831.0161   -28927.461 
  123800    329.90414   -8773.0929    48.185697   -8821.2786   -9936.3132 
  124000    294.59448   -8790.5268    43.028379   -8833.5552    2573.5786 
  124200    304.97928   -8787.4231     44.54518   -8831.9683    15940.913 
  124400    334.58681   -8787.1923    48.869646   -8836.0619    10866.421 
  124600    296.93979    -8797.813    43.370934   -8841.1839   -10918.731 
  124800    333.52513   -8785.3918    48.714578   -8834.1064     34937.78 
  125000    305.45946   -8790.0171    44.615315   -8834.6324    49795.874 
  125200    283.87589   -8791.9758    41.462825   -8833.4387   -26635.127 
  125400    315.57699   -8779.2049    46.093079   -8825.2979    335.63434 
  125600    271.39757   -8787.6411    39.640246   -8827.2813    6350.8682 
  125800    273.80457   -8795.3851    39.991811   -8835.3769    925.45947 
  126000    314.45544   -8781.3932    45.929265   -8827.3224   -40218.725 
  126200    305.44527   -8777.7542    44.613243   -8822.3675    22085.949 
  126400    287.69524   -8793.2288    42.020679   -8835.2494   -19171.217 
  126600    260.72761   -8799.2439    38.081794   -8837.3257     17037.71 
  126800    295.20419    -8788.711    43.117433   -8831.8284   -23479.185 
  127000    315.22295   -8786.4657    46.041367   -8832.5071    26823.479 
  127200    296.87211   -8791.7901     43.36105   -8835.1511     16049.23 
  127400    347.18577    -8785.797    50.709847   -8836.5069   -38184.917 
  127600    389.53855   -8777.2319    56.895881   -8834.1278   -31559.337 
  127800     264.7522   -8795.2222    38.669625   -8833.8918   -7796.4908 
  128000    316.32089   -8784.1516    46.201733   -8830.3533    8409.3324 
  128200     262.8975   -8784.3795    38.398727   -8822.7782   -35118.691 
  128400    302.02371   -8792.5195    44.113491    -8836.633    33988.822 
  128600    343.19217   -8789.0313    50.126542   -8839.1578   -39535.025 
  128800    289.78861     -8781.53    42.326435   -8823.8564    14989.425 
  129000    299.66422   -8790.6686    43.768864   -8834.4375    41593.038 
  129200    316.31584   -8797.0538    46.200995   -8843.2548   -22158.887 
  129400     335.0133   -8777.9379     48.93194   -8826.8699   -18283.567 
  129600    355.82389   -8782.8244    51.971528   -8834.7959    -21073.91 
  129800    260.70628   -8793.9197    38.078679   -8831.9984    20033.448 
  130000    319.41075   -8782.2041    46.653037   -8828.8572   -9745.4801 
  130200    429.72353   -8761.7833    62.765286   -8824.5486   -9116.4627 
  130400    299.06294     -8785.63    43.681041   -8829.3111   -9673.0035 
  130600    277.36018   -8796.6708    40.511142   -8837.1819   -22400.517 
  130800    337.48256   -8786.5041    49.292599   -8835.7967   -19624.809 
  131000    348.87268   -8779.7587    50.956236   -8830.7149    -9068.107 
  131200    333.32889   -8797.2526    48.685915   -8845.9385    -10282.77 
  131400    305.26238    -8794.194     44.58653   -8838.7805   -13501.091 
  131600     273.1599   -8782.9089    39.897651   -8822.8065    17335.022 
  131800    317.80538   -8792.0034    46.418556    -8838.422   -15182.311 
  132000    297.30588   -8799.6119    43.424405   -8843.0363    6256.7476 
  132200     280.8738   -8780.7935    41.024341   -8821.8179    18582.485 
  132400    283.48094   -8795.1369    41.405139   -8836.5421   -41568.282 
  132600    289.66237   -8797.1676    42.307997   -8839.4756   -28244.034 
  132800    382.80713   -8781.9479    55.912692   -8837.8606   -24548.227 
  133000    303.40625   -8794.3526    44.315423    -8838.668    34061.653 
  133200    270.96321   -8800.6874    39.576803   -8840.2642   -10463.906 
  133400    321.84071    -8783.308    47.007955   -8830.3159    -13013.55 
  133600    297.25168    -8793.211    43.416489   -8836.6275    13686.109 
  133800    259.08624   -8800.3352    37.842057   -8838.1772    24947.648 
  134000    329.19195   -8784.8889    48.081675   -8832.9706    3613.2674 
  134200    255.96637   -8791.6177     37.38637   -8829.0041    21487.115 
  134400    350.96944   -8773.3438    51.262488   -8824.6063   -10993.051 
  134600    288.61753   -8787.6261    42.155388   -8829.7815     35258.84 
  134800    341.43799   -8790.3051    49.870327   -8840.1755   -888.64678 
  135000     318.1291    -8782.528    46.465839   -8828.9939    7793.9927 
  135200     298.3497    -8792.286    43.576865   -8835.8629    22865.804 
  135400    291.78256    -8801.124    42.617672   -8843.7417   -21194.763 
  135600     300.0374   -8779.2644     43.82337   -8823.0877    36077.755 
  135800    315.24569   -8780.9344    46.044688    -8826.979     2119.432 
  136000    223.44723   -8796.0104    32.636634    -8828.647   -24519.155 
  136200    300.41914   -8781.8149    43.879128    -8825.694   -39470.373 
  136400    327.89364   -8785.0875    47.892045   -8832.9795   -6340.5357 
  136600     308.1065   -8797.3042    45.001941   -8842.3062    -42567.33 
  136800    282.60421   -8794.6888    41.277084   -8835.9659    23953.069 
  137000     282.4914   -8788.7494    41.260607     -8830.01   -37027.907 
  137200    312.79371   -8787.5001    45.686553   -8833.1867   -20050.528 
  137400    316.58849   -8789.5544    46.240818   -8835.7952    4767.8623 
  137600     342.7654   -8779.2645    50.064209   -8829.3287    -8172.508 
  137800    240.68891   -8794.8677    35.154948   -8830.0226     53786.36 
  138000    323.19798   -8790.9216    47.206198   -8838.1278   -17986.678 
  138200    302.31931   -8792.3363    44.156666    -8836.493   -3138.5165 
  138400    320.11005   -8793.8855    46.755175   -8840.6407   -6990.9463 
  138600    334.02313   -8778.3812    48.787315   -8827.1686   -31113.835 
  138800    334.47974   -8794.6105    48.854008   -8843.4645    20137.966 
  139000    272.36255   -8792.2472    39.781191   -8832.0284    28609.902 
  139200    323.28042   -8791.7318    47.218238     -8838.95    3686.8533 
  139400    288.25545   -8789.1958    42.102502   -8831.2983    5825.9235 
  139600    355.78031    -8784.589    51.965163   -8836.5541   -34502.945 
  139800      259.088   -8799.8477    37.842314     -8837.69   -5627.4475 
  140000    277.30625   -8786.8122    40.503266   -8827.3155    34011.533 
  140200    319.82068    -8787.749     46.71291   -8834.4619   -29410.777 
  140400    273.09165   -8791.2061    39.887683   -8831.0938   -15586.657 
  140600    423.59286    -8768.616    61.869844   -8830.4858    4477.9929 
  140800    256.03398   -8785.0562    37.396244   -8822.4524    19672.678 
  141000    297.16054   -8792.6188    43.403177    -8836.022    54519.557 
  141200    230.65536   -8808.8876    33.689451    -8842.577   -37246.896 
  141400    307.33945   -8791.5048    44.889906   -8836.3947    -22181.11 
  141600    371.20345   -8781.2978    54.217862   -8835.5157    22907.979 
  141800     270.4057   -8796.5605    39.495374   -8836.0558    5899.2637 
  142000    272.89674   -8788.5944    39.859214   -8828.4537       -36388 
  142200    338.12589   -8786.7874    49.386563    -8836.174    31798.506 
  142400    297.03174   -8791.9962    43.384364   -8835.3806    9403.2008 
  142600    296.14647   -8791.5978    43.255062   -8834.8529   -2905.4108 
  142800    305.01689   -8790.2044    44.550673   -8834.7551   -51123.264 
  143000    335.96362   -8777.4493    49.070743     -8826.52   -14917.485 
  143200    245.53605   -8794.5227     35.86292   -8830.3856   -12078.743 
  143400    287.76517   -8788.5609    42.030892   -8830.5918    31125.268 
  143600    399.92927   -8765.9515    58.413546    -8824.365    32778.599 
  143800    312.38297   -8785.0836    45.626561   -8830.7101   -1204.0028 
  144000    307.03553   -8795.7461    44.845515   -8840.5916     22955.63 
  144200    301.81726   -8797.7331    44.083336   -8841.8164    13381.381 
  144400    269.85336   -8781.1012    39.414698   -8820.5159   -21459.265 
  144600    310.92861   -8794.8344    45.414138   -8840.2485    8916.3204 
  144800    276.61518   -8793.9688    40.402328   -8834.3711   -42831.348 
  145000    333.11448   -8784.4175    48.654598   -8833.0721   -5057.4168 
  145200    291.49654   -8797.9291    42.575895    -8840.505    9815.6578 
  145400    234.76941   -8805.0747    34.290348    -8839.365    11366.262 
  145600    302.04073   -8789.2984    44.115977   -8833.4144    6303.6628 
  145800    306.59131   -8784.4705    44.780632   -8829.2511   -27378.451 
  146000     364.2686   -8775.1918     53.20496   -8828.3968    -6813.536 
  146200    258.85226   -8792.4187    37.807881   -8830.2265    6079.8716 
  146400    342.36295   -8781.4438    50.005427   -8831.4492   -15465.573 
  146600    267.01207   -8797.8544    38.999701   -8836.8541   -18017.647 
  146800    280.43833   -8793.9177    40.960736   -8834.8785   -3655.3154 
  147000    354.82229   -8773.8629    51.825235   -8825.6881    6175.4003 
  147200    306.00112   -8786.4412    44.694429   -8831.1357    59593.916 
  147400    288.64562   -8791.7104    42.159491   -8833.8699   -7431.4569 
  147600    354.34431   -8774.3925    51.755421   -8826.1479   -17488.686 
  147800    302.53364   -8793.8773    44.187971   -8838.0652   -49110.124 
  148000    294.95658   -8792.9929    43.081267   -8836.0741   -45408.144 
  148200    304.41151   -8780.1896    44.462251   -8824.6519   -23699.961 
  148400    306.83033   -8790.3767    44.815544   -8835.1923    7556.7989 
  148600    256.66763   -8794.3575    37.488795   -8831.8463    3999.5306 
  148800    320.59902   -8780.3916    46.826594   -8827.2182   -27847.906 
  149000    319.81349   -8775.6486     46.71186   -8822.3604    11150.346 
  149200    297.98536   -8792.6402     43.52365   -8836.1639   -2742.7342 
  149400    286.10761   -8793.5873     41.78879   -8835.3761   -12416.729 
  149600    342.75109   -8778.0517    50.062119   -8828.1138   -10471.433 
  149800    253.49235   -8792.2741    37.025015   -8829.2991   -41945.334 
  150000    273.69029    -8794.273    39.975119   -8834.2481   -12010.229 
  150200    263.65062   -8781.6888    38.508728   -8820.1975   -26042.548 
  150400    345.09524   -8778.2079    50.404504   -8828.6124     20827.04 
  150600    283.92221   -8789.9597     41.46959   -8831.4293    4825.0755 
  150800     276.3276   -8797.3648    40.360324   -8837.7251    2545.4762 
  151000    254.63664   -8805.5498    37.192149    -8842.742    30708.213 
  151200    308.63855   -8785.6003    45.079652     -8830.68   -1107.1219 
  151400    335.69335   -8784.0503    49.031268   -8833.0816   -3254.7918 
  151600    263.52373   -8798.6793    38.490195   -8837.1695    38830.127 
  151800    302.01187   -8787.0309    44.111761   -8831.1427   -1364.0601 
  152000    248.86524   -8788.4836    36.349181   -8824.8328   -11102.468 
  152200    233.68831   -8804.3951    34.132442   -8838.5275    22209.083 
  152400    267.77116   -8792.1889    39.110573   -8831.2995   -15633.108 
  152600    299.00319   -8789.4777    43.672313     -8833.15   -27864.122 
  152800     276.8463   -8794.7471    40.436086   -8835.1832    69355.568 
  153000    233.81505   -8799.1789    34.150954   -8833.3298    5245.5834 
  153200    231.86398   -8782.6339    33.865982   -8816.4999    9166.2195 
  153400    260.25764   -8787.7969    38.013151     -8825.81    8938.0928 
  153600    240.15382   -8803.4397    35.076794   -8838.5165   -32243.781 
  153800    284.41794    -8789.126    41.541997    -8830.668    23630.134 
  154000     325.8029   -8783.9438    47.586672   -8831.5305   -15076.463 
  154200    253.81863   -8801.2979    37.072671   -8838.3706   -10613.064 
  154400    275.40097   -8799.3672    40.224981   -8839.5922   -27784.873 
  154600     308.4972   -8791.3162    45.059006   -8836.3752    10600.061 
  154800    282.13087   -8784.9027    41.207948   -8826.1106    16985.545 
  155000    321.58793   -8771.9137    46.971034   -8818.8848    7218.3303 
  155200    320.93274   -8790.8885    46.875337   -8837.7638    10693.803 
  155400    319.51509   -8790.3913    46.668276   -8837.0595    2094.7193 
  155600    403.28351   -8775.6554    58.903465   -8834.5589    5417.6949 
  155800    238.67409   -8793.1678    34.860664   -8828.0284    10946.676 
  156000    302.95001   -8789.6364    44.248785   -8833.8852   -54209.829 
  156200    290.44422   -8795.8334    42.422193   -8838.2556   -10039.223 
  156400    327.38447   -8792.9842    47.817676   -8840.8019   -21292.318 
  156600     306.7788   -8785.4694    44.808017   -8830.2774     20462.89 
  156800    241.00558   -8800.9423    35.201201   -8836.1435   -22484.408 
  157000    294.39086    -8792.964    42.998638   -8835.9626   -18728.702 
  157200    334.26074   -8778.0899    48.822021   -8826.9119    -14064.92 
  157400    377.64697   -8775.7646       55.159   -8830.9236    50909.275 
  157600    265.82643   -8793.7053    38.826527   -8832.5318   -14032.263 
  157800    308.03067   -8787.1909    44.990865   -8832.1818   -28337.918 
  158000    309.77898   -8781.3991    45.246222   -8826.6454   -16453.995 
  158200    318.89065   -8788.8593    46.577071   -8835.4364    12126.982 
  158400    244.34993   -8797.0769    35.689675   -8832.7666    64280.589 
  158600    221.52015   -8805.4964    32.355166   -8837.8515   -26712.073 
  158800    311.52131   -8787.4322    45.500707   -8832.9329   -21244.447 
  159000    301.35829   -8788.2896    44.016299   -8832.3059    29450.018 
  159200     248.8182   -8799.7616     36.34231   -8836.1039    22643.528 
  159400    344.41581   -8780.2055    50.305267   -8830.5108   -9201.0191 
  159600    238.88467   -8792.1506    34.891421    -8827.042   -3450.4176 
  159800    277.16865   -8806.5467    40.483167   -8847.0299     21393.94 
  160000    284.11851   -8798.2178    41.498262   -8839.7161   -26893.219 
  160200     284.8309   -8787.7336    41.602314   -8829.3359   -36496.836 
  160400    286.60822    -8789.835    41.861908    -8831.697      22439.6 
  160600    251.25059   -8804.5177    36.697585   -8841.2153    2382.2576 
  160800    308.90689   -8792.8247    45.118846   -8837.9436   -37540.853 
  161000    345.67142   -8781.7987    50.488661   -8832.2874     -6866.11 
  161200    373.77556   -8773.2051    54.593543   -8827.7986   -23841.655 
  161400    264.29263   -8792.7375      38.6025     -8831.34    24191.135 
  161600    282.94444    -8793.752    41.326777   -8835.0788   -3412.3982 
  161800    293.56095   -8780.6906    42.877422    -8823.568    36048.876 
  162000    298.50095   -8784.7201    43.598956    -8828.319   -42373.273 
  162200    283.36078   -8796.1695    41.387588   -8837.5571    10159.116 
  162400    320.42805   -8783.7857    46.801622   -8830.5873    25182.899 
  162600    306.11787   -8779.3805    44.711482    -8824.092   -14112.122 
  162800    256.51554   -8797.1003    37.466581   -8834.5668    23241.416 
  163000    326.90041   -8784.8544    47.746974   -8832.6014     10329.19 
  163200    305.65604   -8781.6189    44.644027   -8826.2629   -10243.915 
  163400    292.10768   -8793.5454    42.665158   -8836.2106    -12509.82 
  163600    234.68157   -8803.0139    34.277518   -8837.2915   -248.75823 
  163800    263.89926   -8783.9523    38.545045   -8822.4974    20278.463 
  164000    277.10942   -8791.5883    40.474516   -8832.0628   -12451.788 
  164200    259.15128    -8799.339    37.851556   -8837.1906    19377.832 
  164400     299.5845   -8786.8654    43.757219   -8830.6226   -23186.477 
  164600    317.84804   -8779.1796    46.424787   -8825.6044    38877.899 
  164800    284.69618   -8793.5109    41.582637   -8835.0935   -16986.009 
  165000    372.39528   -8785.6945     54.39194   -8840.0864    45348.589 
  165200    245.48142   -8798.0539     35.85494   -8833.9088   -14518.798 
  165400    308.92745   -8793.8236    45.121848   -8838.9454    -15981.47 
  165600    343.93528   -8786.5954    50.235081   -8836.8305    14909.807 
  165800    327.26172   -8793.1806    47.799746   -8840.9803   -29939.035 
  166000    248.06067   -8799.7881    36.231664   -8836.0198    26517.624 
  166200    347.61063    -8783.446    50.771901   -8834.2179     832.7324 
  166400    280.70962   -8790.0447    41.000361   -8831.0451    5733.6601 
  166600    392.59303   -8770.0134    57.342017   -8827.3554    38175.853 
  166800    298.09674   -8783.1621    43.539918    -8826.702    24246.588 
  167000    335.75179   -8788.1476    49.039803   -8837.1874   -6982.0847 
  167200    261.57501   -8799.8393    38.205566   -8838.0449    7302.5658 
  167400    316.50969   -8784.8765    46.229308   -8831.1058    39998.571 
  167600    268.46344   -8796.1091    39.211688   -8835.3207   -42601.865 
  167800     349.5231   -8787.3392    51.051237   -8838.3904    29630.514 
  168000    308.48695   -8781.5366    45.057509   -8826.5941    2506.2757 
  168200    248.30176   -8799.5114    36.266879   -8835.7783   -21817.318 
  168400    281.55476   -8788.8894    41.123802   -8830.0132   -14357.897 
  168600     317.0406   -8781.5275    46.306853   -8827.8343   -8331.4593 
  168800    342.65365   -8792.8741    50.047887    -8842.922   -9716.8382 
  169000    291.77234   -8791.3414    42.616178   -8833.9576   -28075.749 
  169200    381.76706   -8784.5949    55.760779   -8840.3556    35288.991 
  169400    312.72149   -8786.4421    45.676005   -8832.1181    2158.1667 
  169600    261.14406   -8797.8115    38.142621   -8835.9542   -11525.463 
  169800    338.42079   -8782.6581    49.429636   -8832.0877    22592.992 
  170000    237.53015   -8800.7334     34.69358   -8835.4269   -7185.3425 
  170200    292.02424   -8795.9138     42.65297   -8838.5668   -9080.6495 
  170400    328.00092   -8786.0313    47.907714    -8833.939   -27729.409 
  170600    263.71884   -8797.9185    38.518693   -8836.4372   -12715.727 
  170800    333.04077   -8782.4052    48.643832   -8831.0491     17907.59 
  171000    281.66475   -8786.3876    41.139866   -8827.5275   -31287.092 
  171200    307.36049   -8784.9302    44.892979   -8829.8232   -6937.3514 
  171400     254.7023   -8796.4927     37.20174   -8833.6944   -10533.176 
  171600    298.77125   -8790.3598    43.638437   -8833.9982    14001.474 
  171800    322.97468   -8782.8255    47.173582   -8829.9991   -3390.8787 
  172000    241.02361   -8792.2828    35.203834   -8827.4866   -10912.243 
  172200    340.85637   -8780.1066    49.785377   -8829.8919    21297.117 
  172400    301.31825   -8783.3974    44.010452   -8827.4079    6271.4128 
  172600    297.30694   -8788.3685     43.42456   -8831.7931    -11883.48 
  172800    351.93384   -8778.6217    51.403348   -8830.0251   -19554.915 
  173000    280.43111   -8788.7433    40.959681    -8829.703     6362.748 
  173200    280.15706   -8795.6713    40.919654    -8836.591   -3392.3819 
  173400    356.52425   -8774.2262    52.073822      -8826.3   -35508.113 
  173600    297.85713   -8787.4627    43.504921   -8830.9676   -8801.8271 
  173800    298.24009   -8792.9325    43.560856   -8836.4933   -19058.636 
  174000    260.75419   -8794.8216    38.085676   -8832.9073    -10358.66 
  174200    335.15461   -8780.0418    48.952579   -8828.9944   -12130.372 
  174400    306.42076    -8793.819    44.755722   -8838.5747   -31634.186 
  174600    307.81712   -8790.6535    44.959673   -8835.6132   -15214.512 
  174800    268.00673    -8788.406    39.144981    -8827.551    1351.0686 
  175000    342.17974   -8787.8237    49.978667   -8837.8024   -30036.899 
  175200    279.84374   -8789.5986     40.87389   -8830.4724   -2561.0103 
  175400    301.90623     -8791.03    44.096332   -8835.1263   -12562.434 
  175600    268.58369     -8793.61    39.229251   -8832.8392    1737.6964 
  175800    269.18154   -8789.9081    39.316573   -8829.2247    32175.831 
  176000    271.50683   -8783.9844    39.656204   -8823.6406    -29659.53 
  176200    330.21976   -8792.1764    48.231797   -8840.4082   -3348.2263 
  176400    304.25872   -8795.2867    44.439935   -8839.7266    8623.6108 
  176600    288.76646   -8785.8956    42.177141   -8828.0728   -23656.338 
  176800    268.99425   -8787.1198    39.289218   -8826.4091   -13321.363 
  177000    294.77148   -8799.7616    43.054232   -8842.8159   -31744.419 
  177200    336.11388   -8783.8953     49.09269    -8832.988   -18868.294 
  177400    333.88558   -8789.3303    48.767225   -8838.0976    3869.7856 
  177600    247.30344   -8795.2441    36.121065   -8831.3651   -3137.4618 
  177800    258.63611   -8797.5667    37.776311    -8835.343   -5779.9397 
  178000    311.58047   -8783.7965    45.509347   -8829.3059     50010.31 
  178200    322.41612   -8784.2437    47.091999   -8831.3357   -24266.127 
  178400     241.9509   -8800.5572    35.339273   -8835.8965   -3925.4294 
  178600    327.69718   -8789.3402     47.86335   -8837.2036      21037.6 
  178800    301.27327   -8784.2613    44.003881   -8828.2652   -24410.502 
  179000    279.39592   -8796.3371    40.808483   -8837.1456   -20009.723 
  179200    342.18267   -8775.1408    49.979096   -8825.1199    21225.401 
  179400    228.89505   -8794.8022     33.43234   -8828.2345     48732.04 
  179600    292.08131   -8789.9761    42.661307   -8832.6374   -11886.051 
  179800    341.64632   -8778.7356    49.900756   -8828.6364    31926.035 
[...]
  950000    312.84933   -8786.7219    45.694677   -8832.4166   -6564.6647 
  950200    376.87554    -8784.745    55.046326   -8839.7913    50281.088 
  950400    253.32678    -8798.481    37.000832   -8835.4818   -168.09917 
  950600    271.16395   -8783.4322    39.606123   -8823.0383   -20970.606 
  950800    320.66148   -8790.2037    46.835717   -8837.0394    14179.082 
  951000    247.01349    -8798.594    36.078714   -8834.6727   -1294.2262 
  951200    315.96897   -8777.4709     46.15033   -8823.6212   -9916.2772 
  951400    296.75113   -8795.0188    43.343379   -8838.3621    7037.9769 
  951600    273.80302   -8797.5129    39.991584   -8837.5045    17743.831 
  951800    297.64212   -8776.6034    43.473517   -8820.0769    31715.241 
  952000    317.26851   -8789.3542    46.340141   -8835.6943   -34457.791 
  952200     284.4325   -8793.2848    41.544124   -8834.8289   -2642.6941 
  952400    333.35243   -8777.1798    48.689354   -8825.8692    30799.172 
  952600    317.09067   -8791.4023    46.314166   -8837.7164   -36318.906 
  952800    253.46175   -8800.0336    37.020546   -8837.0541    6572.5831 
  953000    327.08393    -8783.217    47.773778   -8830.9907    11438.988 
  953200    340.71102   -8786.1611    49.764147   -8835.9253    7355.7609 
  953400    281.15937   -8797.5373    41.066051   -8838.6033    20038.153 
  953600    270.88028   -8791.9321     39.56469   -8831.4968   -20632.379 
  953800    277.12017   -8782.3244    40.476087   -8822.8005    43476.209 
  954000    279.55987   -8797.9295    40.832428   -8838.7619    44690.314 
  954200     328.1726   -8791.0967    47.932788   -8839.0295   -7439.1734 
  954400    323.22283   -8773.8672    47.209827   -8821.0771    7708.0448 
  954600    329.60914   -8785.1946     48.14261   -8833.3372   -11098.122 
  954800    275.25488   -8793.8573    40.203644    -8834.061   -3108.1802 
  955000    359.14565   -8776.4978    52.456704   -8828.9545    18647.035 
  955200    292.39434   -8789.0538    42.707027   -8831.7609   -38802.429 
  955400    268.18239   -8797.8502    39.170638   -8837.0209   -11413.699 
  955600    311.43152   -8780.5398    45.487593   -8826.0274    1636.1367 
  955800    278.72329   -8788.4872    40.710238   -8829.1974   -9200.0742 
  956000    291.99155   -8792.7063    42.648197   -8835.3545    9307.4557 
  956200    336.67495    -8775.642     49.17464   -8824.8167   -35347.927 
  956400    338.51796   -8783.5308     49.44383   -8832.9746    29987.251 
  956600    297.10865   -8793.6017    43.395598   -8836.9973    34317.492 
  956800    242.44377   -8807.3439    35.411262   -8842.7552   -11146.248 
  957000    296.96038   -8788.3815    43.373942   -8831.7554    17914.866 
  957200    253.28832   -8793.9479    36.995214   -8830.9431   -32746.025 
  957400    330.41275    -8783.607    48.259985    -8831.867    -12988.79 
  957600    280.57751   -8786.0555    40.981064   -8827.0366   -38054.425 
  957800    253.84627   -8797.0395    37.076708   -8834.1162    10217.677 
  958000    303.73161   -8789.1841    44.362946    -8833.547   -1299.0721 
  958200     263.2541   -8790.3076    38.450813   -8828.7584   -13264.739 
  958400    273.54247   -8799.2881    39.953529   -8839.2417   -12628.598 
  958600     221.0219   -8794.2112     32.28239   -8826.4936   -18626.288 
  958800    338.20154    -8784.261    49.397613   -8833.6586    31867.465 
  959000    269.85243    -8793.752    39.414562   -8833.1666   -37136.401 
  959200    228.14119   -8807.9556    33.322232   -8841.2779    7480.0438 
  959400    298.24072   -8791.7367    43.560948   -8835.2976   -12927.752 
  959600    324.01696   -8787.1343    47.325818   -8834.4601   -3512.9782 
  959800    222.33204    -8803.412    32.473749   -8835.8858    25143.634 
  960000    319.63638   -8792.3618    46.685992   -8839.0478    28403.031 
  960200    309.26926   -8791.2665    45.171773   -8836.4383   -43485.573 
  960400    291.28482   -8782.5764    42.544971   -8825.1214    6602.9818 
  960600    297.69016   -8785.5503    43.480533   -8829.0308   -1001.3065 
  960800    263.12816   -8798.9372    38.432419   -8837.3696    -13168.07 
  961000    227.29283   -8786.8712    33.198321   -8820.0695   -10497.651 
  961200    314.90151   -8787.9482    45.994417   -8833.9426   -6276.1776 
  961400    203.51762   -8801.8961     29.72572   -8831.6218   -33030.237 
  961600    305.13943   -8780.2642    44.568572   -8824.8328   -44623.628 
  961800    292.59266    -8790.124    42.735994     -8832.86   -24592.484 
  962000    359.29431   -8788.9553    52.478417   -8841.4338    14920.508 
  962200    295.86608    -8791.111    43.214109   -8834.3251    13054.288 
  962400    304.65615   -8789.7308    44.497983   -8834.2287    6607.9954 
  962600     333.0593   -8784.9064    48.646538   -8833.5529    17154.265 
  962800     312.3986   -8800.3539    45.628844   -8845.9827   -753.50995 
  963000     340.0546   -8785.5917    49.668271     -8835.26   -33037.931 
  963200    271.07896   -8789.3955    39.593709   -8828.9892    16951.371 
  963400    322.32634    -8792.435    47.078886   -8839.5139   -6470.0924 
  963600    337.20422   -8773.7009    49.251945   -8822.9528    15993.403 
  963800    317.24265   -8788.5356    46.336364    -8834.872    40240.422 
  964000    258.03647   -8793.8844    37.688728   -8831.5731   -29162.504 
  964200    294.11995   -8802.5846    42.959069   -8845.5436    10449.796 
  964400    293.03306   -8787.6516    42.800319   -8830.4519    -9933.788 
  964600     267.6175   -8794.9322     39.08813   -8834.0203   -17726.993 
  964800    250.04166   -8808.0095    36.521008   -8844.5305    10822.861 
  965000    312.51852   -8794.2122    45.646358   -8839.8586    -2849.282 
  965200    314.21399   -8780.7908    45.893999   -8826.6848    8228.0044 
  965400    316.85704   -8791.2615    46.280041   -8837.5415    50976.155 
  965600    265.28569   -8797.8549    38.747547   -8836.6024     15869.32 
  965800    284.34086   -8789.1355    41.530739   -8830.6663   -38520.338 
  966000    338.02496   -8792.6839    49.371822   -8842.0557   -4254.6483 
  966200    301.44882   -8789.4032    44.029522   -8833.4327   -27386.498 
  966400    304.97659    -8788.913    44.544787   -8833.4577    14490.076 
  966600    243.85374   -8796.8887    35.617202   -8832.5059    5099.5572 
  966800    350.84257   -8783.9396    51.243958   -8835.1836    -4661.128 
  967000    224.56884   -8796.2079    32.800456   -8829.0084   -7418.7939 
  967200    423.57623     -8776.13    61.867413   -8837.9974    7222.4785 
  967400    288.71892   -8790.5671    42.170196   -8832.7373    623.80005 
  967600    287.81923   -8794.8328    42.038789   -8836.8716    3952.2956 
  967800    300.53161   -8775.9661    43.895555   -8819.8616   -25063.478 
  968000      305.618   -8791.4366    44.638472   -8836.0751   -2137.6004 
  968200    266.32461   -8794.1513    38.899291   -8833.0506    -6862.506 
  968400     357.6556   -8780.5726    52.239067   -8832.8117    14125.402 
  968600    277.11154   -8792.5931    40.474826   -8833.0679    17404.708 
  968800    301.64812   -8791.4585    44.058632   -8835.5171    -22447.38 
  969000    345.54548   -8787.0801    50.470266   -8837.5503   -8446.0678 
  969200    290.03104   -8790.0534    42.361845   -8832.4152   -13956.409 
  969400     250.3589   -8792.2017    36.567344    -8828.769    92227.501 
  969600    378.97122   -8780.9745     55.35242   -8836.3269    33278.237 
  969800    259.41775   -8793.9735    37.890476   -8831.8639     6397.633 
  970000    287.43039   -8790.4163    41.981994   -8832.3983    48008.923 
  970200    267.50296   -8783.1508    39.071399   -8822.2222    7981.6879 
  970400    307.18076   -8794.7336    44.866727   -8839.6003   -14875.063 
  970600    269.72112   -8788.3385    39.395383   -8827.7339    30063.198 
  970800    300.24377    -8779.307    43.853513   -8823.1605    51220.099 
  971000    257.24854   -8798.3763    37.573643   -8835.9499   -21752.628 
  971200    325.95552   -8787.4823    47.608963   -8835.0912   -36443.602 
  971400    336.79711   -8784.9868    49.192483   -8834.1793    40911.225 
  971600    357.19884   -8791.1298    52.172352   -8843.3022   -33504.653 
  971800    372.49259   -8788.8173    54.406153   -8843.2234    36625.644 
  972000     320.9284   -8782.8929    46.874704   -8829.7676    22076.597 
  972200    258.80406   -8788.4139    37.800842   -8826.2148   -10281.257 
  972400    255.33228   -8800.2719    37.293754   -8837.5657   -29919.396 
  972600     318.9912   -8787.2164    46.591757   -8833.8082   -37915.827 
  972800    309.96077   -8790.6876    45.272775   -8835.9604    36706.697 
  973000    278.76896   -8796.7125    40.716909   -8837.4294   -31883.578 
  973200     306.3934   -8783.5537    44.751726   -8828.3054    11830.777 
  973400    270.39081   -8784.8731    39.493199   -8824.3663   -4150.0535 
  973600    252.24777   -8798.5566    36.843231   -8835.3998   -10226.944 
  973800    293.79939   -8783.8913    42.912248   -8826.8035   -7377.7134 
  974000    349.51836   -8784.7921    51.050545   -8835.8427    -37883.89 
  974200    243.87407   -8802.9736    35.620172   -8838.5938   -34584.988 
  974400    260.95061   -8795.8055    38.114365   -8833.9199     3724.849 
  974600    311.60488   -8791.3606    45.512914   -8836.8736   -20733.869 
  974800    289.86446   -8794.0283    42.337513   -8836.3658    2158.6019 
  975000    322.88843   -8788.0097    47.160985   -8835.1707    13888.208 
  975200     312.3976   -8782.3277    45.628698   -8827.9564   -25878.774 
  975400    274.50252   -8794.9672    40.093754   -8835.0609    28715.679 
  975600    326.45054   -8787.7325    47.681266   -8835.4138    21306.522 
  975800    298.93211   -8786.1197    43.661933   -8829.7817   -46407.351 
  976000    277.19279   -8801.4063    40.486693    -8841.893    36661.418 
  976200      338.828   -8785.7985    49.489113   -8835.2876    15013.369 
  976400    282.63726   -8791.3797    41.281912   -8832.6616    -12531.97 
  976600    277.86965   -8802.0842    40.585556   -8842.6698    2037.5075 
  976800    298.74214   -8796.3311    43.634186   -8839.9652   -7161.2772 
  977000    301.27713   -8785.5738    44.004445   -8829.5782    42773.021 
  977200    270.29642   -8795.8133    39.479413   -8835.2927    5196.9034 
  977400    328.05821   -8792.2927    47.916082   -8840.2088   -30207.253 
  977600    347.12888   -8782.5526    50.701537   -8833.2541   -8272.4275 
  977800    303.93376   -8794.8188    44.392471   -8839.2113   -57079.008 
  978000    336.01287   -8788.9843    49.077936   -8838.0622     99593.51 
  978200    301.47144   -8788.7872    44.032826     -8832.82    41184.689 
  978400    227.98385   -8803.0189    33.299252   -8836.3182   -24691.431 
  978600    323.92713   -8792.0681    47.312696   -8839.3808   -28235.027 
  978800     280.0565   -8787.8731    40.904966   -8828.7781   -2809.1602 
  979000    262.91532   -8796.1965    38.401331   -8834.5978    18692.266 
  979200    293.52061   -8796.8174     42.87153   -8839.6889   -2731.1713 
  979400    256.53172   -8786.6958    37.468945   -8824.1647    -19033.07 
  979600    265.77123   -8796.4158    38.818465   -8835.2343    7034.3178 
  979800    294.25007   -8775.8981    42.978075   -8818.8761   -22593.934 
  980000    295.52046   -8780.9326    43.163627   -8824.0963   -35735.672 
  980200    321.72206   -8792.6337    46.990625   -8839.6243   -1226.0463 
  980400    266.89183   -8797.4948    38.982138   -8836.4769   -3247.3605 
  980600    338.28711   -8783.0291    49.410111   -8832.4392   -32905.499 
  980800    222.43763   -8797.9826    32.489172   -8830.4718   -3506.1552 
  981000    296.74819   -8795.8004    43.342949   -8839.1434   -7015.7891 
  981200    300.59379   -8779.4273    43.904637   -8823.3319   -6823.9825 
  981400    242.70031   -8793.5446    35.448733   -8828.9933   -46747.099 
  981600    260.04274   -8796.3689    37.981763   -8834.3506    29526.439 
  981800    381.11369   -8779.5784    55.665348   -8835.2438    1588.3497 
  982000    292.53611   -8794.3808    42.727734   -8837.1085    -24328.94 
  982200    276.50546   -8796.2457    40.386303   -8836.6321   -7779.8221 
  982400     306.8022   -8788.0452    44.811435   -8832.8567    5421.5725 
  982600      341.046    -8786.099    49.813073   -8835.9121   -7229.1298 
  982800    287.29257   -8796.1039    41.961865   -8838.0657    14924.428 
  983000    310.64747   -8781.6359    45.373074   -8827.0089    5304.6024 
  983200    318.42411   -8783.9527    46.508928   -8830.4616    47093.328 
  983400    291.76544   -8790.2042    42.615171   -8832.8194   -16216.735 
  983600    299.66223   -8790.2704    43.768572    -8834.039   -46110.673 
  983800    288.86524   -8791.0419    42.191569   -8833.2334    7416.2161 
  984000    255.46917    -8805.119    37.313748   -8842.4327   -17285.406 
  984200    292.52079   -8790.2517    42.725497   -8832.9772    3959.6881 
  984400    245.61174   -8787.8427    35.873975   -8823.7167    47039.209 
  984600    303.54104   -8784.9718    44.335111   -8829.3069    51357.013 
  984800    284.11079    -8782.151    41.497134   -8823.6481   -47160.405 
  985000    294.74931   -8795.4591    43.050993   -8838.5101     24956.42 
  985200    362.60946   -8778.4111    52.962626   -8831.3737   -3283.9107 
  985400    318.10048   -8786.3843    46.461658    -8832.846    16669.894 
  985600    270.57941   -8795.6355    39.520746   -8835.1563   -7483.5103 
  985800    326.83107   -8784.4829    47.736846   -8832.2197   -20439.049 
  986000     304.1581   -8778.3462    44.425238   -8822.7715   -19468.718 
  986200    263.85705   -8791.2419    38.538879   -8829.7808   -31987.511 
  986400    266.42795   -8801.6269    38.914384   -8840.5413    14358.627 
  986600    295.11608    -8792.863    43.104564   -8835.9676    39623.278 
  986800    308.27701   -8790.7958    45.026845   -8835.8226     41352.18 
  987000    267.33244   -8796.2653    39.046495   -8835.3118    43762.873 
  987200    366.83881   -8773.2146    53.580364    -8826.795    23527.936 
  987400    384.57289    -8771.679    56.170598   -8827.8496   -8001.6373 
  987600    302.26139   -8788.8474    44.148206   -8832.9956    15770.912 
  987800    282.94036   -8791.8032    41.326182   -8833.1294   -31172.857 
  988000     357.9101    -8777.391    52.276239   -8829.6673   -12781.437 
  988200     263.1561   -8787.7258    38.436499   -8826.1623   -27594.268 
  988400    261.59093    -8804.737    38.207891   -8842.9448   -13018.578 
  988600    299.55526   -8798.4559    43.752949   -8842.2088    7510.0785 
  988800    289.60327   -8787.9057    42.299364    -8830.205    15498.096 
  989000    245.77543    -8798.515    35.897884   -8834.4128   -54377.218 
  989200    307.06688   -8783.9791    44.850094   -8828.8292   -10862.493 
  989400    314.38433   -8783.4786    45.918878   -8829.3975    4943.3061 
  989600    248.41598   -8798.1178    36.283561   -8834.4014    -13896.15 
  989800    290.33505   -8792.2257    42.406248    -8834.632    16066.713 
  990000    306.62994   -8784.5665    44.786275   -8829.3528    33745.547 
  990200    248.08996   -8792.7093    36.235943   -8828.9453   -23370.253 
  990400    259.15766   -8793.4037    37.852488   -8831.2562   -20807.317 
  990600    280.48516   -8802.5829    40.967576   -8843.5505    -25288.91 
  990800    275.72434   -8784.2831    40.272212   -8824.5553      2041.99 
  991000    278.55938   -8788.4253    40.686298   -8829.1116   -9174.4208 
  991200    255.01626   -8804.4652    37.247597   -8841.7128   -20924.044 
  991400    309.23971   -8787.8434    45.167457   -8833.0108     1324.161 
  991600    272.37661   -8790.8649    39.783244   -8830.6482    18907.459 
  991800    356.72039   -8778.7083    52.102471   -8830.8108   -19200.057 
  992000    286.59557   -8796.6202    41.860061   -8838.4802   -25454.916 
  992200    308.27291    -8785.199    45.026246   -8830.2253     18692.29 
  992400    255.62125   -8790.7303    37.335961   -8828.0663   -30397.861 
  992600    256.81727    -8790.099    37.510652   -8827.6096    -37925.11 
  992800    283.11706   -8789.4392    41.351991   -8830.7912    3261.0967 
  993000    245.03479   -8795.0508    35.789706   -8830.8406   -32888.035 
  993200    287.80922   -8799.7731    42.037327   -8841.8104   -36891.975 
  993400    296.79686   -8786.3607    43.350058   -8829.7108   -37289.551 
  993600    295.96227   -8792.0831    43.228158   -8835.3113    2197.7732 
  993800    316.02887   -8775.4605     46.15908   -8821.6196   -38635.032 
  994000    262.80995   -8790.8627    38.385941   -8829.2487    25582.741 
  994200    286.92549    -8785.988    41.908249   -8827.8963    16934.917 
  994400    326.51587   -8784.4662    47.690808    -8832.157   -3813.1154 
  994600    240.51128   -8797.6432    35.129004   -8832.7722    21767.311 
  994800    280.37099   -8783.6285    40.950901   -8824.5794     9805.353 
  995000     286.6381    -8800.069    41.866272   -8841.9353   -30635.286 
  995200    267.50813   -8802.4931    39.072155   -8841.5653    13600.125 
  995400    303.75687   -8786.5851    44.366635   -8830.9518   -43042.559 
  995600    327.41346   -8782.2226    47.821909   -8830.0445     7577.815 
  995800    279.22008    -8798.467    40.782798   -8839.2498    17139.367 
  996000    304.77767   -8783.6633    44.515733   -8828.1791   -20096.648 
  996200    271.87212   -8783.3459    39.709558   -8823.0555    26545.236 
  996400    237.24667   -8795.5943    34.652175   -8830.2465    6422.0135 
  996600    232.58156   -8809.6942    33.970791    -8843.665   -43519.789 
  996800    273.84062   -8795.6304    39.997077   -8835.6275   -2180.5274 
  997000    315.04567   -8785.1728    46.015474   -8831.1883   -7045.7067 
  997200    246.96785   -8794.0554    36.072049   -8830.1274   -23215.332 
  997400    324.02068   -8797.7681    47.326361   -8845.0945    52481.043 
  997600    317.90582   -8784.1268    46.433226     -8830.56     10844.22 
  997800    351.27687   -8789.7565    51.307392   -8841.0639    8066.9268 
  998000    261.80407   -8800.6146    38.239023   -8838.8536   -1738.0756 
  998200    296.01799    -8794.266    43.236296   -8837.5023   -35158.616 
  998400    349.47223    -8783.042    51.043806   -8834.0858    12538.531 
  998600    308.32577   -8798.5384    45.033967   -8843.5723    16816.998 
  998800    285.96087   -8797.4732    41.767357   -8839.2406   -11054.058 
  999000     313.6613   -8785.0428    45.813274   -8830.8561   -8364.7012 
  999200    247.29183   -8782.0419    36.119369   -8818.1612    37026.395 
  999400    268.85842   -8801.5877    39.269378   -8840.8571    18450.058 
  999600    312.92386   -8787.4727    45.705562   -8833.1782   -29738.242 
  999800    299.07064   -8786.9281    43.682166   -8830.6103    -10954.15 
 1000000     270.8126   -8790.7265    39.554805   -8830.2813    8309.0212 
Loop time of 4356.16 on 8 procs for 1000000 steps with 50 atoms

Performance: 4.958 ns/day, 4.840 hours/ns, 229.560 timesteps/s
99.0% CPU use with 8 MPI tasks x no OpenMP threads

MPI task timing breakdown:
Section |  min time  |  avg time  |  max time  |%varavg| %total
---------------------------------------------------------------
Pair    | 3786.4     | 3840       | 3945.7     |  72.4 | 88.15
Neigh   | 2.5309     | 2.5855     | 2.6497     |   2.6 |  0.06
Comm    | 50.496     | 155.48     | 208.66     | 357.5 |  3.57
Output  | 0.12556    | 0.14619    | 0.28104    |  13.3 |  0.00
Modify  | 353.43     | 354.16     | 354.75     |   2.2 |  8.13
Other   |            | 3.806      |            |       |  0.09

Nlocal:    6.25 ave 8 max 5 min
Histogram: 1 0 0 5 0 0 1 0 0 1
Nghost:    921.5 ave 952 max 895 min
Histogram: 1 1 0 1 2 1 0 0 1 1
Neighs:    1765 ave 2205 max 1409 min
Histogram: 1 0 0 5 0 0 0 1 0 1

Total # of neighbors = 14120
Ave neighs/atom = 282.4
Neighbor list builds = 1149
Dangerous builds = 0

unfix 1
unfix output
undump 1

Please see the log.cite file for references relevant to this simulation

Total wall time: 1:12:47
