ITEM: TIMESTEP
0
ITEM: NUMBER OF ATOMS
50
ITEM: BOX BOUNDS pp pp pp
0.0000000000000000e+00 1.1000000000000000e+01
0.0000000000000000e+00 1.1002000000000001e+01
0.0000000000000000e+00 1.1000000000000000e+01
ITEM: ATOMS id type x y z 
10 1 4.603 4.603 4.603 
11 1 3.085 3.085 3.085 
12 1 3.796 3.796 3.796 
46 1 0.726 0.725 0.725 
47 1 2.26 2.259 2.26 
48 1 1.551 1.55 1.55 
49 2 4.929 4.839 3.32 
50 3 4.929 4.839 2.344 
19 1 4.546 4.545 6.226 
20 1 3.013 3.013 7.764 
21 1 3.721 3.721 7.053 
31 1 0.668 0.667 10.103 
32 1 2.187 2.187 8.589 
33 1 1.476 1.475 9.298 
16 1 4.546 6.225 4.546 
17 1 3.013 7.765 3.013 
18 1 3.721 7.053 3.722 
25 1 0.668 10.103 0.668 
26 1 2.188 8.589 2.188 
27 1 1.476 9.298 1.476 
4 1 4.608 6.169 6.169 
5 1 3.086 7.684 7.684 
6 1 3.799 6.974 6.974 
37 1 0.729 10.046 10.046 
38 1 2.259 8.509 8.508 
39 1 1.552 9.219 9.219 
13 1 6.225 4.546 4.546 
14 1 7.764 3.013 3.013 
15 1 7.053 3.721 3.722 
28 1 10.102 0.667 0.668 
29 1 8.589 2.187 2.188 
30 1 9.298 1.475 1.476 
1 1 6.168 4.608 6.169 
2 1 7.684 3.086 7.684 
3 1 6.974 3.799 6.974 
40 1 10.045 0.728 10.046 
41 1 8.508 2.259 8.508 
42 1 9.218 1.551 9.218 
7 1 6.169 6.169 4.608 
8 1 7.684 7.684 3.086 
9 1 6.974 6.974 3.799 
43 1 10.046 10.047 0.729 
44 1 8.508 8.509 2.259 
45 1 9.219 9.219 1.552 
22 1 6.229 6.229 6.229 
23 1 7.764 7.765 7.765 
24 1 7.055 7.056 7.055 
34 1 10.108 10.108 10.107 
35 1 8.59 8.59 8.59 
36 1 9.301 9.301 9.3 
ITEM: TIMESTEP
10
ITEM: NUMBER OF ATOMS
50
ITEM: BOX BOUNDS pp pp pp
0.0000000000000000e+00 1.1000000000000000e+01
0.0000000000000000e+00 1.1002000000000001e+01
0.0000000000000000e+00 1.1000000000000000e+01
ITEM: ATOMS id type x y z 
10 1 4.56206 4.5596 4.63828 
11 1 3.06162 3.05754 3.06091 
12 1 3.69648 3.7083 3.88213 
46 1 0.733681 0.73388 0.732759 
47 1 2.26108 2.2609 2.25909 
48 1 1.55247 1.55221 1.55185 
49 2 5.00834 4.9147 3.1676 
50 3 4.95639 4.86158 2.28416 
19 1 4.53494 4.53559 6.27489 
20 1 2.994 2.99421 7.77756 
21 1 3.70936 3.70897 7.07547 
31 1 0.675065 0.674119 10.0881 
32 1 2.19175 2.19196 8.58457 
33 1 1.48281 1.48134 9.28992 
16 1 4.53024 6.29885 4.56916 
17 1 2.99747 7.77698 2.99576 
18 1 3.70875 7.07446 3.71424 
25 1 0.674987 10.0873 0.675522 
26 1 2.18886 8.58749 2.18932 
27 1 1.48009 9.29421 1.47963 
4 1 4.59087 6.18329 6.1798 
5 1 3.07981 7.6913 7.68735 
6 1 3.7916 6.97879 6.98756 
37 1 0.737318 10.0366 10.0351 
38 1 2.26936 8.49903 8.49802 
39 1 1.56251 9.2083 9.20808 
13 1 6.30404 4.53185 4.5752 
14 1 7.7737 2.99948 2.99811 
15 1 7.0752 3.70797 3.71339 
28 1 10.0865 0.674611 0.675964 
29 1 8.58506 2.19072 2.19166 
30 1 9.29123 1.48159 1.48254 
1 1 6.18434 4.58901 6.1792 
2 1 7.69011 3.08088 7.68931 
3 1 6.981 3.78957 6.98339 
40 1 10.0353 0.736156 10.0354 
41 1 8.49838 2.26886 8.49829 
42 1 9.20764 1.56135 9.20779 
7 1 6.17945 6.17556 4.59566 
8 1 7.68895 7.69085 3.07828 
9 1 6.98592 6.98157 3.79279 
43 1 10.0348 10.0363 0.737716 
44 1 8.49787 8.49889 2.26936 
45 1 9.20803 9.20831 1.56252 
22 1 6.24406 6.24541 6.24015 
23 1 7.77998 7.78124 7.78064 
24 1 7.06656 7.06684 7.06729 
34 1 10.1 10.1003 10.0994 
35 1 8.58567 8.58572 8.58558 
36 1 9.2944 9.29456 9.29349 
ITEM: TIMESTEP
20
ITEM: NUMBER OF ATOMS
50
ITEM: BOX BOUNDS pp pp pp
0.0000000000000000e+00 1.1000000000000000e+01
0.0000000000000000e+00 1.1002000000000001e+01
0.0000000000000000e+00 1.1000000000000000e+01
ITEM: ATOMS id type x y z 
10 1 4.54257 4.55549 4.73064 
11 1 3.06931 3.06968 3.09409 
12 1 3.71163 3.72227 3.90887 
46 1 0.725552 0.726657 0.727991 
47 1 2.25969 2.25772 2.25229 
48 1 1.55175 1.55018 1.54728 
49 2 5.00864 4.93273 3.04427 
50 3 4.98478 4.8856 2.17534 
19 1 4.53317 4.53795 6.29539 
20 1 2.98121 2.9806 7.78659 
21 1 3.69734 3.69886 7.09805 
31 1 0.671772 0.670758 10.082 
32 1 2.1858 2.18517 8.59257 
33 1 1.47297 1.47258 9.29313 
16 1 4.5433 6.27515 4.57131 
17 1 3.00309 7.76675 3.00048 
18 1 3.71718 7.07912 3.72914 
25 1 0.670517 10.0834 0.672137 
26 1 2.19425 8.58573 2.19341 
27 1 1.4807 9.28427 1.48135 
4 1 4.59916 6.20984 6.16758 
5 1 3.0791 7.68719 7.69348 
6 1 3.79078 6.9897 6.97986 
37 1 0.737574 10.0339 10.0346 
38 1 2.26974 8.49863 8.499 
39 1 1.5619 9.20912 9.20573 
13 1 6.29357 4.54661 4.59096 
14 1 7.76609 3.00182 2.99788 
15 1 7.08485 3.71275 3.72748 
28 1 10.0807 0.670136 0.67307 
29 1 8.58668 2.19124 2.19121 
30 1 9.2871 1.47902 1.48031 
1 1 6.20867 4.59987 6.17247 
2 1 7.68976 3.0764 7.69476 
3 1 6.9908 3.78904 6.98395 
40 1 10.0325 0.735633 10.0342 
41 1 8.49839 2.26755 8.49926 
42 1 9.20931 1.56236 9.20788 
7 1 6.16735 6.16351 4.60093 
8 1 7.68645 7.68477 3.08496 
9 1 6.97772 6.98017 3.79224 
43 1 10.0346 10.0351 0.737183 
44 1 8.49856 8.49804 2.27002 
45 1 9.20417 9.20768 1.5635 
22 1 6.24661 6.25231 6.23806 
23 1 7.77436 7.77411 7.77611 
24 1 7.06856 7.07157 7.06608 
34 1 10.0987 10.0991 10.0982 
35 1 8.58739 8.58779 8.58515 
36 1 9.29358 9.29334 9.29749 
ITEM: TIMESTEP
30
ITEM: NUMBER OF ATOMS
50
ITEM: BOX BOUNDS pp pp pp
0.0000000000000000e+00 1.1000000000000000e+01
0.0000000000000000e+00 1.1002000000000001e+01
0.0000000000000000e+00 1.1000000000000000e+01
ITEM: ATOMS id type x y z 
10 1 4.56718 4.57007 4.68173 
11 1 3.0543 3.05786 3.12865 
12 1 3.71444 3.72348 3.91674 
46 1 0.733728 0.731037 0.745381 
47 1 2.27713 2.27364 2.25978 
48 1 1.56198 1.56245 1.5671 
49 2 4.99476 4.93025 2.98989 
50 3 5.01115 4.9086 2.06606 
19 1 4.54216 4.54512 6.28991 
20 1 2.99243 2.99429 7.778 
21 1 3.71013 3.70883 7.09429 
31 1 0.666617 0.658418 10.1155 
32 1 2.18455 2.17172 8.59797 
33 1 1.45633 1.47733 9.29662 
16 1 4.5253 6.23432 4.55917 
17 1 3.01261 7.7729 3.01009 
18 1 3.70981 7.06137 3.72758 
25 1 0.669576 10.0911 0.679973 
26 1 2.19091 8.57697 2.18711 
27 1 1.48522 9.29673 1.48942 
4 1 4.60956 6.20087 6.1864 
5 1 3.07568 7.68887 7.69037 
6 1 3.7984 6.99266 6.98506 
37 1 0.734326 10.0228 10.0378 
38 1 2.26971 8.50004 8.49866 
39 1 1.56033 9.20418 9.20918 
13 1 6.2483 4.52592 4.58203 
14 1 7.77157 3.01092 3.00833 
15 1 7.07033 3.70791 3.73137 
28 1 10.094 0.669786 0.679406 
29 1 8.5793 2.19233 2.18974 
30 1 9.28765 1.48229 1.4848 
1 1 6.19708 4.61342 6.18935 
2 1 7.68966 3.07477 7.69149 
3 1 6.99273 3.79725 6.98864 
40 1 10.0251 0.72938 10.0396 
41 1 8.50241 2.26623 8.50112 
42 1 9.20466 1.55801 9.21154 
7 1 6.17269 6.16686 4.5958 
8 1 7.68284 7.68388 3.08612 
9 1 6.97594 6.97316 3.79314 
43 1 10.0327 10.0324 0.739161 
44 1 8.496 8.49666 2.27276 
45 1 9.20281 9.20432 1.56581 
22 1 6.24784 6.25272 6.24251 
23 1 7.77876 7.77997 7.77889 
24 1 7.07137 7.07318 7.06938 
34 1 10.0945 10.0969 10.1015 
35 1 8.5915 8.5895 8.58602 
36 1 9.292 9.29523 9.30312 
ITEM: TIMESTEP
40
ITEM: NUMBER OF ATOMS
50
ITEM: BOX BOUNDS pp pp pp
0.0000000000000000e+00 1.1000000000000000e+01
0.0000000000000000e+00 1.1002000000000001e+01
0.0000000000000000e+00 1.1000000000000000e+01
ITEM: ATOMS id type x y z 
10 1 4.5694 4.57131 4.67329 
11 1 3.05159 3.0552 3.14011 
12 1 3.71679 3.72522 3.92015 
46 1 0.729075 0.727023 0.745128 
47 1 2.27508 2.27361 2.26345 
48 1 1.56614 1.56353 1.56267 
49 2 4.98829 4.92652 2.96376 
50 3 5.02069 4.91797 2.04758 
19 1 4.54529 4.54929 6.28766 
20 1 2.9917 2.99069 7.78406 
21 1 3.706 3.70817 7.09528 
31 1 0.664586 0.663908 10.1084 
32 1 2.17706 2.17719 8.59344 
33 1 1.4706 1.46932 9.30188 
16 1 4.53066 6.23138 4.56539 
17 1 3.01086 7.77169 3.0104 
18 1 3.70904 7.06369 3.72496 
25 1 0.671999 10.0932 0.681703 
26 1 2.19529 8.5796 2.19203 
27 1 1.48402 9.28669 1.48775 
4 1 4.60973 6.19592 6.18412 
5 1 3.078 7.69141 7.69058 
6 1 3.79465 6.99071 6.98515 
37 1 0.733829 10.0282 10.0444 
38 1 2.26684 8.50131 8.49988 
39 1 1.56082 9.20483 9.21136 
13 1 6.24658 4.5274 4.57959 
14 1 7.77139 3.01013 3.00978 
15 1 7.06999 3.70792 3.73184 
28 1 10.0924 0.670839 0.683617 
29 1 8.57923 2.19425 2.19055 
30 1 9.28536 1.48214 1.48593 
1 1 6.194 4.61163 6.19289 
2 1 7.69239 3.07626 7.69211 
3 1 6.9906 3.7948 6.98964 
40 1 10.0286 0.7315 10.0443 
41 1 8.50156 2.26553 8.50081 
42 1 9.20507 1.55879 9.21193 
7 1 6.16691 6.16231 4.59725 
8 1 7.68213 7.68237 3.08714 
9 1 6.97397 6.97247 3.79213 
43 1 10.034 10.0337 0.743832 
44 1 8.49385 8.49483 2.27338 
45 1 9.20243 9.20336 1.56941 
22 1 6.24779 6.25523 6.23739 
23 1 7.7794 7.77996 7.77989 
24 1 7.07309 7.07637 7.06865 
34 1 10.0962 10.0958 10.1076 
35 1 8.58797 8.58852 8.589 
36 1 9.29698 9.29538 9.29687 
ITEM: TIMESTEP
50
ITEM: NUMBER OF ATOMS
50
ITEM: BOX BOUNDS pp pp pp
0.0000000000000000e+00 1.1000000000000000e+01
0.0000000000000000e+00 1.1002000000000001e+01
0.0000000000000000e+00 1.1000000000000000e+01
ITEM: ATOMS id type x y z 
10 1 4.58185 4.5765 4.63418 
11 1 3.03146 3.03453 3.16304 
12 1 3.71154 3.71784 3.91929 
46 1 0.731791 0.72981 0.746138 
47 1 2.27077 2.27027 2.26472 
48 1 1.5623 1.56141 1.56323 
49 2 4.96676 4.91325 2.9234 
50 3 5.04837 4.94576 1.9886 
19 1 4.54779 4.55051 6.28391 
20 1 2.99813 2.99843 7.7834 
21 1 3.71163 3.71336 7.0934 
31 1 0.671813 0.665304 10.1091 
32 1 2.18022 2.17718 8.58716 
33 1 1.47327 1.47674 9.30268 
16 1 4.52898 6.2334 4.56428 
17 1 3.01018 7.76839 3.01266 
18 1 3.71112 7.06124 3.7281 
25 1 0.67406 10.0901 0.689351 
26 1 2.19771 8.57782 2.19451 
27 1 1.48625 9.28622 1.49084 
4 1 4.60889 6.18341 6.19461 
5 1 3.07977 7.69722 7.68952 
6 1 3.79222 6.98739 6.98952 
37 1 0.736394 10.0328 10.0516 
38 1 2.26203 8.50356 8.50256 
39 1 1.56006 9.20669 9.21582 
13 1 6.24312 4.52439 4.5783 
14 1 7.77097 3.00941 3.01413 
15 1 7.06725 3.70739 3.73466 
28 1 10.0893 0.671379 0.687063 
29 1 8.57342 2.19824 2.18909 
30 1 9.29 1.48314 1.49725 
1 1 6.17966 4.61181 6.20287 
2 1 7.69686 3.0764 7.68984 
3 1 6.98788 3.79838 6.9988 
40 1 10.0315 0.733745 10.0521 
41 1 8.50239 2.26042 8.50223 
42 1 9.20859 1.55851 9.21682 
7 1 6.16684 6.16402 4.59985 
8 1 7.67803 7.67919 3.08521 
9 1 6.97383 6.96924 3.79452 
43 1 10.0352 10.0353 0.753888 
44 1 8.49005 8.49104 2.27665 
45 1 9.20035 9.20169 1.57462 
22 1 6.24821 6.25293 6.23348 
23 1 7.77898 7.77925 7.77865 
24 1 7.07433 7.07978 7.06432 
34 1 10.0976 10.0953 10.1183 
35 1 8.58983 8.5898 8.59481 
36 1 9.30043 9.29912 9.29697 
ITEM: TIMESTEP
60
ITEM: NUMBER OF ATOMS
50
ITEM: BOX BOUNDS pp pp pp
0.0000000000000000e+00 1.1000000000000000e+01
0.0000000000000000e+00 1.1002000000000001e+01
0.0000000000000000e+00 1.1000000000000000e+01
ITEM: ATOMS id type x y z 
10 1 4.58285 4.5778 4.63025 
11 1 3.02773 3.03204 3.17004 
12 1 3.71336 3.71797 3.91866 
46 1 0.731208 0.728972 0.745155 
47 1 2.271 2.27064 2.26753 
48 1 1.56203 1.5608 1.56553 
49 2 4.96201 4.90883 2.91 
50 3 5.05521 4.95375 1.98273 
19 1 4.54693 4.5502 6.28069 
20 1 2.99821 2.99875 7.78499 
21 1 3.7117 3.71333 7.09218 
31 1 0.670684 0.668277 10.1077 
32 1 2.18079 2.18018 8.58838 
33 1 1.47483 1.47345 9.29855 
16 1 4.53022 6.23199 4.56499 
17 1 3.01068 7.76794 3.01358 
18 1 3.71028 7.06074 3.72798 
25 1 0.672754 10.0892 0.690112 
26 1 2.19934 8.5781 2.19551 
27 1 1.48537 9.2838 1.49198 
4 1 4.6073 6.1836 6.19365 
5 1 3.07876 7.69717 7.68998 
6 1 3.79346 6.98875 6.99042 
37 1 0.736025 10.0321 10.0526 
38 1 2.2627 8.50303 8.50193 
39 1 1.55993 9.207 9.21597 
13 1 6.24177 4.52498 4.57796 
14 1 7.77004 3.00986 3.01552 
15 1 7.06666 3.70739 3.73524 
28 1 10.09 0.6702 0.690744 
29 1 8.57703 2.19816 2.19359 
30 1 9.2832 1.4839 1.49113 
1 1 6.18103 4.61174 6.20403 
2 1 7.69712 3.07778 7.69254 
3 1 6.98819 3.79524 6.99645 
40 1 10.0324 0.733232 10.0531 
41 1 8.50384 2.26073 8.50276 
42 1 9.20742 1.55714 9.21668 
7 1 6.16689 6.16276 4.60107 
8 1 7.67796 7.67766 3.08544 
9 1 6.9717 6.96977 3.79399 
43 1 10.0352 10.0349 0.754702 
44 1 8.49102 8.49231 2.27504 
45 1 9.20148 9.20212 1.57532 
22 1 6.24846 6.25461 6.23517 
23 1 7.78067 7.78233 7.77825 
24 1 7.07462 7.07799 7.06699 
34 1 10.0992 10.098 10.117 
35 1 8.59198 8.59136 8.59129 
36 1 9.29689 9.29644 9.30485 
ITEM: TIMESTEP
70
ITEM: NUMBER OF ATOMS
50
ITEM: BOX BOUNDS pp pp pp
0.0000000000000000e+00 1.1000000000000000e+01
0.0000000000000000e+00 1.1002000000000001e+01
0.0000000000000000e+00 1.1000000000000000e+01
ITEM: ATOMS id type x y z 
10 1 4.58296 4.5779 4.62928 
11 1 3.02713 3.03144 3.17066 
12 1 3.71323 3.71776 3.91844 
46 1 0.731168 0.728914 0.744999 
47 1 2.27066 2.27034 2.26766 
48 1 1.56171 1.56048 1.56555 
49 2 4.96136 4.90825 2.90944 
50 3 5.05604 4.95473 1.98188 
19 1 4.54707 4.55027 6.28044 
20 1 2.99852 2.99903 7.78491 
21 1 3.71189 3.71361 7.09184 
31 1 0.670737 0.66837 10.1077 
32 1 2.18088 2.18029 8.58824 
33 1 1.47496 1.47353 9.2986 
16 1 4.53022 6.23215 4.56497 
17 1 3.01074 7.76782 3.01376 
18 1 3.71037 7.06066 3.72803 
25 1 0.672603 10.0891 0.690255 
26 1 2.19913 8.57792 2.19552 
27 1 1.48572 9.2842 1.49205 
4 1 4.6072 6.18326 6.19394 
5 1 3.07873 7.69699 7.69006 
6 1 3.79361 6.98902 6.99029 
37 1 0.736111 10.0321 10.0527 
38 1 2.26271 8.50309 8.50199 
39 1 1.55987 9.20703 9.21593 
13 1 6.24194 4.52504 4.57807 
14 1 7.7702 3.00971 3.01567 
15 1 7.06641 3.70749 3.73516 
28 1 10.0898 0.670129 0.690793 
29 1 8.57675 2.19805 2.19357 
30 1 9.28375 1.48414 1.49137 
1 1 6.18091 4.61171 6.20423 
2 1 7.69715 3.07787 7.69258 
3 1 6.98806 3.7952 6.99652 
40 1 10.0323 0.733213 10.0532 
41 1 8.50384 2.26059 8.50285 
42 1 9.20757 1.55734 9.21658 
7 1 6.16708 6.16299 4.60139 
8 1 7.67791 7.67766 3.08537 
9 1 6.97167 6.96962 3.79395 
43 1 10.0352 10.035 0.754773 
44 1 8.49083 8.49214 2.27514 
45 1 9.20158 9.20217 1.57546 
22 1 6.24841 6.25441 6.23546 
23 1 7.78076 7.78233 7.77809 
24 1 7.07462 7.0782 7.06721 
34 1 10.099 10.0979 10.1169 
35 1 8.59209 8.5916 8.59135 
36 1 9.29692 9.29624 9.30513 
ITEM: TIMESTEP
80
ITEM: NUMBER OF ATOMS
50
ITEM: BOX BOUNDS pp pp pp
0.0000000000000000e+00 1.1000000000000000e+01
0.0000000000000000e+00 1.1002000000000001e+01
0.0000000000000000e+00 1.1000000000000000e+01
ITEM: ATOMS id type x y z 
10 1 4.58306 4.57798 4.62881 
11 1 3.02682 3.03114 3.17099 
12 1 3.71319 3.71767 3.91834 
46 1 0.731201 0.728932 0.744908 
47 1 2.27056 2.27026 2.26773 
48 1 1.56155 1.56033 1.5657 
49 2 4.96104 4.90795 2.90911 
50 3 5.05647 4.95524 1.98145 
19 1 4.5471 4.55029 6.28027 
20 1 2.99863 2.99914 7.78487 
21 1 3.71197 3.71372 7.09176 
31 1 0.670763 0.668397 10.1077 
32 1 2.18094 2.18035 8.58824 
33 1 1.475 1.47355 9.29851 
16 1 4.53024 6.23218 4.56496 
17 1 3.01075 7.76774 3.01383 
18 1 3.71044 7.06066 3.72807 
25 1 0.672578 10.0891 0.690285 
26 1 2.19913 8.57792 2.19554 
27 1 1.48572 9.28421 1.49208 
4 1 4.60716 6.18321 6.194 
5 1 3.07873 7.69699 7.69004 
6 1 3.79364 6.98899 6.99035 
37 1 0.736102 10.0321 10.0527 
38 1 2.26267 8.50313 8.50202 
39 1 1.55987 9.20706 9.21596 
13 1 6.24195 4.52508 4.57806 
14 1 7.77016 3.00969 3.01575 
15 1 7.06642 3.70752 3.7352 
28 1 10.0898 0.670151 0.690842 
29 1 8.57679 2.19808 2.1936 
30 1 9.2837 1.48409 1.4914 
1 1 6.18087 4.61166 6.20429 
2 1 7.69714 3.0779 7.69262 
3 1 6.98803 3.7952 6.99655 
40 1 10.0323 0.733198 10.0532 
41 1 8.50388 2.26056 8.50285 
42 1 9.20757 1.55736 9.21663 
7 1 6.16713 6.16303 4.6015 
8 1 7.67786 7.67761 3.0853 
9 1 6.97169 6.96963 3.79402 
43 1 10.0352 10.035 0.754827 
44 1 8.49082 8.49212 2.27516 
45 1 9.20157 9.20216 1.57547 
22 1 6.24837 6.25436 6.2356 
23 1 7.78083 7.78242 7.77807 
24 1 7.07465 7.07822 7.06727 
34 1 10.0989 10.0979 10.117 
35 1 8.59209 8.59162 8.59143 
36 1 9.29699 9.29627 9.30514 
ITEM: TIMESTEP
87
ITEM: NUMBER OF ATOMS
50
ITEM: BOX BOUNDS pp pp pp
0.0000000000000000e+00 1.1000000000000000e+01
0.0000000000000000e+00 1.1002000000000001e+01
0.0000000000000000e+00 1.1000000000000000e+01
ITEM: ATOMS id type x y z 
10 1 4.58307 4.57798 4.62876 
11 1 3.02679 3.03111 3.17103 
12 1 3.71318 3.71766 3.91833 
46 1 0.731205 0.728934 0.744898 
47 1 2.27055 2.27025 2.26774 
48 1 1.56154 1.56031 1.56571 
49 2 4.961 4.90792 2.90907 
50 3 5.05652 4.95529 1.9814 
19 1 4.54711 4.55029 6.28026 
20 1 2.99864 2.99915 7.78487 
21 1 3.71198 3.71372 7.09174 
31 1 0.670767 0.668393 10.1077 
32 1 2.18095 2.18035 8.58823 
33 1 1.475 1.47357 9.29851 
16 1 4.53024 6.23218 4.56495 
17 1 3.01075 7.76774 3.01383 
18 1 3.71044 7.06065 3.72808 
25 1 0.672584 10.0891 0.690295 
26 1 2.19914 8.57794 2.19554 
27 1 1.4857 9.28418 1.49207 
4 1 4.60717 6.1832 6.19402 
5 1 3.07875 7.697 7.69005 
6 1 3.79361 6.98898 6.99033 
37 1 0.736107 10.0321 10.0527 
38 1 2.26268 8.50314 8.50202 
39 1 1.55986 9.20705 9.21596 
13 1 6.24195 4.52509 4.57806 
14 1 7.77015 3.00969 3.01576 
15 1 7.06642 3.70753 3.7352 
28 1 10.0897 0.670142 0.690842 
29 1 8.57677 2.19807 2.1936 
30 1 9.28373 1.48412 1.49141 
1 1 6.18087 4.61166 6.20429 
2 1 7.69715 3.0779 7.69262 
3 1 6.98802 3.7952 6.99656 
40 1 10.0323 0.733198 10.0532 
41 1 8.50389 2.26056 8.50285 
42 1 9.20757 1.55735 9.21664 
7 1 6.16714 6.16303 4.60151 
8 1 7.67785 7.6776 3.08529 
9 1 6.97168 6.96964 3.79403 
43 1 10.0352 10.035 0.754828 
44 1 8.49082 8.49212 2.27516 
45 1 9.20157 9.20217 1.57548 
22 1 6.24837 6.25434 6.23562 
23 1 7.78085 7.78242 7.77807 
24 1 7.07464 7.07824 7.06727 
34 1 10.0989 10.0979 10.117 
35 1 8.59209 8.59162 8.59144 
36 1 9.29701 9.29627 9.30513 
ITEM: TIMESTEP
89
ITEM: NUMBER OF ATOMS
50
ITEM: BOX BOUNDS pp pp pp
0.0000000000000000e+00 1.1000000000000000e+01
0.0000000000000000e+00 1.1002000000000001e+01
0.0000000000000000e+00 1.1000000000000000e+01
ITEM: ATOMS id type x y z 
10 1 4.58307 4.57798 4.62876 
11 1 3.02679 3.03111 3.17103 
12 1 3.71318 3.71766 3.91833 
46 1 0.731205 0.728934 0.744897 
47 1 2.27055 2.27025 2.26774 
48 1 1.56154 1.56031 1.56571 
49 2 4.961 4.90792 2.90907 
50 3 5.05652 4.95529 1.9814 
19 1 4.54711 4.55029 6.28026 
20 1 2.99864 2.99915 7.78487 
21 1 3.71198 3.71372 7.09174 
31 1 0.670767 0.668393 10.1077 
32 1 2.18095 2.18035 8.58823 
33 1 1.47499 1.47357 9.29851 
16 1 4.53024 6.23218 4.56495 
17 1 3.01075 7.76774 3.01383 
18 1 3.71044 7.06065 3.72808 
25 1 0.672585 10.0891 0.690295 
26 1 2.19914 8.57794 2.19554 
27 1 1.4857 9.28418 1.49207 
4 1 4.60717 6.1832 6.19402 
5 1 3.07875 7.697 7.69005 
6 1 3.79361 6.98897 6.99033 
37 1 0.736107 10.0321 10.0527 
38 1 2.26268 8.50314 8.50202 
39 1 1.55986 9.20705 9.21596 
13 1 6.24195 4.52509 4.57806 
14 1 7.77015 3.00969 3.01576 
15 1 7.06642 3.70753 3.7352 
28 1 10.0897 0.670141 0.690842 
29 1 8.57677 2.19807 2.1936 
30 1 9.28373 1.48412 1.49141 
1 1 6.18087 4.61166 6.20429 
2 1 7.69715 3.0779 7.69262 
3 1 6.98802 3.7952 6.99656 
40 1 10.0323 0.733198 10.0532 
41 1 8.50389 2.26056 8.50285 
42 1 9.20757 1.55735 9.21664 
7 1 6.16714 6.16303 4.60151 
8 1 7.67785 7.6776 3.08529 
9 1 6.97168 6.96964 3.79403 
43 1 10.0352 10.035 0.754828 
44 1 8.49082 8.49212 2.27516 
45 1 9.20157 9.20216 1.57548 
22 1 6.24837 6.25434 6.23562 
23 1 7.78085 7.78242 7.77807 
24 1 7.07464 7.07824 7.06727 
34 1 10.0989 10.0979 10.117 
35 1 8.59209 8.59162 8.59144 
36 1 9.29701 9.29627 9.30513 
ITEM: TIMESTEP
90
ITEM: NUMBER OF ATOMS
50
ITEM: BOX BOUNDS pp pp pp
-5.3651341269559164e-04 1.1000536513412696e+01
-5.3553952687232433e-04 1.1002535539526873e+01
-5.5000000000000014e-04 1.1000550000000000e+01
ITEM: ATOMS id type x y z 
10 1 4.58298 4.57789 4.62868 
11 1 3.02655 3.03087 3.17079 
12 1 3.71301 3.71749 3.91817 
46 1 0.730739 0.728469 0.744422 
47 1 2.27024 2.26994 2.26742 
48 1 1.56115 1.55993 1.56532 
49 2 4.96095 4.90786 2.90881 
50 3 5.05647 4.95524 1.98105 
19 1 4.54701 4.5502 6.28034 
20 1 2.9984 2.99891 7.7851 
21 1 3.7118 3.71355 7.0919 
31 1 0.670296 0.667923 10.1081 
32 1 2.18063 2.18003 8.58854 
33 1 1.4746 1.47317 9.29889 
16 1 4.53015 6.23225 4.56486 
17 1 3.01051 7.76796 3.01358 
18 1 3.71026 7.06081 3.72791 
25 1 0.672113 10.0896 0.689814 
26 1 2.19881 8.57824 2.19521 
27 1 1.48531 9.28455 1.49167 
4 1 4.60708 6.18327 6.19409 
5 1 3.07851 7.69721 7.69027 
6 1 3.79345 6.98912 6.99048 
37 1 0.735642 10.0325 10.0532 
38 1 2.26236 8.50343 8.50232 
39 1 1.55947 9.20741 9.21633 
13 1 6.24202 4.52499 4.57797 
14 1 7.77037 3.00944 3.01551 
15 1 7.06657 3.70735 3.73503 
28 1 10.0902 0.669671 0.690361 
29 1 8.57707 2.19775 2.19327 
30 1 9.2841 1.48373 1.49101 
1 1 6.18093 4.61157 6.20436 
2 1 7.69736 3.07766 7.69284 
3 1 6.98817 3.79503 6.99671 
40 1 10.0327 0.732734 10.0537 
41 1 8.50418 2.26024 8.50315 
42 1 9.20793 1.55697 9.21701 
7 1 6.16721 6.16309 4.60142 
8 1 7.67807 7.67781 3.08505 
9 1 6.97183 6.96978 3.79385 
43 1 10.0357 10.0354 0.754353 
44 1 8.49111 8.49241 2.27484 
45 1 9.20193 9.20253 1.57509 
22 1 6.24844 6.25442 6.2357 
23 1 7.78107 7.78264 7.7783 
24 1 7.07479 7.07839 7.06742 
34 1 10.0994 10.0983 10.1175 
35 1 8.59239 8.59192 8.59175 
36 1 9.29738 9.29664 9.30551 
ITEM: TIMESTEP
100
ITEM: NUMBER OF ATOMS
50
ITEM: BOX BOUNDS pp pp pp
-4.2809668538336901e-03 1.1004280966853836e+01
-4.0649382867983617e-03 1.1006064938286801e+01
-5.2079278468118353e-03 1.1005207927846817e+01
ITEM: ATOMS id type x y z 
10 1 4.58282 4.57777 4.62826 
11 1 3.02491 3.02933 3.16908 
12 1 3.71162 3.71616 3.91662 
46 1 0.727097 0.725009 0.739944 
47 1 2.26778 2.26761 2.2645 
48 1 1.55814 1.55707 1.56176 
49 2 4.9605 4.9074 2.90655 
50 3 5.05632 4.95507 1.97793 
19 1 4.54675 4.54996 6.28056 
20 1 2.99695 2.99755 7.78684 
21 1 3.71085 3.71267 7.09295 
31 1 0.666524 0.664357 10.1125 
32 1 2.17826 2.17781 8.59132 
33 1 1.47202 1.47071 9.30186 
16 1 4.52989 6.23238 4.56445 
17 1 3.009 7.76919 3.01172 
18 1 3.70935 7.06154 3.72665 
25 1 0.668357 10.093 0.685251 
26 1 2.19646 8.58038 2.19229 
27 1 1.48268 9.28676 1.48844 
4 1 4.60699 6.18326 6.1942 
5 1 3.07706 7.69853 7.69199 
6 1 3.79202 6.99015 6.99191 
37 1 0.731993 10.0358 10.0575 
38 1 2.25994 8.50557 8.5051 
39 1 1.55652 9.21011 9.21974 
13 1 6.24217 4.52477 4.57755 
14 1 7.7717 3.00801 3.01365 
15 1 7.06739 3.70652 3.73379 
28 1 10.0938 0.666107 0.68581 
29 1 8.57935 2.19552 2.19036 
30 1 9.28644 1.48125 1.48775 
1 1 6.18095 4.61145 6.20441 
2 1 7.69875 3.07624 7.69451 
3 1 6.98927 3.7938 6.99826 
40 1 10.0362 0.729258 10.0579 
41 1 8.50642 2.25793 8.50593 
42 1 9.21078 1.5542 9.22043 
7 1 6.16721 6.16305 4.6012 
8 1 7.67939 7.67903 3.0831 
9 1 6.973 6.97093 3.79232 
43 1 10.0392 10.0387 0.749967 
44 1 8.49338 8.49453 2.27193 
45 1 9.20467 9.20518 1.57147 
22 1 6.24855 6.25448 6.23596 
23 1 7.78244 7.78392 7.77998 
24 1 7.07557 7.07913 7.06853 
34 1 10.1029 10.1017 10.1219 
35 1 8.59462 8.59405 8.59457 
36 1 9.29985 9.29894 9.30853 
ITEM: TIMESTEP
110
ITEM: NUMBER OF ATOMS
50
ITEM: BOX BOUNDS pp pp pp
-6.9747201614084060e-03 1.1006974720161413e+01
-6.3047718830313822e-03 1.1008304771883035e+01
-8.6859020278218999e-03 1.1008685902027830e+01
ITEM: ATOMS id type x y z 
10 1 4.5834 4.57843 4.62825 
11 1 3.02371 3.02834 3.16814 
12 1 3.71037 3.71502 3.91514 
46 1 0.72388 0.72218 0.735917 
47 1 2.26525 2.26536 2.26177 
48 1 1.55585 1.55512 1.55917 
49 2 4.96002 4.90693 2.90479 
50 3 5.05648 4.9553 1.97538 
19 1 4.54718 4.55045 6.27995 
20 1 2.99659 2.99741 7.78746 
21 1 3.71035 3.71233 7.09367 
31 1 0.663092 0.661323 10.1165 
32 1 2.17642 2.17624 8.59353 
33 1 1.47043 1.46945 9.30386 
16 1 4.53042 6.23189 4.5647 
17 1 3.00859 7.76926 3.01097 
18 1 3.70875 7.0619 3.72592 
25 1 0.664906 10.0959 0.681137 
26 1 2.19456 8.58191 2.18995 
27 1 1.48106 9.28796 1.48626 
4 1 4.60754 6.18239 6.19359 
5 1 3.07612 7.69911 7.69312 
6 1 3.79089 6.99116 6.99322 
37 1 0.728741 10.0386 10.0613 
38 1 2.25754 8.50764 8.50784 
39 1 1.55431 9.21188 9.22239 
13 1 6.24172 4.52541 4.57778 
14 1 7.77201 3.00778 3.01295 
15 1 7.06786 3.70604 3.73301 
28 1 10.0971 0.663072 0.681706 
29 1 8.58115 2.1939 2.18804 
30 1 9.28795 1.47996 1.48557 
1 1 6.18019 4.61209 6.20378 
2 1 7.69955 3.07558 7.6957 
3 1 6.99034 3.7927 6.99952 
40 1 10.0394 0.72641 10.0617 
41 1 8.50875 2.25581 8.50866 
42 1 9.21284 1.55229 9.22307 
7 1 6.16656 6.16237 4.60192 
8 1 7.68015 7.67964 3.08184 
9 1 6.97407 6.9718 3.79085 
43 1 10.0423 10.0415 0.746083 
44 1 8.49565 8.49654 2.2691 
45 1 9.20674 9.20693 1.56877 
22 1 6.24792 6.25378 6.23569 
23 1 7.78277 7.7841 7.78061 
24 1 7.07616 7.07954 7.06925 
34 1 10.1063 10.1047 10.126 
35 1 8.59643 8.5956 8.59684 
36 1 9.30138 9.30016 9.31063 
ITEM: TIMESTEP
120
ITEM: NUMBER OF ATOMS
50
ITEM: BOX BOUNDS pp pp pp
-1.1531171750757704e-02 1.1011531171750764e+01
-1.0379094308706463e-02 1.1012379094308709e+01
-1.2081218630384390e-02 1.1012081218630392e+01
ITEM: ATOMS id type x y z 
10 1 4.58397 4.57907 4.62791 
11 1 3.02155 3.02639 3.16743 
12 1 3.70836 3.7131 3.91346 
46 1 0.71867 0.717382 0.731521 
47 1 2.2611 2.26152 2.25885 
48 1 1.55211 1.55174 1.55667 
49 2 4.95916 4.90607 2.90309 
50 3 5.05675 4.95568 1.97276 
19 1 4.54773 4.55104 6.27883 
20 1 2.99591 2.99696 7.78766 
21 1 3.7093 3.71145 7.09421 
31 1 0.657772 0.656401 10.1205 
32 1 2.17341 2.17347 8.59568 
33 1 1.46766 1.46712 9.3058 
16 1 4.53109 6.23132 4.56538 
17 1 3.00775 7.76961 3.01075 
18 1 3.70762 7.06277 3.72521 
25 1 0.65948 10.1005 0.676848 
26 1 2.1914 8.58445 2.18761 
27 1 1.47835 9.29046 1.4843 
4 1 4.60814 6.18154 6.19262 
5 1 3.07455 7.70054 7.69411 
6 1 3.78884 6.99247 6.99475 
37 1 0.723536 10.0433 10.0654 
38 1 2.25371 8.51116 8.51091 
39 1 1.55072 9.2148 9.22501 
13 1 6.24114 4.52617 4.5784 
14 1 7.7726 3.00708 3.0128 
15 1 7.06889 3.70511 3.73229 
28 1 10.102 0.658116 0.677403 
29 1 8.58398 2.19105 2.18571 
30 1 9.29077 1.47757 1.48364 
1 1 6.17925 4.61265 6.20285 
2 1 7.70095 3.07419 7.6969 
3 1 6.99218 3.7909 7.00077 
40 1 10.0444 0.721569 10.0659 
41 1 8.5124 2.25219 8.51179 
42 1 9.21631 1.54918 9.22557 
7 1 6.1659 6.16163 4.60302 
8 1 7.68153 7.68083 3.08061 
9 1 6.97578 6.97336 3.78941 
43 1 10.0474 10.0462 0.741914 
44 1 8.49927 8.49995 2.26594 
45 1 9.21011 9.20988 1.5662 
22 1 6.24714 6.25289 6.23508 
23 1 7.78354 7.7847 7.78073 
24 1 7.07725 7.08048 7.07008 
34 1 10.1114 10.1094 10.1302 
35 1 8.59942 8.59828 8.59907 
36 1 9.30397 9.30249 9.31276 
ITEM: TIMESTEP
130
ITEM: NUMBER OF ATOMS
50
ITEM: BOX BOUNDS pp pp pp
-1.5047560874342017e-02 1.1015047560874352e+01
-1.3696147873156428e-02 1.1015696147873157e+01
-1.4483097684951398e-02 1.1014483097684955e+01
ITEM: ATOMS id type x y z 
10 1 4.58411 4.57924 4.62727 
11 1 3.01981 3.02474 3.16693 
12 1 3.70687 3.71162 3.91224 
46 1 0.714769 0.713672 0.728465 
47 1 2.25803 2.25862 2.257 
48 1 1.54923 1.54898 1.55489 
49 2 4.95842 4.90532 2.90187 
50 3 5.05702 4.95603 1.97091 
19 1 4.54808 4.55141 6.27801 
20 1 2.99532 2.9965 7.78784 
21 1 3.70848 3.71065 7.09446 
31 1 0.653965 0.652828 10.1233 
32 1 2.1712 2.17144 8.5973 
33 1 1.46543 1.46493 9.30689 
16 1 4.53143 6.23101 4.5659 
17 1 3.00686 7.77013 3.01061 
18 1 3.70687 7.06348 3.72456 
25 1 0.655668 10.1041 0.674043 
26 1 2.18914 8.58661 2.18606 
27 1 1.47597 9.29224 1.48282 
4 1 4.60826 6.18102 6.1922 
5 1 3.07326 7.7017 7.69492 
6 1 3.78734 6.99361 6.99573 
37 1 0.719542 10.0468 10.0683 
38 1 2.25079 8.51368 8.51307 
39 1 1.54818 9.21741 9.22677 
13 1 6.24082 4.52661 4.57882 
14 1 7.77324 3.00631 3.01265 
15 1 7.06965 3.70429 3.73174 
28 1 10.1055 0.654391 0.67453 
29 1 8.58608 2.18878 2.1841 
30 1 9.29306 1.47558 1.48229 
1 1 6.17877 4.61282 6.20245 
2 1 7.70215 3.07308 7.69784 
3 1 6.99341 3.78933 7.00158 
40 1 10.0483 0.717849 10.0687 
41 1 8.51526 2.2495 8.51381 
42 1 9.21863 1.54658 9.22757 
7 1 6.1657 6.16136 4.6036 
8 1 7.68265 7.68185 3.07965 
9 1 6.97705 6.97461 3.78848 
43 1 10.0512 10.0498 0.739057 
44 1 8.50199 8.50248 2.26381 
45 1 9.21255 9.2123 1.56432 
22 1 6.24668 6.25236 6.23473 
23 1 7.78434 7.78542 7.78087 
24 1 7.07806 7.08125 7.07074 
34 1 10.1152 10.1129 10.1329 
35 1 8.6017 8.60039 8.60059 
36 1 9.30596 9.30445 9.31438 
ITEM: TIMESTEP
140
ITEM: NUMBER OF ATOMS
50
ITEM: BOX BOUNDS pp pp pp
-1.8728085918602654e-02 1.1018728085918614e+01
-1.7213637177919100e-02 1.1019213637177918e+01
-1.7210442707856391e-02 1.1017210442707860e+01
ITEM: ATOMS id type x y z 
10 1 4.58429 4.57945 4.62578 
11 1 3.01773 3.02271 3.16658 
12 1 3.7052 3.70989 3.91056 
46 1 0.710284 0.709332 0.724786 
47 1 2.25421 2.25494 2.25517 
48 1 1.54605 1.54597 1.55253 
49 2 4.95727 4.90415 2.90032 
50 3 5.0578 4.95702 1.96865 
19 1 4.5489 4.55221 6.27659 
20 1 2.99517 2.99647 7.78791 
21 1 3.70779 3.70999 7.09436 
31 1 0.649779 0.648899 10.126 
32 1 2.16878 2.1692 8.59873 
33 1 1.46367 1.46313 9.30863 
16 1 4.53234 6.23038 4.56664 
17 1 3.00631 7.77033 3.01063 
18 1 3.70603 7.06418 3.72413 
25 1 0.651598 10.1078 0.670935 
26 1 2.18672 8.5889 2.18437 
27 1 1.47367 9.29399 1.48125 
4 1 4.60846 6.18034 6.19176 
5 1 3.07194 7.70302 7.69583 
6 1 3.78557 6.9948 6.99709 
37 1 0.715004 10.0509 10.0719 
38 1 2.24745 8.51668 8.51569 
39 1 1.54547 9.22018 9.22893 
13 1 6.2402 4.52756 4.5795 
14 1 7.77371 3.0057 3.01279 
15 1 7.07023 3.70352 3.73116 
28 1 10.1092 0.650404 0.671249 
29 1 8.58824 2.18635 2.1823 
30 1 9.29544 1.47362 1.48099 
1 1 6.17805 4.61297 6.20203 
2 1 7.70337 3.07192 7.69899 
3 1 6.99487 3.78754 7.00263 
40 1 10.0526 0.713496 10.0722 
41 1 8.51842 2.24632 8.51633 
42 1 9.22139 1.5439 9.2299 
7 1 6.16564 6.16127 4.60471 
8 1 7.68387 7.68297 3.07873 
9 1 6.97833 6.97586 3.78697 
43 1 10.0555 10.0539 0.735548 
44 1 8.50501 8.50537 2.26115 
45 1 9.21532 9.21501 1.56232 
22 1 6.24573 6.25128 6.2344 
23 1 7.7849 7.7859 7.78091 
24 1 7.0789 7.08213 7.07117 
34 1 10.1192 10.1167 10.1361 
35 1 8.60417 8.60268 8.60229 
36 1 9.30784 9.30639 9.31626 
ITEM: TIMESTEP
150
ITEM: NUMBER OF ATOMS
50
ITEM: BOX BOUNDS pp pp pp
-2.0436166707504543e-02 1.1020436166707515e+01
-1.8854386648941620e-02 1.1020854386648942e+01
-1.9536929025203015e-02 1.1019536929025207e+01
ITEM: ATOMS id type x y z 
10 1 4.58434 4.57952 4.62415 
11 1 3.01644 3.02142 3.16618 
12 1 3.70438 3.70897 3.90913 
46 1 0.708083 0.707166 0.721836 
47 1 2.252 2.25282 2.25385 
48 1 1.5443 1.54432 1.55089 
49 2 4.95635 4.9032 2.89872 
50 3 5.05872 4.95817 1.96673 
19 1 4.5494 4.55265 6.27531 
20 1 2.99534 2.99668 7.78802 
21 1 3.70783 3.71006 7.09473 
31 1 0.648328 0.647186 10.1281 
32 1 2.16813 2.16844 8.60026 
33 1 1.46252 1.46233 9.30929 
16 1 4.53305 6.22985 4.56694 
17 1 3.0061 7.77026 3.01034 
18 1 3.70594 7.06435 3.72378 
25 1 0.649703 10.1092 0.668473 
26 1 2.18557 8.58967 2.18292 
27 1 1.47285 9.29511 1.48019 
4 1 4.60797 6.17969 6.19187 
5 1 3.07106 7.70335 7.69687 
6 1 3.78505 6.99607 6.99797 
37 1 0.712835 10.0532 10.0746 
38 1 2.24603 8.51839 8.51762 
39 1 1.54362 9.2214 9.23088 