ITEM: TIMESTEP
0
ITEM: NUMBER OF ATOMS
34
ITEM: BOX BOUNDS pp pp pp
0.0000000000000000e+00 7.0970000000000004e+00
0.0000000000000000e+00 7.0970000000000004e+00
0.0000000000000000e+00 2.4588000000000001e+01
ITEM: ATOMS id type x y z 
2 1 3.339 1.632 13.319 
5 1 4.651 1.581 18.133 
7 1 3.391 1.602 15.981 
8 1 2.166 1.581 18.134 
18 1 3.408 1.581 17.416 
21 1 3.338 2.875 12.602 
23 1 3.367 1.619 14.753 
24 1 3.338 0.39 12.601 
17 1 7.023 2.875 24.28 
19 1 6.997 1.619 22.129 
20 1 7.023 0.39 24.281 
22 1 6.957 1.581 19.466 
25 1 5.714 1.581 18.748 
27 1 6.974 1.602 20.9 
28 1 1.102 1.581 18.748 
30 1 7.024 1.631 23.563 
10 1 6.954 5.232 5.122 
13 1 7.023 3.938 0.307 
15 1 6.994 5.194 2.459 
16 1 7.023 6.423 0.307 
26 1 7.022 5.181 1.025 
29 1 5.711 5.232 5.839 
31 1 6.97 5.211 3.688 
32 1 1.098 5.232 5.84 
33 2 4.045 5.55 5.293 
34 3 4.045 5.55 4.317 
1 1 4.647 5.232 6.454 
3 1 3.388 5.211 8.606 
4 1 2.163 5.232 6.454 
6 1 3.338 5.182 11.269 
9 1 3.338 3.939 11.986 
11 1 3.365 5.194 9.834 
12 1 3.338 6.423 11.987 
14 1 3.404 5.232 7.171 
ITEM: TIMESTEP
10
ITEM: NUMBER OF ATOMS
34
ITEM: BOX BOUNDS pp pp pp
0.0000000000000000e+00 7.0970000000000004e+00
0.0000000000000000e+00 7.0970000000000004e+00
0.0000000000000000e+00 2.4588000000000001e+01
ITEM: ATOMS id type x y z 
2 1 3.33935 1.63361 13.3212 
5 1 4.65391 1.58093 18.1333 
7 1 3.3912 1.60159 15.9811 
8 1 2.16539 1.58093 18.1358 
18 1 3.40792 1.58122 17.4159 
21 1 3.33689 2.88656 12.599 
23 1 3.3681 1.61971 14.7554 
24 1 3.33681 0.395312 12.6 
17 1 7.0237 2.87056 24.2757 
19 1 6.99593 1.61961 22.1187 
20 1 7.02357 0.394815 24.2809 
22 1 6.95655 1.58135 19.4652 
25 1 5.7117 1.58093 18.7481 
27 1 6.97366 1.60145 20.9079 
28 1 1.10267 1.58078 18.7461 
30 1 7.02391 1.63244 23.5624 
10 1 6.92735 5.22891 5.13319 
13 1 7.02306 3.9316 0.304493 
15 1 6.99487 5.19425 2.44298 
16 1 7.02304 6.42824 0.300601 
26 1 7.02261 5.18018 0.993252 
29 1 5.77431 5.23507 5.81116 
31 1 6.97137 5.21009 3.66011 
32 1 1.11802 5.23207 5.8506 
33 2 4.05269 5.52844 5.1778 
34 3 3.98332 5.58327 4.25027 
1 1 4.70366 5.22632 6.63704 
3 1 3.38554 5.20973 8.62629 
4 1 2.14736 5.23202 6.45075 
6 1 3.33861 5.18046 11.2747 
9 1 3.33842 3.9214 11.9917 
11 1 3.36372 5.19242 9.85016 
12 1 3.33858 6.42303 11.9913 
14 1 3.36018 5.22973 7.21881 
ITEM: TIMESTEP
20
ITEM: NUMBER OF ATOMS
34
ITEM: BOX BOUNDS pp pp pp
0.0000000000000000e+00 7.0970000000000004e+00
0.0000000000000000e+00 7.0970000000000004e+00
0.0000000000000000e+00 2.4588000000000001e+01
ITEM: ATOMS id type x y z 
2 1 3.33836 1.63263 13.3227 
5 1 4.65661 1.58084 18.1346 
7 1 3.39261 1.60238 15.9844 
8 1 2.16216 1.58069 18.1387 
18 1 3.40836 1.5809 17.4191 
21 1 3.33849 2.87527 12.6059 
23 1 3.36669 1.61976 14.7579 
24 1 3.33767 0.393517 12.5988 
17 1 7.02373 2.87468 24.2785 
19 1 6.9964 1.6194 22.1189 
20 1 7.02377 0.391844 24.283 
22 1 6.95704 1.58089 19.4623 
25 1 5.70797 1.58085 18.7463 
27 1 6.97265 1.60231 20.9 
28 1 1.10601 1.58071 18.7434 
30 1 7.02383 1.63193 23.5566 
10 1 6.94574 5.23188 5.1127 
13 1 7.02328 3.93177 0.301516 
15 1 6.99505 5.19419 2.44117 
16 1 7.02338 6.42743 0.298164 
26 1 7.02262 5.18039 1.00167 
29 1 5.69744 5.2271 5.9133 
31 1 6.97161 5.2105 3.65665 
32 1 1.0973 5.23038 5.83582 
33 2 4.0149 5.54126 5.06711 
34 3 3.9526 5.59735 4.18868 
1 1 4.77829 5.20783 6.7268 
3 1 3.37805 5.20853 8.63511 
4 1 2.152 5.23191 6.45278 
6 1 3.33925 5.18077 11.2847 
9 1 3.33802 3.92827 11.9885 
11 1 3.36096 5.19273 9.85589 
12 1 3.33813 6.42897 11.9961 
14 1 3.437 5.2291 7.20412 
ITEM: TIMESTEP
30
ITEM: NUMBER OF ATOMS
34
ITEM: BOX BOUNDS pp pp pp
0.0000000000000000e+00 7.0970000000000004e+00
0.0000000000000000e+00 7.0970000000000004e+00
0.0000000000000000e+00 2.4588000000000001e+01
ITEM: ATOMS id type x y z 
2 1 3.33898 1.62934 13.3256 
5 1 4.65511 1.57951 18.1337 
7 1 3.39083 1.59905 15.9812 
8 1 2.16508 1.57872 18.1389 
18 1 3.40791 1.58308 17.4205 
21 1 3.32816 2.88096 12.6079 
23 1 3.3719 1.62679 14.7633 
24 1 3.33825 0.389514 12.5993 
17 1 7.02187 2.88129 24.283 
19 1 6.98861 1.62471 22.1211 
20 1 7.02335 0.383873 24.2846 
22 1 6.95666 1.58476 19.4634 
25 1 5.71011 1.57961 18.7475 
27 1 6.97482 1.59721 20.9012 
28 1 1.10413 1.57945 18.7423 
30 1 7.029 1.63119 23.5615 
10 1 6.9433 5.22475 5.14726 
13 1 7.02467 3.93948 0.301406 
15 1 6.99182 5.19341 2.47749 
16 1 7.02508 6.42131 0.300981 
26 1 7.02312 5.18087 1.0368 
29 1 5.77696 5.21714 5.98845 
31 1 6.9584 5.2121 3.69887 
32 1 1.11719 5.23903 5.83946 
33 2 3.98521 5.54694 4.99916 
34 3 3.90401 5.61789 4.08764 
1 1 4.7874 5.20107 6.69588 
3 1 3.36954 5.20843 8.61723 
4 1 2.1832 5.22575 6.45521 
6 1 3.34114 5.18265 11.2786 
9 1 3.34648 3.93178 11.988 
11 1 3.34954 5.18776 9.83473 
12 1 3.3367 6.42503 11.9959 
14 1 3.40949 5.22453 7.19395 
ITEM: TIMESTEP
40
ITEM: NUMBER OF ATOMS
34
ITEM: BOX BOUNDS pp pp pp
0.0000000000000000e+00 7.0970000000000004e+00
0.0000000000000000e+00 7.0970000000000004e+00
0.0000000000000000e+00 2.4588000000000001e+01
ITEM: ATOMS id type x y z 
2 1 3.33288 1.63673 13.3247 
5 1 4.6581 1.57784 18.1349 
7 1 3.39498 1.60471 15.9803 
8 1 2.1623 1.5794 18.1407 
18 1 3.40995 1.58237 17.4174 
21 1 3.35039 2.88039 12.6122 
23 1 3.36544 1.62238 14.7599 
24 1 3.33643 0.389657 12.6003 
17 1 7.02605 2.88515 24.2833 
19 1 7.01194 1.61495 22.1329 
20 1 7.02332 0.380577 24.2866 
22 1 6.95689 1.57763 19.4733 
25 1 5.71209 1.57732 18.7501 
27 1 6.95876 1.61872 20.9139 
28 1 1.10193 1.57674 18.7443 
30 1 7.01659 1.63329 23.5765 
10 1 6.96464 5.22807 5.15944 
13 1 7.02518 3.93985 0.311214 
15 1 6.97925 5.19597 2.48764 
16 1 7.02566 6.41976 0.308992 
26 1 7.02483 5.17994 1.04352 
29 1 5.81862 5.21661 6.0261 
31 1 6.95052 5.20633 3.70832 
32 1 1.12983 5.22516 5.83858 
33 2 3.99009 5.54206 4.94781 
34 3 3.85397 5.63718 4.02879 
1 1 4.76604 5.20297 6.64902 
3 1 3.3545 5.20179 8.62428 
4 1 2.193 5.22852 6.44043 
6 1 3.33855 5.17566 11.2756 
9 1 3.32872 3.92982 11.9881 
11 1 3.35014 5.19259 9.84798 
12 1 3.34131 6.42677 11.9978 
14 1 3.42511 5.2221 7.19718 
ITEM: TIMESTEP
50
ITEM: NUMBER OF ATOMS
34
ITEM: BOX BOUNDS pp pp pp
0.0000000000000000e+00 7.0970000000000004e+00
0.0000000000000000e+00 7.0970000000000004e+00
0.0000000000000000e+00 2.4588000000000001e+01
ITEM: ATOMS id type x y z 
2 1 3.33633 1.63177 13.3271 
5 1 4.66192 1.57725 18.1321 
7 1 3.39636 1.60584 15.9848 
8 1 2.16204 1.57913 18.1436 
18 1 3.40801 1.57839 17.4226 
21 1 3.34029 2.88184 12.6176 
23 1 3.367 1.6237 14.7648 
24 1 3.33407 0.393273 12.597 
17 1 7.02656 2.89037 24.2835 
19 1 6.9942 1.62083 22.1383 
20 1 7.02393 0.378651 24.2902 
22 1 6.95838 1.58112 19.4767 
25 1 5.70991 1.58133 18.7569 
27 1 6.96668 1.60438 20.9187 
28 1 1.10066 1.57951 18.7462 
30 1 7.02684 1.63233 23.58 
10 1 6.97416 5.22602 5.16333 
13 1 7.0231 3.93753 0.321844 
15 1 6.97746 5.19369 2.49555 
16 1 7.02375 6.41952 0.313855 
26 1 7.02509 5.18268 1.05109 
29 1 5.82847 5.20974 6.03107 
31 1 6.94188 5.20929 3.71417 
32 1 1.14477 5.22476 5.83434 
33 2 4.00221 5.53691 4.9018 
34 3 3.81409 5.65152 3.99452 
1 1 4.7636 5.20892 6.63275 
3 1 3.34979 5.20497 8.62541 
4 1 2.20608 5.22483 6.43772 
6 1 3.33611 5.1805 11.2799 
9 1 3.33861 3.926 11.9861 
11 1 3.34343 5.19253 9.84722 
12 1 3.34073 6.42308 12.0054 
14 1 3.4315 5.2168 7.19589 
ITEM: TIMESTEP
60
ITEM: NUMBER OF ATOMS
34
ITEM: BOX BOUNDS pp pp pp
0.0000000000000000e+00 7.0970000000000004e+00
0.0000000000000000e+00 7.0970000000000004e+00
0.0000000000000000e+00 2.4588000000000001e+01
ITEM: ATOMS id type x y z 
2 1 3.33833 1.63288 13.3291 
5 1 4.66125 1.57808 18.1352 
7 1 3.39545 1.60428 15.9872 
8 1 2.16091 1.57944 18.1442 
18 1 3.40935 1.57807 17.4251 
21 1 3.33819 2.87925 12.6146 
23 1 3.36775 1.6231 14.7672 
24 1 3.3342 0.392363 12.6004 
17 1 7.02594 2.88876 24.2877 
19 1 6.99432 1.62092 22.1393 
20 1 7.02445 0.379304 24.2923 
22 1 6.9568 1.58053 19.4791 
25 1 5.71148 1.58171 18.7568 
27 1 6.96775 1.60354 20.9194 
28 1 1.10093 1.58019 18.7487 
30 1 7.02599 1.63336 23.5794 
10 1 6.97736 5.2252 5.16195 
13 1 7.02375 3.93761 0.323159 
15 1 6.97583 5.1929 2.49622 
16 1 7.02502 6.42041 0.316129 
26 1 7.02264 5.18262 1.05221 
29 1 5.82565 5.20989 6.02181 
31 1 6.94118 5.20956 3.71501 
32 1 1.15011 5.22442 5.83212 
33 2 4.01175 5.53375 4.889 
34 3 3.79956 5.65614 3.98662 
1 1 4.76287 5.21015 6.62702 
3 1 3.34955 5.20394 8.62624 
4 1 2.21045 5.22354 6.43703 
6 1 3.33616 5.17961 11.2821 
9 1 3.33755 3.92805 11.9904 
11 1 3.34346 5.19387 9.84791 
12 1 3.33916 6.42467 12.0043 
14 1 3.43288 5.21689 7.19702 
ITEM: TIMESTEP
70
ITEM: NUMBER OF ATOMS
34
ITEM: BOX BOUNDS pp pp pp
0.0000000000000000e+00 7.0970000000000004e+00
0.0000000000000000e+00 7.0970000000000004e+00
0.0000000000000000e+00 2.4588000000000001e+01
ITEM: ATOMS id type x y z 
2 1 3.33925 1.63227 13.3388 
5 1 4.65901 1.57976 18.1478 
7 1 3.39324 1.6011 15.9973 
8 1 2.15872 1.57895 18.1495 
18 1 3.40824 1.57868 17.4357 
21 1 3.33591 2.87128 12.6083 
23 1 3.36983 1.62065 14.7773 
24 1 3.33827 0.39093 12.6133 
17 1 7.02403 2.88248 24.303 
19 1 6.99647 1.62102 22.1468 
20 1 7.02492 0.382497 24.3026 
22 1 6.95724 1.5809 19.4872 
25 1 5.71465 1.58131 18.76 
27 1 6.97094 1.6026 20.9268 
28 1 1.10179 1.58048 18.7597 
30 1 7.02743 1.63406 23.5868 
10 1 6.99351 5.22019 5.1582 
13 1 7.02183 3.93528 0.332287 
15 1 6.97354 5.20256 2.49564 
16 1 7.02099 6.42372 0.326498 
26 1 7.01655 5.18187 1.05489 
29 1 5.81894 5.21318 5.98352 
31 1 6.93908 5.20313 3.71494 
32 1 1.17269 5.22097 5.8213 
33 2 4.05187 5.52012 4.82427 
34 3 3.73113 5.67682 3.95277 
1 1 4.75302 5.21447 6.58353 
3 1 3.35477 5.20333 8.63297 
4 1 2.22946 5.21987 6.43218 
6 1 3.33002 5.1813 11.2915 
9 1 3.33455 3.93309 12.0067 
11 1 3.33639 5.19406 9.8538 
12 1 3.33515 6.4302 12.0045 
14 1 3.44455 5.21588 7.20174 
ITEM: TIMESTEP
80
ITEM: NUMBER OF ATOMS
34
ITEM: BOX BOUNDS pp pp pp
0.0000000000000000e+00 7.0970000000000004e+00
0.0000000000000000e+00 7.0970000000000004e+00
0.0000000000000000e+00 2.4588000000000001e+01
ITEM: ATOMS id type x y z 
2 1 3.34134 1.63213 13.3392 
5 1 4.65895 1.57989 18.1489 
7 1 3.39358 1.60158 15.9979 
8 1 2.15882 1.57937 18.1507 
18 1 3.4083 1.57855 17.4364 
21 1 3.33694 2.8723 12.6104 
23 1 3.36969 1.62083 14.7779 
24 1 3.33686 0.390579 12.6141 
17 1 7.02442 2.88312 24.304 
19 1 6.99715 1.62106 22.1478 
20 1 7.02383 0.383673 24.3032 
22 1 6.95695 1.58155 19.488 
25 1 5.71483 1.57993 18.7609 
27 1 6.97064 1.60296 20.9279 
28 1 1.10175 1.5803 18.7606 
30 1 7.02821 1.63314 23.5873 
10 1 6.99518 5.21917 5.15807 
13 1 7.02037 3.93523 0.334061 
15 1 6.97486 5.19615 2.4959 
16 1 7.02065 6.42429 0.326387 
26 1 7.01547 5.18289 1.05461 
29 1 5.81977 5.21241 5.98146 
31 1 6.94026 5.20834 3.71507 
32 1 1.17458 5.2203 5.82145 
33 2 4.04906 5.52086 4.81741 
34 3 3.72771 5.67739 3.94952 
1 1 4.75196 5.2143 6.57843 
3 1 3.35399 5.20349 8.63338 
4 1 2.23119 5.21947 6.43256 
6 1 3.32837 5.18118 11.291 
9 1 3.33213 3.933 12.0069 
11 1 3.34256 5.19294 9.85425 
12 1 3.33261 6.4301 12.0047 
14 1 3.44502 5.21653 7.20191 
ITEM: TIMESTEP
90
ITEM: NUMBER OF ATOMS
34
ITEM: BOX BOUNDS pp pp pp
0.0000000000000000e+00 7.0970000000000004e+00
0.0000000000000000e+00 7.0970000000000004e+00
0.0000000000000000e+00 2.4588000000000001e+01
ITEM: ATOMS id type x y z 
2 1 3.34209 1.63236 13.3399 
5 1 4.6588 1.57949 18.1499 
7 1 3.39383 1.60163 15.9985 
8 1 2.15929 1.57943 18.1523 
18 1 3.40833 1.57859 17.437 
21 1 3.33648 2.87381 12.6134 
23 1 3.37011 1.62113 14.7784 
24 1 3.33663 0.390175 12.615 
17 1 7.02406 2.8826 24.3054 
19 1 6.99727 1.62131 22.1486 
20 1 7.02401 0.384131 24.3045 
22 1 6.95688 1.5814 19.4888 
25 1 5.71426 1.58033 18.7626 
27 1 6.97063 1.60308 20.9287 
28 1 1.10196 1.58022 18.7617 
30 1 7.02886 1.63373 23.5881 
10 1 6.99729 5.21977 5.15812 
13 1 7.01955 3.93541 0.334574 
15 1 6.97467 5.19719 2.49599 
16 1 7.01967 6.42451 0.326987 
26 1 7.01417 5.18193 1.05486 
29 1 5.82014 5.21195 5.97843 
31 1 6.94335 5.2064 3.71531 
32 1 1.1764 5.2198 5.82168 
33 2 4.0449 5.52181 4.81096 
34 3 3.72327 5.67821 3.94301 
1 1 4.75082 5.21387 6.57268 
3 1 3.35787 5.20291 8.63353 
4 1 2.23283 5.21916 6.43324 
6 1 3.32585 5.18096 11.2912 
9 1 3.33162 3.93284 12.0069 
11 1 3.34377 5.19177 9.85434 
12 1 3.33166 6.42966 12.0058 
14 1 3.44668 5.21743 7.20174 
ITEM: TIMESTEP
100
ITEM: NUMBER OF ATOMS
34
ITEM: BOX BOUNDS pp pp pp
0.0000000000000000e+00 7.0970000000000004e+00
0.0000000000000000e+00 7.0970000000000004e+00
0.0000000000000000e+00 2.4588000000000001e+01
ITEM: ATOMS id type x y z 
2 1 3.34239 1.63234 13.34 
5 1 4.65874 1.57947 18.1502 
7 1 3.39386 1.60168 15.9987 
8 1 2.1594 1.57944 18.1527 
18 1 3.40834 1.57857 17.4372 
21 1 3.33632 2.87402 12.6139 
23 1 3.37028 1.62117 14.7786 
24 1 3.3364 0.390058 12.6152 
17 1 7.024 2.88253 24.3057 
19 1 6.99736 1.62138 22.1488 
20 1 7.02391 0.384285 24.3047 
22 1 6.95688 1.5814 19.4891 
25 1 5.71412 1.58031 18.763 
27 1 6.97062 1.60312 20.9289 
28 1 1.10203 1.58021 18.7621 
30 1 7.02908 1.63361 23.5883 
10 1 6.99798 5.21943 5.15804 
13 1 7.01929 3.93536 0.33474 
15 1 6.97564 5.19602 2.49601 
16 1 7.01942 6.42452 0.327178 
26 1 7.01339 5.18252 1.0549 
29 1 5.82004 5.21186 5.97746 
31 1 6.94364 5.20715 3.7153 
32 1 1.17686 5.21975 5.82179 
33 2 4.04383 5.52205 4.80918 
34 3 3.72207 5.67842 3.94133 
1 1 4.75048 5.21393 6.57127 
3 1 3.35929 5.20276 8.63361 
4 1 2.23323 5.21918 6.43344 
6 1 3.32553 5.18085 11.2912 
9 1 3.33143 3.93288 12.0071 
11 1 3.34346 5.19187 9.85442 
12 1 3.33144 6.42954 12.0061 
14 1 3.44726 5.21732 7.20179 
ITEM: TIMESTEP
110
ITEM: NUMBER OF ATOMS
34
ITEM: BOX BOUNDS pp pp pp
0.0000000000000000e+00 7.0970000000000004e+00
0.0000000000000000e+00 7.0970000000000004e+00
0.0000000000000000e+00 2.4588000000000001e+01
ITEM: ATOMS id type x y z 
2 1 3.35 1.63057 13.3476 
5 1 4.65633 1.579 18.1619 
7 1 3.39585 1.60237 16.0059 
8 1 2.16281 1.57912 18.1667 
18 1 3.40841 1.57839 17.4449 
21 1 3.33275 2.87686 12.6267 
23 1 3.3753 1.62254 14.7858 
24 1 3.33613 0.384992 12.6242 
17 1 7.02187 2.87881 24.3156 
19 1 7.00057 1.62369 22.1559 
20 1 7.02395 0.386908 24.3131 
22 1 6.95646 1.58109 19.497 
25 1 5.70965 1.58047 18.7783 
27 1 6.97072 1.60428 20.9361 
28 1 1.10453 1.58023 18.7744 
30 1 7.03431 1.63678 23.5958 
10 1 7.02014 5.21452 5.15557 
13 1 7.01117 3.93382 0.34101 
15 1 6.97933 5.2003 2.49543 
16 1 7.00894 6.42697 0.335364 
26 1 6.99808 5.17965 1.05635 
29 1 5.81702 5.21101 5.93784 
31 1 6.97184 5.19903 3.71545 
32 1 1.19422 5.21791 5.82696 
33 2 4.00572 5.53035 4.74447 
34 3 3.67757 5.68627 3.87951 
1 1 4.74105 5.21323 6.51924 
3 1 3.40014 5.20414 8.63683 
4 1 2.24856 5.21742 6.44225 
6 1 3.30526 5.17829 11.2924 
9 1 3.32089 3.94176 12.0312 
11 1 3.35377 5.18675 9.85721 
12 1 3.31834 6.42682 12.0121 
14 1 3.46633 5.21466 7.20285 
ITEM: TIMESTEP
120
ITEM: NUMBER OF ATOMS
34
ITEM: BOX BOUNDS pp pp pp
0.0000000000000000e+00 7.0970000000000004e+00
0.0000000000000000e+00 7.0970000000000004e+00
0.0000000000000000e+00 2.4588000000000001e+01
ITEM: ATOMS id type x y z 
2 1 3.35029 1.63053 13.3468 
5 1 4.6563 1.57927 18.1619 
7 1 3.39595 1.60232 16.0059 
8 1 2.1629 1.57924 18.1668 
18 1 3.40834 1.57836 17.4449 
21 1 3.33377 2.87723 12.6275 
23 1 3.37518 1.62243 14.7859 
24 1 3.33403 0.384984 12.6249 
17 1 7.022 2.87893 24.3154 
19 1 7.00036 1.62373 22.1559 
20 1 7.02188 0.386837 24.3131 
22 1 6.95653 1.58126 19.4969 
25 1 5.70963 1.58015 18.7783 
27 1 6.97097 1.60435 20.9361 
28 1 1.10448 1.58002 18.7743 
30 1 7.03527 1.63509 23.5952 
10 1 7.02011 5.21375 5.15585 
13 1 7.01058 3.93411 0.341417 
15 1 6.9818 5.19792 2.49544 
16 1 7.01043 6.4271 0.334792 
26 1 6.99678 5.1814 1.05627 
29 1 5.8165 5.21072 5.93674 
31 1 6.97085 5.20202 3.71548 
32 1 1.19428 5.21732 5.82747 
33 2 4.0057 5.5303 4.74397 
34 3 3.67724 5.6863 3.87929 
1 1 4.74131 5.21342 6.51979 
3 1 3.39924 5.20094 8.63738 
4 1 2.24861 5.21761 6.44277 
6 1 3.30419 5.17884 11.2944 
9 1 3.3198 3.94113 12.0299 
11 1 3.35542 5.18793 9.85717 
12 1 3.32037 6.42709 12.0115 
14 1 3.46692 5.21638 7.20253 
ITEM: TIMESTEP
130
ITEM: NUMBER OF ATOMS
34
ITEM: BOX BOUNDS pp pp pp
0.0000000000000000e+00 7.0970000000000004e+00
0.0000000000000000e+00 7.0970000000000004e+00
0.0000000000000000e+00 2.4588000000000001e+01
ITEM: ATOMS id type x y z 
2 1 3.35014 1.63079 13.3467 
5 1 4.65602 1.5794 18.1622 
7 1 3.39603 1.6021 16.0058 
8 1 2.16319 1.57922 18.1671 
18 1 3.4083 1.57847 17.4448 
21 1 3.33356 2.87853 12.6298 
23 1 3.37526 1.62194 14.7857 
24 1 3.3341 0.385691 12.6256 
17 1 7.02176 2.87945 24.3152 
19 1 7.0006 1.62363 22.1555 
20 1 7.02186 0.387137 24.3123 
22 1 6.95656 1.58129 19.4966 
25 1 5.70949 1.58011 18.7783 
27 1 6.97145 1.60433 20.9356 
28 1 1.10444 1.58008 18.774 
30 1 7.03518 1.63422 23.5945 
10 1 7.02064 5.21429 5.15602 
13 1 7.01008 3.93413 0.341529 
15 1 6.98267 5.19593 2.49547 
16 1 7.01027 6.42736 0.334219 
26 1 6.99574 5.18223 1.05617 
29 1 5.81477 5.21089 5.93342 
31 1 6.97249 5.20329 3.71551 
32 1 1.19412 5.21641 5.82961 
33 2 4.00553 5.53009 4.74202 
34 3 3.67577 5.68638 3.87823 
1 1 4.74173 5.21302 6.5205 
3 1 3.4011 5.20065 8.63899 
4 1 2.24857 5.21707 6.44465 
6 1 3.30376 5.17961 11.2962 
9 1 3.31928 3.9389 12.0259 
11 1 3.35577 5.18663 9.85864 
12 1 3.31988 6.42791 12.0118 
14 1 3.46789 5.21782 7.20342 
ITEM: TIMESTEP
139
ITEM: NUMBER OF ATOMS
34
ITEM: BOX BOUNDS pp pp pp
0.0000000000000000e+00 7.0970000000000004e+00
0.0000000000000000e+00 7.0970000000000004e+00
0.0000000000000000e+00 2.4588000000000001e+01
ITEM: ATOMS id type x y z 
2 1 3.35032 1.63103 13.347 
5 1 4.65593 1.57933 18.1623 
7 1 3.39613 1.602 16.006 
8 1 2.16326 1.57924 18.1671 
18 1 3.4083 1.57853 17.4449 
21 1 3.33325 2.87886 12.6303 
23 1 3.37523 1.62174 14.7859 
24 1 3.33376 0.385961 12.6257 
17 1 7.02148 2.87963 24.315 
19 1 7.00085 1.6236 22.1554 
20 1 7.02159 0.387324 24.3123 
22 1 6.95658 1.58126 19.4965 
25 1 5.70945 1.58023 18.7783 
27 1 6.97159 1.60433 20.9355 
28 1 1.10442 1.58007 18.7739 
30 1 7.03548 1.63416 23.5942 
10 1 7.02087 5.21404 5.15597 
13 1 7.00988 3.93403 0.341447 
15 1 6.98342 5.1945 2.49556 
16 1 7.00975 6.42709 0.333962 
26 1 6.9955 5.183 1.05611 
29 1 5.81421 5.21087 5.93223 
31 1 6.97316 5.20415 3.71556 
32 1 1.19407 5.21612 5.83066 
33 2 4.00537 5.53002 4.74116 
34 3 3.67507 5.6864 3.87766 
1 1 4.7418 5.21376 6.52039 
3 1 3.40187 5.20046 8.63925 
4 1 2.24852 5.21724 6.44564 
6 1 3.30334 5.17977 11.2966 
9 1 3.31934 3.93835 12.0248 
11 1 3.35626 5.1862 9.85896 
12 1 3.3197 6.42808 12.0121 
14 1 3.46823 5.21762 7.20388 
ITEM: TIMESTEP
140
ITEM: NUMBER OF ATOMS
34
ITEM: BOX BOUNDS pp pp pp
0.0000000000000000e+00 7.0970000000000004e+00
0.0000000000000000e+00 7.0970000000000004e+00
0.0000000000000000e+00 2.4588000000000001e+01
ITEM: ATOMS id type x y z 
2 1 3.35031 1.63103 13.347 
5 1 4.65593 1.57933 18.1623 
7 1 3.39613 1.602 16.006 
8 1 2.16326 1.57924 18.1671 
18 1 3.4083 1.57853 17.4449 
21 1 3.33326 2.87886 12.6303 
23 1 3.37523 1.62174 14.7859 
24 1 3.33376 0.385962 12.6257 
17 1 7.02148 2.87963 24.315 
19 1 7.00085 1.6236 22.1554 
20 1 7.02159 0.387323 24.3123 
22 1 6.95658 1.58126 19.4965 
25 1 5.70945 1.58023 18.7783 
27 1 6.9716 1.60433 20.9355 
28 1 1.10442 1.58007 18.7739 
30 1 7.03548 1.63416 23.5942 
10 1 7.02088 5.21405 5.15597 
13 1 7.00987 3.93403 0.341447 
15 1 6.98341 5.1945 2.49555 
16 1 7.00975 6.42709 0.333961 
26 1 6.99551 5.183 1.05611 
29 1 5.81421 5.21087 5.93223 
31 1 6.97318 5.20415 3.71556 
32 1 1.19407 5.21612 5.83067 
33 2 4.00537 5.53002 4.74116 
34 3 3.67507 5.6864 3.87766 
1 1 4.7418 5.21377 6.52039 
3 1 3.40187 5.20046 8.63925 
4 1 2.24852 5.21724 6.44564 
6 1 3.30334 5.17977 11.2966 
9 1 3.31933 3.93835 12.0248 
11 1 3.35627 5.1862 9.85896 
12 1 3.3197 6.42808 12.0121 
14 1 3.46823 5.21762 7.20388 
ITEM: TIMESTEP
142
ITEM: NUMBER OF ATOMS
34
ITEM: BOX BOUNDS pp pp pp
0.0000000000000000e+00 7.0970000000000004e+00
0.0000000000000000e+00 7.0970000000000004e+00
0.0000000000000000e+00 2.4588000000000001e+01
ITEM: ATOMS id type x y z 
2 1 3.35028 1.63104 13.347 
5 1 4.65593 1.57934 18.1623 
7 1 3.39613 1.602 16.006 
8 1 2.16326 1.57925 18.1671 
18 1 3.4083 1.57852 17.4449 
21 1 3.33334 2.87886 12.6303 
23 1 3.37524 1.62173 14.7859 
24 1 3.33376 0.385968 12.6257 
17 1 7.02154 2.87964 24.315 
19 1 7.00085 1.6236 22.1554 
20 1 7.02158 0.387319 24.3123 
22 1 6.95658 1.58126 19.4965 
25 1 5.70945 1.58022 18.7783 
27 1 6.9716 1.60433 20.9355 
28 1 1.10442 1.58007 18.7739 
30 1 7.03546 1.63416 23.5942 
10 1 7.02088 5.21405 5.15598 
13 1 7.00982 3.93403 0.341447 
15 1 6.98343 5.19448 2.49555 
16 1 7.00974 6.4271 0.333951 
26 1 6.99551 5.18301 1.05611 
29 1 5.8142 5.21086 5.93221 
31 1 6.97318 5.20415 3.71556 
32 1 1.19407 5.21612 5.83068 
33 2 4.00537 5.53002 4.74114 
34 3 3.67506 5.6864 3.87765 
1 1 4.7418 5.21379 6.52039 
3 1 3.40189 5.20046 8.63926 
4 1 2.24851 5.21724 6.44566 
6 1 3.30333 5.17977 11.2966 
9 1 3.31928 3.93834 12.0248 
11 1 3.35628 5.18619 9.85897 
12 1 3.3197 6.42808 12.0121 
14 1 3.46823 5.21761 7.20389 
ITEM: TIMESTEP
150
ITEM: NUMBER OF ATOMS
34
ITEM: BOX BOUNDS pp pp pp
-1.5767983327464720e-03 7.0985767983327470e+00
-1.5065406137967851e-03 7.0985065406137977e+00
-9.8352000000000023e-03 2.4597835199999999e+01
ITEM: ATOMS id type x y z 
2 1 3.35019 1.63022 13.3478 
5 1 4.65643 1.5785 18.167 
7 1 3.39606 1.60117 16.0089 
8 1 2.16264 1.57841 18.1718 
18 1 3.40824 1.57769 17.449 
21 1 3.33325 2.87858 12.6305 
23 1 3.37516 1.62091 14.7879 
24 1 3.33366 0.384618 12.6259 
17 1 7.02308 2.87936 24.3246 
19 1 7.00239 1.62278 22.1632 
20 1 7.02312 0.385969 24.3219 
22 1 6.95809 1.58043 19.5023 
25 1 5.7104 1.57939 18.7835 
27 1 6.97312 1.60351 20.9424 
28 1 1.10335 1.57923 18.7791 
30 1 7.03701 1.63334 23.6032 
10 1 7.02243 5.21476 5.15026 
13 1 7.01136 3.93419 0.331881 
15 1 6.98495 5.19518 2.48773 
16 1 7.01128 6.42833 0.324378 
26 1 6.99705 5.1837 1.04712 
29 1 5.81519 5.21156 5.92713 
31 1 6.97471 5.20485 3.70868 
32 1 1.19303 5.21683 5.82552 
33 2 4.00557 5.53086 4.7351 
34 3 3.67511 5.68731 3.87091 
1 1 4.74234 5.2145 6.51576 
3 1 3.40182 5.20116 8.63635 
4 1 2.24793 5.21795 6.44098 
6 1 3.30322 5.18047 11.2958 
9 1 3.31918 3.9385 12.0246 
11 1 3.35619 5.18689 9.85701 
12 1 3.3196 6.42931 12.0119 
14 1 3.4682 5.21832 7.19982 
ITEM: TIMESTEP
160
ITEM: NUMBER OF ATOMS
34
ITEM: BOX BOUNDS pp pp pp
-4.2225523068992700e-03 7.1012225523068979e+00
-4.0539692494588374e-03 7.1010539692494596e+00
-2.2129200000000012e-02 2.4610129199999996e+01
ITEM: ATOMS id type x y z 
2 1 3.35004 1.62885 13.3489 
5 1 4.65734 1.57709 18.1729 
7 1 3.39595 1.59977 16.0125 
8 1 2.16153 1.577 18.1778 
18 1 3.40813 1.57627 17.4541 
21 1 3.3331 2.87818 12.6308 
23 1 3.37503 1.61953 14.7905 
24 1 3.3335 0.382274 12.6262 
17 1 7.02568 2.87896 24.3367 
19 1 7.00496 1.6214 22.173 
20 1 7.02571 0.383622 24.3339 
22 1 6.96063 1.57901 19.5095 
25 1 5.71194 1.57797 18.7899 
27 1 6.97568 1.60211 20.9512 
28 1 1.1016 1.57782 18.7855 
30 1 7.03961 1.63197 23.6145 
10 1 7.02502 5.21595 5.14312 
13 1 7.01393 3.93439 0.319882 
15 1 6.98752 5.19636 2.47807 
16 1 7.01386 6.43047 0.312372 
26 1 6.99962 5.18488 1.0359 
29 1 5.81678 5.21275 5.92081 
31 1 6.97727 5.20604 3.69997 
32 1 1.19135 5.21803 5.81911 
33 2 4.00591 5.53228 4.72754 
34 3 3.67521 5.68884 3.8625 
1 1 4.74331 5.2157 6.50994 
3 1 3.40171 5.20235 8.63285 
4 1 2.24688 5.21914 6.43509 
6 1 3.30304 5.18164 11.2948 
9 1 3.319 3.9387 12.0243 
11 1 3.35606 5.18806 9.85443 
12 1 3.31943 6.43145 12.0117 
14 1 3.46815 5.21951 7.19474 
ITEM: TIMESTEP
170
ITEM: NUMBER OF ATOMS
34
ITEM: BOX BOUNDS pp pp pp
-7.3353898991402435e-03 7.1043353898991377e+00
-7.2418637166851412e-03 7.1042418637166858e+00
-2.9536044457697204e-02 2.4617536044457694e+01
ITEM: ATOMS id type x y z 
2 1 3.34985 1.62713 13.3496 
5 1 4.65873 1.57533 18.1767 
7 1 3.3958 1.59803 16.0141 
8 1 2.15991 1.57523 18.1815 
18 1 3.40801 1.57451 17.4572 
21 1 3.33293 2.878 12.6308 
23 1 3.37489 1.61778 14.7926 
24 1 3.33329 0.379034 12.6262 
17 1 7.02875 2.87878 24.3442 
19 1 7.00797 1.61966 22.1783 
20 1 7.02873 0.38037 24.3414 
22 1 6.96362 1.57725 19.5138 
25 1 5.71341 1.5762 18.7936 
27 1 6.97871 1.60038 20.957 
28 1 1.09987 1.57605 18.7892 
30 1 7.04266 1.63025 23.6213 
10 1 7.02809 5.21745 5.13879 
13 1 7.01694 3.93431 0.312433 
15 1 6.99054 5.19781 2.47273 
16 1 7.01689 6.43348 0.304924 
26 1 7.00264 5.18635 1.02916 
29 1 5.81819 5.21424 5.91723 
31 1 6.98031 5.20753 3.69423 
32 1 1.18974 5.21952 5.81552 
33 2 4.00631 5.53406 4.72297 
34 3 3.67532 5.69076 3.85745 
1 1 4.74484 5.21723 6.50615 
3 1 3.40158 5.20383 8.63128 
4 1 2.24528 5.22064 6.43133 
6 1 3.30283 5.18311 11.2942 
9 1 3.31878 3.93862 12.0244 
11 1 3.35592 5.18953 9.85232 
12 1 3.31923 6.43445 12.0118 
14 1 3.46811 5.221 7.19168 
ITEM: TIMESTEP
180
ITEM: NUMBER OF ATOMS
34
ITEM: BOX BOUNDS pp pp pp
-1.0883889899140246e-02 7.1078838898991368e+00
-1.0279763961389781e-02 7.1072797639613903e+00
-3.7742069352478508e-02 2.4625742069352473e+01
ITEM: ATOMS id type x y z 
2 1 3.34962 1.6255 13.3503 
5 1 4.66086 1.57366 18.1812 
7 1 3.39562 1.59638 16.0155 
8 1 2.15748 1.57355 18.186 
18 1 3.40786 1.57285 17.4607 
21 1 3.33273 2.87845 12.6305 
23 1 3.37474 1.61607 14.7954 
24 1 3.33304 0.375368 12.6258 
17 1 7.03223 2.87921 24.3528 
19 1 7.0114 1.61797 22.1838 
20 1 7.03215 0.376683 24.35 
22 1 6.96704 1.5756 19.5186 
25 1 5.71454 1.5745 18.7973 
27 1 6.9822 1.59873 20.9638 
28 1 1.09846 1.57436 18.7929 
30 1 7.04609 1.62861 23.6288 
10 1 7.03166 5.21889 5.134 
13 1 7.02037 3.93366 0.303861 
15 1 6.99391 5.19913 2.4673 
16 1 7.02033 6.43694 0.296352 
26 1 7.00615 5.18779 1.02171 
29 1 5.81917 5.21566 5.9134 
31 1 6.98394 5.20894 3.68741 
32 1 1.18838 5.22095 5.81197 
33 2 4.00673 5.53577 4.71777 
34 3 3.67545 5.69255 3.85198 
1 1 4.74695 5.21873 6.50161 
3 1 3.40149 5.20523 8.62994 
4 1 2.24296 5.22206 6.42699 
6 1 3.30265 5.18453 11.2935 
9 1 3.31854 3.93791 12.0247 
11 1 3.35581 5.19092 9.84959 
12 1 3.31901 6.43791 12.0122 
14 1 3.46814 5.22239 7.18823 
ITEM: TIMESTEP
190
ITEM: NUMBER OF ATOMS
34
ITEM: BOX BOUNDS pp pp pp
-1.2785751568521350e-02 7.1097857515685172e+00
-1.1882921317067379e-02 7.1088829213170674e+00
-3.8023576240155468e-02 2.4626023576240147e+01
ITEM: ATOMS id type x y z 
2 1 3.34944 1.62466 13.3503 
5 1 4.66183 1.57279 18.1816 
7 1 3.39552 1.59549 16.0155 
8 1 2.15632 1.57268 18.1864 
18 1 3.40776 1.57204 17.4609 
21 1 3.33258 2.87857 12.6304 
23 1 3.37464 1.61509 14.7957 
24 1 3.33287 0.373671 12.6256 
17 1 7.034 2.8793 24.3532 
19 1 7.01326 1.61704 22.1838 
20 1 7.03393 0.374901 24.3504 
22 1 6.96892 1.57478 19.5186 
25 1 5.71531 1.57361 18.7972 
27 1 6.98419 1.59786 20.9641 
28 1 1.09757 1.57349 18.7928 
30 1 7.04777 1.62774 23.6291 
10 1 7.03373 5.21966 5.13396 
13 1 7.02219 3.93352 0.303322 
15 1 6.99615 5.19954 2.46731 
16 1 7.0221 6.43863 0.295862 
26 1 7.00787 5.18864 1.02147 
29 1 5.8195 5.21647 5.91283 
31 1 6.9861 5.20971 3.68713 
32 1 1.18737 5.22169 5.81256 
33 2 4.00687 5.5367 4.71714 
34 3 3.67555 5.69342 3.85221 
1 1 4.74766 5.21959 6.50091 
3 1 3.40167 5.20594 8.63002 
4 1 2.24178 5.22278 6.42703 
6 1 3.30268 5.18535 11.2936 
9 1 3.31843 3.93757 12.0246 
11 1 3.35589 5.1916 9.84939 
12 1 3.3189 6.43958 12.0125 
14 1 3.46826 5.22309 7.18793 
ITEM: TIMESTEP
200
ITEM: NUMBER OF ATOMS
34
ITEM: BOX BOUNDS pp pp pp
-1.4072433237234339e-02 7.1110724332372302e+00
-1.2612764263403695e-02 7.1096127642634057e+00
-3.5475631835285397e-02 2.4623475631835277e+01
ITEM: ATOMS id type x y z 
2 1 3.34902 1.6244 13.35 
5 1 4.66222 1.57249 18.1808 
7 1 3.39547 1.59499 16.0152 
8 1 2.15574 1.57241 18.1853 
18 1 3.40764 1.57181 17.4606 
21 1 3.33245 2.87864 12.6305 
23 1 3.37443 1.61435 14.7953 
24 1 3.3327 0.373277 12.6255 
17 1 7.03493 2.87927 24.3507 
19 1 7.01453 1.61649 22.1816 
20 1 7.03464 0.374105 24.3478 
22 1 6.97026 1.57449 19.5164 
25 1 5.71607 1.5733 18.7957 
27 1 6.98591 1.59743 20.9619 
28 1 1.09677 1.5732 18.7914 
30 1 7.04863 1.62739 23.627 
10 1 7.0354 5.21999 5.13623 
13 1 7.02324 3.93371 0.305578 
15 1 6.99802 5.20064 2.46943 
16 1 7.02319 6.43931 0.298285 
26 1 7.00916 5.1886 1.02361 
29 1 5.81893 5.21712 5.91202 
31 1 6.98886 5.2092 3.68934 
32 1 1.18606 5.22199 5.81566 
33 2 4.00693 5.53711 4.71785 
34 3 3.67542 5.69365 3.85461 
1 1 4.7474 5.22007 6.50071 
3 1 3.4025 5.20614 8.63065 
4 1 2.24087 5.22303 6.42947 
6 1 3.30296 5.18588 11.2944 
9 1 3.3185 3.93719 12.0239 
11 1 3.35647 5.19177 9.85006 
12 1 3.31893 6.44026 12.013 
14 1 3.46854 5.22336 7.18839 
ITEM: TIMESTEP
210
ITEM: NUMBER OF ATOMS
34
ITEM: BOX BOUNDS pp pp pp
-1.5155298676655630e-02 7.1121552986766519e+00
-1.3051527243303536e-02 7.1100515272433054e+00
-3.3559088124439015e-02 2.4621559088124432e+01
ITEM: ATOMS id type x y z 
2 1 3.34856 1.6244 13.3499 
5 1 4.66249 1.5724 18.1803 
7 1 3.39546 1.59463 16.0151 
8 1 2.15531 1.57234 18.1845 
18 1 3.4076 1.57173 17.4606 
21 1 3.33234 2.87853 12.6302 
23 1 3.37418 1.61378 14.7952 
24 1 3.33251 0.373156 12.6253 
17 1 7.0356 2.87927 24.3488 
19 1 7.01559 1.61614 22.1799 
20 1 7.03557 0.373602 24.3458 
22 1 6.97138 1.57433 19.5146 
25 1 5.71677 1.57318 18.7944 
27 1 6.98743 1.59713 20.9602 
28 1 1.09604 1.5731 18.7901 
30 1 7.04899 1.62715 23.6255 
10 1 7.03672 5.22 5.13804 
13 1 7.02409 3.93384 0.307183 
15 1 6.99996 5.19979 2.47113 
16 1 7.02392 6.43963 0.300112 
26 1 7.01008 5.18932 1.0252 
29 1 5.81847 5.21755 5.91087 
31 1 6.99149 5.20987 3.69107 
32 1 1.18472 5.22209 5.81858 
33 2 4.00716 5.53723 4.7188 
34 3 3.67492 5.69384 3.85577 
1 1 4.74709 5.22043 6.49996 
3 1 3.40348 5.20623 8.63113 
4 1 2.23998 5.22318 6.43165 
6 1 3.30327 5.1862 11.2949 
9 1 3.31869 3.93698 12.0234 
11 1 3.35711 5.19181 9.85057 
12 1 3.31899 6.44067 12.0135 
14 1 3.46873 5.22349 7.18883 
ITEM: TIMESTEP
220
ITEM: NUMBER OF ATOMS
34
ITEM: BOX BOUNDS pp pp pp
-1.6451417487822660e-02 7.1134514174878172e+00
-1.3221264162422553e-02 7.1102212641624245e+00
-3.0314370131654198e-02 2.4618314370131646e+01
ITEM: ATOMS id type x y z 
2 1 3.34775 1.62459 13.3494 
5 1 4.66271 1.5726 18.1795 
7 1 3.39544 1.59436 16.0151 
8 1 2.15492 1.57251 18.1834 
18 1 3.4076 1.57196 17.4605 
21 1 3.3321 2.87832 12.6297 
23 1 3.37378 1.61311 14.7952 