ITEM: TIMESTEP
0
ITEM: NUMBER OF ATOMS
3
ITEM: BOX BOUNDS pp pp pp
0.0000000000000000e+00 8.0000000000000000e+00
0.0000000000000000e+00 8.0000000000000000e+00
0.0000000000000000e+00 8.0000000000000000e+00
ITEM: ATOMS id type x y z 
3 2 4 3.237 3.801 
2 2 4 4.763 3.801 
1 1 4 4 4.398 
ITEM: TIMESTEP
10
ITEM: NUMBER OF ATOMS
3
ITEM: BOX BOUNDS pp pp pp
0.0000000000000000e+00 8.0000000000000000e+00
0.0000000000000000e+00 8.0000000000000000e+00
0.0000000000000000e+00 8.0000000000000000e+00
ITEM: ATOMS id type x y z 
3 2 4 2.81812 3.99908 
2 2 4 5.18188 3.99908 
1 1 4 4 4.00183 
ITEM: TIMESTEP
18
ITEM: NUMBER OF ATOMS
3
ITEM: BOX BOUNDS pp pp pp
0.0000000000000000e+00 8.0000000000000000e+00
0.0000000000000000e+00 8.0000000000000000e+00
0.0000000000000000e+00 8.0000000000000000e+00
ITEM: ATOMS id type x y z 
3 2 4 2.82307 3.99996 
2 2 4 5.17693 3.99996 
1 1 4 4 4.00008 
ITEM: TIMESTEP
19
ITEM: NUMBER OF ATOMS
3
ITEM: BOX BOUNDS pp pp pp
0.0000000000000000e+00 8.0000000000000000e+00
0.0000000000000000e+00 8.0000000000000000e+00
0.0000000000000000e+00 8.0000000000000000e+00
ITEM: ATOMS id type x y z 
3 2 4 2.82307 3.99996 
2 2 4 5.17693 3.99996 
1 1 4 4 4.00008 
ITEM: TIMESTEP
20
ITEM: NUMBER OF ATOMS
3
ITEM: BOX BOUNDS pp pp pp
-4.9644623592533772e-05 8.0000496446235925e+00
4.0000000000000002e-04 7.9996000000000000e+00
-4.9644622035326758e-05 8.0000496446220346e+00
ITEM: ATOMS id type x y z 
3 2 4 2.82319 3.99996 
2 2 4 5.17681 3.99996 
1 1 4 4 4.00008 
ITEM: TIMESTEP
30
ITEM: NUMBER OF ATOMS
3
ITEM: BOX BOUNDS pp pp pp
-1.6378149503311083e-03 8.0016378149503318e+00
4.4000000000000011e-03 7.9956000000000005e+00
-1.6378147653864942e-03 8.0016378147653846e+00
ITEM: ATOMS id type x y z 
3 2 4 2.82343 3.99996 
2 2 4 5.17657 3.99996 
1 1 4 4 4.00008 
ITEM: TIMESTEP
40
ITEM: NUMBER OF ATOMS
3
ITEM: BOX BOUNDS pp pp pp
-3.5215793205629919e-03 8.0035215793205641e+00
8.4000000000000012e-03 7.9916000000000009e+00
-3.5215782321379070e-03 8.0035215782321352e+00
ITEM: ATOMS id type x y z 
3 2 4 2.82343 3.99996 
2 2 4 5.17657 3.99996 
1 1 4 4 4.00008 
ITEM: TIMESTEP
50
ITEM: NUMBER OF ATOMS
3
ITEM: BOX BOUNDS pp pp pp
-5.4103699821637825e-03 8.0054103699821635e+00
1.2399999999999994e-02 7.9876000000000014e+00
-5.4103677726508861e-03 8.0054103677726474e+00
ITEM: ATOMS id type x y z 
3 2 4 2.82343 3.99996 
2 2 4 5.17657 3.99996 
1 1 4 4 4.00008 
ITEM: TIMESTEP
60
ITEM: NUMBER OF ATOMS
3
ITEM: BOX BOUNDS pp pp pp
-7.3037211201580684e-03 8.0073037211201559e+00
1.6399999999999991e-02 7.9836000000000018e+00
-7.3037177365442825e-03 8.0073037177365425e+00
ITEM: ATOMS id type x y z 
3 2 4 2.82343 3.99996 
2 2 4 5.17657 3.99996 
1 1 4 4 4.00008 
ITEM: TIMESTEP
70
ITEM: NUMBER OF ATOMS
3
ITEM: BOX BOUNDS pp pp pp
-9.2026806483622228e-03 8.0092026806483609e+00
2.0400000000000001e-02 7.9796000000000022e+00
-9.2026760772193177e-03 8.0092026760772175e+00
ITEM: ATOMS id type x y z 
3 2 4 2.82343 3.99996 
2 2 4 5.17657 3.99996 
1 1 4 4 4.00008 
ITEM: TIMESTEP
80
ITEM: NUMBER OF ATOMS
3
ITEM: BOX BOUNDS pp pp pp
-1.1106680349127871e-02 8.0111066803491262e+00
2.4400000000000012e-02 7.9756000000000027e+00
-1.1106674587249284e-02 8.0111066745872428e+00
ITEM: ATOMS id type x y z 
3 2 4 2.82342 3.99996 
2 2 4 5.17658 3.99996 
1 1 4 4 4.00008 
ITEM: TIMESTEP
90
ITEM: NUMBER OF ATOMS
3
ITEM: BOX BOUNDS pp pp pp
-1.3015495109879614e-02 8.0130154951098742e+00
2.8400000000000022e-02 7.9716000000000031e+00
-1.3015488156418236e-02 8.0130154881564142e+00
ITEM: ATOMS id type x y z 
3 2 4 2.82342 3.99996 
2 2 4 5.17658 3.99996 
1 1 4 4 4.00008 
ITEM: TIMESTEP
100
ITEM: NUMBER OF ATOMS
3
ITEM: BOX BOUNDS pp pp pp
-1.4930309921122294e-02 8.0149303099211142e+00
3.2400000000000026e-02 7.9676000000000036e+00
-1.4930301775367100e-02 8.0149303017753617e+00
ITEM: ATOMS id type x y z 
3 2 4 2.82342 3.99996 
2 2 4 5.17658 3.99996 
1 1 4 4 4.00008 
ITEM: TIMESTEP
110
ITEM: NUMBER OF ATOMS
3
ITEM: BOX BOUNDS pp pp pp
-1.6850311515223912e-02 8.0168503115152152e+00
3.6400000000000002e-02 7.9636000000000040e+00
-1.6850302177150330e-02 8.0168503021771418e+00
ITEM: ATOMS id type x y z 
3 2 4 2.82342 3.99996 
2 2 4 5.17658 3.99996 
1 1 4 4 4.00008 
ITEM: TIMESTEP
120
ITEM: NUMBER OF ATOMS
3
ITEM: BOX BOUNDS pp pp pp
-1.8775669970445295e-02 8.0187756699704380e+00
4.0399999999999978e-02 7.9596000000000044e+00
-1.8775659439837122e-02 8.0187756594398287e+00
ITEM: ATOMS id type x y z 
3 2 4 2.82342 3.99996 
2 2 4 5.17658 3.99996 
1 1 4 4 4.00008 
ITEM: TIMESTEP
130
ITEM: NUMBER OF ATOMS
3
ITEM: BOX BOUNDS pp pp pp
-2.0707142401731004e-02 8.0207071424017240e+00
4.4399999999999953e-02 7.9556000000000049e+00
-2.0707130678149100e-02 8.0207071306781437e+00
ITEM: ATOMS id type x y z 
3 2 4 2.82341 3.99996 
2 2 4 5.17659 3.99996 
1 1 4 4 4.00008 
ITEM: TIMESTEP
140
ITEM: NUMBER OF ATOMS
3
ITEM: BOX BOUNDS pp pp pp
-2.2643594501461198e-02 8.0226435945014547e+00
4.8399999999999929e-02 7.9516000000000053e+00
-2.2643581585201623e-02 8.0226435815851964e+00
ITEM: ATOMS id type x y z 
3 2 4 2.82341 3.99996 
2 2 4 5.17659 3.99996 
1 1 4 4 4.00008 
ITEM: TIMESTEP
150
ITEM: NUMBER OF ATOMS
3
ITEM: BOX BOUNDS pp pp pp
-2.4586159196173980e-02 8.0245861591961667e+00
5.2399999999999905e-02 7.9476000000000058e+00
-2.4586145086922230e-02 8.0245861450869143e+00
ITEM: ATOMS id type x y z 
3 2 4 2.82341 3.99996 
2 2 4 5.17659 3.99996 
1 1 4 4 4.00008 
ITEM: TIMESTEP
160
ITEM: NUMBER OF ATOMS
3
ITEM: BOX BOUNDS pp pp pp
-2.6534451688199304e-02 8.0265344516881925e+00
5.6399999999999881e-02 7.9436000000000062e+00
-2.6534436386010343e-02 8.0265344363860009e+00
ITEM: ATOMS id type x y z 
3 2 4 2.82341 3.99996 
2 2 4 5.17659 3.99996 
1 1 4 4 4.00008 
ITEM: TIMESTEP
170
ITEM: NUMBER OF ATOMS
3
ITEM: BOX BOUNDS pp pp pp
-2.8488813036858063e-02 8.0284888130368515e+00
6.0399999999999857e-02 7.9396000000000067e+00
-2.8488796541531032e-02 8.0284887965415201e+00
ITEM: ATOMS id type x y z 
3 2 4 2.82341 3.99996 
2 2 4 5.17659 3.99996 
1 1 4 4 4.00008 
ITEM: TIMESTEP
180
ITEM: NUMBER OF ATOMS
3
ITEM: BOX BOUNDS pp pp pp
-3.0449281672599058e-02 8.0304492816725936e+00
6.4399999999999832e-02 7.9356000000000071e+00
-3.0449263984060632e-02 8.0304492639840479e+00
ITEM: ATOMS id type x y z 
3 2 4 2.8234 3.99996 
2 2 4 5.1766 3.99996 
1 1 4 4 4.00008 
ITEM: TIMESTEP
190
ITEM: NUMBER OF ATOMS
3
ITEM: BOX BOUNDS pp pp pp
-3.2415766690722068e-02 8.0324157666907183e+00
6.8399999999999808e-02 7.9316000000000075e+00
-3.2415747809040350e-02 8.0324157478090275e+00
ITEM: ATOMS id type x y z 
3 2 4 2.8234 3.99996 
2 2 4 5.1766 3.99996 
1 1 4 4 4.00008 
ITEM: TIMESTEP
200
ITEM: NUMBER OF ATOMS
3
ITEM: BOX BOUNDS pp pp pp
-3.4388156441122912e-02 8.0343881564411195e+00
7.2399999999999784e-02 7.9276000000000080e+00
-3.4388136366543247e-02 8.0343881363665304e+00
ITEM: ATOMS id type x y z 
3 2 4 2.8234 3.99996 
2 2 4 5.1766 3.99996 
1 1 4 4 4.00008 
ITEM: TIMESTEP
210
ITEM: NUMBER OF ATOMS
3
ITEM: BOX BOUNDS pp pp pp
-3.6367362126868141e-02 8.0363673621268639e+00
7.6399999999999760e-02 7.9236000000000084e+00
-3.6367340859070695e-02 8.0363673408590586e+00
ITEM: ATOMS id type x y z 
3 2 4 2.8234 3.99996 
2 2 4 5.1766 3.99996 
1 1 4 4 4.00008 
ITEM: TIMESTEP
220
ITEM: NUMBER OF ATOMS
3
ITEM: BOX BOUNDS pp pp pp
-3.8352392294281869e-02 8.0383523922942750e+00
8.0399999999999736e-02 7.9196000000000089e+00
-3.8352369833626339e-02 8.0383523698336106e+00
ITEM: ATOMS id type x y z 
3 2 4 2.8234 3.99996 
2 2 4 5.1766 3.99996 
1 1 4 4 4.00008 
ITEM: TIMESTEP
230
ITEM: NUMBER OF ATOMS
3
ITEM: BOX BOUNDS pp pp pp
-4.0344365370371137e-02 8.0403443653703679e+00
8.4399999999999711e-02 7.9156000000000093e+00
-4.0344341716704958e-02 8.0403443417166862e+00
ITEM: ATOMS id type x y z 
3 2 4 2.82339 3.99996 
2 2 4 5.17661 3.99996 
1 1 4 4 4.00008 
ITEM: TIMESTEP
240
ITEM: NUMBER OF ATOMS
3
ITEM: BOX BOUNDS pp pp pp
-4.2342523571832033e-02 8.0423425235718291e+00
8.8399999999999687e-02 7.9116000000000097e+00
-4.2342498725471855e-02 8.0423424987254535e+00
ITEM: ATOMS id type x y z 
3 2 4 2.82339 3.99996 
2 2 4 5.17661 3.99996 
1 1 4 4 4.00008 
ITEM: TIMESTEP
250
ITEM: NUMBER OF ATOMS
3
ITEM: BOX BOUNDS pp pp pp
-4.4347746782606251e-02 8.0443477467826021e+00
9.2399999999999663e-02 7.9076000000000102e+00
-4.4347720743611083e-02 8.0443477207435912e+00
ITEM: ATOMS id type x y z 
3 2 4 2.82339 3.99996 
2 2 4 5.17661 3.99996 
1 1 4 4 4.00008 
ITEM: TIMESTEP
260
ITEM: NUMBER OF ATOMS
3
ITEM: BOX BOUNDS pp pp pp
-4.6359419501915931e-02 8.0463594195019130e+00
9.6399999999999639e-02 7.9036000000000106e+00
-4.6359392270477126e-02 8.0463593922704550e+00
ITEM: ATOMS id type x y z 
3 2 4 2.82339 3.99996 
2 2 4 5.17661 3.99996 
1 1 4 4 4.00008 
ITEM: TIMESTEP
270
ITEM: NUMBER OF ATOMS
3
ITEM: BOX BOUNDS pp pp pp
-4.8377914027486889e-02 8.0483779140274834e+00
1.0039999999999961e-01 7.8996000000000111e+00
-4.8377885603776920e-02 8.0483778856037578e+00
ITEM: ATOMS id type x y z 
3 2 4 2.82338 3.99996 
2 2 4 5.17662 3.99996 
1 1 4 4 4.00008 
ITEM: TIMESTEP
280
ITEM: NUMBER OF ATOMS
3
ITEM: BOX BOUNDS pp pp pp
-5.0403372166255810e-02 8.0504033721662545e+00
1.0439999999999959e-01 7.8956000000000115e+00
-5.0403342550547653e-02 8.0504033425505295e+00
ITEM: ATOMS id type x y z 
3 2 4 2.82338 3.99996 
2 2 4 5.17662 3.99996 
1 1 4 4 4.00008 
ITEM: TIMESTEP
290
ITEM: NUMBER OF ATOMS
3
ITEM: BOX BOUNDS pp pp pp
-5.2435478522864697e-02 8.0524354785228631e+00
1.0839999999999957e-01 7.8916000000000119e+00
-5.2435447715529326e-02 8.0524354477155136e+00
ITEM: ATOMS id type x y z 
3 2 4 2.82338 3.99996 
2 2 4 5.17662 3.99996 
1 1 4 4 4.00008 
ITEM: TIMESTEP
300
ITEM: NUMBER OF ATOMS
3
ITEM: BOX BOUNDS pp pp pp
-5.4475202011440176e-02 8.0544752020114405e+00
1.1239999999999954e-01 7.8876000000000124e+00
-5.4475170012505965e-02 8.0544751700124895e+00
ITEM: ATOMS id type x y z 
3 2 4 2.82338 3.99996 
2 2 4 5.17662 3.99996 
1 1 4 4 4.00008 
ITEM: TIMESTEP
310
ITEM: NUMBER OF ATOMS
3
ITEM: BOX BOUNDS pp pp pp
-5.6522019082297523e-02 8.0565220190822995e+00
1.1639999999999952e-01 7.8836000000000128e+00
-5.6521985892151336e-02 8.0565219858921360e+00
ITEM: ATOMS id type x y z 
3 2 4 2.82338 3.99996 
2 2 4 5.17662 3.99996 
1 1 4 4 4.00008 
ITEM: TIMESTEP
320
ITEM: NUMBER OF ATOMS
3
ITEM: BOX BOUNDS pp pp pp
-5.8575535027438209e-02 8.0585755350274386e+00
1.2039999999999949e-01 7.8796000000000133e+00
-5.8575500646601289e-02 8.0585755006465885e+00
ITEM: ATOMS id type x y z 
3 2 4 2.82337 3.99996 
2 2 4 5.17663 3.99996 
1 1 4 4 4.00008 
ITEM: TIMESTEP
330
ITEM: NUMBER OF ATOMS
3
ITEM: BOX BOUNDS pp pp pp
-6.0637218546597843e-02 8.0606372185465975e+00
1.2439999999999947e-01 7.8756000000000137e+00
-6.0637182975041795e-02 8.0606371829750287e+00
ITEM: ATOMS id type x y z 
3 2 4 2.82337 3.99996 
2 2 4 5.17663 3.99996 
1 1 4 4 4.00008 
ITEM: TIMESTEP
340
ITEM: NUMBER OF ATOMS
3
ITEM: BOX BOUNDS pp pp pp
-6.2706347604673973e-02 8.0627063476046708e+00
1.2839999999999957e-01 7.8716000000000141e+00
-6.2706310842797236e-02 8.0627063108427866e+00
ITEM: ATOMS id type x y z 
3 2 4 2.82337 3.99996 
2 2 4 5.17663 3.99996 
1 1 4 4 4.00008 
ITEM: TIMESTEP
350
ITEM: NUMBER OF ATOMS
3
ITEM: BOX BOUNDS pp pp pp
-6.4782251401872812e-02 8.0647822514018710e+00
1.3239999999999968e-01 7.8676000000000146e+00
-6.4782213450449280e-02 8.0647822134504370e+00
ITEM: ATOMS id type x y z 
3 2 4 2.82337 3.99996 
2 2 4 5.17663 3.99996 
1 1 4 4 4.00008 
ITEM: TIMESTEP
360
ITEM: NUMBER OF ATOMS
3
ITEM: BOX BOUNDS pp pp pp
-6.6866678015877271e-02 8.0668666780158738e+00
1.3639999999999980e-01 7.8636000000000150e+00
-6.6866638874889583e-02 8.0668666388748793e+00
ITEM: ATOMS id type x y z 
3 2 4 2.82337 3.99996 
2 2 4 5.17663 3.99996 
1 1 4 4 4.00008 
ITEM: TIMESTEP
370
ITEM: NUMBER OF ATOMS
3
ITEM: BOX BOUNDS pp pp pp
-6.8958498225525286e-02 8.0689584982255234e+00
1.4039999999999991e-01 7.8596000000000155e+00
-6.8958457895544917e-02 8.0689584578955351e+00
ITEM: ATOMS id type x y z 
3 2 4 2.82336 3.99996 
2 2 4 5.17664 3.99996 
1 1 4 4 4.00008 
ITEM: TIMESTEP
380
ITEM: NUMBER OF ATOMS
3
ITEM: BOX BOUNDS pp pp pp
-7.1058975213053585e-02 8.0710589752130506e+00
1.4440000000000003e-01 7.8556000000000159e+00
-7.1058933694217633e-02 8.0710589336942089e+00
ITEM: ATOMS id type x y z 
3 2 4 2.82336 3.99996 
2 2 4 5.17664 3.99996 
1 1 4 4 4.00008 
ITEM: TIMESTEP
390
ITEM: NUMBER OF ATOMS
3
ITEM: BOX BOUNDS pp pp pp
-7.3166814892866250e-02 8.0731668148928630e+00
1.4840000000000014e-01 7.8516000000000163e+00
-7.3166772185814966e-02 8.0731667721858091e+00
ITEM: ATOMS id type x y z 
3 2 4 2.82336 3.99996 
2 2 4 5.17664 3.99996 
1 1 4 4 4.00008 
ITEM: TIMESTEP
400
ITEM: NUMBER OF ATOMS
3
ITEM: BOX BOUNDS pp pp pp
-7.5283020561927594e-02 8.0752830205619226e+00
1.5240000000000026e-01 7.8476000000000168e+00
-7.5282976667056606e-02 8.0752829766670509e+00
ITEM: ATOMS id type x y z 
3 2 4 2.82336 3.99996 
2 2 4 5.17664 3.99996 
1 1 4 4 4.00008 
ITEM: TIMESTEP
410
ITEM: NUMBER OF ATOMS
3
ITEM: BOX BOUNDS pp pp pp
-7.7407606684820107e-02 8.0774076066848153e+00
1.5640000000000037e-01 7.8436000000000172e+00
-7.7407561602492098e-02 8.0774075616024845e+00
ITEM: ATOMS id type x y z 
3 2 4 2.82335 3.99996 
2 2 4 5.17665 3.99996 
1 1 4 4 4.00008 
ITEM: TIMESTEP
420
ITEM: NUMBER OF ATOMS
3
ITEM: BOX BOUNDS pp pp pp
-7.9540053142373709e-02 8.0795400531423684e+00
1.6040000000000049e-01 7.8396000000000177e+00
-7.9540006873349889e-02 8.0795400068733443e+00
ITEM: ATOMS id type x y z 
3 2 4 2.82335 3.99996 
2 2 4 5.17665 3.99996 
1 1 4 4 4.00008 
ITEM: TIMESTEP
430
ITEM: NUMBER OF ATOMS
3
ITEM: BOX BOUNDS pp pp pp
-8.1681494844096286e-02 8.0816814948440925e+00
1.6440000000000060e-01 7.8356000000000181e+00
-8.1681447388575565e-02 8.0816814473885703e+00
ITEM: ATOMS id type x y z 
3 2 4 2.82335 3.99996 
2 2 4 5.17665 3.99996 
1 1 4 4 4.00008 
ITEM: TIMESTEP
440
ITEM: NUMBER OF ATOMS
3
ITEM: BOX BOUNDS pp pp pp
-8.3831106767356264e-02 8.0838311067673523e+00
1.6840000000000072e-01 7.8316000000000185e+00
-8.3831058126032046e-02 8.0838310581260284e+00
ITEM: ATOMS id type x y z 
3 2 4 2.82335 3.99996 
2 2 4 5.17665 3.99996 
1 1 4 4 4.00008 
ITEM: TIMESTEP
450
ITEM: NUMBER OF ATOMS
3
ITEM: BOX BOUNDS pp pp pp
-8.5989957913289755e-02 8.0859899579132861e+00
1.7240000000000083e-01 7.8276000000000190e+00
-8.5989908086469072e-02 8.0859899080864679e+00
ITEM: ATOMS id type x y z 
3 2 4 2.82335 3.99996 
2 2 4 5.17665 3.99996 
1 1 4 4 4.00008 
ITEM: TIMESTEP
460
ITEM: NUMBER OF ATOMS
3
ITEM: BOX BOUNDS pp pp pp
-8.8157190857539272e-02 8.0881571908575385e+00
1.7640000000000094e-01 7.8236000000000194e+00
-8.8157139845872617e-02 8.0881571398458707e+00
ITEM: ATOMS id type x y z 
3 2 4 2.82334 3.99996 
2 2 4 5.17666 3.99996 
1 1 4 4 4.00008 
ITEM: TIMESTEP
470
ITEM: NUMBER OF ATOMS
3
ITEM: BOX BOUNDS pp pp pp
-9.0333941724566769e-02 8.0903339417245661e+00
1.8040000000000106e-01 7.8196000000000199e+00
-9.0333889528349531e-02 8.0903338895283472e+00
ITEM: ATOMS id type x y z 
3 2 4 2.82334 3.99996 
2 2 4 5.17666 3.99996 
1 1 4 4 4.00008 
ITEM: TIMESTEP
480
ITEM: NUMBER OF ATOMS
3
ITEM: BOX BOUNDS pp pp pp
-9.2520089270099512e-02 8.0925200892700975e+00
1.8440000000000117e-01 7.8156000000000203e+00
-9.2520035889566907e-02 8.0925200358895655e+00
ITEM: ATOMS id type x y z 
3 2 4 2.82334 3.99996 
2 2 4 5.17666 3.99996 
1 1 4 4 4.00008 
ITEM: TIMESTEP
490
ITEM: NUMBER OF ATOMS
3
ITEM: BOX BOUNDS pp pp pp
-9.4715742290015864e-02 8.0947157422900133e+00
1.8840000000000129e-01 7.8116000000000207e+00
-9.4715687725696357e-02 8.0947156877256923e+00
ITEM: ATOMS id type x y z 
3 2 4 2.82334 3.99996 
2 2 4 5.17666 3.99996 
1 1 4 4 4.00008 
ITEM: TIMESTEP
500
ITEM: NUMBER OF ATOMS
3
ITEM: BOX BOUNDS pp pp pp
-9.6919595068550884e-02 8.0969195950685489e+00
1.9240000000000140e-01 7.8076000000000212e+00
-9.6919539321450920e-02 8.0969195393214477e+00
ITEM: ATOMS id type x y z 
3 2 4 2.82333 3.99996 
2 2 4 5.17667 3.99996 
1 1 4 4 4.00008 
ITEM: TIMESTEP
510
ITEM: NUMBER OF ATOMS
3
ITEM: BOX BOUNDS pp pp pp
-9.9133833844875230e-02 8.0991338338448724e+00
1.9640000000000152e-01 7.8036000000000216e+00
-9.9133776915058480e-02 8.0991337769150569e+00
ITEM: ATOMS id type x y z 
3 2 4 2.82333 3.99996 
2 2 4 5.17667 3.99996 
1 1 4 4 4.00008 
ITEM: TIMESTEP
520
ITEM: NUMBER OF ATOMS
3
ITEM: BOX BOUNDS pp pp pp
-1.0135803055653550e-01 8.1013580305565309e+00
2.0040000000000163e-01 7.7996000000000221e+00
-1.0135797244437690e-01 8.1013579724443741e+00
ITEM: ATOMS id type x y z 
3 2 4 2.82333 3.99996 
2 2 4 5.17667 3.99996 
1 1 4 4 4.00008 
ITEM: TIMESTEP
530
ITEM: NUMBER OF ATOMS
3
ITEM: BOX BOUNDS pp pp pp
-1.0359218105849269e-01 8.1035921810584881e+00
2.0440000000000175e-01 7.7956000000000225e+00
-1.0359212176440520e-01 8.1035921217644038e+00
ITEM: ATOMS id type x y z 
3 2 4 2.82333 3.99996 
2 2 4 5.17667 3.99996 
1 1 4 4 4.00008 
ITEM: TIMESTEP
540
ITEM: NUMBER OF ATOMS
3
ITEM: BOX BOUNDS pp pp pp
-1.0583563268115118e-01 8.1058356326811456e+00
2.0840000000000186e-01 7.7916000000000230e+00
-1.0583557220584669e-01 8.1058355722058444e+00
ITEM: ATOMS id type x y z 
3 2 4 2.82333 3.99996 
2 2 4 5.17667 3.99996 
1 1 4 4 4.00008 
ITEM: TIMESTEP
550
ITEM: NUMBER OF ATOMS
3
ITEM: BOX BOUNDS pp pp pp
-1.0808986115396721e-01 8.1080898611539620e+00
2.1240000000000198e-01 7.7876000000000234e+00
-1.0808979949762143e-01 8.1080897994976180e+00
ITEM: ATOMS id type x y z 
3 2 4 2.82332 3.99996 
2 2 4 5.17668 3.99996 
1 1 4 4 4.00008 
ITEM: TIMESTEP
560
ITEM: NUMBER OF ATOMS
3
ITEM: BOX BOUNDS pp pp pp
-1.1035477784766382e-01 8.1103547778476610e+00
2.1640000000000209e-01 7.7836000000000238e+00
-1.1035471501055659e-01 8.1103547150105566e+00
ITEM: ATOMS id type x y z 
3 2 4 2.82332 3.99996 
2 2 4 5.17668 3.99996 
1 1 4 4 4.00008 
ITEM: TIMESTEP
570
ITEM: NUMBER OF ATOMS
3
ITEM: BOX BOUNDS pp pp pp
-1.1263082089582868e-01 8.1126308208958235e+00
2.2040000000000221e-01 7.7796000000000243e+00
-1.1263075687797193e-01 8.1126307568779694e+00
ITEM: ATOMS id type x y z 
3 2 4 2.82332 3.99996 
2 2 4 5.17668 3.99996 
1 1 4 4 4.00008 
ITEM: TIMESTEP
580
ITEM: NUMBER OF ATOMS
3
ITEM: BOX BOUNDS pp pp pp
-1.1491723836507367e-01 8.1149172383650665e+00
2.2440000000000232e-01 7.7756000000000247e+00
-1.1491717316708241e-01 8.1149171731670791e+00
ITEM: ATOMS id type x y z 
3 2 4 2.82332 3.99996 
2 2 4 5.17668 3.99996 
1 1 4 4 4.00008 
ITEM: TIMESTEP
590
ITEM: NUMBER OF ATOMS
3
ITEM: BOX BOUNDS pp pp pp
-1.1721452973841118e-01 8.1172145297384048e+00
2.2840000000000243e-01 7.7716000000000252e+00
-1.1721446336053656e-01 8.1172144633605310e+00
ITEM: ATOMS id type x y z 
3 2 4 2.82331 3.99996 
2 2 4 5.17669 3.99996 
1 1 4 4 4.00008 
ITEM: TIMESTEP
600
ITEM: NUMBER OF ATOMS
3
ITEM: BOX BOUNDS pp pp pp
-1.1952382990103570e-01 8.1195238299010306e+00
2.3240000000000255e-01 7.7676000000000256e+00
-1.1952376234312427e-01 8.1195237623431193e+00
ITEM: ATOMS id type x y z 
3 2 4 2.82331 3.99996 
2 2 4 5.17669 3.99996 
1 1 4 4 4.00008 
ITEM: TIMESTEP
610
ITEM: NUMBER OF ATOMS
3
ITEM: BOX BOUNDS pp pp pp
-1.2184503776328574e-01 8.1218450377632809e+00
2.3640000000000266e-01 7.7636000000000260e+00
-1.2184496902539228e-01 8.1218449690253856e+00
ITEM: ATOMS id type x y z 
3 2 4 2.82331 3.99996 
2 2 4 5.17669 3.99996 
1 1 4 4 4.00008 
ITEM: TIMESTEP
620
ITEM: NUMBER OF ATOMS
3
ITEM: BOX BOUNDS pp pp pp
-1.2417704455786975e-01 8.1241770445578645e+00
2.4040000000000278e-01 7.7596000000000265e+00
-1.2417697464034638e-01 8.1241769746403421e+00
ITEM: ATOMS id type x y z 
3 2 4 2.82331 3.99996 
2 2 4 5.17669 3.99996 
1 1 4 4 4.00008 
ITEM: TIMESTEP
630
ITEM: NUMBER OF ATOMS
3
ITEM: BOX BOUNDS pp pp pp
-1.2652204835161343e-01 8.1265220483516085e+00
2.4440000000000289e-01 7.7556000000000269e+00
-1.2652197725414399e-01 8.1265219772541393e+00
ITEM: ATOMS id type x y z 
3 2 4 2.8233 3.99996 
2 2 4 5.1767 3.99996 
1 1 4 4 4.00008 
ITEM: TIMESTEP
640
ITEM: NUMBER OF ATOMS
3
ITEM: BOX BOUNDS pp pp pp
-1.2887780879750568e-01 8.1288778087974976e+00
2.4840000000000301e-01 7.7516000000000274e+00
-1.2887773652060946e-01 8.1288777365206055e+00
ITEM: ATOMS id type x y z 
3 2 4 2.8233 3.99996 
2 2 4 5.1767 3.99996 
1 1 4 4 4.00008 
ITEM: TIMESTEP
650
ITEM: NUMBER OF ATOMS
3
ITEM: BOX BOUNDS pp pp pp
-1.3124864607301656e-01 8.1312486460730096e+00
2.5240000000000312e-01 7.7476000000000278e+00
-1.3124857261550954e-01 8.1312485726155064e+00
ITEM: ATOMS id type x y z 
3 2 4 2.8233 3.99996 
2 2 4 5.1767 3.99996 
1 1 4 4 4.00008 
ITEM: TIMESTEP
660
ITEM: NUMBER OF ATOMS
3
ITEM: BOX BOUNDS pp pp pp
-1.3363160157872367e-01 8.1336316015787169e+00
2.5640000000000324e-01 7.7436000000000282e+00
-1.3363152694073352e-01 8.1336315269407304e+00
ITEM: ATOMS id type x y z 
3 2 4 2.8233 3.99996 
2 2 4 5.1767 3.99996 
1 1 4 4 4.00008 
ITEM: TIMESTEP
670
ITEM: NUMBER OF ATOMS
3
ITEM: BOX BOUNDS pp pp pp
-1.3602688962468959e-01 8.1360268896246861e+00
2.6040000000000335e-01 7.7396000000000287e+00
-1.3602681380625323e-01 8.1360268138062484e+00
ITEM: ATOMS id type x y z 
3 2 4 2.82329 3.99996 
2 2 4 5.17671 3.99996 
1 1 4 4 4.00008 
ITEM: TIMESTEP
680
ITEM: NUMBER OF ATOMS
3
ITEM: BOX BOUNDS pp pp pp
-1.3843660543526973e-01 8.1384366054352650e+00
2.6440000000000347e-01 7.7356000000000291e+00
-1.3843652843555287e-01 8.1384365284355500e+00
ITEM: ATOMS id type x y z 
3 2 4 2.82329 3.99996 
2 2 4 5.17671 3.99996 
1 1 4 4 4.00008 
ITEM: TIMESTEP
690
ITEM: NUMBER OF ATOMS
3
ITEM: BOX BOUNDS pp pp pp
-1.4086069293435871e-01 8.1408606929343534e+00
2.6840000000000358e-01 7.7316000000000296e+00
-1.4086061475254305e-01 8.1408606147525404e+00
ITEM: ATOMS id type x y z 
3 2 4 2.82329 3.99996 
2 2 4 5.17671 3.99996 
1 1 4 4 4.00008 
ITEM: TIMESTEP
700
ITEM: NUMBER OF ATOMS
3
ITEM: BOX BOUNDS pp pp pp
-1.4329795858687241e-01 8.1432979585868654e+00
2.7240000000000369e-01 7.7276000000000300e+00
-1.4329787922284154e-01 8.1432978792228372e+00
ITEM: ATOMS id type x y z 
3 2 4 2.82329 3.99996 
2 2 4 5.17671 3.99996 
1 1 4 4 4.00008 
ITEM: TIMESTEP
710
ITEM: NUMBER OF ATOMS
3
ITEM: BOX BOUNDS pp pp pp
-1.4575042883678996e-01 8.1457504288367826e+00
2.7640000000000381e-01 7.7236000000000304e+00
-1.4575034828943170e-01 8.1457503482894271e+00
ITEM: ATOMS id type x y z 
3 2 4 2.82328 3.99996 
2 2 4 5.17672 3.99996 
1 1 4 4 4.00008 
ITEM: TIMESTEP
720
ITEM: NUMBER OF ATOMS
3
ITEM: BOX BOUNDS pp pp pp
-1.4821792994303232e-01 8.1482179299430264e+00
2.8040000000000392e-01 7.7196000000000309e+00
-1.4821784821155581e-01 8.1482178482115497e+00
ITEM: ATOMS id type x y z 
3 2 4 2.82328 3.99996 
2 2 4 5.17672 3.99996 
1 1 4 4 4.00008 
ITEM: TIMESTEP
730
ITEM: NUMBER OF ATOMS
3
ITEM: BOX BOUNDS pp pp pp
-1.5070125347304630e-01 8.1507012534730414e+00
2.8440000000000404e-01 7.7156000000000313e+00
-1.5070117055606785e-01 8.1507011705560632e+00
ITEM: ATOMS id type x y z 
3 2 4 2.82328 3.99996 
2 2 4 5.17672 3.99996 
1 1 4 4 4.00008 
ITEM: TIMESTEP
740
ITEM: NUMBER OF ATOMS
3
ITEM: BOX BOUNDS pp pp pp
-1.5320111620572352e-01 8.1532011162057199e+00
2.8840000000000415e-01 7.7116000000000318e+00
-1.5320103210169417e-01 8.1532010321016894e+00
ITEM: ATOMS id type x y z 
3 2 4 2.82328 3.99996 
2 2 4 5.17672 3.99996 
1 1 4 4 4.00008 
ITEM: TIMESTEP
750
ITEM: NUMBER OF ATOMS
3
ITEM: BOX BOUNDS pp pp pp
-1.5571648532160492e-01 8.1557164853215998e+00
2.9240000000000427e-01 7.7076000000000322e+00
-1.5571640002961962e-01 8.1557164000296165e+00
ITEM: ATOMS id type x y z 
3 2 4 2.82327 3.99996 
2 2 4 5.17673 3.99996 
1 1 4 4 4.00008 
ITEM: TIMESTEP
760
ITEM: NUMBER OF ATOMS
3
ITEM: BOX BOUNDS pp pp pp
-1.5824845777321808e-01 8.1582484577732099e+00
2.9640000000000438e-01 7.7036000000000326e+00
-1.5824837129182753e-01 8.1582483712918261e+00
ITEM: ATOMS id type x y z 
3 2 4 2.82327 3.99996 
2 2 4 5.17673 3.99996 
1 1 4 4 4.00008 
ITEM: TIMESTEP
770
ITEM: NUMBER OF ATOMS
3
ITEM: BOX BOUNDS pp pp pp
-1.6079984640182257e-01 8.1607998464018134e+00
3.0040000000000450e-01 7.6996000000000331e+00
-1.6079975872830607e-01 8.1607997587283041e+00
ITEM: ATOMS id type x y z 
3 2 4 2.82327 3.99996 
2 2 4 5.17673 3.99996 
1 1 4 4 4.00008 
ITEM: TIMESTEP
780
ITEM: NUMBER OF ATOMS
3
ITEM: BOX BOUNDS pp pp pp
-1.6337289047089473e-01 8.1633728904708853e+00
3.0440000000000461e-01 7.6956000000000335e+00
-1.6337280160181111e-01 8.1633728016018114e+00
ITEM: ATOMS id type x y z 
3 2 4 2.82326 3.99996 
2 2 4 5.17674 3.99996 
1 1 4 4 4.00008 
ITEM: TIMESTEP
790
ITEM: NUMBER OF ATOMS
3
ITEM: BOX BOUNDS pp pp pp
-1.6597140506897745e-01 8.1659714050689693e+00
3.0840000000000473e-01 7.6916000000000340e+00
-1.6597131499941728e-01 8.1659713149994193e+00
ITEM: ATOMS id type x y z 
3 2 4 2.82325 3.99996 
2 2 4 5.17675 3.99996 
1 1 4 4 4.00008 
ITEM: TIMESTEP
800
ITEM: NUMBER OF ATOMS
3
ITEM: BOX BOUNDS pp pp pp
-1.6857916456089189e-01 8.1685791645608816e+00
3.1240000000000484e-01 7.6876000000000344e+00
-1.6857907329239985e-01 8.1685790732924008e+00
ITEM: ATOMS id type x y z 
3 2 4 2.82325 3.99996 
2 2 4 5.17675 3.99996 
1 1 4 4 4.00008 
ITEM: TIMESTEP
810
ITEM: NUMBER OF ATOMS
3
ITEM: BOX BOUNDS pp pp pp
-1.7120481552938577e-01 8.1712048155293751e+00
3.1640000000000496e-01 7.6836000000000348e+00
-1.7120472305991347e-01 8.1712047230599172e+00
ITEM: ATOMS id type x y z 
3 2 4 2.82324 3.99996 
2 2 4 5.17676 3.99996 
1 1 4 4 4.00008 
ITEM: TIMESTEP
820
ITEM: NUMBER OF ATOMS
3
ITEM: BOX BOUNDS pp pp pp
-1.7385203183178194e-01 8.1738520318317693e+00
3.2040000000000507e-01 7.6796000000000353e+00
-1.7385193815801150e-01 8.1738519381580144e+00
ITEM: ATOMS id type x y z 
3 2 4 2.82324 3.99996 
2 2 4 5.17676 3.99996 
1 1 4 4 4.00008 
ITEM: TIMESTEP
830
ITEM: NUMBER OF ATOMS
3
ITEM: BOX BOUNDS pp pp pp
-1.7652025033148974e-01 8.1765202503314800e+00
3.2440000000000518e-01 7.6756000000000357e+00
-1.7652015545022084e-01 8.1765201554502234e+00
ITEM: ATOMS id type x y z 
3 2 4 2.82323 3.99996 
2 2 4 5.17677 3.99996 
1 1 4 4 4.00008 
ITEM: TIMESTEP
840
ITEM: NUMBER OF ATOMS
3
ITEM: BOX BOUNDS pp pp pp
-1.7920902413540798e-01 8.1792090241353996e+00
3.2840000000000530e-01 7.6716000000000362e+00
-1.7920892804357924e-01 8.1792089280435807e+00
ITEM: ATOMS id type x y z 
3 2 4 2.82323 3.99996 
2 2 4 5.17677 3.99996 
1 1 4 4 4.00008 
ITEM: TIMESTEP
850
ITEM: NUMBER OF ATOMS
3
ITEM: BOX BOUNDS pp pp pp
-1.8192019094289130e-01 8.1819201909428827e+00
3.3240000000000541e-01 7.6676000000000366e+00
-1.8192009363680128e-01 8.1819200936368031e+00
ITEM: ATOMS id type x y z 
3 2 4 2.82322 3.99996 
2 2 4 5.17678 3.99996 
1 1 4 4 4.00008 
ITEM: TIMESTEP
860
ITEM: NUMBER OF ATOMS
3
ITEM: BOX BOUNDS pp pp pp
-1.8466368434553648e-01 8.1846636843455265e+00
3.3640000000000553e-01 7.6636000000000370e+00
-1.8466358581752684e-01 8.1846635858175265e+00
ITEM: ATOMS id type x y z 
3 2 4 2.82321 3.99996 
2 2 4 5.17678 3.99996 
1 1 4 4 4.00008 
ITEM: TIMESTEP
870
ITEM: NUMBER OF ATOMS
3
ITEM: BOX BOUNDS pp pp pp
-1.8741317003571908e-01 8.1874131700357093e+00
3.4040000000000564e-01 7.6596000000000375e+00
-1.8741307028843235e-01 8.1874130702884322e+00
ITEM: ATOMS id type x y z 
3 2 4 2.82322 3.99996 
2 2 4 5.17678 3.99996 
1 1 4 4 4.00008 
ITEM: TIMESTEP
880
ITEM: NUMBER OF ATOMS
3
ITEM: BOX BOUNDS pp pp pp
-1.9019715678083479e-01 8.1901971567808260e+00
3.4440000000000576e-01 7.6556000000000379e+00
-1.9019705580569912e-01 8.1901970558057009e+00
ITEM: ATOMS id type x y z 
3 2 4 2.82321 3.99996 
2 2 4 5.17679 3.99996 
1 1 4 4 4.00008 
ITEM: TIMESTEP
890
ITEM: NUMBER OF ATOMS
3
ITEM: BOX BOUNDS pp pp pp
-1.9300638584055946e-01 8.1930063858405493e+00
3.4840000000000587e-01 7.6516000000000384e+00
-1.9300628363267799e-01 8.1930062836326822e+00
ITEM: ATOMS id type x y z 
3 2 4 2.82321 3.99996 
2 2 4 5.17679 3.99996 
1 1 4 4 4.00008 
ITEM: TIMESTEP
900
ITEM: NUMBER OF ATOMS
3
ITEM: BOX BOUNDS pp pp pp
-1.9584457203099923e-01 8.1958445720309872e+00
3.5240000000000599e-01 7.6476000000000388e+00
-1.9584446858392460e-01 8.1958444685839282e+00
ITEM: ATOMS id type x y z 
3 2 4 2.8232 3.99996 
2 2 4 5.1768 3.99996 
1 1 4 4 4.00008 
ITEM: TIMESTEP
910
ITEM: NUMBER OF ATOMS
3
ITEM: BOX BOUNDS pp pp pp
-1.9869204470082008e-01 8.1986920447008096e+00
3.5640000000000610e-01 7.6436000000000393e+00
-1.9869194001552840e-01 8.1986919400155340e+00
ITEM: ATOMS id type x y z 
3 2 4 2.82321 3.99996 
2 2 4 5.17679 3.99996 
1 1 4 4 4.00008 
ITEM: TIMESTEP
920
ITEM: NUMBER OF ATOMS
3
ITEM: BOX BOUNDS pp pp pp
-2.0161419398568967e-01 8.2016141939856784e+00
3.6039500264516428e-01 7.6396049973548816e+00
-2.0161408803863687e-01 8.2016140880386441e+00
ITEM: ATOMS id type x y z 
3 2 4 2.82319 3.99996 
2 2 4 5.17681 3.99996 
1 1 4 4 4.00008 
ITEM: TIMESTEP
930
ITEM: NUMBER OF ATOMS
3
ITEM: BOX BOUNDS pp pp pp
-2.0451700723136651e-01 8.2045170072313578e+00
3.6439500264516439e-01 7.6356049973548821e+00
-2.0451690003396750e-01 8.2045169000339779e+00
ITEM: ATOMS id type x y z 
3 2 4 2.82319 3.99996 
2 2 4 5.17681 3.99996 
1 1 4 4 4.00008 
ITEM: TIMESTEP
940
ITEM: NUMBER OF ATOMS
3
ITEM: BOX BOUNDS pp pp pp
-2.0746553617150712e-01 8.2074655361714992e+00
3.6837793713773709e-01 7.6316220628623102e+00
-2.0746542771144541e-01 8.2074654277114547e+00
ITEM: ATOMS id type x y z 
3 2 4 2.82318 3.99996 
2 2 4 5.17681 3.99996 
1 1 4 4 4.00008 
ITEM: TIMESTEP
950
ITEM: NUMBER OF ATOMS
3
ITEM: BOX BOUNDS pp pp pp
-2.1041076990500784e-01 8.2104107699050033e+00
3.7234116285169311e-01 7.6276588371483545e+00
-2.1041066018831794e-01 8.2104106601883284e+00
ITEM: ATOMS id type x y z 
3 2 4 2.82319 3.99996 
2 2 4 5.17681 3.99996 
1 1 4 4 4.00008 
ITEM: TIMESTEP
960
ITEM: NUMBER OF ATOMS
3
ITEM: BOX BOUNDS pp pp pp
-2.1339937523671446e-01 8.2133993752367118e+00
3.7627265780353769e-01 7.6237273421965108e+00
-2.1339926425233682e-01 8.2133992642523470e+00
ITEM: ATOMS id type x y z 
3 2 4 2.82317 3.99996 
2 2 4 5.17683 3.99996 
1 1 4 4 4.00008 
ITEM: TIMESTEP
970
ITEM: NUMBER OF ATOMS
3
ITEM: BOX BOUNDS pp pp pp
-2.1636158783595033e-01 8.2163615878359479e+00
3.8020004923446599e-01 7.6197999507655823e+00
-2.1636147559740920e-01 8.2163614755974184e+00
ITEM: ATOMS id type x y z 
3 2 4 2.82319 3.99996 
2 2 4 5.17681 3.99996 
1 1 4 4 4.00008 
ITEM: TIMESTEP
980
ITEM: NUMBER OF ATOMS
3
ITEM: BOX BOUNDS pp pp pp
-2.1939978111705483e-01 8.2193997811170547e+00