ITEM: TIMESTEP
0
ITEM: NUMBER OF ATOMS
51
ITEM: BOX BOUNDS pp pp pp
0.0000000000000000e+00 1.1000000000000000e+01
0.0000000000000000e+00 1.1002000000000001e+01
0.0000000000000000e+00 1.1000000000000000e+01
ITEM: ATOMS id type x y z 
10 1 4.603 4.603 4.603 
11 1 3.085 3.085 3.085 
12 1 3.796 3.796 3.796 
46 1 0.726 0.725 0.725 
47 1 2.26 2.259 2.26 
48 1 1.551 1.55 1.55 
49 2 4.929 4.839 3.32 
51 3 5.012 4.775 1.416 
19 1 4.546 4.545 6.226 
20 1 3.013 3.013 7.764 
21 1 3.721 3.721 7.053 
31 1 0.668 0.667 10.103 
32 1 2.187 2.187 8.589 
33 1 1.476 1.475 9.298 
16 1 4.546 6.225 4.546 
17 1 3.013 7.765 3.013 
18 1 3.721 7.053 3.722 
25 1 0.668 10.103 0.668 
26 1 2.188 8.589 2.188 
27 1 1.476 9.298 1.476 
4 1 4.608 6.169 6.169 
5 1 3.086 7.684 7.684 
6 1 3.799 6.974 6.974 
37 1 0.729 10.046 10.046 
38 1 2.259 8.509 8.508 
39 1 1.552 9.219 9.219 
13 1 6.225 4.546 4.546 
14 1 7.764 3.013 3.013 
15 1 7.053 3.721 3.722 
28 1 10.102 0.667 0.668 
29 1 8.589 2.187 2.188 
30 1 9.298 1.475 1.476 
50 2 5.619 5.228 2.057 
1 1 6.168 4.608 6.169 
2 1 7.684 3.086 7.684 
3 1 6.974 3.799 6.974 
40 1 10.045 0.728 10.046 
41 1 8.508 2.259 8.508 
42 1 9.218 1.551 9.218 
7 1 6.169 6.169 4.608 
8 1 7.684 7.684 3.086 
9 1 6.974 6.974 3.799 
43 1 10.046 10.047 0.729 
44 1 8.508 8.509 2.259 
45 1 9.219 9.219 1.552 
22 1 6.229 6.229 6.229 
23 1 7.764 7.765 7.765 
24 1 7.055 7.056 7.055 
34 1 10.108 10.108 10.107 
35 1 8.59 8.59 8.59 
36 1 9.301 9.301 9.3 
ITEM: TIMESTEP
10
ITEM: NUMBER OF ATOMS
51
ITEM: BOX BOUNDS pp pp pp
0.0000000000000000e+00 1.1000000000000000e+01
0.0000000000000000e+00 1.1002000000000001e+01
0.0000000000000000e+00 1.1000000000000000e+01
ITEM: ATOMS id type x y z 
10 1 4.58345 4.59107 4.59073 
11 1 3.06138 3.05867 3.0624 
12 1 3.74397 3.74925 3.81307 
46 1 0.736525 0.735618 0.735634 
47 1 2.26267 2.26257 2.26306 
48 1 1.55503 1.55457 1.55486 
49 2 4.94433 4.86417 3.26143 
51 3 5.02558 4.78568 1.42876 
19 1 4.54006 4.54114 6.26708 
20 1 3.0046 3.00471 7.76921 
21 1 3.71457 3.71412 7.06601 
31 1 0.675283 0.674126 10.0901 
32 1 2.19152 2.19096 8.58523 
33 1 1.48185 1.4821 9.29035 
16 1 4.53182 6.28835 4.55743 
17 1 2.99973 7.77561 2.99913 
18 1 3.70782 7.07152 3.70946 
25 1 0.675284 10.0899 0.675849 
26 1 2.19097 8.586 2.1912 
27 1 1.48174 9.29198 1.48152 
4 1 4.59819 6.16955 6.18214 
5 1 3.08222 7.68898 7.68651 
6 1 3.79163 6.9789 6.98411 
37 1 0.737356 10.0374 10.0372 
38 1 2.26751 8.50048 8.49981 
39 1 1.56287 9.20829 9.20772 
13 1 6.30114 4.52807 4.5638 
14 1 7.77964 2.99488 2.99449 
15 1 7.07545 3.70291 3.70448 
28 1 10.0887 0.674642 0.675345 
29 1 8.58535 2.19094 2.1915 
30 1 9.29135 1.48079 1.48252 
50 2 5.61016 5.22078 2.03776 
1 1 6.1685 4.59799 6.19321 
2 1 7.68912 3.0819 7.68708 
3 1 6.97929 3.7914 6.98402 
40 1 10.0364 0.735853 10.0371 
41 1 8.49978 2.26678 8.49957 
42 1 9.20767 1.56241 9.20798 
7 1 6.18029 6.18961 4.59975 
8 1 7.68813 7.68814 3.08015 
9 1 6.98215 6.98215 3.79383 
43 1 10.0372 10.038 0.737449 
44 1 8.49965 8.50013 2.26763 
45 1 9.20778 9.20872 1.56277 
22 1 6.23808 6.24032 6.23995 
23 1 7.77256 7.77349 7.77276 
24 1 7.06494 7.0659 7.06629 
34 1 10.1001 10.1006 10.0994 
35 1 8.58657 8.58659 8.58615 
36 1 9.29409 9.29424 9.294 
ITEM: TIMESTEP
20
ITEM: NUMBER OF ATOMS
51
ITEM: BOX BOUNDS pp pp pp
0.0000000000000000e+00 1.1000000000000000e+01
0.0000000000000000e+00 1.1002000000000001e+01
0.0000000000000000e+00 1.1000000000000000e+01
ITEM: ATOMS id type x y z 
10 1 4.60876 4.60955 4.57977 
11 1 3.05838 3.05835 3.06696 
12 1 3.72819 3.73414 3.83221 
46 1 0.730459 0.729333 0.728964 
47 1 2.25345 2.25218 2.25159 
48 1 1.54706 1.54583 1.54549 
49 2 4.93024 4.85957 3.23981 
51 3 5.03414 4.79337 1.43675 
19 1 4.54495 4.54658 6.2801 
20 1 3.00153 3.00117 7.76753 
21 1 3.71659 3.71706 7.07536 
31 1 0.675484 0.671897 10.0799 
32 1 2.19418 2.19121 8.58378 
33 1 1.48005 1.48498 9.28774 
16 1 4.5434 6.31291 4.57251 
17 1 2.99647 7.77404 2.99403 
18 1 3.7079 7.08263 3.71378 
25 1 0.670556 10.0804 0.674399 
26 1 2.18868 8.58617 2.1909 
27 1 1.48299 9.29313 1.47853 
4 1 4.59357 6.16322 6.18428 
5 1 3.0797 7.68953 7.6873 
6 1 3.79263 6.98062 6.9878 
37 1 0.737842 10.0361 10.0348 
38 1 2.26862 8.49982 8.49901 
39 1 1.5635 9.20746 9.20649 
13 1 6.32723 4.54086 4.58388 
14 1 7.7753 2.9944 2.99159 
15 1 7.08427 3.70592 3.7134 
28 1 10.0808 0.672699 0.672166 
29 1 8.58868 2.19037 2.18768 
30 1 9.29064 1.47441 1.48207 
50 2 5.61136 5.22023 2.01845 
1 1 6.16264 4.59713 6.19172 
2 1 7.69141 3.08136 7.69015 
3 1 6.97945 3.78684 6.98605 
40 1 10.0348 0.735886 10.0338 
41 1 8.49937 2.26699 8.49894 
42 1 9.20773 1.56345 9.20751 
7 1 6.17518 6.18028 4.60449 
8 1 7.68741 7.68881 3.08084 
9 1 6.98316 6.98113 3.7926 
43 1 10.0346 10.0351 0.737997 
44 1 8.49858 8.49911 2.26892 
45 1 9.20643 9.20687 1.56352 
22 1 6.24266 6.24654 6.24018 
23 1 7.77504 7.77622 7.77483 
24 1 7.06708 7.06755 7.06918 
34 1 10.0989 10.0995 10.0976 
35 1 8.5872 8.58736 8.58436 
36 1 9.2927 9.29271 9.29734 
ITEM: TIMESTEP
30
ITEM: NUMBER OF ATOMS
51
ITEM: BOX BOUNDS pp pp pp
0.0000000000000000e+00 1.1000000000000000e+01
0.0000000000000000e+00 1.1002000000000001e+01
0.0000000000000000e+00 1.1000000000000000e+01
ITEM: ATOMS id type x y z 
10 1 4.66256 4.65501 4.50215 
11 1 3.04549 3.0483 3.09043 
12 1 3.68982 3.69886 3.8953 
46 1 0.713447 0.710339 0.706432 
47 1 2.24665 2.24552 2.23466 
48 1 1.53812 1.53488 1.53653 
49 2 4.89644 4.84747 3.2115 
51 3 5.03665 4.80259 1.45936 
19 1 4.55639 4.56128 6.29466 
20 1 3.00845 3.0074 7.76019 
21 1 3.72768 3.72934 7.07925 
31 1 0.668413 0.672491 10.0603 
32 1 2.19496 2.20391 8.58225 
33 1 1.48837 1.4722 9.26721 
16 1 4.56231 6.35478 4.58847 
17 1 2.99397 7.76164 2.99091 
18 1 3.72077 7.11207 3.73432 
25 1 0.667096 10.0694 0.663551 
26 1 2.19675 8.59219 2.18912 
27 1 1.46704 9.27275 1.47576 
4 1 4.59821 6.1504 6.19786 
5 1 3.08744 7.69617 7.69168 
6 1 3.775 6.96599 6.98896 
37 1 0.734604 10.0302 10.0243 
38 1 2.27037 8.50083 8.497 
39 1 1.56341 9.20496 9.20587 
13 1 6.37352 4.56045 4.60066 
14 1 7.76311 2.9919 2.98641 
15 1 7.11855 3.7168 3.73659 
28 1 10.067 0.656302 0.66889 
29 1 8.58978 2.18439 2.19552 
30 1 9.27829 1.48246 1.46225 
50 2 5.63442 5.23363 1.99195 
1 1 6.14874 4.59335 6.20281 
2 1 7.6973 3.07673 7.68409 
3 1 6.96621 3.79179 7.00982 
40 1 10.0307 0.734601 10.0253 
41 1 8.50135 2.2723 8.50059 
42 1 9.2047 1.55572 9.2009 
7 1 6.17959 6.17495 4.61291 
8 1 7.686 7.67868 3.08343 
9 1 6.97217 6.98804 3.80066 
43 1 10.0237 10.0225 0.736667 
44 1 8.49235 8.49327 2.27604 
45 1 9.19976 9.19827 1.56697 
22 1 6.2495 6.25651 6.2556 
23 1 7.77907 7.77683 7.78289 
24 1 7.07091 7.07813 7.06525 
34 1 10.0927 10.0916 10.1019 
35 1 8.58226 8.58207 8.59251 
36 1 9.30002 9.30074 9.28047 
ITEM: TIMESTEP
40
ITEM: NUMBER OF ATOMS
51
ITEM: BOX BOUNDS pp pp pp
0.0000000000000000e+00 1.1000000000000000e+01
0.0000000000000000e+00 1.1002000000000001e+01
0.0000000000000000e+00 1.1000000000000000e+01
ITEM: ATOMS id type x y z 
10 1 4.66441 4.65492 4.47236 
11 1 3.03882 3.04187 3.10278 
12 1 3.68468 3.69372 3.90492 
46 1 0.713981 0.710712 0.708769 
47 1 2.24597 2.24458 2.23519 
48 1 1.54038 1.53807 1.53155 
49 2 4.89198 4.84234 3.21884 
51 3 5.0321 4.80269 1.46739 
19 1 4.55618 4.55889 6.28452 
20 1 3.01187 3.01164 7.76095 
21 1 3.72993 3.73135 7.07454 
31 1 0.673399 0.669433 10.0609 
32 1 2.19881 2.19921 8.57529 
33 1 1.48497 1.48404 9.27063 
16 1 4.56241 6.35242 4.58777 
17 1 2.99527 7.76669 2.99427 
18 1 3.72221 7.11117 3.73307 
25 1 0.661053 10.0681 0.666629 
26 1 2.19135 8.58471 2.18789 
27 1 1.47481 9.28024 1.47534 
4 1 4.59185 6.14582 6.19781 
5 1 3.08234 7.69121 7.68945 
6 1 3.78621 6.97026 6.99345 
37 1 0.734156 10.0298 10.0246 
38 1 2.27219 8.49976 8.49733 
39 1 1.56264 9.20609 9.20239 
13 1 6.36827 4.56147 4.59992 
14 1 7.76601 2.99391 2.9923 
15 1 7.11851 3.7205 3.73785 
28 1 10.0695 0.659261 0.665034 
29 1 8.58549 2.18819 2.187 
30 1 9.27948 1.473 1.47369 
50 2 5.64665 5.24126 1.98735 
1 1 6.14421 4.59665 6.20691 
2 1 7.69239 3.08084 7.69038 
3 1 6.96952 3.7877 6.99925 
40 1 10.0302 0.731374 10.0243 
41 1 8.50053 2.27062 8.498 
42 1 9.20591 1.55938 9.20213 
7 1 6.18006 6.179 4.61806 
8 1 7.68192 7.68324 3.08401 
9 1 6.97962 6.9799 3.80114 
43 1 10.0238 10.0221 0.736291 
44 1 8.49328 8.49314 2.27551 
45 1 9.19871 9.19808 1.56569 
22 1 6.25034 6.25679 6.2559 
23 1 7.77974 7.78041 7.78014 
24 1 7.06978 7.07316 7.07261 
34 1 10.0936 10.0933 10.0967 
35 1 8.58649 8.58621 8.5852 
36 1 9.29407 9.29378 9.29491 
ITEM: TIMESTEP
50
ITEM: NUMBER OF ATOMS
51
ITEM: BOX BOUNDS pp pp pp
0.0000000000000000e+00 1.1000000000000000e+01
0.0000000000000000e+00 1.1002000000000001e+01
0.0000000000000000e+00 1.1000000000000000e+01
ITEM: ATOMS id type x y z 
10 1 4.66711 4.66101 4.42579 
11 1 3.02168 3.02526 3.13128 
12 1 3.67182 3.68083 3.92734 
46 1 0.715921 0.713862 0.707657 
47 1 2.24606 2.24537 2.23475 
48 1 1.54404 1.54131 1.52522 
49 2 4.88563 4.83456 3.22536 
51 3 5.02695 4.80651 1.48647 
19 1 4.55401 4.5544 6.26591 
20 1 3.01952 3.0203 7.76026 
21 1 3.73417 3.73471 7.0643 
31 1 0.674798 0.672785 10.0616 
32 1 2.20048 2.20152 8.57018 
33 1 1.48825 1.4853 9.26527 
16 1 4.56253 6.34494 4.58435 
17 1 3.00047 7.77428 3.00059 
18 1 3.72388 7.11143 3.73539 
25 1 0.662504 10.0686 0.66781 
26 1 2.18867 8.58074 2.18506 
27 1 1.47266 9.27794 1.47389 
4 1 4.59486 6.13964 6.19948 
5 1 3.08921 7.68922 7.69522 
6 1 3.77575 6.9657 6.98548 
37 1 0.733301 10.0335 10.0244 
38 1 2.27087 8.50106 8.49805 
39 1 1.56147 9.208 9.20215 
13 1 6.35956 4.56136 4.5961 
14 1 7.77615 2.99726 2.99925 
15 1 7.11986 3.7219 3.73917 
28 1 10.0697 0.658228 0.669661 
29 1 8.58052 2.18382 2.18645 
30 1 9.27671 1.4752 1.46762 
50 2 5.66907 5.25484 1.97357 
1 1 6.13847 4.59446 6.20583 
2 1 7.68825 3.08383 7.69171 
3 1 6.9659 3.78834 6.99896 
40 1 10.0344 0.730209 10.0246 
41 1 8.50159 2.26793 8.49879 
42 1 9.20928 1.55907 9.20233 
7 1 6.18563 6.18374 4.62543 
8 1 7.68168 7.68301 3.08298 
9 1 6.98163 6.98157 3.80461 
43 1 10.0231 10.023 0.735068 
44 1 8.49235 8.49215 2.27518 
45 1 9.19763 9.19744 1.56489 
22 1 6.24732 6.25326 6.26581 
23 1 7.7817 7.78266 7.77984 
24 1 7.06926 7.07292 7.077 
34 1 10.093 10.0923 10.0979 
35 1 8.58793 8.58753 8.58591 
36 1 9.29467 9.29432 9.29708 
ITEM: TIMESTEP
60
ITEM: NUMBER OF ATOMS
51
ITEM: BOX BOUNDS pp pp pp
0.0000000000000000e+00 1.1000000000000000e+01
0.0000000000000000e+00 1.1002000000000001e+01
0.0000000000000000e+00 1.1000000000000000e+01
ITEM: ATOMS id type x y z 
10 1 4.66757 4.66116 4.42271 
11 1 3.01648 3.02054 3.14116 
12 1 3.66876 3.67791 3.93385 
46 1 0.716731 0.713764 0.704682 
47 1 2.24736 2.2461 2.23202 
48 1 1.54179 1.53994 1.52798 
49 2 4.88259 4.83113 3.21839 
51 3 5.02755 4.80901 1.49029 
19 1 4.553 4.55365 6.26376 
20 1 3.01962 3.02036 7.76067 
21 1 3.73366 3.73432 7.06378 
31 1 0.676497 0.673821 10.0591 
32 1 2.20218 2.20252 8.56768 
33 1 1.48943 1.48783 9.26422 
16 1 4.56384 6.34639 4.58444 
17 1 2.99998 7.77691 3.00089 
18 1 3.72431 7.11409 3.73495 
25 1 0.661513 10.0689 0.666482 
26 1 2.1883 8.57905 2.18514 
27 1 1.47327 9.27749 1.47422 
4 1 4.58915 6.13756 6.19504 
5 1 3.08335 7.6882 7.69173 
6 1 3.7845 6.9661 6.99464 
37 1 0.734329 10.0335 10.0245 
38 1 2.2713 8.50092 8.49752 
39 1 1.56235 9.20798 9.2021 
13 1 6.36077 4.5626 4.59503 
14 1 7.7783 2.99774 3.00097 
15 1 7.1215 3.72295 3.74005 
28 1 10.07 0.659251 0.665788 
29 1 8.57843 2.18589 2.18366 
30 1 9.27687 1.47123 1.47237 
50 2 5.6747 5.25806 1.96729 
1 1 6.13742 4.59398 6.20489 
2 1 7.68879 3.08293 7.69375 
3 1 6.96575 3.78669 7.00019 
40 1 10.0345 0.731602 10.0244 
41 1 8.50115 2.26892 8.49759 
42 1 9.20822 1.55966 9.20187 
7 1 6.18655 6.18359 4.6296 
8 1 7.68098 7.68227 3.08349 
9 1 6.98218 6.98192 3.80628 
43 1 10.0236 10.023 0.736494 
44 1 8.49196 8.49196 2.27439 
45 1 9.19801 9.19771 1.56499 
22 1 6.24643 6.25241 6.26605 
23 1 7.78106 7.78239 7.7796 
24 1 7.06908 7.0722 7.07719 
34 1 10.094 10.0932 10.0988 
35 1 8.58772 8.5874 8.58575 
36 1 9.29474 9.29432 9.29664 
ITEM: TIMESTEP
70
ITEM: NUMBER OF ATOMS
51
ITEM: BOX BOUNDS pp pp pp
0.0000000000000000e+00 1.1000000000000000e+01
0.0000000000000000e+00 1.1002000000000001e+01
0.0000000000000000e+00 1.1000000000000000e+01
ITEM: ATOMS id type x y z 
10 1 4.66873 4.66719 4.39078 
11 1 2.96724 2.97949 3.23365 
12 1 3.64474 3.65283 3.98499 
46 1 0.718058 0.712333 0.695539 
47 1 2.24851 2.24134 2.23451 
48 1 1.54338 1.54822 1.51797 
49 2 4.84838 4.79476 3.16496 
51 3 5.02991 4.83117 1.52266 
19 1 4.54596 4.54601 6.2385 
20 1 3.02663 3.02748 7.75704 
21 1 3.73612 3.73738 7.05102 
31 1 0.685232 0.682561 10.0477 
32 1 2.20882 2.20901 8.55637 
33 1 1.49682 1.49476 9.25466 
16 1 4.56973 6.35187 4.5828 
17 1 3.00957 7.79679 3.01885 
18 1 3.73507 7.11596 3.73379 
25 1 0.661943 10.0724 0.661738 
26 1 2.17946 8.57233 2.18142 
27 1 1.4721 9.27605 1.46929 
4 1 4.57817 6.13508 6.19576 
5 1 3.08915 7.67954 7.69753 
6 1 3.77645 6.95446 6.99039 
37 1 0.737708 10.0404 10.0229 
38 1 2.27128 8.50072 8.495 
39 1 1.56513 9.20894 9.20099 
13 1 6.35972 4.56903 4.59325 
14 1 7.8012 3.00501 3.01908 
15 1 7.12776 3.73337 3.74125 
28 1 10.0709 0.660118 0.663296 
29 1 8.5698 2.17666 2.1784 
30 1 9.27692 1.46969 1.46855 
50 2 5.73415 5.29244 1.90716 
1 1 6.13018 4.58125 6.19897 
2 1 7.67659 3.08467 7.70344 
3 1 6.9625 3.78341 6.99605 
40 1 10.0422 0.738661 10.0213 
41 1 8.50569 2.27136 8.49743 
42 1 9.20552 1.55524 9.20098 
7 1 6.18933 6.18742 4.65125 
8 1 7.67765 7.67928 3.08447 
9 1 6.9892 6.98621 3.8228 
43 1 10.0282 10.0287 0.740001 
44 1 8.48856 8.48994 2.27147 
45 1 9.19595 9.19509 1.56259 
22 1 6.23081 6.24516 6.28016 
23 1 7.77461 7.7848 7.77967 
24 1 7.07436 7.06261 7.08116 
34 1 10.0979 10.0972 10.1012 
35 1 8.58925 8.58991 8.58802 
36 1 9.29871 9.29672 9.29617 
ITEM: TIMESTEP
80
ITEM: NUMBER OF ATOMS
51
ITEM: BOX BOUNDS pp pp pp
0.0000000000000000e+00 1.1000000000000000e+01
0.0000000000000000e+00 1.1002000000000001e+01
0.0000000000000000e+00 1.1000000000000000e+01
ITEM: ATOMS id type x y z 
10 1 4.66637 4.66406 4.38747 
11 1 2.96522 2.97391 3.23772 
12 1 3.64307 3.65383 3.98528 
46 1 0.719366 0.717491 0.695108 
47 1 2.24554 2.2445 2.24043 
48 1 1.54949 1.54682 1.52099 
49 2 4.84454 4.79056 3.16458 
51 3 5.03203 4.83445 1.52386 
19 1 4.54614 4.54583 6.23628 
20 1 3.02625 3.02759 7.75794 
21 1 3.7349 3.73518 7.04845 
31 1 0.684699 0.681678 10.0515 
32 1 2.20886 2.20856 8.55687 
33 1 1.49603 1.49487 9.2548 
16 1 4.57104 6.34222 4.57858 
17 1 3.0091 7.79497 3.01366 
18 1 3.73406 7.1253 3.74041 
25 1 0.662376 10.0743 0.662819 
26 1 2.18179 8.57198 2.18286 
27 1 1.47149 9.27414 1.47138 
4 1 4.57682 6.13167 6.18845 
5 1 3.08211 7.67803 7.69861 
6 1 3.78225 6.96132 6.99471 
37 1 0.738024 10.0393 10.021 
38 1 2.27142 8.50037 8.49591 
39 1 1.56495 9.20991 9.20029 
13 1 6.35356 4.57059 4.58797 
14 1 7.79963 3.00829 3.01678 
15 1 7.13198 3.73008 3.74776 
28 1 10.0751 0.659861 0.663421 
29 1 8.57069 2.17936 2.18069 
30 1 9.27261 1.46886 1.46961 
50 2 5.73895 5.29508 1.89887 
1 1 6.13289 4.5824 6.19359 
2 1 7.67831 3.08357 7.70275 
3 1 6.95983 3.78257 6.99947 
40 1 10.0406 0.734614 10.0213 
41 1 8.50152 2.27019 8.49706 
42 1 9.20968 1.56051 9.20011 
7 1 6.1923 6.18831 4.65303 
8 1 7.68175 7.68145 3.08957 
9 1 6.98329 6.98389 3.81443 
43 1 10.0267 10.0264 0.736761 
44 1 8.48933 8.48926 2.26741 
45 1 9.19736 9.19898 1.56587 
22 1 6.23626 6.24207 6.28183 
23 1 7.77982 7.78328 7.78061 
24 1 7.06723 7.06696 7.08442 
34 1 10.0981 10.0968 10.1017 
35 1 8.58972 8.59012 8.58674 
36 1 9.29681 9.29668 9.29734 
ITEM: TIMESTEP
90
ITEM: NUMBER OF ATOMS
51
ITEM: BOX BOUNDS pp pp pp
0.0000000000000000e+00 1.1000000000000000e+01
0.0000000000000000e+00 1.1002000000000001e+01
0.0000000000000000e+00 1.1000000000000000e+01
ITEM: ATOMS id type x y z 
10 1 4.66479 4.66265 4.38647 
11 1 2.96366 2.97211 3.24065 
12 1 3.642 3.65322 3.98658 
46 1 0.720511 0.718213 0.694828 
47 1 2.24528 2.24418 2.24266 
48 1 1.54931 1.54707 1.52178 
49 2 4.84312 4.78896 3.16308 
51 3 5.03279 4.83597 1.52458 
19 1 4.54652 4.54639 6.23533 
20 1 3.02664 3.02767 7.75706 
21 1 3.73479 3.73562 7.04788 
31 1 0.684326 0.681466 10.0523 
32 1 2.20838 2.20821 8.55689 
33 1 1.49623 1.49484 9.2557 
16 1 4.57099 6.34192 4.57878 
17 1 3.00983 7.79669 3.01416 
18 1 3.73313 7.12378 3.73978 
25 1 0.662818 10.0747 0.662924 
26 1 2.1818 8.57199 2.18261 
27 1 1.47146 9.27479 1.47191 
4 1 4.579 6.13243 6.18739 
5 1 3.08342 7.67883 7.69841 
6 1 3.7797 6.95842 6.99476 
37 1 0.738227 10.0396 10.0215 
38 1 2.27156 8.5003 8.4965 
39 1 1.56431 9.21027 9.19991 
13 1 6.35259 4.56949 4.58757 
14 1 7.80094 3.00764 3.01742 
15 1 7.13174 3.731 3.74638 
28 1 10.0751 0.660189 0.663056 
29 1 8.57024 2.17947 2.18035 
30 1 9.27402 1.46904 1.47076 
50 2 5.74178 5.29667 1.89472 
1 1 6.13302 4.58319 6.19319 
2 1 7.67841 3.08379 7.7024 
3 1 6.95843 3.78181 7.00021 
40 1 10.0403 0.734344 10.0212 
41 1 8.50102 2.26949 8.49745 
42 1 9.21089 1.56149 9.20019 
7 1 6.19152 6.18886 4.65142 
8 1 7.6809 7.68146 3.08798 
9 1 6.98603 6.98509 3.81738 
43 1 10.0273 10.0274 0.737496 
44 1 8.48948 8.49003 2.26832 
45 1 9.1972 9.19758 1.56381 
22 1 6.23674 6.2413 6.28242 
23 1 7.7805 7.78216 7.77996 
24 1 7.06483 7.06786 7.08577 
34 1 10.0979 10.0967 10.1015 
35 1 8.58951 8.59013 8.58666 
36 1 9.29699 9.2966 9.29703 
ITEM: TIMESTEP
100
ITEM: NUMBER OF ATOMS
51
ITEM: BOX BOUNDS pp pp pp
0.0000000000000000e+00 1.1000000000000000e+01
0.0000000000000000e+00 1.1002000000000001e+01
0.0000000000000000e+00 1.1000000000000000e+01
ITEM: ATOMS id type x y z 
10 1 4.6646 4.66246 4.38614 
11 1 2.96318 2.97161 3.24145 
12 1 3.64171 3.65302 3.98702 
46 1 0.720765 0.718435 0.694775 
47 1 2.24515 2.24408 2.24322 
48 1 1.54932 1.54711 1.52201 
49 2 4.8428 4.78856 3.16267 
51 3 5.03299 4.83637 1.52478 
19 1 4.54634 4.54646 6.23512 
20 1 3.02647 3.02765 7.75702 
21 1 3.73491 3.73543 7.04772 
31 1 0.68427 0.681449 10.0525 
32 1 2.20836 2.20816 8.55693 
33 1 1.49619 1.49484 9.25576 
16 1 4.57101 6.3418 4.57877 
17 1 3.01006 7.79698 3.01449 
18 1 3.7331 7.12343 3.73952 
25 1 0.662957 10.0749 0.663003 
26 1 2.18183 8.57207 2.1826 
27 1 1.47143 9.27484 1.47195 
4 1 4.57908 6.13253 6.1871 
5 1 3.08331 7.67853 7.69841 
6 1 3.77988 6.95856 6.99468 
37 1 0.738193 10.0396 10.0216 
38 1 2.27153 8.5003 8.49655 
39 1 1.56431 9.2103 9.19996 
13 1 6.35235 4.56952 4.58739 
14 1 7.80125 3.00775 3.01764 
15 1 7.13144 3.73108 3.74618 
28 1 10.0752 0.660318 0.663061 
29 1 8.57029 2.17947 2.1804 
30 1 9.27415 1.46908 1.47081 
50 2 5.74258 5.29712 1.89358 
1 1 6.13309 4.58325 6.19312 
2 1 7.67808 3.08373 7.70259 
3 1 6.95871 3.78182 6.99988 
40 1 10.0403 0.73436 10.0212 
41 1 8.50105 2.26943 8.49754 
42 1 9.21092 1.56148 9.20024 
7 1 6.19153 6.18887 4.6514 
8 1 7.68102 7.68154 3.08806 
9 1 6.98605 6.98514 3.81739 
43 1 10.0274 10.0274 0.737455 
44 1 8.48946 8.49 2.26827 
45 1 9.19726 9.19766 1.56374 
22 1 6.23665 6.24127 6.28251 
23 1 7.78038 7.78204 7.77996 
24 1 7.06476 7.0678 7.08583 
34 1 10.0979 10.0967 10.1014 
35 1 8.58954 8.59009 8.5866 
36 1 9.2969 9.29662 9.297 
ITEM: TIMESTEP
110
ITEM: NUMBER OF ATOMS
51
ITEM: BOX BOUNDS pp pp pp
0.0000000000000000e+00 1.1000000000000000e+01
0.0000000000000000e+00 1.1002000000000001e+01
0.0000000000000000e+00 1.1000000000000000e+01
ITEM: ATOMS id type x y z 
10 1 4.6535 4.64987 4.37296 
11 1 2.93469 2.94339 3.29387 
12 1 3.62454 3.6402 4.01598 
46 1 0.732339 0.729267 0.694191 
47 1 2.23532 2.23552 2.27539 
48 1 1.55067 1.54921 1.53597 
49 2 4.82305 4.76402 3.13624 
51 3 5.04487 4.86129 1.53713 
19 1 4.5459 4.54692 6.22445 
20 1 3.02524 3.0259 7.74957 
21 1 3.73337 3.73508 7.0381 
31 1 0.685105 0.68208 10.0592 
32 1 2.20778 2.20811 8.55794 
33 1 1.49749 1.4947 9.25785 
16 1 4.56991 6.32792 4.56826 
17 1 3.01521 7.80775 3.02196 
18 1 3.73563 7.12343 3.73519 
25 1 0.666228 10.0831 0.6656 
26 1 2.18365 8.57703 2.1859 
27 1 1.47308 9.27628 1.47233 
4 1 4.58189 6.13376 6.17687 
5 1 3.0799 7.66941 7.69923 
6 1 3.77882 6.95537 6.9934 
37 1 0.737149 10.0407 10.0258 
38 1 2.27111 8.49997 8.49973 
39 1 1.56416 9.21098 9.20103 
13 1 6.33601 4.57117 4.57556 
14 1 7.8151 3.01344 3.02971 
15 1 7.12404 3.73427 3.73433 
28 1 10.0804 0.664334 0.664627 
29 1 8.57385 2.18101 2.18431 
30 1 9.28037 1.47233 1.47592 
50 2 5.7914 5.32473 1.82305 
1 1 6.13491 4.58329 6.18269 
2 1 7.67013 3.08117 7.7055 
3 1 6.95439 3.77934 6.99781 
40 1 10.0416 0.735742 10.0233 
41 1 8.49937 2.27047 8.49893 
42 1 9.21028 1.56174 9.2023 
7 1 6.19253 6.1896 4.64925 
8 1 7.6861 7.68898 3.09326 
9 1 6.99175 6.98461 3.81544 
43 1 10.033 10.0319 0.735721 
44 1 8.49026 8.49294 2.26298 
45 1 9.20097 9.19836 1.56101 
22 1 6.23407 6.23814 6.28514 
23 1 7.77757 7.77963 7.78345 
24 1 7.05998 7.06357 7.09155 
34 1 10.098 10.096 10.0999 
35 1 8.58877 8.58997 8.58385 
36 1 9.29656 9.295 9.29533 
ITEM: TIMESTEP
120
ITEM: NUMBER OF ATOMS
51
ITEM: BOX BOUNDS pp pp pp
0.0000000000000000e+00 1.1000000000000000e+01
0.0000000000000000e+00 1.1002000000000001e+01
0.0000000000000000e+00 1.1000000000000000e+01
ITEM: ATOMS id type x y z 
10 1 4.65275 4.65161 4.37342 
11 1 2.93179 2.94198 3.30031 
12 1 3.62373 3.63866 4.01982 
46 1 0.729315 0.727339 0.693524 
47 1 2.23365 2.23353 2.278 
48 1 1.54953 1.54797 1.53539 
49 2 4.82078 4.76209 3.13305 
51 3 5.04628 4.86347 1.53834 
19 1 4.54639 4.54675 6.22624 
20 1 3.02487 3.0262 7.74835 
21 1 3.73339 3.73394 7.03902 
31 1 0.685526 0.682949 10.0569 
32 1 2.209 2.20863 8.55679 
33 1 1.49778 1.49627 9.25703 
16 1 4.57096 6.32956 4.56769 
17 1 3.01531 7.80829 3.0207 
18 1 3.73594 7.12367 3.73755 
25 1 0.666931 10.0817 0.664607 
26 1 2.18336 8.57668 2.18529 
27 1 1.47403 9.27979 1.47406 
4 1 4.58055 6.13333 6.17815 
5 1 3.07985 7.66923 7.7 
6 1 3.77767 6.9551 6.99226 
37 1 0.737882 10.0407 10.0245 
38 1 2.27142 8.49935 8.49878 
39 1 1.56483 9.2098 9.2019 
13 1 6.33625 4.57067 4.57268 
14 1 7.81275 3.01273 3.02434 
15 1 7.13038 3.7345 3.74244 
28 1 10.0813 0.665056 0.663966 
29 1 8.57668 2.18068 2.1853 
30 1 9.28022 1.47189 1.47383 
50 2 5.79552 5.32708 1.81558 
1 1 6.1331 4.5825 6.18418 
2 1 7.66928 3.08105 7.70503 
3 1 6.95433 3.77912 6.99793 
40 1 10.0415 0.735508 10.0241 
41 1 8.49925 2.26978 8.49969 
42 1 9.21013 1.5626 9.20223 
7 1 6.19241 6.18944 4.64881 
8 1 7.68688 7.68677 3.09265 
9 1 6.99009 6.98835 3.81826 
43 1 10.0328 10.0319 0.736747 
44 1 8.49099 8.49225 2.26312 
45 1 9.20024 9.20038 1.56077 
22 1 6.23317 6.23664 6.28319 
23 1 7.77544 7.7779 7.7845 
24 1 7.06124 7.06413 7.08886 
34 1 10.0987 10.0974 10.0997 
35 1 8.58918 8.58977 8.58452 
36 1 9.29652 9.29622 9.29487 
ITEM: TIMESTEP
130
ITEM: NUMBER OF ATOMS
51
ITEM: BOX BOUNDS pp pp pp
0.0000000000000000e+00 1.1000000000000000e+01
0.0000000000000000e+00 1.1002000000000001e+01
0.0000000000000000e+00 1.1000000000000000e+01
ITEM: ATOMS id type x y z 
10 1 4.65271 4.65164 4.37339 
11 1 2.93145 2.94173 3.30098 
12 1 3.62365 3.63856 4.0202 
46 1 0.729168 0.727225 0.693465 
47 1 2.23354 2.2334 2.2785 
48 1 1.54938 1.54781 1.5353 
49 2 4.82052 4.76186 3.13274 
51 3 5.04644 4.86372 1.53847 
19 1 4.54642 4.54662 6.22622 
20 1 3.02484 3.02606 7.74807 
21 1 3.73344 3.73418 7.03936 
31 1 0.685522 0.683016 10.0567 
32 1 2.20906 2.20864 8.5567 
33 1 1.49779 1.49639 9.257 
16 1 4.57098 6.32977 4.56784 
17 1 3.01531 7.80849 3.02075 
18 1 3.73592 7.12354 3.73738 
25 1 0.666873 10.0816 0.664533 
26 1 2.18329 8.57658 2.18527 
27 1 1.47428 9.28025 1.47423 
4 1 4.58041 6.13331 6.17816 
5 1 3.07979 7.66925 7.69999 
6 1 3.77761 6.955 6.99231 
37 1 0.737983 10.0407 10.0244 
38 1 2.2715 8.4993 8.49878 
39 1 1.56482 9.20963 9.20184 
13 1 6.33656 4.57066 4.57293 
14 1 7.81294 3.01279 3.02437 
15 1 7.13021 3.73439 3.74234 
28 1 10.0814 0.665047 0.663812 
29 1 8.57678 2.18072 2.18537 
30 1 9.28033 1.47195 1.47388 
50 2 5.79603 5.32737 1.81469 
1 1 6.13287 4.58233 6.18419 
2 1 7.66902 3.08099 7.70506 
3 1 6.9546 3.7792 6.99778 
40 1 10.0415 0.735516 10.024 
41 1 8.4993 2.2697 8.4998 
42 1 9.21003 1.56266 9.20223 
7 1 6.19245 6.18944 4.64877 
8 1 7.68696 7.68674 3.09266 
9 1 6.99004 6.98852 3.8183 
43 1 10.0328 10.0319 0.736704 
44 1 8.49102 8.49221 2.26307 
45 1 9.20024 9.20048 1.5609 
22 1 6.23328 6.23664 6.2829 
23 1 7.77543 7.77788 7.78441 
24 1 7.06106 7.06396 7.08903 
34 1 10.0987 10.0976 10.0998 
35 1 8.58915 8.58972 8.58464 
36 1 9.2966 9.29636 9.2947 
ITEM: TIMESTEP
131
ITEM: NUMBER OF ATOMS
51
ITEM: BOX BOUNDS pp pp pp
0.0000000000000000e+00 1.1000000000000000e+01
0.0000000000000000e+00 1.1002000000000001e+01
0.0000000000000000e+00 1.1000000000000000e+01
ITEM: ATOMS id type x y z 
10 1 4.65271 4.65164 4.37339 
11 1 2.93145 2.94173 3.30098 
12 1 3.62365 3.63856 4.0202 
46 1 0.729168 0.727225 0.693465 
47 1 2.23354 2.2334 2.2785 
48 1 1.54938 1.54781 1.5353 
49 2 4.82052 4.76186 3.13274 
51 3 5.04644 4.86372 1.53847 
19 1 4.54642 4.54662 6.22622 
20 1 3.02484 3.02606 7.74807 
21 1 3.73344 3.73418 7.03936 
31 1 0.685522 0.683016 10.0567 
32 1 2.20906 2.20864 8.5567 
33 1 1.49779 1.49639 9.257 
16 1 4.57098 6.32977 4.56784 
17 1 3.01531 7.80849 3.02075 
18 1 3.73592 7.12354 3.73738 
25 1 0.666874 10.0816 0.664533 
26 1 2.18329 8.57658 2.18527 
27 1 1.47428 9.28025 1.47423 
4 1 4.58041 6.13331 6.17816 
5 1 3.07979 7.66925 7.69999 
6 1 3.77761 6.955 6.99231 
37 1 0.737983 10.0407 10.0244 
38 1 2.2715 8.4993 8.49878 
39 1 1.56482 9.20963 9.20184 
13 1 6.33656 4.57066 4.57293 
14 1 7.81295 3.01279 3.02437 
15 1 7.13021 3.73439 3.74234 
28 1 10.0814 0.665048 0.663812 
29 1 8.57678 2.18072 2.18537 
30 1 9.28033 1.47195 1.47388 
50 2 5.79603 5.32737 1.81469 
1 1 6.13287 4.58233 6.18419 
2 1 7.66902 3.08099 7.70506 
3 1 6.9546 3.7792 6.99778 
40 1 10.0415 0.735516 10.024 
41 1 8.4993 2.26969 8.4998 
42 1 9.21004 1.56266 9.20223 
7 1 6.19245 6.18944 4.64877 
8 1 7.68696 7.68674 3.09266 
9 1 6.99004 6.98852 3.8183 
43 1 10.0328 10.0319 0.736704 
44 1 8.49102 8.49221 2.26307 
45 1 9.20024 9.20048 1.5609 
22 1 6.23328 6.23664 6.2829 
23 1 7.77543 7.77788 7.78441 
24 1 7.06106 7.06396 7.08903 
34 1 10.0987 10.0976 10.0998 
35 1 8.58915 8.58972 8.58464 
36 1 9.2966 9.29636 9.2947 
ITEM: TIMESTEP
139
ITEM: NUMBER OF ATOMS
51
ITEM: BOX BOUNDS pp pp pp
0.0000000000000000e+00 1.1000000000000000e+01
0.0000000000000000e+00 1.1002000000000001e+01
0.0000000000000000e+00 1.1000000000000000e+01
ITEM: ATOMS id type x y z 
10 1 4.65271 4.65164 4.37339 
11 1 2.93144 2.94172 3.301 
12 1 3.62365 3.63855 4.02021 
46 1 0.729165 0.727222 0.693464 
47 1 2.23353 2.2334 2.27851 
48 1 1.54938 1.54781 1.5353 
49 2 4.82051 4.76185 3.13273 
51 3 5.04644 4.86372 1.53848 
19 1 4.54642 4.54662 6.22622 
20 1 3.02484 3.02606 7.74807 
21 1 3.73344 3.73418 7.03935 
31 1 0.685524 0.683016 10.0567 
32 1 2.20906 2.20864 8.5567 
33 1 1.49779 1.49639 9.257 
16 1 4.57098 6.32977 4.56784 
17 1 3.01531 7.80849 3.02075 
18 1 3.73592 7.12353 3.73738 
25 1 0.666874 10.0816 0.66453 
26 1 2.18329 8.57658 2.18527 
27 1 1.47428 9.28025 1.47424 
4 1 4.5804 6.1333 6.17816 
5 1 3.07979 7.66925 7.69999 
6 1 3.77761 6.955 6.99231 
37 1 0.737985 10.0407 10.0244 
38 1 2.2715 8.4993 8.49878 
39 1 1.56482 9.20962 9.20184 
13 1 6.33657 4.57066 4.57294 
14 1 7.81295 3.0128 3.02438 
15 1 7.13021 3.73439 3.74234 
28 1 10.0814 0.665042 0.663814 
29 1 8.57678 2.18071 2.18537 
30 1 9.28033 1.47197 1.47387 
50 2 5.79604 5.32738 1.81466 
1 1 6.13287 4.58232 6.18419 
2 1 7.66901 3.08099 7.70506 
3 1 6.95461 3.7792 6.99777 
40 1 10.0415 0.735515 10.024 
41 1 8.49929 2.26969 8.4998 
42 1 9.21004 1.56267 9.20223 
7 1 6.19245 6.18944 4.64877 
8 1 7.68696 7.68674 3.09266 
9 1 6.99004 6.98852 3.8183 
43 1 10.0328 10.0319 0.736697 
44 1 8.49101 8.4922 2.26306 
45 1 9.20025 9.20049 1.56091 
22 1 6.23327 6.23663 6.2829 
23 1 7.77542 7.77788 7.78442 
24 1 7.06107 7.06396 7.08901 
34 1 10.0987 10.0976 10.0998 
35 1 8.58915 8.58972 8.58464 
36 1 9.2966 9.29636 9.2947 
ITEM: TIMESTEP
140
ITEM: NUMBER OF ATOMS
51
ITEM: BOX BOUNDS pp pp pp
-5.5000000000000003e-04 1.1000550000000000e+01
-5.4562388126067941e-04 1.1002545623881261e+01
-5.4759400145753948e-04 1.1000547594001457e+01
ITEM: ATOMS id type x y z 
10 1 4.65262 4.65156 4.37328 
11 1 2.93118 2.94147 3.30078 
12 1 3.62346 3.63837 4.02006 
46 1 0.728688 0.726749 0.692986 
47 1 2.2332 2.23307 2.27819 
48 1 1.54898 1.54742 1.53491 
49 2 4.82044 4.76178 3.13249 
51 3 5.0464 4.86366 1.53808 
19 1 4.54633 4.54652 6.2263 
20 1 3.02459 3.02581 7.74829 
21 1 3.73326 3.734 7.0395 
31 1 0.685042 0.682538 10.0572 
32 1 2.20873 2.20831 8.557 
33 1 1.49739 1.496 9.25737 
16 1 4.57089 6.32985 4.56775 
17 1 3.01506 7.80872 3.0205 
18 1 3.73574 7.12369 3.73721 
25 1 0.666391 10.082 0.664049 
26 1 2.18296 8.57689 2.18494 
27 1 1.47388 9.28063 1.47384 
4 1 4.58031 6.13337 6.17823 
5 1 3.07954 7.66946 7.70021 
6 1 3.77743 6.95514 6.99246 
37 1 0.737509 10.0412 10.0249 
38 1 2.27118 8.49959 8.49908 
39 1 1.56443 9.20999 9.20221 
13 1 6.33666 4.57057 4.57285 
14 1 7.81318 3.01255 3.02413 
15 1 7.13037 3.73422 3.74216 
28 1 10.0818 0.664562 0.663332 
29 1 8.57709 2.18038 2.18504 
30 1 9.28071 1.47157 1.47347 
50 2 5.79607 5.32736 1.81429 
1 1 6.13293 4.58223 6.18426 
2 1 7.66923 3.08075 7.70528 
3 1 6.95475 3.77903 6.99791 
40 1 10.042 0.735042 10.0245 
41 1 8.49959 2.26937 8.5001 
42 1 9.21041 1.56228 9.2026 
7 1 6.19252 6.18951 4.64868 
8 1 7.68718 7.68695 3.09242 
9 1 6.99019 6.98867 3.81813 
43 1 10.0332 10.0324 0.736223 
44 1 8.49131 8.4925 2.26274 
45 1 9.20062 9.20086 1.56052 
22 1 6.23335 6.2367 6.28297 
23 1 7.77565 7.7781 7.78465 
24 1 7.06123 7.06412 7.08917 
34 1 10.0992 10.098 10.1002 
35 1 8.58946 8.59003 8.58495 
36 1 9.29698 9.29673 9.29508 
ITEM: TIMESTEP
150
ITEM: NUMBER OF ATOMS
51
ITEM: BOX BOUNDS pp pp pp
-5.5123218969121259e-03 1.1005512321896918e+01
-5.0365931189408570e-03 1.1007036593118940e+01
-3.7960515472746916e-03 1.1003796051547274e+01
ITEM: ATOMS id type x y z 
10 1 4.65206 4.65109 4.37282 
11 1 2.92898 2.93951 3.29974 
12 1 3.62154 3.63661 4.019 
46 1 0.724076 0.722545 0.689829 
47 1 2.23012 2.23027 2.27628 
48 1 1.54517 1.54394 1.53234 
49 2 4.81982 4.76116 3.13111 
51 3 5.04602 4.86319 1.53577 
19 1 4.54575 4.54602 6.22663 
20 1 3.02244 3.02388 7.74949 