
     Program PWSCF v.7.1 starts on  3Apr2025 at 13:23:44 

     This program is part of the open-source Quantum ESPRESSO suite
     for quantum simulation of materials; please cite
         "P. Giannozzi et al., J. Phys.:Condens. Matter 21 395502 (2009);
         "P. Giannozzi et al., J. Phys.:Condens. Matter 29 465901 (2017);
         "P. Giannozzi et al., J. Chem. Phys. 152 154105 (2020);
          URL http://www.quantum-espresso.org", 
     in publications or presentations arising from this work. More details at
     http://www.quantum-espresso.org/quote

     Parallel version (MPI), running on    16 processors

     MPI processes distributed on     1 nodes
     252388 MiB available memory on the printing compute node when the environment starts

     Reading input from input.pwi
Warning: card &CELL ignored
Warning: card / ignored
Warning: card &FCP ignored
Warning: card / ignored
Warning: card &RISM ignored
Warning: card / ignored

     Current dimensions of program PWSCF are:
     Max number of different atomic species (ntypx) = 10
     Max number of k-points (npk) =  40000
     Max angular momentum in pseudopotentials (lmaxx) =  4
     file C.pbe-n-kjpaw_psl.1.0.0.UPF: wavefunction(s)  2S 2P renormalized
     file O.pbe-n-kjpaw_psl.0.1.UPF: wavefunction(s)  2P renormalized

     IMPORTANT: XC functional enforced from input :
     Exchange-correlation= PBE
                           (   1   4   3   4   0   0   0)
     Any further DFT definition will be discarded
     Please, verify this is what you really want


     gamma-point specific algorithms are used
     Message from routine  set_nelup_neldw :
     BEWARE: non-integer number of up and down electrons!

     R & G space division:  proc/nbgrp/npool/nimage =      16
     Subspace diagonalization in iterative solution of the eigenvalue problem:
     a serial algorithm will be used


     Parallelization info
     --------------------
     sticks:   dense  smooth     PW     G-vecs:    dense   smooth      PW
     Min        1116     557    138               179048    63302    7910
     Max        1118     558    140               179058    63314    7924
     Sum       17873    8927   2231              2864841  1012925  126707

     Using Slab Decomposition



     bravais-lattice index     =            0
     lattice parameter (alat)  =      25.6247  a.u.
     unit-cell volume          =   21206.6803 (a.u.)^3
     number of atoms/cell      =           51
     number of atomic types    =            4
     number of electrons       =       217.00 (up: 108.50, down: 108.50)
     number of Kohn-Sham states=          130
     kinetic-energy cutoff     =      50.0000  Ry
     charge density cutoff     =     400.0000  Ry
     scf convergence threshold =      1.0E-06
     mixing beta               =       0.3000
     number of iterations used =            8  plain     mixing
     energy convergence thresh.=      1.0E-04
     force convergence thresh. =      1.0E-03
     Exchange-correlation= PBE
                           (   1   4   3   4   0   0   0)
     nstep                     =         1000


     celldm(1)=  25.624686  celldm(2)=   0.000000  celldm(3)=   0.000000
     celldm(4)=   0.000000  celldm(5)=   0.000000  celldm(6)=   0.000000

     crystal axes: (cart. coord. in units of alat)
               a(1) = (   1.000000   0.000000   0.000000 )  
               a(2) = (  -0.493363   0.854529   0.000000 )  
               a(3) = (   0.000000   0.000000   1.474926 )  

     reciprocal axes: (cart. coord. in units 2 pi/alat)
               b(1) = (  1.000000  0.577351 -0.000000 )  
               b(2) = (  0.000000  1.170235  0.000000 )  
               b(3) = (  0.000000 -0.000000  0.678000 )  


     PseudoPot. # 1 for C  read from file:
     /home/ana.bisette/espresso/pseudo/C.pbe-n-kjpaw_psl.1.0.0.UPF
     MD5 check sum: 5d2aebdfa2cae82b50a7e79e9516da0f
     Pseudo is Projector augmented-wave + core cor, Zval =  4.0
     Generated using "atomic" code by A. Dal Corso  v.5.1
     Shape of augmentation charge: PSQ
     Using radial grid of 1073 points,  4 beta functions with: 
                l(1) =   0
                l(2) =   0
                l(3) =   1
                l(4) =   1
     Q(r) pseudized with 0 coefficients 


     PseudoPot. # 2 for Pd read from file:
     /home/ana.bisette/espresso/pseudo/Pd_ONCV_PBE-1.0.oncvpsp.upf
     MD5 check sum: eb77f42b51d86fb18e25f68156a31cf1
     Pseudo is Norm-conserving, Zval = 18.0
     Generated using ONCVPSP code by D. R. Hamann
     Using radial grid of 1410 points,  6 beta functions with: 
                l(1) =   0
                l(2) =   0
                l(3) =   1
                l(4) =   1
                l(5) =   2
                l(6) =   2

     PseudoPot. # 3 for O  read from file:
     /home/ana.bisette/espresso/pseudo/O.pbe-n-kjpaw_psl.0.1.UPF
     MD5 check sum: 0234752ac141de4415c5fc33072bef88
     Pseudo is Projector augmented-wave + core cor, Zval =  6.0
     Generated using "atomic" code by A. Dal Corso  v.5.0.99 svn rev. 10869
     Shape of augmentation charge: BESSEL
     Using radial grid of 1095 points,  4 beta functions with: 
                l(1) =   0
                l(2) =   0
                l(3) =   1
                l(4) =   1
     Q(r) pseudized with 0 coefficients 


     PseudoPot. # 4 for H  read from file:
     /home/ana.bisette/espresso/pseudo/H.pbe-rrkjus_psl.1.0.0.UPF
     MD5 check sum: f52b6d4d1c606e5624b1dc7b2218f220
     Pseudo is Ultrasoft, Zval =  1.0
     Generated using "atomic" code by A. Dal Corso  v.5.1
     Using radial grid of  929 points,  2 beta functions with: 
                l(1) =   0
                l(2) =   0
     Q(r) pseudized with 0 coefficients 


     atomic species   valence    mass     pseudopotential
        C              4.00    12.01100     C ( 1.00)
        Pd            18.00   106.42000     Pd( 1.00)
        O              6.00    15.99900     O ( 1.00)
        H              1.00     1.00800     H ( 1.00)

     Starting magnetic structure 
     atomic species   magnetization
        C            0.000
        Pd           0.000
        O            0.000
        H            0.000

     No symmetry found



   Cartesian axes

     site n.     atom                  positions (alat units)
         1           C   tau(   1) = (   0.1389009   0.1491329   0.7434525  )
         2           C   tau(   2) = (   0.1899919   0.0632703   0.7468121  )
         3           C   tau(   3) = (   0.2991564   0.0630183   0.7465496  )
         4           C   tau(   4) = (   0.3516235   0.1486366   0.7429371  )
         5           C   tau(   5) = (   0.2982591   0.2449641   0.7381445  )
         6           C   tau(   6) = (   0.1931152   0.2448968   0.7385175  )
         7           C   tau(   7) = (   0.0995159   0.2954989   0.7645281  )
         8           C   tau(   8) = (   0.0456275   0.2019409   0.7617050  )
         9           C   tau(   9) = (   0.0502766   0.3814085   0.7796152  )
        10           C   tau(  10) = (  -0.0576163   0.3816191   0.7872681  )
        11           C   tau(  11) = (  -0.1087728   0.2951397   0.7825021  )
        12           C   tau(  12) = (  -0.0550358   0.2016480   0.7712199  )
        13           C   tau(  13) = (  -0.1062474   0.5769556   0.7835480  )
        14           C   tau(  14) = (  -0.0564270   0.4902112   0.7870335  )
        15           C   tau(  15) = (   0.0518510   0.4895554   0.7805910  )
        16           C   tau(  16) = (   0.1032577   0.5754853   0.7726740  )
        17           C   tau(  17) = (   0.0493780   0.6696492   0.7689625  )
        18           C   tau(  18) = (  -0.0512866   0.6701087   0.7738501  )
        19           C   tau(  19) = (  -0.1458927   0.7237059   0.7709227  )
        20           C   tau(  20) = (  -0.2006772   0.6308381   0.7809700  )
        21           C   tau(  21) = (  -0.1958917   0.8100675   0.7604151  )
        22           C   tau(  22) = (  -0.3042405   0.8102954   0.7608479  )
        23           C   tau(  23) = (  -0.3556014   0.7242166   0.7719427  )
        24           C   tau(  24) = (  -0.3016627   0.6307202   0.7814041  )
        25           C   tau(  25) = (   0.6406245   0.1485690   0.7672996  )
        26           C   tau(  26) = (   0.6904407   0.0623108   0.7603441  )
        27           C   tau(  27) = (   0.7987759   0.0621045   0.7609276  )
        28           C   tau(  28) = (   0.8500396   0.1480976   0.7682168  )
        29           C   tau(  29) = (   0.7961111   0.2417606   0.7778847  )
        30           C   tau(  30) = (   0.6954410   0.2416186   0.7774130  )
        31           C   tau(  31) = (   0.6007976   0.2947734   0.7810065  )
        32           C   tau(  32) = (   0.5462086   0.2018597   0.7694160  )
        33           C   tau(  33) = (   0.5510205   0.3814575   0.7856866  )
        34           C   tau(  34) = (   0.4431537   0.3816795   0.7778355  )
        35           C   tau(  35) = (   0.3925562   0.2959859   0.7628348  )
        36           C   tau(  36) = (   0.4455624   0.2018395   0.7599446  )
        37           C   tau(  37) = (   0.3938374   0.5759874   0.7744309  )
        38           C   tau(  38) = (   0.4439630   0.4897703   0.7808002  )
        39           C   tau(  39) = (   0.5522513   0.4900115   0.7871066  )
        40           C   tau(  40) = (   0.6034209   0.5765825   0.7845493  )
        41           C   tau(  41) = (   0.5492882   0.6703568   0.7758153  )
        42           C   tau(  42) = (   0.4485981   0.6696126   0.7716193  )
        43           C   tau(  43) = (   0.3540550   0.7221754   0.7626002  )
        44           C   tau(  44) = (   0.2993064   0.6287514   0.7660256  )
        45           C   tau(  45) = (   0.3040769   0.8085469   0.7574649  )
        46           C   tau(  46) = (   0.1958333   0.8087390   0.7567067  )
        47           C   tau(  47) = (   0.1444376   0.7225407   0.7607686  )
        48           C   tau(  48) = (   0.1983116   0.6285649   0.7650239  )
        49           Pd  tau(  49) = (   0.2451885   0.2761123   0.5958866  )
        50           O   tau(  50) = (   0.2451885   0.2761123   0.4336447  )
        51           H   tau(  51) = (   0.2451885   0.2761123   0.5049574  )

     number of k points=     1  Gaussian smearing, width (Ry)=  0.0001
                       cart. coord. in units 2pi/alat
        k(    1) = (   0.0000000   0.0000000   0.0000000), wk =   1.0000000

     Dense  grid:  1432421 G-vectors     FFT dimensions: ( 180, 162, 243)

     Smooth grid:   506463 G-vectors     FFT dimensions: ( 120, 120, 180)

     Estimated max dynamical RAM per process >     442.07 MB

     Estimated total dynamical RAM >       6.91 GB

     Check: negative core charge=   -0.000002
     Generating pointlists ...
     new r_m :   0.0412 (alat units)  1.0555 (a.u.) for type    1
     new r_m :   0.0375 (alat units)  0.9611 (a.u.) for type    2
     new r_m :   0.0294 (alat units)  0.7538 (a.u.) for type    3
     new r_m :   0.0294 (alat units)  0.7538 (a.u.) for type    4

     Initial potential from superposition of free atoms

     starting charge     216.9976, renormalised to     217.0000

     negative rho (up, down):  1.348E-03 1.348E-03
     Starting wfcs are  207 randomized atomic wfcs
     Checking if some PAW data can be deallocated... 

     total cpu time spent up to now is        8.2 secs

     Self-consistent Calculation

     iteration #  1     ecut=    50.00 Ry     beta= 0.30
     Davidson diagonalization with overlap
     ethr =  1.00E-02,  avg # of iterations =  2.0

     negative rho (up, down):  1.351E-03 1.351E-03

     total cpu time spent up to now is       14.5 secs

     total energy              =   -1178.73522979 Ry
     estimated scf accuracy    <       5.67581089 Ry

     total magnetization       =     0.00 Bohr mag/cell
     absolute magnetization    =     0.05 Bohr mag/cell

     iteration #  2     ecut=    50.00 Ry     beta= 0.30
     Davidson diagonalization with overlap
     ethr =  2.62E-03,  avg # of iterations =  2.0

     negative rho (up, down):  1.508E-03 1.508E-03

     total cpu time spent up to now is       19.7 secs

     total energy              =   -1177.52329900 Ry
     estimated scf accuracy    <      13.61717614 Ry

     total magnetization       =     0.00 Bohr mag/cell
     absolute magnetization    =     0.04 Bohr mag/cell

     iteration #  3     ecut=    50.00 Ry     beta= 0.30
     Davidson diagonalization with overlap
     ethr =  2.62E-03,  avg # of iterations =  2.0

     negative rho (up, down):  1.506E-03 1.507E-03

     total cpu time spent up to now is       24.9 secs

     total energy              =   -1178.41044681 Ry
     estimated scf accuracy    <       2.10428200 Ry

     total magnetization       =     0.00 Bohr mag/cell
     absolute magnetization    =     0.03 Bohr mag/cell

     iteration #  4     ecut=    50.00 Ry     beta= 0.30
     Davidson diagonalization with overlap
     ethr =  9.70E-04,  avg # of iterations =  6.0

     negative rho (up, down):  1.483E-03 1.483E-03

     total cpu time spent up to now is       30.9 secs

     total energy              =   -1178.57558378 Ry
     estimated scf accuracy    <       0.91276730 Ry

     total magnetization       =    -0.00 Bohr mag/cell
     absolute magnetization    =     0.02 Bohr mag/cell

     iteration #  5     ecut=    50.00 Ry     beta= 0.30
     Davidson diagonalization with overlap
     ethr =  4.21E-04,  avg # of iterations =  9.5

     negative rho (up, down):  1.496E-03 1.497E-03

     total cpu time spent up to now is       36.7 secs

     total energy              =   -1178.48213933 Ry
     estimated scf accuracy    <       0.61615887 Ry

     total magnetization       =    -0.00 Bohr mag/cell
     absolute magnetization    =     0.02 Bohr mag/cell

     iteration #  6     ecut=    50.00 Ry     beta= 0.30
     Davidson diagonalization with overlap
     ethr =  2.84E-04,  avg # of iterations =  8.5

     negative rho (up, down):  1.506E-03 1.508E-03

     total cpu time spent up to now is       42.4 secs

     total energy              =   -1178.46281224 Ry
     estimated scf accuracy    <       0.35944697 Ry

     total magnetization       =    -0.00 Bohr mag/cell
     absolute magnetization    =     0.02 Bohr mag/cell

     iteration #  7     ecut=    50.00 Ry     beta= 0.30
     Davidson diagonalization with overlap
     ethr =  1.66E-04,  avg # of iterations =  2.0

     negative rho (up, down):  1.501E-03 1.504E-03

     total cpu time spent up to now is       47.6 secs

     total energy              =   -1178.47775882 Ry
     estimated scf accuracy    <       0.03120980 Ry

     total magnetization       =     0.00 Bohr mag/cell
     absolute magnetization    =     0.02 Bohr mag/cell

     iteration #  8     ecut=    50.00 Ry     beta= 0.30
     Davidson diagonalization with overlap
     ethr =  1.44E-05,  avg # of iterations = 11.0

     negative rho (up, down):  1.505E-03 1.506E-03

     total cpu time spent up to now is       53.8 secs

     total energy              =   -1178.47588863 Ry
     estimated scf accuracy    <       0.02664767 Ry

     total magnetization       =    -0.00 Bohr mag/cell
     absolute magnetization    =     0.02 Bohr mag/cell

     iteration #  9     ecut=    50.00 Ry     beta= 0.30
     Davidson diagonalization with overlap
     ethr =  1.23E-05,  avg # of iterations =  2.0

     negative rho (up, down):  1.519E-03 1.519E-03

     total cpu time spent up to now is       59.0 secs

     total energy              =   -1178.47317324 Ry
     estimated scf accuracy    <       0.01289356 Ry

     total magnetization       =     0.00 Bohr mag/cell
     absolute magnetization    =     0.01 Bohr mag/cell

     iteration # 10     ecut=    50.00 Ry     beta= 0.30
     Davidson diagonalization with overlap
     ethr =  5.94E-06,  avg # of iterations =  3.5

     negative rho (up, down):  1.519E-03 1.519E-03

     total cpu time spent up to now is       64.7 secs

     total energy              =   -1178.46989284 Ry
     estimated scf accuracy    <       0.16032063 Ry

     total magnetization       =     0.00 Bohr mag/cell
     absolute magnetization    =     0.01 Bohr mag/cell

     iteration # 11     ecut=    50.00 Ry     beta= 0.30
     Davidson diagonalization with overlap
     ethr =  5.94E-06,  avg # of iterations =  1.0

     negative rho (up, down):  1.523E-03 1.523E-03

     total cpu time spent up to now is       69.6 secs

     total energy              =   -1178.47394028 Ry
     estimated scf accuracy    <       0.00449468 Ry

     total magnetization       =     0.00 Bohr mag/cell
     absolute magnetization    =     0.01 Bohr mag/cell

     iteration # 12     ecut=    50.00 Ry     beta= 0.30
     Davidson diagonalization with overlap
     ethr =  2.07E-06,  avg # of iterations =  2.0

     negative rho (up, down):  1.519E-03 1.520E-03

     total cpu time spent up to now is       74.9 secs

     total energy              =   -1178.47402121 Ry
     estimated scf accuracy    <       0.01082106 Ry

     total magnetization       =    -0.00 Bohr mag/cell
     absolute magnetization    =     0.01 Bohr mag/cell

     iteration # 13     ecut=    50.00 Ry     beta= 0.30
     Davidson diagonalization with overlap
     ethr =  2.07E-06,  avg # of iterations =  1.5

     negative rho (up, down):  1.520E-03 1.520E-03

     total cpu time spent up to now is       79.9 secs

     total energy              =   -1178.47449935 Ry
     estimated scf accuracy    <       0.00065675 Ry

     total magnetization       =    -0.00 Bohr mag/cell
     absolute magnetization    =     0.02 Bohr mag/cell

     iteration # 14     ecut=    50.00 Ry     beta= 0.30
     Davidson diagonalization with overlap
     ethr =  3.03E-07,  avg # of iterations =  1.5

     negative rho (up, down):  1.519E-03 1.519E-03

     total cpu time spent up to now is       85.0 secs

     total energy              =   -1178.47451360 Ry
     estimated scf accuracy    <       0.00061986 Ry

     total magnetization       =     0.00 Bohr mag/cell
     absolute magnetization    =     0.02 Bohr mag/cell

     iteration # 15     ecut=    50.00 Ry     beta= 0.30
     Davidson diagonalization with overlap
     ethr =  2.86E-07,  avg # of iterations =  1.0

     negative rho (up, down):  1.519E-03 1.519E-03

     total cpu time spent up to now is       89.8 secs

     total energy              =   -1178.47452332 Ry
     estimated scf accuracy    <       0.00020729 Ry

     total magnetization       =    -0.00 Bohr mag/cell
     absolute magnetization    =     0.04 Bohr mag/cell

     iteration # 16     ecut=    50.00 Ry     beta= 0.30
     Davidson diagonalization with overlap
     ethr =  9.55E-08,  avg # of iterations =  1.0

     negative rho (up, down):  1.519E-03 1.519E-03

     total cpu time spent up to now is       94.7 secs

     total energy              =   -1178.47453039 Ry
     estimated scf accuracy    <       0.00012413 Ry

     total magnetization       =     0.00 Bohr mag/cell
     absolute magnetization    =     0.07 Bohr mag/cell

     iteration # 17     ecut=    50.00 Ry     beta= 0.30
     Davidson diagonalization with overlap
     ethr =  5.72E-08,  avg # of iterations =  1.0

     negative rho (up, down):  1.519E-03 1.519E-03

     total cpu time spent up to now is       99.6 secs

     total energy              =   -1178.47451262 Ry
     estimated scf accuracy    <       0.00010027 Ry

     total magnetization       =     0.00 Bohr mag/cell
     absolute magnetization    =     0.09 Bohr mag/cell

     iteration # 18     ecut=    50.00 Ry     beta= 0.30
     Davidson diagonalization with overlap
     ethr =  4.62E-08,  avg # of iterations =  1.0

     negative rho (up, down):  1.519E-03 1.519E-03

     total cpu time spent up to now is      104.5 secs

     total energy              =   -1178.47449894 Ry
     estimated scf accuracy    <       0.00009221 Ry

     total magnetization       =     0.00 Bohr mag/cell
     absolute magnetization    =     0.05 Bohr mag/cell

     iteration # 19     ecut=    50.00 Ry     beta= 0.30
     Davidson diagonalization with overlap
     ethr =  4.25E-08,  avg # of iterations =  1.0

     negative rho (up, down):  1.519E-03 1.519E-03

     total cpu time spent up to now is      109.4 secs

     total energy              =   -1178.47449351 Ry
     estimated scf accuracy    <       0.00003682 Ry

     total magnetization       =    -0.00 Bohr mag/cell
     absolute magnetization    =     0.01 Bohr mag/cell

     iteration # 20     ecut=    50.00 Ry     beta= 0.30
     Davidson diagonalization with overlap
     ethr =  1.70E-08,  avg # of iterations =  2.0

     negative rho (up, down):  1.519E-03 1.519E-03

     total cpu time spent up to now is      114.8 secs

     total energy              =   -1178.47449846 Ry
     estimated scf accuracy    <       0.00000424 Ry

     total magnetization       =     0.00 Bohr mag/cell
     absolute magnetization    =     0.01 Bohr mag/cell

     iteration # 21     ecut=    50.00 Ry     beta= 0.30
     Davidson diagonalization with overlap
     ethr =  1.95E-09,  avg # of iterations =  4.0

     negative rho (up, down):  1.519E-03 1.519E-03

     Magnetic moment per site  (integrated on atomic sphere of radius R)
     atom   1 (R=0.041)  charge=  1.4963  magn=  0.0001
     atom   2 (R=0.041)  charge=  1.5007  magn= -0.0001
     atom   3 (R=0.041)  charge=  1.4973  magn=  0.0000
     atom   4 (R=0.041)  charge=  1.4884  magn= -0.0000
     atom   5 (R=0.041)  charge=  1.4729  magn= -0.0000
     atom   6 (R=0.041)  charge=  1.4762  magn= -0.0001
     atom   7 (R=0.041)  charge=  1.4992  magn= -0.0000
     atom   8 (R=0.041)  charge=  1.4986  magn=  0.0000
     atom   9 (R=0.041)  charge=  1.5073  magn= -0.0002
     atom  10 (R=0.041)  charge=  1.5023  magn=  0.0000
     atom  11 (R=0.041)  charge=  1.4951  magn= -0.0001
     atom  12 (R=0.041)  charge=  1.4921  magn= -0.0000
     atom  13 (R=0.041)  charge=  1.5004  magn=  0.0000
     atom  14 (R=0.041)  charge=  1.5035  magn= -0.0000
     atom  15 (R=0.041)  charge=  1.5028  magn= -0.0000
     atom  16 (R=0.041)  charge=  1.4964  magn= -0.0001
     atom  17 (R=0.041)  charge=  1.4950  magn=  0.0000
     atom  18 (R=0.041)  charge=  1.4961  magn= -0.0000
     atom  19 (R=0.041)  charge=  1.5006  magn=  0.0000
     atom  20 (R=0.041)  charge=  1.4984  magn= -0.0000
     atom  21 (R=0.041)  charge=  1.5032  magn= -0.0000
     atom  22 (R=0.041)  charge=  1.5006  magn=  0.0000
     atom  23 (R=0.041)  charge=  1.4947  magn= -0.0001
     atom  24 (R=0.041)  charge=  1.4936  magn=  0.0000
     atom  25 (R=0.041)  charge=  1.5060  magn=  0.0001
     atom  26 (R=0.041)  charge=  1.5086  magn= -0.0000
     atom  27 (R=0.041)  charge=  1.5048  magn=  0.0000
     atom  28 (R=0.041)  charge=  1.4986  magn= -0.0000
     atom  29 (R=0.041)  charge=  1.4953  magn=  0.0000
     atom  30 (R=0.041)  charge=  1.4983  magn=  0.0000
     atom  31 (R=0.041)  charge=  1.5034  magn=  0.0000
     atom  32 (R=0.041)  charge=  1.4972  magn=  0.0000
     atom  33 (R=0.041)  charge=  1.5057  magn= -0.0000
     atom  34 (R=0.041)  charge=  1.5044  magn=  0.0000
     atom  35 (R=0.041)  charge=  1.4933  magn= -0.0001
     atom  36 (R=0.041)  charge=  1.4945  magn=  0.0000
     atom  37 (R=0.041)  charge=  1.5037  magn=  0.0000
     atom  38 (R=0.041)  charge=  1.5072  magn= -0.0001
     atom  39 (R=0.041)  charge=  1.4997  magn=  0.0000
     atom  40 (R=0.041)  charge=  1.4948  magn= -0.0000
     atom  41 (R=0.041)  charge=  1.4924  magn= -0.0000
     atom  42 (R=0.041)  charge=  1.4980  magn= -0.0000
     atom  43 (R=0.041)  charge=  1.5058  magn=  0.0001
     atom  44 (R=0.041)  charge=  1.4972  magn= -0.0000
     atom  45 (R=0.041)  charge=  1.5076  magn= -0.0001
     atom  46 (R=0.041)  charge=  1.5052  magn=  0.0000
     atom  47 (R=0.041)  charge=  1.4983  magn= -0.0000
     atom  48 (R=0.041)  charge=  1.4928  magn= -0.0000
     atom  49 (R=0.038)  charge=  6.8908  magn=  0.0000
     atom  50 (R=0.029)  charge=  1.8653  magn=  0.0008
     atom  51 (R=0.029)  charge=  0.5492  magn= -0.0000

     total cpu time spent up to now is      120.1 secs

     End of self-consistent calculation

 ------ SPIN UP ------------


          k = 0.0000 0.0000 0.0000 ( 63354 PWs)   bands (ev):

   -87.2839 -53.9967 -52.7830 -52.6933 -22.6467 -22.3057 -22.2631 -22.2355
   -21.8180 -21.8142 -21.7566 -21.6328 -20.9328 -20.9206 -20.9098 -20.8713
   -20.8508 -19.3598 -18.2815 -18.2765 -18.2395 -17.4007 -17.3419 -16.9943
   -16.9347 -16.8922 -16.4666 -16.4125 -16.3869 -16.2624 -16.2112 -16.1856
   -16.0127 -16.0086 -15.9675 -14.3725 -14.2723 -14.2424 -14.2271 -14.2121
   -14.1748 -12.1549 -12.0038 -11.9485 -11.9210 -11.8439 -11.8057 -11.7288
   -11.0155 -10.9558 -10.8889 -10.6268 -10.3903 -10.2476 -10.2109 -10.1793
   -10.1533 -10.0948 -10.0434 -10.0079  -9.9792  -9.9510  -9.9129  -9.8591
    -9.6848  -9.2965  -9.2633  -9.2272  -8.5572  -8.3750  -8.2909  -8.1587
    -8.1358  -8.0624  -8.0164  -7.9906  -7.9760  -7.8870  -7.8074  -7.7475
    -7.7256  -7.6979  -7.5660  -7.5022  -7.4954  -7.0996  -6.9321  -6.6864
    -6.5904  -6.5465  -6.4525  -6.3087  -6.2240  -6.0059  -5.9712  -5.8233
    -5.7391  -5.7059  -4.8612  -4.8602  -4.8136  -4.3998  -4.3459  -4.2668
    -4.0989  -4.0863  -3.9373  -3.8583  -3.8212  -2.8059  -2.7849  -2.7227
    -2.1313  -2.0803  -2.0442  -0.0638   0.1725   0.4073   0.5623   0.6120
     0.6702   0.6954   0.7357   0.7439   0.8581   1.0133   1.1536   1.1950
     1.2971   1.4129

 ------ SPIN DOWN ----------


          k = 0.0000 0.0000 0.0000 ( 63354 PWs)   bands (ev):

   -87.2838 -53.9967 -52.7830 -52.6931 -22.6468 -22.3058 -22.2631 -22.2356
   -21.8180 -21.8142 -21.7565 -21.6314 -20.9329 -20.9206 -20.9098 -20.8714
   -20.8508 -19.3599 -18.2815 -18.2765 -18.2396 -17.4007 -17.3419 -16.9944
   -16.9347 -16.8922 -16.4667 -16.4126 -16.3870 -16.2624 -16.2112 -16.1857
   -16.0127 -16.0087 -15.9675 -14.3725 -14.2723 -14.2424 -14.2272 -14.2122
   -14.1748 -12.1550 -12.0038 -11.9485 -11.9211 -11.8439 -11.8057 -11.7288
   -11.0155 -10.9558 -10.8889 -10.6268 -10.3903 -10.2476 -10.2109 -10.1793
   -10.1533 -10.0948 -10.0435 -10.0079  -9.9792  -9.9511  -9.9130  -9.8591
    -9.6846  -9.2966  -9.2634  -9.2272  -8.5573  -8.3750  -8.2909  -8.1587
    -8.1358  -8.0625  -8.0164  -7.9907  -7.9760  -7.8871  -7.8074  -7.7475
    -7.7256  -7.6980  -7.5660  -7.5022  -7.4954  -7.0996  -6.9321  -6.6864
    -6.5904  -6.5465  -6.4525  -6.3086  -6.2238  -6.0059  -5.9713  -5.8227
    -5.7391  -5.7059  -4.8613  -4.8603  -4.8136  -4.3998  -4.3460  -4.2669
    -4.0981  -4.0854  -3.9372  -3.8581  -3.8196  -2.8060  -2.7850  -2.7228
    -2.1314  -2.0803  -2.0443  -0.0638   0.1725   0.4072   0.5623   0.6119
     0.6700   0.6952   0.7356   0.7438   0.8581   1.0133   1.1536   1.1950
     1.2974   1.4130

     the spin up/dw Fermi energies are    -3.8212   -3.8196 ev

!    total energy              =   -1178.47449905 Ry
     estimated scf accuracy    <       0.00000094 Ry
     smearing contrib. (-TS)   =      -0.00005642 Ry
     internal energy E=F+TS    =   -1178.47444263 Ry

     The total energy is F=E-TS. E is the sum of the following terms:
     one-electron contribution =   -5440.60749950 Ry
     hartree contribution      =    2748.62364144 Ry
     xc contribution           =    -254.28433383 Ry
     ewald contribution        =    2073.37527175 Ry
     one-center paw contrib.   =    -305.58152250 Ry

     total magnetization       =     0.00 Bohr mag/cell
     absolute magnetization    =     0.01 Bohr mag/cell

     convergence has been achieved in  21 iterations

     negative rho (up, down):  1.519E-03 1.519E-03

     Forces acting on atoms (cartesian axes, Ry/au):

     atom    1 type  1   force =     0.01207033   -0.01614073    0.00272105
     atom    2 type  1   force =    -0.01190331    0.01796622   -0.00108638
     atom    3 type  1   force =     0.01146936    0.01756899   -0.00085425
     atom    4 type  1   force =    -0.01297651   -0.01380297    0.00272522
     atom    5 type  1   force =    -0.00188636   -0.00869985    0.01304666
     atom    6 type  1   force =     0.00211137   -0.00721334    0.01197774
     atom    7 type  1   force =     0.00394862   -0.00233045   -0.00345653
     atom    8 type  1   force =    -0.01761454    0.00201035   -0.00010710
     atom    9 type  1   force =    -0.00673728   -0.00083176   -0.00014930
     atom   10 type  1   force =     0.00236515   -0.01497056   -0.00007119
     atom   11 type  1   force =     0.00770618    0.00795507    0.00071463
     atom   12 type  1   force =     0.01786933    0.00288233   -0.00169295
     atom   13 type  1   force =     0.01331390   -0.01313084    0.00070567
     atom   14 type  1   force =    -0.00278879    0.01782869   -0.00020048
     atom   15 type  1   force =    -0.00110203    0.00679478   -0.00023872
     atom   16 type  1   force =    -0.00896748   -0.00267528    0.00109912
     atom   17 type  1   force =    -0.01248967   -0.00730335    0.00146161
     atom   18 type  1   force =     0.01283655   -0.00358361    0.00010278
     atom   19 type  1   force =    -0.00832172    0.00662775   -0.00048015
     atom   20 type  1   force =    -0.01658716    0.00558330   -0.00003534
     atom   21 type  1   force =     0.00202759   -0.01007789    0.00117233
     atom   22 type  1   force =    -0.00306466   -0.01146924    0.00139200
     atom   23 type  1   force =     0.00989806    0.00748647   -0.00100585
     atom   24 type  1   force =     0.01611846    0.00634150   -0.00023595
     atom   25 type  1   force =     0.00835465   -0.00917949   -0.00029358
     atom   26 type  1   force =    -0.00051629    0.01617213    0.00120181
     atom   27 type  1   force =     0.00202680    0.01811299    0.00113345
     atom   28 type  1   force =    -0.01040028   -0.00997605   -0.00034294
     atom   29 type  1   force =    -0.00699810   -0.00290778   -0.00017963
     atom   30 type  1   force =     0.00730700   -0.00170129   -0.00035859
     atom   31 type  1   force =    -0.00633036    0.00874236    0.00053366
     atom   32 type  1   force =    -0.01822310    0.00183047   -0.00161247
     atom   33 type  1   force =    -0.00228018   -0.01421551    0.00025525
     atom   34 type  1   force =     0.00603227   -0.00203145   -0.00019843
     atom   35 type  1   force =    -0.00274494   -0.00264142   -0.00268941
     atom   36 type  1   force =     0.01619086    0.00297677    0.00117336
     atom   37 type  1   force =     0.00771022   -0.00266704    0.00043576
     atom   38 type  1   force =     0.00195003    0.00581271   -0.00040183
     atom   39 type  1   force =     0.00356967    0.01842748   -0.00026671
     atom   40 type  1   force =    -0.01392741   -0.01265635    0.00056151
     atom   41 type  1   force =    -0.01316838   -0.00419819   -0.00025755
     atom   42 type  1   force =     0.01394951   -0.00626429    0.00058212
     atom   43 type  1   force =    -0.01198832    0.01388509   -0.00206669
     atom   44 type  1   force =    -0.01141596    0.00258722   -0.00091667
     atom   45 type  1   force =     0.00454991   -0.01916159   -0.00075240
     atom   46 type  1   force =    -0.00470876   -0.01900399   -0.00024012
     atom   47 type  1   force =     0.01275312    0.01297931   -0.00116381
     atom   48 type  1   force =     0.01084337    0.00370936   -0.00037468
     atom   49 type  2   force =     0.00045574    0.02521699    0.49824360
     atom   50 type  3   force =    -0.00005750    0.00466460   -0.10494563
     atom   51 type  4   force =    -0.00022896   -0.01532861   -0.41456397

     Total force =     0.665264     Total SCF correction =     0.001070

     BFGS Geometry Optimization
     Energy error            =      0.0E+00 Ry
     Gradient error          =      5.0E-01 Ry/Bohr

     number of scf cycles    =   1
     number of bfgs steps    =   0

     energy             new  =   -1178.4744990511 Ry

     new trust radius        =       0.4988815366 bohr
     new conv_thr            =       0.0000010000 Ry


ATOMIC_POSITIONS (angstrom)
C             1.8898828996        2.0137012148       10.0826562761
C             2.5699916776        0.8674523606       10.1261970679
C             4.0626305068        0.8638255627       10.1227605165
C             4.7611470426        2.0082076047       10.0756693049
C             4.0433952046        3.3171091231       10.0161435201
C             2.6197587976        3.3169831312       10.0206357299
C             1.3515249091        4.0057322485       10.3651720371
C             0.6093875024        2.7393819443       10.3286625232
C             0.6781860100        5.1714586660       10.5715033053
C            -0.7800250220        5.1668322928       10.6753178749
C            -1.4708812939        4.0063036235       10.6111058910
C            -0.7368289116        2.7358724189       10.4568453111
C            -1.4336698818        7.8165699529       10.6252837247
C            -0.7666263885        6.6566986342       10.6720677988
C             0.7025170037        6.6419664086       10.5846878130
C             1.3954287126        7.8021647714       10.4780415073
C             0.6629564329        9.0765783126       10.4279043619
C            -0.6886536362        9.0847771201       10.4934622072
C            -1.9827089244        9.8169585027       10.4534577403
C            -2.7299603572        8.5571193439       10.5899344224
C            -2.6552178685       10.9791820885       10.3118485166
C            -4.1271228921       10.9815365228       10.3178345040
C            -4.8167168806        9.8243381748       10.4670101245
C            -4.0820163627        8.5559212877       10.5957139593
C             8.6912892255        2.0097383050       10.4044267519
C             9.3621032167        0.8534918908       10.3109020282
C            10.8324730509        0.8517221878       10.3187776278
C            11.5210332561        2.0029238919       10.4168375447
C            10.7915631276        3.2767344640       10.5480216459
C             9.4340469346        3.2754483560       10.5415307339
C             8.1434658097        4.0017541441       10.5907298437
C             7.3969449586        2.7381854758       10.4324280458
C             7.4706316599        5.1650408719       10.6540449094
C             6.0123563806        5.1744994526       10.5473445734
C             5.3216093128        4.0121705777       10.3426162420
C             6.0503937143        2.7385185771       10.3054693822
C             5.3445156334        7.8089770255       10.5015130370
C             6.0211704075        6.6443606886       10.5874381578
C             7.4904158363        6.6543071120       10.6730241237
C             8.1750168340        7.8117616021       10.6387849427
C             7.4413788609        9.0878158624       10.5199186011
C             6.0903720317        9.0766319148       10.4634660593
C             4.7946423961        9.8000454932       10.3397652743
C             4.0525538090        8.5272374121       10.3868224135
C             4.1256900810       10.9537554742       10.2708259683
C             2.6530073169       10.9564445926       10.2608154214
C             1.9653225559        9.8045207025       10.3154060189
C             2.6948435617        8.5253027446       10.3735260038
Pd            3.3249965393        3.7574274426        8.3438812458
O             3.3247249465        3.7465515894        5.8246872526
H             3.3246342106        3.7359716343        6.6278442843



     Writing config-only to output data dir ./pwscf.save/
     NEW-OLD atomic charge density approx. for the potential

     Check: negative core charge=   -0.000002

     negative rho (up, down):  1.534E-03 1.534E-03
     Generating pointlists ...
     new r_m :   0.0406 (alat units)  1.0395 (a.u.) for type    1
     new r_m :   0.0244 (alat units)  0.6261 (a.u.) for type    3
     new r_m :   0.0244 (alat units)  0.6261 (a.u.) for type    4

     total cpu time spent up to now is      132.1 secs

     Self-consistent Calculation

     iteration #  1     ecut=    50.00 Ry     beta= 0.30
     Davidson diagonalization with overlap
     ethr =  1.00E-06,  avg # of iterations = 11.0

     negative rho (up, down):  1.537E-03 1.537E-03

     total cpu time spent up to now is      144.7 secs

     total energy              =   -1178.40434389 Ry
     estimated scf accuracy    <       0.44255620 Ry

     total magnetization       =    -0.00 Bohr mag/cell
     absolute magnetization    =     0.00 Bohr mag/cell

     iteration #  2     ecut=    50.00 Ry     beta= 0.30
     Davidson diagonalization with overlap
     ethr =  2.04E-04,  avg # of iterations =  3.0

     negative rho (up, down):  1.602E-03 1.602E-03

     total cpu time spent up to now is      150.0 secs

     total energy              =   -1178.04817490 Ry
     estimated scf accuracy    <       7.94366095 Ry

     total magnetization       =     0.00 Bohr mag/cell
     absolute magnetization    =     0.00 Bohr mag/cell

     iteration #  3     ecut=    50.00 Ry     beta= 0.30
     Davidson diagonalization with overlap
     ethr =  2.04E-04,  avg # of iterations =  2.0

     negative rho (up, down):  1.552E-03 1.552E-03

     total cpu time spent up to now is      155.2 secs

     total energy              =   -1178.51028937 Ry
     estimated scf accuracy    <       0.26473478 Ry

     total magnetization       =    -0.00 Bohr mag/cell
     absolute magnetization    =     0.00 Bohr mag/cell

     iteration #  4     ecut=    50.00 Ry     beta= 0.30
     Davidson diagonalization with overlap
     ethr =  1.22E-04,  avg # of iterations =  2.0

     negative rho (up, down):  1.533E-03 1.533E-03

     total cpu time spent up to now is      160.4 secs

     total energy              =   -1178.51146746 Ry
     estimated scf accuracy    <       0.12769814 Ry

     total magnetization       =    -0.00 Bohr mag/cell
     absolute magnetization    =     0.00 Bohr mag/cell

     iteration #  5     ecut=    50.00 Ry     beta= 0.30
     Davidson diagonalization with overlap
     ethr =  5.88E-05,  avg # of iterations =  1.0

     negative rho (up, down):  1.526E-03 1.526E-03

     total cpu time spent up to now is      165.3 secs

     total energy              =   -1178.51157882 Ry
     estimated scf accuracy    <       0.03984513 Ry

     total magnetization       =    -0.00 Bohr mag/cell
     absolute magnetization    =     0.01 Bohr mag/cell

     iteration #  6     ecut=    50.00 Ry     beta= 0.30
     Davidson diagonalization with overlap
     ethr =  1.84E-05,  avg # of iterations =  1.0

     negative rho (up, down):  1.525E-03 1.525E-03

     total cpu time spent up to now is      170.1 secs

     total energy              =   -1178.51285359 Ry
     estimated scf accuracy    <       0.00467310 Ry

     total magnetization       =     0.00 Bohr mag/cell
     absolute magnetization    =     0.01 Bohr mag/cell

     iteration #  7     ecut=    50.00 Ry     beta= 0.30
     Davidson diagonalization with overlap
     ethr =  2.15E-06,  avg # of iterations =  2.0

     negative rho (up, down):  1.519E-03 1.519E-03

     total cpu time spent up to now is      175.3 secs

     total energy              =   -1178.51227755 Ry
     estimated scf accuracy    <       0.00269418 Ry

     total magnetization       =     0.00 Bohr mag/cell
     absolute magnetization    =     0.01 Bohr mag/cell

     iteration #  8     ecut=    50.00 Ry     beta= 0.30
     Davidson diagonalization with overlap
     ethr =  1.24E-06,  avg # of iterations =  2.0

     negative rho (up, down):  1.518E-03 1.518E-03

     total cpu time spent up to now is      180.6 secs

     total energy              =   -1178.51239232 Ry
     estimated scf accuracy    <       0.00311038 Ry

     total magnetization       =    -0.00 Bohr mag/cell
     absolute magnetization    =     0.04 Bohr mag/cell

     iteration #  9     ecut=    50.00 Ry     beta= 0.30
     Davidson diagonalization with overlap
     ethr =  1.24E-06,  avg # of iterations =  1.0

     negative rho (up, down):  1.518E-03 1.518E-03

     total cpu time spent up to now is      185.4 secs

     total energy              =   -1178.51256355 Ry
     estimated scf accuracy    <       0.00090693 Ry

     total magnetization       =    -0.00 Bohr mag/cell
     absolute magnetization    =     0.18 Bohr mag/cell

     iteration # 10     ecut=    50.00 Ry     beta= 0.30
     Davidson diagonalization with overlap
     ethr =  4.18E-07,  avg # of iterations =  1.0

     negative rho (up, down):  1.518E-03 1.518E-03

     total cpu time spent up to now is      190.3 secs

     total energy              =   -1178.51252241 Ry
     estimated scf accuracy    <       0.00155467 Ry

     total magnetization       =    -0.00 Bohr mag/cell
     absolute magnetization    =     0.25 Bohr mag/cell

     iteration # 11     ecut=    50.00 Ry     beta= 0.30
     Davidson diagonalization with overlap
     ethr =  4.18E-07,  avg # of iterations =  1.0

     negative rho (up, down):  1.518E-03 1.518E-03

     total cpu time spent up to now is      195.2 secs

     total energy              =   -1178.51253503 Ry
     estimated scf accuracy    <       0.00092136 Ry

     total magnetization       =    -0.00 Bohr mag/cell
     absolute magnetization    =     0.20 Bohr mag/cell

     iteration # 12     ecut=    50.00 Ry     beta= 0.30
     Davidson diagonalization with overlap
     ethr =  4.18E-07,  avg # of iterations =  1.0

     negative rho (up, down):  1.519E-03 1.519E-03

     total cpu time spent up to now is      200.1 secs

     total energy              =   -1178.51203982 Ry
     estimated scf accuracy    <       0.00190079 Ry

     total magnetization       =     0.00 Bohr mag/cell
     absolute magnetization    =     0.24 Bohr mag/cell

     iteration # 13     ecut=    50.00 Ry     beta= 0.30
     Davidson diagonalization with overlap
     ethr =  4.18E-07,  avg # of iterations =  2.0

     negative rho (up, down):  1.522E-03 1.521E-03

     total cpu time spent up to now is      205.3 secs

     total energy              =   -1178.51357935 Ry
     estimated scf accuracy    <       0.16525925 Ry

     total magnetization       =    -0.00 Bohr mag/cell
     absolute magnetization    =     0.47 Bohr mag/cell

     iteration # 14     ecut=    50.00 Ry     beta= 0.30
     Davidson diagonalization with overlap
     ethr =  4.18E-07,  avg # of iterations =  1.0

     negative rho (up, down):  1.529E-03 1.525E-03

     total cpu time spent up to now is      210.2 secs

     total energy              =   -1178.51406880 Ry
     estimated scf accuracy    <       0.10469519 Ry

     total magnetization       =    -0.00 Bohr mag/cell
     absolute magnetization    =     0.55 Bohr mag/cell

     iteration # 15     ecut=    50.00 Ry     beta= 0.30
     Davidson diagonalization with overlap
     ethr =  4.18E-07,  avg # of iterations =  1.0

     negative rho (up, down):  1.537E-03 1.531E-03

     total cpu time spent up to now is      215.1 secs

     total energy              =   -1178.51322540 Ry
     estimated scf accuracy    <       0.12879847 Ry

     total magnetization       =    -0.00 Bohr mag/cell
     absolute magnetization    =     0.53 Bohr mag/cell

     iteration # 16     ecut=    50.00 Ry     beta= 0.30
     Davidson diagonalization with overlap
     ethr =  4.18E-07,  avg # of iterations =  1.0

     negative rho (up, down):  1.539E-03 1.536E-03

     total cpu time spent up to now is      220.0 secs

     total energy              =   -1178.50855788 Ry
     estimated scf accuracy    <       0.07653443 Ry

     total magnetization       =    -0.00 Bohr mag/cell
     absolute magnetization    =     0.56 Bohr mag/cell

     iteration # 17     ecut=    50.00 Ry     beta= 0.30
     Davidson diagonalization with overlap
     ethr =  4.18E-07,  avg # of iterations =  2.0

     negative rho (up, down):  1.527E-03 1.525E-03

     total cpu time spent up to now is      225.3 secs

     total energy              =   -1178.51277893 Ry
     estimated scf accuracy    <       0.00112795 Ry

     total magnetization       =     0.00 Bohr mag/cell
     absolute magnetization    =     0.32 Bohr mag/cell

     iteration # 18     ecut=    50.00 Ry     beta= 0.30
     Davidson diagonalization with overlap
     ethr =  4.18E-07,  avg # of iterations =  1.0

     negative rho (up, down):  1.522E-03 1.520E-03

     total cpu time spent up to now is      230.2 secs

     total energy              =   -1178.51262516 Ry
     estimated scf accuracy    <       0.00056425 Ry

     total magnetization       =     0.00 Bohr mag/cell
     absolute magnetization    =     0.28 Bohr mag/cell

     iteration # 19     ecut=    50.00 Ry     beta= 0.30
     Davidson diagonalization with overlap
     ethr =  2.60E-07,  avg # of iterations =  1.5

     negative rho (up, down):  1.520E-03 1.519E-03

     total cpu time spent up to now is      235.2 secs

     total energy              =   -1178.51254143 Ry
     estimated scf accuracy    <       0.00029450 Ry

     total magnetization       =    -0.00 Bohr mag/cell
     absolute magnetization    =     0.22 Bohr mag/cell

     iteration # 20     ecut=    50.00 Ry     beta= 0.30
     Davidson diagonalization with overlap
     ethr =  1.36E-07,  avg # of iterations =  1.0

     negative rho (up, down):  1.519E-03 1.518E-03

     total cpu time spent up to now is      240.1 secs

     total energy              =   -1178.51260122 Ry
     estimated scf accuracy    <       0.00016515 Ry

     total magnetization       =     0.00 Bohr mag/cell
     absolute magnetization    =     0.16 Bohr mag/cell

     iteration # 21     ecut=    50.00 Ry     beta= 0.30
     Davidson diagonalization with overlap
     ethr =  7.61E-08,  avg # of iterations =  1.0

     negative rho (up, down):  1.518E-03 1.518E-03

     total cpu time spent up to now is      245.0 secs

     total energy              =   -1178.51265926 Ry
     estimated scf accuracy    <       0.00020569 Ry

     total magnetization       =     0.00 Bohr mag/cell
     absolute magnetization    =     0.20 Bohr mag/cell

     iteration # 22     ecut=    50.00 Ry     beta= 0.30
     Davidson diagonalization with overlap
     ethr =  7.61E-08,  avg # of iterations =  1.5

     negative rho (up, down):  1.519E-03 1.518E-03

     total cpu time spent up to now is      250.0 secs

     total energy              =   -1178.51259790 Ry
     estimated scf accuracy    <       0.00036597 Ry

     total magnetization       =     0.00 Bohr mag/cell
     absolute magnetization    =     0.24 Bohr mag/cell

     iteration # 23     ecut=    50.00 Ry     beta= 0.30
     Davidson diagonalization with overlap
     ethr =  7.61E-08,  avg # of iterations =  1.0

     negative rho (up, down):  1.519E-03 1.518E-03

     total cpu time spent up to now is      254.9 secs

     total energy              =   -1178.51240072 Ry
     estimated scf accuracy    <       0.00025352 Ry

     total magnetization       =     0.00 Bohr mag/cell
     absolute magnetization    =     0.21 Bohr mag/cell

     iteration # 24     ecut=    50.00 Ry     beta= 0.30
     Davidson diagonalization with overlap
     ethr =  7.61E-08,  avg # of iterations =  2.0

     negative rho (up, down):  1.519E-03 1.518E-03

     total cpu time spent up to now is      260.1 secs

     total energy              =   -1178.51247178 Ry
     estimated scf accuracy    <       0.00015931 Ry

     total magnetization       =     0.00 Bohr mag/cell
     absolute magnetization    =     0.07 Bohr mag/cell

     iteration # 25     ecut=    50.00 Ry     beta= 0.30
     Davidson diagonalization with overlap
     ethr =  7.34E-08,  avg # of iterations =  2.0

     negative rho (up, down):  1.519E-03 1.518E-03

     total cpu time spent up to now is      265.3 secs

     total energy              =   -1178.51248257 Ry
     estimated scf accuracy    <       0.00027408 Ry

     total magnetization       =     0.00 Bohr mag/cell
     absolute magnetization    =     0.10 Bohr mag/cell

     iteration # 26     ecut=    50.00 Ry     beta= 0.30
     Davidson diagonalization with overlap
     ethr =  7.34E-08,  avg # of iterations =  1.0

     negative rho (up, down):  1.518E-03 1.518E-03

     total cpu time spent up to now is      270.2 secs

     total energy              =   -1178.51248383 Ry
     estimated scf accuracy    <       0.00030508 Ry

     total magnetization       =    -0.00 Bohr mag/cell
     absolute magnetization    =     0.08 Bohr mag/cell

     iteration # 27     ecut=    50.00 Ry     beta= 0.30
     Davidson diagonalization with overlap
     ethr =  7.34E-08,  avg # of iterations =  1.0

     negative rho (up, down):  1.518E-03 1.518E-03

     total cpu time spent up to now is      275.1 secs

     total energy              =   -1178.51246822 Ry
     estimated scf accuracy    <       0.00026766 Ry

     total magnetization       =    -0.00 Bohr mag/cell
     absolute magnetization    =     0.08 Bohr mag/cell

     iteration # 28     ecut=    50.00 Ry     beta= 0.30
     Davidson diagonalization with overlap
     ethr =  7.34E-08,  avg # of iterations =  1.0

     negative rho (up, down):  1.518E-03 1.518E-03

     total cpu time spent up to now is      280.0 secs

     total energy              =   -1178.51246105 Ry
     estimated scf accuracy    <       0.00017640 Ry

     total magnetization       =     0.00 Bohr mag/cell
     absolute magnetization    =     0.06 Bohr mag/cell

     iteration # 29     ecut=    50.00 Ry     beta= 0.30
     Davidson diagonalization with overlap
     ethr =  7.34E-08,  avg # of iterations =  1.0

     negative rho (up, down):  1.518E-03 1.518E-03

     total cpu time spent up to now is      284.8 secs

     total energy              =   -1178.51245512 Ry
     estimated scf accuracy    <       0.00011718 Ry

     total magnetization       =     0.00 Bohr mag/cell
     absolute magnetization    =     0.04 Bohr mag/cell

     iteration # 30     ecut=    50.00 Ry     beta= 0.30
     Davidson diagonalization with overlap
     ethr =  5.40E-08,  avg # of iterations =  1.5

     negative rho (up, down):  1.518E-03 1.517E-03

     total cpu time spent up to now is      289.9 secs

     total energy              =   -1178.51245240 Ry
     estimated scf accuracy    <       0.00004342 Ry

     total magnetization       =     0.00 Bohr mag/cell
     absolute magnetization    =     0.03 Bohr mag/cell

     iteration # 31     ecut=    50.00 Ry     beta= 0.30
     Davidson diagonalization with overlap
     ethr =  2.00E-08,  avg # of iterations =  1.5

     negative rho (up, down):  1.518E-03 1.517E-03

     total cpu time spent up to now is      294.9 secs

     total energy              =   -1178.51245211 Ry
     estimated scf accuracy    <       0.00000724 Ry

     total magnetization       =     0.00 Bohr mag/cell
     absolute magnetization    =     0.03 Bohr mag/cell

     iteration # 32     ecut=    50.00 Ry     beta= 0.30
     Davidson diagonalization with overlap
     ethr =  3.33E-09,  avg # of iterations =  2.5

     negative rho (up, down):  1.518E-03 1.517E-03

     total cpu time spent up to now is      300.2 secs

     total energy              =   -1178.51245186 Ry
     estimated scf accuracy    <       0.00002461 Ry

     total magnetization       =     0.00 Bohr mag/cell
     absolute magnetization    =     0.04 Bohr mag/cell

     iteration # 33     ecut=    50.00 Ry     beta= 0.30
     Davidson diagonalization with overlap
     ethr =  3.33E-09,  avg # of iterations =  2.5

     negative rho (up, down):  1.518E-03 1.517E-03

     total cpu time spent up to now is      305.5 secs

     total energy              =   -1178.51245677 Ry
     estimated scf accuracy    <       0.00000689 Ry

     total magnetization       =    -0.00 Bohr mag/cell
     absolute magnetization    =     0.01 Bohr mag/cell

     iteration # 34     ecut=    50.00 Ry     beta= 0.30
     Davidson diagonalization with overlap
     ethr =  3.18E-09,  avg # of iterations =  1.5

     negative rho (up, down):  1.517E-03 1.517E-03

     total cpu time spent up to now is      310.5 secs

     total energy              =   -1178.51245664 Ry
     estimated scf accuracy    <       0.00000178 Ry

     total magnetization       =     0.00 Bohr mag/cell
     absolute magnetization    =     0.01 Bohr mag/cell

     iteration # 35     ecut=    50.00 Ry     beta= 0.30
     Davidson diagonalization with overlap
     ethr =  8.19E-10,  avg # of iterations =  1.5

     negative rho (up, down):  1.517E-03 1.517E-03

     Magnetic moment per site  (integrated on atomic sphere of radius R)
     atom   1 (R=0.041)  charge=  1.4482  magn=  0.0000
     atom   2 (R=0.041)  charge=  1.4484  magn= -0.0000
     atom   3 (R=0.041)  charge=  1.4440  magn= -0.0000
     atom   4 (R=0.041)  charge=  1.4412  magn=  0.0000
     atom   5 (R=0.041)  charge=  1.4445  magn= -0.0000
     atom   6 (R=0.041)  charge=  1.4474  magn= -0.0001
     atom   7 (R=0.041)  charge=  1.4427  magn=  0.0000
     atom   8 (R=0.041)  charge=  1.4455  magn= -0.0000
     atom   9 (R=0.041)  charge=  1.4494  magn= -0.0001
     atom  10 (R=0.041)  charge=  1.4487  magn=  0.0000
     atom  11 (R=0.041)  charge=  1.4419  magn= -0.0000
     atom  12 (R=0.041)  charge=  1.4407  magn=  0.0000
     atom  13 (R=0.041)  charge=  1.4482  magn=  0.0000
     atom  14 (R=0.041)  charge=  1.4520  magn= -0.0000
     atom  15 (R=0.041)  charge=  1.4491  magn=  0.0000
     atom  16 (R=0.041)  charge=  1.4415  magn= -0.0000
     atom  17 (R=0.041)  charge=  1.4414  magn=  0.0000
     atom  18 (R=0.041)  charge=  1.4421  magn= -0.0000
     atom  19 (R=0.041)  charge=  1.4458  magn=  0.0000
     atom  20 (R=0.041)  charge=  1.4447  magn= -0.0000
     atom  21 (R=0.041)  charge=  1.4477  magn= -0.0000
     atom  22 (R=0.041)  charge=  1.4451  magn= -0.0000
     atom  23 (R=0.041)  charge=  1.4410  magn= -0.0000
     atom  24 (R=0.041)  charge=  1.4413  magn=  0.0000
     atom  25 (R=0.041)  charge=  1.4521  magn=  0.0000
     atom  26 (R=0.041)  charge=  1.4533  magn=  0.0000
     atom  27 (R=0.041)  charge=  1.4502  magn=  0.0000
     atom  28 (R=0.041)  charge=  1.4459  magn= -0.0000
     atom  29 (R=0.041)  charge=  1.4397  magn=  0.0000
     atom  30 (R=0.041)  charge=  1.4427  magn= -0.0000
     atom  31 (R=0.041)  charge=  1.4487  magn= -0.0000
     atom  32 (R=0.041)  charge=  1.4441  magn=  0.0000
     atom  33 (R=0.041)  charge=  1.4515  magn=  0.0000
     atom  34 (R=0.041)  charge=  1.4470  magn= -0.0000
     atom  35 (R=0.041)  charge=  1.4381  magn=  0.0000
     atom  36 (R=0.041)  charge=  1.4429  magn= -0.0000
     atom  37 (R=0.041)  charge=  1.4477  magn= -0.0000
     atom  38 (R=0.041)  charge=  1.4529  magn= -0.0000
     atom  39 (R=0.041)  charge=  1.4484  magn= -0.0000
     atom  40 (R=0.041)  charge=  1.4421  magn= -0.0000
     atom  41 (R=0.041)  charge=  1.4386  magn= -0.0000
     atom  42 (R=0.041)  charge=  1.4441  magn=  0.0000
     atom  43 (R=0.041)  charge=  1.4533  magn=  0.0000
     atom  44 (R=0.041)  charge=  1.4433  magn= -0.0000
     atom  45 (R=0.041)  charge=  1.4540  magn= -0.0000
     atom  46 (R=0.041)  charge=  1.4514  magn= -0.0000
     atom  47 (R=0.041)  charge=  1.4468  magn= -0.0000
     atom  48 (R=0.041)  charge=  1.4398  magn= -0.0000
     atom  49 (R=0.038)  charge=  6.8799  magn= -0.0000
     atom  50 (R=0.024)  charge=  1.2182  magn=  0.0002
     atom  51 (R=0.024)  charge=  0.4073  magn=  0.0000

     total cpu time spent up to now is      315.4 secs

     End of self-consistent calculation

 ------ SPIN UP ------------


          k = 0.0000 0.0000 0.0000 ( 63354 PWs)   bands (ev):

   -87.6609 -54.1124 -53.3037 -53.0793 -22.6616 -22.3625 -22.3165 -22.2613
   -22.2165 -21.8076 -21.7927 -21.7452 -20.9034 -20.8546 -20.8123 -20.7955
   -20.7589 -19.5313 -18.4491 -18.3760 -18.3561 -17.5317 -17.4618 -17.1176
   -17.0659 -17.0163 -16.6441 -16.5559 -16.5116 -16.2829 -16.2700 -16.2277
   -16.0816 -16.0461 -16.0136 -14.5976 -14.4065 -14.3506 -14.3471 -14.3078
   -14.2193 -12.2792 -12.0009 -11.9185 -11.8669 -11.8237 -11.7890 -11.7495
   -11.1122 -11.0207 -10.9458 -10.6145 -10.4545 -10.3361 -10.2068 -10.2001
   -10.1668 -10.1291 -10.0839 -10.0587 -10.0381  -9.9932  -9.9605  -9.8826
    -9.4021  -9.3738  -9.2916  -8.7981  -8.7672  -8.3884  -8.3403  -8.2564
    -8.2219  -8.1390  -8.1071  -8.0404  -7.9875  -7.9366  -7.8449  -7.7553
    -7.7336  -7.6864  -7.5680  -7.4318  -7.4194  -7.2251  -6.9869  -6.8302
    -6.6744  -6.6439  -6.5574  -6.4690  -6.3750  -6.1040  -6.0726  -5.8528
    -5.8060  -5.5579  -5.2294  -5.1792  -5.0909  -4.4830  -4.4302  -4.3560
    -4.1443  -4.0922  -4.0483  -3.8510  -3.8269  -2.7413  -2.7239  -2.7047
    -2.1100  -2.0449  -1.9809  -0.3627   0.3053   0.4925   0.5261   0.5923
     0.6433   0.6664   0.7277   0.7574   0.8429   0.9339   1.1194   1.1676
     1.2600   1.4104

 ------ SPIN DOWN ----------


          k = 0.0000 0.0000 0.0000 ( 63354 PWs)   bands (ev):

   -87.6609 -54.1124 -53.3037 -53.0793 -22.6616 -22.3618 -22.3165 -22.2612
   -22.2165 -21.8076 -21.7928 -21.7452 -20.9034 -20.8546 -20.8123 -20.7955
   -20.7589 -19.5313 -18.4491 -18.3760 -18.3561 -17.5317 -17.4618 -17.1176
   -17.0659 -17.0163 -16.6441 -16.5559 -16.5116 -16.2829 -16.2700 -16.2278
   -16.0817 -16.0461 -16.0136 -14.5976 -14.4065 -14.3506 -14.3471 -14.3078
   -14.2193 -12.2793 -12.0009 -11.9185 -11.8669 -11.8237 -11.7890 -11.7495
   -11.1122 -11.0207 -10.9458 -10.6145 -10.4545 -10.3361 -10.2068 -10.2001
   -10.1668 -10.1291 -10.0839 -10.0587 -10.0381  -9.9932  -9.9605  -9.8826
    -9.4021  -9.3738  -9.2916  -8.7981  -8.7671  -8.3883  -8.3402  -8.2562
    -8.2219  -8.1390  -8.1071  -8.0404  -7.9874  -7.9366  -7.8449  -7.7553
    -7.7336  -7.6864  -7.5680  -7.4318  -7.4194  -7.2251  -6.9869  -6.8302
    -6.6744  -6.6439  -6.5574  -6.4690  -6.3750  -6.1040  -6.0726  -5.8528
    -5.8060  -5.5578  -5.2294  -5.1792  -5.0909  -4.4831  -4.4302  -4.3560
    -4.1442  -4.0921  -4.0479  -3.8502  -3.8265  -2.7413  -2.7239  -2.7047
    -2.1100  -2.0449  -1.9810  -0.3628   0.3052   0.4925   0.5261   0.5923
     0.6432   0.6664   0.7277   0.7574   0.8429   0.9339   1.1193   1.1676
     1.2600   1.4104

     the spin up/dw Fermi energies are    -3.8269   -3.8265 ev

!    total energy              =   -1178.51245696 Ry
     estimated scf accuracy    <       0.00000013 Ry
     smearing contrib. (-TS)   =      -0.00005642 Ry
     internal energy E=F+TS    =   -1178.51240054 Ry

     The total energy is F=E-TS. E is the sum of the following terms:
     one-electron contribution =   -5479.83843134 Ry
     hartree contribution      =    2767.81064908 Ry
     xc contribution           =    -254.50157880 Ry
     ewald contribution        =    2093.59789779 Ry
     one-center paw contrib.   =    -305.58093727 Ry

     total magnetization       =     0.00 Bohr mag/cell
     absolute magnetization    =     0.00 Bohr mag/cell

     convergence has been achieved in  35 iterations

     negative rho (up, down):  1.517E-03 1.517E-03

     Forces acting on atoms (cartesian axes, Ry/au):

     atom    1 type  1   force =    -0.02768704    0.01876256    0.00913950
     atom    2 type  1   force =     0.01470593   -0.03359035    0.00308210
     atom    3 type  1   force =    -0.01408818   -0.03009936    0.00305840
     atom    4 type  1   force =     0.02558578    0.01491713    0.00924398
     atom    5 type  1   force =     0.05447895   -0.02515472    0.10586454
     atom    6 type  1   force =    -0.05436105   -0.02694907    0.10619161
     atom    7 type  1   force =    -0.00954028   -0.00265145    0.00997554
     atom    8 type  1   force =     0.02850637   -0.00263733   -0.00769608
     atom    9 type  1   force =     0.00311980    0.00083166   -0.00188547
     atom   10 type  1   force =     0.00477479    0.01911162    0.00019252
     atom   11 type  1   force =    -0.00731870   -0.01715185   -0.00105311
     atom   12 type  1   force =    -0.02936074   -0.00133465    0.00111300
     atom   13 type  1   force =    -0.01609347    0.02710750   -0.00111126
     atom   14 type  1   force =     0.01134573   -0.02651492    0.00117356
     atom   15 type  1   force =    -0.00589189   -0.00809152    0.00103361
     atom   16 type  1   force =     0.00788675    0.01111035   -0.00057459
     atom   17 type  1   force =     0.02377417    0.00258391   -0.00086338
     atom   18 type  1   force =    -0.02376607   -0.00107586    0.00112978
     atom   19 type  1   force =     0.01106507   -0.01918942    0.00214700
     atom   20 type  1   force =     0.02826667   -0.00035267    0.00001450
     atom   21 type  1   force =    -0.00909328    0.02344758   -0.00332109
     atom   22 type  1   force =     0.01003935    0.02476106   -0.00371456
     atom   23 type  1   force =    -0.01248105   -0.01994386    0.00203581
     atom   24 type  1   force =    -0.02759220   -0.00043753    0.00026397
     atom   25 type  1   force =    -0.01418255    0.02291692    0.00242067
     atom   26 type  1   force =     0.01245743   -0.02615917   -0.00128969
     atom   27 type  1   force =    -0.01369993   -0.02835352   -0.00173219
     atom   28 type  1   force =     0.01578335    0.02406750    0.00267222
     atom   29 type  1   force =     0.01565121    0.00035059   -0.00005108
     atom   30 type  1   force =    -0.01602081   -0.00020432   -0.00054863
     atom   31 type  1   force =     0.00699522   -0.01796560   -0.00125501
     atom   32 type  1   force =     0.02881072   -0.00017397    0.00145253
     atom   33 type  1   force =    -0.00455558    0.01957029    0.00058322
     atom   34 type  1   force =    -0.00194319    0.00171575   -0.00117758
     atom   35 type  1   force =     0.00806349   -0.00253306    0.01048440
     atom   36 type  1   force =    -0.02694403   -0.00327045   -0.00659255
     atom   37 type  1   force =    -0.00663023    0.01104115   -0.00101546
     atom   38 type  1   force =     0.00518304   -0.00731563    0.00040491
     atom   39 type  1   force =    -0.01135291   -0.02583249    0.00053899
     atom   40 type  1   force =     0.01595619    0.02602973   -0.00093959
     atom   41 type  1   force =     0.02509244   -0.00021878    0.00040541
     atom   42 type  1   force =    -0.02610077    0.00216195   -0.00180387
     atom   43 type  1   force =     0.01811394   -0.02761991    0.00116550
     atom   44 type  1   force =     0.01722758    0.00014505   -0.00010283
     atom   45 type  1   force =    -0.01506856    0.03215772   -0.00173452
     atom   46 type  1   force =     0.01495236    0.02978495   -0.00085531
     atom   47 type  1   force =    -0.01718504   -0.02462970    0.00141661
     atom   48 type  1   force =    -0.01666170   -0.00085231    0.00008675
     atom   49 type  2   force =    -0.00013349    0.07294303   -0.20165094
     atom   50 type  3   force =    -0.00002367    0.01382427   -0.61114440
     atom   51 type  4   force =    -0.00005995   -0.01903880    0.57482253

     Total force =     0.899730     Total SCF correction =     0.000409
     Energy error            =      3.8E-02 Ry
     Gradient error          =      6.1E-01 Ry/Bohr

     number of scf cycles    =   2
     number of bfgs steps    =   1

     energy             old  =   -1178.4744990511 Ry
     energy             new  =   -1178.5124569619 Ry

     CASE: energy            _new < energy            _old

     new trust radius        =       0.4261950477 bohr
     new conv_thr            =       0.0000010000 Ry


ATOMIC_POSITIONS (angstrom)
C             1.8843104615        2.0152811185       10.0863456819
C             2.5714362573        0.8616083689       10.1268883684
C             4.0612648380        0.8589944713       10.1235082376
C             4.7657938401        2.0091960051       10.0793934534
C             4.0603919013        3.3066207330       10.0537825019
C             2.6028620875        3.3063278932       10.0580849777
C             1.3495467009        4.0042367660       10.3674259586
C             0.6136938195        2.7390885664       10.3261583842
C             0.6773304299        5.1714966061       10.5708558641
C            -0.7778372268        5.1688472634       10.6753601375
C            -1.4711085193        4.0029833216       10.6109644321
C            -0.7413396483        2.7362384701       10.4567361230
C            -1.4351714496        7.8216634659       10.6251210958
C            -0.7637476801        6.6530917287       10.6723898360
C             0.7003184956        6.6412392501       10.5849543001
C             1.3954906121        7.8049991126       10.4781599858
C             0.6671550385        9.0753942499       10.4280299893
C            -0.6927539413        9.0834425213       10.4938538328
C            -1.9814469112        9.8126168518       10.4540156192
C            -2.7254476732        8.5585462998       10.5899293331
C            -2.6575823320       10.9839410604       10.3111040845
C            -4.1247403424       10.9863339757       10.3170241593
C            -4.8179992935        9.8199908508       10.4673872160
C            -4.0864414845        8.5575301328       10.5957337427
C             8.6890339081        2.0145745014       10.4051240963
C             9.3659663322        0.8495423521       10.3108189025
C            10.8286271544        0.8476025332       10.3185333649
C            11.5232389339        2.0079102864       10.4176021561
C            10.7946649301        3.2760449774       10.5479556663
C             9.4309115137        3.2749132971       10.5412553989
C             8.1439685900        3.9983893900       10.5904735381
C             7.4011812433        2.7386345385       10.4324502353
C             7.4685377941        5.1674116332       10.6543028579
C             6.0133957844        5.1744906869       10.5469111931
C             5.3234447502        4.0106273696       10.3452454163
C             6.0461969790        2.7382882471       10.3036733335
C             5.3445108919        7.8117913908       10.5013067469
C             6.0233749429        6.6436120699       10.5874574918
C             7.4877502519        6.6510848325       10.6731238493
C             8.1763050032        7.8166394742       10.6386377379
C             7.4458140986        9.0865872948       10.5199779007
C             6.0858280821        9.0755988403       10.4630466426
C             4.7971593317        9.7949953056       10.3395698560
C             4.0549436522        8.5279978284       10.3865364538
C             4.1221002056       10.9588090331       10.2700606758
C             2.6565160068       10.9607786923       10.2604741583
C             1.9633152967        9.8001820958       10.3155404383
C             2.6924777023        8.5260520516       10.3734505273
Pd            3.3250793498        3.7878384889        8.4165008176
O             3.3247014719        3.7522835307        5.5992273979
H             3.3245517670        3.7256209717        6.6983000025



     Writing config-only to output data dir ./pwscf.save/
     NEW-OLD atomic charge density approx. for the potential

     Check: negative core charge=   -0.000002

     negative rho (up, down):  1.514E-03 1.514E-03
     Generating pointlists ...

     total cpu time spent up to now is      327.6 secs

     Self-consistent Calculation

     iteration #  1     ecut=    50.00 Ry     beta= 0.30
     Davidson diagonalization with overlap
     ethr =  1.00E-06,  avg # of iterations =  8.5

     negative rho (up, down):  1.503E-03 1.503E-03

     total cpu time spent up to now is      338.8 secs

     total energy              =   -1178.48422239 Ry
     estimated scf accuracy    <       0.39179048 Ry

     total magnetization       =    -0.00 Bohr mag/cell
     absolute magnetization    =     0.01 Bohr mag/cell

     iteration #  2     ecut=    50.00 Ry     beta= 0.30
     Davidson diagonalization with overlap
     ethr =  1.81E-04,  avg # of iterations =  3.0

     negative rho (up, down):  1.519E-03 1.519E-03

     total cpu time spent up to now is      344.1 secs

     total energy              =   -1178.57942849 Ry
     estimated scf accuracy    <       0.64182839 Ry

     total magnetization       =     0.00 Bohr mag/cell
     absolute magnetization    =     0.00 Bohr mag/cell

     iteration #  3     ecut=    50.00 Ry     beta= 0.30
     Davidson diagonalization with overlap
     ethr =  1.81E-04,  avg # of iterations =  2.0

     negative rho (up, down):  1.529E-03 1.529E-03

     total cpu time spent up to now is      349.4 secs

     total energy              =   -1178.56199031 Ry
     estimated scf accuracy    <       0.17211016 Ry

     total magnetization       =    -0.00 Bohr mag/cell
     absolute magnetization    =     0.00 Bohr mag/cell

     iteration #  4     ecut=    50.00 Ry     beta= 0.30
     Davidson diagonalization with overlap
     ethr =  7.93E-05,  avg # of iterations =  3.0

     negative rho (up, down):  1.521E-03 1.521E-03

     total cpu time spent up to now is      354.6 secs

     total energy              =   -1178.57865683 Ry
     estimated scf accuracy    <       0.33547198 Ry

     total magnetization       =     0.00 Bohr mag/cell
     absolute magnetization    =     0.02 Bohr mag/cell

     iteration #  5     ecut=    50.00 Ry     beta= 0.30
     Davidson diagonalization with overlap
     ethr =  7.93E-05,  avg # of iterations =  2.0

     negative rho (up, down):  1.501E-03 1.501E-03

     total cpu time spent up to now is      359.8 secs

     total energy              =   -1178.57739730 Ry
     estimated scf accuracy    <       0.01354696 Ry

     total magnetization       =    -0.00 Bohr mag/cell
     absolute magnetization    =     0.02 Bohr mag/cell

     iteration #  6     ecut=    50.00 Ry     beta= 0.30
     Davidson diagonalization with overlap
     ethr =  6.24E-06,  avg # of iterations =  2.0

     negative rho (up, down):  1.493E-03 1.493E-03

     total cpu time spent up to now is      365.1 secs

     total energy              =   -1178.58095370 Ry
     estimated scf accuracy    <       0.08590236 Ry

     total magnetization       =    -0.00 Bohr mag/cell
     absolute magnetization    =     0.03 Bohr mag/cell

     iteration #  7     ecut=    50.00 Ry     beta= 0.30
     Davidson diagonalization with overlap
     ethr =  6.24E-06,  avg # of iterations =  2.0

     negative rho (up, down):  1.497E-03 1.497E-03

     total cpu time spent up to now is      370.3 secs

     total energy              =   -1178.57098391 Ry
     estimated scf accuracy    <       0.14294312 Ry

     total magnetization       =     0.00 Bohr mag/cell
     absolute magnetization    =     0.02 Bohr mag/cell

     iteration #  8     ecut=    50.00 Ry     beta= 0.30
     Davidson diagonalization with overlap
     ethr =  6.24E-06,  avg # of iterations =  2.0

     negative rho (up, down):  1.498E-03 1.498E-03

     total cpu time spent up to now is      375.5 secs

     total energy              =   -1178.57748091 Ry
     estimated scf accuracy    <       0.22272654 Ry

     total magnetization       =    -0.00 Bohr mag/cell
     absolute magnetization    =     0.09 Bohr mag/cell

     iteration #  9     ecut=    50.00 Ry     beta= 0.30
     Davidson diagonalization with overlap
     ethr =  6.24E-06,  avg # of iterations =  1.0

     negative rho (up, down):  1.506E-03 1.506E-03

     total cpu time spent up to now is      380.4 secs

     total energy              =   -1178.57804568 Ry
     estimated scf accuracy    <       0.18145054 Ry

     total magnetization       =     0.00 Bohr mag/cell
     absolute magnetization    =     0.22 Bohr mag/cell

     iteration # 10     ecut=    50.00 Ry     beta= 0.30
     Davidson diagonalization with overlap
     ethr =  6.24E-06,  avg # of iterations =  1.0

     negative rho (up, down):  1.518E-03 1.518E-03

     total cpu time spent up to now is      385.3 secs

     total energy              =   -1178.58566046 Ry
     estimated scf accuracy    <       0.19286443 Ry

     total magnetization       =    -0.00 Bohr mag/cell
     absolute magnetization    =     0.15 Bohr mag/cell

     iteration # 11     ecut=    50.00 Ry     beta= 0.30
     Davidson diagonalization with overlap
     ethr =  6.24E-06,  avg # of iterations =  1.0

     negative rho (up, down):  1.525E-03 1.525E-03

     total cpu time spent up to now is      390.2 secs

     total energy              =   -1178.57504443 Ry
     estimated scf accuracy    <       0.22891492 Ry

     total magnetization       =    -0.00 Bohr mag/cell
     absolute magnetization    =     0.09 Bohr mag/cell

     iteration # 12     ecut=    50.00 Ry     beta= 0.30
     Davidson diagonalization with overlap
     ethr =  6.24E-06,  avg # of iterations =  2.0

     negative rho (up, down):  1.512E-03 1.513E-03

     total cpu time spent up to now is      395.3 secs

     total energy              =   -1178.57228420 Ry
     estimated scf accuracy    <       0.00606918 Ry

     total magnetization       =     0.00 Bohr mag/cell
     absolute magnetization    =     0.25 Bohr mag/cell

     iteration # 13     ecut=    50.00 Ry     beta= 0.30
     Davidson diagonalization with overlap
     ethr =  2.80E-06,  avg # of iterations =  2.0

     negative rho (up, down):  1.510E-03 1.510E-03

     total cpu time spent up to now is      400.6 secs

     total energy              =   -1178.58930780 Ry
     estimated scf accuracy    <       0.07189704 Ry

     total magnetization       =    -0.00 Bohr mag/cell
     absolute magnetization    =     0.05 Bohr mag/cell

     iteration # 14     ecut=    50.00 Ry     beta= 0.30
     Davidson diagonalization with overlap
     ethr =  2.80E-06,  avg # of iterations =  2.5

     negative rho (up, down):  1.512E-03 1.512E-03

     total cpu time spent up to now is      405.9 secs

     total energy              =   -1178.59124500 Ry
     estimated scf accuracy    <       0.15281720 Ry

     total magnetization       =    -0.00 Bohr mag/cell
     absolute magnetization    =     0.03 Bohr mag/cell

     iteration # 15     ecut=    50.00 Ry     beta= 0.30
     Davidson diagonalization with overlap
     ethr =  2.80E-06,  avg # of iterations =  1.0

     negative rho (up, down):  1.531E-03 1.529E-03

     total cpu time spent up to now is      410.8 secs

     total energy              =   -1178.60841853 Ry
     estimated scf accuracy    <       0.15799160 Ry

     total magnetization       =     0.00 Bohr mag/cell
     absolute magnetization    =     0.03 Bohr mag/cell

     iteration # 16     ecut=    50.00 Ry     beta= 0.30
     Davidson diagonalization with overlap
     ethr =  2.80E-06,  avg # of iterations =  3.0

     negative rho (up, down):  1.534E-03 1.531E-03

     total cpu time spent up to now is      416.2 secs

     total energy              =   -1178.60983892 Ry
     estimated scf accuracy    <       0.23343818 Ry

     total magnetization       =    -0.00 Bohr mag/cell
     absolute magnetization    =     0.04 Bohr mag/cell

     iteration # 17     ecut=    50.00 Ry     beta= 0.30
     Davidson diagonalization with overlap
     ethr =  2.80E-06,  avg # of iterations =  1.0

     negative rho (up, down):  1.513E-03 1.511E-03

     total cpu time spent up to now is      421.1 secs

     total energy              =   -1178.57839732 Ry
     estimated scf accuracy    <       0.23988751 Ry

     total magnetization       =    -0.00 Bohr mag/cell
     absolute magnetization    =     0.04 Bohr mag/cell

     iteration # 18     ecut=    50.00 Ry     beta= 0.30
     Davidson diagonalization with overlap
     ethr =  2.80E-06,  avg # of iterations =  3.0

     negative rho (up, down):  1.504E-03 1.503E-03

     total cpu time spent up to now is      426.6 secs

     total energy              =   -1178.56311422 Ry
     estimated scf accuracy    <       0.07713969 Ry

     total magnetization       =     0.00 Bohr mag/cell
     absolute magnetization    =     0.06 Bohr mag/cell

     iteration # 19     ecut=    50.00 Ry     beta= 0.30
     Davidson diagonalization with overlap
     ethr =  2.80E-06,  avg # of iterations =  6.0

     negative rho (up, down):  1.511E-03 1.508E-03

     total cpu time spent up to now is      432.6 secs

     total energy              =   -1178.63708719 Ry
     estimated scf accuracy    <       0.31521775 Ry

     total magnetization       =    -0.00 Bohr mag/cell
     absolute magnetization    =     0.07 Bohr mag/cell

     iteration # 20     ecut=    50.00 Ry     beta= 0.30
     Davidson diagonalization with overlap
     ethr =  2.80E-06,  avg # of iterations =  3.0

     negative rho (up, down):  1.530E-03 1.529E-03

     total cpu time spent up to now is      438.0 secs

     total energy              =   -1178.58261822 Ry
     estimated scf accuracy    <       1.15318684 Ry

     total magnetization       =     0.00 Bohr mag/cell
     absolute magnetization    =     0.21 Bohr mag/cell

     iteration # 21     ecut=    50.00 Ry     beta= 0.30
     Davidson diagonalization with overlap
     ethr =  2.80E-06,  avg # of iterations =  3.0

     negative rho (up, down):  1.544E-03 1.543E-03

     total cpu time spent up to now is      443.4 secs

     total energy              =   -1178.60910589 Ry
     estimated scf accuracy    <       0.30515898 Ry

     total magnetization       =     0.00 Bohr mag/cell
     absolute magnetization    =     0.04 Bohr mag/cell

     iteration # 22     ecut=    50.00 Ry     beta= 0.30
     Davidson diagonalization with overlap
     ethr =  2.80E-06,  avg # of iterations =  2.0

     negative rho (up, down):  1.547E-03 1.544E-03

     total cpu time spent up to now is      448.6 secs

     total energy              =   -1178.58440758 Ry
     estimated scf accuracy    <       0.35466690 Ry

     total magnetization       =     0.00 Bohr mag/cell
     absolute magnetization    =     0.02 Bohr mag/cell

     iteration # 23     ecut=    50.00 Ry     beta= 0.30
     Davidson diagonalization with overlap
     ethr =  2.80E-06,  avg # of iterations =  2.0

     negative rho (up, down):  1.540E-03 1.542E-03

     total cpu time spent up to now is      453.8 secs

     total energy              =   -1178.57832405 Ry
     estimated scf accuracy    <       0.22945633 Ry

     total magnetization       =    -0.00 Bohr mag/cell
     absolute magnetization    =     0.41 Bohr mag/cell

     iteration # 24     ecut=    50.00 Ry     beta= 0.30
     Davidson diagonalization with overlap
     ethr =  2.80E-06,  avg # of iterations =  2.0

     negative rho (up, down):  1.524E-03 1.528E-03

     total cpu time spent up to now is      459.0 secs

     total energy              =   -1178.57582951 Ry
     estimated scf accuracy    <       0.13905465 Ry

     total magnetization       =    -0.00 Bohr mag/cell
     absolute magnetization    =     0.53 Bohr mag/cell

     iteration # 25     ecut=    50.00 Ry     beta= 0.30
     Davidson diagonalization with overlap
     ethr =  2.80E-06,  avg # of iterations =  2.0

     negative rho (up, down):  1.514E-03 1.513E-03

     total cpu time spent up to now is      464.3 secs

     total energy              =   -1178.57630888 Ry
     estimated scf accuracy    <       0.02993016 Ry

     total magnetization       =     0.00 Bohr mag/cell
     absolute magnetization    =     0.26 Bohr mag/cell

     iteration # 26     ecut=    50.00 Ry     beta= 0.30
     Davidson diagonalization with overlap
     ethr =  2.80E-06,  avg # of iterations =  1.0

     negative rho (up, down):  1.503E-03 1.502E-03

     total cpu time spent up to now is      469.1 secs

     total energy              =   -1178.57550119 Ry
     estimated scf accuracy    <       0.01005163 Ry

     total magnetization       =     0.00 Bohr mag/cell
     absolute magnetization    =     0.13 Bohr mag/cell

     iteration # 27     ecut=    50.00 Ry     beta= 0.30
     Davidson diagonalization with overlap
     ethr =  2.80E-06,  avg # of iterations =  2.0

[...]

     total magnetization       =    -0.00 Bohr mag/cell
     absolute magnetization    =     0.01 Bohr mag/cell

     iteration # 10     ecut=    50.00 Ry     beta= 0.30
     Davidson diagonalization with overlap
     ethr =  4.86E-08,  avg # of iterations =  2.0

     negative rho (up, down):  1.528E-03 1.528E-03

     total cpu time spent up to now is     4049.4 secs

     total energy              =   -1178.83196487 Ry
     estimated scf accuracy    <       0.00002764 Ry

     total magnetization       =    -0.00 Bohr mag/cell
     absolute magnetization    =     0.01 Bohr mag/cell

     iteration # 11     ecut=    50.00 Ry     beta= 0.30
     Davidson diagonalization with overlap
     ethr =  1.27E-08,  avg # of iterations =  2.0

     negative rho (up, down):  1.526E-03 1.526E-03

     total cpu time spent up to now is     4054.7 secs

     total energy              =   -1178.83196362 Ry
     estimated scf accuracy    <       0.00000403 Ry

     total magnetization       =     0.00 Bohr mag/cell
     absolute magnetization    =     0.00 Bohr mag/cell

     iteration # 12     ecut=    50.00 Ry     beta= 0.30
     Davidson diagonalization with overlap
     ethr =  1.86E-09,  avg # of iterations =  2.0

     negative rho (up, down):  1.524E-03 1.525E-03

     total cpu time spent up to now is     4060.1 secs

     total energy              =   -1178.83196171 Ry
     estimated scf accuracy    <       0.00000103 Ry

     total magnetization       =    -0.00 Bohr mag/cell
     absolute magnetization    =     0.00 Bohr mag/cell

     iteration # 13     ecut=    50.00 Ry     beta= 0.30
     Davidson diagonalization with overlap
     ethr =  4.73E-10,  avg # of iterations =  4.0

     negative rho (up, down):  1.524E-03 1.524E-03

     total cpu time spent up to now is     4065.5 secs

     total energy              =   -1178.83196045 Ry
     estimated scf accuracy    <       0.00000016 Ry

     total magnetization       =     0.00 Bohr mag/cell
     absolute magnetization    =     0.00 Bohr mag/cell

     iteration # 14     ecut=    50.00 Ry     beta= 0.30
     Davidson diagonalization with overlap
     ethr =  7.39E-11,  avg # of iterations =  3.0

     negative rho (up, down):  1.523E-03 1.523E-03

     total cpu time spent up to now is     4071.3 secs

     total energy              =   -1178.83196035 Ry
     estimated scf accuracy    <       0.00000008 Ry

     total magnetization       =     0.00 Bohr mag/cell
     absolute magnetization    =     0.00 Bohr mag/cell

     iteration # 15     ecut=    50.00 Ry     beta= 0.30
     Davidson diagonalization with overlap
     ethr =  3.78E-11,  avg # of iterations =  2.0

     negative rho (up, down):  1.523E-03 1.523E-03

     total cpu time spent up to now is     4076.5 secs

     total energy              =   -1178.83195979 Ry
     estimated scf accuracy    <       0.00000002 Ry

     total magnetization       =     0.00 Bohr mag/cell
     absolute magnetization    =     0.00 Bohr mag/cell

     iteration # 16     ecut=    50.00 Ry     beta= 0.30
     Davidson diagonalization with overlap
     ethr =  9.84E-12,  avg # of iterations =  2.0

     negative rho (up, down):  1.523E-03 1.523E-03

     Magnetic moment per site  (integrated on atomic sphere of radius R)
     atom   1 (R=0.041)  charge=  1.4441  magn=  0.0000
     atom   2 (R=0.041)  charge=  1.4475  magn= -0.0000
     atom   3 (R=0.041)  charge=  1.4436  magn=  0.0000
     atom   4 (R=0.041)  charge=  1.4373  magn= -0.0000
     atom   5 (R=0.041)  charge=  1.4264  magn= -0.0000
     atom   6 (R=0.041)  charge=  1.4295  magn= -0.0000
     atom   7 (R=0.041)  charge=  1.4460  magn=  0.0000
     atom   8 (R=0.041)  charge=  1.4460  magn= -0.0000
     atom   9 (R=0.041)  charge=  1.4514  magn= -0.0000
     atom  10 (R=0.041)  charge=  1.4486  magn=  0.0000
     atom  11 (R=0.041)  charge=  1.4431  magn= -0.0000
     atom  12 (R=0.041)  charge=  1.4402  magn=  0.0000
     atom  13 (R=0.041)  charge=  1.4485  magn=  0.0000
     atom  14 (R=0.041)  charge=  1.4489  magn= -0.0000
     atom  15 (R=0.041)  charge=  1.4467  magn=  0.0000
     atom  16 (R=0.041)  charge=  1.4429  magn= -0.0000
     atom  17 (R=0.041)  charge=  1.4394  magn=  0.0000
     atom  18 (R=0.041)  charge=  1.4424  magn= -0.0000
     atom  19 (R=0.041)  charge=  1.4470  magn=  0.0000
     atom  20 (R=0.041)  charge=  1.4436  magn= -0.0000
     atom  21 (R=0.041)  charge=  1.4493  magn= -0.0000
     atom  22 (R=0.041)  charge=  1.4466  magn=  0.0000
     atom  23 (R=0.041)  charge=  1.4421  magn= -0.0000
     atom  24 (R=0.041)  charge=  1.4403  magn=  0.0000
     atom  25 (R=0.041)  charge=  1.4515  magn=  0.0000
     atom  26 (R=0.041)  charge=  1.4516  magn= -0.0000
     atom  27 (R=0.041)  charge=  1.4481  magn=  0.0000
     atom  28 (R=0.041)  charge=  1.4450  magn= -0.0000
     atom  29 (R=0.041)  charge=  1.4400  magn=  0.0000
     atom  30 (R=0.041)  charge=  1.4435  magn= -0.0000
     atom  31 (R=0.041)  charge=  1.4491  magn= -0.0000
     atom  32 (R=0.041)  charge=  1.4445  magn=  0.0000
     atom  33 (R=0.041)  charge=  1.4512  magn=  0.0000
     atom  34 (R=0.041)  charge=  1.4494  magn= -0.0000
     atom  35 (R=0.041)  charge=  1.4405  magn=  0.0000
     atom  36 (R=0.041)  charge=  1.4426  magn= -0.0000
     atom  37 (R=0.041)  charge=  1.4499  magn=  0.0000
     atom  38 (R=0.041)  charge=  1.4508  magn= -0.0000
     atom  39 (R=0.041)  charge=  1.4460  magn= -0.0000
     atom  40 (R=0.041)  charge=  1.4429  magn=  0.0000
     atom  41 (R=0.041)  charge=  1.4398  magn=  0.0000
     atom  42 (R=0.041)  charge=  1.4432  magn= -0.0000
     atom  43 (R=0.041)  charge=  1.4495  magn=  0.0000
     atom  44 (R=0.041)  charge=  1.4437  magn= -0.0000
     atom  45 (R=0.041)  charge=  1.4524  magn= -0.0000
     atom  46 (R=0.041)  charge=  1.4497  magn=  0.0000
     atom  47 (R=0.041)  charge=  1.4442  magn= -0.0000
     atom  48 (R=0.041)  charge=  1.4402  magn=  0.0000
     atom  49 (R=0.038)  charge=  6.8691  magn=  0.0000
     atom  50 (R=0.024)  charge=  1.1992  magn=  0.0000
     atom  51 (R=0.024)  charge=  0.2620  magn= -0.0000

     total cpu time spent up to now is     4081.8 secs

     End of self-consistent calculation

 ------ SPIN UP ------------


          k = 0.0000 0.0000 0.0000 ( 63354 PWs)   bands (ev):

   -87.0795 -53.3446 -52.6619 -52.4590 -22.3961 -22.0485 -22.0072 -21.9944
   -21.5677 -21.5459 -21.4980 -21.3667 -20.6521 -20.6364 -20.6294 -20.5987
   -20.5733 -19.1730 -18.0678 -18.0632 -18.0304 -17.1700 -17.1091 -16.7670
   -16.7304 -16.6882 -16.2394 -16.2064 -16.1767 -15.9845 -15.9730 -15.9425
   -15.7701 -15.7543 -15.7168 -14.1365 -14.0669 -14.0171 -14.0118 -13.9945
   -13.9471 -11.8484 -11.7498 -11.6704 -11.6157 -11.5782 -11.5208 -11.4820
   -10.7339 -10.6965 -10.6578 -10.3111 -10.0606  -9.9840  -9.9602  -9.8983
    -9.8555  -9.8247  -9.7680  -9.7507  -9.7442  -9.7162  -9.6771  -9.6420
    -9.2294  -9.0537  -9.0346  -8.9209  -8.2991  -8.1547  -8.0602  -7.9889
    -7.9212  -7.8384  -7.7969  -7.7792  -7.7369  -7.6611  -7.5164  -7.4905
    -7.4620  -7.4465  -7.2772  -7.2256  -7.2044  -6.8896  -6.7076  -6.5999
    -6.3492  -6.2989  -6.2130  -6.1998  -6.0938  -5.7850  -5.7700  -5.7303
    -5.5100  -5.4549  -4.6590  -4.6424  -4.5592  -4.2924  -4.2594  -4.1097
    -4.0298  -3.8930  -3.7732  -3.6549  -3.4667  -2.5216  -2.5125  -2.4087
    -1.8685  -1.8112  -1.7316   0.4781   0.5660   0.7735   0.7858   0.8783
     0.9012   0.9675   0.9957   1.0392   1.1247   1.1889   1.3381   1.3477
     1.4279   1.5002

 ------ SPIN DOWN ----------


          k = 0.0000 0.0000 0.0000 ( 63354 PWs)   bands (ev):

   -87.0795 -53.3446 -52.6619 -52.4590 -22.3961 -22.0485 -22.0072 -21.9944
   -21.5677 -21.5459 -21.4980 -21.3667 -20.6521 -20.6364 -20.6294 -20.5987
   -20.5733 -19.1730 -18.0678 -18.0632 -18.0304 -17.1700 -17.1091 -16.7670
   -16.7304 -16.6882 -16.2394 -16.2064 -16.1767 -15.9845 -15.9730 -15.9425
   -15.7701 -15.7543 -15.7168 -14.1365 -14.0669 -14.0171 -14.0118 -13.9945
   -13.9471 -11.8484 -11.7498 -11.6704 -11.6157 -11.5782 -11.5208 -11.4820
   -10.7339 -10.6965 -10.6578 -10.3111 -10.0606  -9.9840  -9.9602  -9.8983
    -9.8555  -9.8247  -9.7680  -9.7507  -9.7442  -9.7162  -9.6771  -9.6420
    -9.2294  -9.0537  -9.0346  -8.9209  -8.2991  -8.1547  -8.0602  -7.9889
    -7.9212  -7.8384  -7.7969  -7.7792  -7.7369  -7.6611  -7.5164  -7.4905
    -7.4620  -7.4465  -7.2772  -7.2256  -7.2044  -6.8896  -6.7076  -6.5999
    -6.3492  -6.2989  -6.2130  -6.1998  -6.0938  -5.7850  -5.7700  -5.7303
    -5.5100  -5.4549  -4.6590  -4.6424  -4.5592  -4.2924  -4.2594  -4.1097
    -4.0298  -3.8930  -3.7732  -3.6549  -3.4667  -2.5215  -2.5125  -2.4086
    -1.8685  -1.8112  -1.7316   0.4781   0.5660   0.7735   0.7858   0.8783
     0.9011   0.9675   0.9957   1.0392   1.1247   1.1889   1.3381   1.3477
     1.4279   1.5002

     the spin up/dw Fermi energies are    -3.4667   -3.4667 ev

!    total energy              =   -1178.83195972 Ry
     estimated scf accuracy    <          3.5E-09 Ry
     smearing contrib. (-TS)   =      -0.00005642 Ry
     internal energy E=F+TS    =   -1178.83190330 Ry

     The total energy is F=E-TS. E is the sum of the following terms:
     one-electron contribution =   -5463.10336817 Ry
     hartree contribution      =    2761.70564185 Ry
     xc contribution           =    -254.20158470 Ry
     ewald contribution        =    2082.33431974 Ry
     one-center paw contrib.   =    -305.56691201 Ry

     total magnetization       =     0.00 Bohr mag/cell
     absolute magnetization    =     0.00 Bohr mag/cell

     convergence has been achieved in  16 iterations

     negative rho (up, down):  1.523E-03 1.523E-03

     Forces acting on atoms (cartesian axes, Ry/au):

     atom    1 type  1   force =     0.00019953   -0.00013745   -0.00012898
     atom    2 type  1   force =     0.00008501   -0.00016600   -0.00014009
     atom    3 type  1   force =    -0.00001185   -0.00006492    0.00008369
     atom    4 type  1   force =    -0.00030933   -0.00021008    0.00033603
     atom    5 type  1   force =    -0.00034951    0.00000983    0.00013649
     atom    6 type  1   force =     0.00034652   -0.00004003    0.00016120
     atom    7 type  1   force =    -0.00019381    0.00023294   -0.00099109
     atom    8 type  1   force =    -0.00012644   -0.00003472    0.00012948
     atom    9 type  1   force =    -0.00015390   -0.00000424   -0.00060417
     atom   10 type  1   force =    -0.00012360   -0.00006029   -0.00017436
     atom   11 type  1   force =    -0.00042537   -0.00037476   -0.00007399
     atom   12 type  1   force =    -0.00020585   -0.00019646    0.00065532
     atom   13 type  1   force =     0.00013176   -0.00011089    0.00044421
     atom   14 type  1   force =    -0.00028629    0.00011312   -0.00044012
     atom   15 type  1   force =    -0.00016830   -0.00018601    0.00075275
     atom   16 type  1   force =    -0.00007803    0.00018658    0.00015194
     atom   17 type  1   force =     0.00021064    0.00004091   -0.00019184
     atom   18 type  1   force =    -0.00007654    0.00018192    0.00015276
     atom   19 type  1   force =     0.00037453   -0.00031847   -0.00018242
     atom   20 type  1   force =     0.00067598    0.00007998    0.00057431
     atom   21 type  1   force =    -0.00010532    0.00011749    0.00023141
     atom   22 type  1   force =     0.00014016    0.00024423    0.00008133
     atom   23 type  1   force =    -0.00042059   -0.00041299   -0.00013018
     atom   24 type  1   force =    -0.00077176    0.00006320    0.00054451
     atom   25 type  1   force =     0.00021196    0.00008905   -0.00063250
     atom   26 type  1   force =     0.00009670   -0.00013210    0.00029289
     atom   27 type  1   force =    -0.00024393   -0.00047602    0.00026468
     atom   28 type  1   force =    -0.00005397    0.00032707   -0.00070054
     atom   29 type  1   force =     0.00011649   -0.00008029    0.00028940
     atom   30 type  1   force =    -0.00001086   -0.00003770    0.00035674
     atom   31 type  1   force =     0.00044088   -0.00021663   -0.00002223
     atom   32 type  1   force =    -0.00002506   -0.00017986    0.00086775
     atom   33 type  1   force =     0.00013834    0.00002407   -0.00010241
     atom   34 type  1   force =     0.00038878    0.00022362   -0.00025473
     atom   35 type  1   force =    -0.00007718   -0.00016548   -0.00070439
     atom   36 type  1   force =     0.00024616   -0.00000721    0.00066697
     atom   37 type  1   force =     0.00029304   -0.00021944    0.00002390
     atom   38 type  1   force =     0.00003880    0.00000600    0.00049443
     atom   39 type  1   force =    -0.00006051   -0.00049326   -0.00075156
     atom   40 type  1   force =     0.00014874    0.00049608    0.00027513
     atom   41 type  1   force =     0.00002428    0.00016971    0.00002575
     atom   42 type  1   force =    -0.00006386    0.00008154   -0.00055716
     atom   43 type  1   force =     0.00007673   -0.00002795   -0.00003716
     atom   44 type  1   force =    -0.00046262    0.00012656   -0.00031013
     atom   45 type  1   force =    -0.00020784    0.00015841   -0.00001366
     atom   46 type  1   force =     0.00018351    0.00009827    0.00001995
     atom   47 type  1   force =    -0.00007116    0.00000709    0.00021803
     atom   48 type  1   force =     0.00043226    0.00014212   -0.00023083
     atom   49 type  2   force =    -0.00011659    0.00005017   -0.00073101
     atom   50 type  3   force =     0.00010107    0.00098862    0.00008018
     atom   51 type  4   force =     0.00009821    0.00009464   -0.00020567

     Total force =     0.003909     Total SCF correction =     0.000155
     Energy error            =      1.9E-05 Ry
     Gradient error          =      9.9E-04 Ry/Bohr

     bfgs converged in  49 scf cycles and  48 bfgs steps
     (criteria: energy <  1.0E-04 Ry, force <  1.0E-03 Ry/Bohr)

     End of BFGS Geometry Optimization

     Final energy             =   -1178.8319597160 Ry

     File ./pwscf.bfgs deleted, as requested
Begin final coordinates

ATOMIC_POSITIONS (angstrom)
C             1.8839844457        2.0229969341       10.1495085631
C             2.5669692810        0.8635688891       10.1635200209
C             4.0636546252        0.8610597857       10.1698921163
C             4.7653133201        2.0175232725       10.1637563400
C             4.0359506743        3.3233348679       10.1337247255
C             2.6271041315        3.3220115848       10.1217597083
C             1.3508145335        4.0138237855       10.4124743403
C             0.6129250168        2.7510426041       10.3498006555
C             0.6812877899        5.1812742225       10.6023067780
C            -0.7783713358        5.1809763954       10.6883270603
C            -1.4729193903        4.0156893530       10.6080225503
C            -0.7469750915        2.7495095918       10.4509501256
C            -1.4353705071        7.8306671841       10.6405789768
C            -0.7628884776        6.6614845696       10.6981482052
C             0.7044998448        6.6514375933       10.6204181032
C             1.3982802910        7.8153210179       10.5066424319
C             0.6689015674        9.0862594483       10.4500673738
C            -0.6927595280        9.0919777791       10.5118692978
C            -1.9793111775        9.8191294708       10.4533310031
C            -2.7246415770        8.5652553519       10.5812072969
C            -2.6554113833       10.9894492937       10.3138629295
C            -4.1269222555       10.9912743822       10.3081333883
C            -4.8208503929        9.8241745116       10.4398369746
C            -4.0873431787        8.5630824709       10.5740023567
C             8.6888344288        2.0266263649       10.4117207216
C             9.3627534867        0.8619023862       10.2946668801
C            10.8288000430        0.8599506221       10.2893070358
C            11.5209587840        2.0212584898       10.4021636709
C            10.7917441255        3.2901864981       10.5411024834
C             9.4308011591        3.2880566143       10.5447365864
C             8.1424248238        4.0099136911       10.6135273871
C             7.4032605126        2.7504888522       10.4639533382
C             7.4670731197        5.1792106273       10.6837074002
C             6.0070557012        5.1852861980       10.5968342437
C             5.3179552232        4.0201422280       10.4210989515
C             6.0433451367        2.7484972804       10.3651513952
C             5.3430170824        7.8219241941       10.4961919788
C             6.0189953317        6.6548618897       10.6092811575
C             7.4863435922        6.6593079402       10.6856543998
C             8.1769124680        7.8245824915       10.6261553472
C             7.4461771458        9.0932185841       10.4940189348
C             6.0845938110        9.0844410065       10.4353153919
C             4.7971430444        9.8053148633       10.3048507703
C             4.0548061915        8.5392459869       10.3732102088
C             4.1227381146       10.9717073477       10.2343656389
C             2.6540533392       10.9741593174       10.2403761588
C             1.9617789678        9.8108945652       10.3149067292
C             2.6923514843        8.5371599237       10.3780387408
Pd            3.3470879383        3.6038723851        8.1562226497
O             3.3370371198        3.9867280454        6.2442559195
H             3.3236105467        3.1967480439        5.6778087289
End final coordinates



     Writing all to output data dir ./pwscf.save/

     init_run     :      7.62s CPU      7.89s WALL (       1 calls)
     electrons    :   3330.89s CPU   3515.82s WALL (      50 calls)
     update_pot   :    249.76s CPU    252.54s WALL (      48 calls)
     forces       :    235.62s CPU    244.46s WALL (      50 calls)

     Called by init_run:
     wfcinit      :      1.86s CPU      1.93s WALL (       1 calls)
     potinit      :      5.82s CPU      5.94s WALL (       2 calls)
     hinit0       :      2.11s CPU      2.16s WALL (       1 calls)

     Called by electrons:
     c_bands      :   1928.22s CPU   1978.66s WALL (     632 calls)
     sum_band     :    580.08s CPU    623.37s WALL (     632 calls)
     v_of_rho     :    412.63s CPU    434.29s WALL (     670 calls)
     newd         :    167.11s CPU    201.42s WALL (     670 calls)
     PAW_pot      :    203.84s CPU    204.71s WALL (     718 calls)
     mix_rho      :     61.93s CPU     65.35s WALL (     632 calls)

     Called by c_bands:
     init_us_2    :     27.03s CPU     27.39s WALL (    2726 calls)
     init_us_2:cp :     27.01s CPU     27.39s WALL (    2726 calls)
     regterg      :   1885.74s CPU   1935.56s WALL (    1266 calls)

     Called by *egterg:
     rdiaghg      :     45.89s CPU     46.09s WALL (    4416 calls)
     h_psi        :   1261.80s CPU   1301.73s WALL (    4542 calls)
     s_psi        :    135.87s CPU    136.53s WALL (    4542 calls)
     g_psi        :      3.09s CPU      3.13s WALL (    3274 calls)

     Called by h_psi:
     h_psi:calbec :    145.03s CPU    146.40s WALL (    4542 calls)
     vloc_psi     :    969.25s CPU   1006.99s WALL (    4542 calls)
     add_vuspsi   :    136.57s CPU    137.29s WALL (    4542 calls)

     General routines
     calbec       :    227.03s CPU    229.10s WALL (    6302 calls)
     fft          :    326.35s CPU    348.28s WALL (   14540 calls)
     ffts         :      9.72s CPU     10.79s WALL (    2604 calls)
     fftw         :    814.86s CPU    849.42s WALL (  462614 calls)
     interpolate  :     30.76s CPU     32.96s WALL (    1340 calls)

     Parallel routines

     PWSCF        :      1h 4m CPU      1h 8m WALL


   This run was terminated on:  14:31:55   3Apr2025            

=------------------------------------------------------------------------------=
   JOB DONE.
=------------------------------------------------------------------------------=
