ITEM: TIMESTEP
0
ITEM: NUMBER OF ATOMS
321
ITEM: BOX BOUNDS pp pp pp
0.0000000000000000e+00 1.9018000000000001e+01
0.0000000000000000e+00 1.9018000000000001e+01
0.0000000000000000e+00 1.9018000000000001e+01
ITEM: ATOMS id type x y z 
10 1 6.117 6.117 0.228 
22 1 0.228 6.117 6.117 
34 1 6.117 0.228 6.117 
89 1 3.299 4.982 1.363 
90 1 1.962 4.752 0.945 
97 1 4.982 3.299 1.363 
98 1 4.752 3.716 2.699 
105 1 3.299 1.362 4.982 
106 1 3.716 2.699 4.752 
121 1 4.982 1.362 3.299 
122 1 4.752 0.945 1.962 
125 1 8.053 8.053 0.228 
127 1 0.422 4.239 4.239 
130 1 4.239 0.422 4.239 
133 1 0.422 0.422 0.422 
136 1 4.239 4.239 0.422 
157 1 1.363 3.299 4.982 
158 1 0.945 1.962 4.752 
165 1 1.363 4.982 3.299 
166 1 2.699 4.752 3.716 
189 1 0.228 8.053 8.053 
207 1 8.053 0.228 8.053 
277 1 4.752 1.962 0.945 
284 1 3.716 4.752 2.699 
297 1 2.699 3.716 4.752 
306 1 0.945 4.752 1.962 
315 1 1.962 0.945 4.752 
319 1 4.752 2.699 3.716 
11 1 7.454 5.7 19.015 
16 1 4.433 6.117 17.562 
17 1 4.664 7.454 17.979 
25 1 6.117 4.433 17.562 
26 1 5.7 4.664 16.225 
39 1 8.994 8.994 18.502 
42 1 5.176 5.176 18.502 
43 1 1.363 1.362 18.696 
44 1 0.945 2.699 18.927 
45 1 5.176 8.994 14.685 
48 1 8.994 5.176 14.685 
79 1 3.299 3.299 18.696 
80 1 3.716 1.962 18.927 
85 1 3.299 9.187 12.807 
86 1 1.962 9.418 13.224 
95 1 9.187 3.299 12.807 
96 1 9.418 3.716 11.47 
119 1 9.187 1.362 10.871 
120 1 9.418 0.945 12.208 
126 1 6.716 8.47 19.015 
144 1 9.506 6.716 17.979 
148 1 8.47 9.506 16.225 
161 1 1.363 9.187 10.871 
162 1 2.699 9.418 10.454 
179 1 6.117 8.053 13.942 
180 1 7.454 8.47 14.173 
185 1 4.433 8.053 15.626 
186 1 4.664 6.716 15.209 
200 1 5.7 9.506 16.963 
201 1 8.053 4.433 15.626 
202 1 8.47 4.664 16.963 
215 1 8.053 6.117 13.942 
216 1 6.716 5.7 14.173 
220 1 9.506 7.454 15.209 
227 1 2.699 0.945 18.927 
240 1 5.7 7.454 19.015 
242 1 7.454 4.664 17.979 
245 1 4.664 5.7 16.225 
252 1 8.47 6.716 19.015 
254 1 6.716 9.506 17.979 
257 1 9.506 8.47 16.225 
264 1 8.47 7.454 14.173 
266 1 6.716 4.664 15.209 
269 1 9.506 5.7 16.963 
274 1 1.962 3.716 18.927 
279 1 9.418 1.962 13.224 
281 1 3.716 9.418 11.47 
288 1 5.7 6.716 14.173 
290 1 7.454 9.506 15.209 
293 1 4.664 8.47 16.963 
307 1 0.945 9.418 12.208 
317 1 9.418 2.699 10.454 
4 1 6.117 17.562 4.433 
5 1 7.454 17.979 4.664 
13 1 4.433 17.562 6.117 
14 1 4.664 16.225 5.7 
35 1 5.7 19.015 7.454 
51 1 8.994 18.502 8.994 
54 1 5.176 18.502 5.176 
55 1 1.363 18.696 1.363 
56 1 2.699 18.927 0.945 
57 1 8.994 14.685 5.176 
60 1 5.176 14.685 8.994 
93 1 9.187 10.871 1.363 
94 1 9.418 10.454 2.699 
103 1 3.299 12.807 9.187 
104 1 3.716 11.47 9.418 
113 1 3.299 18.696 3.299 
114 1 1.962 18.927 3.716 
117 1 9.187 12.807 3.299 
118 1 9.418 13.224 1.962 
131 1 8.053 15.626 4.433 
132 1 6.716 15.209 4.664 
142 1 9.506 16.963 5.7 
149 1 8.053 13.942 6.117 
150 1 8.47 14.173 7.454 
155 1 1.363 10.871 9.187 
156 1 0.945 12.208 9.418 
184 1 7.454 15.209 9.506 
187 1 4.433 15.626 8.053 
188 1 4.664 16.963 8.47 
193 1 6.117 13.942 8.053 
194 1 5.7 14.173 6.716 
208 1 8.47 19.015 6.716 
212 1 6.716 17.979 9.506 
218 1 9.506 16.225 8.47 
235 1 0.945 18.927 2.699 
237 1 5.7 16.225 4.664 
244 1 7.454 19.015 5.7 
246 1 4.664 17.979 7.454 
249 1 8.47 16.963 4.664 
256 1 6.716 14.173 5.7 
258 1 9.506 15.209 7.454 
261 1 8.47 16.225 9.506 
268 1 6.716 19.015 8.47 
270 1 9.506 17.979 6.716 
280 1 9.418 12.208 0.945 
285 1 5.7 16.963 9.506 
292 1 7.454 14.173 8.47 
294 1 4.664 15.209 6.716 
299 1 2.699 10.454 9.418 
311 1 3.716 18.927 1.962 
313 1 1.962 13.224 9.418 
318 1 9.418 11.47 3.716 
15 1 0.422 9.931 9.931 
18 1 0.422 13.748 13.748 
19 1 0.228 17.562 17.562 
21 1 4.239 9.931 13.748 
24 1 4.239 13.748 9.931 
40 1 1.363 12.807 14.491 
41 1 0.945 11.47 14.26 
49 1 1.363 14.491 12.807 
50 1 2.699 14.26 13.224 
76 1 3.299 10.871 14.491 
77 1 3.716 12.208 14.26 
99 1 4.982 10.871 12.807 
100 1 4.752 10.454 11.47 
109 1 3.299 14.491 10.871 
110 1 1.962 14.26 10.454 
123 1 4.982 12.807 10.871 
124 1 4.752 13.224 12.208 
147 1 8.053 9.737 17.562 
183 1 6.117 15.626 9.737 
191 1 0.228 15.626 15.626 
199 1 6.117 9.737 15.626 
211 1 8.053 17.562 9.737 
225 1 2.699 13.224 14.26 
234 1 0.945 14.26 11.47 
276 1 1.962 10.454 14.26 
278 1 4.752 12.208 13.224 
310 1 3.716 14.26 12.208 
320 1 4.752 11.47 10.454 
1 1 17.562 6.117 4.433 
2 1 16.225 5.7 4.664 
23 1 19.015 7.454 5.7 
28 1 17.562 4.433 6.117 
29 1 17.979 4.664 7.454 
63 1 18.502 8.994 8.994 
66 1 18.502 5.176 5.176 
67 1 18.696 1.362 1.363 
68 1 18.927 0.945 2.699 
69 1 14.685 5.176 8.994 
72 1 14.685 8.994 5.176 
87 1 10.871 9.187 1.363 
88 1 12.208 9.418 0.945 
101 1 10.871 1.362 9.187 
102 1 10.454 2.699 9.418 
134 1 15.626 8.053 4.433 
135 1 16.963 8.47 4.664 
139 1 13.942 8.053 6.117 
140 1 14.173 6.716 5.7 
146 1 15.209 9.506 7.454 
153 1 12.807 3.299 9.187 
154 1 13.224 1.962 9.418 
163 1 12.807 9.187 3.299 
164 1 11.47 9.418 3.716 
173 1 18.696 3.299 3.299 
174 1 18.927 3.716 1.962 
182 1 16.225 8.47 9.506 
190 1 19.015 6.716 8.47 
198 1 17.979 9.506 6.716 
203 1 15.626 4.433 8.053 
204 1 15.209 4.664 6.716 
210 1 16.963 5.7 9.506 
223 1 13.942 6.117 8.053 
224 1 14.173 7.454 8.47 
231 1 18.927 2.699 0.945 
238 1 17.979 7.454 4.664 
241 1 16.225 4.664 5.7 
248 1 19.015 5.7 7.454 
250 1 15.209 6.716 4.664 
253 1 16.963 9.506 5.7 
260 1 14.173 8.47 7.454 
262 1 15.209 7.454 9.506 
265 1 16.963 4.664 8.47 
272 1 14.173 5.7 6.716 
282 1 10.454 9.418 2.699 
286 1 17.979 6.716 9.506 
289 1 16.225 9.506 8.47 
296 1 19.015 8.47 6.716 
300 1 11.47 3.716 9.418 
304 1 18.927 1.962 3.716 
308 1 13.224 9.418 1.962 
314 1 12.208 0.945 9.418 
321 2 17.562 6.117 3.333 
27 1 9.931 0.422 9.931 
30 1 13.748 0.422 13.748 
31 1 17.562 0.228 17.562 
33 1 13.748 4.239 9.931 
36 1 9.931 4.239 13.748 
37 1 12.807 1.362 14.491 
38 1 13.224 2.699 14.26 
64 1 14.491 1.362 12.807 
65 1 14.26 0.945 11.47 
73 1 10.871 3.299 14.491 
74 1 10.454 1.962 14.26 
91 1 10.871 4.982 12.807 
92 1 12.208 4.752 13.224 
143 1 9.737 8.053 17.562 
167 1 12.807 4.982 10.871 
168 1 11.47 4.752 10.454 
171 1 14.491 3.299 10.871 
172 1 14.26 3.716 12.208 
181 1 17.562 8.053 9.737 
205 1 15.626 0.228 15.626 
209 1 15.626 6.117 9.737 
219 1 9.737 6.117 15.626 
226 1 11.47 0.945 14.26 
229 1 14.26 2.699 13.224 
275 1 12.208 3.716 14.26 
283 1 10.454 4.752 11.47 
302 1 14.26 1.962 10.454 
305 1 13.224 4.752 12.208 
3 1 9.931 9.931 0.422 
6 1 13.748 13.748 0.422 
7 1 17.562 17.562 0.228 
9 1 9.931 13.748 4.239 
12 1 13.748 9.931 4.239 
52 1 12.807 14.491 1.363 
53 1 11.47 14.26 0.945 
61 1 14.491 12.807 1.363 
62 1 14.26 13.224 2.699 
107 1 10.871 12.807 4.982 
108 1 10.454 11.47 4.752 
111 1 10.871 14.491 3.299 
112 1 12.208 14.26 3.716 
128 1 15.626 15.626 0.228 
141 1 9.737 15.626 6.117 
145 1 15.626 9.737 6.117 
159 1 12.807 10.871 4.982 
160 1 13.224 12.208 4.752 
169 1 14.491 10.871 3.299 
170 1 14.26 10.454 1.962 
197 1 17.562 9.737 8.053 
217 1 9.737 17.562 8.053 
230 1 14.26 11.47 0.945 
233 1 13.224 14.26 2.699 
298 1 11.47 10.454 4.752 
301 1 14.26 12.208 3.716 
309 1 10.454 14.26 1.962 
316 1 12.208 13.224 4.752 
8 1 16.225 17.979 19.015 
20 1 19.015 16.225 17.979 
32 1 17.979 19.015 16.225 
46 1 12.807 12.807 18.696 
47 1 13.224 11.47 18.927 
58 1 12.807 18.696 12.807 
59 1 11.47 18.927 13.224 
70 1 18.696 12.807 12.807 
71 1 18.927 13.224 11.47 
75 1 14.685 14.685 18.502 
78 1 18.502 18.502 18.502 
81 1 18.502 14.685 14.685 
82 1 10.871 10.871 18.696 
83 1 10.454 12.208 18.927 
84 1 14.685 18.502 14.685 
115 1 10.871 18.696 10.871 
116 1 12.208 18.927 10.454 
129 1 16.963 15.209 19.015 
137 1 13.942 15.626 17.562 
138 1 14.173 16.963 17.979 
151 1 15.626 13.942 17.562 
152 1 15.209 14.173 16.225 
175 1 18.696 10.871 10.871 
176 1 18.927 10.454 12.208 
177 1 17.562 15.626 13.942 
178 1 16.225 15.209 14.173 
192 1 19.015 16.963 15.209 
195 1 17.562 13.942 15.626 
196 1 17.979 14.173 16.963 
206 1 15.209 19.015 16.963 
213 1 15.626 17.562 13.942 
214 1 16.963 17.979 14.173 
221 1 13.942 17.562 15.626 
222 1 14.173 16.225 15.209 
228 1 11.47 13.224 18.927 
232 1 18.927 11.47 13.224 
236 1 13.224 18.927 11.47 
239 1 17.979 16.225 19.015 
243 1 16.225 19.015 17.979 
247 1 19.015 17.979 16.225 
251 1 15.209 16.963 19.015 
255 1 16.963 14.173 17.979 
259 1 14.173 15.209 16.225 
263 1 15.209 16.225 14.173 
267 1 16.963 19.015 15.209 
271 1 14.173 17.979 16.963 
273 1 12.208 10.454 18.927 
287 1 17.979 16.963 14.173 
291 1 16.225 14.173 15.209 
295 1 19.015 15.209 16.963 
303 1 18.927 12.208 10.454 
312 1 10.454 18.927 12.208 
ITEM: TIMESTEP
10
ITEM: NUMBER OF ATOMS
321
ITEM: BOX BOUNDS pp pp pp
0.0000000000000000e+00 1.9018000000000001e+01
0.0000000000000000e+00 1.9018000000000001e+01
0.0000000000000000e+00 1.9018000000000001e+01
ITEM: ATOMS id type x y z 
10 1 6.11264 6.11264 0.259709 
22 1 0.263663 6.10207 6.12163 
34 1 6.11265 0.259717 6.11265 
89 1 3.30301 5.01425 1.35829 
90 1 1.94837 4.79993 0.908167 
97 1 5.01398 3.30262 1.35818 
98 1 4.80052 3.75056 2.71384 
105 1 3.30308 1.35798 5.01445 
106 1 3.75295 2.71262 4.80025 
121 1 5.01412 1.35796 3.30262 
122 1 4.80009 0.91058 1.94713 
125 1 8.05734 8.05734 0.259725 
127 1 0.436675 4.22436 4.22408 
130 1 4.2406 0.420142 4.23997 
133 1 0.421096 0.420233 0.420497 
136 1 4.24057 4.24002 0.420436 
157 1 1.36255 3.2987 5.01798 
158 1 0.910115 1.94118 4.80361 
165 1 1.36185 5.01918 3.2991 
166 1 2.71954 4.80395 3.75068 
189 1 0.262761 8.06594 8.05628 
207 1 8.05734 0.259722 8.05734 
277 1 4.80009 1.94719 0.910683 
284 1 3.75287 4.80008 2.7128 
297 1 2.72009 3.75087 4.80374 
306 1 0.910058 4.80388 1.94155 
315 1 1.94835 0.907982 4.80003 
319 1 4.80067 2.71362 3.75057 
11 1 7.46833 5.66527 19.0635 
16 1 4.40129 6.11267 17.5662 
17 1 4.61543 7.46829 18.0137 
25 1 6.11267 4.40129 17.5662 
26 1 5.66524 4.61546 16.2107 
39 1 8.99484 8.99484 18.5036 
42 1 5.17516 5.17516 18.5036 
43 1 1.35841 1.35777 18.6649 
44 1 0.910671 2.7135 18.8786 
45 1 5.17514 8.99484 14.6842 
48 1 8.99485 5.17514 14.6842 
79 1 3.30301 3.30255 18.6644 
80 1 3.75028 1.94707 18.8788 
85 1 3.30309 9.15518 12.8111 
86 1 1.94716 9.36955 13.2586 
95 1 9.1552 3.30304 12.8111 
96 1 9.36944 3.75037 11.4554 
119 1 9.15535 1.35798 10.867 
120 1 9.36961 0.91053 12.2226 
126 1 6.70167 8.50473 19.0635 
144 1 9.55458 6.70169 18.0137 
148 1 8.50476 9.55454 16.2107 
161 1 1.35856 9.15513 10.8674 
162 1 2.71408 9.3697 10.4193 
179 1 6.11271 8.05729 13.9102 
180 1 7.46829 8.5047 14.1244 
185 1 4.40127 8.05735 15.6217 
186 1 4.6154 6.70177 15.1743 
200 1 5.66525 9.55455 16.9772 
201 1 8.05735 4.40127 15.6217 
202 1 8.50476 4.61545 16.9772 
215 1 8.05729 6.1127 13.9102 
216 1 6.70171 5.66531 14.1244 
220 1 9.5546 7.46825 15.1743 
227 1 2.71401 0.910786 18.879 
240 1 5.66527 7.46833 19.0635 
242 1 7.4683 4.61543 18.0137 
245 1 4.61546 5.66524 16.2107 
252 1 8.50473 6.70167 19.0635 
254 1 6.70169 9.55458 18.0137 
257 1 9.55454 8.50476 16.2107 
264 1 8.5047 7.46829 14.1244 
266 1 6.70177 4.6154 15.1743 
269 1 9.55455 5.66525 16.9772 
274 1 1.94729 3.75045 18.8785 
279 1 9.3696 1.94719 13.2586 
281 1 3.75046 9.36938 11.4554 
288 1 5.66531 6.70171 14.1244 
290 1 7.46825 9.5546 15.1743 
293 1 4.61545 8.50476 16.9772 
307 1 0.910512 9.36969 12.2226 
317 1 9.36953 2.71382 10.4195 
4 1 6.11269 17.5661 4.40128 
5 1 7.4683 18.0137 4.61542 
13 1 4.40128 17.5661 6.11269 
14 1 4.61545 16.2107 5.66524 
35 1 5.66527 19.0635 7.46832 
51 1 8.99479 18.5035 8.99479 
54 1 5.17521 18.5035 5.1752 
55 1 1.35847 18.6649 1.35802 
56 1 2.71393 18.8789 0.910869 
57 1 8.99484 14.6842 5.17514 
60 1 5.17514 14.6842 8.99484 
93 1 9.15548 10.867 1.35812 
94 1 9.36969 10.4192 2.71396 
103 1 3.30309 12.8111 9.15518 
104 1 3.75047 11.4554 9.36938 
113 1 3.30297 18.6643 3.30249 
114 1 1.94732 18.8784 3.75052 
117 1 9.15518 12.8111 3.30304 
118 1 9.36956 13.2587 1.94725 
131 1 8.05735 15.6217 4.40127 
132 1 6.70177 15.1743 4.6154 
142 1 9.55455 16.9772 5.66524 
149 1 8.05728 13.9102 6.11271 
150 1 8.5047 14.1244 7.46829 
155 1 1.35856 10.8674 9.15518 
156 1 0.910508 12.2226 9.36968 
184 1 7.46824 15.1743 9.5546 
187 1 4.40127 15.6217 8.05735 
188 1 4.61545 16.9772 8.50477 
193 1 6.11271 13.9102 8.05729 
194 1 5.66531 14.1244 6.70171 
208 1 8.50473 19.0635 6.70167 
212 1 6.70168 18.0137 9.55459 
218 1 9.55455 16.2107 8.50476 
235 1 0.910612 18.8786 2.71371 
237 1 5.66524 16.2107 4.61545 
244 1 7.46832 19.0635 5.66527 
246 1 4.61542 18.0137 7.4683 
249 1 8.50477 16.9772 4.61545 
256 1 6.70171 14.1244 5.66531 
258 1 9.5546 15.1743 7.46824 
261 1 8.50476 16.2107 9.55455 
268 1 6.70167 19.0635 8.50473 
270 1 9.55459 18.0137 6.70168 
280 1 9.36957 12.2225 0.910609 
285 1 5.66524 16.9772 9.55456 
292 1 7.46829 14.1244 8.5047 
294 1 4.6154 15.1743 6.70177 
299 1 2.71408 10.4193 9.3697 
311 1 3.7503 18.8788 1.94709 
313 1 1.94717 13.2586 9.36955 
318 1 9.3695 11.4555 3.75069 
15 1 0.420761 9.92965 9.92966 
18 1 0.420539 13.7489 13.7489 
19 1 0.259696 17.5663 17.5663 
21 1 4.24034 9.92942 13.7488 
24 1 4.24034 13.7488 9.92942 
40 1 1.35808 12.8112 14.5225 
41 1 0.910701 11.4556 14.3085 
49 1 1.35808 14.5225 12.8112 
50 1 2.71389 14.3085 13.2586 
76 1 3.30292 10.8671 14.5229 
77 1 3.75045 12.2226 14.3086 
99 1 5.01424 10.8669 12.8112 
100 1 4.80036 10.4191 11.4556 
109 1 3.30292 14.5229 10.8671 
110 1 1.94716 14.3085 10.4195 
123 1 5.01424 12.8112 10.8669 
124 1 4.80033 13.2589 12.2224 
147 1 8.05731 9.76875 17.5661 
183 1 6.11264 15.6217 9.76875 
191 1 0.259714 15.6216 15.6216 
199 1 6.11264 9.76875 15.6217 
211 1 8.0573 17.5661 9.76875 
225 1 2.71389 13.2586 14.3085 
234 1 0.910702 14.3085 11.4556 
276 1 1.94715 10.4195 14.3085 
278 1 4.80033 12.2224 13.2589 
310 1 3.75045 14.3086 12.2226 
320 1 4.80036 11.4556 10.4191 
1 1 17.5301 6.14697 4.33287 
2 1 16.1995 5.68759 4.66634 
23 1 19.0557 7.47674 5.6784 
28 1 17.5764 4.39737 6.12128 
29 1 18.0189 4.6163 7.47784 
63 1 18.5028 8.9955 8.99747 
66 1 18.521 5.15775 5.16601 
67 1 18.6646 1.3578 1.35804 
68 1 18.8791 0.908286 2.71278 
69 1 14.6834 5.17601 8.99747 
72 1 14.6808 8.99831 5.17163 
87 1 10.8672 9.15542 1.35829 
88 1 12.2225 9.36972 0.910498 
101 1 10.867 1.35794 9.15536 
102 1 10.4195 2.71385 9.36953 
134 1 15.6193 8.05982 4.38966 
135 1 16.9769 8.50753 4.62774 
139 1 13.9076 8.05288 6.11443 
140 1 14.1167 6.70941 5.66524 
146 1 15.1776 9.55749 7.47084 
153 1 12.8107 3.30266 9.15491 
154 1 13.2587 1.94715 9.36971 
163 1 12.8126 9.15643 3.30467 
164 1 11.4551 9.36896 3.75018 
173 1 18.6592 3.29934 3.29904 
174 1 18.875 3.75084 1.94141 
182 1 16.2127 8.51089 9.55387 
190 1 19.0664 6.69864 8.51099 
198 1 18.0154 9.55942 6.69884 
203 1 15.6133 4.39818 8.05647 
204 1 15.1668 4.60816 6.70959 
210 1 16.9757 5.6689 9.55892 
223 1 13.9084 6.12227 8.06692 
224 1 14.1239 7.46548 8.50264 
231 1 18.879 2.71259 0.90839 
238 1 17.9917 7.48001 4.66536 
241 1 16.2024 4.62463 5.67713 
248 1 19.0627 5.66025 7.47761 
250 1 15.1726 6.70084 4.62777 
253 1 16.9695 9.56233 5.66519 
260 1 14.1215 8.50137 7.47095 
262 1 15.1681 7.46631 9.55391 
265 1 16.9801 4.61268 8.51108 
272 1 14.1195 5.66371 6.6988 
282 1 10.4193 9.3697 2.71395 
286 1 18.01 6.7032 9.55901 
289 1 16.2135 9.55504 8.50274 
296 1 19.0707 8.51218 6.70968 
300 1 11.4554 3.75052 9.36958 
304 1 18.875 1.94159 3.75059 
308 1 13.2583 9.36911 1.94688 
314 1 12.2227 0.910554 9.36957 
321 2 17.6216 6.05721 3.21291 
27 1 9.92962 0.420594 9.9296 
30 1 13.7489 0.420322 13.7489 
31 1 17.5663 0.259692 17.5663 
33 1 13.7487 4.24043 9.9295 
36 1 9.92946 4.24036 13.7488 
37 1 12.8112 1.35788 14.5226 
38 1 13.2585 2.71368 14.3085 
64 1 14.5226 1.35783 12.8112 
65 1 14.3085 0.910614 11.4555 
73 1 10.8671 3.30291 14.5228 
74 1 10.4194 1.94714 14.3084 
91 1 10.8669 5.01418 12.8112 
92 1 12.2224 4.80027 13.2589 
143 1 9.76875 8.05731 17.5661 
167 1 12.8108 5.01446 10.8673 
168 1 11.4555 4.80012 10.419 
171 1 14.5232 3.30252 10.8675 
172 1 14.3085 3.75047 12.2227 
181 1 17.5688 8.05567 9.76952 
205 1 15.6216 0.259718 15.6216 
209 1 15.6233 6.10996 9.76953 
219 1 9.76875 6.11264 15.6217 
226 1 11.4555 0.91058 14.3084 
229 1 14.3085 2.71371 13.2585 
275 1 12.2227 3.75033 14.3086 
283 1 10.4192 4.80027 11.4556 
302 1 14.3083 1.9471 10.4193 
305 1 13.259 4.80013 12.2225 
3 1 9.92954 9.9297 0.420763 
6 1 13.7488 13.749 0.420487 
7 1 17.5663 17.5663 0.259695 
9 1 9.92936 13.7489 4.24026 
12 1 13.7462 9.93202 4.23788 
52 1 12.8112 14.5225 1.35802 
53 1 11.4557 14.3085 0.910658 
61 1 14.5225 12.8111 1.35819 
62 1 14.3083 13.2587 2.71381 
107 1 10.867 12.8111 5.01429 
108 1 10.419 11.4557 4.80022 
111 1 10.8671 14.5229 3.3029 
112 1 12.2226 14.3085 3.75064 
128 1 15.6216 15.6216 0.25972 
141 1 9.76875 15.6217 6.11265 
145 1 15.6261 9.7713 6.11438 
159 1 12.8129 10.8652 5.01315 
160 1 13.2585 12.2227 4.80081 
169 1 14.5216 10.8656 3.30453 
170 1 14.3089 10.4198 1.94683 
197 1 17.5566 9.77061 8.06684 
217 1 9.76875 17.5661 8.0573 
230 1 14.3083 11.4557 0.910547 
233 1 13.2588 14.3084 2.71382 
298 1 11.4554 10.4195 4.8008 
301 1 14.3091 12.223 3.75013 
309 1 10.4194 14.3085 1.9472 
316 1 12.2223 13.259 4.80022 
8 1 16.2106 18.0137 19.0635 
20 1 19.0635 16.2106 18.0137 
32 1 18.0137 19.0635 16.2106 
46 1 12.8114 12.8115 18.6645 
47 1 13.259 11.4558 18.8789 
58 1 12.8114 18.6644 12.8114 
59 1 11.4557 18.8787 13.2588 
70 1 18.6645 12.8114 12.8114 
71 1 18.8787 13.2588 11.4557 
75 1 14.684 14.684 18.5038 
78 1 18.5037 18.5037 18.5037 
81 1 18.5038 14.684 14.684 
82 1 10.8669 10.8669 18.6645 
83 1 10.4192 12.2224 18.8787 
84 1 14.684 18.5037 14.684 
115 1 10.867 18.6643 10.867 
116 1 12.2225 18.8787 10.4193 
129 1 16.9773 15.1742 19.0635 
137 1 13.9102 15.6217 17.5662 
138 1 14.1244 16.9773 18.0137 
151 1 15.6217 13.9102 17.5662 
152 1 15.1743 14.1244 16.2107 
175 1 18.6642 10.8673 10.8673 
176 1 18.8789 10.4191 12.2226 
177 1 17.5663 15.6217 13.9102 
178 1 16.2107 15.1743 14.1244 
192 1 19.0635 16.9773 15.1742 
195 1 17.5662 13.9102 15.6217 
196 1 18.0137 14.1244 16.9773 
206 1 15.1742 19.0635 16.9773 
213 1 15.6217 17.5662 13.9102 
214 1 16.9773 18.0137 14.1244 
221 1 13.9102 17.5662 15.6217 
222 1 14.1244 16.2107 15.1743 
228 1 11.4558 13.2588 18.8787 
232 1 18.8787 11.4557 13.2588 
236 1 13.2587 18.8787 11.4557 
239 1 18.0137 16.2106 19.0635 
243 1 16.2106 19.0635 18.0137 
247 1 19.0635 18.0137 16.2106 
251 1 15.1742 16.9773 19.0635 
255 1 16.9773 14.1244 18.0137 
259 1 14.1244 15.1743 16.2107 
263 1 15.1743 16.2107 14.1244 
267 1 16.9773 19.0635 15.1742 
271 1 14.1244 18.0137 16.9773 
273 1 12.2224 10.419 18.8789 
287 1 18.0137 16.9773 14.1244 
291 1 16.2107 14.1244 15.1743 
295 1 19.0635 15.1742 16.9773 
303 1 18.8789 12.2226 10.4191 
312 1 10.4193 18.8787 12.2225 
ITEM: TIMESTEP
20
ITEM: NUMBER OF ATOMS
321
ITEM: BOX BOUNDS pp pp pp
0.0000000000000000e+00 1.9018000000000001e+01
0.0000000000000000e+00 1.9018000000000001e+01
0.0000000000000000e+00 1.9018000000000001e+01
ITEM: ATOMS id type x y z 
10 1 6.11612 6.11612 0.25343 
22 1 0.25494 6.10374 6.12415 
34 1 6.11613 0.253438 6.11613 
89 1 3.29942 5.00811 1.36166 
90 1 1.94599 4.80191 0.906428 
97 1 5.00806 3.29909 1.3614 
98 1 4.80256 3.75325 2.71527 
105 1 3.29952 1.36144 5.00823 
106 1 3.75495 2.7148 4.80221 
121 1 5.00814 1.36116 3.29909 
122 1 4.80163 0.907834 1.94536 
125 1 8.05387 8.05387 0.253425 
127 1 0.442591 4.21829 4.21813 
130 1 4.23825 0.422489 4.23742 
133 1 0.423467 0.422567 0.422718 
136 1 4.23821 4.23747 0.422677 
157 1 1.37103 3.29013 5.01228 
158 1 0.906568 1.94158 4.80326 
165 1 1.37027 5.01364 3.29059 
166 1 2.71905 4.80378 3.75437 
189 1 0.256778 8.05819 8.05627 
207 1 8.05387 0.253428 8.05387 
277 1 4.80159 1.94537 0.907901 
284 1 3.75477 4.80211 2.71505 
297 1 2.71961 3.75449 4.80344 
306 1 0.906401 4.80361 1.94186 
315 1 1.94613 0.906155 4.80206 
319 1 4.80264 2.71503 3.75333 
11 1 7.46992 5.66258 19.065 
16 1 4.4075 6.11616 17.5628 
17 1 4.61395 7.46993 18.0164 
25 1 6.11617 4.40749 17.5628 
26 1 5.66254 4.61395 16.209 
39 1 8.99233 8.99233 18.5012 
42 1 5.17768 5.17767 18.5012 
43 1 1.36194 1.36111 18.6708 
44 1 0.907875 2.71504 18.8767 
45 1 5.17761 8.99238 14.6866 
48 1 8.99238 5.17761 14.6866 
79 1 3.29975 3.29911 18.6705 
80 1 3.75321 1.94539 18.8773 
85 1 3.29959 9.16157 12.8078 
86 1 1.94576 9.36807 13.2614 
95 1 9.1616 3.29954 12.8077 
96 1 9.3679 3.75304 11.454 
119 1 9.16169 1.36151 10.8704 
120 1 9.36805 0.907908 12.2241 
126 1 6.70008 8.50742 19.065 
144 1 9.55605 6.70007 18.0164 
148 1 8.50746 9.55605 16.209 
161 1 1.36196 9.16153 10.8707 
162 1 2.71558 9.36802 10.4166 
179 1 6.11612 8.05388 13.9165 
180 1 7.46991 8.50743 14.1229 
185 1 4.40751 8.05393 15.6251 
186 1 4.61394 6.70011 15.1715 
200 1 5.66254 9.55606 16.9789 
201 1 8.05393 4.40751 15.6251 
202 1 8.50747 4.61395 16.9789 
215 1 8.05388 6.11612 13.9165 
216 1 6.70009 5.66258 14.1229 
220 1 9.55606 7.46989 15.1715 
227 1 2.71577 0.907892 18.8774 
240 1 5.66258 7.46992 19.065 
242 1 7.46993 4.61395 18.0164 
245 1 4.61395 5.66254 16.209 
252 1 8.50742 6.70008 19.065 
254 1 6.70007 9.55605 18.0164 
257 1 9.55606 8.50746 16.209 
264 1 8.50743 7.46991 14.1229 
266 1 6.70012 4.61394 15.1715 
269 1 9.55606 5.66254 16.9789 
274 1 1.94587 3.75317 18.8765 
279 1 9.3681 1.94573 13.2614 
281 1 3.75325 9.36788 11.454 
288 1 5.66258 6.70009 14.1229 
290 1 7.46989 9.55606 15.1715 
293 1 4.61395 8.50747 16.9789 
307 1 0.907934 9.36803 12.2242 
317 1 9.36806 2.71528 10.4167 
4 1 6.11619 17.5627 4.40748 
5 1 7.46995 18.0164 4.61395 
13 1 4.40749 17.5627 6.11618 
14 1 4.61394 16.209 5.66253 
35 1 5.66258 19.065 7.46992 
51 1 8.9923 18.5012 8.9923 
54 1 5.17773 18.5011 5.17771 
55 1 1.36198 18.6707 1.36132 
56 1 2.71576 18.8773 0.907928 
57 1 8.99238 14.6866 5.17761 
60 1 5.17761 14.6866 8.99238 
93 1 9.16173 10.8704 1.36168 
94 1 9.36805 10.4166 2.71546 
103 1 3.29959 12.8078 9.16157 
104 1 3.75325 11.454 9.36788 
113 1 3.29978 18.6704 3.29908 
114 1 1.94593 18.8763 3.7533 
117 1 9.16157 12.8078 3.29954 
118 1 9.36809 13.2614 1.94575 
131 1 8.05393 15.6251 4.40751 
132 1 6.70012 15.1715 4.61394 
142 1 9.55606 16.9789 5.66253 
149 1 8.05388 13.9165 6.11612 
150 1 8.50743 14.1229 7.46991 
155 1 1.36195 10.8707 9.16156 
156 1 0.907935 12.2242 9.36803 
184 1 7.46988 15.1715 9.55606 
187 1 4.40751 15.6251 8.05393 
188 1 4.61394 16.9789 8.50748 
193 1 6.11612 13.9165 8.05388 
194 1 5.66258 14.1229 6.70009 
208 1 8.50742 19.065 6.70008 
212 1 6.70006 18.0164 9.55606 
218 1 9.55606 16.209 8.50746 
235 1 0.907829 18.8766 2.71522 
237 1 5.66253 16.209 4.61394 
244 1 7.46992 19.065 5.66258 
246 1 4.61395 18.0164 7.46994 
249 1 8.50748 16.9789 4.61394 
256 1 6.70009 14.1229 5.66258 
258 1 9.55606 15.1715 7.46988 
261 1 8.50746 16.209 9.55606 
268 1 6.70008 19.065 8.50742 
270 1 9.55606 18.0164 6.70006 
280 1 9.36807 12.2241 0.907968 
285 1 5.66253 16.9789 9.55606 
292 1 7.46991 14.1229 8.50743 
294 1 4.61394 15.1715 6.70012 
299 1 2.71557 10.4167 9.36803 
311 1 3.75324 18.8772 1.94539 
313 1 1.94576 13.2614 9.36807 
318 1 9.3679 11.454 3.75327 
15 1 0.423587 9.93251 9.93254 
18 1 0.422964 13.7464 13.7464 
19 1 0.253456 17.5627 17.5627 
21 1 4.2378 9.93188 13.7463 
24 1 4.2378 13.7463 9.93188 
40 1 1.36153 12.8078 14.5163 
41 1 0.907997 11.454 14.31 
49 1 1.36153 14.5163 12.8078 
50 1 2.71538 14.31 13.2614 
76 1 3.29944 10.8704 14.5165 
77 1 3.7532 12.2241 14.3101 
99 1 5.00798 10.8702 12.8078 
100 1 4.80185 10.4165 11.4541 
109 1 3.29944 14.5165 10.8704 
110 1 1.94569 14.31 10.4167 
123 1 5.00798 12.8078 10.8702 
124 1 4.80182 13.2616 12.224 
147 1 8.05385 9.76251 17.5628 
183 1 6.11606 15.6251 9.7625 
191 1 0.253423 15.625 15.625 
199 1 6.11606 9.7625 15.6251 
211 1 8.05383 17.5628 9.76252 
225 1 2.71538 13.2614 14.31 
234 1 0.907997 14.31 11.454 
276 1 1.94569 10.4167 14.31 
278 1 4.80182 12.224 13.2616 
310 1 3.7532 14.3101 12.2241 
320 1 4.80185 11.4541 10.4165 
1 1 17.5371 6.14167 4.31656 
2 1 16.1918 5.68819 4.66802 
23 1 19.046 7.47251 5.67856 
28 1 17.5751 4.406 6.12407 
29 1 18.0178 4.61003 7.48248 
63 1 18.4998 8.99369 8.9945 
66 1 18.5143 5.16457 5.16558 
67 1 18.6708 1.36143 1.36155 
68 1 18.877 0.90642 2.71504 
69 1 14.6852 5.17905 8.99456 
72 1 14.6884 8.99068 5.17326 
87 1 10.8705 9.16173 1.36174 
88 1 12.224 9.36809 0.90785 
101 1 10.8704 1.36148 9.16169 
102 1 10.4167 2.71527 9.36807 
134 1 15.6155 8.06306 4.40168 
135 1 16.97 8.50454 4.63265 
139 1 13.9148 8.05392 6.11477 
140 1 14.1125 6.70364 5.66523 
146 1 15.1712 9.55815 7.47167 
153 1 12.8075 3.29929 9.16142 
154 1 13.2614 1.94565 9.36808 
163 1 12.8084 9.16209 3.30029 
164 1 11.4535 9.36767 3.75323 
173 1 18.6649 3.29089 3.29059 
174 1 18.8752 3.75457 1.94183 
182 1 16.209 8.50909 9.55646 
190 1 19.0677 6.70303 8.51454 
198 1 18.0172 9.56099 6.7001 
203 1 15.6208 4.40415 8.05641 
204 1 15.1615 4.60816 6.70999 
210 1 16.9779 5.66445 9.5598 
223 1 13.9149 6.11865 8.05776 
224 1 14.1225 7.47013 8.50872 
231 1 18.877 2.71494 0.906507 
238 1 17.991 7.48725 4.66784 
241 1 16.2065 4.63308 5.67837 
248 1 19.0689 5.66123 7.48239 
250 1 15.1747 6.70887 4.63249 
253 1 16.9754 9.56665 5.66537 
260 1 14.1209 8.50785 7.47181 
262 1 15.1699 7.46996 9.55646 
265 1 16.9759 4.61125 8.51459 
272 1 14.1179 5.66181 6.70012 
282 1 10.4166 9.36807 2.71539 
286 1 18.0145 6.70108 9.55982 
289 1 16.2088 9.55648 8.50871 
296 1 19.0707 8.51748 6.71002 
300 1 11.4539 3.75311 9.3679 
304 1 18.8752 1.9421 3.75428 
308 1 13.2614 9.36782 1.94525 
314 1 12.2241 0.907867 9.36803 
321 2 17.6346 6.04434 3.19951 
27 1 9.93205 0.423103 9.93205 
30 1 13.7464 0.422813 13.7464 
31 1 17.5628 0.253448 17.5628 
33 1 13.7458 4.23746 9.93237 
36 1 9.93188 4.23779 13.7463 
37 1 12.8078 1.36134 14.5163 
38 1 13.2613 2.71518 14.31 
64 1 14.5163 1.36131 12.8078 
65 1 14.31 0.907874 11.454 
73 1 10.8704 3.29942 14.5165 
74 1 10.4167 1.94567 14.3099 
91 1 10.8702 5.00796 12.8078 
92 1 12.224 4.80176 13.2617 
143 1 9.76251 8.05385 17.5628 
167 1 12.8074 5.00816 10.8706 
168 1 11.4539 4.80176 10.4164 
171 1 14.5167 3.29916 10.8707 
172 1 14.3101 3.75309 12.2242 
181 1 17.563 8.0539 9.76373 
205 1 15.625 0.253425 15.625 
209 1 15.625 6.11586 9.76373 
219 1 9.7625 6.11606 15.6251 
226 1 11.454 0.907912 14.31 
229 1 14.31 2.71517 13.2614 
275 1 12.2241 3.75303 14.3101 
283 1 10.4164 4.80176 11.4541 
302 1 14.31 1.94558 10.4167 
305 1 13.2616 4.80175 12.2241 
3 1 9.93202 9.93205 0.42323 
6 1 13.7464 13.7465 0.42294 
7 1 17.5628 17.5628 0.253451 
9 1 9.93186 13.7463 4.23779 
12 1 13.7445 9.93373 4.23609 
52 1 12.8078 14.5163 1.36151 
53 1 11.454 14.31 0.907971 
61 1 14.5163 12.8078 1.36157 
62 1 14.31 13.2615 2.71528 
107 1 10.8703 12.8078 5.00798 
108 1 10.4164 11.4542 4.80179 
111 1 10.8704 14.5165 3.29942 
112 1 12.2241 14.3101 3.75325 
128 1 15.625 15.625 0.253423 
141 1 9.7625 15.6251 6.11606 
145 1 15.6251 9.76412 6.11476 
159 1 12.8086 10.8694 5.00774 
160 1 13.2615 12.2245 4.8021 
169 1 14.516 10.8697 3.30016 
170 1 14.3102 10.4167 1.94519 
197 1 17.5603 9.76412 8.05762 
217 1 9.76251 17.5628 8.05383 
230 1 14.3099 11.4541 0.907853 
233 1 13.2614 14.31 2.71536 
298 1 11.4536 10.4165 4.8021 
301 1 14.3104 12.2246 3.75321 
309 1 10.4167 14.3099 1.94569 
316 1 12.2239 13.2617 4.80179 
8 1 16.209 18.0164 19.065 
20 1 19.065 16.209 18.0164 
32 1 18.0164 19.065 16.209 
46 1 12.808 12.808 18.6708 
47 1 13.2616 11.4542 18.8772 
58 1 12.808 18.6707 12.808 
59 1 11.4542 18.8772 13.2615 
70 1 18.6708 12.808 12.808 
71 1 18.8772 13.2616 11.4542 
75 1 14.6865 14.6865 18.5014 
78 1 18.5012 18.5012 18.5012 
81 1 18.5014 14.6865 14.6865 
82 1 10.8703 10.8704 18.6707 
83 1 10.4165 12.224 18.8772 
84 1 14.6865 18.5013 14.6865 
115 1 10.8704 18.6706 10.8704 
116 1 12.2241 18.8771 10.4165 
129 1 16.9788 15.1715 19.065 
137 1 13.9165 15.6251 17.5629 
138 1 14.1229 16.9789 18.0164 
151 1 15.6251 13.9165 17.5629 
152 1 15.1715 14.1229 16.2091 
175 1 18.6705 10.8707 10.8707 
176 1 18.8772 10.4165 12.2242 
177 1 17.5629 15.6251 13.9165 
178 1 16.2091 15.1715 14.1229 
192 1 19.065 16.9788 15.1715 
195 1 17.5629 13.9165 15.6251 
196 1 18.0164 14.1229 16.9789 
206 1 15.1715 19.065 16.9788 
213 1 15.6251 17.5629 13.9165 
214 1 16.9789 18.0164 14.1229 
221 1 13.9165 17.5629 15.6251 
222 1 14.1229 16.2091 15.1715 
228 1 11.4542 13.2615 18.8772 
232 1 18.8772 11.4542 13.2616 
236 1 13.2615 18.8771 11.4542 
239 1 18.0164 16.209 19.065 
243 1 16.209 19.065 18.0164 
247 1 19.065 18.0164 16.209 
251 1 15.1715 16.9788 19.065 
255 1 16.9789 14.1229 18.0164 
259 1 14.1229 15.1715 16.2091 
263 1 15.1715 16.2091 14.1229 
267 1 16.9788 19.065 15.1715 
271 1 14.1229 18.0164 16.9789 
273 1 12.224 10.4165 18.8772 
287 1 18.0164 16.9789 14.1229 
291 1 16.2091 14.1229 15.1715 
295 1 19.065 15.1715 16.9788 
303 1 18.8772 12.2242 10.4165 
312 1 10.4165 18.8772 12.2241 
ITEM: TIMESTEP
30
ITEM: NUMBER OF ATOMS
321
ITEM: BOX BOUNDS pp pp pp
0.0000000000000000e+00 1.9018000000000001e+01
0.0000000000000000e+00 1.9018000000000001e+01
0.0000000000000000e+00 1.9018000000000001e+01
ITEM: ATOMS id type x y z 
10 1 6.12532 6.12532 0.234829 
22 1 0.217347 6.10324 6.13256 
34 1 6.12535 0.234821 6.12534 
89 1 3.29065 4.98867 1.37028 
90 1 1.93942 4.80944 0.897719 
97 1 4.98967 3.2898 1.3707 
98 1 4.81042 3.75926 2.72262 
105 1 3.29083 1.37015 4.9888 
106 1 3.76375 2.72135 4.80965 
121 1 4.9898 1.37053 3.28977 
122 1 4.80946 0.900857 1.93819 
125 1 8.04459 8.04459 0.234866 
127 1 0.447179 4.2138 4.21416 
130 1 4.23472 0.426154 4.23439 
133 1 0.426642 0.426214 0.426346 
136 1 4.23467 4.2344 0.42633 
157 1 1.38384 3.27725 4.99367 
158 1 0.899421 1.93161 4.81199 
165 1 1.38349 4.99431 3.27741 
166 1 2.72918 4.81273 3.76164 
189 1 0.242475 8.0493 8.05357 
207 1 8.04459 0.234852 8.04459 
277 1 4.80943 1.93824 0.900969 
284 1 3.76346 4.80952 2.72145 
297 1 2.72954 3.76162 4.81209 
306 1 0.898926 4.81289 1.93187 
315 1 1.93966 0.897251 4.80952 
319 1 4.8107 2.72247 3.75923 
11 1 7.47735 5.65551 19.0726 
16 1 4.42614 6.12532 17.5536 
17 1 4.60636 7.47735 18.0234 
25 1 6.12535 4.42614 17.5536 
26 1 5.65556 4.60639 16.2016 
39 1 8.98916 8.98917 18.4981 
42 1 5.18079 5.18076 18.4981 
43 1 1.37128 1.37058 18.6894 
44 1 0.901793 2.72242 18.8687 
45 1 5.18073 8.98926 14.6897 
48 1 8.98926 5.18072 14.6897 
79 1 3.29035 3.28975 18.6892 