ITEM: TIMESTEP
0
ITEM: NUMBER OF ATOMS
35
ITEM: BOX BOUNDS pp pp pp
0.0000000000000000e+00 7.0970000000000004e+00
0.0000000000000000e+00 7.0970000000000004e+00
0.0000000000000000e+00 2.4588000000000001e+01
ITEM: ATOMS id type x y z 
34 2 6.368 2.492 5.242 
35 3 0.15 2.084 5.292 
2 1 3.339 1.632 13.319 
5 1 4.651 1.581 18.133 
7 1 3.391 1.602 15.981 
8 1 2.166 1.581 18.134 
18 1 3.408 1.581 17.416 
21 1 3.338 2.875 12.602 
23 1 3.367 1.619 14.753 
24 1 3.338 0.39 12.601 
17 1 7.023 2.875 24.28 
19 1 6.997 1.619 22.129 
20 1 7.023 0.39 24.281 
22 1 6.957 1.581 19.466 
25 1 5.714 1.581 18.748 
27 1 6.974 1.602 20.9 
28 1 1.102 1.581 18.748 
30 1 7.024 1.631 23.563 
10 1 6.954 5.232 5.122 
13 1 7.023 3.938 0.307 
15 1 6.994 5.194 2.459 
16 1 7.023 6.423 0.307 
26 1 7.022 5.181 1.025 
29 1 5.711 5.232 5.839 
31 1 6.97 5.211 3.688 
32 1 1.098 5.232 5.84 
33 2 6.954 3.882 5.122 
1 1 4.647 5.232 6.454 
3 1 3.388 5.211 8.606 
4 1 2.163 5.232 6.454 
6 1 3.338 5.182 11.269 
9 1 3.338 3.939 11.986 
11 1 3.365 5.194 9.834 
12 1 3.338 6.423 11.987 
14 1 3.404 5.232 7.171 
ITEM: TIMESTEP
10
ITEM: NUMBER OF ATOMS
35
ITEM: BOX BOUNDS pp pp pp
0.0000000000000000e+00 7.0970000000000004e+00
0.0000000000000000e+00 7.0970000000000004e+00
0.0000000000000000e+00 2.4588000000000001e+01
ITEM: ATOMS id type x y z 
34 2 6.35738 2.46871 5.2434 
35 3 0.148283 2.1107 5.28969 
2 1 3.33911 1.63318 13.3204 
5 1 4.65043 1.58011 18.1311 
7 1 3.39106 1.60192 15.9818 
8 1 2.16699 1.58051 18.1343 
18 1 3.40727 1.58199 17.4159 
21 1 3.3392 2.87678 12.6022 
23 1 3.36713 1.61904 14.7533 
24 1 3.33857 0.39435 12.6033 
17 1 7.02451 2.86664 24.2764 
19 1 6.99638 1.61873 22.1238 
20 1 7.02271 0.398107 24.2795 
22 1 6.9578 1.58082 19.4644 
25 1 5.71459 1.58212 18.75 
27 1 6.97379 1.60198 20.9001 
28 1 1.10115 1.5823 18.7473 
30 1 7.02255 1.63196 23.5627 
10 1 6.95468 5.0614 5.12427 
13 1 7.02227 3.93258 0.296415 
15 1 6.99389 5.20473 2.42081 
16 1 7.02347 6.4276 0.295229 
26 1 7.02298 5.18016 0.964861 
29 1 5.66212 5.25443 5.86468 
31 1 6.97028 5.2318 3.63341 
32 1 1.13834 5.25321 5.86117 
33 2 6.96486 3.95098 5.12376 
1 1 4.63295 5.24577 6.47061 
3 1 3.38728 5.20936 8.63059 
4 1 2.18028 5.24572 6.47122 
6 1 3.3386 5.18075 11.2729 
9 1 3.33779 3.93211 11.9882 
11 1 3.36476 5.19411 9.85544 
12 1 3.33793 6.42381 11.9867 
14 1 3.40861 5.22853 7.21835 
ITEM: TIMESTEP
20
ITEM: NUMBER OF ATOMS
35
ITEM: BOX BOUNDS pp pp pp
0.0000000000000000e+00 7.0970000000000004e+00
0.0000000000000000e+00 7.0970000000000004e+00
0.0000000000000000e+00 2.4588000000000001e+01
ITEM: ATOMS id type x y z 
34 2 6.35247 2.46016 5.24375 
35 3 0.150218 2.11199 5.28967 
2 1 3.33941 1.63242 13.3247 
5 1 4.65096 1.58088 18.1308 
7 1 3.39108 1.60195 15.9842 
8 1 2.16815 1.5808 18.1353 
18 1 3.40748 1.58206 17.4167 
21 1 3.33886 2.87069 12.6047 
23 1 3.36718 1.61917 14.7559 
24 1 3.33876 0.396333 12.6043 
17 1 7.02313 2.85987 24.273 
19 1 6.99621 1.6188 22.1187 
20 1 7.02342 0.405303 24.2747 
22 1 6.95757 1.58139 19.4594 
25 1 5.71294 1.58159 18.749 
27 1 6.97348 1.60193 20.892 
28 1 1.10117 1.58181 18.7446 
30 1 7.02267 1.63154 23.5558 
10 1 6.94582 5.05274 5.14059 
13 1 7.02317 3.9333 0.286613 
15 1 6.99413 5.21937 2.41002 
16 1 7.02329 6.42646 0.284513 
26 1 7.02369 5.18148 0.947195 
29 1 5.66123 5.25647 5.86471 
31 1 6.96943 5.22914 3.62504 
32 1 1.13501 5.25533 5.85982 
33 2 6.96637 3.92611 5.12406 
1 1 4.63185 5.255 6.47938 
3 1 3.38927 5.21074 8.63277 
4 1 2.18658 5.25549 6.48078 
6 1 3.3376 5.18129 11.2811 
9 1 3.33816 3.93225 11.9912 
11 1 3.3647 5.19271 9.86623 
12 1 3.33841 6.4277 11.9915 
14 1 3.41612 5.23274 7.2354 
ITEM: TIMESTEP
30
ITEM: NUMBER OF ATOMS
35
ITEM: BOX BOUNDS pp pp pp
0.0000000000000000e+00 7.0970000000000004e+00
0.0000000000000000e+00 7.0970000000000004e+00
0.0000000000000000e+00 2.4588000000000001e+01
ITEM: ATOMS id type x y z 
34 2 6.34546 2.44083 5.24467 
35 3 0.151869 2.11049 5.28995 
2 1 3.34093 1.63204 13.3319 
5 1 4.6476 1.58234 18.1328 
7 1 3.3911 1.60226 15.9888 
8 1 2.16941 1.58244 18.1334 
18 1 3.40819 1.58114 17.4183 
21 1 3.33814 2.86545 12.6108 
23 1 3.36784 1.61932 14.7607 
24 1 3.33861 0.39914 12.6089 
17 1 7.02335 2.85911 24.2646 
19 1 6.99542 1.61907 22.1074 
20 1 7.02361 0.408911 24.2631 
22 1 6.95679 1.58201 19.4487 
25 1 5.71368 1.58075 18.7434 
27 1 6.97314 1.60154 20.8802 
28 1 1.10243 1.58095 18.7429 
30 1 7.0221 1.63243 23.5436 
10 1 6.91657 5.02243 5.12606 
13 1 7.02402 3.93531 0.271098 
15 1 6.99434 5.24082 2.39494 
16 1 7.02417 6.42556 0.263517 
26 1 7.02502 5.18533 0.933713 
29 1 5.66275 5.26237 5.86352 
31 1 6.96388 5.22376 3.60994 
32 1 1.14358 5.25488 5.87354 
33 2 6.96674 3.89428 5.12461 
1 1 4.63348 5.26958 6.49706 
3 1 3.39513 5.21548 8.65258 
4 1 2.19177 5.2764 6.49195 
6 1 3.33638 5.18089 11.3002 
9 1 3.33795 3.93032 11.9992 
11 1 3.36648 5.18929 9.88664 
12 1 3.33714 6.43146 12.0005 
14 1 3.43095 5.24861 7.25449 
ITEM: TIMESTEP
40
ITEM: NUMBER OF ATOMS
35
ITEM: BOX BOUNDS pp pp pp
0.0000000000000000e+00 7.0970000000000004e+00
0.0000000000000000e+00 7.0970000000000004e+00
0.0000000000000000e+00 2.4588000000000001e+01
ITEM: ATOMS id type x y z 
34 2 6.34203 2.41867 5.24589 
35 3 0.152094 2.09538 5.29157 
2 1 3.34238 1.6324 13.3389 
5 1 4.64693 1.57048 18.1335 
7 1 3.39171 1.60248 15.9929 
8 1 2.17003 1.58275 18.133 
18 1 3.40807 1.58549 17.4201 
21 1 3.3345 2.86221 12.6193 
23 1 3.36878 1.61951 14.7646 
24 1 3.33967 0.401925 12.6174 
17 1 7.02334 2.86331 24.2527 
19 1 6.99422 1.62074 22.1004 
20 1 7.0238 0.409527 24.2448 
22 1 6.9578 1.57959 19.4436 
25 1 5.71383 1.59186 18.7421 
27 1 6.97287 1.60177 20.8736 
28 1 1.10102 1.5795 18.7388 
30 1 7.02157 1.6362 23.5353 
10 1 6.96288 4.98924 5.09727 
13 1 7.02553 3.93918 0.261176 
15 1 6.98972 5.25267 2.37902 
16 1 7.02589 6.42635 0.246796 
26 1 7.02793 5.19002 0.920734 
29 1 5.66201 5.26007 5.86628 
31 1 6.96211 5.22295 3.59387 
32 1 1.14246 5.25106 5.87243 
33 2 6.96406 3.8689 5.12234 
1 1 4.62919 5.29421 6.51397 
3 1 3.39857 5.22578 8.67263 
4 1 2.18626 5.29437 6.50795 
6 1 3.33488 5.17929 11.3136 
9 1 3.34041 3.92863 12.0101 
11 1 3.36775 5.18559 9.90503 
12 1 3.33447 6.43054 12.0096 
14 1 3.40123 5.27437 7.27671 
ITEM: TIMESTEP
50
ITEM: NUMBER OF ATOMS
35
ITEM: BOX BOUNDS pp pp pp
0.0000000000000000e+00 7.0970000000000004e+00
0.0000000000000000e+00 7.0970000000000004e+00
0.0000000000000000e+00 2.4588000000000001e+01
ITEM: ATOMS id type x y z 
34 2 6.34102 2.40529 5.2467 
35 3 0.151974 2.0819 5.29306 
2 1 3.341 1.63097 13.3436 
5 1 4.64642 1.58262 18.133 
7 1 3.39297 1.6027 15.9973 
8 1 2.1706 1.58214 18.132 
18 1 3.40765 1.58143 17.4228 
21 1 3.34154 2.86159 12.6233 
23 1 3.36812 1.61997 14.7688 
24 1 3.33743 0.400516 12.6209 
17 1 7.02386 2.86661 24.2475 
19 1 6.99406 1.62148 22.0966 
20 1 7.0222 0.410496 24.2365 
22 1 6.95808 1.58192 19.441 
25 1 5.71415 1.5791 18.7415 
27 1 6.97272 1.60334 20.8688 
28 1 1.10013 1.5813 18.7363 
30 1 7.02107 1.63879 23.5277 
10 1 6.95884 4.98309 5.09683 
13 1 7.02612 3.94331 0.255505 
15 1 6.9876 5.25911 2.37522 
16 1 7.02966 6.42413 0.235654 
26 1 7.0272 5.19343 0.918941 
29 1 5.67003 5.25139 5.86549 
31 1 6.96566 5.21947 3.59077 
32 1 1.14135 5.24639 5.86572 
33 2 6.96322 3.85415 5.11884 
1 1 4.63969 5.30803 6.51364 
3 1 3.39527 5.23035 8.67975 
4 1 2.17178 5.30399 6.51401 
6 1 3.33465 5.17801 11.3222 
9 1 3.33336 3.92887 12.0167 
11 1 3.37001 5.18598 9.91272 
12 1 3.3368 6.4307 12.0164 
14 1 3.40379 5.29444 7.28227 
ITEM: TIMESTEP
53
ITEM: NUMBER OF ATOMS
35
ITEM: BOX BOUNDS pp pp pp
0.0000000000000000e+00 7.0970000000000004e+00
0.0000000000000000e+00 7.0970000000000004e+00
0.0000000000000000e+00 2.4588000000000001e+01
ITEM: ATOMS id type x y z 
34 2 6.34102 2.40529 5.2467 
35 3 0.151974 2.08189 5.29306 
2 1 3.341 1.63097 13.3436 
5 1 4.64642 1.58262 18.133 
7 1 3.39297 1.6027 15.9973 
8 1 2.1706 1.58214 18.132 
18 1 3.40765 1.58143 17.4228 
21 1 3.34154 2.86159 12.6233 
23 1 3.36812 1.61997 14.7688 
24 1 3.33743 0.400519 12.6209 
17 1 7.02386 2.86661 24.2475 
19 1 6.99406 1.62148 22.0966 
20 1 7.0222 0.410495 24.2365 
22 1 6.95808 1.58192 19.441 
25 1 5.71415 1.5791 18.7415 
27 1 6.97272 1.60334 20.8688 
28 1 1.10013 1.5813 18.7363 
30 1 7.02107 1.63879 23.5277 
10 1 6.95884 4.98309 5.09683 
13 1 7.02612 3.9433 0.255504 
15 1 6.9876 5.25911 2.37522 
16 1 7.02966 6.42413 0.235652 
26 1 7.0272 5.19343 0.91894 
29 1 5.67002 5.25139 5.86549 
31 1 6.96566 5.21947 3.59077 
32 1 1.14135 5.24639 5.86572 
33 2 6.96322 3.85415 5.11884 
1 1 4.63968 5.30803 6.51364 
3 1 3.39527 5.23035 8.67975 
4 1 2.17178 5.30399 6.51401 
6 1 3.33465 5.17801 11.3222 
9 1 3.33336 3.92888 12.0167 
11 1 3.37001 5.18598 9.91272 
12 1 3.3368 6.43069 12.0164 
14 1 3.40379 5.29444 7.28227 
ITEM: TIMESTEP
54
ITEM: NUMBER OF ATOMS
35
ITEM: BOX BOUNDS pp pp pp
0.0000000000000000e+00 7.0970000000000004e+00
0.0000000000000000e+00 7.0970000000000004e+00
0.0000000000000000e+00 2.4588000000000001e+01
ITEM: ATOMS id type x y z 
34 2 6.34102 2.40529 5.2467 
35 3 0.151974 2.08189 5.29306 
2 1 3.341 1.63097 13.3436 
5 1 4.64642 1.58262 18.133 
7 1 3.39297 1.6027 15.9973 
8 1 2.1706 1.58214 18.132 
18 1 3.40765 1.58143 17.4228 
21 1 3.34154 2.86159 12.6233 
23 1 3.36812 1.61997 14.7688 
24 1 3.33743 0.400519 12.6209 
17 1 7.02386 2.86661 24.2475 
19 1 6.99406 1.62148 22.0966 
20 1 7.0222 0.410495 24.2365 
22 1 6.95808 1.58192 19.441 
25 1 5.71415 1.5791 18.7415 
27 1 6.97272 1.60334 20.8688 
28 1 1.10013 1.5813 18.7363 
30 1 7.02107 1.63879 23.5277 
10 1 6.95884 4.98309 5.09683 
13 1 7.02612 3.9433 0.255504 
15 1 6.9876 5.25911 2.37522 
16 1 7.02966 6.42413 0.235652 
26 1 7.0272 5.19343 0.91894 
29 1 5.67002 5.25139 5.86549 
31 1 6.96566 5.21947 3.59077 
32 1 1.14135 5.24639 5.86572 
33 2 6.96322 3.85415 5.11884 
1 1 4.63968 5.30803 6.51364 
3 1 3.39527 5.23035 8.67975 
4 1 2.17178 5.30399 6.51401 
6 1 3.33465 5.17801 11.3222 
9 1 3.33336 3.92888 12.0167 
11 1 3.37001 5.18598 9.91272 
12 1 3.3368 6.43069 12.0164 
14 1 3.40379 5.29444 7.28227 
ITEM: TIMESTEP
60
ITEM: NUMBER OF ATOMS
35
ITEM: BOX BOUNDS pp pp pp
-1.0029143262749850e-03 7.0980029143262753e+00
-1.2668043484855055e-03 7.0982668043484871e+00
-7.3764000000000008e-03 2.4595376399999999e+01
ITEM: ATOMS id type x y z 
34 2 6.34181 2.40488 5.24247 
35 3 0.151014 2.08137 5.28886 
2 1 3.34094 1.63029 13.3442 
5 1 4.64673 1.58191 18.1366 
7 1 3.39293 1.60201 15.9995 
8 1 2.1702 1.58143 18.1355 
18 1 3.40761 1.58073 17.4258 
21 1 3.34147 2.86134 12.6235 
23 1 3.36808 1.61928 14.7703 
24 1 3.33738 0.399408 12.6211 
17 1 7.02484 2.86637 24.2547 
19 1 6.99503 1.6208 22.1024 
20 1 7.02319 0.409365 24.2437 
22 1 6.95905 1.58121 19.4453 
25 1 5.71476 1.57841 18.7454 
27 1 6.97369 1.60265 20.8739 
28 1 1.09944 1.5806 18.7402 
30 1 7.02204 1.63811 23.5344 
10 1 6.9598 4.9836 5.09251 
13 1 7.0271 3.94344 0.248277 
15 1 6.98857 5.25972 2.36928 
16 1 7.03064 6.42517 0.228408 
26 1 7.02819 5.19402 0.912115 
29 1 5.67061 5.252 5.86164 
31 1 6.96662 5.22006 3.58555 
32 1 1.14067 5.247 5.86186 
33 2 6.96418 3.85425 5.11453 
1 1 4.63999 5.30866 6.51017 
3 1 3.39523 5.23095 8.67758 
4 1 2.1714 5.30462 6.51055 
6 1 3.33458 5.17859 11.3216 
9 1 3.33331 3.92901 12.0166 
11 1 3.36995 5.18656 9.91128 
12 1 3.33674 6.43171 12.0162 
14 1 3.40376 5.29507 7.27926 
ITEM: TIMESTEP
70
ITEM: NUMBER OF ATOMS
35
ITEM: BOX BOUNDS pp pp pp
-2.8458147549672748e-03 7.0998458147549677e+00
-3.6242412212446700e-03 7.1006242412212464e+00
-1.9670400000000011e-02 2.4607670399999996e+01
ITEM: ATOMS id type x y z 
34 2 6.34326 2.40411 5.23542 
35 3 0.149248 2.08038 5.28186 
2 1 3.34084 1.62902 13.3453 
5 1 4.64733 1.58058 18.1424 
7 1 3.39284 1.60071 16.0032 
8 1 2.16946 1.58012 18.1414 
18 1 3.40754 1.57943 17.431 
21 1 3.34135 2.86089 12.6238 
23 1 3.36799 1.618 14.7728 
24 1 3.33727 0.39733 12.6214 
17 1 7.02665 2.86595 24.2666 
19 1 6.99683 1.61952 22.1122 
20 1 7.02501 0.407236 24.2557 
22 1 6.96082 1.5799 19.4524 
25 1 5.71586 1.57712 18.7518 
27 1 6.97546 1.60135 20.8826 
28 1 1.09819 1.5793 18.7466 
30 1 7.02384 1.63684 23.5457 
10 1 6.96156 4.98454 5.08531 
13 1 7.0289 3.94367 0.236216 
15 1 6.99036 5.26086 2.3594 
16 1 7.03242 6.42713 0.216316 
26 1 7.03 5.19512 0.900748 
29 1 5.67167 5.25312 5.85525 
31 1 6.9684 5.22117 3.57679 
32 1 1.13944 5.24812 5.85545 
33 2 6.96595 3.85445 5.10736 
1 1 4.64057 5.30984 6.50439 
3 1 3.39515 5.23208 8.67401 
4 1 2.17069 5.30579 6.50478 
6 1 3.33447 5.17967 11.3206 
9 1 3.33322 3.92926 12.0163 
11 1 3.36986 5.18765 9.90884 
12 1 3.33662 6.4336 12.0159 
14 1 3.40369 5.29624 7.27423 
ITEM: TIMESTEP
80
ITEM: NUMBER OF ATOMS
35
ITEM: BOX BOUNDS pp pp pp
-5.2093178406731177e-03 7.1022093178406740e+00
-6.7385578180276344e-03 7.1037385578180299e+00
-3.1709591966844336e-02 2.4619709591966839e+01
ITEM: ATOMS id type x y z 
34 2 6.34512 2.40308 5.22852 
35 3 0.14698 2.07907 5.27501 
2 1 3.34071 1.62735 13.3463 
5 1 4.64817 1.57881 18.1482 
7 1 3.39273 1.599 16.0066 
8 1 2.16843 1.57837 18.1471 
18 1 3.40745 1.57773 17.436 
21 1 3.34116 2.86037 12.6241 
23 1 3.36789 1.6163 14.7754 
24 1 3.33714 0.394535 12.6217 
17 1 7.02897 2.8655 24.2784 
19 1 6.99914 1.61784 22.1216 
20 1 7.02736 0.404317 24.2674 
22 1 6.96309 1.57815 19.4595 
25 1 5.71719 1.57544 18.7581 
27 1 6.97774 1.59965 20.8911 
28 1 1.09667 1.5776 18.7528 
30 1 7.02613 1.63517 23.5567 
10 1 6.96382 4.98579 5.07825 
13 1 7.03121 3.94388 0.224341 
15 1 6.99265 5.26235 2.34983 
16 1 7.0347 6.42982 0.204395 
26 1 7.03233 5.19657 0.889652 
29 1 5.67293 5.25461 5.84905 
31 1 6.97068 5.22263 3.56807 
32 1 1.13795 5.24961 5.84923 
33 2 6.96823 3.85472 5.10032 
1 1 4.64136 5.31138 6.4987 
3 1 3.39506 5.23358 8.67066 
4 1 2.16975 5.30734 6.49911 
6 1 3.33432 5.1811 11.3196 
9 1 3.33312 3.92951 12.0161 
11 1 3.36973 5.18909 9.90627 
12 1 3.33647 6.43615 12.0157 
14 1 3.40361 5.2978 7.26927 
ITEM: TIMESTEP
90
ITEM: NUMBER OF ATOMS
35
ITEM: BOX BOUNDS pp pp pp
-7.9422240472167890e-03 7.1049422240472175e+00
-1.0287057818027637e-02 7.1072870578180289e+00
-3.8574632060781919e-02 2.4626574632060770e+01
ITEM: ATOMS id type x y z 
34 2 6.34729 2.40185 5.2246 
35 3 0.144342 2.07754 5.2711 
2 1 3.34057 1.62545 13.3469 
5 1 4.64941 1.57669 18.1517 
7 1 3.39257 1.59706 16.0081 
8 1 2.16695 1.57635 18.1506 
18 1 3.40736 1.57583 17.4388 
21 1 3.34086 2.86006 12.6241 
23 1 3.3678 1.61437 14.7774 
24 1 3.33701 0.391129 12.6218 
17 1 7.03166 2.86537 24.2853 
19 1 7.00184 1.61593 22.1265 
20 1 7.03014 0.40059 24.2744 
22 1 6.96571 1.57613 19.4635 
25 1 5.71846 1.57361 18.7614 
27 1 6.98036 1.5977 20.8965 
28 1 1.09519 1.57569 18.7562 
30 1 7.02876 1.63325 23.5629 
10 1 6.96639 4.98719 5.07422 
13 1 7.03388 3.94378 0.217303 
15 1 6.99531 5.26403 2.34478 
16 1 7.03725 6.43329 0.197279 
26 1 7.03505 5.19826 0.883444 
29 1 5.67401 5.2563 5.84584 
31 1 6.97332 5.22428 3.56252 
32 1 1.13655 5.25129 5.84595 
33 2 6.97086 3.85502 5.09629 
1 1 4.64247 5.31315 6.49534 
3 1 3.39495 5.23532 8.66926 
4 1 2.16852 5.3091 6.49582 
6 1 3.33414 5.18273 11.3191 
9 1 3.33309 3.92952 12.0162 
11 1 3.36958 5.19074 9.90419 
12 1 3.33628 6.43925 12.0157 
14 1 3.40355 5.29964 7.26627 
ITEM: TIMESTEP
100
ITEM: NUMBER OF ATOMS
35
ITEM: BOX BOUNDS pp pp pp
-1.1013876767164485e-02 7.1080138767671652e+00
-1.3835557818027640e-02 7.1108355578180280e+00
-4.8293697095425435e-02 2.4636293697095415e+01
ITEM: ATOMS id type x y z 
34 2 6.34976 2.40048 5.21904 
35 3 0.141326 2.0759 5.26559 
2 1 3.34044 1.62355 13.3478 
5 1 4.6512 1.57436 18.1568 
7 1 3.39235 1.59511 16.01 
8 1 2.16489 1.57428 18.1557 
18 1 3.40728 1.57403 17.4429 
21 1 3.34033 2.86025 12.624 
23 1 3.36777 1.61243 14.7803 
24 1 3.33689 0.387257 12.6217 
17 1 7.03469 2.86581 24.2953 
19 1 7.00492 1.61405 22.1331 
20 1 7.03341 0.396321 24.2843 
22 1 6.96864 1.57404 19.4692 
25 1 5.71951 1.572 18.766 
27 1 6.98328 1.59575 20.9044 
28 1 1.0939 1.57383 18.7608 
30 1 7.03164 1.63135 23.5718 
10 1 6.96922 4.98859 5.06849 
13 1 7.03686 3.94317 0.207128 
15 1 6.99832 5.26565 2.33781 
16 1 7.03993 6.4373 0.186971 
26 1 7.03815 5.20001 0.874773 
29 1 5.67456 5.25792 5.84163 
31 1 6.97631 5.22588 3.55421 
32 1 1.13563 5.25292 5.84164 
33 2 6.97381 3.85536 5.09055 
1 1 4.6439 5.31492 6.49056 
3 1 3.39484 5.23718 8.6674 
4 1 2.16699 5.31088 6.49112 
6 1 3.33392 5.18437 11.3184 
9 1 3.33326 3.92905 12.0165 
11 1 3.36937 5.19241 9.90101 
12 1 3.33602 6.44273 12.016 
14 1 3.40351 5.30163 7.26174 
ITEM: TIMESTEP
110
ITEM: NUMBER OF ATOMS
35
ITEM: BOX BOUNDS pp pp pp
-1.4501628750668141e-02 7.1115016287506680e+00
-1.7084930533792873e-02 7.1140849305337914e+00
-5.9008268356005748e-02 2.4647008268355997e+01
ITEM: ATOMS id type x y z 
34 2 6.35268 2.39883 5.21294 
35 3 0.137754 2.07417 5.25953 
2 1 3.34037 1.62178 13.3486 
5 1 4.6532 1.5719 18.1625 
7 1 3.39205 1.59333 16.0121 
8 1 2.16256 1.57236 18.1613 
18 1 3.4072 1.57252 17.4473 
21 1 3.33936 2.86065 12.624 
23 1 3.36782 1.61064 14.7836 
24 1 3.33683 0.383378 12.6217 
17 1 7.03815 2.8664 24.3059 
19 1 7.00846 1.6124 22.1405 
20 1 7.03737 0.392423 24.2948 
22 1 6.97194 1.57205 19.4756 
25 1 5.72078 1.57084 18.771 
27 1 6.98659 1.59397 20.913 
28 1 1.09238 1.57213 18.7659 
30 1 7.03482 1.62962 23.5816 
10 1 6.97229 4.98996 5.06218 
13 1 7.04023 3.94268 0.195878 
15 1 7.00183 5.26699 2.32982 
16 1 7.04267 6.44097 0.175556 
26 1 7.04172 5.20179 0.865455 
29 1 5.67478 5.25914 5.8374 
31 1 6.97971 5.22709 3.54474 
32 1 1.13512 5.25417 5.83736 
33 2 6.97716 3.8558 5.08412 
1 1 4.64512 5.31661 6.48568 
3 1 3.39477 5.23922 8.66495 
4 1 2.16562 5.31258 6.48628 
6 1 3.33365 5.1859 11.3177 
9 1 3.33381 3.92849 12.017 
11 1 3.36903 5.19394 9.8975 
12 1 3.33565 6.44604 12.0165 
14 1 3.4035 5.30385 7.25615 
ITEM: TIMESTEP
120
ITEM: NUMBER OF ATOMS
35
ITEM: BOX BOUNDS pp pp pp
-1.6642700061075689e-02 7.1136427000610754e+00
-1.7971680659002676e-02 7.1149716806590009e+00
-6.1827010488897299e-02 2.4649827010488888e+01
ITEM: ATOMS id type x y z 
34 2 6.35474 2.39727 5.21143 
35 3 0.135199 2.07304 5.25801 
2 1 3.34045 1.62123 13.3487 
5 1 4.65432 1.57115 18.164 
7 1 3.39178 1.59285 16.0127 
8 1 2.16122 1.57182 18.1628 
18 1 3.40717 1.57215 17.4487 
21 1 3.3382 2.86092 12.6244 
23 1 3.36801 1.6101 14.7844 
24 1 3.3369 0.382048 12.622 
17 1 7.04028 2.86698 24.3082 
19 1 7.01061 1.61213 22.1425 
20 1 7.04019 0.391299 24.2967 
22 1 6.97388 1.57145 19.4775 
25 1 5.72184 1.57081 18.772 
27 1 6.98867 1.59348 20.9151 
28 1 1.09123 1.57163 18.7671 
30 1 7.03666 1.62921 23.5841 
10 1 6.97386 4.99079 5.0606 
13 1 7.04229 3.94286 0.192557 
15 1 7.0042 5.26701 2.32691 
16 1 7.04382 6.44201 0.172068 
26 1 7.04394 5.2027 0.863422 
29 1 5.67459 5.25861 5.83731 
31 1 6.98181 5.22665 3.54172 
32 1 1.13529 5.25371 5.8373 
33 2 6.97922 3.85636 5.0821 
1 1 4.6448 5.31727 6.48543 
3 1 3.3948 5.24065 8.66384 
4 1 2.16586 5.31325 6.48602 
6 1 3.33351 5.18632 11.3177 
9 1 3.33473 3.92856 12.0176 
11 1 3.36862 5.19445 9.89593 
12 1 3.33531 6.44656 12.0171 
14 1 3.40364 5.30559 7.25337 
ITEM: TIMESTEP
130
ITEM: NUMBER OF ATOMS
35
ITEM: BOX BOUNDS pp pp pp
-1.8048382525544762e-02 7.1150483825255435e+00
-1.8160048378371579e-02 7.1151600483783684e+00
-6.0742048702958691e-02 2.4648742048702950e+01
ITEM: ATOMS id type x y z 
34 2 6.35636 2.39487 5.21222 
35 3 0.133058 2.07156 5.25879 
2 1 3.34055 1.62096 13.3483 
5 1 4.655 1.57121 18.1635 
7 1 3.39158 1.59274 16.0125 
8 1 2.16031 1.57167 18.1623 
18 1 3.40716 1.57208 17.4486 
21 1 3.33747 2.8613 12.6252 
23 1 3.3682 1.6099 14.7842 
24 1 3.33696 0.381289 12.6226 
17 1 7.04165 2.86789 24.3062 
19 1 7.01194 1.61236 22.1416 
20 1 7.0421 0.390872 24.2939 
22 1 6.97507 1.5713 19.477 
25 1 5.72281 1.57096 18.7709 
27 1 6.99011 1.59345 20.9141 
28 1 1.09029 1.57146 18.7663 
30 1 7.03786 1.62935 23.5828 
10 1 6.97448 4.99204 5.06165 
13 1 7.04365 3.94352 0.192854 
15 1 7.00608 5.26635 2.32676 
16 1 7.04442 6.4424 0.17222 
26 1 7.04521 5.20354 0.864708 
29 1 5.67446 5.25681 5.8394 
31 1 6.98325 5.22504 3.54202 
32 1 1.13555 5.25204 5.83945 
33 2 6.98058 3.85733 5.08206 
1 1 4.64405 5.31773 6.48743 
3 1 3.39481 5.24245 8.66345 
4 1 2.16662 5.31372 6.48792 
6 1 3.33362 5.18632 11.318 
9 1 3.33534 3.92909 12.0185 
11 1 3.36817 5.19483 9.89519 
12 1 3.33512 6.4459 12.0181 
14 1 3.40395 5.3082 7.25232 
ITEM: TIMESTEP
140
ITEM: NUMBER OF ATOMS
35
ITEM: BOX BOUNDS pp pp pp
-1.9252261426948952e-02 7.1162522614269479e+00
-1.8140174283806234e-02 7.1151401742838036e+00
-5.9691600644365288e-02 2.4647691600644357e+01
ITEM: ATOMS id type x y z 
34 2 6.35767 2.39209 5.21303 
35 3 0.131177 2.06991 5.25958 
2 1 3.34058 1.62078 13.3481 
5 1 4.65555 1.57142 18.1629 
7 1 3.39149 1.59272 16.0125 
8 1 2.15954 1.57165 18.1618 
18 1 3.40711 1.57216 17.4486 
21 1 3.33732 2.86178 12.6261 
23 1 3.36824 1.6098 14.7841 
24 1 3.33694 0.380595 12.6233 
17 1 7.04281 2.86897 24.304 
19 1 7.01309 1.61275 22.1406 
20 1 7.04336 0.390619 24.291 
22 1 6.97611 1.57128 19.4762 
25 1 5.72372 1.57118 18.7698 
27 1 6.99133 1.59361 20.913 
28 1 1.08941 1.57141 18.7656 
30 1 7.03896 1.62975 23.5813 
10 1 6.97498 4.99341 5.06296 
13 1 7.04478 3.94436 0.192975 
15 1 7.00778 5.2654 2.32711 
16 1 7.0453 6.44265 0.172216 
26 1 7.04609 5.2043 0.865559 
29 1 5.67489 5.25461 5.84126 
31 1 6.98454 5.22303 3.54252 
32 1 1.13523 5.24996 5.84138 
33 2 6.98177 3.8585 5.08188 
1 1 4.64403 5.31803 6.48899 
3 1 3.39471 5.24439 8.66327 
4 1 2.1667 5.31403 6.48932 
6 1 3.33381 5.18616 11.3182 
9 1 3.33542 3.92968 12.0197 
11 1 3.36784 5.19528 9.8948 
12 1 3.33515 6.44496 12.0192 
14 1 3.40426 5.31137 7.25206 
ITEM: TIMESTEP
150
ITEM: NUMBER OF ATOMS
35
ITEM: BOX BOUNDS pp pp pp
-2.0173568540405525e-02 7.1171735685404034e+00
-1.8299279994946013e-02 7.1152992799949430e+00
-5.8670711890669039e-02 2.4646670711890664e+01
ITEM: ATOMS id type x y z 
34 2 6.35853 2.38819 5.21388 
35 3 0.129586 2.06763 5.26043 
2 1 3.34059 1.62045 13.3481 
5 1 4.65601 1.57155 18.1624 
7 1 3.39146 1.5926 16.0126 
8 1 2.1589 1.57155 18.1613 
18 1 3.40702 1.57221 17.4488 
21 1 3.33734 2.86229 12.6274 
23 1 3.36824 1.60955 14.7842 
24 1 3.33695 0.379565 12.6244 
17 1 7.04369 2.87033 24.3015 
19 1 7.01399 1.61318 22.1393 
20 1 7.04415 0.390227 24.2874 
22 1 6.9769 1.57119 19.4752 
25 1 5.72451 1.57128 18.7685 
27 1 6.99225 1.59379 20.9117 
28 1 1.08867 1.57127 18.7647 
30 1 7.03985 1.63034 23.5795 
10 1 6.97524 4.99496 5.06459 
13 1 7.04556 3.94561 0.192712 
15 1 7.00928 5.26408 2.32769 
16 1 7.046 6.44309 0.171787 
26 1 7.04663 5.20528 0.866094 
29 1 5.67553 5.25192 5.84328 
31 1 6.98566 5.22053 3.54307 
32 1 1.1347 5.24741 5.84351 
33 2 6.98274 3.86002 5.08141 
1 1 4.64439 5.31836 6.4905 
3 1 3.3945 5.24711 8.66325 
4 1 2.1665 5.31438 6.49058 
6 1 3.33399 5.18601 11.3184 
9 1 3.3355 3.9304 12.0212 
11 1 3.36758 5.1961 9.89463 
12 1 3.3353 6.44392 12.0207 
14 1 3.40456 5.31593 7.25214 
ITEM: TIMESTEP
160
ITEM: NUMBER OF ATOMS
35
ITEM: BOX BOUNDS pp pp pp
-2.0972813332897720e-02 7.1179728133328952e+00
-1.8097924626775168e-02 7.1150979246267720e+00
-5.9060363177835751e-02 2.4647060363177832e+01
ITEM: ATOMS id type x y z 
34 2 6.35893 2.38471 5.2139 
35 3 0.128449 2.06581 5.26044 
2 1 3.34056 1.62034 13.3484 
5 1 4.65632 1.5718 18.1624 
7 1 3.39144 1.59268 16.0131 
8 1 2.15847 1.5717 18.1615 
18 1 3.40692 1.57247 17.4494 
21 1 3.3374 2.8627 12.6286 
23 1 3.36822 1.60949 14.7846 
24 1 3.33702 0.379025 12.6254 
17 1 7.04443 2.87155 24.3006 
19 1 7.01478 1.6138 22.139 
20 1 7.04478 0.390298 24.2857 
22 1 6.97763 1.57131 19.4748 
25 1 5.72516 1.57151 18.768 
27 1 6.99301 1.59417 20.9113 
28 1 1.08802 1.57139 18.7646 
30 1 7.04066 1.63115 23.5791 
10 1 6.97571 4.99563 5.06524 
13 1 7.0462 3.94671 0.191131 
15 1 7.01049 5.26263 2.32724 
16 1 7.04659 6.4432 0.170062 
26 1 7.04717 5.2059 0.865286 
29 1 5.67624 5.2497 5.8443 
31 1 6.9867 5.21834 3.54267 
32 1 1.13401 5.24527 5.84461 
33 2 6.98364 3.86111 5.08026 
1 1 4.64486 5.31834 6.49115 
3 1 3.39428 5.24947 8.66309 
4 1 2.16618 5.31439 6.49097 
6 1 3.33406 5.18571 11.3185 
9 1 3.33561 3.93084 12.0225 
11 1 3.36744 5.19676 9.89448 
12 1 3.33544 6.44287 12.0219 
14 1 3.40468 5.31993 7.2519 
ITEM: TIMESTEP
170
ITEM: NUMBER OF ATOMS
35
ITEM: BOX BOUNDS pp pp pp
-2.1131346832636962e-02 7.1181313468326337e+00
-1.8010737419397366e-02 7.1150107374193947e+00
-5.7384922903848293e-02 2.4645384922903844e+01
ITEM: ATOMS id type x y z 
34 2 6.35874 2.38202 5.21505 
35 3 0.128103 2.06448 5.26157 
2 1 3.34057 1.62022 13.3485 
5 1 4.6564 1.57194 18.1616 
7 1 3.39144 1.59271 16.0129 
8 1 2.15835 1.5718 18.1607 
18 1 3.40686 1.57262 17.449 
21 1 3.33748 2.86294 12.6294 
23 1 3.36823 1.6094 14.7846 
24 1 3.33711 0.378603 12.6261 
17 1 7.04454 2.87241 24.2979 
19 1 7.01495 1.61425 22.1371 
20 1 7.04481 0.390367 24.2826 
22 1 6.97775 1.57136 19.4733 
25 1 5.72536 1.57162 18.7666 
27 1 6.99315 1.59443 20.9095 
28 1 1.08785 1.57146 18.7635 
30 1 7.04085 1.63174 23.5769 
10 1 6.97573 4.99592 5.06682 
13 1 7.04625 3.94754 0.191848 
15 1 7.01091 5.26154 2.3285 
16 1 7.0466 6.44333 0.170699 
26 1 7.04718 5.20636 0.86651 
29 1 5.67649 5.24823 5.84609 
31 1 6.98707 5.21685 3.54376 
32 1 1.13379 5.24386 5.84643 
33 2 6.98391 3.86171 5.08056 
1 1 4.64507 5.31833 6.49257 
3 1 3.39414 5.25131 8.66362 
4 1 2.1661 5.3144 6.49219 
6 1 3.33413 5.18552 11.3188 
9 1 3.33572 3.93109 12.0234 
11 1 3.36738 5.19735 9.89479 
12 1 3.33557 6.4422 12.0228 
14 1 3.40475 5.32293 7.25256 
ITEM: TIMESTEP
180
ITEM: NUMBER OF ATOMS
35
ITEM: BOX BOUNDS pp pp pp
-2.2431707370447036e-02 7.1194317073704436e+00
-1.7835820490264682e-02 7.1148358204902618e+00
-5.6157455181158680e-02 2.4644157455181155e+01
ITEM: ATOMS id type x y z 
34 2 6.35878 2.37468 5.21625 
35 3 0.126433 2.06104 5.26272 
2 1 3.34054 1.61987 13.3493 
5 1 4.65682 1.57226 18.1607 
7 1 3.39139 1.59274 16.0134 
8 1 2.15779 1.57204 18.1603 
18 1 3.40669 1.57301 17.4493 
21 1 3.33767 2.86351 12.6317 
23 1 3.36818 1.60914 14.7851 
24 1 3.33731 0.377478 12.6282 
17 1 7.04568 2.87465 24.294 
19 1 7.01623 1.61547 22.1347 
20 1 7.04575 0.390602 24.2778 
22 1 6.97891 1.57148 19.4711 
25 1 5.72644 1.57189 18.7646 
27 1 6.99436 1.59514 20.9071 
28 1 1.08676 1.57162 18.7621 
30 1 7.0422 1.63328 23.5739 
10 1 6.97678 4.99638 5.06904 
13 1 7.04724 3.94974 0.19056 
15 1 7.01283 5.25867 2.32926 
16 1 7.04749 6.44376 0.169255 
26 1 7.04807 5.20756 0.866785 
29 1 5.67771 5.2446 5.84909 
31 1 6.98894 5.21302 3.54439 
32 1 1.13257 5.24036 5.84948 
33 2 6.98553 3.86293 5.0795 
1 1 4.64588 5.31829 6.49482 
3 1 3.39369 5.25629 8.66416 
4 1 2.16555 5.31444 6.49395 
6 1 3.33429 5.18505 11.3194 
9 1 3.33597 3.93168 12.0257 
11 1 3.36718 5.19905 9.89509 
12 1 3.33585 6.44055 12.0252 
14 1 3.40483 5.3309 7.25308 
ITEM: TIMESTEP
190
ITEM: NUMBER OF ATOMS
35
ITEM: BOX BOUNDS pp pp pp
-2.4233467260470813e-02 7.1212334672604669e+00
-1.6991223233149555e-02 7.1139912232331461e+00
-5.5965134753636646e-02 2.4643965134753635e+01
ITEM: ATOMS id type x y z 
34 2 6.35816 2.36253 5.21719 
35 3 0.124238 2.05598 5.26354 
2 1 3.34056 1.61961 13.351 
5 1 4.65735 1.57308 18.1602 
7 1 3.39128 1.59309 16.0149 
8 1 2.15715 1.57279 18.1603 
18 1 3.40647 1.57396 17.4504 
21 1 3.338 2.86436 12.6353 
23 1 3.36811 1.609 14.7863 
24 1 3.3377 0.376264 12.6316 
17 1 7.04719 2.87828 24.2895 
19 1 7.01797 1.61788 22.1319 
20 1 7.047 0.391717 24.2721 
22 1 6.98053 1.57201 19.4685 
25 1 5.72792 1.57258 18.7626 
27 1 6.99601 1.59668 20.9042 
28 1 1.0852 1.57224 18.7607 
30 1 7.04405 1.63609 23.5707 
10 1 6.9785 4.99599 5.07137 
13 1 7.04853 3.95313 0.18666 
15 1 7.01547 5.25381 2.32907 
16 1 7.04867 6.4441 0.16534 
26 1 7.04925 5.20912 0.865625 
29 1 5.67951 5.2391 5.85287 
31 1 6.99173 5.20695 3.54424 
32 1 1.13077 5.23507 5.85323 
33 2 6.98794 3.86368 5.07685 
1 1 4.64715 5.318 6.49758 
3 1 3.39293 5.2642 8.66468 
4 1 2.16467 5.3143 6.49602 
6 1 3.33465 5.18408 11.3205 
9 1 3.33638 3.93225 12.029 
11 1 3.36692 5.20193 9.89546 
12 1 3.33621 6.43769 12.0287 
14 1 3.40487 5.34321 7.2533 
ITEM: TIMESTEP
200
ITEM: NUMBER OF ATOMS
35
ITEM: BOX BOUNDS pp pp pp
-2.4513936850412293e-02 7.1215139368504081e+00
-1.7028189058301776e-02 7.1140281890582990e+00
-5.5598883613781881e-02 2.4643598883613780e+01
ITEM: ATOMS id type x y z 
34 2 6.35728 2.35725 5.21775 
35 3 0.123907 2.05407 5.26401 
2 1 3.34066 1.61931 13.3517 
5 1 4.65745 1.57322 18.1597 
7 1 3.39121 1.59303 16.0153 
8 1 2.15716 1.5729 18.1602 
18 1 3.40644 1.57412 17.4507 
21 1 3.33817 2.86444 12.6364 
23 1 3.36811 1.60875 14.7868 
24 1 3.3378 0.37552 12.633 
17 1 7.04734 2.87953 24.2874 
19 1 7.01821 1.61872 22.1306 
20 1 7.04713 0.392031 24.2701 
22 1 6.98077 1.57208 19.4672 
25 1 5.72812 1.57256 18.7618 
27 1 6.99625 1.59716 20.9028 
28 1 1.08489 1.57231 18.7599 
30 1 7.0443 1.63695 23.5692 
10 1 6.97895 4.99526 5.07228 
13 1 7.04861 3.95444 0.18546 
15 1 7.01597 5.25223 2.32933 
16 1 7.04874 6.44459 0.164416 
26 1 7.0493 5.2098 0.865562 
29 1 5.67998 5.23764 5.85434 
31 1 6.99244 5.20502 3.54447 
32 1 1.1304 5.23371 5.85459 
33 2 6.98854 3.86302 5.07609 
1 1 4.64756 5.31822 6.49871 
3 1 3.39261 5.26747 8.66509 
4 1 2.16441 5.31461 6.49699 
6 1 3.33484 5.1839 11.321 
9 1 3.3366 3.93231 12.0299 
11 1 3.36688 5.20359 9.89577 
12 1 3.33641 6.43717 12.0296 
14 1 3.40484 5.34777 7.25356 
ITEM: TIMESTEP
210
ITEM: NUMBER OF ATOMS
35
ITEM: BOX BOUNDS pp pp pp
-2.4800938719734968e-02 7.1218009387197307e+00
-1.7079372317223881e-02 7.1140793723172209e+00
-5.4822763136009901e-02 2.4642822763136007e+01
ITEM: ATOMS id type x y z 
34 2 6.35654 2.35271 5.2185 
35 3 0.123587 2.05251 5.26466 
2 1 3.3407 1.61906 13.3522 
5 1 4.65746 1.57309 18.1593 
7 1 3.39115 1.59295 16.0155 
8 1 2.15713 1.57296 18.1599 
18 1 3.40644 1.57427 17.4506 
21 1 3.3384 2.86448 12.6373 
23 1 3.3681 1.60854 14.787 
24 1 3.33801 0.374988 12.634 
17 1 7.0475 2.88055 24.2852 
19 1 7.01845 1.61943 22.1291 
20 1 7.04729 0.392316 24.2682 
22 1 6.98097 1.57199 19.4661 
25 1 5.72846 1.57288 18.7608 
27 1 6.99649 1.59757 20.9014 
28 1 1.0846 1.57236 18.759 
30 1 7.04455 1.63762 23.5676 
10 1 6.97939 4.99447 5.07327 
13 1 7.04872 3.95549 0.184995 
15 1 7.01642 5.25106 2.32999 
16 1 7.04888 6.44504 0.164317 
26 1 7.04938 5.21035 0.866038 
29 1 5.68045 5.23657 5.85571 