ITEM: TIMESTEP
0
ITEM: NUMBER OF ATOMS
49
ITEM: BOX BOUNDS pp pp pp
0.0000000000000000e+00 1.1000000000000000e+01
0.0000000000000000e+00 1.1002000000000001e+01
0.0000000000000000e+00 1.1000000000000000e+01
ITEM: ATOMS id type x y z 
10 1 4.603 4.603 4.603 
11 1 3.085 3.085 3.085 
12 1 3.796 3.796 3.796 
46 1 0.726 0.725 0.725 
47 1 2.26 2.259 2.26 
48 1 1.551 1.55 1.55 
49 2 1.809 0.509 0.637 
19 1 4.546 4.545 6.226 
20 1 3.013 3.013 7.764 
21 1 3.721 3.721 7.053 
31 1 0.668 0.667 10.103 
32 1 2.187 2.187 8.589 
33 1 1.476 1.475 9.298 
16 1 4.546 6.225 4.546 
17 1 3.013 7.765 3.013 
18 1 3.721 7.053 3.722 
25 1 0.668 10.103 0.668 
26 1 2.188 8.589 2.188 
27 1 1.476 9.298 1.476 
4 1 4.608 6.169 6.169 
5 1 3.086 7.684 7.684 
6 1 3.799 6.974 6.974 
37 1 0.729 10.046 10.046 
38 1 2.259 8.509 8.508 
39 1 1.552 9.219 9.219 
13 1 6.225 4.546 4.546 
14 1 7.764 3.013 3.013 
15 1 7.053 3.721 3.722 
28 1 10.102 0.667 0.668 
29 1 8.589 2.187 2.188 
30 1 9.298 1.475 1.476 
1 1 6.168 4.608 6.169 
2 1 7.684 3.086 7.684 
3 1 6.974 3.799 6.974 
40 1 10.045 0.728 10.046 
41 1 8.508 2.259 8.508 
42 1 9.218 1.551 9.218 
7 1 6.169 6.169 4.608 
8 1 7.684 7.684 3.086 
9 1 6.974 6.974 3.799 
43 1 10.046 10.047 0.729 
44 1 8.508 8.509 2.259 
45 1 9.219 9.219 1.552 
22 1 6.229 6.229 6.229 
23 1 7.764 7.765 7.765 
24 1 7.055 7.056 7.055 
34 1 10.108 10.108 10.107 
35 1 8.59 8.59 8.59 
36 1 9.301 9.301 9.3 
ITEM: TIMESTEP
10
ITEM: NUMBER OF ATOMS
49
ITEM: BOX BOUNDS pp pp pp
0.0000000000000000e+00 1.1000000000000000e+01
0.0000000000000000e+00 1.1002000000000001e+01
0.0000000000000000e+00 1.1000000000000000e+01
ITEM: ATOMS id type x y z 
10 1 4.5912 4.59384 4.5912 
11 1 3.0887 3.08817 3.08821 
12 1 3.79367 3.78977 3.79865 
46 1 0.697879 0.701508 0.703914 
47 1 2.31954 2.30287 2.30526 
48 1 1.54558 1.65846 1.63442 
49 2 1.89255 0.464289 0.604383 
19 1 4.53936 4.53781 6.23965 
20 1 3.00096 2.99892 7.77559 
21 1 3.70708 3.71056 7.06829 
31 1 0.665553 0.680007 10.0241 
32 1 2.20589 2.20388 8.58304 
33 1 1.48176 1.48448 9.269 
16 1 4.53732 6.2398 4.5394 
17 1 2.99856 7.77709 3.0006 
18 1 3.71087 7.06824 3.70764 
25 1 0.663908 10.0175 0.677068 
26 1 2.20526 8.58499 2.20394 
27 1 1.48005 9.26922 1.48306 
4 1 4.59968 6.17052 6.17148 
5 1 3.07646 7.68903 7.68885 
6 1 3.79598 6.98522 6.98528 
37 1 0.739915 10.0418 10.0441 
38 1 2.26943 8.49717 8.49512 
39 1 1.56789 9.20628 9.20847 
13 1 6.23994 4.53746 4.53902 
14 1 7.7758 2.99895 3.0015 
15 1 7.0676 3.71091 3.70726 
28 1 10.0358 0.683744 0.683213 
29 1 8.5801 2.20518 2.2068 
30 1 9.27039 1.48636 1.48601 
1 1 6.17355 4.6019 6.17181 
2 1 7.69248 3.07972 7.68755 
3 1 6.97745 3.79068 6.98698 
40 1 10.0389 0.738054 10.0361 
41 1 8.49377 2.2707 8.49527 
42 1 9.20659 1.5678 9.20366 
7 1 6.17146 6.17183 4.59992 
8 1 7.6888 7.68826 3.07696 
9 1 6.98415 6.98554 3.79623 
43 1 10.0423 10.0364 0.740683 
44 1 8.49278 8.49528 2.2721 
45 1 9.20615 9.20316 1.56922 
22 1 6.23618 6.23771 6.23548 
23 1 7.77617 7.77821 7.77576 
24 1 7.0683 7.06713 7.07097 
34 1 10.0938 10.091 10.0914 
35 1 8.57912 8.58027 8.58365 
36 1 9.29436 9.29238 9.28466 
ITEM: TIMESTEP
20
ITEM: NUMBER OF ATOMS
49
ITEM: BOX BOUNDS pp pp pp
0.0000000000000000e+00 1.1000000000000000e+01
0.0000000000000000e+00 1.1002000000000001e+01
0.0000000000000000e+00 1.1000000000000000e+01
ITEM: ATOMS id type x y z 
10 1 4.60257 4.60551 4.60441 
11 1 3.1053 3.09886 3.10331 
12 1 3.811 3.80807 3.81198 
46 1 0.760159 0.731469 0.735868 
47 1 2.31468 2.30106 2.30122 
48 1 1.45752 1.70177 1.66397 
49 2 1.91562 0.375053 0.530834 
19 1 4.53724 4.53769 6.24379 
20 1 3.00578 3.00538 7.77122 
21 1 3.71343 3.71355 7.06538 
31 1 0.65404 0.671948 10.0155 
32 1 2.20932 2.20532 8.5855 
33 1 1.47732 1.48364 9.2588 
16 1 4.53717 6.24337 4.53782 
17 1 3.00517 7.77287 3.00516 
18 1 3.71283 7.06657 3.71285 
25 1 0.652469 10.0109 0.666511 
26 1 2.20678 8.58918 2.20468 
27 1 1.47472 9.25863 1.47985 
4 1 4.60074 6.17931 6.17873 
5 1 3.08293 7.68726 7.68694 
6 1 3.79237 6.98033 6.98016 
37 1 0.737724 10.0346 10.0403 
38 1 2.26878 8.49976 8.4979 
39 1 1.5651 9.20516 9.20746 
13 1 6.24301 4.53812 4.53784 
14 1 7.76997 3.0065 3.00695 
15 1 7.06365 3.71492 3.71496 
28 1 10.0302 0.673371 0.672582 
29 1 8.57856 2.2093 2.20969 
30 1 9.26347 1.48644 1.48838 
1 1 6.17754 4.60056 6.18002 
2 1 7.68604 3.08305 7.68677 
3 1 6.98011 3.79336 6.97981 
40 1 10.0337 0.733919 10.0301 
41 1 8.49838 2.26976 8.49844 
42 1 9.20486 1.56263 9.20401 
7 1 6.17784 6.17965 4.60137 
8 1 7.68585 7.68624 3.08404 
9 1 6.97888 6.97949 3.79347 
43 1 10.0386 10.0295 0.737302 
44 1 8.49639 8.49878 2.27038 
45 1 9.20614 9.20272 1.56521 
22 1 6.23846 6.23899 6.23926 
23 1 7.7721 7.77304 7.77321 
24 1 7.06575 7.06672 7.06622 
34 1 10.0948 10.0906 10.0895 
35 1 8.58282 8.58363 8.58353 
36 1 9.29312 9.29146 9.28977 
ITEM: TIMESTEP
30
ITEM: NUMBER OF ATOMS
49
ITEM: BOX BOUNDS pp pp pp
0.0000000000000000e+00 1.1000000000000000e+01
0.0000000000000000e+00 1.1002000000000001e+01
0.0000000000000000e+00 1.1000000000000000e+01
ITEM: ATOMS id type x y z 
10 1 4.61212 4.61726 4.61622 
11 1 3.11706 3.10359 3.10818 
12 1 3.81916 3.81424 3.81625 
46 1 0.794152 0.734389 0.737951 
47 1 2.29542 2.30304 2.30141 
48 1 1.44042 1.70472 1.6661 
49 2 1.89825 0.356287 0.518468 
19 1 4.53921 4.54041 6.25115 
20 1 3.00392 3.00326 7.77297 
21 1 3.71447 3.71412 7.07057 
31 1 0.649194 0.6681 9.99769 
32 1 2.20957 2.20546 8.58934 
33 1 1.47046 1.47813 9.24925 
16 1 4.5388 6.25184 4.54012 
17 1 3.00342 7.77569 3.00311 
18 1 3.71263 7.07111 3.71266 
25 1 0.648758 9.99237 0.661257 
26 1 2.20448 8.59051 2.20362 
27 1 1.47084 9.25416 1.47485 
4 1 4.60038 6.18268 6.18091 
5 1 3.08261 7.68691 7.68658 
6 1 3.79392 6.98077 6.97989 
37 1 0.739202 10.0353 10.041 
38 1 2.27024 8.49623 8.49534 
39 1 1.56896 9.20459 9.20577 
13 1 6.24914 4.54094 4.54098 
14 1 7.77023 3.0054 3.00564 
15 1 7.06816 3.71621 3.71653 
28 1 10.0179 0.667568 0.668596 
29 1 8.58112 2.20878 2.20983 
30 1 9.25834 1.48264 1.48326 
1 1 6.18106 4.60113 6.18316 
2 1 7.68661 3.08254 7.68652 
3 1 6.9797 3.79432 6.9813 
40 1 10.0364 0.734318 10.0347 
41 1 8.49605 2.26985 8.49629 
42 1 9.20474 1.56538 9.20368 
7 1 6.17954 6.18285 4.6014 
8 1 7.68584 7.68577 3.08326 
9 1 6.97868 6.98107 3.79522 
43 1 10.0415 10.0333 0.739288 
44 1 8.49441 8.49625 2.27125 
45 1 9.20484 9.20196 1.56784 
22 1 6.2406 6.24135 6.24174 
23 1 7.77453 7.77553 7.77542 
24 1 7.06668 7.06777 7.06764 
34 1 10.0921 10.0862 10.0863 
35 1 8.58208 8.58309 8.58249 
36 1 9.29306 9.29059 9.28998 
ITEM: TIMESTEP
40
ITEM: NUMBER OF ATOMS
49
ITEM: BOX BOUNDS pp pp pp
0.0000000000000000e+00 1.1000000000000000e+01
0.0000000000000000e+00 1.1002000000000001e+01
0.0000000000000000e+00 1.1000000000000000e+01
ITEM: ATOMS id type x y z 
10 1 4.61248 4.61806 4.6168 
11 1 3.12087 3.10483 3.10964 
12 1 3.82228 3.81626 3.81831 
46 1 0.799389 0.734617 0.737309 
47 1 2.28823 2.30554 2.30273 
48 1 1.43984 1.70303 1.66492 
49 2 1.89555 0.354628 0.518302 
19 1 4.54057 4.54172 6.25274 
20 1 3.00454 3.00353 7.77396 
21 1 3.71412 3.71416 7.07051 
31 1 0.6464 0.666072 9.99276 
32 1 2.20852 2.20472 8.58734 
33 1 1.47114 1.47868 9.25058 
16 1 4.53954 6.25298 4.54088 
17 1 3.0034 7.77608 3.00289 
18 1 3.7129 7.07265 3.71319 
25 1 0.646988 9.98931 0.659538 
26 1 2.20469 8.59068 2.2033 
27 1 1.46875 9.25145 1.47417 
4 1 4.60113 6.18302 6.18116 
5 1 3.08235 7.68657 7.68622 
6 1 3.79483 6.98123 6.98015 
37 1 0.739831 10.0347 10.0396 
38 1 2.27188 8.49598 8.49489 
39 1 1.56812 9.2027 9.20447 
13 1 6.25039 4.54245 4.54259 
14 1 7.7709 3.00581 3.0061 
15 1 7.06795 3.71621 3.71643 
28 1 10.0176 0.666231 0.667855 
29 1 8.58084 2.20866 2.20939 
30 1 9.25768 1.48198 1.48312 
1 1 6.1813 4.60201 6.18366 
2 1 7.68633 3.08213 7.68648 
3 1 6.9804 3.7951 6.98164 
40 1 10.0358 0.734993 10.0349 
41 1 8.49611 2.2704 8.49608 
42 1 9.20353 1.56497 9.20315 
7 1 6.17962 6.18355 4.6024 
8 1 7.68546 7.68587 3.08319 
9 1 6.97913 6.9809 3.79566 
43 1 10.0409 10.0333 0.739798 
44 1 8.49415 8.4958 2.27148 
45 1 9.20442 9.20181 1.56807 
22 1 6.24105 6.24192 6.24227 
23 1 7.77464 7.77574 7.7755 
24 1 7.06714 7.06816 7.0682 
34 1 10.0922 10.0854 10.0862 
35 1 8.58206 8.58306 8.5823 
36 1 9.293 9.29038 9.29016 
ITEM: TIMESTEP
50
ITEM: NUMBER OF ATOMS
49
ITEM: BOX BOUNDS pp pp pp
0.0000000000000000e+00 1.1000000000000000e+01
0.0000000000000000e+00 1.1002000000000001e+01
0.0000000000000000e+00 1.1000000000000000e+01
ITEM: ATOMS id type x y z 
10 1 4.61271 4.61839 4.61708 
11 1 3.12151 3.10483 3.10966 
12 1 3.82251 3.81638 3.81851 
46 1 0.800147 0.734443 0.736919 
47 1 2.28701 2.3066 2.30349 
48 1 1.43979 1.70305 1.66501 
49 2 1.89507 0.353881 0.517996 
19 1 4.54064 4.54186 6.25289 
20 1 3.00456 3.00353 7.77384 
21 1 3.7144 3.7144 7.07103 
31 1 0.645987 0.665863 9.99202 
32 1 2.20836 2.20469 8.58724 
33 1 1.47102 1.47844 9.25026 
16 1 4.53966 6.25334 4.54102 
17 1 3.00345 7.77622 3.0029 
18 1 3.71293 7.07288 3.71326 
25 1 0.646644 9.98868 0.659259 
26 1 2.20456 8.59066 2.20328 
27 1 1.46853 9.25098 1.47383 
4 1 4.6013 6.18313 6.18124 
5 1 3.08239 7.68652 7.68613 
6 1 3.79497 6.98119 6.98013 
37 1 0.739764 10.0344 10.0393 
38 1 2.27206 8.49581 8.49476 
39 1 1.56821 9.20254 9.20426 
13 1 6.25067 4.54264 4.54279 
14 1 7.77102 3.00577 3.00606 
15 1 7.06806 3.71634 3.71656 
28 1 10.0175 0.666011 0.667729 
29 1 8.58075 2.20858 2.20931 
30 1 9.25759 1.48191 1.48302 
1 1 6.1814 4.60222 6.18389 
2 1 7.68632 3.08214 7.68647 
3 1 6.98041 3.79516 6.98166 
40 1 10.0357 0.735007 10.035 
41 1 8.49609 2.27038 8.49606 
42 1 9.20343 1.56499 9.20311 
7 1 6.17971 6.1837 4.60253 
8 1 7.68541 7.68574 3.08314 
9 1 6.97908 6.98109 3.79588 
43 1 10.0408 10.0333 0.739866 
44 1 8.49409 8.4957 2.27153 
45 1 9.20432 9.20178 1.56814 
22 1 6.24119 6.24211 6.24247 
23 1 7.77468 7.77579 7.77557 
24 1 7.06724 7.06825 7.06826 
34 1 10.0922 10.0853 10.0861 
35 1 8.58206 8.58316 8.58228 
36 1 9.2931 9.29026 9.29029 
ITEM: TIMESTEP
60
ITEM: NUMBER OF ATOMS
49
ITEM: BOX BOUNDS pp pp pp
0.0000000000000000e+00 1.1000000000000000e+01
0.0000000000000000e+00 1.1002000000000001e+01
0.0000000000000000e+00 1.1000000000000000e+01
ITEM: ATOMS id type x y z 
10 1 4.6201 4.62775 4.62511 
11 1 3.13715 3.10463 3.11106 
12 1 3.83205 3.81927 3.82231 
46 1 0.820861 0.731676 0.727698 
47 1 2.24883 2.33523 2.32352 
48 1 1.44017 1.70169 1.66586 
49 2 1.88325 0.333123 0.510127 
19 1 4.54517 4.54708 6.26068 
20 1 3.00707 3.00515 7.77653 
21 1 3.71729 3.71748 7.07619 
31 1 0.636089 0.658105 9.97379 
32 1 2.20511 2.20368 8.58361 
33 1 1.46687 1.47298 9.24055 
16 1 4.54324 6.26332 4.54544 
17 1 3.00482 7.7816 3.0043 
18 1 3.71406 7.077 3.7136 
25 1 0.637477 9.97145 0.648984 
26 1 2.2004 8.58764 2.2016 
27 1 1.46311 9.24059 1.4667 
4 1 4.60439 6.18609 6.18317 
5 1 3.08407 7.68508 7.68391 
6 1 3.79808 6.97981 6.97912 
37 1 0.736896 10.0269 10.0286 
38 1 2.27667 8.49254 8.49093 
39 1 1.56992 9.19682 9.20032 
13 1 6.25705 4.54822 4.54852 
14 1 7.77194 3.00746 3.00775 
15 1 7.07248 3.71949 3.7197 
28 1 10.0188 0.662463 0.665695 
29 1 8.57817 2.20769 2.20667 
30 1 9.25362 1.47809 1.48198 
1 1 6.18425 4.60571 6.1878 
2 1 7.68587 3.08205 7.68599 
3 1 6.98081 3.79743 6.98247 
40 1 10.0304 0.735168 10.0351 
41 1 8.49456 2.27121 8.49427 
42 1 9.20062 1.56498 9.2027 
7 1 6.18139 6.18744 4.60604 
8 1 7.68397 7.68477 3.08367 
9 1 6.97831 6.98148 3.7985 
43 1 10.0367 10.0327 0.741736 
44 1 8.49218 8.49308 2.27308 
45 1 9.20164 9.20013 1.5697 
22 1 6.24654 6.24784 6.24817 
23 1 7.77797 7.77937 7.77898 
24 1 7.06999 7.07138 7.07119 
34 1 10.093 10.0809 10.085 
35 1 8.58263 8.58432 8.58291 
36 1 9.29503 9.28998 9.29166 
ITEM: TIMESTEP
70
ITEM: NUMBER OF ATOMS
49
ITEM: BOX BOUNDS pp pp pp
0.0000000000000000e+00 1.1000000000000000e+01
0.0000000000000000e+00 1.1002000000000001e+01
0.0000000000000000e+00 1.1000000000000000e+01
ITEM: ATOMS id type x y z 
10 1 4.62011 4.62758 4.6249 
11 1 3.13672 3.10434 3.11126 
12 1 3.83255 3.81926 3.82132 
46 1 0.820059 0.732708 0.72808 
47 1 2.24594 2.33675 2.32466 
48 1 1.44085 1.70074 1.66492 
49 2 1.88432 0.331468 0.509781 
19 1 4.54511 4.54692 6.26055 
20 1 3.00693 3.00516 7.77717 
21 1 3.71751 3.71743 7.07646 
31 1 0.636052 0.657976 9.97472 
32 1 2.20555 2.20296 8.58306 
33 1 1.46538 1.4739 9.23984 
16 1 4.54315 6.26231 4.54487 
17 1 3.00474 7.7812 3.00399 
18 1 3.71461 7.07867 3.71465 
25 1 0.637853 9.97194 0.648531 
26 1 2.20036 8.58672 2.20069 
27 1 1.46222 9.24086 1.46763 
4 1 4.60492 6.18612 6.18314 
5 1 3.08412 7.68456 7.68389 
6 1 3.79878 6.98034 6.97862 
37 1 0.736537 10.0261 10.0285 
38 1 2.27742 8.49188 8.49133 
39 1 1.56913 9.19708 9.19868 
13 1 6.2571 4.54835 4.54861 
14 1 7.77234 3.00774 3.00798 
15 1 7.07232 3.71939 3.71965 
28 1 10.0196 0.662545 0.66613 
29 1 8.57669 2.20674 2.20664 
30 1 9.2553 1.47993 1.48204 
1 1 6.1846 4.60621 6.18792 
2 1 7.68581 3.08196 7.68603 
3 1 6.98117 3.79762 6.98259 
40 1 10.0304 0.734615 10.0351 
41 1 8.49486 2.27078 8.49474 
42 1 9.20065 1.56466 9.20277 
7 1 6.18135 6.1875 4.60653 
8 1 7.68391 7.68466 3.08364 
9 1 6.9783 6.98169 3.79876 
43 1 10.0366 10.0323 0.74149 
44 1 8.49225 8.49313 2.273 
45 1 9.20157 9.20019 1.56953 
22 1 6.24677 6.24791 6.24819 
23 1 7.77796 7.77946 7.77899 
24 1 7.07026 7.07159 7.07147 
34 1 10.0925 10.0813 10.0852 
35 1 8.58291 8.58431 8.58316 
36 1 9.29494 9.2904 9.29166 
ITEM: TIMESTEP
80
ITEM: NUMBER OF ATOMS
49
ITEM: BOX BOUNDS pp pp pp
0.0000000000000000e+00 1.1000000000000000e+01
0.0000000000000000e+00 1.1002000000000001e+01
0.0000000000000000e+00 1.1000000000000000e+01
ITEM: ATOMS id type x y z 
10 1 4.62007 4.62757 4.62479 
11 1 3.13657 3.10438 3.11116 
12 1 3.83266 3.81896 3.82129 
46 1 0.819768 0.732914 0.728051 
47 1 2.24473 2.33754 2.32526 
48 1 1.4412 1.70046 1.66462 
49 2 1.8847 0.330756 0.509674 
19 1 4.54517 4.5469 6.26043 
20 1 3.0071 3.00535 7.77726 
21 1 3.7176 3.71745 7.07656 
31 1 0.636129 0.657895 9.9749 
32 1 2.20546 2.20277 8.58279 
33 1 1.4651 1.47395 9.23964 
16 1 4.54305 6.26191 4.54462 
17 1 3.00471 7.78101 3.00387 
18 1 3.7149 7.07942 3.71512 
25 1 0.637763 9.97207 0.648422 
26 1 2.20004 8.58638 2.20057 
27 1 1.46231 9.24086 1.46742 
4 1 4.60506 6.18603 6.18306 
5 1 3.08423 7.68446 7.6838 
6 1 3.79895 6.98032 6.97854 
37 1 0.7363 10.0259 10.0284 
38 1 2.27753 8.49181 8.49157 
39 1 1.56884 9.19712 9.19819 
13 1 6.25708 4.54832 4.54863 
14 1 7.77247 3.00775 3.00801 
15 1 7.07238 3.71948 3.71971 
28 1 10.02 0.662842 0.666558 
29 1 8.57636 2.20657 2.20659 
30 1 9.25552 1.48017 1.48206 
1 1 6.18463 4.60633 6.18798 
2 1 7.68593 3.08197 7.686 
3 1 6.98107 3.7976 6.98274 
40 1 10.0303 0.734417 10.035 
41 1 8.4948 2.27077 8.49476 
42 1 9.20065 1.56454 9.20279 
7 1 6.18134 6.18762 4.60664 
8 1 7.6839 7.68467 3.08366 
9 1 6.97828 6.98169 3.7988 
43 1 10.0366 10.0323 0.741389 
44 1 8.49223 8.49319 2.27296 
45 1 9.20165 9.20015 1.56944 
22 1 6.24687 6.24798 6.24826 
23 1 7.77807 7.77963 7.77913 
24 1 7.07038 7.07165 7.07156 
34 1 10.0925 10.0814 10.0853 
35 1 8.58299 8.58437 8.58325 
36 1 9.295 9.29048 9.29173 
ITEM: TIMESTEP
90
ITEM: NUMBER OF ATOMS
49
ITEM: BOX BOUNDS pp pp pp
0.0000000000000000e+00 1.1000000000000000e+01
0.0000000000000000e+00 1.1002000000000001e+01
0.0000000000000000e+00 1.1000000000000000e+01
ITEM: ATOMS id type x y z 
10 1 4.62012 4.6275 4.62472 
11 1 3.13658 3.10434 3.11113 
12 1 3.83259 3.81897 3.82126 
46 1 0.819671 0.732972 0.728021 
47 1 2.24427 2.33785 2.32549 
48 1 1.44133 1.70036 1.66452 
49 2 1.88484 0.330491 0.509642 
19 1 4.54518 4.54688 6.2604 
20 1 3.00714 3.00539 7.77731 
21 1 3.71764 3.71748 7.0766 
31 1 0.636119 0.657906 9.97495 
32 1 2.2054 2.20272 8.5827 
33 1 1.46505 1.4739 9.23955 
16 1 4.54304 6.26183 4.54457 
17 1 3.00472 7.78102 3.00388 
18 1 3.71496 7.07956 3.71522 
25 1 0.637786 9.97213 0.64835 
26 1 2.2 8.58628 2.20047 
27 1 1.46219 9.2408 1.46743 
4 1 4.60515 6.18604 6.18302 
5 1 3.08428 7.68444 7.68377 
6 1 3.79899 6.98028 6.97851 
37 1 0.736172 10.0258 10.0283 
38 1 2.27754 8.49178 8.49155 
39 1 1.56882 9.19712 9.19816 
13 1 6.25708 4.54832 4.54862 
14 1 7.7725 3.00779 3.00802 
15 1 7.07241 3.71949 3.71975 
28 1 10.0202 0.662932 0.666704 
29 1 8.57623 2.2065 2.20657 
30 1 9.25562 1.48028 1.48207 
1 1 6.18464 4.60638 6.18801 
2 1 7.68593 3.08196 7.68602 
3 1 6.98112 3.79763 6.98275 
40 1 10.0303 0.734348 10.035 
41 1 8.4948 2.27074 8.49479 
42 1 9.20064 1.56451 9.20278 
7 1 6.18132 6.18765 4.60668 
8 1 7.68388 7.68468 3.08365 
9 1 6.97832 6.9817 3.79884 
43 1 10.0366 10.0322 0.741354 
44 1 8.49223 8.49322 2.27294 
45 1 9.20167 9.20015 1.56941 
22 1 6.24693 6.24798 6.24829 
23 1 7.77811 7.77965 7.77916 
24 1 7.07039 7.07172 7.07158 
34 1 10.0924 10.0814 10.0854 
35 1 8.58303 8.58439 8.58327 
36 1 9.29498 9.29051 9.29179 
ITEM: TIMESTEP
100
ITEM: NUMBER OF ATOMS
49
ITEM: BOX BOUNDS pp pp pp
0.0000000000000000e+00 1.1000000000000000e+01
0.0000000000000000e+00 1.1002000000000001e+01
0.0000000000000000e+00 1.1000000000000000e+01
ITEM: ATOMS id type x y z 
10 1 4.62011 4.6275 4.62472 
11 1 3.13657 3.10434 3.11113 
12 1 3.8326 3.81896 3.82126 
46 1 0.819664 0.732976 0.728018 
47 1 2.24423 2.33788 2.32551 
48 1 1.44134 1.70035 1.66451 
49 2 1.88485 0.330469 0.50964 
19 1 4.54519 4.54688 6.2604 
20 1 3.00714 3.00539 7.77733 
21 1 3.71763 3.71747 7.07659 
31 1 0.63612 0.657904 9.97495 
32 1 2.20539 2.20272 8.58269 
33 1 1.46504 1.4739 9.23954 
16 1 4.54304 6.26183 4.54456 
17 1 3.00471 7.78101 3.00388 
18 1 3.71497 7.07958 3.71522 
25 1 0.637786 9.97213 0.648346 
26 1 2.19999 8.58627 2.20047 
27 1 1.46219 9.24079 1.46742 
4 1 4.60515 6.18603 6.18302 
5 1 3.08428 7.68443 7.68377 
6 1 3.799 6.98028 6.97851 
37 1 0.736163 10.0258 10.0283 
38 1 2.27754 8.49178 8.49155 
39 1 1.56882 9.19712 9.19815 
13 1 6.25708 4.54832 4.54863 
14 1 7.7725 3.00779 3.00802 
15 1 7.07241 3.71949 3.71975 
28 1 10.0202 0.662946 0.666712 
29 1 8.57623 2.2065 2.20656 
30 1 9.25562 1.48027 1.48207 
1 1 6.18464 4.60638 6.18802 
2 1 7.68593 3.08196 7.68602 
3 1 6.98112 3.79763 6.98276 
40 1 10.0303 0.734343 10.035 
41 1 8.4948 2.27073 8.49479 
42 1 9.20063 1.56451 9.20279 
7 1 6.18132 6.18765 4.60669 
8 1 7.68388 7.68468 3.08365 
9 1 6.97831 6.9817 3.79884 
43 1 10.0366 10.0322 0.741351 
44 1 8.49224 8.49321 2.27294 
45 1 9.20166 9.20016 1.5694 
22 1 6.24693 6.24798 6.24828 
23 1 7.77811 7.77965 7.77916 
24 1 7.0704 7.07172 7.07159 
34 1 10.0924 10.0814 10.0854 
35 1 8.58303 8.58439 8.58327 
36 1 9.29499 9.29051 9.29179 
ITEM: TIMESTEP
101
ITEM: NUMBER OF ATOMS
49
ITEM: BOX BOUNDS pp pp pp
0.0000000000000000e+00 1.1000000000000000e+01
0.0000000000000000e+00 1.1002000000000001e+01
0.0000000000000000e+00 1.1000000000000000e+01
ITEM: ATOMS id type x y z 
10 1 4.62011 4.6275 4.62472 
11 1 3.13657 3.10434 3.11113 
12 1 3.8326 3.81896 3.82126 
46 1 0.819664 0.732976 0.728018 
47 1 2.24423 2.33788 2.32551 
48 1 1.44134 1.70035 1.66451 
49 2 1.88485 0.330469 0.50964 
19 1 4.54519 4.54688 6.2604 
20 1 3.00714 3.00539 7.77733 
21 1 3.71763 3.71747 7.07659 
31 1 0.63612 0.657904 9.97495 
32 1 2.20539 2.20272 8.58269 
33 1 1.46504 1.4739 9.23954 
16 1 4.54304 6.26183 4.54456 
17 1 3.00471 7.78101 3.00388 
18 1 3.71497 7.07958 3.71522 
25 1 0.637786 9.97213 0.648346 
26 1 2.19999 8.58627 2.20047 
27 1 1.46219 9.24079 1.46742 
4 1 4.60515 6.18603 6.18302 
5 1 3.08428 7.68443 7.68377 
6 1 3.799 6.98028 6.97851 
37 1 0.736163 10.0258 10.0283 
38 1 2.27754 8.49178 8.49155 
39 1 1.56882 9.19712 9.19815 
13 1 6.25708 4.54832 4.54863 
14 1 7.7725 3.00779 3.00802 
15 1 7.07241 3.71949 3.71975 
28 1 10.0202 0.662947 0.666712 
29 1 8.57623 2.2065 2.20656 
30 1 9.25562 1.48027 1.48208 
1 1 6.18464 4.60638 6.18802 
2 1 7.68593 3.08196 7.68602 
3 1 6.98112 3.79763 6.98276 
40 1 10.0303 0.734343 10.035 
41 1 8.4948 2.27073 8.49479 
42 1 9.20063 1.56451 9.20279 
7 1 6.18132 6.18765 4.60669 
8 1 7.68388 7.68468 3.08365 
9 1 6.97831 6.9817 3.79884 
43 1 10.0366 10.0322 0.741351 
44 1 8.49224 8.49321 2.27294 
45 1 9.20166 9.20016 1.5694 
22 1 6.24693 6.24798 6.24828 
23 1 7.77811 7.77965 7.77916 
24 1 7.0704 7.07172 7.07159 
34 1 10.0924 10.0814 10.0854 
35 1 8.58303 8.58439 8.58327 
36 1 9.29499 9.29051 9.29179 
ITEM: TIMESTEP
102
ITEM: NUMBER OF ATOMS
49
ITEM: BOX BOUNDS pp pp pp
0.0000000000000000e+00 1.1000000000000000e+01
0.0000000000000000e+00 1.1002000000000001e+01
0.0000000000000000e+00 1.1000000000000000e+01
ITEM: ATOMS id type x y z 
10 1 4.62011 4.6275 4.62472 
11 1 3.13657 3.10434 3.11113 
12 1 3.8326 3.81896 3.82126 
46 1 0.819664 0.732976 0.728018 
47 1 2.24423 2.33788 2.32551 
48 1 1.44134 1.70035 1.66451 
49 2 1.88485 0.330469 0.50964 
19 1 4.54519 4.54688 6.2604 
20 1 3.00714 3.00539 7.77733 
21 1 3.71763 3.71747 7.07659 
31 1 0.63612 0.657904 9.97495 
32 1 2.20539 2.20272 8.58269 
33 1 1.46504 1.4739 9.23954 
16 1 4.54304 6.26183 4.54456 
17 1 3.00471 7.78101 3.00388 
18 1 3.71497 7.07958 3.71522 
25 1 0.637786 9.97213 0.648346 
26 1 2.19999 8.58627 2.20046 
27 1 1.46219 9.24079 1.46742 
4 1 4.60515 6.18603 6.18302 
5 1 3.08428 7.68443 7.68377 
6 1 3.799 6.98028 6.97851 
37 1 0.736163 10.0258 10.0283 
38 1 2.27754 8.49178 8.49155 
39 1 1.56882 9.19712 9.19815 
13 1 6.25708 4.54832 4.54863 
14 1 7.7725 3.00779 3.00802 
15 1 7.07241 3.71949 3.71975 
28 1 10.0202 0.662947 0.666712 
29 1 8.57623 2.2065 2.20656 
30 1 9.25562 1.48027 1.48208 
1 1 6.18464 4.60638 6.18802 
2 1 7.68593 3.08196 7.68602 
3 1 6.98112 3.79763 6.98276 
40 1 10.0303 0.734343 10.035 
41 1 8.4948 2.27073 8.49479 
42 1 9.20063 1.56451 9.20279 
7 1 6.18132 6.18765 4.60669 
8 1 7.68388 7.68468 3.08365 
9 1 6.97831 6.9817 3.79884 
43 1 10.0366 10.0322 0.741351 
44 1 8.49224 8.49321 2.27294 
45 1 9.20166 9.20016 1.5694 
22 1 6.24693 6.24798 6.24828 
23 1 7.77811 7.77965 7.77916 
24 1 7.0704 7.07172 7.07159 
34 1 10.0924 10.0814 10.0854 
35 1 8.58303 8.58439 8.58327 
36 1 9.29499 9.29051 9.29179 
ITEM: TIMESTEP
110
ITEM: NUMBER OF ATOMS
49
ITEM: BOX BOUNDS pp pp pp
-4.1515293942180152e-03 1.1004151529394218e+01
-4.4008000000000016e-03 1.1006400800000000e+01
-4.3646920997130944e-03 1.1004364692099713e+01
ITEM: ATOMS id type x y z 
10 1 4.61947 4.62682 4.62405 
11 1 3.13479 3.10243 3.10924 
12 1 3.83134 3.81761 3.81992 
46 1 0.816124 0.729158 0.724225 
47 1 2.24175 2.33534 2.32299 
48 1 1.43829 1.69732 1.66148 
49 2 1.88212 0.326326 0.505679 
19 1 4.54448 4.54613 6.26099 
20 1 3.00527 3.00341 7.77913 
21 1 3.7163 3.71606 7.07783 
31 1 0.632426 0.654008 9.97851 
32 1 2.2029 2.20007 8.58514 
33 1 1.46199 1.47068 9.2425 
16 1 4.54233 6.26242 4.54382 
17 1 3.00284 7.78283 3.0019 
18 1 3.71364 7.08084 3.71382 
25 1 0.634091 9.97571 0.644472 
26 1 2.19749 8.58874 2.19784 
27 1 1.45914 9.24378 1.46423 
4 1 4.6045 6.18656 6.18354 
5 1 3.08247 7.68617 7.6855 
6 1 3.79771 6.98147 6.97969 
37 1 0.732549 10.0294 10.0319 
38 1 2.2751 8.49418 8.49393 
39 1 1.56584 9.20008 9.2011 
13 1 6.25764 4.54758 4.54789 
14 1 7.77421 3.00581 3.00605 
15 1 7.07358 3.71807 3.71835 
28 1 10.0237 0.659058 0.662859 
29 1 8.57855 2.20386 2.20394 
30 1 9.25845 1.47706 1.47889 
1 1 6.18514 4.60569 6.18854 
2 1 7.68757 3.08003 7.68775 
3 1 6.98225 3.79626 6.98394 
40 1 10.0338 0.730514 10.0386 
41 1 8.49707 2.26814 8.49717 
42 1 9.20344 1.56134 9.20574 
7 1 6.18182 6.18818 4.606 
8 1 7.68553 7.68642 3.08174 
9 1 6.97943 6.9829 3.79748 
43 1 10.0401 10.0359 0.73756 
44 1 8.49451 8.49561 2.27037 
45 1 9.20446 9.20313 1.56627 
22 1 6.24748 6.24857 6.24886 
23 1 7.77983 7.78147 7.78097 
24 1 7.07157 7.07296 7.07282 
34 1 10.0959 10.0851 10.089 
35 1 8.58537 8.58686 8.58573 
36 1 9.29785 9.29354 9.29479 
ITEM: TIMESTEP
120
ITEM: NUMBER OF ATOMS
49
ITEM: BOX BOUNDS pp pp pp
-4.2517401534159357e-03 1.1004251740153414e+01
-9.9018000000000023e-03 1.1011901799999999e+01
-9.0104186469290842e-03 1.1009010418646930e+01
ITEM: ATOMS id type x y z 
10 1 4.62011 4.62656 4.62394 
11 1 3.13491 3.10023 3.10743 
12 1 3.83107 3.81567 3.81822 
46 1 0.815847 0.724266 0.720027 
47 1 2.24115 2.33204 2.32012 
48 1 1.43872 1.69376 1.6585 
49 2 1.88207 0.321056 0.501451 
19 1 4.545 4.54569 6.26111 
20 1 3.00558 3.00126 7.78076 
21 1 3.7166 3.71461 7.07885 
31 1 0.631556 0.648459 9.98246 
32 1 2.20265 2.19661 8.58792 
33 1 1.46209 1.4668 9.24529 
16 1 4.54283 6.26265 4.54351 
17 1 3.00314 7.78481 3.00014 
18 1 3.71394 7.08212 3.71264 
25 1 0.633224 9.98037 0.639594 
26 1 2.19726 8.59202 2.19486 
27 1 1.45921 9.24712 1.461 
4 1 4.60516 6.18658 6.18345 
5 1 3.08264 7.68815 7.68713 
6 1 3.79746 6.98319 6.98117 
37 1 0.731894 10.0343 10.0361 
38 1 2.27473 8.4975 8.49679 
39 1 1.56537 9.20411 9.20456 
13 1 6.25714 4.54714 4.54761 
14 1 7.77394 3.00365 3.0043 
15 1 7.0733 3.71664 3.71718 
28 1 10.0239 0.653559 0.658137 
29 1 8.57877 2.20042 2.20102 
30 1 9.25823 1.47319 1.47562 
1 1 6.1845 4.60547 6.18847 
2 1 7.68742 3.0778 7.6894 
3 1 6.98253 3.79433 6.98544 
40 1 10.0343 0.725253 10.0428 
41 1 8.49745 2.26459 8.50006 
42 1 9.20382 1.55705 9.20916 
7 1 6.18119 6.18821 4.60592 
8 1 7.68537 7.68841 3.0799 
9 1 6.97969 6.98463 3.79581 
43 1 10.0406 10.0407 0.733043 
44 1 8.49489 8.49896 2.26732 
45 1 9.20486 9.20713 1.56259 
22 1 6.24699 6.24879 6.24898 
23 1 7.77956 7.78344 7.78258 
24 1 7.07128 7.07422 7.07383 
34 1 10.0967 10.0903 10.0936 
35 1 8.58563 8.59015 8.58854 
36 1 9.2977 9.2971 9.29776 
ITEM: TIMESTEP
130
ITEM: NUMBER OF ATOMS
49
ITEM: BOX BOUNDS pp pp pp
-2.4087566144044654e-03 1.1002408756614402e+01
-1.5402799999999998e-02 1.1017402799999997e+01
-1.3404884301348931e-02 1.1013404884301350e+01
ITEM: ATOMS id type x y z 
10 1 4.62137 4.6266 4.62416 
11 1 3.13594 3.09812 3.10581 
12 1 3.83131 3.81366 3.81654 
46 1 0.817158 0.719345 0.715988 
47 1 2.24156 2.3288 2.31744 
48 1 1.44062 1.69009 1.6556 
49 2 1.88328 0.315735 0.497453 
19 1 4.54611 4.54551 6.26091 
20 1 3.00712 2.99948 7.78196 
21 1 3.71751 3.71313 7.07983 
31 1 0.632064 0.642547 9.9863 
32 1 2.20355 2.19309 8.59058 
33 1 1.46361 1.46301 9.24774 
16 1 4.54393 6.26263 4.54352 
17 1 3.00468 7.78649 2.99886 
18 1 3.71482 7.0834 3.71151 
25 1 0.633687 9.9851 0.634581 
26 1 2.19812 8.59531 2.19201 
27 1 1.4608 9.25032 1.45797 
4 1 4.60646 6.18629 6.18302 
5 1 3.08372 7.69007 7.68862 
6 1 3.79774 6.98498 6.98266 
37 1 0.732634 10.0393 10.0403 
38 1 2.27515 8.5012 8.49987 
39 1 1.56629 9.20806 9.20779 
13 1 6.25611 4.54699 4.54765 
14 1 7.77254 3.00187 3.003 
15 1 7.07248 3.71517 3.71607 
28 1 10.0227 0.647788 0.653353 
29 1 8.57797 2.19694 2.1982 
30 1 9.25649 1.46939 1.47263 
1 1 6.18332 4.60557 6.18807 
2 1 7.68646 3.07563 7.69092 
3 1 6.98237 3.79231 6.98697 
40 1 10.0334 0.719722 10.0469 
41 1 8.4971 2.26069 8.50317 
42 1 9.20287 1.55277 9.21236 
7 1 6.18001 6.18794 4.6062 
8 1 7.6844 7.69035 3.07822 
9 1 6.97952 6.98644 3.79412 
43 1 10.0397 10.0458 0.728477 
44 1 8.49457 8.50268 2.26407 
45 1 9.20393 9.21105 1.55911 
22 1 6.24598 6.24874 6.2488 
23 1 7.77814 7.78508 7.78376 
24 1 7.07049 7.07552 7.07481 
34 1 10.0961 10.0958 10.0982 
35 1 8.58485 8.59349 8.59128 
36 1 9.29614 9.3006 9.30049 
ITEM: TIMESTEP
140
ITEM: NUMBER OF ATOMS
49
ITEM: BOX BOUNDS pp pp pp
-5.7818399933429654e-04 1.1000578183999329e+01
-2.0542829058563139e-02 1.1022542829058560e+01
-1.7563189147086399e-02 1.1017563189147088e+01
ITEM: ATOMS id type x y z 
10 1 4.62264 4.62672 4.62441 
11 1 3.13696 3.09618 3.10429 
12 1 3.83157 3.8118 3.81499 
46 1 0.818483 0.714773 0.712175 
47 1 2.24194 2.32584 2.31495 
48 1 1.44248 1.68654 1.65273 
49 2 1.88446 0.310746 0.493679 
19 1 4.54726 4.54545 6.26061 
20 1 3.00877 2.99798 7.78295 
21 1 3.71835 3.7117 7.08083 
31 1 0.63251 0.636925 9.98993 
32 1 2.20442 2.18981 8.59305 
33 1 1.46517 1.45948 9.25005 
16 1 4.54507 6.26247 4.54362 
17 1 3.00632 7.78789 2.99781 
18 1 3.71566 7.0847 3.7104 
25 1 0.634134 9.98954 0.629723 
26 1 2.199 8.59834 2.18931 
27 1 1.46235 9.25327 1.45514 
4 1 4.60775 6.18592 6.18253 
5 1 3.08476 7.69186 7.69004 
6 1 3.79804 6.9867 6.98407 
37 1 0.733292 10.0441 10.0443 
38 1 2.27545 8.50483 8.50294 
39 1 1.56728 9.21167 9.21079 
13 1 6.25504 4.54695 4.54778 
14 1 7.77103 3.00036 3.00193 
15 1 7.07178 3.71374 3.71499 
28 1 10.0215 0.642332 0.648782 
29 1 8.57714 2.19367 2.19555 
30 1 9.25472 1.46591 1.46984 
1 1 6.18214 4.60573 6.18761 
2 1 7.68551 3.07358 7.69235 
3 1 6.98222 3.79042 6.98843 
40 1 10.0326 0.714425 10.0508 
41 1 8.49688 2.25688 8.50626 
42 1 9.20186 1.54881 9.21535 
7 1 6.17883 6.18763 4.60656 
8 1 7.68346 7.69219 3.07665 
9 1 6.97934 6.98812 3.79248 
43 1 10.0389 10.0505 0.724036 
44 1 8.49436 8.5063 2.26085 
45 1 9.20292 9.21469 1.55588 
22 1 6.24494 6.24859 6.24853 
23 1 7.77662 7.78645 7.78473 
24 1 7.0698 7.0768 7.0758 
34 1 10.0956 10.1011 10.1026 
35 1 8.58403 8.59663 8.59387 
36 1 9.29466 9.30382 9.30304 
ITEM: TIMESTEP
150
ITEM: NUMBER OF ATOMS
49
ITEM: BOX BOUNDS pp pp pp
2.2574507104814901e-04 1.0999774254928946e+01
-2.5645637609155617e-02 1.1027645637609151e+01
-2.1974238023663016e-02 1.1021974238023665e+01
ITEM: ATOMS id type x y z 
10 1 4.62365 4.62677 4.62455 
11 1 3.13751 3.09426 3.10265 
12 1 3.83159 3.80997 3.81342 
46 1 0.818981 0.710275 0.708183 
47 1 2.2417 2.32292 2.31233 
48 1 1.44356 1.68292 1.64961 
49 2 1.88495 0.305794 0.489685 
19 1 4.5482 4.54538 6.26038 
20 1 3.00995 2.99648 7.78409 
21 1 3.71882 3.71026 7.08192 
31 1 0.632167 0.631399 9.99377 
32 1 2.20474 2.18655 8.59563 
33 1 1.46589 1.45598 9.25251 
16 1 4.54599 6.26234 4.54366 
17 1 3.00748 7.78931 2.99662 
18 1 3.71612 7.08599 3.70917 
25 1 0.633772 9.99394 0.624717 
26 1 2.19929 8.60131 2.18648 
27 1 1.46313 9.25622 1.45209 
4 1 4.60882 6.18566 6.18215 
5 1 3.08538 7.69371 7.69158 
6 1 3.79795 6.9883 6.98555 
37 1 0.733072 10.0488 10.0485 
38 1 2.27518 8.50839 8.50614 
39 1 1.56758 9.21525 9.21389 
13 1 6.25416 4.5469 4.54785 
14 1 7.76998 2.99886 3.00073 
15 1 7.07138 3.7123 3.71377 
28 1 10.0211 0.637014 0.644054 
29 1 8.57682 2.19048 2.19274 
30 1 9.25369 1.46244 1.46694 
1 1 6.18119 4.60586 6.18729 
2 1 7.68502 3.07158 7.69393 
3 1 6.98231 3.78849 6.9899 
40 1 10.0326 0.709167 10.0549 
41 1 8.49719 2.25312 8.50949 
42 1 9.20152 1.54488 9.21844 
7 1 6.17784 6.18736 4.60674 
8 1 7.68292 7.69402 3.07489 
9 1 6.97948 6.98983 3.79088 
43 1 10.0389 10.0551 0.719401 