LAMMPS (3 Mar 2020)
# Alpha
clear
units		real
dimension 3
boundary        p p p
atom_style	charge
newton on
read_data       OOH_2.lmp
  orthogonal box = (0 0 0) to (14.19 14.19 14.19)
  2 by 2 by 2 MPI processor grid
  reading atoms ...
  67 atoms
  read_data CPU = 0.00935943 secs

timestep 0.25

# ---------- Define Interatomic Potential ---------------------
pair_style      reax/c NULL checkqeq no
pair_coeff      * * ffield.reax C H O
fix             2 all qeq/reax 1 0.0 10.0 1.0e-6 reax/c

#------------ Equilibration of the system -------------------------
reset_timestep 0

dump 1 all custom 10 min.lammpstrj id type x y z

minimize 1.0e-8 1.0e-8 100000 100000
WARNING: Using 'neigh_modify every 1 delay 0 check yes' setting during minimization (../min.cpp:190)
WARNING: Total cutoff < 2*bond cutoff. May need to use an increased neighbor list skin. (../pair_reaxc.cpp:413)
Neighbor list info ...
  update every 1 steps, delay 0 steps, check yes
  max neighbors/atom: 2000, page size: 100000
  master list distance cutoff = 9.5
  ghost atom cutoff = 9.5
  binsize = 4.75, bins = 3 3 3
  2 neighbor lists, perpetual/occasional/extra = 2 0 0
  (1) pair reax/c, perpetual
      attributes: half, newton off, ghost
      pair build: half/bin/newtoff/ghost
      stencil: half/ghost/bin/3d/newtoff
      bin: standard
  (2) fix qeq/reax, perpetual, copy from (1)
      attributes: half, newton off, ghost
      pair build: copy
      stencil: none
      bin: none
Per MPI rank memory allocation (min/avg/max) = 15.46 | 15.46 | 15.46 Mbytes
Step Temp E_pair E_mol TotEng Press 
       0            0   -11315.538            0   -11315.538    1617.7007 
     168            0   -11412.659            0   -11412.659    3918.7811 
Loop time of 2.69548 on 8 procs for 168 steps with 67 atoms

99.5% CPU use with 8 MPI tasks x no OpenMP threads

Minimization stats:
  Stopping criterion = energy tolerance
  Energy initial, next-to-last, final = 
        -11315.5375226     -11412.6589561     -11412.6590562
  Force two-norm initial, final = 387.877 92.6938
  Force max component initial, final = 106.822 15.7941
  Final line search alpha, max atom move = 1.20302e-07 1.90006e-06
  Iterations, force evaluations = 168 1431

MPI task timing breakdown:
Section |  min time  |  avg time  |  max time  |%varavg| %total
---------------------------------------------------------------
Pair    | 1.2701     | 1.3062     | 1.3414     |   2.2 | 48.46
Neigh   | 0          | 0          | 0          |   0.0 |  0.00
Comm    | 0.035514   | 0.072206   | 0.10952    |   9.8 |  2.68
Output  | 0.00026746 | 0.00037342 | 0.00052721 |   0.0 |  0.01
Modify  | 1.3064     | 1.3069     | 1.3079     |   0.0 | 48.48
Other   |            | 0.009813   |            |       |  0.36

Nlocal:    8.375 ave 10 max 8 min
Histogram: 6 0 0 0 0 1 0 0 0 1
Nghost:    401.625 ave 402 max 400 min
Histogram: 1 0 0 0 0 1 0 0 0 6
Neighs:    582.375 ave 703 max 545 min
Histogram: 5 1 0 0 0 1 0 0 0 1

Total # of neighbors = 4659
Ave neighs/atom = 69.5373
Neighbor list builds = 0
Dangerous builds = 0

###
min_style cg
minimize 1.0e-8 1.0e-8 100000 100000
WARNING: Using 'neigh_modify every 1 delay 0 check yes' setting during minimization (../min.cpp:190)
WARNING: Total cutoff < 2*bond cutoff. May need to use an increased neighbor list skin. (../pair_reaxc.cpp:413)
Per MPI rank memory allocation (min/avg/max) = 15.46 | 15.46 | 15.46 Mbytes
Step Temp E_pair E_mol TotEng Press 
     168            0   -11412.659            0   -11412.659    3918.7811 
     170            0   -11412.659            0   -11412.659    3918.8175 
Loop time of 0.0601831 on 8 procs for 2 steps with 67 atoms

99.6% CPU use with 8 MPI tasks x no OpenMP threads

Minimization stats:
  Stopping criterion = energy tolerance
  Energy initial, next-to-last, final = 
        -11412.6590562     -11412.6593523     -11412.6593642
  Force two-norm initial, final = 92.6938 88.2034
  Force max component initial, final = 15.7941 15.8862
  Final line search alpha, max atom move = 1.08117e-07 1.71756e-06
  Iterations, force evaluations = 2 37

MPI task timing breakdown:
Section |  min time  |  avg time  |  max time  |%varavg| %total
---------------------------------------------------------------
Pair    | 0.033616   | 0.034579   | 0.035333   |   0.3 | 57.46
Neigh   | 0          | 0          | 0          |   0.0 |  0.00
Comm    | 0.00083026 | 0.0016029  | 0.0025827  |   1.6 |  2.66
Output  | 0          | 0          | 0          |   0.0 |  0.00
Modify  | 0.023727   | 0.023736   | 0.02375    |   0.0 | 39.44
Other   |            | 0.0002649  |            |       |  0.44

Nlocal:    8.375 ave 10 max 7 min
Histogram: 1 0 0 4 0 0 2 0 0 1
Nghost:    401.625 ave 403 max 400 min
Histogram: 1 0 0 2 0 0 4 0 0 1
Neighs:    595.25 ave 711 max 500 min
Histogram: 1 0 0 4 0 1 1 0 0 1

Total # of neighbors = 4762
Ave neighs/atom = 71.0746
Neighbor list builds = 0
Dangerous builds = 0

###
fix 1 all box/relax aniso 0.0
min_style cg
minimize 1.0e-8 1.0e-8 100000 100000
WARNING: Using 'neigh_modify every 1 delay 0 check yes' setting during minimization (../min.cpp:190)
WARNING: Total cutoff < 2*bond cutoff. May need to use an increased neighbor list skin. (../pair_reaxc.cpp:413)
Per MPI rank memory allocation (min/avg/max) = 15.46 | 15.46 | 15.46 Mbytes
Step Temp E_pair E_mol TotEng Press Volume 
     170            0   -11412.659            0   -11412.659    3918.8175    2857.2431 
    2818            0   -11489.569            0   -11489.569   -47.123792    2794.0956 
Loop time of 4.69774 on 8 procs for 2648 steps with 67 atoms

99.6% CPU use with 8 MPI tasks x no OpenMP threads

Minimization stats:
  Stopping criterion = energy tolerance
  Energy initial, next-to-last, final = 
        -11412.6593642     -11489.5687417     -11489.5687985
  Force two-norm initial, final = 323.109 126.426
  Force max component initial, final = 265.957 22.65
  Final line search alpha, max atom move = 4.31695e-06 9.77788e-05
  Iterations, force evaluations = 2648 2995

MPI task timing breakdown:
Section |  min time  |  avg time  |  max time  |%varavg| %total
---------------------------------------------------------------
Pair    | 2.9194     | 2.978      | 3.0415     |   2.7 | 63.39
Neigh   | 0.0012264  | 0.0012428  | 0.0012592  |   0.0 |  0.03
Comm    | 0.072208   | 0.13796    | 0.19838    |  12.7 |  2.94
Output  | 0.0040114  | 0.0050473  | 0.0063387  |   1.0 |  0.11
Modify  | 1.5066     | 1.5071     | 1.5078     |   0.0 | 32.08
Other   |            | 0.06842    |            |       |  1.46

Nlocal:    8.375 ave 10 max 7 min
Histogram: 1 0 0 4 0 0 2 0 0 1
Nghost:    429.625 ave 436 max 422 min
Histogram: 2 0 0 0 1 1 0 2 0 2
Neighs:    655.75 ave 794 max 549 min
Histogram: 1 0 2 2 0 0 2 0 0 1

Total # of neighbors = 5246
Ave neighs/atom = 78.2985
Neighbor list builds = 3
Dangerous builds = 0

unfix 1
###
min_style cg
minimize 1.0e-8 1.0e-8 100000 100000
WARNING: Using 'neigh_modify every 1 delay 0 check yes' setting during minimization (../min.cpp:190)
WARNING: Total cutoff < 2*bond cutoff. May need to use an increased neighbor list skin. (../pair_reaxc.cpp:413)
Per MPI rank memory allocation (min/avg/max) = 15.46 | 15.61 | 16.05 Mbytes
Step Temp E_pair E_mol TotEng Press 
    2818            0   -11489.569            0   -11489.569   -47.123792 
    2858            0   -11491.376            0   -11491.376   -672.80694 
Loop time of 1.00444 on 8 procs for 40 steps with 67 atoms

99.6% CPU use with 8 MPI tasks x no OpenMP threads

Minimization stats:
  Stopping criterion = energy tolerance
  Energy initial, next-to-last, final = 
        -11489.5687985     -11491.3763282     -11491.3763917
  Force two-norm initial, final = 126.081 74.8198
  Force max component initial, final = 22.65 15.6684
  Final line search alpha, max atom move = 7.66898e-07 1.2016e-05
  Iterations, force evaluations = 40 518

MPI task timing breakdown:
Section |  min time  |  avg time  |  max time  |%varavg| %total
---------------------------------------------------------------
Pair    | 0.52693    | 0.53994    | 0.55461    |   1.3 | 53.76
Neigh   | 0          | 0          | 0          |   0.0 |  0.00
Comm    | 0.012177   | 0.02712    | 0.040341   |   5.7 |  2.70
Output  | 6.8939e-05 | 8.6661e-05 | 0.0001123  |   0.0 |  0.01
Modify  | 0.43379    | 0.43403    | 0.43419    |   0.0 | 43.21
Other   |            | 0.003264   |            |       |  0.32

Nlocal:    8.375 ave 10 max 7 min
Histogram: 1 0 0 4 0 0 2 0 0 1
Nghost:    415.625 ave 420 max 410 min
Histogram: 1 1 1 1 0 0 0 0 0 4
Neighs:    653 ave 786 max 539 min
Histogram: 1 0 1 3 0 0 1 1 0 1

Total # of neighbors = 5224
Ave neighs/atom = 77.9701
Neighbor list builds = 0
Dangerous builds = 0

###
fix 1 all box/relax aniso 0.0
min_style cg
minimize 1.0e-8 1.0e-8 100000 100000
WARNING: Using 'neigh_modify every 1 delay 0 check yes' setting during minimization (../min.cpp:190)
WARNING: Total cutoff < 2*bond cutoff. May need to use an increased neighbor list skin. (../pair_reaxc.cpp:413)
Per MPI rank memory allocation (min/avg/max) = 15.46 | 15.61 | 16.05 Mbytes
Step Temp E_pair E_mol TotEng Press Volume 
    2858            0   -11491.376            0   -11491.376   -672.80694    2794.0956 
    3085            0   -11493.246            0   -11493.246      15.4962    2807.0368 
Loop time of 0.815267 on 8 procs for 227 steps with 67 atoms

99.5% CPU use with 8 MPI tasks x no OpenMP threads

Minimization stats:
  Stopping criterion = energy tolerance
  Energy initial, next-to-last, final = 
        -11491.3763917     -11493.2455539      -11493.245616
  Force two-norm initial, final = 145.587 84.5827
  Force max component initial, final = 112.956 15.1717
  Final line search alpha, max atom move = 6.40227e-08 9.71333e-07
  Iterations, force evaluations = 227 508

MPI task timing breakdown:
Section |  min time  |  avg time  |  max time  |%varavg| %total
---------------------------------------------------------------
Pair    | 0.50752    | 0.52229    | 0.53662    |   1.4 | 64.06
Neigh   | 0          | 0          | 0          |   0.0 |  0.00
Comm    | 0.011754   | 0.026349   | 0.041325   |   6.1 |  3.23
Output  | 0.00035616 | 0.00044902 | 0.00057013 |   0.0 |  0.06
Modify  | 0.25649    | 0.25668    | 0.25681    |   0.0 | 31.48
Other   |            | 0.009506   |            |       |  1.17

Nlocal:    8.375 ave 10 max 7 min
Histogram: 1 0 0 4 0 0 2 0 0 1
Nghost:    417.125 ave 422 max 412 min
Histogram: 1 1 1 1 0 0 0 1 1 2
Neighs:    653 ave 785 max 539 min
Histogram: 1 0 1 3 0 0 1 1 0 1

Total # of neighbors = 5224
Ave neighs/atom = 77.9701
Neighbor list builds = 0
Dangerous builds = 0

unfix 1
###
min_style cg
minimize 1.0e-8 1.0e-8 100000 100000
WARNING: Using 'neigh_modify every 1 delay 0 check yes' setting during minimization (../min.cpp:190)
WARNING: Total cutoff < 2*bond cutoff. May need to use an increased neighbor list skin. (../pair_reaxc.cpp:413)
Per MPI rank memory allocation (min/avg/max) = 15.46 | 15.61 | 16.05 Mbytes
Step Temp E_pair E_mol TotEng Press 
    3085            0   -11493.246            0   -11493.246    15.496201 
    3086            0   -11493.246            0   -11493.246    15.498878 
Loop time of 0.0419435 on 8 procs for 1 steps with 67 atoms

99.5% CPU use with 8 MPI tasks x no OpenMP threads

Minimization stats:
  Stopping criterion = energy tolerance
  Energy initial, next-to-last, final = 
         -11493.245616      -11493.245616     -11493.2456379
  Force two-norm initial, final = 84.1391 81.3749
  Force max component initial, final = 15.1717 15.0647
  Final line search alpha, max atom move = 2.51435e-08 3.78781e-07
  Iterations, force evaluations = 1 22

MPI task timing breakdown:
Section |  min time  |  avg time  |  max time  |%varavg| %total
---------------------------------------------------------------
Pair    | 0.023355   | 0.023987   | 0.024645   |   0.3 | 57.19
Neigh   | 0          | 0          | 0          |   0.0 |  0.00
Comm    | 0.00050394 | 0.0011799  | 0.001827   |   1.3 |  2.81
Output  | 0          | 0          | 0          |   0.0 |  0.00
Modify  | 0.016597   | 0.016599   | 0.016602   |   0.0 | 39.57
Other   |            | 0.0001774  |            |       |  0.42

Nlocal:    8.375 ave 10 max 7 min
Histogram: 1 0 0 4 0 0 2 0 0 1
Nghost:    415.625 ave 420 max 410 min
Histogram: 1 1 1 1 0 0 0 0 0 4
Neighs:    639 ave 770 max 530 min
Histogram: 1 0 0 4 0 0 2 0 0 1

Total # of neighbors = 5112
Ave neighs/atom = 76.2985
Neighbor list builds = 0
Dangerous builds = 0

undump 1
#############
#----------- Thermo ------------
reset_timestep 0
thermo  200

thermo_style    custom step temp etotal ke pe press
velocity all create 300 12345 mom yes rot yes
fix 1 all npt temp 300 300 25.0 iso 0.0 0.0 250.0

variable vpe equal pe
variable vtemp equal temp
variable vstep equal step

fix output all print 2500 "${vstep} ${vtemp} ${vpe}" file temp-tpdh-Pt.dat screen no

dump 1 all custom 2500 thermo-tpdh-Pt.lammpstrj id type x y z

run 1000000
WARNING: Total cutoff < 2*bond cutoff. May need to use an increased neighbor list skin. (../pair_reaxc.cpp:413)
Per MPI rank memory allocation (min/avg/max) = 14.34 | 14.48 | 14.92 Mbytes
Step Temp TotEng KinEng PotEng Press 
       0          300   -11434.226    59.020039   -11493.246    976.63352 
     200    247.78953    -11410.32    48.748492   -11459.068    1736.1908 
     400    326.39864   -11381.366    64.213535   -11445.579    663.02273 
     600    314.65119   -11386.808    61.902419   -11448.711    9244.5606 
     800    292.00981   -11393.007    57.448102   -11450.455    1142.1159 
    1000    286.44794   -11384.844    56.353895   -11441.198   -4313.1134 
    1200    318.46565   -11382.833    62.652851   -11445.486   -14172.862 
    1400    281.04264   -11395.485    55.290491   -11450.775    3751.4051 
    1600    282.30652   -11390.159    55.539139   -11445.698    791.58527 
    1800    330.39007   -11373.595    64.998782   -11438.594    4642.6485 
    2000    315.40897   -11387.558    62.051498    -11449.61   -22366.699 
    2200    268.29197   -11404.809    52.782009   -11457.591   -13494.697 
    2400    287.74466   -11395.303    56.609003   -11451.912   -5334.4314 
    2600    309.47456   -11390.851    60.884002   -11451.735    15715.176 
    2800    323.63521   -11386.641    63.669876   -11450.311   -15946.577 
    3000    328.36781   -11371.765    64.600937   -11436.366    7843.0509 
    3200     292.3521   -11389.897    57.515442   -11447.413    6568.3788 
    3400    306.13751    -11385.08    60.227493   -11445.307   -5747.0036 
    3600    350.31635   -11374.923    68.918949   -11443.842   -14632.445 
    3800    258.91179   -11395.151    50.936613   -11446.088   -11880.693 
    4000    280.88681   -11393.491    55.259835    -11448.75   -275.77071 
    4200    270.87784   -11399.402    53.290736   -11452.693   -13661.355 
    4400    310.44104   -11378.187    61.074141   -11439.262    6240.0423 
    4600    271.78624   -11392.815    53.469447   -11446.284    8208.6354 
    4800    293.43744   -11388.598    57.728964   -11446.327    1140.4927 
    5000    322.72358   -11380.933    63.490529   -11444.424    1631.0646 
    5200    294.24551   -11392.656    57.887937   -11450.544    -6588.996 
    5400    266.29154   -11407.452    52.388457   -11459.841   -7261.4365 
    5600    305.12341   -11390.428    60.027986   -11450.456   -15180.046 
    5800    285.13174   -11384.596    56.094954   -11440.691   -16619.467 
    6000    271.68534   -11390.439    53.449598   -11443.888   -1209.7093 
    6200    243.08321   -11396.569    47.822601   -11444.392    -1553.595 
    6400    304.34653    -11381.16    59.875147   -11441.035    10518.713 
    6600    286.06185    -11386.46    56.277938   -11442.737    9744.9144 
    6800    365.41259   -11368.154    71.888884   -11440.043    1146.3264 
    7000    333.55129   -11384.776      65.6207   -11450.397    9388.7512 
    7200    320.56481   -11386.978    63.065825   -11450.044     1527.522 
    7400     300.1028   -11382.867    59.040262   -11441.907    3901.0159 
    7600     268.2963   -11393.337     52.78286   -11446.119    23987.347 
    7800    275.46878   -11392.191    54.193927   -11446.385   -4101.4243 
    8000    354.70911   -11369.984    69.783152   -11439.767    10541.115 
    8200    340.82575   -11377.711    67.051829   -11444.763   -12814.711 
    8400    298.04567   -11390.693    58.635557   -11449.329    13087.602 
    8600    300.25619   -11394.179    59.070439    -11453.25     8041.942 
    8800     281.5594   -11379.607    55.392155   -11434.999   -12020.814 
    9000    365.31129   -11370.375    71.868955   -11442.244    1455.9185 
    9200    331.73804   -11393.651    65.263973   -11458.915    7640.3287 
    9400    270.67911   -11399.884    53.251638   -11453.135     4678.446 
    9600    294.58526   -11378.863    57.954778   -11436.817   -8231.3825 
    9800    312.61099   -11384.847    61.501043   -11446.348   -4147.6272 
   10000     284.5836   -11387.937    55.987117   -11443.924   -13763.407 
   10200     301.0455   -11384.664    59.225723   -11443.889   -8639.1567 
   10400    285.52663   -11397.109    56.172642   -11453.282    1543.7588 
   10600     254.1345   -11399.721    49.996761   -11449.718    7245.7992 
   10800     324.0913   -11382.821    63.759604   -11446.581    11712.125 
   11000    281.35501   -11394.747    55.351946   -11450.099    106.73053 
   11200    254.78674   -11399.591    50.125079   -11449.716   -3385.1131 
   11400    306.00307   -11383.974    60.201043   -11444.175   -7244.7032 
   11600    273.04949   -11398.753    53.717971   -11452.471   -668.84344 
   11800    260.96563   -11404.474    51.340673   -11455.815    963.58191 
   12000    324.96543   -11386.775    63.931574   -11450.706    207.38135 
   12200    327.26575   -11372.175    64.384124   -11436.559    8260.0559 
   12400    344.22787   -11370.785    67.721141   -11438.506   -212.93106 
   12600    324.54832   -11383.988    63.849514   -11447.837    5777.6127 
   12800    363.27949    -11394.69    71.469231   -11466.159   -4714.7677 
   13000    231.00485   -11406.202    45.446385   -11451.649    4651.8143 
   13200    304.18891   -11389.595    59.844138   -11449.439    7552.3743 
   13400    317.10267   -11390.939    62.384706   -11453.324     6264.088 
   13600    309.00592       -11394    60.791805   -11454.792   -14033.161 
   13800    365.07305   -11375.048    71.822086    -11446.87   -9401.7767 
   14000    234.58904     -11390.6    46.151515   -11436.751   -4960.9671 
   14200    254.98958   -11387.034    50.164983   -11437.199    2708.8587 
   14400    325.61694   -11375.514    64.059747   -11439.574    14048.857 
   14600    296.11422   -11389.663    58.255575   -11447.919    2109.2106 
   14800    321.30461   -11386.861     63.21137   -11450.072    1114.4919 
   15000    337.52643   -11382.346    66.402743   -11448.749    6795.0299 
   15200    298.96785   -11398.916    58.816981   -11457.733   -403.81498 
   15400     317.7993   -11381.542    62.521757   -11444.064   -9712.0399 
   15600    256.42157   -11384.258    50.446703   -11434.705    12246.844 
   15800    253.38012   -11403.962    49.848349   -11453.811    1330.8296 
   16000    282.75809    -11398.61    55.627978   -11454.238    15030.711 
   16200    267.88988    -11386.95    52.702903   -11439.653   -13994.394 
   16400    325.20824   -11382.705    63.979342   -11446.685    10380.612 
   16600    252.87014   -11392.661    49.748018   -11442.409    23358.544 
   16800    303.86682   -11386.094    59.780772   -11445.874   -1482.4756 
   17000    340.14259   -11373.202     66.91743   -11440.119   -11638.587 
   17200    251.86069   -11395.873    49.549426   -11445.423   -2316.3544 
   17400     290.2612    -11385.97    57.104091   -11443.074   -14667.369 
   17600    319.93394   -11370.701    62.941713   -11433.643    10569.711 
   17800    247.83277   -11391.965    48.756998   -11440.722    2596.5671 
   18000    313.61591    -11383.72    61.698743   -11445.419    5466.5675 
   18200    260.48836   -11398.734    51.246777   -11449.981    11730.381 
   18400    328.99757   -11384.883     64.72483   -11449.608    2950.9758 
   18600    334.33487   -11386.276    65.774857   -11452.051   -4741.6207 
   18800    283.45003   -11382.441    55.764106   -11438.205    5782.8563 
   19000    352.22533   -11381.496    69.294509   -11450.791   -7678.8414 
   19200    257.24966   -11398.098    50.609616   -11448.708    13043.186 
   19400    337.24498   -11379.287    66.347373   -11445.635    11066.019 
   19600    289.18075   -11385.428     56.89153    -11442.32   -4224.5115 
   19800    270.24982   -11383.583    53.167183    -11436.75    1503.9158 
   20000    359.43743   -11365.201    70.713371   -11435.914   -1361.0573 
   20200    275.76957   -11389.992    54.253103   -11444.245    2489.1892 
   20400    302.17022    -11382.13    59.446994   -11441.577   -11498.241 
   20600    292.46581   -11388.343    57.537812   -11445.881    5306.5553 
   20800    282.47178   -11394.184    55.571652   -11449.755    16095.415 
   21000    328.14867   -11382.607    64.557825   -11447.164    3298.0275 
   21200    255.98286    -11396.67    50.360394    -11447.03   -11764.657 
   21400    298.25355   -11384.987    58.676454   -11443.663   -6596.8066 
   21600    268.09939   -11389.579    52.744121   -11442.324    218.18797 
   21800    335.12374   -11384.636    65.930054   -11450.566   -11621.272 
   22000    312.19162   -11389.894    61.418538   -11451.313    5303.5548 
   22200    278.29024     -11384.5    54.749004   -11439.249   -614.08778 
   22400    314.30461    -11369.64    61.834235   -11431.475    1056.7713 
   22600    283.09137   -11392.034    55.693545   -11447.728    -2051.359 
   22800    300.06553   -11391.754    59.032932   -11450.787    8466.1664 
   23000    327.80686   -11373.264     64.49058   -11437.754   -17932.941 
   23200    301.35892   -11388.294    59.287384   -11447.582   -21144.546 
   23400    302.53844   -11383.975    59.519435   -11443.495   -8240.6534 
   23600    316.88644   -11376.506    62.342167   -11438.848    19007.973 
   23800     316.4319   -11392.057    62.252743    -11454.31    13091.042 
   24000    339.36127   -11379.342    66.763718   -11446.106    -10469.18 
   24200    292.45166   -11376.002    57.535028   -11433.537    14838.091 
   24400    294.87967   -11392.592    58.012698   -11450.604   -523.68499 
   24600    298.70518   -11384.295    58.765305    -11443.06    -8801.121 
   24800    274.02983   -11373.924    53.910837   -11427.834   -4193.1913 
   25000    258.19753   -11388.919    50.796094   -11439.715    6134.1034 
   25200    305.03328   -11380.558    60.010254   -11440.569    4403.6568 
   25400    270.62222   -11387.629    53.240446   -11440.869   -27002.192 
   25600    299.25809   -11384.408     58.87408   -11443.282   -21685.654 
   25800    344.66122   -11371.972    67.806396   -11439.778   -1414.4767 
   26000    269.77826   -11387.659    53.074412   -11440.733   -7004.8592 
   26200    300.08401   -11382.741    59.036566   -11441.778    3354.9893 
   26400    402.89426   -11370.065    79.262783   -11449.327   -16286.011 
   26600    257.68777   -11390.604    50.695808     -11441.3   -1002.5888 
   26800    308.82779   -11379.048    60.756761   -11439.805    2452.3931 
   27000    267.52422    -11388.58    52.630966   -11441.211    7495.9524 
   27200    274.74086   -11396.375    54.050722   -11450.426    6000.9981 
   27400    301.40071   -11389.363    59.295606   -11448.658   -8388.7552 
   27600    351.67127   -11377.625    69.185507   -11446.811     -17719.2 
   27800    287.09369   -11392.199    56.480937    -11448.68    1397.9596 
   28000    300.71414   -11371.093    59.160534   -11430.253     12690.32 
   28200    303.79326   -11370.522      59.7663   -11430.289    15597.148 
   28400    324.61582    -11389.94    63.862794   -11453.803    8918.2747 
   28600     283.6759   -11392.508    55.808543   -11448.316    18611.761 
   28800    368.18367   -11369.387    72.434048   -11441.821    15605.885 
   29000    338.03546   -11384.546    66.502887   -11451.049    9040.8273 
   29200    304.14097   -11391.126    59.834706   -11450.961   -16014.928 
   29400     308.2369    -11394.03    60.640513    -11454.67    -9663.531 
   29600    298.17832   -11378.787    58.661654   -11437.449   -13623.847 
   29800    251.83933   -11391.728    49.545224   -11441.273   -2373.7037 
   30000    300.79539   -11400.622    59.176519   -11459.799    -2283.028 
   30200    296.55866   -11375.748    58.343012   -11434.091    7892.6272 
   30400    293.96351   -11379.287     57.83246    -11437.12     7532.671 
   30600    267.86145   -11397.812     52.69731   -11450.509   -10325.436 
   30800    344.25785   -11384.185    67.727038   -11451.912   -7368.9484 
   31000    264.32932   -11395.395    52.002423   -11447.397    822.08661 
   31200    322.67848   -11395.824    63.481654   -11459.306    5815.3384 
   31400    290.51402    -11390.23    57.153829   -11447.384    12426.982 
   31600    305.43339   -11370.368    60.088969   -11430.457    10259.626 
   31800    299.99515   -11380.206    59.019084   -11439.225   -12032.889 
   32000    307.24129   -11387.604    60.444642   -11448.049    6658.3775 
   32200    281.19956   -11393.598    55.321363   -11448.919   -6165.8417 
   32400    363.67194   -11373.506     71.54644   -11445.053    3275.0143 
   32600    315.84612   -11388.353      62.1375   -11450.491    -1467.882 
   32800    227.72278   -11396.415    44.800692   -11441.216    5190.8024 
   33000    257.39664   -11386.086    50.638533   -11436.725     21331.81 
   33200    300.07645    -11375.55     59.03508   -11434.585   -2679.7636 
   33400    298.25634   -11392.776    58.677002   -11451.453    -1830.159 
   33600    283.75698   -11386.275    55.824494     -11442.1    2561.8817 
   33800    331.37295   -11378.543    65.192148   -11443.735    30967.236 
   34000    287.07781   -11392.964    56.477813   -11449.441    15367.064 
   34200      263.165   -11399.198    51.773362   -11450.972    10339.614 
   34400    351.62534   -11375.048     69.17647   -11444.225    20797.387 
   34600     339.4289   -11378.059    66.777024   -11444.836   -732.43007 
   34800     272.9401    -11397.25    53.696451   -11450.946   -14930.019 
   35000    289.46798   -11388.099    56.948039   -11445.047    9274.5187 
   35200    270.21005   -11383.002    53.159359   -11436.161   -450.75436 
   35400    301.58555   -11390.222     59.33197   -11449.554    8530.7635 
   35600    281.21867   -11397.635    55.325122   -11452.961   -164.25508 
   35800    295.12024   -11381.881    58.060028   -11439.941   -5790.5992 
   36000    281.53297   -11381.497    55.386957   -11436.883   -3354.2743 
   36200    252.08134   -11394.243    49.592834   -11443.836   -5645.6112 
   36400    279.92813   -11389.119     55.07123    -11444.19   -7378.5462 
   36600    338.36705   -11374.873    66.568122   -11441.441   -7417.8203 
   36800    288.69074   -11389.135    56.795129    -11445.93   -11404.273 
   37000    343.28019   -11381.944    67.534702   -11449.479    22282.468 
   37200    346.95676   -11374.344    68.258005   -11442.602    9770.3866 
   37400    306.34952   -11385.757    60.269203   -11446.027    1283.1302 
   37600    306.10586   -11381.951    60.221266   -11442.172     12800.85 
   37800    312.93279   -11373.892    61.564351   -11435.457   -562.81832 
   38000    272.33719   -11391.304    53.577839   -11444.882   -2363.7673 
   38200    297.85344   -11388.846    58.597738   -11447.444    8123.3356 
   38400    297.64009   -11368.002    58.555766   -11426.558    9683.7021 
   38600    318.11843   -11382.661     62.58454   -11445.246    5458.6854 
   38800    309.75467   -11383.512    60.939108   -11444.451    9698.3954 
   39000    275.49956   -11387.571    54.199983   -11441.771    11365.349 
   39200    305.16482   -11387.368    60.036132   -11447.404   -3741.4318 
   39400     314.3069   -11371.305    61.834686    -11433.14   -2440.1852 
   39600    248.62025   -11385.463    48.911922   -11434.375    -229.7147 
   39800    309.23803   -11390.461    60.837468   -11451.298    2760.3013 
   40000    267.04448     -11401.1    52.536585   -11453.637   -3916.4365 
   40200    367.26453   -11382.794    72.253224   -11455.047      5043.41 
   40400     285.1964   -11392.347    56.107676   -11448.454    11069.042 
   40600    271.28598   -11400.742     53.37103   -11454.113    4439.0439 
   40800    324.85809   -11382.013    63.910457   -11445.924    3937.1915 
   41000    318.32511   -11376.567    62.625202   -11439.192     5548.733 
   41200    247.45911   -11398.162    48.683488   -11446.846   -5987.0863 
   41400     267.2401   -11391.937     52.57507   -11444.512    3075.0735 
   41600    313.39636    -11380.63     61.65555   -11442.286   -2592.8031 
   41800    241.26259   -11388.973    47.464425   -11436.437   -4605.4929 
   42000    265.18254   -11397.845    52.170279   -11450.015   -9250.4435 
   42200    321.10379   -11379.357     63.17186   -11442.529     10557.33 
   42400    326.06268   -11388.308     64.14744   -11452.456   -3808.5094 
   42600    280.59917   -11405.584    55.203247   -11460.787    1319.9799 
   42800    272.25827   -11387.925    53.562312   -11441.487     4523.086 
   43000    281.79578   -11383.804    55.438659   -11439.243    8223.5136 
   43200     376.6331   -11365.175    74.096335   -11439.272   -2495.7698 
   43400    236.48297   -11388.724    46.524114   -11435.248   -3116.5556 
   43600     316.2283   -11378.887    62.212689     -11441.1   -6992.9625 
   43800    317.44632   -11383.872    62.452314   -11446.324    11452.085 
   44000    296.51827   -11390.664    58.335066   -11448.999    -8838.685 
   44200    311.08246   -11395.016    61.200329   -11456.216    100.61879 
   44400    248.94979   -11400.193    48.976755   -11449.169    6033.9889 
   44600    273.08894   -11388.585    53.725732   -11442.311    234.74306 
   44800    224.38238    -11392.43    44.143524   -11436.573   -14986.039 
   45000    256.38928   -11397.275    50.440351   -11447.715   -4903.8579 
   45200    294.83977   -11387.401    58.004849   -11445.406    2664.8404 
   45400     314.0035   -11382.013    61.774997   -11443.788   -3964.1509 
   45600    320.44462    -11377.78    63.042179   -11440.823   -2012.7715 
   45800    305.48766   -11392.793    60.099645   -11452.892    4828.5927 
   46000    298.96087   -11388.001    58.815606   -11446.817   -1834.8382 
   46200    302.48035   -11378.555    59.508006   -11438.063    6398.0334 
   46400    230.32542   -11392.648    45.312718   -11437.961    1040.4318 
   46600    238.38346   -11411.031    46.898004   -11457.929    -2413.454 
   46800     285.4678    -11391.53    56.161068   -11447.691   -8536.7926 
   47000     386.2959   -11376.133    75.997331    -11452.13    13176.918 
   47200    295.40766   -11388.462    58.116573   -11446.579     7503.441 
   47400    295.74843   -11384.948    58.183613   -11443.132    16356.505 
   47600    268.18764   -11398.369    52.761482    -11451.13    6120.3206 
   47800    322.20798   -11380.369    63.389092   -11443.758   -1977.3657 
   48000    304.69704   -11375.388    59.944104   -11435.332   -2779.6197 
   48200    305.69323   -11390.306    60.140088   -11450.446   -305.80178 
   48400    280.74605   -11391.367    55.232143   -11446.599   -6659.2008 
   48600    366.47127     -11361.2    72.097162   -11433.297   -2615.4043 
   48800    340.29324   -11373.332    66.947068   -11440.279   -1205.8394 
   49000     239.6352    -11385.76    47.144262   -11432.905    5693.8231 
   49200    279.13854   -11387.108    54.915892   -11442.024   -5797.1361 
   49400    283.14753   -11400.197    55.704594   -11455.902    2334.7139 
   49600    325.95679   -11377.093    64.126607    -11441.22   -8327.8258 
   49800     318.5743   -11363.342    62.674225   -11426.016    16808.894 
   50000    307.22152   -11384.554    60.440754   -11444.994    19536.083 
   50200    274.18923   -11393.028    53.942198    -11446.97   -2157.2329 
   50400    328.67844   -11375.277    64.662048    -11439.94   -1894.6715 
   50600    287.63627   -11386.538    56.587679   -11443.126    16794.604 
   50800     301.0617   -11391.783     59.22891   -11451.012   -1441.5786 
   51000    256.17306   -11397.104    50.397814   -11447.502    16.389495 
   51200    275.83412   -11374.982    54.265802   -11429.248   -9643.3875 
   51400    301.28325   -11371.886    59.272497   -11431.158    12057.356 
   51600    290.22591   -11388.776    57.097149   -11445.873    2405.4803 
   51800     344.7505   -11380.045    67.823961   -11447.869   -4114.4095 
   52000    260.18381   -11393.213    51.186861     -11444.4   -1434.8964 
   52200    320.44456   -11397.662    63.042167   -11460.705   -18562.485 
   52400    318.09178   -11376.232    62.579299   -11438.811    2364.2924 
   52600    296.99333   -11378.188    58.428527   -11436.616    10154.734 
   52800    291.60189   -11373.337    57.367849   -11430.705   -3356.6937 
   53000    280.30487   -11390.043    55.145348   -11445.188    5187.5959 
   53200    272.01616   -11392.989    53.514681   -11446.504   -11320.907 
   53400    319.37907   -11387.439    62.832551   -11450.271   -1129.0213 
   53600    345.85359       -11372    68.040974   -11440.041   -8521.3271 
   53800    319.93663   -11388.794    62.942241   -11451.736    14542.435 
   54000     279.5074   -11388.748    54.988459   -11443.736   -9111.2114 
   54200    346.76153   -11369.277    68.219597   -11437.497     5467.316 
   54400    321.62987   -11387.777    63.275358   -11451.052    395.66715 
   54600    295.61375   -11392.733    58.157116   -11450.891   -15420.452 
   54800     309.6553   -11377.983     60.91956   -11438.903   -7339.9336 
   55000    333.87967   -11377.628    65.685303   -11443.313   -7633.7948 
   55200    275.19517   -11389.608    54.140099   -11443.748     2784.901 
   55400    303.02924   -11387.129    59.615993   -11446.745    521.78752 
   55600    285.51458   -11400.459    56.170272   -11456.629   -17193.501 
   55800     354.1844   -11379.078    69.679923   -11448.758   -22383.903 
   56000    325.65362   -11381.757    64.066964   -11445.824   -3961.7464 
   56200    291.60256   -11393.037    57.367981   -11450.405   -11219.967 
   56400    265.75831    -11399.57    52.283553   -11451.854    8416.4467 
   56600    358.70725   -11379.879    70.569719   -11450.449   -2633.6911 
   56800    264.68483   -11384.532    52.072364   -11436.605    12126.985 
   57000    346.70654   -11376.423    68.208779   -11444.632    6552.1559 
   57200    256.99907   -11394.873    50.560317   -11445.433    8737.4082 
   57400    333.52513   -11384.271    65.615553   -11449.887    6686.1202 
   57600     311.5996   -11368.687    61.302069   -11429.989    -6138.478 
   57800    296.93883   -11381.533    58.417805   -11439.951   -7075.6729 
   58000    272.89574   -11396.349    53.687724   -11450.036    3568.8134 
   58200     333.8896   -11379.321    65.687258   -11445.008   -3144.2111 
   58400    321.76318   -11373.879    63.301585   -11437.181    6591.6441 
   58600    328.25646   -11390.308     64.57903   -11454.887     10519.66 
   58800    313.89206   -11382.084    61.753072   -11443.837    2180.9757 
   59000     322.2201   -11379.536    63.391476   -11442.927    3139.1555 
   59200    273.46309   -11389.391    53.799342    -11443.19    2324.9386 
   59400    298.74741   -11385.463    58.773613   -11444.237   -7294.3338 
   59600    270.10371   -11390.142    53.138438    -11443.28   -410.06955 
   59800    293.73128   -11386.221    57.786772   -11444.008   -15602.621 
   60000    382.11587   -11369.738    75.174978   -11444.913   -8239.8317 
   60200    286.55451   -11393.277    56.374862   -11449.651   -9427.0675 
   60400    313.96793   -11389.895    61.767999   -11451.663   -6946.3539 
   60600    304.71119   -11375.341    59.946888   -11435.288   -17269.819 
   60800    307.21746   -11381.193    60.439955   -11441.633   -15835.877 
   61000    304.35061   -11387.136    59.875949   -11447.012   -6017.6046 
   61200    317.58855   -11390.408    62.480295   -11452.888   -9301.1812 
   61400     269.9598   -11394.478    53.110126   -11447.588    11736.372 
   61600    302.53325   -11380.425    59.518414   -11439.944   -2568.1052 
   61800    244.78746   -11390.627    48.157885   -11438.785   -8155.0656 
   62000    270.57597   -11405.105    53.231347   -11458.336     1920.428 
   62200    289.60905   -11390.388    56.975791   -11447.364    7541.0573 
   62400    311.57149   -11377.996    61.296539   -11439.293     16905.99 
   62600    248.78099   -11395.139    48.943546   -11444.083    12340.771 
   62800    361.62781   -11377.708    71.144292   -11448.852   -8649.5254 
   63000    273.15422   -11392.493    53.738576   -11446.232   -32402.145 
   63200    328.54011   -11376.092    64.634833   -11440.727    1138.4723 
   63400    281.85111   -11376.852    55.449545   -11432.302      15035.1 
   63600    277.63974   -11388.689    54.621028    -11443.31   -4182.9517 
   63800    296.28982   -11387.829    58.290123    -11446.12    8866.7992 
   64000    365.53927   -11367.833    71.913807   -11439.747    10356.409 
   64200    284.06623   -11391.608    55.885332   -11447.493    3306.9089 
   64400    319.97069   -11384.067    62.948943   -11447.016    7247.6455 
   64600     362.1174   -11368.338     71.24061   -11439.579    1118.3742 
   64800    286.68993   -11388.898    56.401504     -11445.3   -3809.7049 
   65000     323.0024   -11381.674    63.545382    -11445.22    8433.0751 
   65200    238.11244   -11400.509    46.844684   -11447.354   -62.639755 
   65400    223.36927   -11415.433     43.94421   -11459.377   -6883.2425 
   65600    297.67495   -11393.404    58.562623   -11451.967   -2978.7917 
   65800    302.86954    -11376.21    59.584574   -11435.795   -13364.347 
   66000    271.91762    -11395.84    53.495295   -11449.335   -6092.8934 
   66200    314.28546   -11390.178    61.830467   -11452.009    7692.8413 
   66400    294.44072   -11381.238    57.926343   -11439.164   -2487.6863 
   66600    290.42248   -11364.514     57.13582    -11421.65     238.3979 
   66800    280.79808   -11382.264    55.242379   -11437.506    751.14228 
   67000    267.88338   -11395.163    52.701625   -11447.865    9002.1436 
   67200    301.87864   -11386.554     59.38963   -11445.943    1098.2167 
   67400    315.36256   -11376.035    62.042369   -11438.078    4775.8051 
   67600    298.99229   -11389.833     58.82179   -11448.655    663.52805 
   67800    257.19201     -11408.4    50.598274   -11458.999     8799.487 
   68000    315.05643   -11386.075    61.982142   -11448.057    -3378.895 
   68200     292.3061   -11386.538    57.506391   -11444.045    10253.698 
   68400    227.25701   -11403.219    44.709059   -11447.928    6429.5384 
   68600    293.87347   -11388.645    57.814746    -11446.46    2892.5312 
   68800    310.01981   -11384.475     60.99127   -11445.466    1869.7799 
   69000     282.1344   -11395.285    55.505278   -11450.791    1207.7919 
   69200    322.94788   -11384.742    63.534655   -11448.277    10852.155 
   69400    304.35698   -11384.731    59.877203   -11444.608    3082.0474 
   69600     279.8154   -11395.921    55.049052    -11450.97    2502.0643 
   69800    355.91858   -11376.416    70.021095   -11446.437    5819.0813 
   70000    281.76944    -11394.62    55.433478   -11450.053    26975.109 
   70200    307.25608   -11386.444    60.447553   -11446.892    13501.857 
   70400     327.7977   -11372.461    64.488777    -11436.95    104.39531 
   70600    289.68851   -11389.824    56.991424   -11446.815   -6720.0846 
   70800    294.33264   -11390.426     57.90508   -11448.331   -9638.2774 
   71000    291.50881   -11371.979    57.349537   -11429.329    1990.6512 
   71200    339.66309   -11369.809    66.823097   -11436.632   -3674.1898 
   71400    245.75191   -11391.232    48.347624   -11439.579    15186.925 
   71600    309.28183   -11388.236    60.846086   -11449.082   -4287.3827 
   71800    262.86772   -11384.639    51.714876   -11436.353    6528.2144 
   72000    258.58674   -11406.266    50.872665   -11457.138    6193.9955 
   72200    278.22271   -11390.657    54.735717   -11445.392    9898.1615 
   72400    320.45493   -11382.477    63.044208   -11445.521   -20519.909 
   72600    250.69465   -11402.157    49.320027   -11451.477    2913.2289 
   72800    233.21241   -11410.437    45.880685   -11456.317     3925.677 
   73000    314.13996   -11385.507    61.801841   -11447.309    2940.5488 
   73200    317.54567   -11380.183     62.47186   -11442.655    7529.6346 
   73400    294.97541    -11395.89    58.031534   -11453.921    10801.954 
   73600    241.06461    -11416.15    47.425476   -11463.575    9100.5321 
   73800    270.46689   -11396.236    53.209888   -11449.446   -1310.9441 
   74000    299.19221   -11376.908    58.861119   -11435.769   -11873.495 
   74200    276.61599   -11383.281    54.419621     -11437.7    12986.899 
   74400     312.2907   -11391.797    61.438031   -11453.235   -14248.631 
   74600    277.73561   -11388.131    54.639889   -11442.771   -7372.7559 
   74800    346.13186   -11381.346     68.09572   -11449.442    7867.7085 
   75000    332.38704   -11372.132    65.391653   -11437.524   -6160.1733 
   75200    296.76962   -11389.958    58.384515   -11448.343   -6582.2855 
   75400    285.85759   -11390.068    56.237755   -11446.305   -7851.7557 
   75600     293.8501   -11390.303    57.810148   -11448.114   -8865.2744 
   75800    293.02712   -11377.341     57.64824   -11434.989    1654.2981 
   76000    354.73739   -11366.598    69.788716   -11436.387    2079.8534 
   76200    280.87985   -11389.627    55.258466   -11444.886    4050.9894 
   76400    288.70577   -11387.245    56.798087   -11444.043   -13893.706 
   76600    316.66839   -11370.712     62.29927   -11433.012    763.43914 
   76800     288.2971   -11383.311    56.717687   -11440.029   -4304.0106 
   77000    293.04811   -11396.189     57.65237   -11453.841    12117.441 
   77200    348.44084   -11382.004    68.549973   -11450.554    8915.2359 
   77400    295.13794   -11383.481    58.063509   -11441.544    3033.3244 
   77600    289.29918    -11390.61     56.91483   -11447.524    14709.856 
   77800    319.25921   -11384.516    62.808969   -11447.325    10311.833 
   78000    278.39769   -11382.505    54.770142   -11437.275     18438.55 
   78200    290.96107   -11384.018    57.241779    -11441.26    6122.2166 
   78400    288.46836    -11393.22     56.75138   -11449.971   -76.724475 
   78600    314.69646    -11379.19    61.911325   -11441.101    5536.2399 
   78800    299.11136   -11374.179    58.845213   -11433.025    16069.394 
   79000    252.49748   -11392.485    49.674704    -11442.16    10359.936 
   79200    321.22858   -11386.962    63.196411   -11450.158   -8996.2357 
   79400    378.75364   -11374.046    74.513514    -11448.56   -12567.718 
   79600    280.12387   -11391.852     55.10974   -11446.961    14140.854 
   79800    290.41744   -11394.339    57.134828   -11451.474   -5417.4525 
   80000    320.27767   -11372.441    63.009335   -11435.451    8615.1683 
   80200    320.96484   -11385.137    63.144524   -11448.282    8761.7376 
   80400    268.99465   -11407.399    52.920249   -11460.319   -2157.2875 
   80600    279.37254   -11399.322    54.961927   -11454.284    13355.519 
   80800     339.2761     -11383.2    66.746962   -11449.947   -393.01392 
   81000    262.57242   -11391.201    51.656782   -11442.858    24157.983 
   81200    303.96319   -11379.752    59.799731   -11439.552   -3867.8426 
   81400    273.33712   -11386.666    53.774558    -11440.44   -1936.4373 
   81600    298.31472   -11387.891    58.688488    -11446.58   -122.94489 
   81800    293.52731   -11388.151    57.746645   -11445.898    3647.5298 
   82000    278.93005   -11397.773    54.874875   -11452.648   -35864.762 
   82200    302.22632    -11384.21    59.458031   -11443.668    13632.267 
   82400    320.09237   -11378.086     62.97288   -11441.059    17132.265 
   82600    274.50883   -11387.651    54.005072   -11441.656    2959.4054 
   82800    328.21381   -11388.644     64.57064   -11453.214    12.068282 
   83000    283.64151    -11400.23    55.801776   -11456.032    3111.5473 
   83200    329.22254   -11383.289     64.76909   -11448.058   -10787.459 
   83400    275.97405   -11380.811     54.29333   -11435.105    6145.9083 
   83600    213.79177   -11402.935    42.059996   -11444.995   -4220.7466 
   83800    249.52785   -11399.854    49.090477   -11448.945   -8852.0326 
   84000    295.69425   -11386.076    58.172954   -11444.249   -1276.1061 
   84200    326.47166   -11380.009      64.2279   -11444.237   -4662.1915 
   84400    280.45877   -11399.719    55.175624   -11454.894   -3694.6175 
   84600    333.62175   -11387.592    65.634562   -11453.226   -15346.144 
   84800    315.26449   -11386.619    62.023075   -11448.642   -9215.0436 
   85000    259.34665   -11403.461    51.022165   -11454.483    33661.026 
   85200    265.06985   -11395.739    52.148111   -11447.887   -3717.2092 
   85400    332.73515   -11386.016    65.460139   -11451.476    15216.613 
   85600    312.72503   -11379.602    61.523478   -11441.126   -10992.844 
   85800     226.8929   -11396.932    44.637427   -11441.569   -7233.7537 
   86000    293.12407   -11382.468    57.667314   -11440.135   -1090.4608 
   86200    301.16277   -11381.595    59.248794   -11440.844   -13187.218 
   86400    278.16717   -11400.084    54.724791   -11454.809   -5071.0394 
   86600    328.05386   -11389.896    64.539172   -11454.435   -4133.8108 
   86800    331.16778   -11383.848    65.151785       -11449   -3306.9015 
   87000    319.75824   -11380.583    62.907146    -11443.49    4622.7211 
   87200    250.62621   -11397.034    49.306562   -11446.341    19.476571 
   87400    364.57608   -11375.681    71.724314   -11447.405    3436.7132 
   87600    280.98099   -11386.758    55.278363   -11442.037    193.87578 
   87800    311.57364   -11391.723    61.296962    -11453.02   -2565.5926 
   88000    355.68635   -11370.772    69.975408   -11440.747   -8169.9852 
   88200    299.22107   -11387.682    58.866797   -11446.549   -507.14606 
   88400     277.5909   -11386.991     54.61142   -11441.603   -2628.3447 
   88600    320.35765   -11380.214     63.02507   -11443.239    1909.1445 
   88800    298.33068    -11384.57    58.691628   -11443.262    8842.1171 
   89000    280.20821   -11387.148    55.126332   -11442.274   -15610.208 
   89200    311.15763   -11368.602    61.215117   -11429.817   -4296.4809 
   89400    300.60172   -11376.802    59.138417    -11435.94    1950.0174 
   89600    258.17188   -11390.144    50.791048   -11440.935   -6336.9172 
   89800    310.97168   -11384.388    61.178536   -11445.567    8166.5988 
   90000    339.78774    -11369.55    66.847619   -11436.397    1237.4621 
   90200     317.1961   -11388.199    62.403086   -11450.602    14037.337 
   90400     305.1129   -11385.256    60.025918   -11445.282   -7138.5956 
   90600    240.22085   -11384.435     47.25948   -11431.694    965.84195 
   90800    333.94615   -11378.409    65.698382   -11444.108   -2298.7215 
   91000    251.56467   -11388.165    49.491189   -11437.656     5078.563 
   91200    301.16013   -11392.938    59.248276   -11452.187   -14320.361 
   91400    324.74341   -11370.077    63.887896   -11433.965    2571.1671 
   91600    301.44877   -11379.983     59.30506   -11439.288   -504.70962 
   91800    307.63519   -11392.079    60.522137   -11452.601   -3864.1281 
   92000    292.51934   -11381.184    57.548343   -11438.733   -6174.6532 
   92200    381.37785    -11369.08    75.029785    -11444.11     7341.441 
   92400    315.45868    -11384.21    62.061279   -11446.271    -10364.81 
   92600    318.49665   -11387.982     62.65895   -11450.641   -3072.4541 
   92800    270.08867   -11402.024     53.13548   -11455.159   -4735.0823 
   93000    271.17302    -11381.01    53.348807   -11434.359   -4334.6636 
   93200    302.92594   -11382.119     59.59567   -11441.715   -18247.861 
   93400    282.53699   -11394.487    55.584481   -11450.072   -6794.9088 
   93600    335.76123   -11383.782     66.05547   -11449.838   -9694.7463 
   93800    308.58468   -11386.213    60.708933   -11446.922   -4737.9482 
   94000    267.05648   -11391.507    52.538946   -11444.046    16672.375 
   94200    312.83027   -11367.509    61.544183   -11429.053   -2109.1149 
   94400     324.0668   -11386.702    63.754784   -11450.457    9707.8016 
   94600    286.65531    -11392.99    56.394692   -11449.384    15081.935 
   94800    338.95563   -11370.071    66.683915   -11436.755   -1295.7496 
   95000    340.12225   -11367.992    66.913427   -11434.905   -5637.3142 
   95200    330.99121   -11375.947    65.117047   -11441.064    388.81549 
   95400    315.87741   -11396.598    62.143658   -11458.741    70.537133 
   95600    284.04344   -11399.643    55.880849   -11455.524   -14645.108 
   95800     265.3051   -11377.753    52.194391   -11429.948   -10822.819 
   96000     314.7451   -11384.914    61.920893   -11446.835     708.7015 
   96200    271.29918   -11392.932    53.373626   -11446.306    11093.638 
   96400    306.30472   -11383.033    60.260389   -11443.293    11099.678 
   96600    313.69554   -11390.234    61.714411   -11451.949    19446.818 
   96800    297.62315   -11393.295    58.552434   -11451.848   -6110.0969 
   97000    322.72501    -11378.99    63.490809   -11442.481    7711.2075 
   97200    256.43598   -11392.762    50.449538   -11443.212   -6308.3767 
   97400    296.95828   -11388.841    58.421631   -11447.262   -21711.795 
   97600    339.09244   -11379.957    66.710829   -11446.668   -10854.118 
   97800    292.74443    -11394.31    57.592625   -11451.903   -2220.8814 
   98000    331.68709   -11389.374    65.253951   -11454.628   -5310.0205 
   98200    326.89083   -11371.724    64.310366   -11436.034    3069.3021 
   98400    280.61256   -11391.929    55.205881   -11447.135   -6315.1975 
   98600    323.86531   -11390.849    63.715144   -11454.564    11887.872 
   98800     362.2407   -11374.266    71.264867   -11445.531    -3767.313 
   99000    300.15272   -11393.883    59.050084   -11452.934    11694.552 
   99200    321.55793   -11385.223    63.261205   -11448.484    7770.3401 
   99400    340.11472   -11376.337    66.911948   -11443.249    10613.079 
   99600    268.17752   -11397.673    52.759492   -11450.432   -5517.3586 
   99800    302.51437   -11383.948      59.5147   -11443.463   -12541.506 
  100000    316.27661   -11381.297    62.222192    -11443.52    472.64692 
  100200    318.02233   -11391.913    62.565635   -11454.479    9291.8301 
  100400    265.67789   -11393.494    52.267732   -11445.761   -3812.0054 
  100600    379.90026   -11373.646    74.739093   -11448.385    8245.3464 
  100800    294.21907   -11389.411    57.882736   -11447.293    18128.382 
  101000    289.24326   -11398.824    56.903829   -11455.728   -16360.878 
  101200    303.55648   -11385.864    59.719717   -11445.584   -6520.0486 
  101400    313.00266   -11364.243    61.578097   -11425.821    2207.9523 
  101600     322.9659   -11377.569    63.538201   -11441.107   -10104.081 
  101800    308.18584   -11394.843    60.630469   -11455.474    7079.4044 
  102000    295.15474   -11388.327    58.066815   -11446.393    9431.2708 
  102200    331.56343   -11375.178    65.229622   -11440.408    19386.003 
  102400    308.60964   -11391.258    60.713844   -11451.972    594.29055 
  102600    306.40236   -11395.438    60.279598   -11455.718   -3157.6449 
  102800    259.54964   -11383.622      51.0621   -11434.684    6460.4308 
  103000    317.99543   -11383.253    62.560342   -11445.813    5850.5513 
  103200    290.41252   -11397.508     57.13386   -11454.642    4847.2612 
  103400    321.52742   -11383.723    63.255204   -11446.978   -5047.7749 
  103600     265.9744    -11382.68    52.326064   -11435.006   -90.373832 
  103800     276.0543   -11393.181    54.309119   -11447.491    12146.846 
  104000    315.01426   -11380.853    61.973846   -11442.826   -3136.5867 
  104200    252.80319   -11390.314    49.734848   -11440.049   -3420.5228 
  104400    291.39133   -11392.691    57.326426   -11450.018    8242.9109 
  104600    328.49045   -11387.745    64.625064    -11452.37   -2484.5914 
  104800    291.53501   -11387.015    57.354691    -11444.37    6643.4586 
  105000    332.70436   -11375.169    65.454081   -11440.623    4748.8121 
  105200    274.36086   -11391.749    53.975962   -11445.725    7138.6371 
  105400    278.61505   -11389.939    54.812904   -11444.752    5867.2116 
  105600    352.45104   -11374.877    69.338913   -11444.216   -2502.5589 
  105800    285.02164   -11394.491    56.073295   -11450.564     29659.45 
  106000     299.1003   -11379.844    58.843038   -11438.687    13702.704 
  106200    338.64507   -11371.541    66.622817   -11438.164   -2231.6281 
  106400    263.90303   -11393.691    51.918558    -11445.61   -6442.5096 
  106600    343.69911   -11381.411    67.617115   -11449.028   -17843.817 
  106800    292.64502   -11395.944    57.573068   -11453.517    470.09842 
  107000    343.01065   -11391.188    67.481673    -11458.67    9640.4535 
  107200    254.17962   -11380.325    50.005637   -11430.331   -3756.3652 
  107400    365.10198   -11375.319    71.827776   -11447.147   -19753.269 
  107600    299.60033   -11392.188    58.941411   -11451.129     3513.228 
  107800    314.47366   -11384.276    61.867493   -11446.143    19266.891 
  108000    261.79198   -11396.304    51.503243   -11447.807    -1070.918 
  108200    324.56306   -11377.813    63.852416   -11441.665    4214.1204 
  108400    284.31235   -11381.332    55.933754   -11437.266   -3062.1542 
  108600    296.52103   -11387.538    58.335608   -11445.873   -8009.6705 
  108800    288.25722   -11393.779     56.70984   -11450.489   -6001.3371 
  109000      278.788   -11379.038    54.846928   -11433.885    4273.5874 
  109200    242.32887   -11397.904    47.674197   -11445.579    16262.144 
  109400    319.43435   -11380.155    62.843427   -11442.999    11029.278 
  109600    302.26708   -11388.031     59.46605   -11447.497    17010.876 
  109800    252.25612   -11408.108    49.627219   -11457.735   -7261.1779 
  110000     284.3435   -11393.981    55.939881   -11449.921    5067.4294 
  110200    336.51907    -11383.35    66.204563   -11449.555   -6504.8555 
  110400    289.16492   -11397.238    56.888417   -11454.126   -13189.262 
  110600    259.10088   -11409.824    50.973814   -11460.798   -3259.8209 
  110800    307.86121   -11389.925    60.566602   -11450.492   -11010.104 
  111000    357.54419   -11377.337    70.340907   -11447.678    11338.624 
  111200    310.10351   -11390.941    61.007738   -11451.949   -412.53639 
  111400    317.97079   -11400.237    62.555494   -11462.793     20243.02 
  111600    303.39781   -11388.783    59.688503   -11448.472    -4036.682 
  111800    331.00855   -11381.797    65.120458   -11446.917   -6273.0831 
  112000    315.77678   -11391.757     62.12386   -11453.881   -3235.9593 
  112200     342.7703   -11381.221    67.434389   -11448.655   -6819.5902 
  112400    298.23429   -11379.928    58.672665   -11438.601    14199.151 
  112600    268.67436   -11398.052    52.857237   -11450.909   -5396.1863 
  112800    267.81135   -11387.779    52.687454   -11440.467    10028.699 
  113000     343.8194   -11374.182    67.640781   -11441.823    4857.3121 
  113200    242.87271   -11385.494     47.78119   -11433.276    11265.018 
  113400    323.95418    -11378.79    63.732629   -11442.522    197.15448 
  113600    264.15328   -11393.197    51.967789   -11445.164      2537.44 
  113800     272.3466   -11395.794    53.579691   -11449.374    1409.7477 
  114000    343.17861   -11375.187    67.514716   -11442.702    3665.2271 
  114200    318.51064   -11390.617    62.661701   -11453.279   -400.98324 
  114400    296.08985   -11387.571    58.250781   -11445.821   -4520.7252 
  114600    291.49952   -11379.299    57.347709   -11436.647   -4599.7526 
  114800    272.03178   -11392.619    53.517753   -11446.136    6556.6381 
  115000     279.8952   -11406.781    55.064751   -11461.845    15778.509 
  115200    302.73421    -11395.17    59.557949   -11454.728    2197.8376 
  115400    291.55028   -11386.243    57.357696   -11443.601     19414.43 
  115600    346.48621   -11369.545    68.165431   -11437.711    1452.1408 
  115800    255.36144   -11386.993     50.23814   -11437.232    13053.815 
  116000    312.35769   -11386.465     61.45121   -11447.916    4272.4704 
  116200    341.60641   -11378.028    67.205412   -11445.234    4769.2048 
  116400    260.05619   -11382.475    51.161754   -11433.637    20404.991 
  116600    268.56576   -11392.011    52.835872   -11444.847    6881.6063 
  116800    311.27726   -11375.977    61.238653   -11437.216   -1439.0809 
  117000    303.35457   -11392.147    59.679995   -11451.827    687.10823 
  117200    292.52607   -11390.786    57.549666   -11448.336   -3676.7553 
  117400    310.77145   -11382.852    61.139143   -11443.991   -10438.749 
  117600    323.21442    -11384.79    63.587093   -11448.378   -15100.817 
  117800    316.97973   -11389.875    62.360519   -11452.236    2024.7876 
  118000    393.02435   -11370.898    77.321042   -11448.219   -3660.7942 
  118200      338.256   -11378.129    66.546275   -11444.675   -12532.737 
  118400    308.70868   -11392.432    60.733327   -11453.165    8799.3273 
  118600    331.60673   -11377.339    65.238141   -11442.577   -2840.4479 
  118800    322.36175   -11375.812    63.419344   -11439.231     20799.91 
  119000    298.95198   -11391.933    58.813858   -11450.747    559.06524 
  119200    355.29486   -11379.225    69.898388   -11449.123    -11691.22 
  119400    298.56054   -11393.069    58.736849   -11451.806   -1879.6323 
  119600    305.57949    -11388.08    60.117712   -11448.198   -6257.1449 
  119800    346.79518   -11367.257    68.226216   -11435.483   -14326.318 
  120000    299.65623   -11385.429    58.952407   -11444.381   -17873.016 
  120200    333.23587   -11385.568    65.558647   -11451.127   -28417.894 
  120400    323.95075   -11385.076    63.731952   -11448.808   -3.5996191 
  120600    310.66652   -11384.007      61.1185   -11445.126     11913.57 
  120800    251.81515    -11404.65    49.540466   -11454.191   -15065.616 
  121000    266.52871   -11393.818    52.435115   -11446.253   -6647.8035 
  121200    276.69349   -11386.294    54.434868   -11440.729    10026.233 
  121400    343.44442   -11373.192     67.56701   -11440.759    -13827.83 
  121600    366.13169   -11366.054    72.030355   -11438.084   -23662.349 
  121800    283.70765   -11389.247    55.814788   -11445.062   -844.75508 
  122000     298.6818   -11384.184    58.760705   -11442.945   -6017.9969 
  122200    306.28566   -11375.252    60.256638   -11435.509    2365.9801 
  122400    283.80446   -11398.195    55.833835   -11454.029   -20662.058 
  122600    289.40367   -11391.606    56.935387   -11448.542    8207.3319 
  122800    369.22764   -11376.062    72.639433   -11448.701    2057.4905 
  123000    262.38437   -11393.863    51.619785   -11445.483    5230.7543 
  123200    288.20659   -11392.728    56.699881   -11449.428    8671.2673 
  123400    329.06252    -11379.02    64.737609   -11443.757    5417.5105 
  123600    338.75703   -11388.868    66.644843   -11455.513    12971.745 
  123800    340.20467   -11383.389    66.929642   -11450.318    5280.6102 
  124000    269.25298   -11370.506     52.97107   -11423.477   -666.66512 
  124200    280.03466   -11394.341    55.092189   -11449.433    2755.7907 
  124400    292.09945   -11388.906    57.465736   -11446.372   -10910.696 
  124600    338.01739   -11374.756    66.499333   -11441.255   -13303.195 
  124800    246.20459   -11388.014    48.436683   -11436.451    10702.353 
  125000    300.29812    -11393.95    59.078689   -11453.029    -2711.288 
  125200    337.37449   -11379.797    66.372851   -11446.169   -6758.8367 
  125400    363.47795   -11379.133    71.508277   -11450.641    -7421.424 
  125600    308.02264   -11391.667     60.59836   -11452.265   -4009.1232 
  125800    318.30264   -11382.437    62.620782   -11445.058    6385.9332 
  126000    326.64113    -11366.44    64.261241   -11430.701    14708.043 
  126200    274.78482   -11387.223     54.05937   -11441.282   -10037.383 
  126400    308.89315   -11379.643    60.769618   -11440.412     7938.603 
  126600    286.03139   -11398.794    56.271945   -11455.066   -11032.679 
  126800    315.11489   -11383.851    61.993644   -11445.844   -3738.4094 
  127000    319.84109   -11382.608    62.923446   -11445.531   -1512.0898 
  127200    270.53317   -11392.888    53.222927   -11446.111    18226.368 
  127400    338.88597   -11371.969    66.670211   -11438.639    5015.0322 
  127600    316.54811   -11368.641    62.275605   -11430.916   -9659.4993 
  127800    298.28341   -11393.045    58.682329   -11451.728    6483.8395 
  128000    246.22225   -11389.323    48.440157   -11437.764    4608.8172 
  128200    283.13347   -11374.773    55.701828   -11430.475    6500.5261 
  128400    262.55824   -11385.398    51.653991   -11437.052   -11192.216 
  128600    310.92907   -11383.556    61.170153   -11444.726    2741.3343 
  128800    303.45667   -11376.655    59.700081   -11436.355    12029.559 
  129000    340.47749   -11369.241    66.983315   -11436.224   -9075.8428 
  129200    321.15009   -11385.353    63.180969   -11448.534    10330.056 
  129400    266.13174   -11384.992     52.35702   -11437.349    18511.844 
  129600    354.11679   -11367.395    69.666623   -11437.062   -5921.1036 
  129800    335.64492   -11375.017    66.032588    -11441.05    1381.4005 
  130000    314.59503   -11387.495     61.89137   -11449.387    2225.1737 
  130200    307.73261    -11379.48    60.541301   -11440.022   -3285.8029 
  130400    302.53566   -11377.168    59.518888   -11436.687     910.8428 
  130600    311.12617   -11390.583    61.208928   -11451.792    787.09338 
  130800    232.76225   -11391.165    45.792123   -11436.957    32340.435 
  131000    275.03715   -11375.508    54.109011   -11429.617   -5199.0444 
  131200    281.95875   -11382.951    55.470721   -11438.422   -5500.6223 
  131400    273.91791   -11401.702    53.888819   -11455.591   -17321.589 
  131600    322.66036   -11388.051    63.478089   -11451.529    -14099.08 
  131800    307.77059   -11385.952    60.548774   -11446.501    3324.0429 
  132000    321.79549   -11388.108    63.307942   -11451.416   -5366.2169 
  132200    241.13245   -11402.781    47.438823    -11450.22   -4275.0435 
  132400    324.26299   -11384.661     63.79338   -11448.454   -27796.718 
  132600    348.23888   -11376.677     68.51024   -11445.187   -10334.912 
  132800    262.03481   -11397.081    51.551017   -11448.632    3485.2162 
  133000    270.97332   -11385.831     53.30952    -11439.14    80.868572 
  133200     272.6975   -11384.964    53.648723   -11438.613     5710.132 
  133400    309.25358   -11380.498    60.840527   -11441.339    -1987.343 
  133600     323.4828   -11386.488    63.639891   -11450.128   -1474.2982 
  133800    306.45453   -11393.472    60.289862   -11453.762   -9515.0474 
  134000    267.39293   -11385.099    52.605138   -11437.705   -3272.4994 
  134200    380.09944   -11376.594     74.77828   -11451.373     6115.576 
  134400     246.6133    -11397.07    48.517089   -11445.587    36766.176 
  134600    342.88248   -11386.286    67.456458   -11453.742   -5765.0593 
  134800    307.99189   -11382.284    60.592311   -11442.876   -1481.6159 
  135000     307.5567   -11383.429    60.506695   -11443.936   -15799.065 
  135200    268.42144   -11401.116     52.80748   -11453.924    3975.0953 
  135400    306.67046   -11385.738    60.332341   -11446.071   -7670.8665 
  135600    281.55941   -11387.425    55.392157   -11442.817   -5608.3898 
  135800    250.42306    -11408.49    49.266596   -11457.756    -381.8022 
  136000    276.25654   -11399.031    54.348906    -11453.38   -1820.6603 
  136200    278.30824   -11384.064    54.752544   -11438.816   -11983.565 
  136400    301.18063   -11383.748    59.252308       -11443   -5576.2443 
  136600    316.92327   -11390.294    62.349413   -11452.644     6891.773 
  136800    322.86304   -11388.753    63.517963   -11452.271    8664.1821 
  137000    283.18692    -11374.81    55.712343   -11430.522   -9046.8679 
  137200    267.02221   -11392.714    52.532204   -11445.247    15009.602 
  137400    320.92524   -11390.156    63.136735   -11453.293   -3409.4586 
  137600     265.4133   -11392.967    52.215678   -11445.183    9465.1637 
  137800    293.70061   -11378.028    57.780738   -11435.808   -6251.7205 
  138000    271.81538   -11399.815     53.47518    -11453.29   -1971.5381 
  138200    234.22921   -11392.572    46.080724   -11438.653    10640.196 
  138400    286.14249    -11381.94    56.293803   -11438.234    6815.3776 
  138600    295.63778   -11388.753    58.161843   -11446.915    6837.0926 
  138800    278.45366    -11397.26    54.781152   -11452.042    1620.1319 
  139000    325.40065   -11386.122    64.017196   -11450.139    7784.1147 
  139200    326.77126   -11380.999    64.286841   -11445.285    15519.922 
  139400    308.45121   -11386.498    60.682675    -11447.18    3239.0799 
  139600     311.5447   -11392.512    61.291268   -11453.803   -4348.2395 
  139800    248.33531   -11407.845    48.855866   -11456.701    4800.0111 
  140000    317.56765   -11394.272    62.476184   -11456.748   -8103.2692 
  140200    307.62842   -11379.096    60.520804   -11439.617    6611.8823 
  140400    292.23311    -11383.61    57.492031   -11441.102    5064.2516 
  140600    393.93143   -11363.365    77.499495   -11440.864   -975.80931 
  140800    301.23226   -11387.979    59.262466   -11447.242    11849.109 
  141000    278.80852   -11392.704    54.850965   -11447.555   -12085.247 
  141200    256.22041   -11395.776    50.407128   -11446.183    9803.3151 
  141400    291.17329   -11384.282    57.283529   -11441.566    2876.0205 
  141600    307.78468   -11396.768    60.551547    -11457.32    4310.1118 
  141800    229.06095   -11405.268    45.063954   -11450.332    15340.803 
  142000    280.95143   -11392.995    55.272548   -11448.268   -92.237622 
  142200    312.55064   -11379.271    61.489171    -11440.76   -15631.469 
  142400    326.45312   -11376.212    64.224252   -11440.436    -899.0754 
  142600    294.11022   -11392.377    57.861321   -11450.238    1194.5609 
  142800    327.44167   -11374.719    64.418733   -11439.137   -221.51146 
  143000    338.63129   -11384.325    66.620106   -11450.945   -2115.6432 
  143200    301.08613   -11396.642    59.233717   -11455.875   -17188.746 
  143400    291.95041   -11389.395    57.436416   -11446.832    5748.9174 
  143600    330.57417   -11372.186    65.035002   -11437.221    -10276.51 
  143800    298.79695   -11389.592    58.783359   -11448.376   -4087.9935 
  144000    289.77627   -11387.391    57.008688     -11444.4   -6088.9992 
  144200    318.68798   -11379.219    62.696591   -11441.916    11173.033 
  144400    308.84556   -11388.312    60.760256   -11449.073     9425.248 
  144600    349.33957   -11376.206    68.726783   -11444.933   -8614.9256 
  144800    309.07657    -11383.54    60.805704   -11444.346   -629.58501 
  145000    291.08974   -11393.115    57.267092   -11450.382    5792.3949 
  145200    358.87694   -11366.385    70.603104   -11436.988    4999.0044 
  145400    283.53419     -11385.4    55.780664   -11441.181   -2325.2363 
  145600    290.40122   -11387.418    57.131638   -11444.549   -15780.735 
  145800    364.10879   -11370.382    71.632384   -11442.015   -7336.2682 
  146000    301.61924   -11391.835    59.338597   -11451.173   -2122.8459 
  146200    335.49364    -11385.58    66.002826   -11451.583    7863.5105 
  146400    370.48843    -11371.59    72.887472   -11444.477   -10973.282 
  146600    299.77114   -11394.753    58.975014   -11453.728    10776.778 
  146800    323.92384   -11388.462    63.726659   -11452.189    1946.8648 
  147000    317.99798   -11375.524    62.560845   -11438.085   -8254.8795 
  147200    349.71906   -11382.436    68.801442   -11451.237   -7268.0739 
  147400    332.41018   -11381.564    65.396205    -11446.96      214.142 
  147600    281.13882   -11402.971    55.309413   -11458.281   -7921.6722 
  147800    291.13842   -11387.064     57.27667   -11444.341    5624.1802 
  148000    310.53787   -11377.504    61.093191   -11438.597    2917.1528 
  148200    245.62768   -11400.626    48.323184   -11448.949     7031.974 
  148400    317.55706   -11391.386    62.474101    -11453.86    6898.0971 
  148600     351.1407   -11374.943    69.081127   -11444.024    5598.4935 
  148800    296.74537   -11386.544    58.379745   -11444.924   -13.531599 
  149000    280.29808   -11386.056    55.144013     -11441.2   -10136.911 
  149200    365.93599   -11365.885    71.991854   -11437.876    11738.954 
  149400    315.30739   -11384.418    62.031515   -11446.449   -3385.0347 
  149600    274.93149   -11397.076    54.088224   -11451.164    2907.4926 
  149800    308.85393   -11380.244    60.761903   -11441.006    1048.8491 
  150000    382.95096   -11371.068    75.339269   -11446.407    3782.9165 
  150200    316.98547    -11388.68     62.36165   -11451.042     355.1333 
  150400    343.93381    -11380.32     67.66329   -11447.983    10393.786 
  150600    304.20154   -11391.119    59.846622   -11450.966   -2141.2147 
  150800    319.89332   -11397.739    62.933721   -11460.673    4265.2797 
  151000    279.48663   -11386.627    54.984372   -11441.611    3777.1215 
  151200    282.81934   -11389.961    55.640028   -11445.601    13586.495 
  151400    383.72936   -11370.223    75.492406   -11445.715   -3255.4162 
  151600    300.62446   -11388.433    59.142892   -11447.576   -10767.313 
  151800    338.31727   -11388.377    66.558328   -11454.935   -3593.0481 
  152000    284.56122   -11396.084    55.982715   -11452.067   -11881.612 
  152200    312.07953   -11378.709    61.396488   -11440.106   -3581.6296 
  152400     312.2674   -11385.318    61.433447   -11446.752   -9973.8933 
  152600    290.76605   -11386.111    57.203412   -11443.314     14405.62 
  152800    287.11257   -11394.155     56.48465    -11450.64    7491.0476 
  153000     294.0419   -11395.695    57.847881   -11453.543    1064.8061 
  153200    273.65887   -11384.071    53.837857   -11437.909    2687.7137 
  153400    292.71074   -11383.465    57.585998   -11441.051   -938.18375 
  153600    264.10675   -11392.348    51.958635   -11444.306   -19317.085 
  153800    258.92358   -11396.857    50.938933   -11447.796   -8544.3521 
  154000     316.9243    -11381.96    62.349615    -11444.31    14255.461 
  154200    278.50201   -11394.953    54.790664   -11449.743    9225.8401 
  154400    354.83039   -11378.783    69.807011    -11448.59    11268.368 
  154600    281.60903   -11384.317     55.40192   -11439.719    10706.803 
  154800    337.47139   -11389.254    66.391915   -11455.646    12149.124 
  155000    267.06454   -11402.462    52.540531   -11455.003    42.793018 
  155200    318.60746   -11382.713     62.68075   -11445.393   -7404.1751 
  155400    288.39388   -11385.303    56.736727   -11442.039   -9290.8526 
  155600    299.74392   -11381.438    58.969659   -11440.408   -6496.3607 
  155800    248.37081   -11400.049    48.862849   -11448.912   -6559.0006 
  156000    269.76867   -11384.722    53.072524   -11437.794   -7620.3773 
  156200    376.04978   -11378.651    73.981575   -11452.633   -14266.337 
  156400    259.58161   -11397.008     51.06839   -11448.076    -4896.518 
  156600    297.83502   -11381.985    58.594115    -11440.58   -15547.877 
  156800     307.0604   -11377.905    60.409055   -11438.314   -19521.677 
  157000    284.21613   -11395.752    55.914824   -11451.667   -16646.184 
  157200    290.76763   -11393.941    57.203723   -11451.145    1321.8488 
  157400    326.92525   -11382.276    64.317137   -11446.593    10117.896 
  157600    315.92296    -11385.62    62.152617   -11447.772    3192.2828 
  157800    248.44715   -11406.902    48.877868    -11455.78    13378.516 
  158000    318.57402   -11392.227    62.674171   -11454.902   -10275.242 
  158200    329.09322   -11381.725    64.743649   -11446.469    19590.847 
  158400    263.62863   -11397.931    51.864573   -11449.795   -10447.799 
  158600     275.9618   -11396.352     54.29092   -11450.643   -6423.0817 
  158800    296.30075   -11371.564    58.292273   -11429.857   -3835.5862 
  159000    326.95269   -11382.539    64.322535   -11446.861    244.27882 
  159200    303.27479   -11393.159      59.6643   -11452.823   -4534.1935 
  159400    334.92614   -11373.702    65.891179   -11439.593   -8600.1638 
  159600    315.41504   -11379.194    62.052694   -11441.247    4317.5402 
  159800    314.32455   -11383.414    61.838157   -11445.252   -6534.8116 
  160000    276.69911   -11398.437    54.435974   -11452.873   -2121.2102 
  160200    323.06997   -11383.188    63.558674   -11446.747    4815.0955 
  160400    307.05465   -11382.219    60.407925   -11442.627    11431.835 
  160600    344.97399   -11381.975    67.867927   -11449.843    23352.316 
  160800    254.68033   -11399.112    50.104143   -11449.216   -463.21966 
  161000    295.61857   -11380.628    58.158065   -11438.786    8197.9386 
  161200    324.09429   -11378.782    63.760192   -11442.542   -8982.6549 
  161400    285.75564   -11393.767    56.217696   -11449.985   -7480.3267 
  161600    277.61704    -11412.02    54.616562   -11466.637   -15997.827 
  161800    324.96499   -11389.089    63.931488   -11453.021    3867.8653 
  162000    337.10355     -11378.6    66.319548    -11444.92   -12998.398 
  162200    263.58183    -11391.34    51.855367   -11443.195    3105.2614 
  162400    265.16057   -11399.105    52.165956   -11451.271     1473.047 
  162600    292.52411   -11379.006    57.549282   -11436.555   -7902.2878 
  162800     285.7089   -11383.017    56.208502   -11439.225    2536.1231 
  163000    285.87886   -11395.748    56.241939    -11451.99    2864.1513 
  163200     307.2807   -11382.679    60.452397   -11443.131    7473.7481 
  163400    271.16648   -11384.533    53.347521    -11437.88   -468.37063 
  163600    327.44099   -11380.195      64.4186   -11444.613   -4997.7288 
  163800    273.49951   -11391.429    53.806506   -11445.236   -3479.6175 
  164000     287.2022   -11383.375    56.502283   -11439.877    15485.775 
  164200    351.80485   -11377.642    69.211786   -11446.854   -6394.0235 
  164400    309.86736   -11389.681     60.96128   -11450.642    3534.2554 
  164600    288.72809   -11390.956    56.802477   -11447.759    17484.025 
  164800    316.29823   -11384.048    62.226447   -11446.275   -1764.8405 
  165000    350.78613   -11380.103     69.01137   -11449.114     6760.715 
  165200    284.08326   -11393.147    55.888685   -11449.035   -12242.077 
  165400    345.06599   -11381.081    67.886027   -11448.967   -8480.4121 
  165600    300.67477   -11376.493    59.152788   -11435.646    2956.6831 
  165800    249.89124   -11394.508    49.161969    -11443.67    8839.3821 
  166000    335.46828   -11383.164    65.997836   -11449.162    572.38068 
  166200    333.52982   -11385.333    65.616477    -11450.95   -13421.664 
  166400    290.62453   -11391.335    57.175571   -11448.511    20057.529 
  166600    237.55006   -11405.432    46.734045   -11452.166   -12980.316 
  166800    316.22717   -11383.231    62.212466   -11445.443   -4665.5318 
  167000    258.59294   -11393.777    50.873884   -11444.651   -10468.465 
  167200    316.39987   -11387.807    62.246443   -11450.054   -3270.7113 
  167400    301.46122   -11378.046    59.307509   -11437.353    14402.462 
  167600    303.18074   -11391.993    59.645796   -11451.639    11477.425 
  167800    270.50513   -11398.458     53.21741   -11451.676    1908.3671 
  168000    306.25167     -11385.6    60.249952    -11445.85    2876.0861 
  168200    274.64164   -11389.673    54.031201   -11443.704    3533.8167 
  168400    241.73654   -11402.353    47.557667   -11449.911    3858.6902 
  168600    300.98359   -11389.817    59.213543    -11449.03   -10720.754 
  168800    309.23829   -11387.153    60.837519    -11447.99    2016.0253 
  169000    297.97303   -11397.799    58.621266    -11456.42    -4745.559 
  169200    286.21474   -11400.879    56.308017   -11457.187   -1030.6858 
  169400    295.02774   -11382.659    58.041829   -11440.701    12678.663 
  169600     328.3538   -11381.355     64.59818   -11445.954    3282.3481 
  169800    279.73251   -11397.992    55.032746   -11453.025    9370.7874 
  170000    323.72406    -11381.66    63.687356   -11445.347    2631.5163 
  170200    345.53323   -11363.118    67.977949   -11431.096   -20663.362 
  170400    305.57766   -11380.813    60.117351   -11440.931    10334.602 
  170600    295.19948     -11400.8    58.075616   -11458.876    3838.2898 
  170800    324.23726   -11385.368     63.78832   -11449.156   -10582.582 
  171000     320.8836    -11386.34    63.128542   -11449.469    8743.8001 
  171200    310.85503   -11396.894    61.155587    -11458.05   -18916.487 
  171400    295.76241   -11372.652    58.186364   -11430.839    -5906.525 
  171600    290.23184   -11387.039    57.098316   -11444.137   -3019.0895 
  171800    290.59524   -11391.168    57.169808   -11448.338   -8594.0196 
  172000    262.42831   -11390.059     51.62843   -11441.688   -6879.8185 
  172200     325.1814   -11374.359    63.974063   -11438.333   -5378.1758 
  172400    327.41404   -11375.259    64.413298   -11439.672   -4922.0738 
  172600    302.94743   -11393.721    59.599897   -11453.321    7943.0522 
  172800    255.06213   -11390.883    50.179256   -11441.062   -4711.5644 
  173000    297.01429   -11385.638    58.432649   -11444.071    14836.664 
  173200    253.44988   -11391.297    49.862073   -11441.159    4016.1888 
  173400    293.72636   -11405.409    57.785803   -11463.195    4276.6601 
  173600    305.05116    -11389.87     60.01377   -11449.884   -10967.815 
  173800       303.49   -11384.197    59.706639   -11443.904    2418.8507 
  174000    290.64377   -11398.902    57.179355   -11456.081   -20884.021 
  174200    313.24706   -11390.216    61.626179   -11451.842   -3849.1284 
  174400    317.49469   -11381.579    62.461831   -11444.041    3067.8718 
  174600    291.59201   -11397.849    57.365906   -11455.215   -5793.3719 
  174800    300.63715   -11396.788    59.145387   -11455.933    8271.6505 
  175000     326.0271    -11382.91     64.14044    -11447.05    7904.8653 
  175200    347.56259   -11379.112    68.377192   -11447.489    1476.8618 
  175400     262.5476   -11395.806    51.651898   -11447.458   -231.06757 
  175600    343.47893   -11383.864    67.573799   -11451.438   -2115.7598 
  175800    320.09666   -11380.083    62.973724   -11443.057    3243.7823 
  176000    299.00438   -11382.322    58.824168   -11441.146   -26886.636 
  176200     286.7171    -11399.16    56.406848   -11455.566   -4842.5367 
  176400    328.67923    -11384.19    64.662202   -11448.852    1597.4571 
  176600    281.36002   -11386.701    55.352931   -11442.054   -11297.764 
  176800    333.36281   -11387.554     65.58362   -11453.137    1478.5064 
  177000    343.43217   -11373.208    67.564599   -11440.773   -17025.054 
  177200    290.17016   -11393.657     57.08618   -11450.743     220.4121 
  177400    298.51779   -11388.729    58.728439   -11447.458    -13593.46 
  177600     315.6983   -11380.421     62.10842    -11442.53   -9933.7274 
  177800    292.74684   -11390.894    57.593099   -11448.487   -16370.187 
[...]
  950000    285.15476   -11463.558    56.099484   -11519.658   -1696.1144 
  950200    337.35623    -11454.56     66.36926   -11520.929    8947.8252 
  950400    327.39777   -11446.287    64.410098   -11510.697    14163.344 
  950600    332.99908   -11451.905    65.512063   -11517.417   -13130.482 
  950800    308.60198   -11460.875    60.712336   -11521.587   -9084.4574 
  951000    300.11996   -11465.855     59.04364   -11524.898   -6024.2625 
  951200    308.05934   -11451.894    60.605581     -11512.5   -6636.9118 
  951400    335.62389   -11457.936     66.02845   -11523.965   -6215.4697 
  951600     283.8446   -11481.553    55.841732   -11537.395   -5522.6697 
  951800    311.52896   -11474.293    61.288172   -11535.581   -23156.894 
  952000    304.07902   -11458.815    59.822519   -11518.637    6741.6102 
  952200    235.34566   -11473.762    46.300367   -11520.063    10526.271 
  952400    287.16224   -11469.193    56.494422   -11525.688     8039.602 
  952600    302.00685   -11461.116    59.414854   -11520.531   -9919.6925 
  952800    295.98522   -11462.917    58.230197   -11521.147   -4724.7788 
  953000    243.44536    -11474.32    47.893849   -11522.214    14266.057 
  953200    250.30524   -11478.017    49.243416    -11527.26    11533.173 
  953400    276.20547   -11461.001    54.338859    -11515.34    11797.554 
  953600    290.63804   -11464.756    57.178228   -11521.934    1651.5931 
  953800    286.91492   -11472.909    56.445766   -11529.354   -10387.613 
  954000    368.64562    -11464.28     72.52493   -11536.805    9151.7529 
  954200    338.06688    -11455.69    66.509068   -11522.199   -6792.6335 
  954400    260.85557   -11477.751    51.319019    -11529.07    18653.505 
  954600    271.71529   -11463.215     53.45549    -11516.67    7298.1937 
  954800    383.47839   -11450.137    75.443032    -11525.58   -3883.4497 
  955000    315.63395   -11460.351     62.09576   -11522.446   -4222.0846 
  955200    304.39344   -11462.865    59.884376   -11522.749   -10839.266 
  955400    288.78132    -11450.22     56.81295   -11507.033     993.9021 
  955600    266.06585   -11467.723    52.344056   -11520.068    16555.889 
  955800    362.47669   -11463.062    71.311295   -11534.373   -5975.3912 
  956000    279.19705   -11470.045    54.927402   -11524.972   -401.74465 
  956200    264.08135   -11484.827    51.953639   -11536.781    4737.5239 
  956400    295.82894   -11465.587    58.199452   -11523.787   -6170.4765 
  956600     334.7036   -11458.886    65.847398   -11524.733   -16793.353 
  956800    242.42228   -11478.755    47.692575   -11526.447   -1978.1954 
  957000     303.3265   -11467.097    59.674473   -11526.771    5136.9278 
  957200    341.44386   -11444.862    67.173434   -11512.035    15541.599 
  957400    355.53006    -11442.37    69.944659   -11512.314   -9578.9467 
  957600    320.91565   -11463.291    63.134848   -11526.426   -8406.4393 
  957800     324.4631   -11468.325     63.83275   -11532.158    6389.8158 
  958000    307.89294   -11446.329    60.572845   -11506.901    4544.7354 
  958200    258.51687    -11461.65    50.858919   -11512.509    21553.325 
  958400    346.84507    -11462.07    68.236032   -11530.306    2229.5104 
  958600    253.01994   -11472.896     49.77749   -11522.673   -24345.099 
  958800    228.39768   -11485.644    44.933466   -11530.577   -6160.5359 
  959000    283.16238   -11466.349    55.707515   -11522.057    12001.196 
  959200    344.24718   -11458.446     67.72494   -11526.171   -3611.3598 
  959400     244.6734   -11470.586    48.135446   -11518.722    998.06124 
  959600    287.68896   -11461.537    56.598046   -11518.135   -1285.3364 
  959800    341.86703    -11455.78    67.256684   -11523.037      16389.7 
  960000    324.64467   -11465.288    63.868471   -11529.157    2771.4431 
  960200    270.00207   -11482.472    53.118441   -11535.591    13373.682 
  960400    305.19964    -11469.04    60.042982   -11529.083    -10865.73 
  960600    325.82851   -11460.712    64.101372   -11524.813   -2661.0297 
  960800    281.57593   -11481.679    55.395407   -11537.074   -16719.595 
  961000    300.19443   -11476.297     59.05829   -11535.355    2510.7106 
  961200    313.35448   -11462.563    61.647312    -11524.21    8319.3921 
  961400    310.23175   -11461.692    61.032967   -11522.725    9699.4519 
  961600    292.76532   -11480.778    57.596735   -11538.374   -4003.0505 
  961800    282.72361   -11463.226    55.621196   -11518.848    1035.7902 
  962000    316.39192   -11459.699    62.244877   -11521.944   -17030.691 
  962200    293.96618   -11474.671    57.832984   -11532.504   -4732.4153 
  962400    315.32219   -11465.904    62.034426   -11527.939   -4783.2841 
  962600    333.11764   -11462.853    65.535387   -11528.389    16857.636 
  962800    298.24553   -11474.994    58.674876   -11533.668    10545.182 
  963000    369.33881   -11456.788    72.661303   -11529.449    15555.688 
  963200    278.67524   -11473.559    54.824745   -11528.384    11569.963 
  963400    285.93507   -11478.963    56.252996   -11535.216     8305.464 
  963600     327.0815   -11458.054    64.347876   -11522.402    4043.4227 
  963800    299.36374   -11459.264    58.894866   -11518.159   -8724.6692 
  964000    319.15423   -11463.731    62.788317   -11526.519   -2779.7201 
  964200    318.10183   -11474.092    62.581274   -11536.674   -9274.9773 
  964400    350.90912   -11452.434    69.035567   -11521.469    6703.4665 
  964600    301.32954   -11467.283    59.281603   -11526.565   -2233.0042 
  964800    285.65799   -11468.215    56.198486   -11524.413   -11170.433 
  965000    286.15944   -11465.765    56.297137   -11522.062   -7250.2999 
  965200    309.28454   -11468.484    60.846618   -11529.331   -3702.1307 
  965400     280.7084   -11458.898    55.224735   -11514.122    2700.0512 
  965600    284.33137   -11455.498    55.937495   -11511.436     14781.77 
  965800    278.29938   -11475.968    54.750801   -11530.719    4959.5126 
  966000    306.89708   -11472.057    60.376926   -11532.434    8014.0969 
  966200    299.76594   -11460.347    58.973992   -11519.321    972.16145 
  966400    364.81106   -11454.752    71.770543   -11526.523    15813.549 
  966600    325.91432   -11470.311    64.118253    -11534.43    10789.294 
  966800    311.21113   -11465.966    61.225643   -11527.192   -7217.2442 
  967000    330.72269   -11446.049    65.064221   -11511.113     2285.901 
  967200     351.3059   -11466.102    69.113626   -11535.215    8260.4295 
  967400    266.79137   -11472.955     52.48679   -11525.441    2953.0276 
  967600    322.95001   -11453.801    63.535074   -11517.336     3896.427 
  967800    338.68357   -11462.396    66.630391   -11529.026    12263.323 
  968000    277.18839   -11472.669    54.532232   -11527.201   -9860.9725 
  968200    327.87828   -11455.343     64.50463   -11519.848    1984.9999 
  968400    307.68318   -11456.944    60.531578   -11517.476    2965.0028 
  968600    278.81514   -11471.914    54.852268   -11526.766    8021.9583 
  968800    291.39466   -11471.112     57.32708   -11528.439    2155.1628 
  969000     293.1743   -11455.691    57.677195   -11513.368   -3032.2934 
  969200    283.92053   -11469.804    55.856669   -11525.661     -8135.65 
  969400    223.80183   -11488.279     44.02931   -11532.308    13026.629 
  969600    318.41783   -11469.569    62.643442   -11532.212    10168.489 
  969800    280.14476    -11467.39    55.113849   -11522.504    2487.6355 
  970000    299.51519    -11455.07     58.92466   -11513.995    14310.521 
  970200    264.89331   -11475.599    52.113377   -11527.712   -3722.4194 
  970400    309.85555   -11466.046    60.958956   -11527.005   -2150.3915 
  970600    251.17106       -11466    49.413753   -11515.414    2043.0847 
  970800     302.8639   -11462.151    59.583463   -11521.734    -2436.372 
  971000    247.59584   -11472.649    48.710386   -11521.359    2034.3205 
  971200    344.33109   -11454.602    67.741449   -11522.343    6701.0837 
  971400    299.80824   -11462.301    58.982314   -11521.284   -8430.4478 
  971600    286.72674   -11465.437    56.408744   -11521.846    6445.0749 
  971800    298.67394   -11467.679    58.759159   -11526.438   -3994.5131 
  972000    314.55871   -11473.765    61.884224   -11535.649    3619.2027 
  972200    292.02641   -11475.415    57.451366   -11532.866   -9136.1422 
  972400    341.33297   -11456.114    67.151617   -11523.266   -956.69743 
  972600    295.21839   -11471.215    58.079336   -11529.294   -2035.0726 
  972800    290.76918   -11476.799    57.204028   -11534.003    4946.3819 
  973000    333.52229   -11454.875    65.614995    -11520.49   -1939.6904 
  973200    294.65597   -11471.228    57.968689   -11529.196    25899.978 
  973400    304.82413   -11460.544    59.969107   -11520.513     9383.681 
  973600     341.6541   -11455.784    67.214794   -11522.999   -5429.3372 
  973800    279.03288   -11469.871    54.895104   -11524.766   -18150.599 
  974000    292.17292   -11465.884     57.48019   -11523.364    10554.442 
  974200    312.12044   -11456.938    61.404534   -11518.342    178.51641 
  974400    306.97502   -11467.259    60.392259   -11527.651   -5894.5045 
  974600    300.57307   -11460.134     59.13278   -11519.267    4346.1096 
  974800    345.38838   -11444.315    67.949453   -11512.264    19971.718 
  975000    322.85881   -11465.721    63.517132   -11529.238    13576.591 
  975200    238.49925   -11464.069    46.920783    -11510.99   -13462.899 
  975400    318.03291   -11456.461    62.567716   -11519.028   -766.23641 
  975600    306.23356   -11463.156    60.246389   -11523.402    10921.453 
  975800    235.71893   -11472.502    46.373802   -11518.876    2355.5483 
  976000    322.31198   -11457.013    63.409553   -11520.422    8556.9209 
  976200    308.23491   -11471.312    60.640121   -11531.952   -13627.461 
  976400    310.47054   -11468.826    61.079945   -11529.906   -20587.212 
  976600    252.81191   -11473.005    49.736563   -11522.741   -3718.7863 
  976800     289.3424   -11465.208    56.923332   -11522.131    1406.6568 
  977000     282.1008   -11462.259    55.498668   -11517.757    9512.1061 
  977200    278.38894   -11473.203     54.76842   -11527.971    -2931.214 
  977400    318.13808   -11460.239    62.588406   -11522.827    334.25079 
  977600    385.87198   -11443.038    75.913932   -11518.952    -1112.332 
  977800    287.50168   -11455.952    56.561201   -11512.513    4949.2351 
  978000    242.94884   -11469.996    47.796167   -11517.792   -15919.333 
  978200    285.39075    -11461.12     56.14591   -11517.266    816.42765 
  978400    329.64426   -11451.532    64.852057   -11516.384    3313.2342 
  978600    258.19046   -11464.316    50.794703   -11515.111    21076.897 
  978800    363.24095   -11455.551    71.461651   -11527.012   -1386.5048 
  979000    265.97718   -11477.079    52.326611   -11529.405    5992.8075 
  979200    343.02333   -11460.946    67.484168    -11528.43   -2499.1437 
  979400    328.72572   -11450.407     64.67135   -11515.078    5458.5352 
  979600    305.82592   -11443.223    60.166192   -11503.389   -6539.6852 
  979800    340.58161   -11461.782    67.003799   -11528.786   -9345.4017 
  980000    278.71708   -11464.748    54.832976   -11519.581    -3534.165 
  980200    324.44423    -11458.25    63.829037   -11522.079    3147.1332 
  980400    324.07884   -11455.696    63.757152   -11519.453   -2283.0416 
  980600    325.33257   -11451.145    64.003803   -11515.149    11624.941 
  980800     260.2809   -11469.086    51.205963   -11520.292    2908.2811 
  981000    344.92458    -11451.29    67.858207   -11519.149   -20142.212 
  981200    332.77874   -11456.876    65.468714   -11522.345   -2332.6565 
  981400    296.00425   -11465.776    58.233941    -11524.01    16256.045 
  981600    272.40327    -11481.08    53.590839   -11534.671    578.95194 
  981800    279.18136   -11471.557    54.924317   -11526.481    3673.0127 
  982000    314.05364   -11455.485    61.784861    -11517.27    13992.596 
  982200     272.7515   -11467.232    53.659348   -11520.891   -2027.6376 
  982400    363.86821   -11464.428    71.585052   -11536.013     7636.427 
  982600    250.87519   -11483.149    49.355545   -11532.505    108.66233 
  982800    257.51042   -11475.892    50.660917   -11526.553     -3595.55 
  983000    303.67696   -11459.256    59.743419   -11518.999    -7561.921 
  983200    320.97708   -11457.173    63.146933    -11520.32    10305.232 
  983400    284.70342   -11475.416    56.010689   -11531.427   -22428.286 
  983600    337.69304   -11457.608    66.435522   -11524.044   -21994.707 
  983800    305.08886   -11461.948    60.021189   -11521.969   -5599.1985 
  984000    317.40865   -11454.817    62.444903   -11517.262   -12834.836 
  984200    261.81541   -11464.841    51.507852   -11516.349    14975.658 
  984400    272.59574   -11471.821    53.628705    -11525.45   -4625.1221 
  984600    309.40441   -11449.327    60.870202   -11510.197   -11436.867 
  984800    303.60554    -11459.32    59.729369   -11519.049   -2198.6968 
  985000    318.83522   -11466.917    62.725557   -11529.643    866.05502 
  985200    301.25261   -11463.103     59.26647   -11522.369     5383.655 
  985400    390.69033   -11448.523    76.861861   -11525.385    4203.2201 
  985600     324.5656   -11464.904    63.852915   -11528.757    4456.3325 
  985800    249.88324   -11465.639    49.160396   -11514.799    18403.405 
  986000    313.69765   -11447.119    61.714825   -11508.833    1530.0879 
  986200    295.22208   -11470.247    58.080063   -11528.328    2743.1894 
  986400    311.16276   -11465.973    61.216128   -11527.189   -13398.455 
  986600    322.17262   -11455.414    63.382136   -11518.796   -8879.8678 
  986800    274.26981    -11475.37     53.95805   -11529.328    3221.4494 
  987000    330.67287   -11458.376    65.054419    -11523.43     8454.858 
  987200    330.18806   -11455.006    64.959041   -11519.965    8666.9222 
  987400    272.89734   -11474.442    53.688039    -11528.13   -9748.2319 
  987600    291.68082   -11465.593    57.383378   -11522.976    6086.5941 
  987800    277.84795   -11455.585     54.66199   -11510.247   -14601.973 
  988000    335.75443   -11455.716    66.054133    -11521.77   -12023.548 
  988200    263.56286   -11472.624    51.851635   -11524.476    9655.0937 
  988400    318.71299   -11460.483    62.701511   -11523.184    3545.5823 
  988600    330.53291   -11462.401    65.026884   -11527.427    9625.6117 
  988800    344.98617   -11456.183    67.870325   -11524.053   -1605.3493 
  989000     292.1017   -11469.129    57.466178   -11526.595   -12182.475 
  989200    271.45826   -11466.758    53.404923   -11520.162    10646.797 
  989400    325.90509    -11457.14    64.116436   -11521.256   -5726.8577 
  989600    258.54462   -11471.494    50.864378   -11522.358   -8948.2628 
  989800    307.91737   -11447.775     60.57765   -11508.353    2016.0702 
  990000    280.56443   -11458.751    55.196412   -11513.948     -4996.94 
  990200    302.78639   -11461.361    59.568214   -11520.929   -7856.5138 
  990400     296.0246   -11463.133    58.237944   -11521.371     7837.119 
  990600    367.24969   -11443.834    72.250304   -11516.084    5327.9007 
  990800    319.76698   -11464.586    62.908865   -11527.495      1353.34 
  991000    283.06176   -11467.618    55.687721   -11523.306    15985.389 
  991200    312.31262   -11444.648    61.442344    -11506.09    4783.3303 
  991400    291.41081   -11457.184    57.330258   -11514.514     12873.71 
  991600    285.44911   -11469.456    56.157391   -11525.613   -6283.4026 
  991800      327.177   -11450.613    64.366665    -11514.98    -2437.047 
  992000    291.94316   -11460.943    57.434988   -11518.378   -7568.3651 
  992200     311.2353   -11463.853    61.230398   -11525.084   -3504.8789 
  992400    351.39467   -11443.303    69.131091   -11512.434    6134.0216 
  992600    297.46409   -11462.873    58.521141   -11521.395   -214.13682 
  992800    283.37023   -11466.311    55.748408   -11522.059    22179.177 
  993000    305.39639   -11447.309    60.081689   -11507.391   -26895.167 
  993200     319.8044   -11457.594    62.916227    -11520.51    11712.241 
  993400    294.00421   -11461.193    57.840467   -11519.033    3627.1741 
  993600    299.56681    -11461.42    58.934815   -11520.354   -13033.276 
  993800    306.01838   -11450.798    60.204056   -11511.002    3444.2098 
  994000    281.57429   -11473.244    55.395086    -11528.64    17583.809 
  994200     269.6297   -11467.442    53.045184   -11520.487     10434.09 
  994400    261.50197    -11459.43    51.446187   -11510.877   -5380.3231 
  994600     270.5299   -11467.724    53.222284   -11520.947    10602.576 
  994800    350.24021   -11453.958     68.90397   -11522.862    13598.436 
  995000    326.61001   -11454.144    64.255118   -11518.399   -11998.688 
  995200    266.12546   -11474.055    52.355783   -11526.411   -21912.276 
  995400    299.72509   -11451.383    58.965955   -11510.349   -1392.6832 
  995600    339.89546   -11456.913    66.868811   -11523.781   -3694.0279 
  995800    302.87875   -11469.698    59.586386   -11529.284   -168.78025 
  996000    306.63972   -11462.974    60.326294   -11523.301    -4575.266 
  996200    395.44983   -11442.326    77.798215   -11520.124   -16047.962 
  996400    284.91936   -11465.935    56.053172   -11521.988   -14667.222 
  996600    298.22251   -11461.659    58.670347    -11520.33   -1088.1778 
  996800    294.73113   -11444.659    57.983477   -11502.642    5621.1936 
  997000    317.40399   -11456.618    62.443985   -11519.062    259.35985 
  997200    283.91106    -11469.44    55.854807   -11525.295   -19396.297 
  997400    203.23631   -11488.235    39.983383   -11528.219    1726.2157 
  997600    278.46736   -11466.858    54.783849   -11521.642    8223.9247 
  997800    306.43605   -11458.217    60.286226   -11518.503    10350.509 
  998000    325.44843   -11472.378    64.026597   -11536.404   -5540.0692 
  998200    300.89441   -11474.292       59.196   -11533.488    3711.7944 
  998400     347.1826   -11462.692    68.302436   -11530.994   -18034.324 
  998600    338.16359   -11456.368    66.528093   -11522.896   -10662.608 
  998800    257.83227   -11469.924    50.724236   -11520.649    11626.445 
  999000    298.40645   -11474.002    58.706534   -11532.709    4283.9007 
  999200    265.12622   -11454.702      52.1592   -11506.861     -21050.1 
  999400    293.67904   -11456.149    57.776494   -11513.925   -2662.9178 
  999600    272.26145     -11466.3    53.562938   -11519.863   -13483.652 
  999800    320.03089   -11462.389    62.960785    -11525.35    11928.882 
 1000000    320.70717   -11450.676    63.093833   -11513.769   -12090.544 
Loop time of 1678.5 on 8 procs for 1000000 steps with 67 atoms

Performance: 12.869 ns/day, 1.865 hours/ns, 595.768 timesteps/s
99.6% CPU use with 8 MPI tasks x no OpenMP threads

MPI task timing breakdown:
Section |  min time  |  avg time  |  max time  |%varavg| %total
---------------------------------------------------------------
Pair    | 1030.4     | 1066.2     | 1101.5     |  82.1 | 63.52
Neigh   | 1.8459     | 1.8749     | 1.8922     |   1.0 |  0.11
Comm    | 29.519     | 65.629     | 102.31     | 332.0 |  3.91
Output  | 0.073252   | 0.078165   | 0.10023    |   3.0 |  0.00
Modify  | 541.9      | 542.86     | 543.64     |   3.0 | 32.34
Other   |            | 1.91       |            |       |  0.11

Nlocal:    8.375 ave 17 max 3 min
Histogram: 4 0 0 0 0 0 2 1 0 1
Nghost:    426.625 ave 435 max 415 min
Histogram: 1 0 1 0 0 2 0 2 0 2
Neighs:    630.875 ave 1252 max 242 min
Histogram: 4 0 0 0 0 0 3 0 0 1

Total # of neighbors = 5047
Ave neighs/atom = 75.3284
Neighbor list builds = 4175
Dangerous builds = 0

unfix 1
unfix output
undump 1

Please see the log.cite file for references relevant to this simulation

Total wall time: 0:28:07
