ITEM: TIMESTEP
0
ITEM: NUMBER OF ATOMS
51
ITEM: BOX BOUNDS pp pp pp
0.0000000000000000e+00 1.1000000000000000e+01
0.0000000000000000e+00 1.1002000000000001e+01
0.0000000000000000e+00 1.1000000000000000e+01
ITEM: ATOMS id type x y z 
10 1 4.603 4.603 4.603 
11 1 3.085 3.085 3.085 
12 1 3.796 3.796 3.796 
46 1 0.726 0.725 0.725 
47 1 2.26 2.259 2.26 
48 1 1.551 1.55 1.55 
49 2 2.685 2.783 4.347 
50 2 1.589 3.648 4.938 
51 3 1.494 4.551 4.554 
19 1 4.546 4.545 6.226 
20 1 3.013 3.013 7.764 
21 1 3.721 3.721 7.053 
31 1 0.668 0.667 10.103 
32 1 2.187 2.187 8.589 
33 1 1.476 1.475 9.298 
16 1 4.546 6.225 4.546 
17 1 3.013 7.765 3.013 
18 1 3.721 7.053 3.722 
25 1 0.668 10.103 0.668 
26 1 2.188 8.589 2.188 
27 1 1.476 9.298 1.476 
4 1 4.608 6.169 6.169 
5 1 3.086 7.684 7.684 
6 1 3.799 6.974 6.974 
37 1 0.729 10.046 10.046 
38 1 2.259 8.509 8.508 
39 1 1.552 9.219 9.219 
13 1 6.225 4.546 4.546 
14 1 7.764 3.013 3.013 
15 1 7.053 3.721 3.722 
28 1 10.102 0.667 0.668 
29 1 8.589 2.187 2.188 
30 1 9.298 1.475 1.476 
1 1 6.168 4.608 6.169 
2 1 7.684 3.086 7.684 
3 1 6.974 3.799 6.974 
40 1 10.045 0.728 10.046 
41 1 8.508 2.259 8.508 
42 1 9.218 1.551 9.218 
7 1 6.169 6.169 4.608 
8 1 7.684 7.684 3.086 
9 1 6.974 6.974 3.799 
43 1 10.046 10.047 0.729 
44 1 8.508 8.509 2.259 
45 1 9.219 9.219 1.552 
22 1 6.229 6.229 6.229 
23 1 7.764 7.765 7.765 
24 1 7.055 7.056 7.055 
34 1 10.108 10.108 10.107 
35 1 8.59 8.59 8.59 
36 1 9.301 9.301 9.3 
ITEM: TIMESTEP
10
ITEM: NUMBER OF ATOMS
51
ITEM: BOX BOUNDS pp pp pp
0.0000000000000000e+00 1.1000000000000000e+01
0.0000000000000000e+00 1.1002000000000001e+01
0.0000000000000000e+00 1.1000000000000000e+01
ITEM: ATOMS id type x y z 
10 1 4.63398 4.62715 4.62689 
11 1 3.06674 3.05748 3.09172 
12 1 3.8765 3.84935 3.71059 
46 1 0.73101 0.729852 0.733114 
47 1 2.27217 2.26757 2.24367 
48 1 1.55917 1.55862 1.55236 
49 2 2.60999 2.66769 4.39037 
50 2 1.56664 3.69835 4.93366 
51 3 1.46531 4.53685 4.58151 
19 1 4.53862 4.53969 6.25928 
20 1 2.99481 2.99464 7.77679 
21 1 3.70583 3.70614 7.07752 
31 1 0.670504 0.671429 10.0898 
32 1 2.19572 2.19785 8.58414 
33 1 1.48485 1.48007 9.2808 
16 1 4.54295 6.26129 4.53867 
17 1 2.99482 7.77718 2.99594 
18 1 3.70765 7.07738 3.70661 
25 1 0.671894 10.0888 0.670903 
26 1 2.19635 8.583 2.19617 
27 1 1.48419 9.28472 1.48472 
4 1 4.60389 6.174 6.17602 
5 1 3.0793 7.69189 7.69353 
6 1 3.7855 6.985 6.9818 
37 1 0.736096 10.0394 10.0376 
38 1 2.27378 8.49575 8.49376 
39 1 1.56725 9.20101 9.203 
13 1 6.26215 4.54323 4.53729 
14 1 7.77769 2.99365 2.99506 
15 1 7.07797 3.70701 3.70541 
28 1 10.088 0.670666 0.670813 
29 1 8.58306 2.19552 2.19646 
30 1 9.28427 1.48338 1.48441 
1 1 6.17247 4.60303 6.17775 
2 1 7.69058 3.07812 7.69365 
3 1 6.98733 3.78792 6.98163 
40 1 10.0367 0.734294 10.0382 
41 1 8.49345 2.2725 8.49484 
42 1 9.20343 1.56785 9.20079 
7 1 6.17518 6.17716 4.6046 
8 1 7.693 7.69346 3.07925 
9 1 6.98391 6.98322 3.78474 
43 1 10.0381 10.0376 0.735738 
44 1 8.49484 8.49375 2.27299 
45 1 9.20063 9.20428 1.56916 
22 1 6.23642 6.23722 6.23637 
23 1 7.7783 7.77982 7.77795 
24 1 7.07149 7.07119 7.07376 
34 1 10.1028 10.102 10.103 
35 1 8.58189 8.58067 8.58366 
36 1 9.29073 9.29335 9.28661 
ITEM: TIMESTEP
20
ITEM: NUMBER OF ATOMS
51
ITEM: BOX BOUNDS pp pp pp
0.0000000000000000e+00 1.1000000000000000e+01
0.0000000000000000e+00 1.1002000000000001e+01
0.0000000000000000e+00 1.1000000000000000e+01
ITEM: ATOMS id type x y z 
10 1 4.63529 4.62577 4.61285 
11 1 3.02739 3.00538 3.20979 
12 1 3.91188 3.87482 3.68531 
46 1 0.7157 0.716066 0.723036 
47 1 2.28205 2.27364 2.20647 
48 1 1.56188 1.558 1.5297 
49 2 2.61451 2.65647 4.34906 
50 2 1.56179 3.69964 4.93902 
51 3 1.43999 4.55635 4.59305 
19 1 4.54942 4.55018 6.2799 
20 1 2.99871 2.9986 7.76826 
21 1 3.71183 3.71225 7.08314 
31 1 0.669544 0.667334 10.0806 
32 1 2.19316 2.19145 8.58597 
33 1 1.47819 1.48092 9.28326 
16 1 4.55441 6.28902 4.5508 
17 1 2.99486 7.77114 2.99645 
18 1 3.71535 7.08514 3.7136 
25 1 0.670629 10.0828 0.669105 
26 1 2.19432 8.5898 2.19083 
27 1 1.47607 9.27876 1.48249 
4 1 4.60015 6.17213 6.17595 
5 1 3.08679 7.68679 7.68529 
6 1 3.78541 6.98003 6.9829 
37 1 0.735728 10.034 10.0326 
38 1 2.2749 8.49402 8.49394 
39 1 1.56352 9.20618 9.20471 
13 1 6.29333 4.55535 4.55059 
14 1 7.77186 2.99306 2.99455 
15 1 7.0874 3.71502 3.71282 
28 1 10.0822 0.66861 0.669284 
29 1 8.59086 2.19222 2.19176 
30 1 9.27801 1.47624 1.47977 
1 1 6.17107 4.59975 6.1779 
2 1 7.68567 3.08516 7.6843 
3 1 6.98168 3.789 6.98494 
40 1 10.0332 0.734282 10.0317 
41 1 8.49403 2.27416 8.49414 
42 1 9.20483 1.56282 9.20445 
7 1 6.17692 6.17933 4.60027 
8 1 7.68757 7.68676 3.08195 
9 1 6.98356 6.98569 3.79056 
43 1 10.0326 10.033 0.73453 
44 1 8.49703 8.49725 2.27184 
45 1 9.20324 9.20413 1.56496 
22 1 6.2402 6.2406 6.24197 
23 1 7.77474 7.77591 7.77249 
24 1 7.06856 7.06839 7.07464 
34 1 10.0996 10.1008 10.0995 
35 1 8.58669 8.58708 8.58588 
36 1 9.29165 9.29171 9.29218 
ITEM: TIMESTEP
30
ITEM: NUMBER OF ATOMS
51
ITEM: BOX BOUNDS pp pp pp
0.0000000000000000e+00 1.1000000000000000e+01
0.0000000000000000e+00 1.1002000000000001e+01
0.0000000000000000e+00 1.1000000000000000e+01
ITEM: ATOMS id type x y z 
10 1 4.63987 4.62895 4.60156 
11 1 3.00165 2.97459 3.26724 
12 1 3.91558 3.87426 3.67213 
46 1 0.717695 0.718055 0.723859 
47 1 2.28893 2.2785 2.19293 
48 1 1.56865 1.56324 1.52024 
49 2 2.61464 2.65535 4.3266 
50 2 1.56109 3.70318 4.93833 
51 3 1.43078 4.5589 4.60009 
19 1 4.54954 4.54995 6.2798 
20 1 3.00019 3.00041 7.76697 
21 1 3.71697 3.71719 7.08026 
31 1 0.66774 0.667902 10.0822 
32 1 2.18886 2.19067 8.58522 
33 1 1.48073 1.47648 9.28659 
16 1 4.55585 6.29343 4.55203 
17 1 2.99736 7.76885 2.9988 
18 1 3.71851 7.08639 3.71674 
25 1 0.669518 10.0825 0.668825 
26 1 2.1901 8.58671 2.18979 
27 1 1.47783 9.28645 1.47836 
4 1 4.59744 6.16977 6.1772 
5 1 3.0834 7.68623 7.68576 
6 1 3.7932 6.97919 6.98092 
37 1 0.736315 10.032 10.0294 
38 1 2.27144 8.49782 8.49732 
39 1 1.56366 9.20544 9.20427 
13 1 6.29891 4.55762 4.55258 
14 1 7.76909 2.99615 2.997 
15 1 7.0891 3.71838 3.71702 
28 1 10.0815 0.668195 0.668521 
29 1 8.58739 2.18879 2.18954 
30 1 9.28651 1.47644 1.47768 
1 1 6.17059 4.59931 6.17932 
2 1 7.68686 3.08408 7.68525 
3 1 6.9773 3.79292 6.98185 
40 1 10.0307 0.73505 10.028 
41 1 8.49676 2.27148 8.49685 
42 1 9.20452 1.56307 9.20368 
7 1 6.17918 6.18269 4.60269 
8 1 7.68764 7.68902 3.08343 
9 1 6.98149 6.97962 3.79048 
43 1 10.029 10.0294 0.73557 
44 1 8.49775 8.49864 2.27184 
45 1 9.20423 9.20387 1.56219 
22 1 6.24218 6.242 6.24712 
23 1 7.77546 7.77594 7.77533 
24 1 7.0668 7.06782 7.0696 
34 1 10.0981 10.0985 10.0965 
35 1 8.58602 8.58679 8.58652 
36 1 9.29532 9.29479 9.29288 
ITEM: TIMESTEP
40
ITEM: NUMBER OF ATOMS
51
ITEM: BOX BOUNDS pp pp pp
0.0000000000000000e+00 1.1000000000000000e+01
0.0000000000000000e+00 1.1002000000000001e+01
0.0000000000000000e+00 1.1000000000000000e+01
ITEM: ATOMS id type x y z 
10 1 4.64135 4.63069 4.57813 
11 1 2.98214 2.94381 3.30858 
12 1 3.91144 3.86359 3.65384 
46 1 0.722654 0.721601 0.720351 
47 1 2.30873 2.29141 2.18101 
48 1 1.58008 1.57709 1.51752 
49 2 2.59232 2.63234 4.33475 
50 2 1.55969 3.70824 4.93811 
51 3 1.4149 4.56549 4.61189 
19 1 4.55059 4.55073 6.26766 
20 1 3.00291 3.00332 7.76902 
21 1 3.71775 3.71793 7.07435 
31 1 0.669516 0.668516 10.0879 
32 1 2.1893 2.18915 8.5825 
33 1 1.47999 1.47938 9.28605 
16 1 4.55907 6.29124 4.55317 
17 1 2.99843 7.76988 2.99887 
18 1 3.71885 7.09026 3.71874 
25 1 0.669597 10.0897 0.66913 
26 1 2.18768 8.58483 2.1877 
27 1 1.47754 9.28798 1.47788 
4 1 4.5979 6.16657 6.17973 
5 1 3.08404 7.68711 7.68613 
6 1 3.79141 6.97697 6.98143 
37 1 0.73512 10.0319 10.0295 
38 1 2.2716 8.49761 8.49746 
39 1 1.5643 9.20495 9.20224 
13 1 6.30022 4.56033 4.55479 
14 1 7.77191 2.99662 2.99769 
15 1 7.09285 3.71817 3.71608 
28 1 10.0888 0.668067 0.668126 
29 1 8.58576 2.18616 2.18686 
30 1 9.28856 1.47552 1.47692 
1 1 6.16686 4.60052 6.18322 
2 1 7.68827 3.0839 7.68563 
3 1 6.97539 3.79202 6.9842 
40 1 10.0314 0.735063 10.03 
41 1 8.49716 2.27397 8.49886 
42 1 9.2033 1.55878 9.19823 
7 1 6.18098 6.18132 4.60338 
8 1 7.68916 7.68363 3.07627 
9 1 6.98284 6.99435 3.80229 
43 1 10.0298 10.0298 0.732529 
44 1 8.49804 8.49843 2.27091 
45 1 9.20406 9.20435 1.56182 
22 1 6.24238 6.24452 6.24992 
23 1 7.7769 7.77857 7.77638 
24 1 7.06839 7.06708 7.07296 
34 1 10.098 10.0989 10.0956 
35 1 8.58591 8.58659 8.58516 
36 1 9.29421 9.29407 9.29352 
ITEM: TIMESTEP
50
ITEM: NUMBER OF ATOMS
51
ITEM: BOX BOUNDS pp pp pp
0.0000000000000000e+00 1.1000000000000000e+01
0.0000000000000000e+00 1.1002000000000001e+01
0.0000000000000000e+00 1.1000000000000000e+01
ITEM: ATOMS id type x y z 
10 1 4.64234 4.62805 4.55938 
11 1 2.97596 2.92941 3.32432 
12 1 3.899 3.8525 3.65766 
46 1 0.727059 0.726619 0.721695 
47 1 2.3165 2.29653 2.17545 
48 1 1.59147 1.5839 1.50818 
49 2 2.57932 2.61292 4.34838 
50 2 1.55616 3.71403 4.9399 
51 3 1.40691 4.57068 4.61907 
19 1 4.5481 4.54811 6.2546 
20 1 3.00652 3.00729 7.76765 
21 1 3.71856 3.7181 7.06985 
31 1 0.67169 0.671228 10.0915 
32 1 2.19016 2.19053 8.58057 
33 1 1.48161 1.48023 9.28388 
16 1 4.55936 6.28852 4.55182 
17 1 2.99898 7.77257 3.0005 
18 1 3.72017 7.08897 3.71793 
25 1 0.671792 10.0958 0.669763 
26 1 2.1857 8.58329 2.18636 
27 1 1.47833 9.2902 1.47774 
4 1 4.59646 6.16165 6.17992 
5 1 3.08439 7.68659 7.68683 
6 1 3.79031 6.97645 6.98086 
37 1 0.736104 10.0341 10.0306 
38 1 2.27122 8.49839 8.49677 
39 1 1.56373 9.20513 9.20422 
13 1 6.29758 4.56261 4.55449 
14 1 7.77382 2.99871 2.9995 
15 1 7.09207 3.71944 3.71781 
28 1 10.0948 0.669925 0.668547 
29 1 8.58376 2.18427 2.18559 
30 1 9.2906 1.47696 1.47707 
1 1 6.16279 4.59919 6.18174 
2 1 7.68753 3.08489 7.68665 
3 1 6.97485 3.7911 6.98349 
40 1 10.0325 0.732784 10.0284 
41 1 8.49775 2.26919 8.4968 
42 1 9.2053 1.5645 9.20354 
7 1 6.18224 6.18696 4.61008 
8 1 7.6881 7.69024 3.08223 
9 1 6.98489 6.98276 3.79397 
43 1 10.0323 10.0319 0.732967 
44 1 8.49854 8.49885 2.26891 
45 1 9.2055 9.20514 1.56128 
22 1 6.24202 6.24333 6.25186 
23 1 7.77758 7.77763 7.77661 
24 1 7.0672 7.06887 7.07376 
34 1 10.0982 10.1002 10.0947 
35 1 8.58616 8.58808 8.586 
36 1 9.29605 9.29368 9.29364 
ITEM: TIMESTEP
60
ITEM: NUMBER OF ATOMS
51
ITEM: BOX BOUNDS pp pp pp
0.0000000000000000e+00 1.1000000000000000e+01
0.0000000000000000e+00 1.1002000000000001e+01
0.0000000000000000e+00 1.1000000000000000e+01
ITEM: ATOMS id type x y z 
10 1 4.64092 4.62909 4.53745 
11 1 2.96012 2.9025 3.35254 
12 1 3.88111 3.83545 3.6646 
46 1 0.734231 0.73525 0.717645 
47 1 2.33217 2.30735 2.16431 
48 1 1.60617 1.59203 1.49974 
49 2 2.55895 2.57876 4.36814 
50 2 1.54979 3.7227 4.9442 
51 3 1.39532 4.58087 4.6295 
19 1 4.54432 4.54274 6.23662 
20 1 3.01108 3.01103 7.76496 
21 1 3.71798 3.71908 7.06383 
31 1 0.676471 0.673032 10.0902 
32 1 2.19188 2.19186 8.57598 
33 1 1.48512 1.48473 9.28372 
16 1 4.56019 6.28635 4.54759 
17 1 3.00069 7.77367 3.00185 
18 1 3.72158 7.0918 3.7192 
25 1 0.671916 10.0991 0.669471 
26 1 2.18233 8.57869 2.18517 
27 1 1.48277 9.2967 1.47933 
4 1 4.59425 6.15588 6.17931 
5 1 3.08433 7.68308 7.68827 
6 1 3.79043 6.97813 6.97745 
37 1 0.737689 10.0371 10.0329 
38 1 2.26946 8.49944 8.49841 
39 1 1.56376 9.2079 9.20471 
13 1 6.29898 4.56278 4.55142 
14 1 7.77819 2.99848 3.0007 
15 1 7.09321 3.72288 3.71824 
28 1 10.1039 0.673512 0.673338 
29 1 8.5865 2.18426 2.18592 
30 1 9.28504 1.47327 1.47266 
1 1 6.15898 4.5982 6.18188 
2 1 7.6861 3.08493 7.6869 
3 1 6.97339 3.79126 6.98401 
40 1 10.0368 0.738663 10.0324 
41 1 8.49929 2.27324 8.49927 
42 1 9.20363 1.55716 9.19841 
7 1 6.18263 6.18931 4.61433 
8 1 7.6888 7.69154 3.08004 
9 1 6.98905 6.98643 3.79673 
43 1 10.0353 10.0372 0.73357 
44 1 8.49877 8.50212 2.26544 
45 1 9.21077 9.20458 1.56053 
22 1 6.23824 6.24092 6.25279 
23 1 7.77744 7.77721 7.77481 
24 1 7.06458 7.06693 7.07702 
34 1 10.1006 10.1036 10.097 
35 1 8.58471 8.591 8.58508 
36 1 9.30003 9.28925 9.29539 
ITEM: TIMESTEP
70
ITEM: NUMBER OF ATOMS
51
ITEM: BOX BOUNDS pp pp pp
0.0000000000000000e+00 1.1000000000000000e+01
0.0000000000000000e+00 1.1002000000000001e+01
0.0000000000000000e+00 1.1000000000000000e+01
ITEM: ATOMS id type x y z 
10 1 4.63793 4.62497 4.50024 
11 1 2.93386 2.85939 3.39595 
12 1 3.84925 3.80258 3.68613 
46 1 0.748592 0.747118 0.71312 
47 1 2.3559 2.31845 2.15458 
48 1 1.63065 1.61067 1.4815 
49 2 2.52121 2.51183 4.39884 
50 2 1.53734 3.74007 4.95237 
51 3 1.37414 4.59966 4.6487 
19 1 4.53956 4.53712 6.2075 
20 1 3.01697 3.01822 7.76333 
21 1 3.71916 3.71833 7.04339 
31 1 0.682681 0.681287 10.0925 
32 1 2.19683 2.19682 8.57004 
33 1 1.49075 1.49026 9.27853 
16 1 4.56315 6.28272 4.54238 
17 1 3.00177 7.77944 3.00392 
18 1 3.72289 7.09311 3.71717 
25 1 0.681197 10.1175 0.672899 
26 1 2.18111 8.57929 2.1842 
27 1 1.48077 9.29651 1.47876 
4 1 4.59051 6.15051 6.17181 
5 1 3.08404 7.68322 7.68709 
6 1 3.78655 6.9711 6.9799 
37 1 0.740134 10.0416 10.0352 
38 1 2.2693 8.49898 8.4986 
39 1 1.56589 9.2097 9.20532 
13 1 6.29554 4.56719 4.54642 
14 1 7.78375 3.00335 3.00499 
15 1 7.09779 3.72356 3.71874 
28 1 10.1182 0.679271 0.67248 
29 1 8.5818 2.18207 2.18393 
30 1 9.28926 1.47588 1.47481 
1 1 6.15391 4.59416 6.17525 
2 1 7.68498 3.08598 7.6875 
3 1 6.96829 3.78969 6.98656 
40 1 10.0426 0.740078 10.0351 
41 1 8.50078 2.27263 8.50032 
42 1 9.20523 1.55491 9.19764 
7 1 6.18962 6.19115 4.61904 
8 1 7.69161 7.69323 3.07954 
9 1 6.99017 6.99243 3.79878 
43 1 10.0451 10.0437 0.73498 
44 1 8.50198 8.50359 2.26095 
45 1 9.21386 9.20954 1.5589 
22 1 6.23053 6.23547 6.25934 
23 1 7.77539 7.77692 7.7759 
24 1 7.06287 7.06602 7.07822 
34 1 10.106 10.1076 10.0999 
35 1 8.58832 8.59093 8.58646 
36 1 9.30033 9.29317 9.29522 
ITEM: TIMESTEP
80
ITEM: NUMBER OF ATOMS
51
ITEM: BOX BOUNDS pp pp pp
0.0000000000000000e+00 1.1000000000000000e+01
0.0000000000000000e+00 1.1002000000000001e+01
0.0000000000000000e+00 1.1000000000000000e+01
ITEM: ATOMS id type x y z 
10 1 4.63686 4.62439 4.49968 
11 1 2.9315 2.85649 3.39949 
12 1 3.84682 3.79908 3.69122 
46 1 0.749027 0.747761 0.71278 
47 1 2.35528 2.3164 2.15734 
48 1 1.63363 1.61351 1.4787 
49 2 2.51726 2.50323 4.39843 
50 2 1.5358 3.7423 4.95341 
51 3 1.37191 4.60181 4.65061 
19 1 4.53928 4.53667 6.20491 
20 1 3.01697 3.01802 7.76109 
21 1 3.71946 3.71885 7.04316 
31 1 0.682779 0.681816 10.0921 
32 1 2.19764 2.19764 8.56924 
33 1 1.49165 1.49126 9.27874 
16 1 4.56398 6.2839 4.54211 
17 1 3.00206 7.78131 3.0053 
18 1 3.72285 7.09026 3.7144 
25 1 0.682596 10.1185 0.673237 
26 1 2.18049 8.57954 2.18402 
27 1 1.48159 9.29809 1.47904 
4 1 4.58975 6.15164 6.17088 
5 1 3.08428 7.6831 7.68637 
6 1 3.78571 6.96928 6.98039 
37 1 0.74112 10.0424 10.0346 
38 1 2.26955 8.49909 8.49856 
39 1 1.56627 9.20926 9.20534 
13 1 6.29507 4.56734 4.54617 
14 1 7.78511 3.00263 3.00563 
15 1 7.09764 3.7247 3.71673 
28 1 10.1166 0.679356 0.671411 
29 1 8.5793 2.17951 2.18213 
30 1 9.29667 1.47938 1.47707 
1 1 6.15285 4.59417 6.17577 
2 1 7.68349 3.08628 7.68912 
3 1 6.96991 3.78885 6.98409 
40 1 10.0426 0.738237 10.0338 
41 1 8.50017 2.27005 8.49878 
42 1 9.20702 1.55914 9.20081 
7 1 6.1897 6.192 4.6199 
8 1 7.69214 7.69384 3.07959 
9 1 6.99043 6.99293 3.79861 
43 1 10.0464 10.0441 0.735823 
44 1 8.50319 8.50293 2.26042 
45 1 9.21309 9.21199 1.55901 
22 1 6.23013 6.23509 6.25985 
23 1 7.77481 7.77656 7.77663 
24 1 7.06299 7.06617 7.07763 
34 1 10.1065 10.1056 10.0996 
35 1 8.58997 8.58908 8.58754 
36 1 9.2982 9.29738 9.2937 
ITEM: TIMESTEP
84
ITEM: NUMBER OF ATOMS
51
ITEM: BOX BOUNDS pp pp pp
0.0000000000000000e+00 1.1000000000000000e+01
0.0000000000000000e+00 1.1002000000000001e+01
0.0000000000000000e+00 1.1000000000000000e+01
ITEM: ATOMS id type x y z 
10 1 4.63682 4.62439 4.49966 
11 1 2.93139 2.85635 3.39965 
12 1 3.84673 3.79894 3.69144 
46 1 0.74906 0.747809 0.712771 
47 1 2.35518 2.31625 2.15737 
48 1 1.63384 1.61371 1.47867 
49 2 2.51708 2.50285 4.39843 
50 2 1.53574 3.74239 4.95346 
51 3 1.37181 4.60191 4.65069 
19 1 4.5393 4.53671 6.20489 
20 1 3.01701 3.01806 7.76109 
21 1 3.71942 3.7188 7.04296 
31 1 0.682755 0.681815 10.092 
32 1 2.19758 2.19765 8.56913 
33 1 1.49182 1.49132 9.27892 
16 1 4.56402 6.28384 4.54199 
17 1 3.00207 7.78126 3.00523 
18 1 3.72286 7.09035 3.71453 
25 1 0.682712 10.1187 0.673282 
26 1 2.18056 8.5797 2.18408 
27 1 1.48145 9.29788 1.47894 
4 1 4.58971 6.15154 6.1709 
5 1 3.08425 7.68297 7.68645 
6 1 3.78573 6.96946 6.98024 
37 1 0.741162 10.0425 10.0346 
38 1 2.26955 8.49916 8.49854 
39 1 1.56628 9.20916 9.2054 
13 1 6.29511 4.56736 4.54617 
14 1 7.7852 3.0026 3.00566 
15 1 7.09757 3.72471 3.7166 
28 1 10.1166 0.679398 0.671384 
29 1 8.57925 2.17947 2.18205 
30 1 9.29688 1.47942 1.47721 
1 1 6.15277 4.59412 6.17582 
2 1 7.68337 3.08624 7.68918 
3 1 6.97008 3.78891 6.98396 
40 1 10.0426 0.738194 10.0337 
41 1 8.50012 2.26998 8.49871 
42 1 9.20709 1.5593 9.20092 
7 1 6.18958 6.19213 4.6199 
8 1 7.69203 7.69395 3.07956 
9 1 6.99069 6.99278 3.79867 
43 1 10.0464 10.0442 0.73585 
44 1 8.5032 8.50302 2.26037 
45 1 9.21319 9.21194 1.55902 
22 1 6.23015 6.23507 6.25982 
23 1 7.77485 7.77653 7.77661 
24 1 7.06289 7.0662 7.07771 
34 1 10.1064 10.1056 10.0996 
35 1 8.58994 8.5892 8.58748 
36 1 9.29827 9.29719 9.29381 
ITEM: TIMESTEP
90
ITEM: NUMBER OF ATOMS
51
ITEM: BOX BOUNDS pp pp pp
0.0000000000000000e+00 1.1000000000000000e+01
0.0000000000000000e+00 1.1002000000000001e+01
0.0000000000000000e+00 1.1000000000000000e+01
ITEM: ATOMS id type x y z 
10 1 4.63677 4.62436 4.49958 
11 1 2.93113 2.856 3.40011 
12 1 3.84646 3.79859 3.69197 
46 1 0.749098 0.747888 0.712694 
47 1 2.35518 2.3161 2.15764 
48 1 1.63407 1.61391 1.47831 
49 2 2.51663 2.50189 4.39842 
50 2 1.53557 3.74263 4.95357 
51 3 1.37157 4.60215 4.6509 
19 1 4.53927 4.53667 6.20471 
20 1 3.01704 3.01805 7.76091 
21 1 3.71938 3.71884 7.04284 
31 1 0.68288 0.681852 10.092 
32 1 2.19769 2.19774 8.56916 
33 1 1.49179 1.49134 9.27878 
16 1 4.56408 6.28387 4.54188 
17 1 3.00209 7.78131 3.00531 
18 1 3.7229 7.09028 3.71439 
25 1 0.68275 10.1187 0.673246 
26 1 2.18049 8.5797 2.18408 
27 1 1.48159 9.2981 1.47898 
4 1 4.58966 6.15159 6.1708 
5 1 3.08422 7.6829 7.68645 
6 1 3.78569 6.96944 6.98021 
37 1 0.741217 10.0426 10.0346 
38 1 2.26954 8.49913 8.49859 
39 1 1.56632 9.20926 9.20535 
13 1 6.29506 4.56743 4.54604 
14 1 7.78527 3.00258 3.00561 
15 1 7.0976 3.72474 3.71659 
28 1 10.1168 0.679522 0.671499 
29 1 8.57941 2.17946 2.18211 
30 1 9.29687 1.4794 1.47709 
1 1 6.15279 4.59405 6.17575 
2 1 7.68326 3.08619 7.68921 
3 1 6.97015 3.78897 6.98388 
40 1 10.0425 0.738071 10.0336 
41 1 8.5 2.26978 8.49858 
42 1 9.20729 1.5597 9.20121 
7 1 6.1896 6.19214 4.61993 
8 1 7.69208 7.69395 3.07951 
9 1 6.99075 6.99293 3.79878 
43 1 10.0465 10.0443 0.735898 
44 1 8.50331 8.50306 2.26028 
45 1 9.21322 9.21211 1.55899 
22 1 6.23009 6.23507 6.25982 
23 1 7.77478 7.77653 7.77665 
24 1 7.06291 7.06611 7.07771 
34 1 10.1065 10.1055 10.0996 
35 1 8.58998 8.58913 8.58753 
36 1 9.29822 9.29736 9.2937 
ITEM: TIMESTEP
100
ITEM: NUMBER OF ATOMS
51
ITEM: BOX BOUNDS pp pp pp
0.0000000000000000e+00 1.1000000000000000e+01
0.0000000000000000e+00 1.1002000000000001e+01
0.0000000000000000e+00 1.1000000000000000e+01
ITEM: ATOMS id type x y z 
10 1 4.63627 4.62368 4.49844 
11 1 2.92764 2.85104 3.40682 
12 1 3.84268 3.79368 3.69932 
46 1 0.749936 0.74939 0.711565 
47 1 2.35517 2.31421 2.16106 
48 1 1.63749 1.61697 1.47382 
49 2 2.51018 2.48837 4.39852 
50 2 1.5332 3.74601 4.95527 
51 3 1.36813 4.60557 4.65376 
19 1 4.53924 4.53651 6.20234 
20 1 3.01718 3.0176 7.7588 
21 1 3.71911 3.71952 7.04062 
31 1 0.683356 0.682602 10.091 
32 1 2.19853 2.19898 8.56899 
33 1 1.49274 1.49168 9.27796 
16 1 4.56515 6.28403 4.54004 
17 1 3.00237 7.7819 3.0054 
18 1 3.72279 7.08993 3.71353 
25 1 0.684069 10.1202 0.673168 
26 1 2.18047 8.58068 2.1845 
27 1 1.48213 9.29917 1.47899 
4 1 4.5893 6.1524 6.16921 
5 1 3.08401 7.68256 7.68639 
6 1 3.78452 6.96795 6.98017 
37 1 0.742151 10.0435 10.0343 
38 1 2.26968 8.49904 8.49873 
39 1 1.56694 9.20952 9.2052 
13 1 6.2948 4.56829 4.54451 
14 1 7.78598 3.00262 3.00542 
15 1 7.09803 3.72505 3.71596 
28 1 10.1186 0.680932 0.671623 
29 1 8.58054 2.17912 2.18243 
30 1 9.29838 1.48 1.47691 
1 1 6.15347 4.59368 6.17428 
2 1 7.68246 3.0859 7.68953 
3 1 6.97006 3.78847 6.98327 
40 1 10.0425 0.73707 10.0323 
41 1 8.49897 2.26713 8.49743 
42 1 9.20964 1.56456 9.20447 
7 1 6.1902 6.19263 4.62054 
8 1 7.69292 7.69454 3.07936 
9 1 6.99152 6.99414 3.79896 
43 1 10.0476 10.0462 0.736381 
44 1 8.5042 8.50381 2.25915 
45 1 9.21432 9.21357 1.55911 
22 1 6.22922 6.23494 6.25985 
23 1 7.77401 7.7764 7.77704 
24 1 7.0632 7.06517 7.07819 
34 1 10.1066 10.1056 10.0992 
35 1 8.58995 8.58945 8.58729 
36 1 9.29832 9.29701 9.2939 
ITEM: TIMESTEP
110
ITEM: NUMBER OF ATOMS
51
ITEM: BOX BOUNDS pp pp pp
0.0000000000000000e+00 1.1000000000000000e+01
0.0000000000000000e+00 1.1002000000000001e+01
0.0000000000000000e+00 1.1000000000000000e+01
ITEM: ATOMS id type x y z 
10 1 4.63618 4.62355 4.49829 
11 1 2.92721 2.85037 3.40773 
12 1 3.84215 3.79305 3.70024 
46 1 0.750106 0.749581 0.711373 
47 1 2.3553 2.31412 2.16153 
48 1 1.63783 1.61726 1.47322 
49 2 2.50932 2.4866 4.39859 
50 2 1.53289 3.74645 4.9555 
51 3 1.36769 4.60601 4.65413 
19 1 4.53909 4.53679 6.20215 
20 1 3.01714 3.01804 7.75842 
21 1 3.71936 3.71886 7.04037 
31 1 0.68355 0.682384 10.0907 
32 1 2.19873 2.19888 8.56886 
33 1 1.49269 1.4922 9.27803 
16 1 4.565 6.28376 4.53982 
17 1 3.00198 7.78175 3.00526 
18 1 3.72343 7.09045 3.71355 
25 1 0.684196 10.1204 0.672995 
26 1 2.18051 8.58079 2.18452 
27 1 1.48214 9.29937 1.47907 
4 1 4.58896 6.15186 6.16929 
5 1 3.08366 7.68182 7.68667 
6 1 3.78501 6.96903 6.9796 
37 1 0.742182 10.0436 10.0343 
38 1 2.26973 8.49899 8.49875 
39 1 1.56689 9.2097 9.20528 
13 1 6.29488 4.56833 4.54442 
14 1 7.78612 3.00261 3.00551 
15 1 7.09798 3.72512 3.71567 
28 1 10.1188 0.681085 0.671538 
29 1 8.58061 2.17916 2.18238 
30 1 9.29867 1.48 1.47713 
1 1 6.15352 4.59365 6.17409 
2 1 7.68236 3.08584 7.68956 
3 1 6.97001 3.78838 6.98322 
40 1 10.0427 0.737577 10.0325 
41 1 8.49914 2.26758 8.49774 
42 1 9.20932 1.56387 9.20395 
7 1 6.19029 6.19291 4.62066 
8 1 7.69301 7.69483 3.07946 
9 1 6.99171 6.99391 3.79872 
43 1 10.0479 10.0465 0.73651 
44 1 8.50434 8.504 2.25923 
45 1 9.21439 9.21359 1.55875 
22 1 6.22945 6.23453 6.25991 
23 1 7.77435 7.77602 7.7772 
24 1 7.06247 7.06578 7.0781 
34 1 10.1067 10.1055 10.0994 
35 1 8.58985 8.58932 8.58746 
36 1 9.29849 9.29727 9.29355 
ITEM: TIMESTEP
120
ITEM: NUMBER OF ATOMS
51
ITEM: BOX BOUNDS pp pp pp
0.0000000000000000e+00 1.1000000000000000e+01
0.0000000000000000e+00 1.1002000000000001e+01
0.0000000000000000e+00 1.1000000000000000e+01
ITEM: ATOMS id type x y z 
10 1 4.63421 4.62078 4.49337 
11 1 2.9153 2.83183 3.43115 
12 1 3.82816 3.7767 3.72482 
46 1 0.756072 0.755182 0.70637 
47 1 2.35643 2.30989 2.17176 
48 1 1.64907 1.62666 1.46068 
49 2 2.48599 2.44011 4.40089 
50 2 1.52469 3.758 4.96168 
51 3 1.35638 4.61724 4.66354 
19 1 4.53973 4.53743 6.19578 
20 1 3.01737 3.01803 7.75102 
21 1 3.71955 3.71893 7.03314 
31 1 0.685456 0.68481 10.0878 
32 1 2.20191 2.20259 8.56797 
33 1 1.4951 1.49422 9.27435 
16 1 4.56806 6.28367 4.53514 
17 1 3.00224 7.78315 3.00525 
18 1 3.72443 7.09056 3.71085 
25 1 0.688481 10.126 0.671903 
26 1 2.18107 8.58421 2.18579 
27 1 1.48356 9.30296 1.48004 
4 1 4.58742 6.15304 6.16393 
5 1 3.08221 7.67822 7.68687 
6 1 3.78323 6.96784 6.97756 
37 1 0.743308 10.0462 10.0331 
38 1 2.2708 8.49862 8.49897 
39 1 1.56817 9.21001 9.20499 
13 1 6.29488 4.57065 4.54008 
14 1 7.78802 3.00366 3.00524 
15 1 7.09938 3.7265 3.71375 
28 1 10.1256 0.686047 0.671003 
29 1 8.58475 2.18014 2.18432 
30 1 9.30098 1.48076 1.47808 
1 1 6.15569 4.59264 6.16874 
2 1 7.67946 3.08437 7.69025 
3 1 6.96906 3.78689 6.98187 
40 1 10.0458 0.742069 10.0345 
41 1 8.49909 2.27214 8.50198 
42 1 9.20962 1.55815 9.19712 
7 1 6.19215 6.19527 4.62049 
8 1 7.69588 7.69769 3.07856 
9 1 6.99522 6.99727 3.79927 
43 1 10.0522 10.0512 0.736541 
44 1 8.50713 8.5069 2.25755 
45 1 9.21733 9.21692 1.55745 
22 1 6.22771 6.233 6.26039 
23 1 7.77302 7.7747 7.77927 
24 1 7.06134 7.06481 7.07887 
34 1 10.1083 10.1068 10.0999 
35 1 8.59012 8.5896 8.58761 
36 1 9.29887 9.29801 9.29356 
ITEM: TIMESTEP
130
ITEM: NUMBER OF ATOMS
51
ITEM: BOX BOUNDS pp pp pp
0.0000000000000000e+00 1.1000000000000000e+01
0.0000000000000000e+00 1.1002000000000001e+01
0.0000000000000000e+00 1.1000000000000000e+01
ITEM: ATOMS id type x y z 
10 1 4.63353 4.62013 4.4922 
11 1 2.91317 2.82838 3.43452 
12 1 3.82556 3.77401 3.72867 
46 1 0.756986 0.755718 0.70542 
47 1 2.35671 2.3097 2.17335 
48 1 1.6507 1.62774 1.4597 
49 2 2.48218 2.4329 4.40142 
50 2 1.52342 3.75972 4.96281 
51 3 1.35473 4.61896 4.66484 
19 1 4.53985 4.53759 6.19512 
20 1 3.01722 3.01808 7.75003 
21 1 3.71988 3.71891 7.03215 
31 1 0.685811 0.685027 10.087 
32 1 2.20207 2.20257 8.56686 
33 1 1.49586 1.49529 9.27508 
16 1 4.56819 6.28302 4.53409 
17 1 3.00216 7.7829 3.00482 
18 1 3.72504 7.09143 3.71129 
25 1 0.689143 10.1271 0.671888 
26 1 2.18075 8.58472 2.186 
27 1 1.48423 9.3042 1.4797 
4 1 4.58772 6.15342 6.16323 
5 1 3.0818 7.67767 7.68689 
6 1 3.7833 6.96779 6.97707 
37 1 0.743468 10.0458 10.033 
38 1 2.27083 8.49841 8.49945 
39 1 1.56821 9.2105 9.2045 
13 1 6.29481 4.57103 4.53949 
14 1 7.78847 3.00374 3.00521 
15 1 7.09933 3.72686 3.71348 
28 1 10.1261 0.686267 0.671338 
29 1 8.58458 2.17908 2.18464 
30 1 9.3037 1.48288 1.47758 
1 1 6.15621 4.59298 6.16826 
2 1 7.67894 3.08448 7.69025 
3 1 6.96884 3.7869 6.98159 
40 1 10.0457 0.739854 10.0323 
41 1 8.49886 2.27009 8.50002 
42 1 9.20987 1.56187 9.20073 
7 1 6.19283 6.196 4.62101 
8 1 7.69659 7.69828 3.07914 
9 1 6.99515 6.99739 3.79833 
43 1 10.0526 10.0517 0.736242 
44 1 8.5074 8.5075 2.25695 
45 1 9.21831 9.21741 1.55792 
22 1 6.22777 6.23309 6.25993 
23 1 7.7726 7.77431 7.77918 
24 1 7.06118 7.06464 7.07943 
34 1 10.1085 10.1071 10.0998 
35 1 8.59017 8.58962 8.58801 
36 1 9.29897 9.29823 9.29313 
ITEM: TIMESTEP
140
ITEM: NUMBER OF ATOMS
51
ITEM: BOX BOUNDS pp pp pp
0.0000000000000000e+00 1.1000000000000000e+01
0.0000000000000000e+00 1.1002000000000001e+01
0.0000000000000000e+00 1.1000000000000000e+01
ITEM: ATOMS id type x y z 
10 1 4.63303 4.61949 4.49119 
11 1 2.9112 2.82516 3.4381 
12 1 3.82308 3.77141 3.73246 
46 1 0.757738 0.756496 0.704579 
47 1 2.35693 2.30939 2.17465 
48 1 1.6521 1.62874 1.45872 
49 2 2.4785 2.42582 4.40193 
50 2 1.52217 3.76142 4.96393 
51 3 1.35311 4.62065 4.6661 
19 1 4.54017 4.5377 6.19433 
20 1 3.01734 3.01803 7.74889 
21 1 3.71989 3.71919 7.03136 
31 1 0.686376 0.685232 10.0865 
32 1 2.20248 2.20283 8.5663 
33 1 1.4961 1.49586 9.27474 
16 1 4.5685 6.28298 4.53366 
17 1 3.00224 7.78351 3.00497 
18 1 3.72517 7.09088 3.71048 
25 1 0.689467 10.1281 0.671725 
26 1 2.18064 8.58526 2.18625 
27 1 1.48484 9.30505 1.47957 
4 1 4.58784 6.15373 6.1625 
5 1 3.08159 7.67719 7.68684 
6 1 3.78304 6.96765 6.97668 
37 1 0.743745 10.046 10.0328 
38 1 2.27093 8.49838 8.49931 
39 1 1.56834 9.21033 9.20488 
13 1 6.29461 4.57139 4.53894 
14 1 7.78886 3.0038 3.0052 
15 1 7.09933 3.72718 3.71318 
28 1 10.1272 0.686877 0.670964 
29 1 8.58521 2.17933 2.18448 
30 1 9.30477 1.48284 1.47815 
1 1 6.15628 4.59304 6.16766 
2 1 7.67828 3.08422 7.69042 
3 1 6.96926 3.78701 6.98101 
40 1 10.0456 0.738884 10.031 
41 1 8.49852 2.26858 8.49863 
42 1 9.2102 1.56487 9.20349 
7 1 6.19307 6.19621 4.62073 
8 1 7.69702 7.69874 3.07908 
9 1 6.99578 6.99796 3.79835 
43 1 10.0535 10.0525 0.73634 
44 1 8.50814 8.50805 2.25666 
45 1 9.2187 9.21822 1.55763 
22 1 6.22779 6.2332 6.25965 
23 1 7.77241 7.77416 7.77951 
24 1 7.06103 7.06449 7.07962 
34 1 10.1087 10.1072 10.0996 
35 1 8.5902 8.58976 8.5879 
36 1 9.29886 9.29797 9.29346 
ITEM: TIMESTEP
150
ITEM: NUMBER OF ATOMS
51
ITEM: BOX BOUNDS pp pp pp
0.0000000000000000e+00 1.1000000000000000e+01
0.0000000000000000e+00 1.1002000000000001e+01
0.0000000000000000e+00 1.1000000000000000e+01
ITEM: ATOMS id type x y z 
10 1 4.63289 4.61934 4.49096 
11 1 2.91068 2.82432 3.43899 
12 1 3.82245 3.77074 3.73347 
46 1 0.75786 0.756668 0.704245 
47 1 2.35699 2.3093 2.17502 
48 1 1.65234 1.6289 1.45839 
49 2 2.47756 2.42397 4.40206 
50 2 1.52185 3.76186 4.96422 
51 3 1.35269 4.62109 4.66643 
19 1 4.54013 4.53774 6.19401 
20 1 3.01721 3.01801 7.7485 
21 1 3.72019 3.71928 7.03134 
31 1 0.686412 0.685286 10.0865 
32 1 2.20255 2.20293 8.56619 
33 1 1.49621 1.49592 9.2746 
16 1 4.56858 6.28288 4.53344 
17 1 3.00231 7.78354 3.00495 
18 1 3.72517 7.09092 3.71044 
25 1 0.689703 10.1284 0.671579 
26 1 2.1807 8.58539 2.18622 
27 1 1.48486 9.30531 1.47973 
4 1 4.58788 6.1539 6.16223 
5 1 3.08156 7.67717 7.68674 
6 1 3.78293 6.96743 6.97673 
37 1 0.743829 10.0461 10.0328 
38 1 2.27095 8.49833 8.49936 
39 1 1.56837 9.21037 9.20483 
13 1 6.29453 4.57142 4.53881 
14 1 7.78894 3.00378 3.00524 
15 1 7.09939 3.72733 3.71299 
28 1 10.1276 0.687007 0.670814 
29 1 8.58533 2.17928 2.18448 
30 1 9.30516 1.48304 1.4782 
1 1 6.15634 4.59305 6.16748 
2 1 7.67815 3.08412 7.69038 
3 1 6.9693 3.78701 6.98097 
40 1 10.0457 0.739047 10.031 
41 1 8.49858 2.26853 8.49871 
42 1 9.21017 1.56495 9.20356 
7 1 6.19334 6.19642 4.62101 
8 1 7.6974 7.69905 3.07947 
9 1 6.99545 6.99776 3.79758 
43 1 10.0537 10.0528 0.736434 
44 1 8.50821 8.50825 2.25668 
45 1 9.21893 9.2182 1.5575 
22 1 6.22784 6.23324 6.25951 
23 1 7.77238 7.77412 7.77951 
24 1 7.06093 7.06443 7.07978 
34 1 10.1088 10.1073 10.0995 
35 1 8.5902 8.58973 8.58791 
36 1 9.29882 9.298 9.29348 
ITEM: TIMESTEP
160
ITEM: NUMBER OF ATOMS
51
ITEM: BOX BOUNDS pp pp pp
0.0000000000000000e+00 1.1000000000000000e+01
0.0000000000000000e+00 1.1002000000000001e+01
0.0000000000000000e+00 1.1000000000000000e+01
ITEM: ATOMS id type x y z 
10 1 4.61812 4.60361 4.47192 
11 1 2.87273 2.76393 3.50458 
12 1 3.77704 3.72076 3.81018 
46 1 0.779445 0.774901 0.689381 
47 1 2.36031 2.30158 2.20296 
48 1 1.67535 1.64749 1.44233 
49 2 2.4099 2.28766 4.41081 
50 2 1.49808 3.79559 4.9858 
51 3 1.32126 4.65434 4.69044 
19 1 4.54562 4.54178 6.1786 
20 1 3.01756 3.01939 7.72878 