LAMMPS (3 Mar 2020)
Reading data file ...
  orthogonal box = (0 0 0) to (11 11.002 11)
  2 by 2 by 2 MPI processor grid
  reading atoms ...
  51 atoms
  read_data CPU = 0.0206338 secs
WARNING: Changed valency_val to valency_boc for X (../reaxc_ffield.cpp:315)
WARNING: Using 'neigh_modify every 1 delay 0 check yes' setting during minimization (../min.cpp:190)
Neighbor list info ...
  update every 1 steps, delay 0 steps, check yes
  max neighbors/atom: 2000, page size: 100000
  master list distance cutoff = 12
  ghost atom cutoff = 12
  binsize = 6, bins = 2 2 2
  2 neighbor lists, perpetual/occasional/extra = 2 0 0
  (1) pair reax/c, perpetual
      attributes: half, newton off, ghost
      pair build: half/bin/newtoff/ghost
      stencil: half/ghost/bin/3d/newtoff
      bin: standard
  (2) fix qeq/reax, perpetual, copy from (1)
      attributes: half, newton off, ghost
      pair build: copy
      stencil: none
      bin: none
Setting up cg style minimization ...
  Unit style    : real
  Current step  : 0
Per MPI rank memory allocation (min/avg/max) = 25.15 | 25.48 | 25.89 Mbytes
Step Temp E_pair E_mol TotEng Press 
       0            0   -8711.3412            0   -8711.3412     122681.7 
      84            0   -8882.9057            0   -8882.9057    31585.586 
Loop time of 3.11168 on 8 procs for 84 steps with 51 atoms

98.8% CPU use with 8 MPI tasks x no OpenMP threads

Minimization stats:
  Stopping criterion = linesearch alpha is zero
  Energy initial, next-to-last, final = 
        -8711.34115036     -8882.90573134     -8882.90572775
  Force two-norm initial, final = 1266.99 60.5847
  Force max component initial, final = 295.544 14.4984
  Final line search alpha, max atom move = 1.79755e-12 2.60616e-11
  Iterations, force evaluations = 84 601

MPI task timing breakdown:
Section |  min time  |  avg time  |  max time  |%varavg| %total
---------------------------------------------------------------
Pair    | 2.5523     | 2.5885     | 2.6214     |   1.5 | 83.19
Neigh   | 0          | 0          | 0          |   0.0 |  0.00
Comm    | 0.046367   | 0.082974   | 0.123      |   8.5 |  2.67
Output  | 0.00021365 | 0.00029319 | 0.00054844 |   0.0 |  0.01
Modify  | 0.42993    | 0.4301     | 0.43039    |   0.0 | 13.82
Other   |            | 0.009797   |            |       |  0.31

Nlocal:    6.375 ave 9 max 6 min
Histogram: 7 0 0 0 0 0 0 0 0 1
Nghost:    982.5 ave 1004 max 964 min
Histogram: 1 1 1 0 2 0 1 0 1 1
Neighs:    1823.88 ave 2522 max 1710 min
Histogram: 7 0 0 0 0 0 0 0 0 1

Total # of neighbors = 14591
Ave neighs/atom = 286.098
Neighbor list builds = 0
Dangerous builds = 0
WARNING: Using 'neigh_modify every 1 delay 0 check yes' setting during minimization (../min.cpp:190)
Setting up cg style minimization ...
  Unit style    : real
  Current step  : 84
Per MPI rank memory allocation (min/avg/max) = 25.15 | 25.48 | 25.89 Mbytes
Step Temp E_pair E_mol TotEng Press 
      84            0   -8882.9057            0   -8882.9057    31585.562 
     174            0   -8891.1581            0   -8891.1581    23539.111 
Loop time of 4.09291 on 8 procs for 90 steps with 51 atoms

99.0% CPU use with 8 MPI tasks x no OpenMP threads

Minimization stats:
  Stopping criterion = energy tolerance
  Energy initial, next-to-last, final = 
        -8882.90573324     -8891.15800258     -8891.15806462
  Force two-norm initial, final = 60.5847 54.9814
  Force max component initial, final = 14.4983 12.2556
  Final line search alpha, max atom move = 4.04269e-06 4.95454e-05
  Iterations, force evaluations = 90 819

MPI task timing breakdown:
Section |  min time  |  avg time  |  max time  |%varavg| %total
---------------------------------------------------------------
Pair    | 3.4151     | 3.4738     | 3.5264     |   1.9 | 84.87
Neigh   | 0          | 0          | 0          |   0.0 |  0.00
Comm    | 0.052848   | 0.1055     | 0.16412    |  11.0 |  2.58
Output  | 0.00024104 | 0.00039869 | 0.00090983 |   0.0 |  0.01
Modify  | 0.50507    | 0.5053     | 0.50555    |   0.0 | 12.35
Other   |            | 0.007912   |            |       |  0.19

Nlocal:    6.375 ave 9 max 6 min
Histogram: 7 0 0 0 0 0 0 0 0 1
Nghost:    978 ave 1004 max 955 min
Histogram: 1 0 2 1 0 1 2 0 0 1
Neighs:    1823.62 ave 2511 max 1711 min
Histogram: 7 0 0 0 0 0 0 0 0 1

Total # of neighbors = 14589
Ave neighs/atom = 286.059
Neighbor list builds = 0
Dangerous builds = 0
WARNING: Using 'neigh_modify every 1 delay 0 check yes' setting during minimization (../min.cpp:190)
Setting up cg style minimization ...
  Unit style    : real
  Current step  : 174
WARNING: Energy due to 3 extra global DOFs will be included in minimizer energies
Per MPI rank memory allocation (min/avg/max) = 25.15 | 25.48 | 25.89 Mbytes
Step Temp E_pair E_mol TotEng Press Volume 
     174            0   -8891.1581            0   -8891.1581    23539.104     1331.242 
     283            0   -8893.4023            0   -8893.4023   -293.97804    1341.2187 
Loop time of 1.40254 on 8 procs for 109 steps with 51 atoms

99.0% CPU use with 8 MPI tasks x no OpenMP threads

Minimization stats:
  Stopping criterion = energy tolerance
  Energy initial, next-to-last, final = 
        -8891.15806632      -8893.4021932     -8893.40228372
  Force two-norm initial, final = 793.483 47.0753
  Force max component initial, final = 460.415 11.4652
  Final line search alpha, max atom move = 1.15667e-07 1.32614e-06
  Iterations, force evaluations = 109 294

MPI task timing breakdown:
Section |  min time  |  avg time  |  max time  |%varavg| %total
---------------------------------------------------------------
Pair    | 1.2211     | 1.2414     | 1.2592     |   1.1 | 88.51
Neigh   | 0          | 0          | 0          |   0.0 |  0.00
Comm    | 0.016506   | 0.034406   | 0.054724   |   6.6 |  2.45
Output  | 0.00025307 | 0.00034184 | 0.00067587 |   0.0 |  0.02
Modify  | 0.11841    | 0.11865    | 0.11886    |   0.0 |  8.46
Other   |            | 0.00778    |            |       |  0.55

Nlocal:    6.375 ave 9 max 6 min
Histogram: 7 0 0 0 0 0 0 0 0 1
Nghost:    978 ave 1004 max 955 min
Histogram: 1 0 2 1 0 1 2 0 0 1
Neighs:    1825.38 ave 2515 max 1714 min
Histogram: 7 0 0 0 0 0 0 0 0 1

Total # of neighbors = 14603
Ave neighs/atom = 286.333
Neighbor list builds = 0
Dangerous builds = 0
WARNING: Using 'neigh_modify every 1 delay 0 check yes' setting during minimization (../min.cpp:190)
Setting up cg style minimization ...
  Unit style    : real
  Current step  : 283
Per MPI rank memory allocation (min/avg/max) = 25.15 | 25.48 | 25.89 Mbytes
Step Temp E_pair E_mol TotEng Press 
     283            0   -8893.4023            0   -8893.4023   -293.95644 
     285            0   -8893.4024            0   -8893.4024   -292.05154 
Loop time of 0.190397 on 8 procs for 2 steps with 51 atoms

99.1% CPU use with 8 MPI tasks x no OpenMP threads

Minimization stats:
  Stopping criterion = energy tolerance
  Energy initial, next-to-last, final = 
        -8893.40227829     -8893.40238499     -8893.40243173
  Force two-norm initial, final = 46.0146 45.5741
  Force max component initial, final = 11.4652 11.4579
  Final line search alpha, max atom move = 9.84816e-08 1.12839e-06
  Iterations, force evaluations = 2 38

MPI task timing breakdown:
Section |  min time  |  avg time  |  max time  |%varavg| %total
---------------------------------------------------------------
Pair    | 0.15961    | 0.16387    | 0.16901    |   0.7 | 86.07
Neigh   | 0          | 0          | 0          |   0.0 |  0.00
Comm    | 0.0018703  | 0.0070073  | 0.011292   |   3.5 |  3.68
Output  | 0          | 0          | 0          |   0.0 |  0.00
Modify  | 0.019036   | 0.019073   | 0.019099   |   0.0 | 10.02
Other   |            | 0.0004428  |            |       |  0.23

Nlocal:    6.375 ave 9 max 6 min
Histogram: 7 0 0 0 0 0 0 0 0 1
Nghost:    973.5 ave 1004 max 946 min
Histogram: 1 1 0 2 0 2 0 1 0 1
Neighs:    1816.12 ave 2496 max 1705 min
Histogram: 7 0 0 0 0 0 0 0 0 1

Total # of neighbors = 14529
Ave neighs/atom = 284.882
Neighbor list builds = 0
Dangerous builds = 0
WARNING: Using 'neigh_modify every 1 delay 0 check yes' setting during minimization (../min.cpp:190)
Setting up cg style minimization ...
  Unit style    : real
  Current step  : 285
WARNING: Energy due to 3 extra global DOFs will be included in minimizer energies
Per MPI rank memory allocation (min/avg/max) = 25.15 | 25.48 | 25.89 Mbytes
Step Temp E_pair E_mol TotEng Press Volume 
     285            0   -8893.4024            0   -8893.4024   -292.05906    1341.2187 
     286            0   -8893.4025            0   -8893.4025   -254.19394    1341.2166 
Loop time of 0.0563157 on 8 procs for 1 steps with 51 atoms

99.3% CPU use with 8 MPI tasks x no OpenMP threads

Minimization stats:
  Stopping criterion = energy tolerance
  Energy initial, next-to-last, final = 
        -8893.40243377     -8893.40243377     -8893.40251952
  Force two-norm initial, final = 46.6363 62.3807
  Force max component initial, final = 11.4579 26.1842
  Final line search alpha, max atom move = 6.66782e-08 1.74591e-06
  Iterations, force evaluations = 1 11

MPI task timing breakdown:
Section |  min time  |  avg time  |  max time  |%varavg| %total
---------------------------------------------------------------
Pair    | 0.048399   | 0.049682   | 0.051024   |   0.4 | 88.22
Neigh   | 0          | 0          | 0          |   0.0 |  0.00
Comm    | 0.00063299 | 0.0019722  | 0.0032561  |   1.9 |  3.50
Output  | 0          | 0          | 0          |   0.0 |  0.00
Modify  | 0.0043016  | 0.0043087  | 0.0043236  |   0.0 |  7.65
Other   |            | 0.0003526  |            |       |  0.63

Nlocal:    6.375 ave 9 max 6 min
Histogram: 7 0 0 0 0 0 0 0 0 1
Nghost:    973.5 ave 1004 max 946 min
Histogram: 1 1 0 2 0 2 0 1 0 1
Neighs:    1816.12 ave 2496 max 1705 min
Histogram: 7 0 0 0 0 0 0 0 0 1

Total # of neighbors = 14529
Ave neighs/atom = 284.882
Neighbor list builds = 0
Dangerous builds = 0
WARNING: Using 'neigh_modify every 1 delay 0 check yes' setting during minimization (../min.cpp:190)
Setting up cg style minimization ...
  Unit style    : real
  Current step  : 286
Per MPI rank memory allocation (min/avg/max) = 25.15 | 25.48 | 25.89 Mbytes
Step Temp E_pair E_mol TotEng Press 
     286            0   -8893.4025            0   -8893.4025   -254.20438 
     287            0   -8893.4025            0   -8893.4025   -253.93032 
Loop time of 0.100023 on 8 procs for 1 steps with 51 atoms

97.9% CPU use with 8 MPI tasks x no OpenMP threads

Minimization stats:
  Stopping criterion = energy tolerance
  Energy initial, next-to-last, final = 
        -8893.40252221     -8893.40252221     -8893.40254216
  Force two-norm initial, final = 61.7832 45.4227
  Force max component initial, final = 26.1842 11.286
  Final line search alpha, max atom move = 5.82749e-08 6.57693e-07
  Iterations, force evaluations = 1 19

MPI task timing breakdown:
Section |  min time  |  avg time  |  max time  |%varavg| %total
---------------------------------------------------------------
Pair    | 0.083596   | 0.085456   | 0.087526   |   0.4 | 85.44
Neigh   | 0          | 0          | 0          |   0.0 |  0.00
Comm    | 0.0024416  | 0.0045331  | 0.0064151  |   1.9 |  4.53
Output  | 0          | 0          | 0          |   0.0 |  0.00
Modify  | 0.0096439  | 0.0096641  | 0.0096785  |   0.0 |  9.66
Other   |            | 0.0003695  |            |       |  0.37

Nlocal:    6.375 ave 9 max 6 min
Histogram: 7 0 0 0 0 0 0 0 0 1
Nghost:    973.5 ave 1004 max 946 min
Histogram: 1 1 0 2 0 2 0 1 0 1
Neighs:    1816.12 ave 2496 max 1705 min
Histogram: 7 0 0 0 0 0 0 0 0 1

Total # of neighbors = 14529
Ave neighs/atom = 284.882
Neighbor list builds = 0
Dangerous builds = 0
Setting up Verlet run ...
  Unit style    : real
  Current step  : 0
  Time step     : 0.25
Per MPI rank memory allocation (min/avg/max) = 24.02 | 24.35 | 24.77 Mbytes
Step Temp TotEng KinEng PotEng Press 
       0          300   -8848.6904    44.712151   -8893.4025    1269.9625 
     200    247.95452   -8830.7182    36.955266   -8867.6735    58174.685 
     400    379.07767   -8807.5554    56.497926   -8864.0534   -3710.5691 
     600    279.87336   -8816.9928    41.712466   -8858.7053    42169.377 
     800    276.06539   -8823.1086    41.144925   -8864.2536    21267.129 
    1000    360.65308   -8805.9271    53.751916   -8859.6791    19563.476 
    1200    337.52221   -8804.9292     50.30448   -8855.2337    49168.583 
    1400    292.27972   -8812.9812    43.561517   -8856.5427   -23272.854 
    1600    241.58611    -8817.104    36.006116   -8853.1101    -16274.77 
    1800    254.34005   -8819.9883    37.906969   -8857.8953   -17886.553 
    2000    350.77898   -8805.6191    52.280275   -8857.8994    40098.269 
    2200    299.02291   -8821.1434    44.566525     -8865.71    13407.206 
    2400    314.80802   -8810.2686    46.919146   -8857.1878   -32996.501 
    2600    319.56511   -8806.8518    47.628145     -8854.48    8817.2512 
    2800    283.81461   -8819.0176    42.299872   -8861.3175   -41610.959 
    3000    279.04551    -8822.256    41.589082   -8863.8451    44169.996 
    3200    329.85248   -8817.0557    49.161379    -8866.217    6277.1622 
    3400    298.04283   -8823.9385    44.420453    -8868.359   -10320.341 
    3600    314.17788   -8819.1535     46.82523   -8865.9787    24943.505 
    3800    311.50021   -8809.6731    46.426148   -8856.0992   -15104.036 
    4000    264.39899   -8823.4217    39.406158   -8862.8278    20271.976 
    4200    270.94895   -8832.8394    40.382367   -8873.2218   -18377.885 
    4400    331.47228   -8813.9334    49.402795   -8863.3362   -22711.107 
    4600    337.70921    -8815.792     50.33235   -8866.1244   -32511.303 
    4800    269.76948   -8832.8907    40.206579   -8873.0973    28527.649 
    5000    267.11311    -8817.292    39.810672   -8857.1027    1199.4083 
    5200    334.56223   -8810.9404    49.863323   -8860.8038   -199.66698 
    5400    247.59418   -8822.6688     36.90156   -8859.5704    16087.367 
    5600    331.62677   -8813.1978    49.425821   -8862.6237   -31103.726 
    5800    314.21264   -8819.0393     46.83041   -8865.8697    2116.7253 
    6000    291.41661   -8811.4905    43.432877   -8854.9233    3133.1716 
    6200    327.64905   -8808.2138    48.832979   -8857.0467    12472.671 
    6400     287.6972   -8825.8192    42.878535   -8868.6977    -23640.36 
    6600      289.742   -8830.9955    43.183293   -8874.1788    -19129.43 
    6800    337.03203   -8814.6864    50.231424   -8864.9179    19354.243 
    7000    253.75445   -8830.9533    37.819691    -8868.773    5890.4645 
    7200    303.01593   -8827.2187    45.161647   -8872.3804    5565.3117 
    7400    260.49208   -8828.3452    38.823871   -8867.1691   -23755.055 
    7600    276.92023   -8820.9138    41.272331   -8862.1861    10769.574 
    7800    303.43049   -8817.5535    45.223433   -8862.7769   -20807.062 
    8000    302.68153   -8832.5894    45.111807   -8877.7012     13841.55 
    8200    307.13202   -8823.6287     45.77511   -8869.4038   -6609.1748 
    8400    372.25337   -8808.4936    55.480829   -8863.9744   -18208.695 
    8600    279.55725   -8824.7466    41.665353   -8866.4119   -24533.352 
    8800    305.65617   -8827.0219    45.555149   -8872.5771   -11443.759 
    9000    260.52675   -8834.2326    38.829038   -8873.0617    28923.552 
    9200    306.23524    -8818.338    45.641454   -8863.9795   -29214.073 
    9400    302.54377   -8821.9275    45.091276   -8867.0187    437.83861 
    9600    267.01888   -8834.6856    39.796628   -8874.4822    19491.641 
    9800    261.61025   -8841.1223    38.990524   -8880.1128    -9209.406 
   10000    303.83645   -8822.5252    45.283938   -8867.8091   -12314.307 
   10200    328.28135   -8820.1766    48.927217   -8869.1038   -2736.7764 
   10400    249.00648   -8837.9777    37.112051   -8875.0898    25849.936 
   10600    302.72288   -8824.1459     45.11797   -8869.2639   -64204.418 
   10800    301.43002    -8816.886    44.925281   -8861.8112   -50263.396 
   11000     295.2581   -8828.7774    44.005416   -8872.7828    6285.8796 
   11200    297.47181   -8830.8546    44.335348   -8875.1899   -19211.281 
   11400    332.13526   -8818.7768    49.501606   -8868.2784   -9059.8667 
   11600    316.11839   -8826.0911    47.114444   -8873.2055   -14278.704 
   11800     265.0871   -8834.1441    39.508715   -8873.6528    40457.497 
   12000    307.79162   -8819.0767    45.873418   -8864.9502   -41142.228 
   12200    286.45833   -8823.8651    42.693893   -8866.5589   -36341.308 
   12400    258.64577    -8842.127    38.548695   -8880.6757    9811.1706 
   12600    272.45488   -8836.5545    40.606812   -8877.1613    1491.2723 
   12800    310.12286   -8818.5863    46.220867   -8864.8071     11012.72 
   13000     272.3808   -8828.5815    40.595771   -8869.1773   -21106.747 
   13200       230.54   -8832.1957    34.359797   -8866.5555    -22014.67 
   13400    256.53651   -8821.1586    38.234331    -8859.393   -41.691856 
   13600    270.48663    -8830.298    40.313463   -8870.6115    35954.415 
   13800    323.16001   -8820.9041     48.16393   -8869.0681    9987.1468 
   14000    341.68785   -8818.5013    50.925328   -8869.4266    8140.2627 
   14200    304.98536   -8829.1551    45.455172   -8874.6103    -45880.27 
   14400    231.64058   -8832.9075    34.523828   -8867.4314   -43163.221 
   14600    348.38925   -8816.9247    51.924109   -8868.8488   -14925.721 
   14800    308.35307   -8830.4714    45.957096   -8876.4285    1997.8342 
   15000     333.8413   -8818.3955    49.755875   -8868.1513    9972.1879 
   15200    315.91068   -8819.2614    47.083486   -8866.3449    11313.027 
   15400    238.11548    -8830.936    35.488851   -8866.4248   -47622.945 
   15600    382.89024   -8809.0464    57.066154   -8866.1125    33992.601 
   15800    339.21968   -8822.7831    50.557472   -8873.3405   -6787.1126 
   16000     292.2243   -8828.9727    43.553256   -8872.5259    1601.6894 
   16200    404.02391   -8810.9367    60.215926   -8871.1527    7882.8661 
   16400    293.92527   -8821.0917     43.80677   -8864.8985   -24739.324 
   16600    315.11437   -8823.6955    46.964804   -8870.6603     37471.96 
   16800    378.16471   -8808.2347    56.361858   -8864.5966   -4872.6313 
   17000    280.02029   -8821.8056    41.734365   -8863.5399   -19978.789 
   17200    282.76581   -8830.5905    42.143558    -8872.734    28604.035 
   17400    295.17063   -8826.2193    43.992379   -8870.2117   -28381.761 
   17600    303.58002   -8821.7039    45.245718   -8866.9496    14548.023 
   17800    287.65764   -8825.5869    42.872639   -8868.4595    55263.018 
   18000     270.5425   -8835.5923    40.321791   -8875.9141    38672.435 
   18200    296.02871   -8819.2727    44.120268   -8863.3929    6579.7007 
   18400    304.27827   -8825.7246    45.349786   -8871.0744    26995.692 
   18600    233.62576   -8839.1083      34.8197    -8873.928    16193.121 
   18800    300.56663   -8820.2452    44.796601   -8865.0418    13931.717 
   19000    280.53218   -8825.3929    41.810656   -8867.2036    15778.741 
   19200    262.29467    -8833.867     39.09253   -8872.9595   -1789.1757 
   19400    305.78843   -8822.4849    45.574862   -8868.0597   -14421.335 
   19600    286.65435   -8821.5007    42.723108   -8864.2238   -554.43387 
   19800    271.90227   -8830.6899    40.524451   -8871.2143   -17711.036 
   20000    268.14627    -8834.329    39.964655   -8874.2937     29492.97 
   20200    302.12838   -8820.0292    45.029366   -8865.0586    1686.3018 
   20400    284.45078   -8823.4868    42.394688   -8865.8815   -11477.957 
   20600     254.7157   -8838.5382    37.962956   -8876.5012   -16547.859 
   20800    315.81417   -8822.0613    47.069103   -8869.1304   -27335.357 
   21000    305.17638   -8823.9264    45.483641     -8869.41    -24841.16 
   21200    252.55446   -8837.3392    37.640843   -8874.9801    12381.997 
   21400    338.90781   -8818.3357     50.51099   -8868.8467    8307.8089 
   21600    276.77416   -8828.6049     41.25056   -8869.8555    891.60235 
   21800    335.09629   -8817.6782     49.94292   -8867.6211    16772.509 
   22000    296.75687   -8815.1067    44.228793   -8859.3355   -19875.237 
   22200      297.455    -8821.635    44.332843   -8865.9678   -1065.1825 
   22400    288.41792   -8829.2511    42.985951   -8872.2371   -20786.566 
   22600    254.95614   -8833.8551    37.998791   -8871.8539    6956.0791 
   22800    339.66446   -8818.5687    50.623763   -8869.1925    4742.8714 
   23000    288.32489   -8831.6645    42.972087   -8874.6366   -5497.7944 
   23200     287.7618   -8833.4238    42.888163    -8876.312   -4779.4122 
   23400     284.6395   -8824.6734    42.422814   -8867.0962   -5802.4392 
   23600    290.12309   -8824.3376    43.240092   -8867.5777    16981.296 
   23800    268.60221   -8826.6167    40.032608   -8866.6493   -38744.313 
   24000    244.74621   -8835.7615    36.477098   -8872.2386   -11904.434 
   24200    342.03985    -8819.016    50.977791   -8869.9938   -1771.9108 
   24400    281.64082   -8827.0929     41.97589   -8869.0688   -19629.532 
   24600    257.86241   -8840.6298    38.431944   -8879.0618     5632.303 
   24800    324.18218   -8824.3557    48.316275    -8872.672    59013.706 
   25000    330.89872   -8820.3478    49.317312   -8869.6652    36178.929 
   25200    348.24395   -8821.0718    51.902453   -8872.9742    -15771.83 
   25400    256.90896   -8835.3072     38.28984   -8873.5971   -1045.2041 
   25600    299.70849   -8817.4729    44.668704   -8862.1416    11666.192 
   25800    319.29899   -8824.4926    47.588482   -8872.0811     1923.206 
   26000    317.13739   -8832.1195    47.266316   -8879.3858    7958.4043 
   26200    314.42972   -8825.4609    46.862763   -8872.3237   -17516.047 
   26400    327.67155    -8816.975    48.836332   -8865.8113    21568.761 
   26600    275.79115   -8825.9139    41.104052    -8867.018    29352.004 
   26800    350.64558   -8816.3798    52.260394   -8868.6402    32295.453 
   27000    311.58298   -8815.5902    46.438485   -8862.0287    12298.815 
   27200      313.253     -8827.07    46.687385   -8873.7574    15760.893 
   27400    306.41998    -8829.674    45.668988    -8875.343    36601.347 
   27600    340.69994   -8816.3065     50.77809   -8867.0846   -3275.4081 
   27800    277.80769   -8820.1446    41.404598   -8861.5492    25415.285 
   28000    283.26436   -8829.1458    42.217862   -8871.3636   -32469.391 
   28200    337.26449   -8824.2445    50.266069   -8874.5106     1184.874 
   28400    394.70027   -8808.4912    58.826327   -8867.3176    14334.015 
   28600    268.54368   -8824.2461    40.023885     -8864.27    39651.202 
   28800    299.22048   -8821.6279    44.595971   -8866.2239   -54245.843 
   29000    273.89042   -8839.1595    40.820766   -8879.9803    39321.942 
   29200     336.1669   -8826.5784    50.102484   -8876.6809   -12370.448 
   29400    312.75893   -8826.8219    46.613748   -8873.4357    28060.601 
   29600     297.6707   -8820.1716    44.364991   -8864.5366    7929.0489 
   29800    289.59612   -8825.7204    43.161551   -8868.8819   -40862.787 
   30000    247.65857   -8833.0543    36.911157   -8869.9654     7425.523 
   30200     348.3296   -8818.8316    51.915218   -8870.7469    8170.6193 
   30400    310.81235   -8828.2874    46.323628   -8874.6111   -20404.479 
   30600    313.09089   -8832.3454    46.663223   -8879.0086     26443.88 
   30800    314.45689   -8817.5576    46.866812   -8864.4244   -12958.614 
   31000    259.32879   -8836.5691    38.650493   -8875.2196   -7053.2646 
   31200    288.63219   -8825.1214    43.017887   -8868.1393    15806.316 
   31400    287.71747    -8815.868    42.881556   -8858.7496   -9928.6523 
   31600    424.09717   -8802.7295    63.207655   -8865.9371    13739.933 
   31800    286.00513   -8824.5348    42.626348   -8867.1612   -2531.6588 
   32000    315.85632   -8827.9431    47.075384   -8875.0185    17501.643 
   32200     240.8514   -8840.8307    35.896614   -8876.7273    28233.005 
   32400    293.38369   -8824.3033    43.726053   -8868.0294    9173.6875 
   32600    326.22306   -8816.7216    48.620449   -8865.3421   -9016.4392 
   32800    274.16397   -8833.6899    40.861536   -8874.5514    6984.8454 
   33000    249.98527   -8825.0106    37.257931   -8862.2685   -13390.837 
   33200    317.66696   -8820.2745    47.345244   -8867.6197    15371.212 
   33400    254.08755   -8834.7093    37.869337   -8872.5786   -6249.4636 
   33600    274.68527   -8820.8237    40.939231   -8861.7629   -16487.771 
   33800    263.07695   -8820.2294     39.20912   -8859.4386    26020.285 
   34000    268.84495   -8834.3115    40.068786   -8874.3803   -13720.664 
   34200    245.18298   -8838.9557    36.542195   -8875.4979    -12214.24 
   34400    306.17261    -8820.371     45.63212   -8866.0031   -4416.9737 
   34600     354.2351   -8818.9981    52.795377   -8871.7935    53072.984 
   34800    262.90224   -8834.0273    39.183082   -8873.2104    6649.9039 
   35000    322.47213   -8817.2008    48.061409   -8865.2622    3297.9952 
   35200    324.09429   -8818.8669    48.303176   -8867.1701    12420.582 
   35400     261.9759   -8831.9066     39.04502   -8870.9517    -35485.26 
   35600    291.74868   -8818.3736     43.48237    -8861.856   -16982.426 
   35800     325.5273   -8823.7214    48.516753   -8872.2382    34734.672 
   36000    236.04913    -8841.186    35.180881   -8876.3669   -6100.2263 
   36200     304.1913   -8829.5968    45.336824   -8874.9336   -38005.832 
   36400    299.49205   -8821.6847    44.636446   -8866.3211    34559.028 
   36600    274.85734   -8815.5215    40.964876   -8856.4864    -19572.81 
   36800      256.773   -8833.4167    38.269577   -8871.6863     53710.29 
   37000    329.75668   -8821.2183    49.147101   -8870.3654   -4754.9803 
   37200    284.38208   -8821.0771    42.384449   -8863.4615    49035.488 
   37400    295.29472    -8829.622    44.010874   -8873.6328   -28836.635 
   37600    311.46516   -8828.6869    46.420925   -8875.1078    19012.764 
   37800    281.58683   -8816.0565    41.967843   -8858.0244   -30497.621 
   38000    256.57625   -8831.7157    38.240253   -8869.9559    39964.533 
   38200    270.14677   -8838.8756     40.26281   -8879.1384     16648.46 
   38400    303.57415   -8828.3815    45.244844   -8873.6264    37765.074 
   38600    314.96364   -8815.4695     46.94234   -8862.4118   -42395.316 
   38800    333.40888   -8820.8067    49.691427   -8870.4981   -29995.193 
   39000    317.24912   -8833.6488    47.282969   -8880.9318    6200.5097 
   39200    295.14566   -8819.4423    43.988658    -8863.431   -23085.172 
   39400    318.21079   -8819.9996    47.426296   -8867.4259    43368.652 
   39600    265.73434   -8837.0305     39.60518   -8876.6357     15083.37 
   39800    264.37164   -8838.5916    39.402082   -8877.9937     -35635.8 
   40000    321.07863   -8824.3267    47.853721   -8872.1804    60161.563 
   40200    336.35255   -8814.0446    50.130153   -8864.1747    50388.451 
   40400    247.34177   -8834.4396    36.863941   -8871.3035    14279.294 
   40600    249.20369   -8826.7609    37.141443   -8863.9023   -25591.574 
   40800    362.15561   -8813.7212    53.975855   -8867.6971   -36032.028 
   41000    294.97665    -8830.878    43.963468   -8874.8415   -18262.481 
   41200    305.01162    -8826.583    45.459085   -8872.0421   -11033.356 
   41400    304.79258   -8822.0404     45.42644   -8867.4668   -6856.8953 
   41600    247.04078   -8839.0031    36.819082   -8875.8222    12976.583 
   41800     294.4301   -8827.7979     43.88201   -8871.6799    46415.866 
   42000    313.55769   -8815.8329    46.732796   -8862.5657    41409.159 
   42200    279.69063   -8822.1828    41.685232   -8863.8681   -9832.1741 
   42400    299.12832   -8832.7698    44.582236    -8877.352   -4971.1613 
   42600    291.88408   -8817.6102     43.50255   -8861.1127    18860.203 
   42800    373.39613   -8813.4601    55.651147   -8869.1112    21011.797 
   43000    261.21522   -8825.4309    38.931648   -8864.3626     3452.822 
   43200    268.85459   -8829.4182    40.070223   -8869.4884   -4116.0321 
   43400    317.63406   -8813.3146     47.34034   -8860.6549    -28762.66 
   43600    324.02493   -8825.5765    48.292838   -8873.8694    21580.052 
   43800     277.4467   -8825.0447    41.350795   -8866.3955    26730.589 
   44000    285.23532   -8817.3376    42.511615   -8859.8492    9274.4535 
   44200    257.17075   -8831.0692    38.328857   -8869.3981   -26733.895 
   44400     283.3209    -8825.788    42.226289   -8868.0143    57424.231 
   44600    343.47288   -8819.4465     51.19137   -8870.6379   -38805.739 
   44800    278.86428   -8826.2203    41.562072   -8867.7823   -3572.5779 
   45000    366.63627   -8806.5578    54.643654   -8861.2014   -28968.053 
   45200    278.64971   -8824.0393    41.530093   -8865.5693    15341.132 
   45400     354.3261   -8821.3491    52.808939    -8874.158   -25301.401 
   45600    298.93503   -8818.9805    44.553427   -8863.5339   -8982.0525 
   45800    277.97396   -8832.3356    41.429378    -8873.765   -22398.904 
   46000    319.52874    -8816.634    47.622724   -8864.2567   -20632.994 
   46200    267.69129   -8826.9942    39.896844   -8866.8911    35475.974 
   46400     256.8686    -8826.275    38.283826   -8864.5589   -50353.494 
   46600    298.76087   -8817.8034     44.52747   -8862.3309   -6152.8049 
   46800    327.05429   -8818.1788    48.744335   -8866.9232   -18148.675 
   47000    278.44677   -8830.9685    41.499846   -8872.4683   -34275.467 
   47200    349.58678   -8816.2108     52.10259   -8868.3134    -36213.53 
   47400    325.07276   -8814.0534    48.449007   -8862.5024    16182.655 
   47600    284.18836   -8827.1769    42.355577   -8869.5324    40568.679 
   47800    308.30201   -8821.8218    45.949486   -8867.7712   -20669.126 
   48000     367.4481    -8806.241     54.76465   -8861.0057   -11614.462 
   48200    322.99304   -8819.0831    48.139045   -8867.2221   -35815.931 
   48400    237.35717    -8830.134    35.375832   -8865.5099   -25264.229 
   48600    310.29506   -8811.2585    46.246532    -8857.505    23225.192 
   48800       301.62   -8814.0395    44.953597   -8858.9931    11385.042 
   49000     283.6912   -8825.1151    42.281478   -8867.3965   -7650.0076 
   49200    266.40309   -8835.0488     39.70485   -8874.7537    9507.2141 
   49400    294.18301   -8827.7376    43.845183   -8871.5828   -25217.313 
   49600      351.765   -8818.9047    52.427232    -8871.332    18394.557 
   49800    242.24959   -8833.9597       36.105   -8870.0647    11962.926 
   50000    318.82448   -8812.3351    47.517761   -8859.8529    -11438.62 
   50200    254.82007   -8825.7232    37.978512   -8863.7017    11704.199 
   50400    261.23519   -8828.9503    38.934624   -8867.8849    9929.8264 
   50600    349.37407   -8813.2569    52.070887   -8865.3278   -35672.299 
   50800    325.42072    -8825.975    48.500867   -8874.4759   -24891.751 
   51000    254.75987   -8823.5918    37.969538   -8861.5613   -21206.193 
   51200    351.87244     -8814.65    52.443245   -8867.0933   -7567.1098 
   51400    296.47954   -8818.1719    44.187459   -8862.3593    37807.875 
   51600    279.33812    -8831.969    41.632694   -8873.6017   -43816.137 
   51800    313.40859   -8814.1804    46.710574    -8860.891   -84.873738 
   52000    325.99958    -8818.266    48.587141   -8866.8531   -35892.869 
   52200    320.00495   -8828.9375    47.693699   -8876.6312    23523.244 
   52400    342.60812   -8824.7557    51.062487   -8875.8182      1127.76 
   52600    338.59697   -8819.7773    50.464663   -8870.2419    22379.803 
   52800    283.70932   -8826.6146    42.284179   -8868.8988   -33034.279 
   53000    273.80395   -8830.0692    40.807878   -8870.8771   -2859.9642 
   53200    321.80378   -8819.2399    47.961797   -8867.2017    -22752.37 
   53400    275.76919    -8827.692    41.100778   -8868.7928   -28997.459 
   53600    204.47266   -8843.2035    30.474708   -8873.6782   -4063.4139 
   53800    302.17059   -8827.2751    45.035656   -8872.3107    12493.533 
   54000    295.03028   -8820.0299    43.971461   -8864.0014    6707.7935 
   54200    303.42939   -8814.2259    45.223269   -8859.4492   -7018.0694 
   54400    261.55136   -8830.4625    38.981746   -8869.4442    8988.9784 
   54600    292.13823   -8818.5425    43.540429   -8862.0829    9512.6464 
   54800    363.20808   -8815.5395    54.132715   -8869.6722    -35869.76 
   55000    296.56035   -8829.4793    44.199503   -8873.6788    28012.803 
   55200    322.81217   -8820.1497    48.112088   -8868.2618   -46617.309 
   55400    355.40553   -8813.8297    52.969818   -8866.7995    21174.664 
   55600    283.44955   -8824.9473    42.245463   -8867.1927   -16328.163 
   55800    293.56409   -8811.0791    43.752939    -8854.832   -11876.693 
   56000    285.51258   -8821.3054    42.552939   -8863.8583   -36478.579 
   56200    273.42161   -8824.4519    40.750894   -8865.2028    26650.229 
   56400    277.45765   -8827.3605    41.352428   -8868.7129    983.25968 
   56600    326.95694   -8833.4126    48.729826   -8882.1424    12907.928 
   56800    319.25562   -8816.4863    47.582019   -8864.0683   -28821.317 
   57000    322.85357   -8823.4069    48.118258   -8871.5251    -3699.252 
   57200    225.05634   -8841.7327     33.54251   -8875.2752    20764.336 
   57400     302.3209   -8829.6769    45.058059    -8874.735   -3385.1165 
   57600    294.83091   -8816.4526    43.941747   -8860.3943    22612.688 
   57800    295.62332   -8819.5602    44.059848     -8863.62   -3791.6099 
   58000    236.22446    -8828.813    35.207013     -8864.02   -5996.8226 
   58200    299.58034   -8817.4931    44.649605   -8862.1427   -19019.987 
   58400    287.76135   -8835.3984    42.888096   -8878.2865    -29537.15 
   58600    268.21767    -8825.883    39.975297   -8865.8583    23241.688 
   58800    340.08586   -8817.0548    50.686568   -8867.7414    2847.9974 
   59000    247.79592   -8832.7851    36.931628   -8869.7167    -9813.956 
   59200    283.72821   -8827.5167    42.286995   -8869.8037   -5421.7758 
   59400     351.3052   -8819.7285    52.358704   -8872.0872    46158.746 
   59600    256.09211   -8833.3646    38.168097   -8871.5327   -8369.2137 
   59800    179.82036   -8847.6061    26.800517   -8874.4066   -34826.956 
   60000     231.7879   -8829.4297    34.545786   -8863.9755   -4393.1697 
   60200    304.39786   -8815.3482     45.36761   -8860.7158   -10983.128 
   60400    287.87854   -8824.9642    42.905562   -8867.8698   -7786.6863 
   60600    286.61115   -8829.1731     42.71667   -8871.8898   -26827.571 
   60800    310.08165   -8818.8325    46.214724   -8865.0472   -12412.986 
   61000    252.95295   -8825.9325    37.700235   -8863.6327   -32373.581 
   61200    292.07097   -8832.9827    43.530405   -8876.5131     21342.24 
   61400    302.68341     -8823.38    45.112087   -8868.4921     -9426.64 
   61600    320.59684   -8815.0034    47.781915   -8862.7853   -4151.9812 
   61800    288.81628   -8832.4231    43.045324   -8875.4684    28316.128 
   62000    269.04439   -8826.8801    40.098511   -8866.9786   -33381.479 
   62200    263.93826    -8820.344    39.337491   -8859.6815    10226.869 
   62400    296.37533   -8826.6446    44.171929   -8870.8165    2492.3763 
   62600    247.24358   -8835.1632    36.849307   -8872.0125    10879.125 
   62800     256.6421   -8823.5319    38.250067   -8861.7819    5859.9648 
   63000    312.53926   -8821.0915    46.581009   -8867.6725   -11375.884 
   63200    238.09297   -8837.0259    35.485496   -8872.5114   -13407.027 
   63400    287.99835   -8825.3359    42.923419   -8868.2593    4823.0433 
   63600    315.39442   -8820.9613    47.006543   -8867.9678   -5092.6513 
   63800    291.42405   -8825.2116    43.433986   -8868.6456    23757.659 
   64000    300.85739   -8829.3931    44.839937    -8874.233   -2550.7225 
   64200    310.35855   -8812.5482    46.255994   -8858.8042    13861.788 
   64400    337.11157   -8822.2781    50.243278   -8872.5214   -17969.125 
   64600    280.14347   -8824.2941    41.752723   -8866.0469   -24753.847 
   64800    252.55796   -8837.0486    37.641365     -8874.69    10407.563 
   65000    274.58829   -8820.1743    40.924777   -8861.0991    30300.998 
   65200    273.81798   -8821.0874     40.80997   -8861.8974    69363.108 
   65400    247.21579   -8838.6978    36.845166    -8875.543   -18469.239 
   65600    312.50943   -8825.4504    46.576562    -8872.027   -11879.127 
   65800    350.61773   -8819.2821    52.256242   -8871.5384    9670.2088 
   66000    289.48355    -8822.502    43.144774   -8865.6468    23048.078 
   66200    281.84998   -8833.9614    42.007062   -8875.9684    -21673.08 
   66400    307.98137   -8815.8998    45.901699   -8861.8015   -13538.589 
   66600    320.89151   -8823.4804    47.825832   -8871.3063   -9358.0918 
   66800    284.71805   -8825.5852    42.434522   -8868.0197      7596.04 
   67000    331.32297   -8820.9234    49.380542    -8870.304   -28165.673 
   67200    335.43113   -8818.2052    49.992824    -8868.198    804.19097 
   67400    253.01936   -8832.7269    37.710132   -8870.4371   -14993.526 
   67600    320.83234   -8821.1697    47.817013   -8868.9867    3050.1146 
   67800    242.77843   -8818.9704    36.183819   -8855.1542    14156.541 
   68000    248.79887   -8833.5683    37.081109   -8870.6494    49872.148 
   68200    296.03279   -8826.1302    44.120876   -8870.2511   -11464.025 
   68400    304.47898   -8823.3661    45.379699   -8868.7458    18670.708 
   68600    353.40437    -8817.157    52.671564   -8869.8286   -20325.568 
   68800    301.93016   -8817.1509    44.999822   -8862.1507    30745.566 
   69000    267.35833    -8828.543    39.847219   -8868.3902   -22496.484 
   69200    354.20449   -8811.4806    52.790815   -8864.2714    40126.815 
   69400    299.57286   -8818.1958     44.64849   -8862.8442     15670.02 
   69600    284.67929   -8826.0449    42.428744   -8868.4737    47588.675 
   69800    386.47417   -8808.0491    57.600304   -8865.6494    26602.783 
   70000     311.1853   -8820.9067    46.379213   -8867.2859   -1942.5897 
   70200    267.80943   -8823.7554    39.914453   -8863.6699    29981.516 
   70400    261.09018   -8836.9166    38.913012   -8875.8296   -26865.264 
   70600    293.31726   -8827.2012    43.716152   -8870.9174    8406.4084 
   70800    335.73143   -8817.4505    50.037582   -8867.4881   -30924.553 
   71000     262.6586   -8832.9448     39.14677   -8872.0916   -22819.575 
   71200    342.35254   -8813.9891    51.024395   -8865.0135    3244.3335 
   71400    290.66867   -8824.9832    43.321405   -8868.3046   -19747.001 
   71600    298.18139   -8821.3854    44.441105   -8865.8265    11804.525 
   71800    333.92368   -8811.9435    49.768153   -8861.7117    11705.603 
   72000    217.37753   -8829.8721    32.398057   -8862.2702   -50420.287 
   72200    268.93947   -8828.0264    40.082874   -8868.1093    3382.6264 
   72400    295.55832   -8809.1614    44.050161   -8853.2116    4810.9306 
   72600    262.77039   -8826.6492    39.163431   -8865.8127   -55337.038 
   72800    296.00885   -8826.6125    44.117308   -8870.7298    18487.558 
   73000     353.5213    -8813.732    52.688992    -8866.421   -29682.863 
   73200    304.49122   -8818.5038    45.381525   -8863.8853    11645.757 
   73400    307.90248    -8827.929     45.88994   -8873.8189    25206.793 
   73600     327.0227   -8815.2243    48.739628   -8863.9639   -15716.449 
   73800    245.72564   -8828.4282    36.623073   -8865.0513   -12537.616 
   74000    299.51349   -8827.1176    44.639641   -8871.7573   -9901.6497 
   74200    332.82192   -8814.4972    49.603946   -8864.1011    15501.851 
   74400    253.10146    -8823.658    37.722369   -8861.3804   -11259.093 
   74600    284.92205   -8830.9896    42.464925   -8873.4545    9425.3516 
   74800    318.54198   -8811.5264    47.475657   -8859.0021   -18663.803 
   75000    320.85964    -8819.948    47.821082   -8867.7691    19178.492 
   75200    308.78167   -8830.6327    46.020975   -8876.6536   -26148.819 
   75400    263.98519   -8823.4846    39.344486   -8862.8291    5459.3839 
   75600    302.90005   -8824.4106    45.144376    -8869.555   -5252.4448 
   75800    291.66526   -8829.7897    43.469937   -8873.2596   -22329.345 
   76000    330.18299   -8812.4713    49.210639    -8861.682      20651.3 
   76200    332.48051   -8825.4211    49.553062   -8874.9742    -26498.96 
   76400    263.53837   -8830.1291    39.277892    -8869.407    -2181.394 
   76600    353.59525   -8822.5829    52.700014   -8875.2829     18373.58 
   76800    302.22573   -8824.4361    45.043874     -8869.48    15971.953 
   77000    292.55333   -8835.4187    43.602295    -8879.021    295.74168 
   77200    356.51579    -8818.999    53.135292   -8872.1342    39479.838 
   77400    338.63531   -8817.9523    50.470377   -8868.4226    -3755.062 
   77600     258.3859   -8834.2826    38.509964   -8872.7926   -23144.373 
   77800    342.35419   -8821.3579     51.02464   -8872.3826    12431.458 
   78000    288.81541    -8823.285    43.045193   -8866.3302    5977.7484 
   78200     303.2716   -8823.8408    45.199752   -8869.0405    16217.478 
   78400    273.09602   -8817.7368    40.702368   -8858.4392   -15464.173 
   78600    281.30712   -8824.1799    41.926155   -8866.1061     21268.33 
   78800     256.0248   -8837.1213    38.158065   -8875.2794    5949.4095 
   79000    309.62164   -8817.6147    46.146165   -8863.7609   -2144.4753 
   79200    292.14466   -8824.3221    43.541386   -8867.8635   -29005.134 
   79400    270.92189   -8837.1431    40.378335   -8877.5215    6372.6581 
   79600    284.30041   -8823.9007    42.372277    -8866.273   -30312.004 
   79800    332.14407   -8816.1369    49.502919   -8865.6398     28573.21 
   80000    294.96137   -8827.8156    43.961191   -8871.7768   -5714.4887 
   80200    350.26964   -8823.8966    52.204363    -8876.101    7582.9614 
   80400     346.8262   -8820.4596    51.691151   -8872.1508    44858.484 
   80600    337.57095   -8808.0378    50.311745   -8858.3496   -11728.097 
   80800    295.17529   -8823.0343    43.993073   -8867.0274    40279.463 
   81000    315.11376   -8828.6126    46.964714   -8875.5773    13337.156 
   81200    349.92059   -8821.9594    52.152341   -8874.1117   -39444.142 
   81400     362.2259   -8815.9792     53.98633   -8869.9655    13461.862 
   81600    266.22483   -8834.2488    39.678282   -8873.9271    34705.136 
   81800     276.3422   -8825.2522    41.186181   -8866.4384   -44199.028 
   82000    274.36489   -8824.7989     40.89148   -8865.6904    25266.456 
   82200     273.6281   -8829.7731     40.78167   -8870.5548    -23391.88 
   82400    320.76227   -8825.1706     47.80657   -8872.9771   -3943.9423 
   82600    314.18791   -8813.6193    46.826724    -8860.446    2887.4666 
   82800    252.05397   -8831.3677    37.566251    -8868.934    18985.408 
   83000    290.03134   -8824.5606    43.226417    -8867.787    19292.883 
   83200    314.28313   -8814.7097    46.840915   -8861.5506   -27350.742 
   83400    342.34206   -8820.8451    51.022832   -8871.8679   -45211.356 
   83600    345.03787   -8827.2979    51.424618   -8878.7226    49262.636 
   83800    341.04481   -8817.4986     50.82949   -8868.3281    993.89785 
   84000    261.17615   -8819.7751    38.925824   -8858.7009    14755.168 
   84200    279.92012    -8831.591    41.719435   -8873.3105   -25477.437 
   84400    296.52853   -8833.3107    44.194761   -8877.5055    29060.946 
   84600    342.74283   -8814.9492    51.082563   -8866.0318   -13891.007 
   84800    328.95016   -8825.7159    49.026897   -8874.7428   -6218.8765 
   85000    267.20866   -8838.4334    39.824914   -8878.2583   -3875.5982 
   85200    330.89878   -8828.1408    49.317321   -8877.4581   -11366.104 
   85400    336.60334   -8819.9118    50.167531   -8870.0793   -35087.664 
   85600    261.43689   -8832.6892    38.964686   -8871.6539   -8308.3934 
   85800    318.05836   -8811.7289    47.403577   -8859.1324    -14574.02 
   86000    272.53753   -8821.0184     40.61913   -8861.6376   -21333.343 
   86200    297.06729   -8822.0575    44.275058   -8866.3325    7140.8513 
   86400    284.01089   -8825.6912    42.329126   -8868.0203   -22368.205 
   86600    346.40502    -8822.859    51.628378   -8874.4873   -24710.039 
   86800    316.29286   -8822.8851    47.140447   -8870.0256    11448.048 
   87000    283.17355   -8831.8143    42.204329   -8874.0186   -8328.6777 
   87200     301.8371   -8825.1746    44.985953   -8870.1605   -8105.6292 
   87400    292.64623   -8822.5852    43.616141   -8866.2013   -9133.8519 
   87600    288.41221   -8823.7744    42.985101   -8866.7595   -20901.909 
   87800     340.2271   -8817.8796    50.707619   -8868.5872   -865.61413 
   88000    304.10833   -8827.0774    45.324458   -8872.4018    26742.848 
   88200    297.97833   -8824.8101     44.41084    -8869.221   -10719.446 
   88400    274.56161   -8824.0554      40.9208   -8864.9762   -64520.182 
   88600    274.59004   -8831.1866    40.925038   -8872.1116   -36618.293 
   88800     324.9684   -8818.8434    48.433453   -8867.2768   -4380.1876 
   89000    266.36354   -8824.5349    39.698957   -8864.2339   -3252.4041 
   89200    321.73043   -8815.0639    47.950866   -8863.0147   -7573.5459 
   89400    315.10436   -8819.1983    46.963313   -8866.1617   -14540.816 
   89600    263.15996   -8827.9219    39.221493   -8867.1434   -33190.463 
   89800       277.88   -8823.0817    41.415375   -8864.4971    -17129.21 
   90000    276.20807   -8823.0556     41.16619   -8864.2218   -7591.3092 
   90200    285.31636   -8816.9434    42.523694   -8859.4671   -25557.509 
   90400    250.58613   -8824.5884    37.347483   -8861.9359     44286.01 
   90600    305.23354     -8828.28     45.49216   -8873.7722    16130.834 
   90800     305.8261   -8814.3449    45.580475   -8859.9253   -24676.535 
   91000     287.3904   -8823.8392     42.83281    -8866.672    34974.763 
   91200    284.20994   -8828.0326    42.358792   -8870.3914    -21312.91 
   91400    262.57983   -8821.6972     39.13503   -8860.8322    14722.635 
   91600    396.37915   -8809.9696    59.076547   -8869.0462    11362.154 
   91800    270.70566   -8828.6421    40.346108   -8868.9882   -46522.233 
   92000    242.46957   -8824.9046    36.137787   -8861.0424    9149.9233 
   92200    299.66125    -8815.593    44.661663   -8860.2547   -17406.507 
   92400    287.09266   -8826.6578    42.788434   -8869.4462   -9412.6953 
   92600    277.14121   -8834.9364    41.305265   -8876.2416   -6059.0371 
   92800    295.54203   -8828.3081    44.047732   -8872.3559   -27964.248 
   93000    362.30018   -8815.4856    53.997401    -8869.483    43662.096 
   93200    397.35291   -8805.2005    59.221677   -8864.4222   -1795.3021 
   93400    323.41434    -8822.277    48.201836   -8870.4788    21959.052 
   93600    321.06903    -8815.459    47.852289   -8863.3112    -20060.55 
   93800    287.95409   -8818.5056    42.916823   -8861.4224     4246.986 
   94000     309.6021   -8827.3181    46.143252   -8873.4613   -6368.6972 
   94200    285.87657   -8826.3993    42.607187   -8869.0065   -18208.303 
   94400    245.32465   -8836.9193    36.563309   -8873.4826    2610.2068 
   94600    349.66695   -8817.8557    52.114537   -8869.9702    29955.613 
   94800    254.55968    -8826.089    37.939703   -8864.0287   -7653.3261 
   95000    317.00045    -8822.933    47.245906   -8870.1789   -2132.0021 
   95200    274.92097   -8810.7813    40.974359   -8851.7557   -28585.295 
   95400    269.40518   -8822.6145    40.152283   -8862.7667    19022.098 
   95600    302.23558   -8819.7385    45.045342   -8864.7839   -1702.7589 
   95800    256.39841   -8837.9775    38.213748   -8876.1912    4665.4017 
   96000    248.44113   -8823.5759     37.02779   -8860.6037     43156.93 
   96200    329.77703   -8820.1958    49.150134   -8869.3459    14653.406 
   96400    261.44824   -8838.4243    38.966377   -8877.3907    11065.293 
   96600    313.52939   -8825.0417    46.728577   -8871.7703   -39269.036 
   96800    299.53623   -8826.9444     44.64303   -8871.5875    12584.386 
   97000    294.26989   -8834.9101    43.858133   -8878.7683    4318.6912 
   97200     274.5383   -8822.4122    40.917327   -8863.3296   -51240.458 
   97400    301.26454     -8815.57    44.900619   -8860.4706   -3957.5889 
   97600     286.7258   -8819.4601    42.733758   -8862.1939   -23144.832 
   97800    282.80808   -8827.1025    42.149858   -8869.2523   -50650.596 
   98000    343.53513   -8815.3911    51.200648   -8866.5918    46677.455 
   98200    330.99121   -8823.6541    49.331097   -8872.9852   -10586.822 
   98400    271.25469    -8833.795    40.427935   -8874.2229    26611.568 
   98600    371.48045   -8818.9796    55.365633   -8874.3452    31786.099 
   98800    311.90757   -8824.8413    46.486861   -8871.3282    -21110.87 
   99000    294.85161   -8825.1678    43.944833   -8869.1126    19940.949 
   99200    284.73971   -8815.6182     42.43775    -8858.056   -4238.6475 
   99400    299.67418   -8821.3689     44.66359   -8866.0325    17793.832 
   99600    257.68093   -8833.8554    38.404895   -8872.2603    5782.0178 
   99800    327.66804   -8816.3319    48.835809   -8865.1677   -43283.851 
  100000     291.8531    -8820.364    43.497933    -8863.862    1682.5421 
  100200    309.55155   -8827.1098    46.135719   -8873.2455   -36075.331 
  100400    292.32055   -8826.3586    43.567601   -8869.9262   -3971.6352 
  100600       306.73   -8808.5615    45.715193   -8854.2767    3735.8968 
  100800    271.85847    -8824.557    40.517923   -8865.0749    29917.611 
  101000    351.74026   -8819.0206    52.423545   -8871.4441    2689.0269 
  101200    328.95122   -8798.6186    49.027055   -8847.6456    49401.151 
  101400    321.43838   -8818.3613    47.907338   -8866.2686   -23495.799 
  101600    315.87203   -8829.3036    47.077726   -8876.3813     66567.16 
  101800    363.29738   -8814.6129    54.146024   -8868.7589   -48985.694 
  102000    308.93727   -8832.6057    46.044166   -8878.6498    16724.464 
  102200    252.89696   -8828.0747    37.691889   -8865.7666    3358.6377 
  102400    323.51101   -8818.2966    48.216244   -8866.5129    25960.098 
  102600    251.28574   -8821.7221    37.451753   -8859.1739   -8784.7128 
  102800    312.77571   -8829.4559    46.616249   -8876.0721   -9958.8606 
  103000    321.26678    -8813.715    47.881762   -8861.5967     21419.82 
  103200    333.07111   -8817.2701    49.641085   -8866.9112    4849.1251 
  103400    266.76707    -8834.073    39.759099   -8873.8321   -15605.781 
  103600    302.77872   -8820.4942    45.126293   -8865.6205    37343.239 
  103800    318.57812    -8823.251    47.481043    -8870.732    9245.0705 
  104000    308.23008   -8822.6369    45.938765   -8868.5757   -10465.079 
  104200    336.13867   -8814.5529    50.098276   -8864.6511    25589.349 
  104400    318.47745   -8827.9668     47.46604   -8875.4329   -34094.101 
  104600    305.23277   -8822.3973    45.492045   -8867.8894   -23656.989 
  104800    335.80561   -8811.7436    50.048636   -8861.7923   -35122.411 
  105000    312.05387   -8827.5896    46.508666   -8874.0983    -18354.88 
  105200    316.78876   -8824.0106    47.214355    -8871.225   -28624.325 
  105400    349.78088   -8817.2253    52.131518   -8869.3568    4982.5214 
  105600    310.95133   -8824.1363    46.344343   -8870.4806    37540.651 
  105800    274.19423   -8834.0849    40.866047   -8874.9509   -37422.569 
  106000    281.00021   -8813.5504    41.880413   -8855.4308   -36224.701 
  106200    340.56042   -8817.9261    50.757297   -8868.6834   -16126.762 
  106400    297.79034   -8830.0376    44.382821   -8874.4204    25674.298 
  106600    393.53584    -8816.781     58.65278   -8875.4338   -10456.564 
  106800    299.09071   -8820.4162    44.576629   -8864.9928   -50323.009 
  107000    277.04303   -8824.8929    41.290632   -8866.1836    32422.481 
  107200    255.95933   -8827.2828    38.148307   -8865.4311    24659.927 
  107400    298.82541   -8822.0957    44.537089   -8866.6328   -43822.603 
  107600     316.4288   -8819.7915    47.160708   -8866.9523    61615.386 
  107800    255.54522     -8827.33    38.086588   -8865.4165   -17297.969 
  108000    341.39228   -8819.5415    50.881276   -8870.4228     35400.74 
  108200    270.11123    -8820.115    40.257514   -8860.3726    46901.042 
  108400    284.86339   -8824.1985    42.456183   -8866.6547    42139.354 
  108600     296.2548   -8825.5193    44.153965   -8869.6733   -56484.776 
  108800    306.30327   -8813.5451    45.651594   -8859.1967   -38124.641 
  109000    263.52975   -8826.4588    39.276606   -8865.7354    51783.534 
  109200    349.42977   -8825.8523    52.079189   -8877.9315   -1893.2504 
  109400    236.94536   -8832.9218    35.314455   -8868.2362     192.7554 
  109600     322.9865   -8817.4619     48.13807   -8865.5999    -41564.29 
  109800    268.60889   -8827.6189    40.033604   -8867.6525    23502.321 
  110000    214.02832   -8843.6806    31.898888   -8875.5795    15556.075 
  110200     302.3416    -8823.089    45.061144   -8868.1502    8305.2727 
  110400    351.38017    -8816.296    52.369877   -8868.6659    58276.408 
  110600    282.37032   -8822.8063    42.084615   -8864.8909   -33494.092 
  110800      259.839   -8833.5738    38.726535   -8872.3004    26814.338 
  111000    303.36732   -8811.7886    45.214018   -8857.0026   -47189.149 
  111200    276.01594   -8824.1456    41.137554   -8865.2831   -6943.9193 
  111400    255.24993   -8831.6934    38.042578   -8869.7359    4759.3247 
  111600    336.05319   -8813.1338    50.085536   -8863.2194    28180.088 
  111800    302.93914    -8824.411    45.150202   -8869.5612    50088.438 
  112000    295.44259   -8827.5309    44.032913   -8871.5638   -14780.083 
  112200    329.14331   -8801.7711    49.055684   -8850.8268   -390.39737 
  112400    271.21754   -8818.6813    40.422399   -8859.1037    19183.641 
  112600    266.92865   -8831.1714    39.783181   -8870.9546    27257.494 
  112800    315.20408   -8815.1957    46.978175   -8862.1738   -25352.163 
  113000    343.14334   -8814.7908    51.142255   -8865.9331    36158.657 
  113200    303.18814   -8823.4375    45.187313   -8868.6248    7154.7546 
  113400    263.30926   -8832.9845    39.243744   -8872.2282    19082.305 
  113600    209.85731   -8838.7813    31.277239   -8870.0585   -22436.396 
  113800    268.63328   -8822.9027    40.037238     -8862.94    16972.478 
  114000     335.8356   -8812.3618    50.053107    -8862.415    -14151.25 
  114200    266.17603   -8832.5516     39.67101   -8872.2226    27212.021 
  114400     288.8944   -8824.8488    43.056967   -8867.9057    43195.185 
  114600    324.49674   -8818.5403    48.363157   -8866.9035    2745.0643 
  114800    277.37615   -8829.6814    41.340281   -8871.0216   -26978.707 
  115000    262.31321   -8836.9143    39.095293   -8876.0096    24923.877 
  115200    337.43237   -8825.8823     50.29109   -8876.1734   -12434.693 
  115400    307.49994   -8821.1396    45.829946   -8866.9696   -13087.658 
  115600    282.41083   -8821.3643    42.090652    -8863.455    44788.496 
  115800     268.4272   -8827.7619    40.006524   -8867.7684     23714.86 
  116000    330.48307   -8813.7207    49.255364   -8862.9761   -17087.011 
  116200    279.29304   -8822.4262    41.625975   -8864.0522    92.588684 
  116400    278.78432   -8829.4759    41.550155   -8871.0261   -10943.174 
  116600    292.05344   -8824.4323    43.527792   -8867.9601   -512.22674 
  116800     320.7054   -8809.9531    47.798093   -8857.7512   -22830.833 
  117000    254.76278   -8832.6301    37.969973   -8870.6001    23199.956 
  117200    337.47194   -8822.7681    50.296987    -8873.065     -12707.2 
  117400    365.37337   -8814.9063     54.45543   -8869.3618   -29743.947 
  117600    325.52387    -8819.358    48.516241   -8867.8742    11258.446 
  117800    270.05729   -8830.6446    40.249474   -8870.8941    224.92593 
  118000    304.86412   -8816.3831    45.437102   -8861.8202    3987.4184 
  118200    287.95081   -8822.3107    42.916334    -8865.227   -16804.213 
  118400    321.92402   -8819.7492    47.979718   -8867.7289   -25830.815 
  118600    264.24883   -8822.7306    39.383778   -8862.1144    53062.122 
  118800     277.5628   -8832.0846    41.368099   -8873.4527   -19730.868 
  119000    323.82436   -8813.1821    48.262946    -8861.445    60646.106 
  119200    360.09206   -8825.2357    53.668302    -8878.904    7686.7498 
  119400    301.94913   -8824.0094     45.00265    -8869.012   -9390.6589 
  119600    318.55988    -8819.645    47.478325   -8867.1233    18345.778 
  119800    276.23383   -8828.2426    41.170028   -8869.4126   -12828.519 
  120000    288.22503   -8824.6502    42.957204   -8867.6074   -12464.582 
  120200    300.83193   -8817.6631    44.836142   -8862.4993   -14128.424 
  120400    245.65545   -8830.1533    36.612611   -8866.7659   -29974.796 
  120600    355.97722   -8811.9679    53.055024   -8865.0229    32205.311 
  120800    264.74062   -8821.2573    39.457075   -8860.7144     27504.51 
  121000    307.34112   -8825.7262    45.806274   -8871.5325   -3649.3202 
  121200    355.20183   -8812.2135     52.93946    -8865.153   -8254.1199 
  121400    264.05009   -8814.5789    39.354158    -8853.933    50734.206 
  121600    311.73685   -8828.0419    46.461417   -8874.5033   -29978.441 
  121800    329.49479   -8825.3043    49.108069   -8874.4124   -5038.3634 
  122000     282.3011   -8817.5229    42.074298   -8859.5972    3574.7228 
  122200    359.15104   -8803.8855    53.528052   -8857.4135   -2038.6483 
  122400     272.0751   -8825.0332     40.55021   -8865.5834   -16349.138 
  122600     267.5899   -8830.8418    39.881734   -8870.7236   -1916.7128 
  122800    286.38985   -8827.8722    42.683687   -8870.5559    11001.864 
  123000    344.22813    -8814.275    51.303934   -8865.5789   -2647.3904 
  123200    280.69674   -8830.7133    41.835183   -8872.5485    32906.387 
  123400    269.17825   -8825.1968    40.118462   -8865.3153   -31055.135 
  123600    296.96037    -8817.728    44.259122   -8861.9871   -3291.9859 
  123800    260.22061   -8827.8999    38.783411   -8866.6833    31531.618 
  124000    230.08497   -8842.8917    34.291979   -8877.1837   -26958.604 
  124200    328.10703   -8825.8889    48.901236   -8874.7902   -18925.598 
  124400    330.56842   -8819.4043    49.268084   -8868.6724    22064.014 
  124600     378.8281   -8806.9094     56.46073   -8863.3702    23148.122 
  124800    275.27464   -8828.6915     41.02707   -8869.7185   -16879.342 
  125000    359.24794   -8821.1097    53.542493   -8874.6522    2540.8201 
  125200    334.80815    -8812.217    49.899976    -8862.117   -29819.817 
  125400    291.93357   -8824.7112    43.509927   -8868.2211   -17116.884 
  125600    264.25591   -8829.2532    39.384833    -8868.638    38.644209 
  125800    367.89797   -8812.2585    54.831699   -8867.0902   -29365.651 
  126000    333.91233   -8820.8693    49.766461   -8870.6357   -11999.675 
  126200    276.05439   -8825.7443    41.143286   -8866.8876   -8816.8263 
  126400      332.988   -8815.2291    49.628699   -8864.8578   -39357.015 
  126600    268.86052   -8822.4641    40.071107   -8862.5352   -17390.651 
  126800    291.77453    -8827.889    43.486223   -8871.3753    4397.2098 
  127000    256.61393   -8812.7034     38.24587   -8850.9492   -2354.9891 
  127200    268.84016   -8829.5656    40.068073   -8869.6336   -25011.961 
  127400    317.09445     -8824.48    47.259917   -8871.7399    6293.1595 
  127600    261.20397    -8823.661    38.929971    -8862.591   -24178.139 
  127800    254.27117   -8831.7123    37.896702    -8869.609    36255.399 
  128000     291.6622   -8818.1724    43.469481   -8861.6419   -73354.398 
  128200    303.73659   -8825.8591    45.269054   -8871.1282   -3981.3698 
  128400    314.44491    -8825.786    46.865028    -8872.651     7396.543 
  128600    293.40318   -8823.8974    43.728958   -8867.6264    29505.166 
  128800    351.83553   -8807.2415    52.437744   -8859.6792   -17938.928 
  129000     304.1734   -8825.2647    45.334156   -8870.5989    13573.641 
  129200    254.03365   -8829.2464    37.861303   -8867.1077    42512.847 
  129400    337.39544   -8810.9252    50.285586   -8861.2107   -46216.502 
  129600     304.3149    -8825.497    45.355245   -8870.8523    18509.235 
  129800    307.83522   -8823.4863    45.879915   -8869.3662   -60491.561 
  130000     357.5638   -8804.8369    53.291489   -8858.1284    12295.312 
  130200    305.16403   -8825.9743    45.481801   -8871.4561   -3855.9979 
  130400    363.64607   -8823.9735    54.197993   -8878.1715   -475.06743 
  130600    379.42579   -8810.8403     56.54981   -8867.3901   -35401.681 
  130800    300.10519   -8829.3556    44.727828   -8874.0834    44905.691 
  131000    295.74251   -8824.4489    44.077612   -8868.5265    2443.9285 
  131200    370.26494    -8814.675    55.184473   -8869.8595   -31797.562 
  131400    343.67472   -8805.3645    51.221453   -8856.5859    -30198.08 
  131600    251.89036   -8823.3049    37.541866   -8860.8467   -24169.747 
  131800    265.64706   -8827.0677    39.592172   -8866.6599    6604.0951 
  132000    315.78967   -8819.6014    47.065452   -8866.6669    14997.445 
  132200    260.19354   -8821.2539    38.779377   -8860.0333   -66519.333 
  132400     240.2352   -8834.1702    35.804775   -8869.9749    36537.618 
  132600    302.44736   -8813.0963    45.076906   -8858.1732   -17792.087 
  132800    319.19545   -8819.7908    47.573051   -8867.3639   -1340.5851 
  133000    241.36393   -8829.7783    35.973001   -8865.7513    12299.644 
  133200     328.1886   -8808.1885    48.913394   -8857.1019   -40060.946 
  133400    313.08813   -8823.2265    46.662812   -8869.8893    14057.555 
  133600    303.40955   -8828.1206    45.220311    -8873.341   -26419.715 
  133800    333.23525   -8819.8331    49.665549   -8869.4986   -7938.5246 
  134000    272.19711   -8814.2247    40.568395   -8854.7931     -70715.2 
  134200    334.30787    -8821.488    49.825413   -8871.3134    45689.637 
  134400    232.51893   -8833.5378    34.654738   -8868.1926   -17816.926 
  134600    259.07556    -8830.811    38.612751   -8869.4237   -30182.252 
  134800      311.551   -8818.3693    46.433717   -8864.8031   -13301.083 
  135000    306.53584   -8825.1029    45.686255   -8870.7891   -48313.154 
  135200    270.49726   -8834.0308    40.315047   -8874.3459    13505.794 
  135400     365.7208   -8817.0384    54.507212   -8871.5456    9440.9397 
  135600    310.17362   -8823.0467    46.228433   -8869.2751   -10535.859 
  135800    270.13257   -8833.5676    40.260694   -8873.8283    -17762.31 
  136000    281.89274   -8825.0032    42.013436   -8867.0166   -6692.8308 
  136200     282.4948   -8819.7476    42.103167   -8861.8508    17538.422 
  136400     286.3178   -8829.7338    42.672949   -8872.4068   -18795.541 
  136600    303.70119   -8830.0568    45.263778   -8875.3206    49181.457 
  136800     293.2466   -8814.8919    43.705621   -8858.5975   -27417.187 
  137000    277.38032   -8831.2309    41.340902   -8872.5719    35949.303 
  137200    310.82656   -8826.4977    46.325747   -8872.8234   -22372.269 
  137400    297.88484   -8814.9925    44.396906   -8859.3894   -13642.758 
  137600    295.18548   -8831.6316    43.994592   -8875.6262   -40668.738 
  137800    296.26546   -8821.3113    44.155552   -8865.4668    24462.861 
  138000    283.09588   -8819.0163    42.192752   -8861.2091   -25084.329 
  138200      306.968   -8823.8313    45.750664   -8869.5819    16160.288 
  138400    282.90905   -8837.6105    42.164908   -8879.7754   -8378.1959 
  138600    327.98535   -8821.2041    48.883101   -8870.0872    9687.9612 
  138800    281.78985   -8821.8263      41.9981   -8863.8244    11313.288 
  139000    273.82772   -8832.0156    40.811421    -8872.827   -35635.807 
  139200    258.31273   -8825.9416    38.499059   -8864.4406    52603.239 
  139400    277.97646   -8817.4794    41.429751   -8858.9091    15002.194 
  139600    291.90208   -8831.1641    43.505232   -8874.6693    14872.561 
  139800    321.97622    -8816.289    47.987497   -8864.2765    7057.1843 
  140000    306.29236   -8823.2142    45.649968   -8868.8642   -52757.732 
  140200    283.60925   -8827.3305    42.269265   -8869.5998    589.44553 
  140400    335.24592   -8816.7314    49.965221   -8866.6966    -7260.353 
  140600    267.48336   -8824.4616    39.865855   -8864.3275    4312.2816 
  140800    301.55955   -8825.2224    44.944587    -8870.167     45449.63 
  141000    254.38851   -8836.1917    37.914191   -8874.1059   -9597.3013 
  141200    304.71992   -8823.5372    45.415611   -8868.9528    15029.944 
  141400    286.78594   -8826.6275    42.742721   -8869.3703    19885.013 
  141600    396.08424   -8809.9827    59.032594   -8869.0153   -27653.918 
  141800    319.31717   -8824.5945    47.591191   -8872.1857    64756.039 
  142000     345.2793   -8825.6463    51.460601   -8877.1069   -63437.501 
  142200    325.28297   -8821.9081    48.480338   -8870.3884   -24834.731 
  142400    320.70682   -8819.9624    47.798305   -8867.7608   -21584.912 
  142600    260.82056   -8833.9106    38.872828   -8872.7834   -3788.8352 
  142800    317.15378   -8817.1396    47.268759   -8864.4083   -28651.613 
  143000    330.95871   -8818.0394    49.326252   -8867.3656   -7904.1548 
  143200       273.36     -8836.22    40.741712   -8876.9618    39314.291 
  143400    252.28892   -8835.1582    37.601268   -8872.7595   -6013.3245 
  143600    343.91901   -8818.4743    51.257862   -8869.7321   -1093.9387 
  143800    307.44443   -8822.5479    45.821673   -8868.3696    21195.336 
  144000    280.14082    -8832.235    41.752329   -8873.9873   -20805.309 
  144200    282.85209    -8823.373    42.156417   -8865.5294    24112.637 
  144400    338.08487   -8819.4185    50.388339   -8869.8068    26567.883 
  144600    281.76329   -8833.5107    41.994142   -8875.5049    9905.0536 
  144800    335.55254   -8817.6976     50.01092   -8867.7085    13262.286 
  145000    286.72918   -8824.8192    42.734262   -8867.5535    23090.911 
  145200    276.46583   -8836.6262    41.204607   -8877.8308    3064.9248 
  145400    297.47691   -8819.4445    44.336109   -8863.7806    2531.2777 
  145600    321.26713   -8815.5626    47.881815   -8863.4444    11661.723 
  145800    285.72834   -8832.1389    42.585095    -8874.724   -33818.087 
  146000    329.69285   -8827.0599    49.137589   -8876.1975   -895.62184 
  146200     328.6423   -8818.0128    48.981014   -8866.9938   -8507.1501 
  146400    291.50387   -8829.2556    43.445883   -8872.7015   -20111.523 
  146600    222.50447    -8842.107    33.162179   -8875.2692   -13102.912 
  146800    268.22313   -8826.4205    39.976111   -8866.3966    31337.769 
  147000    300.21464   -8815.9396     44.74414   -8860.6838    13346.649 
  147200    286.00298   -8824.2983    42.626027   -8866.9244   -31422.758 
  147400    255.94569   -8835.1696    38.146275   -8873.3159    2854.9076 
  147600    282.78116   -8819.6153    42.145846   -8861.7611    25173.252 
  147800     304.0914   -8820.3572    45.321935   -8865.6792     15309.73 
  148000    274.97331   -8836.0303    40.982161   -8877.0125   -31537.457 
  148200    299.30022   -8826.4435    44.607856   -8871.0514   -35529.247 
  148400    359.87285   -8818.3411     53.63563   -8871.9767   -4698.6304 
  148600    266.47365   -8832.4406    39.715367    -8872.156     24819.17 
  148800    263.74262   -8822.8532    39.308333   -8862.1615     4273.821 
  149000      318.146   -8818.7149    47.416639   -8866.1315   -10591.715 
  149200    350.59268   -8810.8675    52.252509     -8863.12   -8253.2427 
  149400    320.51227   -8826.7171     47.76931   -8874.4864    7613.8112 
  149600    268.51363   -8822.9956    40.019406    -8863.015   -49012.472 
  149800    324.13473   -8811.6851    48.309202   -8859.9943    14781.262 
  150000     267.4613   -8827.0386    39.862567   -8866.9011   -13962.747 
  150200    323.13362   -8819.5915    48.159997   -8867.7515    20602.683 
  150400    370.36344   -8812.3767    55.199153   -8867.5759   -18258.026 
  150600    240.82093   -8831.4293    35.892073   -8867.3213   -14049.124 
  150800    357.65993   -8817.2713    53.305816   -8870.5772    4778.7236 
  151000    305.54316   -8827.1652    45.538306   -8872.7035   -9549.5543 
  151200    287.41518   -8826.4048    42.836502   -8869.2413    -26671.24 
  151400    314.05376   -8812.1823     46.80673   -8858.9891    16573.811 
  151600    260.53034   -8830.2673    38.829572   -8869.0968    21846.885 
  151800    277.86638    -8824.245    41.413345   -8865.6583    -16410.48 
  152000    309.24332   -8824.6137    46.089779   -8870.7035   -1472.2975 
  152200    264.66173   -8830.7649    39.445317   -8870.2102   -5994.0618 
  152400    322.73425    -8819.141    48.100474   -8867.2415   -7190.3346 
  152600    248.85388   -8822.0377    37.089308    -8859.127    493.22848 
  152800      282.285   -8822.6519    42.071899   -8864.7238    21525.946 
  153000    250.13336   -8828.5503    37.280002   -8865.8303   -29609.961 
  153200     322.1356    -8810.603    48.011252   -8858.6143     7306.049 
  153400     231.9073   -8826.5784    34.563581    -8861.142    12914.443 
  153600    298.36541   -8822.0049     44.46853   -8866.4734   -26898.224 
  153800    315.34596   -8808.6235    46.999321   -8855.6228   -8754.2496 
  154000    275.18363   -8828.3794    41.013507   -8869.3929    11553.659 
  154200    253.92691   -8817.9464    37.845394   -8855.7918    43094.775 
  154400    315.01324   -8819.7794    46.949732   -8866.7291   -6250.1432 
  154600    281.49083   -8830.0853    41.953535   -8872.0389    44503.374 
  154800    334.64819   -8815.4195    49.876134   -8865.2957     19395.43 
  155000    271.22479   -8821.4326    40.423478   -8861.8561   -14760.606 
  155200    291.49314   -8822.6568    43.444283   -8866.1011   -8765.6324 
  155400    300.60739   -8823.6712    44.802676   -8868.4739    18686.067 
  155600    277.66132   -8831.8366    41.382782   -8873.2193   -26758.551 
  155800    314.38895   -8814.3985    46.856688   -8861.2552    5880.6304 
  156000    316.01678   -8823.8141    47.099299   -8870.9134   -11177.852 
  156200    324.80384    -8821.614    48.408928   -8870.0229   -33471.204 
  156400    314.20458    -8820.126    46.829209   -8866.9552   -16829.884 
  156600    371.02498   -8806.3497     55.29775   -8861.6475    -9058.593 
  156800    237.08788   -8821.6212    35.335697   -8856.9569   -23769.412 
  157000    301.02921    -8832.146    44.865544   -8877.0116   -31564.135 
  157200    316.26431   -8819.1507    47.136191   -8866.2869   -22452.077 
  157400    315.77905   -8820.1366    47.063869   -8867.2005    19004.849 
  157600    241.53964   -8831.6818    35.999189    -8867.681   -12773.052 
  157800    308.81601   -8823.4032    46.026094   -8869.4293   -24842.359 
  158000    304.50458   -8823.6193    45.383516   -8869.0028    7496.5087 
  158200    351.29047   -8807.2763    52.356508   -8859.6328    35800.022 
  158400    315.75868   -8823.6064    47.060833   -8870.6672   -51599.065 
  158600    314.29483   -8821.3455     46.84266   -8868.1882    38943.586 
  158800    221.62691   -8833.3496    33.031386    -8866.381   -3061.3923 
  159000    309.36565   -8826.3534    46.108012   -8872.4614    39424.911 
  159200    262.26356   -8820.2178    39.087894   -8859.3057   -13958.259 
  159400     255.7946   -8823.9486    38.123756   -8862.0724   -27432.293 
  159600    234.86943   -8835.0712    35.005058   -8870.0762    2642.5761 
  159800    276.66312   -8818.9998     41.23401   -8860.2338    11140.787 
  160000    308.29247   -8819.1006    45.948065   -8865.0487    483.20247 
  160200    253.10884   -8829.7117    37.723468   -8867.4352    3625.6247 
  160400    249.94999   -8836.2891    37.252672   -8873.5418    20484.079 
  160600    308.11783   -8820.0716    45.922037   -8865.9936    14534.517 
  160800    291.76135   -8820.9837    43.484259   -8864.4679    17804.977 
  161000     254.5828    -8834.793    37.943148   -8872.7361    4895.1557 
  161200    269.03541   -8824.4322    40.097172   -8864.5294   -26289.107 
  161400    331.18608   -8816.4036    49.360139   -8865.7637    35168.388 
  161600    251.18334   -8822.6923    37.436491   -8860.1288    13666.347 
  161800     242.2661   -8830.6747    36.107461   -8866.7822    43983.116 
  162000    332.84738   -8814.3979    49.607741   -8864.0057    12977.362 
  162200     307.2035   -8816.4719    45.785764   -8862.2577    27972.201 
  162400    253.70095   -8825.6628    37.811717   -8863.4745   -54425.322 
  162600    209.67385   -8827.3294    31.249896   -8858.5793    3007.7853 
  162800    261.92174   -8816.5568    39.036948   -8855.5937   -6613.7173 
  163000    244.44894   -8832.4802    36.432793    -8868.913    -8022.698 
  163200    269.80515   -8829.7453    40.211896   -8869.9572    716.27338 
  163400    292.47993   -8817.6436    43.591355   -8861.2349   -5053.4215 
  163600    244.37317   -8828.8571    36.421501   -8865.2786    34854.696 
  163800    310.74375   -8821.6066    46.313404     -8867.92   -9043.6722 
  164000    286.25394    -8825.171    42.663431   -8867.8344   -28903.916 
  164200    240.92017   -8828.1286    35.906863   -8864.0355    8060.0106 
  164400    288.73356   -8811.5148    43.032995   -8854.5478    -21520.24 
  164600    326.02244   -8828.3266    48.590548   -8876.9172   -3553.2337 
  164800    241.82532   -8826.0011    36.041767   -8862.0429     837.6239 
  165000     373.6507    -8809.243    55.689088    -8864.932    67176.924 
  165200    318.07118   -8817.2138    47.405488   -8864.6193    22242.772 
  165400    279.39711   -8824.2199    41.641486   -8865.8614    13548.894 
  165600    302.67165   -8832.0859    45.110335   -8877.1962     6714.857 
  165800    299.84886    -8822.414    44.689625   -8867.1036    13865.571 
  166000    240.68755   -8822.5738    35.872194    -8858.446   -23638.029 
  166200    288.70827   -8832.3724    43.029226   -8875.4017   -749.27263 
  166400    232.61632   -8834.7901    34.669253   -8869.4593    -6403.495 
  166600    307.91372   -8819.8156    45.891616   -8865.7072    8787.5286 
  166800    308.49966   -8811.6517    45.978944   -8857.6307    10397.931 
  167000    332.42683   -8817.9361    49.545062   -8867.4812    15130.862 
  167200    308.35902   -8826.2761    45.957984   -8872.2341    7450.6265 
  167400    278.79994   -8813.1648    41.552484   -8854.7173    18617.592 
  167600    270.92933   -8828.7194    40.379443   -8869.0988    26525.742 
  167800    315.82701   -8825.0443    47.071016   -8872.1153   -10489.212 
  168000    306.05862   -8815.8645     45.61513   -8861.4796    12243.231 
  168200     296.0413   -8826.3107    44.122143   -8870.4328   -25875.997 
  168400    272.28444   -8838.6058     40.58141   -8879.1872    11796.319 
  168600    345.09464   -8821.2287    51.433078   -8872.6617    972.87524 
  168800    301.78347   -8817.2329     44.97796   -8862.2109    26507.428 
  169000    274.20511   -8836.6481    40.867667   -8877.5157    -6513.109 
  169200    310.29513   -8825.0561    46.246542   -8871.3026    604.58048 
  169400     310.9934   -8816.6522    46.350613   -8863.0028    20689.814 
  169600      359.707   -8816.4116    53.610912   -8870.0225   -14857.129 
  169800    278.08994   -8829.8502    41.446665   -8871.2969   -25495.231 
  170000    350.83297   -8816.4355    52.288322   -8868.7238    66535.379 
  170200    276.92276   -8826.6937    41.272708   -8867.9664   -45215.303 
  170400    311.44065   -8821.2107     46.41727    -8867.628    26075.546 
  170600    257.40521   -8833.6149    38.363802   -8871.9787    -31017.81 
  170800    281.56107   -8822.5004    41.964003   -8864.4644    38088.838 
  171000    307.24299   -8817.0856     45.79165   -8862.8773    13264.929 
  171200    312.41909   -8827.5427    46.563099   -8874.1058    37904.471 
  171400     255.2093   -8837.0445    38.036523    -8875.081   -6420.4407 
  171600    301.16929    -8818.726    44.886423   -8863.6124    14867.666 
  171800    302.01117   -8822.7179    45.011896   -8867.7298    13255.569 
  172000    257.56461   -8830.2481    38.387559   -8868.6356    3107.6053 
  172200    236.64463   -8830.5711    35.269634   -8865.8407    1655.3629 
  172400    331.81647   -8818.8047    49.454094   -8868.2588   -12919.084 
  172600     251.3271   -8825.5578    37.457917   -8863.0157   -13572.941 
  172800    294.90081   -8818.2163    43.952165   -8862.1684   -44890.834 
  173000    322.05245   -8824.2762    47.998859   -8872.2751     55154.59 
  173200    305.35505   -8832.2392    45.510271   -8877.7495    8700.7095 
  173400    337.64533   -8816.9972    50.322829     -8867.32   -8717.4346 
  173600    247.77488   -8829.6965    36.928492    -8866.625     10542.35 
  173800    264.52949   -8825.3706    39.425608   -8864.7962   -2077.4573 
  174000    306.24233   -8814.7533    45.642511   -8860.3958    25746.095 
  174200    323.71546   -8824.0758    48.246715   -8872.3225    31988.607 
  174400    275.20456   -8835.6351    41.016626   -8876.6517   -13901.086 
  174600    269.79156    -8818.799     40.20987   -8859.0088    16667.686 
  174800    312.57966   -8822.4801     46.58703   -8869.0671    41109.879 
  175000    234.50676   -8835.9949    34.951005   -8870.9459    8121.1879 
  175200    317.35824   -8825.2666    47.299232   -8872.5658    -54929.07 
  175400    330.99175   -8819.6234    49.331177   -8868.9546    17457.389 
  175600    301.61918   -8832.6639    44.953475   -8877.6174    23593.431 
  175800    286.44765   -8822.9285    42.692302   -8865.6208    5677.3507 
  176000    361.44603   -8823.6458    53.870098   -8877.5159    51650.123 
  176200    291.89393   -8829.7621    43.504018   -8873.2661   -44056.538 
  176400    321.82163    -8814.721    47.964458   -8862.6855    9849.8762 
  176600    266.23188   -8827.8516    39.679333   -8867.5309   -25230.169 
  176800    280.81241   -8826.3841    41.852423   -8868.2366    26860.554 
  177000    253.48634   -8821.2746    37.779731   -8859.0543   -42685.632 
  177200     322.6912   -8818.8095    48.094059   -8866.9036    11033.129 
  177400    258.86593   -8832.9227    38.581509   -8871.5042    -22977.33 
  177600    341.52749   -8817.3229    50.901428   -8868.2243   -9761.7941 
  177800     266.2291   -8819.2176     39.67892   -8858.8965   -5114.0293 
  178000    295.42206   -8824.5044    44.029852   -8868.5343   -29510.713 
  178200    301.21001   -8823.6959    44.892491   -8868.5884    -31981.35 
  178400    312.43695   -8809.7327     46.56576   -8856.2984    37282.226 
  178600    308.94648   -8828.1743    46.045538   -8874.2198   -9611.3082 
  178800    310.47455   -8821.9132    46.273283   -8868.1865   -35022.326 
  179000    329.50832   -8823.3554    49.110086   -8872.4655   -24214.244 
  179200    265.84317   -8836.5993      39.6214   -8876.2207    10229.511 
  179400    290.13708   -8820.2803    43.242176   -8863.5225   -19112.102 
  179600    255.65741   -8818.8916    38.103309   -8856.9949    17804.462 
  179800     250.7883   -8831.4842    37.377614   -8868.8618   -22826.959 
  180000    300.86766   -8816.9556    44.841468   -8861.7971    29582.228 
  180200     345.1297   -8819.7181    51.438304   -8871.1564   -27758.744 
  180400    308.81026    -8824.892    46.025237   -8870.9172    20480.402 
  180600     244.2019   -8834.8197    36.395974   -8871.2157   -2073.9929 
  180800     311.1242   -8828.9679    46.370107    -8875.338    16871.369 
  181000    346.93989   -8819.8573    51.708095   -8871.5654   -24342.615 
  181200    382.45298   -8805.5076    57.000984   -8862.5086   -1045.4124 
[...]
  950000    352.11644   -8864.4756    52.479611   -8916.9552   -21174.025 
  950200     280.8404   -8860.8732    41.856594   -8902.7298    50240.427 
  950400    268.41684   -8881.8643    40.004981   -8921.8693    25046.742 
  950600    305.66276   -8879.8148    45.556131   -8925.3709    11058.264 
  950800    335.47058   -8866.3813    49.998704     -8916.38   -22448.465 
  951000    334.63615   -8868.4686     49.87434    -8918.343   -55972.289 
  951200    292.62242   -8879.5479    43.612593   -8923.1605     12017.61 
  951400    329.04544   -8863.3446    49.041098   -8912.3857    18686.924 
  951600    300.81115    -8870.552    44.833045    -8915.385    16358.473 
  951800    327.48606   -8871.9581    48.808687   -8920.7668   -8385.1087 
  952000    315.29235   -8880.5803     46.99133   -8927.5716    14857.055 
  952200    296.17247   -8879.5641    44.141694   -8923.7058   -12242.124 
  952400    285.58141   -8870.0216    42.563196   -8912.5848    20265.758 
  952600    286.68113   -8879.0039      42.7271    -8921.731   -17601.478 
  952800    229.19074   -8893.8704    34.158704   -8928.0291   -17654.163 
  953000    330.19958   -8874.8548    49.213112   -8924.0679   -4655.1377 
  953200    326.98619   -8868.5268    48.734186    -8917.261   -9705.4738 
  953400    334.97807   -8876.9415    49.925299   -8926.8668   -2625.8074 
  953600    287.49562    -8882.938    42.848492   -8925.7865    31367.347 
  953800    355.44554    -8870.342    52.975782   -8923.3177   -16484.359 
  954000    283.74932    -8875.206    42.290141   -8917.4962   -28605.739 
  954200    274.16138   -8880.1365     40.86115   -8920.9977    8755.5788 
  954400     342.4152   -8866.3253    51.033734   -8917.3591    14748.114 
  954600    307.26028   -8879.0928    45.794226    -8924.887    607.44171 
  954800    310.66635   -8873.7675    46.301869   -8920.0694   -40507.521 
  955000     276.8488   -8875.1133    41.261685    -8916.375   -5457.9162 
  955200    287.93103   -8877.1061    42.913385   -8920.0195    46623.742 
  955400    337.54718   -8860.9031    50.308201   -8911.2113    45366.176 
  955600    286.83495   -8876.8339    42.750025    -8919.584   -45574.097 
  955800    328.08019   -8874.4469    48.897236   -8923.3441   -463.28017 
  956000    408.07586   -8855.9641    60.819831    -8916.784   -30032.046 
  956200    282.48384   -8874.7392    42.101534   -8916.8407    6919.2496 
  956400    341.03298   -8876.3563    50.827727    -8927.184    4879.7273 
  956600     241.6685    -8886.527    36.018395   -8922.5454    22869.748 
  956800    382.12942   -8867.7017     56.95276   -8924.6544   -11581.442 
  957000    303.25375   -8880.6503    45.197092   -8925.8474   -34668.361 
  957200      356.864    -8874.377    53.187189   -8927.5641    15436.186 
  957400    337.80457   -8869.3152    50.346563   -8919.6618   -18791.427 
  957600    290.03917   -8879.2575    43.227583   -8922.4851    3334.8713 
  957800    388.56821   -8860.5214    57.912401   -8918.4338   -10045.068 
  958000    279.33908   -8867.8677    41.632837   -8909.5006    26071.182 
  958200    289.02815   -8877.3251    43.076901    -8920.402    28510.642 
  958400    340.35837    -8863.907    50.727182   -8914.6342    22604.194 
  958600    265.83183   -8870.9734    39.619709   -8910.5931    23595.952 
  958800    310.28286   -8874.9256    46.244713   -8921.1704    13322.437 
  959000    249.37593   -8880.8533    37.167114   -8918.0204    4282.8204 
  959200    287.78511   -8864.6596    42.891638   -8907.5512   -47294.987 
  959400    256.79934   -8880.0324    38.273503   -8918.3059    18807.104 
  959600     323.7112    -8870.639    48.246079    -8918.885   -5260.0102 
  959800    293.94553   -8869.1085    43.809789   -8912.9183    24664.679 
  960000    334.42095   -8871.7906    49.842266   -8921.6328    88938.369 
  960200      233.016   -8887.1003    34.728821   -8921.8291    14930.432 
  960400     295.6015   -8872.6326    44.056596   -8916.6892    1607.4711 
  960600    255.13848    -8874.291    38.025967    -8912.317    27348.579 
  960800      382.003   -8860.3953     56.93392   -8917.3292   -42164.994 
  961000    250.95958   -8879.4965    37.403142   -8916.8996   -3817.8486 
  961200    350.21266   -8872.2628     52.19587   -8924.4587    5094.9784 
  961400     318.5384    -8864.857    47.475123   -8912.3322    55785.193 
  961600    310.78623   -8879.8061    46.319735   -8926.1258   -20513.664 
  961800    329.74162   -8878.4095    49.144857   -8927.5543    33506.891 
  962000    333.70326   -8866.6748    49.735301   -8916.4101   -2103.4874 
  962200    305.88525   -8874.4574    45.589291   -8920.0467    -1698.586 
  962400     362.1989   -8863.1169    53.982306   -8917.0992   -37714.815 
  962600    255.14944   -8879.1609    38.027601   -8917.1885    36248.308 
  962800    319.51143   -8874.8616    47.620144   -8922.4817    44017.072 
  963000    310.94702   -8868.1631      46.3437   -8914.5068    10088.051 
  963200    288.56895   -8876.0353    43.008461   -8919.0437    14377.026 
  963400    270.44196   -8883.1342    40.306805    -8923.441    15676.702 
  963600    279.76512      -8866.5    41.696334   -8908.1963    21048.918 
  963800    326.07375   -8863.5837    48.598195   -8912.1818    24610.134 
  964000    294.69741   -8884.5716    43.921851   -8928.4935    16495.735 
  964200    286.27458   -8875.8281    42.666508   -8918.4946   -23835.183 
  964400    321.36946   -8868.5373    47.897067   -8916.4343   -31640.468 
  964600    293.82709   -8881.4231    43.792137   -8925.2152   -3722.2654 
  964800    244.97356   -8892.2767    36.510982   -8928.7877   -10485.146 
  965000    249.70638   -8873.6003    37.216364   -8910.8167    -1769.507 
  965200    308.25408   -8873.7331    45.942343   -8919.6754   -18472.945 
  965400    291.87718   -8882.1905    43.501521    -8925.692   -773.64627 
  965600    256.87108   -8885.6831    38.284195   -8923.9673   -15188.384 
  965800    306.81437    -8866.678    45.727769   -8912.4058    8039.8596 
  966000    316.10188   -8873.9741    47.111983    -8921.086     7383.038 
  966200    226.59526   -8886.2411    33.771871    -8920.013    -23305.67 
  966400    301.26921   -8871.6356    44.901314   -8916.5369     13854.26 
  966600    271.97614   -8873.7155    40.535461   -8914.2509    27056.109 
  966800    265.68769   -8886.4824    39.598227   -8926.0807    10155.911 
  967000     274.3011   -8874.2929    40.881974   -8915.1748    -16848.57 
  967200    300.98555   -8874.5259    44.859038    -8919.385    -4041.738 
  967400     272.1063    -8885.074    40.554859   -8925.6289    34308.935 
  967600    324.72495   -8874.7874     48.39717   -8923.1846   -23074.923 
  967800    308.28677   -8868.7439    45.947216   -8914.6911   -17133.845 
  968000    311.62004   -8876.5991    46.444008   -8923.0431   -5120.2441 
  968200    262.81819   -8885.0782    39.170555   -8924.2488   -1757.5824 
  968400    276.22667    -8872.362    41.168961    -8913.531    20668.435 
  968600    283.47243   -8870.5337    42.248873   -8912.7826   -26355.389 
  968800    256.58681   -8885.3932    38.241828    -8923.635    -21705.02 
  969000    284.66478   -8875.2035    42.426581   -8917.6301     39340.79 
  969200    293.87891   -8870.7544     43.79986   -8914.5543   -29634.261 
  969400    338.30671   -8877.8968    50.421402   -8928.3182   -2890.2576 
  969600    296.09604    -8888.643    44.130303   -8932.7733   -16680.312 
  969800    313.22667   -8871.8425     46.68346    -8918.526    31677.984 
  970000    319.88367   -8868.7302    47.675623   -8916.4058    26648.919 
  970200    351.35937    -8868.045    52.366777   -8920.4118   -32349.318 
  970400    228.06471   -8880.2911    33.990879   -8914.2819   -17777.852 
  970600    390.29501   -8865.5659    58.169764   -8923.7357    36006.717 
  970800    322.47035    -8871.315    48.061143   -8919.3761    23264.508 
  971000     274.6874   -8881.5257    40.939548   -8922.4652   -13388.347 
  971200    336.51562   -8865.6263    50.154457   -8915.7808    12000.413 
  971400    305.53943   -8873.4965     45.53775   -8919.0342    96.406213 
  971600    272.73525   -8877.0153    40.648599   -8917.6639   -14367.679 
  971800    289.85134   -8871.1705     43.19959   -8914.3701    33509.654 
  972000    251.80687   -8877.3044    37.529423   -8914.8338    27298.578 
  972200    300.57562   -8881.0393    44.797942   -8925.8373   -18532.817 
  972400    263.15681   -8877.3278    39.221023   -8916.5488       -32362 
  972600    350.89243   -8868.5264    52.297185   -8920.8236   -25991.167 
  972800    298.52599   -8877.6512    44.492464   -8922.1436    16361.209 
  973000    314.08297    -8874.903    46.811083   -8921.7141    54983.387 
  973200    306.03803   -8862.7943    45.612061   -8908.4063   -38064.993 
  973400    317.29475   -8872.0548    47.289769   -8919.3445   -874.77328 
  973600    303.50075   -8872.6694    45.233904   -8917.9033    27021.739 
  973800    349.86268   -8872.9205     52.14371   -8925.0642     64975.28 
  974000    265.22665    -8879.795    39.529513   -8919.3245   -33826.365 
  974200    323.54652   -8864.5665    48.221536   -8912.7881   -17477.107 
  974400     239.4283   -8882.7924    35.684514    -8918.477    61908.996 
  974600    281.64795   -8874.0236    41.976952   -8916.0006   -16647.309 
  974800    324.84673   -8875.2548     48.41532   -8923.6701    4116.8021 
  975000    236.70874    -8882.749     35.27919   -8918.0282   -2124.9595 
  975200    323.94016   -8869.3274    48.280205   -8917.6076   -5523.1045 
  975400    244.54277   -8873.6554    36.446778   -8910.1022   -12893.039 
  975600    413.62471   -8855.2612    61.646834   -8916.9081    38391.599 
  975800    278.24811   -8874.7028    41.470239   -8916.1731   -14502.399 
  976000    282.76303   -8872.8185    42.143144   -8914.9617   -9303.9811 
  976200    345.47218   -8866.1671    51.489348   -8917.6564    40764.036 
  976400    251.96324   -8878.7421    37.552727   -8916.2948    22113.726 
  976600    360.57625   -8869.0751    53.740466   -8922.8156    35761.135 
  976800    270.46409   -8882.7678    40.310104   -8923.0779    31374.461 
  977000    360.02394   -8861.8871    53.658149   -8915.5453   -23950.491 
  977200    236.10553   -8880.7751    35.189287   -8915.9644   -5812.4255 
  977400    285.46901   -8872.9683    42.546444   -8915.5148    7620.4313 
  977600    302.45203   -8869.2845    45.077602   -8914.3621   -9923.5923 
  977800    293.00423   -8875.8607    43.669498   -8919.5302   -35853.619 
  978000    343.74062    -8873.937    51.231274   -8925.1683    6220.7664 
  978200          298   -8871.0592     44.41407   -8915.4732    26133.798 
  978400    305.62634   -8881.4897    45.550704   -8927.0404   -23786.012 
  978600    328.91966   -8862.6104    49.022352   -8911.6327    29454.343 
  978800    289.16746   -8872.7705    43.097664   -8915.8682    28576.884 
  979000    255.47241   -8875.8369    38.075736   -8913.9126   -15185.897 
  979200    265.20843   -8888.4678    39.526798   -8927.9946    48285.445 
  979400    288.16537   -8872.8068    42.948312   -8915.7551   -59749.491 
  979600    273.89441   -8874.9853    40.821361   -8915.8066    44435.031 
  979800    283.43286   -8880.9667    42.242976   -8923.2097    8882.3686 
  980000    299.65866    -8868.244    44.661278   -8912.9053    15173.771 
  980200    314.76385   -8871.1214    46.912563   -8918.0339   -4389.2895 
  980400    318.26297   -8879.4058    47.434073   -8926.8398   -22749.539 
  980600    336.01927   -8862.4253     50.08048   -8912.5058   -16650.194 
  980800    291.99018   -8878.0584    43.518363   -8921.5768   -200.03465 
  981000    395.79557    -8866.006     58.98957   -8924.9956    13663.037 
  981200    232.62039   -8877.6827     34.66986   -8912.3526   -23488.505 
  981400    296.81363   -8880.3862    44.237252   -8924.6234    16721.582 
  981600    337.94815   -8863.6523    50.367961   -8914.0202   -21475.278 
  981800    315.15177   -8869.0063    46.970378   -8915.9767    48943.829 
  982000    267.84836   -8880.0946    39.920254   -8920.0149   -15904.375 
  982200    320.47644   -8877.6392     47.76397   -8925.4031    10919.827 
  982400    328.54249   -8864.0328    48.966138    -8912.999   -4405.7597 
  982600      312.671   -8880.7139    46.600643   -8927.3145   -24962.219 
  982800    349.75587   -8875.4381    52.127791   -8927.5658    19222.777 
  983000    293.74093   -8872.1561    43.779295   -8915.9354   -19806.198 
  983200     275.7685   -8879.9204    41.100676   -8921.0211   -11877.426 
  983400    317.57808   -8866.0834    47.331996   -8913.4154    7565.3438 
  983600    293.92381   -8870.0092    43.806553   -8913.8158   -1991.6714 
  983800     290.9338   -8873.5513    43.360919   -8916.9122    9088.0667 
  984000    327.20782   -8867.7198    48.767218   -8916.4871     8382.677 
  984200    280.77835   -8868.1412    41.847346   -8909.9885    10039.817 
  984400    283.06459   -8880.5009    42.188088    -8922.689    30618.631 
  984600    339.15779   -8859.5323    50.548247   -8910.0805   -40279.032 
  984800     308.1689   -8868.3402    45.929647   -8914.2699    28785.179 
  985000    336.08949   -8876.6987    50.090946   -8926.7896    26998.906 
  985200    200.10819   -8889.9392    29.824225   -8919.7634   -27752.511 
  985400    261.43585   -8882.9468     38.96453   -8921.9114   -25508.371 
  985600     230.7603   -8873.7818    34.392631   -8908.1744    24818.264 
  985800    373.76094   -8863.9495    55.705518    -8919.655    -11414.03 
  986000    261.38241   -8883.4645    38.956565   -8922.4211    6525.6208 
  986200    364.20918   -8876.1166    54.281919   -8930.3985    7972.5066 
  986400    297.72656   -8866.7737    44.373316    -8911.147   -7281.7236 
  986600     313.0242   -8875.2658    46.653284   -8921.9191    5986.2643 
  986800     254.3581   -8880.7808    37.909659   -8918.6905   -33690.678 
  987000    353.89767   -8864.9111    52.745086   -8917.6562   -11194.897 
  987200     296.9205   -8879.4247    44.253181   -8923.6779   -28081.376 
  987400    332.24027   -8871.1932    49.517257   -8920.7104    10763.243 
  987600    364.59174    -8860.101    54.338935   -8914.4399   -29343.644 
  987800     326.1139    -8875.407    48.604179   -8924.0112   -744.48746 
  988000    269.01366   -8879.8911    40.093931   -8919.9851   -12247.329 
  988200    357.29697   -8865.1517     53.25172   -8918.4034   -6959.1564 
  988400    254.14412   -8877.1318    37.877767   -8915.0096   -1833.7901 
  988600    313.09704   -8871.5927    46.664141   -8918.2568    20815.199 
  988800    326.90805   -8857.5695    48.722541    -8906.292    9359.7877 
  989000    279.70499   -8876.1817    41.687372   -8917.8691    15063.803 
  989200    293.18858   -8876.3482    43.696973   -8920.0451   -15005.811 
  989400    386.85193   -8859.3187    57.656607   -8916.9753   -4947.8011 
  989600    295.99218   -8877.6698    44.114823   -8921.7846   -1682.7609 
  989800    348.10972    -8873.551    51.882447   -8925.4335   -6696.8747 
  990000    323.06455   -8864.5564    48.149703   -8912.7061    22060.215 
  990200    318.20612   -8872.5232    47.425599   -8919.9488    -7602.096 
  990400    304.92182   -8878.0311    45.445701   -8923.4768    29552.571 
  990600    381.17656   -8859.7075    56.810747   -8916.5183    9937.7328 
  990800    311.48206   -8879.5667    46.423442   -8925.9902    3300.0231 
  991000      286.292   -8868.3423    42.669103   -8911.0114    21553.854 
  991200    309.40178   -8875.3038    46.113396   -8921.4172     8715.429 
  991400     260.2175    -8880.795    38.782948   -8919.5779   -29406.356 
  991600    290.77235   -8871.6314    43.336857   -8914.9683    44097.989 
  991800    263.30662    -8881.394    39.243352   -8920.6374   -2049.0077 
  992000    304.94543   -8883.6742    45.449221   -8929.1234    859.68584 
  992200    251.82412   -8873.7315    37.531993   -8911.2635    839.25349 
  992400    350.11051   -8872.8048    52.180647   -8924.9854   -10838.367 
  992600    221.95082   -8890.7313    33.079661    -8923.811   -41013.115 
  992800    260.91368   -8875.1511    38.886707   -8914.0378   -19142.405 
  993000    295.55399   -8867.0282    44.049515   -8911.0777    1127.5676 
  993200    293.46328   -8884.2244    43.737914   -8927.9623   -31298.494 
  993400    297.06379   -8873.1404    44.274537    -8917.415    -16258.31 
  993600    300.17088   -8871.1863    44.737618   -8915.9239   -29982.158 
  993800     271.3156    -8883.983    40.437013     -8924.42   -5816.4382 
  994000    290.55951   -8887.7996    43.305136   -8931.1047    22484.964 
  994200    357.63077   -8868.9702    53.301469   -8922.2716    12058.144 
  994400    281.80887   -8874.7864    42.000935   -8916.7873   -3452.7577 
  994600    269.20518   -8877.6289    40.122476   -8917.7514    -23063.91 
  994800    297.33526   -8867.6775    44.314996   -8911.9925    1864.5301 
  995000    268.21231   -8880.0296    39.974498   -8920.0041    -606.9992 
  995200    293.06126    -8878.382    43.677997     -8922.06    9599.3742 
  995400    353.50364   -8865.2843     52.68636   -8917.9706   -5278.3294 
  995600    298.91027   -8880.3005    44.549737   -8924.8502   -25527.544 
  995800    295.50323    -8876.599     44.04195   -8920.6409    20092.712 
  996000    314.22052   -8868.2474    46.831584    -8915.079    4966.1454 
  996200    290.51954    -8876.972    43.299178   -8920.2711   -2024.5497 
  996400    256.38482   -8882.0142    38.211722   -8920.2259   -4580.1108 
  996600    353.73783   -8867.6535    52.721264   -8920.3747    26432.124 
  996800     257.0189   -8880.7106    38.306226   -8919.0168   -22648.069 
  997000    276.59228   -8879.4271    41.223452   -8920.6505   -9534.0239 
  997200    300.75479   -8873.7974    44.824646    -8918.622   -12288.631 
  997400    271.84018   -8875.5101    40.515197   -8916.0253   -12764.041 
  997600    318.65689   -8865.6129    47.492783   -8913.1056   -17529.474 
  997800    294.15562   -8875.7311    43.841101   -8919.5722   -15911.478 
  998000    267.47841   -8878.6418    39.865117    -8918.507   -2717.0584 
  998200    338.31643   -8861.4485    50.422851   -8911.8714   -23926.075 
  998400    315.51593   -8870.0711    47.024653   -8917.0958   -11098.561 
  998600    275.21618   -8878.4889    41.018357   -8919.5073   -5004.2782 
  998800    345.49935   -8863.6789    51.493396   -8915.1723    21546.368 
  999000    294.48097   -8873.7485    43.889591   -8917.6381   -26491.373 
  999200    292.96623   -8879.1392    43.663834    -8922.803   -17576.892 
  999400    300.67065   -8875.4761    44.812104   -8920.2882   -487.05951 
  999600    309.58664   -8865.6861    46.140949   -8911.8271   -5725.2366 
  999800    264.27841   -8878.7436    39.388186   -8918.1318   -29568.912 
 1000000    336.84446   -8875.4541    50.203468   -8925.6576    8921.6835 
Loop time of 4366.76 on 8 procs for 1000000 steps with 51 atoms

Performance: 4.946 ns/day, 4.852 hours/ns, 229.003 timesteps/s
99.1% CPU use with 8 MPI tasks x no OpenMP threads

MPI task timing breakdown:
Section |  min time  |  avg time  |  max time  |%varavg| %total
---------------------------------------------------------------
Pair    | 3782.8     | 3841.7     | 3876       |  50.7 | 87.98
Neigh   | 4.3711     | 4.4773     | 4.6852     |   4.6 |  0.10
Comm    | 120.41     | 155.27     | 214.35     | 253.4 |  3.56
Output  | 0.095712   | 0.11312    | 0.22819    |  12.9 |  0.00
Modify  | 360.66     | 361.53     | 362.53     |   2.9 |  8.28
Other   |            | 3.682      |            |       |  0.08

Nlocal:    6.375 ave 10 max 4 min
Histogram: 3 1 0 0 0 0 3 0 0 1
Nghost:    966.25 ave 996 max 946 min
Histogram: 1 1 1 2 0 1 1 0 0 1
Neighs:    1806.38 ave 2808 max 1117 min
Histogram: 3 1 0 0 0 0 2 1 0 1

Total # of neighbors = 14451
Ave neighs/atom = 283.353
Neighbor list builds = 1877
Dangerous builds = 0

Please see the log.cite file for references relevant to this simulation

Total wall time: 1:12:55
