ITEM: TIMESTEP
0
ITEM: NUMBER OF ATOMS
99
ITEM: BOX BOUNDS pp pp pp
0.0000000000000000e+00 1.6524999999999999e+01
0.0000000000000000e+00 1.6526000000000000e+01
0.0000000000000000e+00 1.6526000000000000e+01
ITEM: ATOMS id type x y z 
1 1 1.813 1.813 1.813 
10 1 5.821 5.821 5.821 
17 1 3.388 3.388 3.388 
26 1 4.246 4.246 4.246 
33 1 0.284 2 2 
41 1 2 0.284 2 
49 1 2 2 0.283 
58 1 7.351 5.634 5.634 
66 1 5.634 7.351 5.634 
74 1 5.634 5.634 7.351 
81 1 2.689 2.689 2.689 
90 1 4.945 4.945 4.945 
4 1 1.813 1.813 14.084 
11 1 5.821 5.821 10.076 
20 1 3.388 3.388 12.509 
27 1 4.246 4.246 11.651 
36 1 0.284 2 13.897 
46 1 2 0.284 13.897 
56 1 2 2 15.614 
59 1 7.351 5.634 10.263 
69 1 5.634 7.351 10.263 
79 1 5.634 5.634 8.546 
84 1 2.689 2.689 13.208 
91 1 4.945 4.945 10.952 
97 2 2.832 3.021 15.937 
98 2 4.261 3.042 16.441 
99 3 4.358 3.979 16.152 
6 1 1.813 14.084 1.813 
13 1 5.821 10.076 5.821 
22 1 3.388 12.509 3.388 
29 1 4.246 11.651 4.246 
38 1 0.284 13.897 2 
48 1 2 15.614 2 
52 1 2 13.897 0.283 
61 1 7.351 10.263 5.634 
71 1 5.634 8.546 5.634 
75 1 5.634 10.263 7.351 
86 1 2.689 13.208 2.689 
93 1 4.945 10.952 4.945 
7 1 1.813 14.084 14.084 
16 1 5.821 10.076 10.076 
23 1 3.388 12.509 12.509 
32 1 4.246 11.651 11.651 
39 1 0.284 13.897 13.897 
43 1 2 15.614 13.897 
53 1 2 13.897 15.614 
64 1 7.351 10.263 10.263 
68 1 5.634 8.547 10.263 
78 1 5.634 10.263 8.546 
87 1 2.689 13.208 13.208 
96 1 4.945 10.952 10.952 
8 1 14.084 1.813 1.813 
15 1 10.076 5.821 5.821 
24 1 12.509 3.388 3.388 
31 1 11.651 4.246 4.246 
40 1 15.613 2 2 
44 1 13.897 0.284 2 
54 1 13.897 2 0.283 
63 1 8.547 5.634 5.634 
67 1 10.263 7.351 5.634 
77 1 10.263 5.634 7.351 
88 1 13.208 2.689 2.689 
95 1 10.952 4.945 4.945 
5 1 14.084 1.813 14.084 
14 1 10.076 5.821 10.076 
21 1 12.509 3.388 12.509 
30 1 11.651 4.246 11.651 
37 1 15.613 2 13.897 
47 1 13.897 0.284 13.897 
51 1 13.897 2 15.614 
62 1 8.546 5.634 10.263 
72 1 10.263 7.351 10.263 
76 1 10.263 5.634 8.546 
85 1 13.208 2.689 13.208 
94 1 10.952 4.945 10.952 
3 1 14.084 14.084 1.813 
12 1 10.076 10.076 5.821 
19 1 12.509 12.509 3.388 
28 1 11.651 11.651 4.246 
35 1 15.613 13.897 2 
45 1 13.897 15.614 2 
55 1 13.897 13.897 0.283 
60 1 8.547 10.263 5.634 
70 1 10.263 8.547 5.634 
80 1 10.263 10.263 7.351 
83 1 13.208 13.208 2.689 
92 1 10.952 10.952 4.945 
2 1 14.084 14.084 14.084 
9 1 10.076 10.076 10.076 
18 1 12.509 12.509 12.509 
25 1 11.651 11.651 11.651 
34 1 15.613 13.897 13.897 
42 1 13.897 15.614 13.897 
50 1 13.897 13.897 15.614 
57 1 8.546 10.263 10.263 
65 1 10.263 8.546 10.263 
73 1 10.263 10.263 8.547 
82 1 13.208 13.208 13.208 
89 1 10.952 10.952 10.952 
ITEM: TIMESTEP
10
ITEM: NUMBER OF ATOMS
99
ITEM: BOX BOUNDS pp pp pp
0.0000000000000000e+00 1.6524999999999999e+01
0.0000000000000000e+00 1.6526000000000000e+01
0.0000000000000000e+00 1.6526000000000000e+01
ITEM: ATOMS id type x y z 
1 1 1.78367 1.78062 1.84626 
10 1 5.82498 5.8247 5.82502 
17 1 3.39797 3.39933 3.39651 
26 1 4.25708 4.25715 4.25682 
33 1 0.256391 2.00599 2.01698 
41 1 2.00692 0.253851 2.01804 
49 1 1.90115 1.89458 0.347167 
58 1 7.35381 5.63423 5.63424 
66 1 5.63423 7.3544 5.63423 
74 1 5.63433 5.6343 7.35538 
81 1 2.70074 2.69802 2.69781 
90 1 4.95448 4.95441 4.95459 
4 1 1.78056 1.77929 13.9873 
11 1 5.82047 5.82068 10.0778 
20 1 3.38586 3.38543 12.5192 
27 1 4.24155 4.24173 11.6567 
36 1 0.293563 1.99091 13.8832 
46 1 1.99114 0.292786 13.8835 
56 1 2.14351 2.15919 15.6709 
59 1 7.34927 5.63526 10.2618 
69 1 5.63526 7.34888 10.2618 
79 1 5.63496 5.63499 8.55086 
84 1 2.67119 2.67033 13.1921 
91 1 4.94133 4.94154 10.9556 
97 2 2.88731 3.07806 15.7956 
98 2 4.25929 3.05142 16.4348 
99 3 4.36954 3.98222 16.1592 
6 1 1.81159 14.0644 1.81119 
13 1 5.82152 10.0769 5.82123 
22 1 3.39143 12.5066 3.39162 
29 1 4.24701 11.6496 4.24695 
38 1 0.279502 13.8948 2.00026 
48 1 2.00548 15.5855 2.00552 
52 1 2.00023 13.8947 0.278485 
61 1 7.35104 10.2621 5.63488 
71 1 5.63464 8.54868 5.63462 
75 1 5.63488 10.2622 7.35145 
86 1 2.69105 13.2042 2.69087 
93 1 4.94652 10.9504 4.94631 
7 1 1.81407 14.0885 14.0821 
16 1 5.82122 10.0757 10.0757 
23 1 3.38853 12.5077 12.5085 
32 1 4.24645 11.6511 11.6505 
39 1 0.283406 13.8979 13.8974 
43 1 2.00145 15.6141 13.9071 
53 1 2.00007 13.898 15.6102 
64 1 7.35061 10.2621 10.262 
68 1 5.63512 8.54653 10.2618 
78 1 5.635 10.262 8.54665 
87 1 2.69015 13.2089 13.2069 
96 1 4.94526 10.9505 10.9517 
8 1 14.0646 1.81126 1.81127 
15 1 10.0769 5.82154 5.82131 
24 1 12.5068 3.3913 3.39144 
31 1 11.6494 4.24702 4.24695 
40 1 15.5869 2.00569 2.00527 
44 1 13.8948 0.279411 2.00015 
54 1 13.8946 2.00018 0.278585 
63 1 8.54952 5.63465 5.63465 
67 1 10.2622 7.35115 5.63491 
77 1 10.2622 5.6349 7.35153 
88 1 13.2041 2.69091 2.69091 
95 1 10.9509 4.94654 4.94631 
5 1 14.0884 1.81346 14.0818 
14 1 10.0753 5.82104 10.076 
21 1 12.508 3.38848 12.5079 
30 1 11.6506 4.24632 11.6507 
37 1 15.6141 2.00158 13.907 
47 1 13.898 0.283265 13.8975 
51 1 13.8979 2 15.61 
62 1 8.54573 5.63509 10.2619 
72 1 10.2621 7.35061 10.262 
76 1 10.262 5.63493 8.54658 
85 1 13.2082 2.69028 13.208 
94 1 10.9511 4.94567 10.9513 
3 1 14.0821 14.0822 1.81242 
12 1 10.0759 10.076 5.8214 
19 1 12.5088 12.5081 3.38827 
28 1 11.6508 11.6508 4.24628 
35 1 15.6091 13.8977 1.99998 
45 1 13.8977 15.6098 1.9999 
55 1 13.8976 13.8977 0.281931 
60 1 8.54716 10.2621 5.63503 
70 1 10.2621 8.5471 5.635 
80 1 10.262 10.2621 7.35046 
83 1 13.2067 13.2082 2.68974 
92 1 10.9519 10.9519 4.94536 
2 1 14.0833 14.084 14.084 
9 1 10.0758 10.0757 10.076 
18 1 12.5087 12.5088 12.5086 
25 1 11.651 11.6508 11.6511 
34 1 15.6121 13.8976 13.8978 
42 1 13.8976 15.6128 13.8979 
50 1 13.8978 13.8978 15.6137 
57 1 8.54627 10.262 10.2621 
65 1 10.262 8.54636 10.2621 
73 1 10.262 10.262 8.54705 
82 1 13.2079 13.2082 13.2081 
89 1 10.9517 10.9517 10.9516 
ITEM: TIMESTEP
20
ITEM: NUMBER OF ATOMS
99
ITEM: BOX BOUNDS pp pp pp
0.0000000000000000e+00 1.6524999999999999e+01
0.0000000000000000e+00 1.6526000000000000e+01
0.0000000000000000e+00 1.6526000000000000e+01
ITEM: ATOMS id type x y z 
1 1 1.78075 1.77741 1.83583 
10 1 5.82655 5.82633 5.82811 
17 1 3.39728 3.39735 3.39154 
26 1 4.25515 4.25566 4.25433 
33 1 0.251527 2.00393 2.02224 
41 1 2.00515 0.248979 2.02332 
49 1 1.92437 1.92067 0.345361 
58 1 7.35418 5.63458 5.63479 
66 1 5.63459 7.35427 5.63475 
74 1 5.63507 5.63504 7.35734 
81 1 2.69682 2.6954 2.70069 
90 1 4.95363 4.95335 4.9538 
4 1 1.7855 1.78401 13.9973 
11 1 5.81835 5.81856 10.0812 
20 1 3.38408 3.38354 12.5169 
27 1 4.24076 4.24086 11.6601 
36 1 0.293491 1.99005 13.8827 
46 1 1.9904 0.292693 13.8833 
56 1 2.16081 2.18322 15.6681 
59 1 7.3486 5.6354 10.262 
69 1 5.63538 7.3487 10.262 
79 1 5.63444 5.63448 8.55275 
84 1 2.66666 2.66564 13.1829 
91 1 4.93964 4.93979 10.9593 
97 2 2.86933 3.06263 15.7833 
98 2 4.27095 3.05994 16.4359 
99 3 4.36989 3.97683 16.1616 
6 1 1.81124 14.0604 1.80998 
13 1 5.82199 10.0778 5.82182 
22 1 3.39249 12.5065 3.39268 
29 1 4.24792 11.6488 4.24765 
38 1 0.278893 13.892 2.00032 
48 1 2.00839 15.5819 2.00848 
52 1 2.00023 13.8916 0.277837 
61 1 7.35194 10.2625 5.63479 
71 1 5.634 8.54913 5.63389 
75 1 5.63488 10.2626 7.35227 
86 1 2.6907 13.1998 2.69035 
93 1 4.94747 10.9506 4.94773 
7 1 1.81443 14.0887 14.0812 
16 1 5.8213 10.075 10.0764 
23 1 3.38881 12.5079 12.5084 
32 1 4.24661 11.6505 11.6504 
39 1 0.283299 13.8986 13.8971 
43 1 1.99952 15.6163 13.9056 
53 1 2.00088 13.8981 15.6093 
64 1 7.35082 10.2618 10.262 
68 1 5.63543 8.54471 10.2615 
78 1 5.6349 10.2619 8.54745 
87 1 2.69062 13.209 13.2059 
96 1 4.94517 10.9506 10.9518 
8 1 14.0612 1.81108 1.81001 
15 1 10.0781 5.82196 5.8221 
24 1 12.5066 3.39223 3.39237 
31 1 11.649 4.2478 4.24757 
40 1 15.5837 2.00828 2.00788 
44 1 13.8922 0.278964 2.00014 
54 1 13.8918 2.00005 0.278093 
63 1 8.54942 5.63402 5.6339 
67 1 10.2626 7.35218 5.6348 
77 1 10.2625 5.63495 7.3522 
88 1 13.2 2.69044 2.69015 
95 1 10.9509 4.94735 4.94764 
5 1 14.0884 1.81431 14.0816 
14 1 10.0747 5.82132 10.0766 
21 1 12.5079 3.38888 12.5086 
30 1 11.6503 4.24654 11.6505 
37 1 15.6162 1.99954 13.9054 
47 1 13.8987 0.28302 13.8972 
51 1 13.8981 2.00069 15.6094 
62 1 8.54445 5.63538 10.2615 
72 1 10.2618 7.35071 10.262 
76 1 10.2619 5.63487 8.54741 
85 1 13.2087 2.69031 13.206 
94 1 10.9511 4.94536 10.9514 
3 1 14.0804 14.0812 1.81241 
12 1 10.0765 10.0766 5.8214 
19 1 12.5079 12.508 3.38945 
28 1 11.6505 11.6508 4.24654 
35 1 15.6089 13.8971 2.00071 
45 1 13.8971 15.6099 2.00053 
55 1 13.8971 13.8972 0.281718 
60 1 8.54728 10.2622 5.6349 
70 1 10.2621 8.54742 5.63496 
80 1 10.2621 10.2621 7.35141 
83 1 13.2061 13.2067 2.68926 
92 1 10.9521 10.951 4.94545 
2 1 14.0831 14.0838 14.0832 
9 1 10.0758 10.0758 10.0764 
18 1 12.5086 12.5085 12.5086 
25 1 11.6508 11.6507 11.6512 
34 1 15.6127 13.8974 13.8978 
42 1 13.8974 15.6134 13.8979 
50 1 13.8976 13.8977 15.6127 
57 1 8.54625 10.2619 10.2619 
65 1 10.2619 8.54628 10.2619 
73 1 10.2619 10.2619 8.54695 
82 1 13.2072 13.2082 13.2073 
89 1 10.9522 10.9519 10.9515 
ITEM: TIMESTEP
30
ITEM: NUMBER OF ATOMS
99
ITEM: BOX BOUNDS pp pp pp
0.0000000000000000e+00 1.6524999999999999e+01
0.0000000000000000e+00 1.6526000000000000e+01
0.0000000000000000e+00 1.6526000000000000e+01
ITEM: ATOMS id type x y z 
1 1 1.77856 1.77608 1.82942 
10 1 5.82642 5.82626 5.82966 
17 1 3.39518 3.39491 3.38816 
26 1 4.25409 4.25435 4.25074 
33 1 0.248715 2.00132 2.02433 
41 1 2.00302 0.244247 2.02538 
49 1 1.94484 1.94572 0.347141 
58 1 7.35399 5.63519 5.63576 
66 1 5.63526 7.35322 5.63575 
74 1 5.63631 5.63624 7.35845 
81 1 2.69243 2.69138 2.7011 
90 1 4.95147 4.95168 4.95333 
4 1 1.78737 1.78593 14.0037 
11 1 5.81644 5.81667 10.0839 
20 1 3.37933 3.37857 12.5103 
27 1 4.23935 4.23944 11.6637 
36 1 0.29467 1.98881 13.8837 
46 1 1.98943 0.293828 13.8847 
56 1 2.17045 2.19684 15.6641 
59 1 7.34712 5.63523 10.2625 
69 1 5.63518 7.34741 10.2625 
79 1 5.63384 5.63391 8.55474 
84 1 2.66338 2.66221 13.1799 
91 1 4.93949 4.93944 10.9627 
97 2 2.86647 3.06742 15.7684 
98 2 4.28599 3.06267 16.4401 
99 3 4.36957 3.97732 16.1617 
6 1 1.81089 14.0561 1.80907 
13 1 5.82263 10.0777 5.82299 
22 1 3.39328 12.5054 3.39347 
29 1 4.24886 11.649 4.24896 
38 1 0.278279 13.889 2.00026 
48 1 2.00979 15.5799 2.01313 
52 1 2.00042 13.8885 0.27755 
61 1 7.35245 10.263 5.63484 
71 1 5.63372 8.54888 5.63361 
75 1 5.63493 10.2629 7.35302 
86 1 2.68986 13.1954 2.68915 
93 1 4.94893 10.95 4.94871 
7 1 1.81445 14.09 14.0802 
16 1 5.82146 10.0735 10.0777 
23 1 3.38866 12.5076 12.5087 
32 1 4.24687 11.6496 11.6514 
39 1 0.283403 13.8993 13.897 
43 1 1.99716 15.6172 13.9039 
53 1 2.00136 13.8977 15.6071 
64 1 7.35044 10.2615 10.2621 
68 1 5.63593 8.54315 10.2612 
78 1 5.63485 10.2617 8.54887 
87 1 2.69133 13.2108 13.2048 
96 1 4.94459 10.9513 10.9502 
8 1 14.0578 1.81097 1.8092 
15 1 10.0778 5.82266 5.82283 
24 1 12.5057 3.39283 3.39296 
31 1 11.6492 4.24873 4.24846 
40 1 15.5813 2.00927 2.01226 
44 1 13.8895 0.278507 2.00002 
54 1 13.889 2.00016 0.277957 
63 1 8.5487 5.63378 5.63364 
67 1 10.263 7.35229 5.63487 
77 1 10.2629 5.635 7.35287 
88 1 13.1959 2.68958 2.68888 
95 1 10.9506 4.94836 4.94904 
5 1 14.09 1.81443 14.0805 
14 1 10.0737 5.82124 10.0772 
21 1 12.5078 3.38863 12.5086 
30 1 11.6503 4.24653 11.6504 
37 1 15.6172 1.99702 13.9035 
47 1 13.8994 0.283373 13.8972 
51 1 13.8977 2.0011 15.6077 
62 1 8.54337 5.63592 10.2612 
72 1 10.2614 7.35061 10.262 
76 1 10.2617 5.63481 8.54875 
85 1 13.2102 2.69097 13.2052 
94 1 10.9502 4.94527 10.9521 
3 1 14.0798 14.0804 1.81213 
12 1 10.0769 10.0769 5.82174 
19 1 12.5077 12.5074 3.38952 
28 1 11.6506 11.6503 4.24625 
35 1 15.6082 13.8958 2.00101 
45 1 13.8958 15.6096 2.00076 
55 1 13.8965 13.8967 0.281693 
60 1 8.54756 10.2625 5.63464 
70 1 10.2625 8.54766 5.63468 
80 1 10.2622 10.2622 7.3518 
83 1 13.2053 13.2069 2.68929 
92 1 10.9519 10.9517 4.94674 
2 1 14.0834 14.0839 14.0826 
9 1 10.0759 10.0762 10.0764 
18 1 12.5086 12.5087 12.5083 
25 1 11.6508 11.6515 11.6507 
34 1 15.6133 13.8977 13.8976 
42 1 13.8976 15.6142 13.8978 
50 1 13.8975 13.8977 15.6112 
57 1 8.54658 10.2619 10.2619 
65 1 10.2618 8.5464 10.2618 
73 1 10.2619 10.2619 8.54716 
82 1 13.2071 13.2078 13.2078 
89 1 10.9523 10.9505 10.9526 
ITEM: TIMESTEP
40
ITEM: NUMBER OF ATOMS
99
ITEM: BOX BOUNDS pp pp pp
0.0000000000000000e+00 1.6524999999999999e+01
0.0000000000000000e+00 1.6526000000000000e+01
0.0000000000000000e+00 1.6526000000000000e+01
ITEM: ATOMS id type x y z 
1 1 1.77619 1.76962 1.81884 
10 1 5.8214 5.82131 5.83203 
17 1 3.38762 3.38868 3.38407 
26 1 4.24923 4.25003 4.24495 
33 1 0.24284 1.99168 2.02452 
41 1 1.99412 0.239754 2.02453 
49 1 1.98606 1.99878 0.352431 
58 1 7.34966 5.6368 5.63928 
66 1 5.63669 7.34921 5.63921 
74 1 5.63888 5.63899 7.36169 
81 1 2.68439 2.68099 2.70095 
90 1 4.94867 4.94716 4.94301 
4 1 1.78956 1.78803 14.019 
11 1 5.81282 5.81096 10.0894 
20 1 3.3651 3.3642 12.4908 
27 1 4.23732 4.23407 11.6672 
36 1 0.296788 1.98448 13.8873 
46 1 1.98563 0.295913 13.8899 
56 1 2.19669 2.23388 15.6625 
59 1 7.34342 5.63376 10.265 
69 1 5.63401 7.34338 10.2651 
79 1 5.63312 5.6329 8.55787 
84 1 2.65685 2.65287 13.1746 
91 1 4.93398 4.94015 10.9719 
97 2 2.8788 3.11249 15.7181 
98 2 4.33737 3.06821 16.4556 
99 3 4.3727 3.98558 16.1616 
6 1 1.80955 14.0483 1.80772 
13 1 5.8237 10.0743 5.82656 
22 1 3.39272 12.4989 3.39295 
29 1 4.25222 11.649 4.2531 
38 1 0.277851 13.8804 1.99904 
48 1 2.00823 15.572 2.02357 
52 1 2.0005 13.881 0.275883 
61 1 7.35326 10.2634 5.63533 
71 1 5.63507 8.54469 5.63518 
75 1 5.63568 10.2629 7.35517 
86 1 2.68888 13.1864 2.68671 
93 1 4.95226 10.9503 4.95142 
7 1 1.81526 14.0941 14.0767 
16 1 5.82025 10.0711 10.0773 
23 1 3.39059 12.5115 12.506 
32 1 4.24496 11.6505 11.6475 
39 1 0.283871 13.9015 13.8958 
43 1 1.99253 15.6196 13.9007 
53 1 2.002 13.8955 15.606 
64 1 7.35019 10.2602 10.2625 
68 1 5.63709 8.53914 10.2611 
78 1 5.63465 10.2613 8.55066 
87 1 2.69054 13.2079 13.2062 
96 1 4.94747 10.9466 10.9573 
8 1 14.0504 1.81012 1.80766 
15 1 10.0755 5.82366 5.82646 
24 1 12.4994 3.39278 3.39208 
31 1 11.6511 4.2519 4.254 
40 1 15.5747 2.00702 2.02287 
44 1 13.8818 0.278491 1.99887 
54 1 13.8822 2.00037 0.275821 
63 1 8.5451 5.63508 5.63533 
67 1 10.2636 7.35276 5.63539 
77 1 10.2633 5.63549 7.35603 
88 1 13.1878 2.68799 2.68755 
95 1 10.9476 4.95121 4.94835 
5 1 14.0932 1.81506 14.0776 
14 1 10.0698 5.82169 10.0802 
21 1 12.5112 3.39001 12.506 
30 1 11.648 4.24747 11.6529 
37 1 15.6197 1.99195 13.8993 
47 1 13.9017 0.284057 13.8962 
51 1 13.8958 2.00162 15.6062 
62 1 8.53927 5.63724 10.2613 
72 1 10.2598 7.3499 10.2625 
76 1 10.2611 5.63484 8.55154 
85 1 13.2084 2.69044 13.206 
94 1 10.9513 4.94351 10.949 
3 1 14.078 14.0811 1.81084 
12 1 10.078 10.0775 5.82341 
19 1 12.5055 12.5087 3.38884 
28 1 11.6517 11.6512 4.24884 
35 1 15.6076 13.891 2.00046 
45 1 13.8906 15.6095 2.00017 
55 1 13.8952 13.896 0.281167 
60 1 8.54841 10.2641 5.63447 
70 1 10.2641 8.54833 5.63449 
80 1 10.2629 10.263 7.35374 
83 1 13.2078 13.2032 2.6883 
92 1 10.9501 10.9507 4.94397 
2 1 14.0828 14.0851 14.0821 
9 1 10.0761 10.0744 10.0786 
18 1 12.5068 12.5093 12.5099 
25 1 11.6516 11.6488 11.653 
34 1 15.6137 13.8987 13.8972 
42 1 13.8984 15.6147 13.8974 
50 1 13.897 13.8973 15.6112 
57 1 8.54584 10.2617 10.2622 
65 1 10.2617 8.54535 10.2619 
73 1 10.2621 10.262 8.54921 
82 1 13.2107 13.2079 13.2047 
89 1 10.9514 10.9552 10.9498 
ITEM: TIMESTEP
50
ITEM: NUMBER OF ATOMS
99
ITEM: BOX BOUNDS pp pp pp
0.0000000000000000e+00 1.6524999999999999e+01
0.0000000000000000e+00 1.6526000000000000e+01
0.0000000000000000e+00 1.6526000000000000e+01
ITEM: ATOMS id type x y z 
1 1 1.77528 1.7708 1.81513 
10 1 5.8192 5.817 5.83089 
17 1 3.38638 3.38596 3.38701 
26 1 4.25059 4.24865 4.24058 
33 1 0.242541 1.98629 2.02035 
41 1 1.98961 0.238913 2.01955 
49 1 1.9829 1.99775 0.347901 
58 1 7.34581 5.63572 5.63996 
66 1 5.63557 7.34731 5.63951 
74 1 5.63717 5.63651 7.36106 
81 1 2.68151 2.68038 2.7015 
90 1 4.94272 4.94496 4.94733 
4 1 1.79148 1.79036 14.0293 
11 1 5.81154 5.81195 10.0897 
20 1 3.36296 3.35982 12.491 
27 1 4.22959 4.23299 11.6634 
36 1 0.297985 1.98269 13.8922 
46 1 1.98398 0.29713 13.8959 
56 1 2.20965 2.25351 15.6662 
59 1 7.34244 5.63317 10.267 
69 1 5.63275 7.34147 10.2662 
79 1 5.63376 5.63423 8.55652 
84 1 2.65084 2.64478 13.1687 
91 1 4.93295 4.93143 10.9673 
97 2 2.87942 3.14192 15.6878 
98 2 4.36686 3.0799 16.4609 
99 3 4.39756 3.99659 16.1708 
6 1 1.80965 14.0463 1.80847 
13 1 5.82343 10.0714 5.82702 
22 1 3.39381 12.4953 3.39309 
29 1 4.25219 11.6474 4.25437 
38 1 0.278773 13.8777 1.99785 
48 1 2.00167 15.5741 2.01807 
52 1 2.00006 13.8811 0.274036 
61 1 7.35284 10.2625 5.63661 
71 1 5.63778 8.5434 5.63943 
75 1 5.63631 10.2612 7.35701 
86 1 2.68825 13.1842 2.68682 
93 1 4.95377 10.9474 4.95118 
7 1 1.81606 14.0926 14.0788 
16 1 5.82007 10.0693 10.0785 
23 1 3.38976 12.5083 12.5077 
32 1 4.24763 11.6479 11.6529 
39 1 0.285986 13.9016 13.8956 
43 1 1.99197 15.6198 13.9046 
53 1 2.00081 13.8931 15.6099 
64 1 7.35104 10.2585 10.2638 
68 1 5.63676 8.53788 10.2633 
78 1 5.63526 10.2598 8.55232 
87 1 2.69155 13.2157 13.2 
96 1 4.94397 10.9496 10.95 
8 1 14.0506 1.81085 1.8086 
15 1 10.0731 5.82357 5.82724 
24 1 12.496 3.39307 3.39213 
31 1 11.6462 4.25256 4.2508 
40 1 15.5758 1.99948 2.01793 
44 1 13.8784 0.279246 1.99766 
54 1 13.8824 2.00006 0.276106 
63 1 8.54286 5.63754 5.63912 
67 1 10.2625 7.35387 5.6363 
77 1 10.2605 5.6367 7.35498 
88 1 13.1872 2.68871 2.68777 
95 1 10.9502 4.95035 4.95525 
5 1 14.0932 1.81591 14.0786 
14 1 10.0686 5.82187 10.0803 
21 1 12.5083 3.38962 12.5082 
30 1 11.6501 4.24702 11.6495 
37 1 15.6202 1.99112 13.9021 
47 1 13.9011 0.284773 13.8957 
51 1 13.8937 2.00084 15.6093 
62 1 8.53839 5.63597 10.2626 
72 1 10.2591 7.34987 10.2629 
76 1 10.2605 5.63492 8.54954 
85 1 13.2149 2.69252 13.202 
94 1 10.9464 4.94398 10.9531 
3 1 14.078 14.0815 1.81093 
12 1 10.0781 10.0781 5.82426 
19 1 12.5078 12.5059 3.38814 
28 1 11.6493 11.6504 4.24513 
35 1 15.6081 13.8879 1.99859 
45 1 13.8885 15.607 1.99824 
55 1 13.8954 13.896 0.279291 
60 1 8.54864 10.264 5.63519 
70 1 10.2643 8.54759 5.63537 
80 1 10.2626 10.262 7.35189 
83 1 13.2049 13.2076 2.68908 
92 1 10.9536 10.9532 4.94971 
2 1 14.0827 14.0851 14.0826 
9 1 10.0766 10.075 10.077 
18 1 12.509 12.5093 12.5077 
25 1 11.6512 11.6531 11.6491 
34 1 15.6133 13.9001 13.896 
42 1 13.8998 15.6136 13.8963 
50 1 13.8967 13.8976 15.6123 
57 1 8.54593 10.2615 10.2623 
65 1 10.2604 8.54655 10.2627 
73 1 10.2621 10.2626 8.54753 
82 1 13.2083 13.2066 13.2086 
89 1 10.9511 10.9491 10.9562 
ITEM: TIMESTEP
60
ITEM: NUMBER OF ATOMS
99
ITEM: BOX BOUNDS pp pp pp
0.0000000000000000e+00 1.6524999999999999e+01
0.0000000000000000e+00 1.6526000000000000e+01
0.0000000000000000e+00 1.6526000000000000e+01
ITEM: ATOMS id type x y z 
1 1 1.77446 1.77236 1.81127 
10 1 5.81446 5.81543 5.83123 
17 1 3.3827 3.38131 3.3872 
26 1 4.24743 4.2454 4.24105 
33 1 0.243363 1.9808 2.01548 
41 1 1.98491 0.239797 2.01372 
49 1 1.98823 2.00467 0.342977 
58 1 7.34437 5.63449 5.64119 
66 1 5.63502 7.34399 5.6413 
74 1 5.63501 5.63438 7.36295 
81 1 2.68008 2.67936 2.70042 
90 1 4.94125 4.94378 4.94557 
4 1 1.7927 1.79121 14.0401 
11 1 5.81054 5.80829 10.0893 
20 1 3.35569 3.35307 12.4876 
27 1 4.2239 4.22637 11.6586 
36 1 0.298005 1.98104 13.8999 
46 1 1.98242 0.297222 13.9051 
56 1 2.2198 2.2727 15.6649 
59 1 7.34035 5.63217 10.2683 
69 1 5.63171 7.34004 10.2682 
79 1 5.63433 5.63462 8.55848 
84 1 2.64961 2.6412 13.1642 
91 1 4.9296 4.92843 10.9643 
97 2 2.88001 3.17652 15.6519 
98 2 4.40208 3.09215 16.468 
99 3 4.42569 4.0101 16.181 
6 1 1.80964 14.045 1.80945 
13 1 5.82465 10.0702 5.82922 
22 1 3.39226 12.4927 3.39257 
29 1 4.25195 11.6443 4.25391 
38 1 0.278054 13.8736 1.99672 
48 1 1.99556 15.5685 2.01281 
52 1 1.99918 13.8789 0.276303 
61 1 7.3532 10.2611 5.63787 
71 1 5.63906 8.53851 5.64227 
75 1 5.63692 10.259 7.3581 
86 1 2.69064 13.1809 2.68791 
93 1 4.95557 10.9465 4.95251 
7 1 1.81637 14.0951 14.0784 
16 1 5.82053 10.068 10.0793 
23 1 3.39036 12.5108 12.5073 
32 1 4.24723 11.6477 11.6524 
39 1 0.285559 13.9027 13.895 
43 1 1.99067 15.6224 13.9094 
53 1 2.0006 13.8919 15.6073 
64 1 7.35073 10.2572 10.2642 
68 1 5.6358 8.53626 10.2648 
78 1 5.6358 10.2582 8.55267 
87 1 2.69143 13.2156 13.1991 
96 1 4.94367 10.9478 10.9519 
8 1 14.048 1.80954 1.80955 
15 1 10.0715 5.82493 5.82796 
24 1 12.4943 3.39296 3.39027 
31 1 11.6453 4.25228 4.25256 
40 1 15.5733 1.99281 2.01401 
44 1 13.875 0.279081 1.99648 
54 1 13.8809 1.9994 0.275887 
63 1 8.53998 5.63902 5.64201 
67 1 10.2617 7.35359 5.63735 
77 1 10.2588 5.63717 7.35752 
88 1 13.1832 2.68963 2.68865 
95 1 10.9464 4.95008 4.95493 
5 1 14.0951 1.81533 14.0789 
14 1 10.0663 5.82096 10.0802 
21 1 12.5115 3.38971 12.5059 
30 1 11.6479 4.24578 11.6502 
37 1 15.6223 1.98943 13.9057 
47 1 13.9023 0.285219 13.8951 
51 1 13.8933 2.00036 15.6077 
62 1 8.53648 5.63557 10.2643 
72 1 10.2573 7.34943 10.2636 
76 1 10.2584 5.63572 8.55248 
85 1 13.2144 2.69388 13.2029 
94 1 10.9465 4.94514 10.9539 
3 1 14.0792 14.0805 1.81084 
12 1 10.0786 10.0787 5.82353 
19 1 12.5079 12.5066 3.38727 
28 1 11.651 11.6511 4.24643 
35 1 15.6066 13.8854 1.99687 
45 1 13.8857 15.6086 1.99656 
55 1 13.8953 13.8963 0.279694 
60 1 8.54823 10.264 5.63618 
70 1 10.2644 8.54834 5.63608 
80 1 10.2628 10.2626 7.35352 
83 1 13.2039 13.2072 2.68766 
92 1 10.9531 10.9532 4.94789 
2 1 14.0842 14.0846 14.083 
9 1 10.0764 10.0741 10.0781 
18 1 12.5096 12.5093 12.5085 
25 1 11.652 11.6515 11.65 
34 1 15.6142 13.901 13.8959 
42 1 13.9003 15.6153 13.896 
50 1 13.8967 13.8977 15.6119 
57 1 8.54578 10.2602 10.2629 
65 1 10.2598 8.54529 10.2629 
73 1 10.2623 10.2624 8.54903 
82 1 13.2082 13.2083 13.2068 
89 1 10.9496 10.951 10.956 
ITEM: TIMESTEP
70
ITEM: NUMBER OF ATOMS
99
ITEM: BOX BOUNDS pp pp pp
0.0000000000000000e+00 1.6524999999999999e+01
0.0000000000000000e+00 1.6526000000000000e+01
0.0000000000000000e+00 1.6526000000000000e+01
ITEM: ATOMS id type x y z 
1 1 1.77473 1.77119 1.81004 
10 1 5.81502 5.81528 5.83113 
17 1 3.38272 3.38133 3.38753 
26 1 4.24673 4.24568 4.24145 
33 1 0.242252 1.98031 2.01485 
41 1 1.98431 0.2383 2.01284 
49 1 1.99013 2.00736 0.34395 
58 1 7.3442 5.63464 5.64167 
66 1 5.63491 7.34362 5.64169 
74 1 5.63482 5.63452 7.36251 
81 1 2.67942 2.67848 2.69923 
90 1 4.9413 4.94236 4.94529 
4 1 1.79328 1.79176 14.0408 
11 1 5.80975 5.80895 10.0906 
20 1 3.35639 3.35342 12.4847 
27 1 4.22431 4.22645 11.6576 
36 1 0.299143 1.98101 13.901 
46 1 1.98246 0.298406 13.9064 
56 1 2.22127 2.27534 15.6637 
59 1 7.34004 5.63175 10.2684 
69 1 5.6317 7.33993 10.2683 
79 1 5.63398 5.63392 8.55875 
84 1 2.64825 2.64018 13.1663 
91 1 4.92844 4.92738 10.9643 
97 2 2.87952 3.17921 15.6481 
98 2 4.40602 3.09323 16.469 
99 3 4.42761 4.011 16.1818 
6 1 1.80946 14.0443 1.80866 
13 1 5.82534 10.0698 5.8287 
22 1 3.39292 12.4918 3.39268 
29 1 4.25326 11.6439 4.25407 
38 1 0.277624 13.8733 1.99669 
48 1 1.99549 15.5702 2.01264 
52 1 1.99908 13.8784 0.276162 
61 1 7.35347 10.261 5.63807 
71 1 5.63892 8.53915 5.64224 
75 1 5.63692 10.2589 7.35763 
86 1 2.68949 13.1814 2.68797 
93 1 4.95403 10.946 4.95279 
7 1 1.81542 14.0943 14.0783 
16 1 5.82065 10.0671 10.0804 
23 1 3.38983 12.5111 12.506 
32 1 4.24689 11.6479 11.6517 
39 1 0.285181 13.9031 13.8949 
43 1 1.99067 15.6219 13.91 
53 1 2.00062 13.8922 15.6069 
64 1 7.35016 10.2572 10.264 
68 1 5.63576 8.53607 10.2648 
78 1 5.63568 10.258 8.55303 
87 1 2.69254 13.2155 13.201 
96 1 4.94442 10.9473 10.953 
8 1 14.0473 1.80942 1.80887 
15 1 10.0707 5.82492 5.82819 
24 1 12.4932 3.39329 3.39102 
31 1 11.6447 4.25243 4.25339 
40 1 15.5737 1.99271 2.01391 
44 1 13.8746 0.278365 1.99651 
54 1 13.8804 1.99925 0.276344 
63 1 8.5399 5.63885 5.64204 
67 1 10.2616 7.35346 5.63756 
77 1 10.2588 5.63722 7.35714 
88 1 13.184 2.68952 2.68799 
95 1 10.9461 4.95052 4.95409 
5 1 14.0943 1.81547 14.079 
14 1 10.0665 5.82068 10.0808 
21 1 12.5118 3.39022 12.506 
30 1 11.6481 4.24602 11.6505 
37 1 15.6219 1.98944 13.9062 
47 1 13.9027 0.284977 13.895 
51 1 13.8936 2.00044 15.6071 
62 1 8.53615 5.6356 10.2646 
72 1 10.2571 7.34942 10.2637 
76 1 10.2581 5.63568 8.55259 
85 1 13.2144 2.69284 13.2026 
94 1 10.9465 4.94455 10.9539 
3 1 14.0788 14.0808 1.81076 
12 1 10.0784 10.0785 5.82369 
19 1 12.507 12.507 3.38751 
28 1 11.6512 11.6511 4.24689 
35 1 15.6072 13.8853 1.99686 
45 1 13.8854 15.6089 1.99657 
55 1 13.8951 13.8963 0.280222 
60 1 8.54876 10.2639 5.63631 
70 1 10.2642 8.54875 5.63617 
80 1 10.2629 10.2628 7.35368 
83 1 13.2049 13.2065 2.68743 
92 1 10.9527 10.9527 4.94737 
2 1 14.0844 14.0852 14.0823 
9 1 10.0757 10.0745 10.0786 
18 1 12.5094 12.5093 12.5083 
25 1 11.6515 11.651 11.6513 
34 1 15.6145 13.9009 13.8961 
42 1 13.9003 15.6153 13.8962 
50 1 13.8968 13.8977 15.6109 
57 1 8.54579 10.2599 10.2631 
65 1 10.2598 8.54513 10.263 
73 1 10.2624 10.2622 8.54923 
82 1 13.2088 13.2085 13.207 
89 1 10.9505 10.952 10.9542 
ITEM: TIMESTEP
80
ITEM: NUMBER OF ATOMS
99
ITEM: BOX BOUNDS pp pp pp
0.0000000000000000e+00 1.6524999999999999e+01
0.0000000000000000e+00 1.6526000000000000e+01
0.0000000000000000e+00 1.6526000000000000e+01
ITEM: ATOMS id type x y z 
1 1 1.77428 1.77146 1.80245 
10 1 5.81466 5.81357 5.83215 
17 1 3.3788 3.37888 3.38642 
26 1 4.2424 4.243 4.24301 
33 1 0.240066 1.97646 2.0096 
41 1 1.98141 0.234807 2.00665 
49 1 2.00293 2.02479 0.342668 
58 1 7.34291 5.63484 5.64408 
66 1 5.63462 7.34222 5.64402 
74 1 5.6345 5.63426 7.36322 
81 1 2.67926 2.67508 2.69519 
90 1 4.94025 4.93851 4.9448 
4 1 1.79672 1.79535 14.0478 
11 1 5.80685 5.80711 10.0914 
20 1 3.35222 3.34753 12.4762 
27 1 4.22146 4.21996 11.6519 
36 1 0.300535 1.98112 13.9085 
46 1 1.9831 0.299816 13.9154 
56 1 2.23108 2.29373 15.6627 
59 1 7.33817 5.63017 10.2699 
69 1 5.63042 7.33846 10.2698 
79 1 5.63152 5.63136 8.55969 
84 1 2.64799 2.64131 13.169 
91 1 4.92501 4.92726 10.9633 
97 2 2.87826 3.20208 15.62 
98 2 4.43559 3.10088 16.4765 
99 3 4.44099 4.01758 16.187 
6 1 1.80838 14.0426 1.80777 
13 1 5.82581 10.0677 5.82925 
22 1 3.39344 12.491 3.39239 
29 1 4.25443 11.6424 4.25296 
38 1 0.276866 13.8707 1.99609 
48 1 1.9939 15.5665 2.01003 
52 1 1.99911 13.8754 0.27465 
61 1 7.35464 10.2603 5.63879 
71 1 5.63808 8.53811 5.64247 
75 1 5.63755 10.2575 7.35838 
86 1 2.68785 13.1787 2.68836 
93 1 4.9516 10.943 4.95401 
7 1 1.81616 14.0943 14.0791 
16 1 5.82034 10.0645 10.0833 
23 1 3.38926 12.514 12.5025 
32 1 4.24533 11.6492 11.6494 
39 1 0.284194 13.9039 13.8943 
43 1 1.99003 15.6234 13.9151 
53 1 1.99989 13.8924 15.6052 
64 1 7.34899 10.2558 10.2643 
68 1 5.63537 8.53445 10.2656 
78 1 5.63541 10.2562 8.55396 
87 1 2.69523 13.2124 13.2067 
96 1 4.94598 10.9454 10.9569 
8 1 14.0451 1.80947 1.80781 
15 1 10.068 5.82609 5.8279 
24 1 12.4919 3.39322 3.39202 
31 1 11.6423 4.25278 4.25362 
40 1 15.5714 1.99128 2.0121 
44 1 13.8718 0.277744 1.99617 
54 1 13.878 1.99906 0.275496 
63 1 8.53864 5.6379 5.64262 
67 1 10.2607 7.35341 5.63874 
77 1 10.2577 5.63741 7.35882 
88 1 13.1819 2.6897 2.68816 
95 1 10.9432 4.9511 4.95373 
5 1 14.0934 1.81527 14.0788 
14 1 10.0653 5.81916 10.082 
21 1 12.5126 3.39012 12.5055 
30 1 11.6491 4.24626 11.6512 
37 1 15.6235 1.989 13.9105 
47 1 13.9038 0.285766 13.8951 
51 1 13.8938 2.00039 15.606 
62 1 8.53426 5.635 10.2659 
72 1 10.256 7.34908 10.2645 
76 1 10.2557 5.63588 8.55444 
85 1 13.2144 2.69215 13.2025 
94 1 10.9465 4.94395 10.9545 
3 1 14.0797 14.079 1.80935 
12 1 10.0789 10.0779 5.82424 
19 1 12.5067 12.5079 3.38818 
28 1 11.6507 11.6513 4.24701 
35 1 15.6068 13.8843 1.99654 
45 1 13.8838 15.6087 1.99681 
55 1 13.8949 13.8961 0.279857 
60 1 8.54997 10.2635 5.63704 
70 1 10.2637 8.5489 5.63689 
80 1 10.2636 10.2634 7.35565 
83 1 13.2052 13.2047 2.6862 
92 1 10.9528 10.9519 4.94718 
2 1 14.0849 14.0851 14.0812 
9 1 10.0752 10.0753 10.0788 
18 1 12.5087 12.5087 12.5097 
25 1 11.6497 11.6504 11.6542 
34 1 15.6138 13.9016 13.8961 
42 1 13.9005 15.6165 13.8959 
50 1 13.8969 13.898 15.6099 
57 1 8.5447 10.2588 10.2639 
65 1 10.2593 8.54469 10.264 
73 1 10.2617 10.2615 8.55116 
82 1 13.2108 13.2089 13.2045 
89 1 10.9533 10.9543 10.9496 
ITEM: TIMESTEP
90
ITEM: NUMBER OF ATOMS
99
ITEM: BOX BOUNDS pp pp pp
0.0000000000000000e+00 1.6524999999999999e+01
0.0000000000000000e+00 1.6526000000000000e+01
0.0000000000000000e+00 1.6526000000000000e+01
ITEM: ATOMS id type x y z 
1 1 1.77517 1.76889 1.79972 
10 1 5.81302 5.81277 5.83116 
17 1 3.37928 3.37743 3.38631 
26 1 4.24201 4.2417 4.24205 
33 1 0.240744 1.97532 2.00624 
41 1 1.98002 0.237284 2.00264 
49 1 2.00341 2.02856 0.341657 
58 1 7.34162 5.63403 5.64429 
66 1 5.63432 7.3412 5.64411 
74 1 5.63357 5.63314 7.36274 
81 1 2.67708 2.6758 2.69562 
90 1 4.93727 4.93675 4.94689 
4 1 1.79726 1.79611 14.0526 
11 1 5.80733 5.80716 10.0924 
20 1 3.35101 3.34569 12.476 
27 1 4.21955 4.21832 11.65 
36 1 0.302284 1.98117 13.9118 
46 1 1.98293 0.301749 13.9189 
56 1 2.23641 2.30171 15.6635 
59 1 7.33776 5.62963 10.2704 
69 1 5.62974 7.33708 10.2701 
79 1 5.63111 5.63108 8.55911 
84 1 2.6463 2.63884 13.1673 
91 1 4.92263 4.92483 10.9605 
97 2 2.88 3.21496 15.6078 
98 2 4.4491 3.10388 16.4801 
99 3 4.44576 4.0202 16.1888 
6 1 1.80814 14.0388 1.80686 
13 1 5.82595 10.0676 5.82993 
22 1 3.39261 12.4886 3.39224 
29 1 4.25332 11.6406 4.25452 
38 1 0.277177 13.87 1.99615 
48 1 1.99282 15.569 2.00806 
52 1 1.99857 13.875 0.276321 
61 1 7.35348 10.2594 5.63954 
71 1 5.6382 8.53697 5.64376 
75 1 5.63763 10.2562 7.35931 
86 1 2.68976 13.1797 2.68871 
93 1 4.9545 10.9427 4.95295 
7 1 1.81515 14.0942 14.0788 
16 1 5.82009 10.0643 10.0829 
23 1 3.39124 12.5128 12.5065 
32 1 4.24695 11.6487 11.651 
39 1 0.286651 13.9043 13.8947 
43 1 1.99065 15.6253 13.9183 
53 1 2.00039 13.8909 15.6068 
64 1 7.34956 10.2549 10.2653 
68 1 5.63478 8.53326 10.2669 
78 1 5.63597 10.2552 8.55487 
87 1 2.69115 13.2149 13.201 
96 1 4.94386 10.9468 10.953 
8 1 14.0435 1.80836 1.80807 
15 1 10.0684 5.82452 5.83049 
24 1 12.4909 3.39291 3.39189 
31 1 11.6413 4.25235 4.25347 
40 1 15.5725 1.98956 2.01031 
44 1 13.8712 0.27735 1.996 
54 1 13.8779 1.99908 0.276588 