ITEM: TIMESTEP
0
ITEM: NUMBER OF ATOMS
129
ITEM: BOX BOUNDS xy xz yz pp pp pp
0.0000000000000000e+00 2.3654499999999999e+01 7.8845000000000001e+00
0.0000000000000000e+00 1.3658086643083999e+01 0.0000000000000000e+00
0.0000000000000000e+00 2.5747000000000000e+01 0.0000000000000000e+00
ITEM: ATOMS id type x y z 
18 1 10.522 6.683 2.644 
28 1 5.247 4.273 12.803 
31 1 9.65 6.514 0.446 
62 1 9.171 5.15 12.405 
91 1 9.65 6.514 11.889 
92 1 10.81 6.18 11.007 
106 1 10.522 6.683 9.691 
127 1 10.81 6.18 1.328 
4 1 4.402 5.735 13.319 
5 1 3.307 5.568 14.201 
43 1 4.549 6.796 15.517 
52 1 9.172 5.15 25.677 
66 1 4.402 5.735 24.762 
67 1 5.003 6.76 23.881 
88 1 5.247 4.273 25.278 
107 1 3.307 5.568 23.881 
116 1 4.549 6.796 22.565 
117 1 5.003 6.76 14.201 
11 1 11.272 7.494 3.321 
12 1 10.477 8.871 4.018 
14 1 9.018 11.397 0.446 
15 1 10.114 11.565 1.328 
16 1 8.412 9.024 0.654 
19 1 10.477 8.871 5.569 
29 1 10.927 10.156 3.321 
32 1 8.77 7.648 1.328 
35 1 12.036 9.594 2.644 
45 1 9.231 8.963 3.321 
47 1 12.762 8.702 0.446 
49 1 11.224 11 0.654 
51 1 8.872 10.337 2.644 
53 1 11.272 7.494 9.014 
54 1 10.477 8.871 8.317 
56 1 9.018 11.397 11.889 
57 1 8.418 10.372 11.007 
58 1 11.224 11 11.681 
60 1 12.255 7.901 9.691 
61 1 10.477 8.871 6.766 
73 1 9.231 8.963 9.014 
75 1 12.762 8.702 11.889 
76 1 12.202 10.061 11.007 
79 1 9.224 7.617 9.691 
80 1 8.174 12.859 12.405 
89 1 10.927 10.156 9.014 
93 1 8.412 9.024 11.681 
95 1 9.951 11.095 9.691 
105 1 10.114 11.565 11.007 
109 1 8.77 7.648 11.007 
110 1 12.036 9.594 9.691 
114 1 8.872 10.337 9.691 
119 1 8.418 10.372 1.328 
120 1 12.255 7.901 2.644 
123 1 12.202 10.061 1.328 
124 1 9.224 7.617 2.644 
128 1 9.951 11.095 2.644 
6 1 5.009 8.108 13.527 
13 1 9.663 10.28 25.128 
17 1 9.204 8.965 25.162 
30 1 10.016 7.556 25.128 
34 1 11.289 7.464 25.162 
36 1 8.174 12.859 25.677 
46 1 11.752 8.777 25.128 
50 1 10.937 10.184 25.162 
55 1 9.663 10.28 12.954 
59 1 10.937 10.184 12.919 
74 1 11.752 8.777 12.954 
78 1 11.289 7.464 12.919 
90 1 10.016 7.556 12.954 
94 1 9.204 8.965 12.919 
101 1 5.009 8.108 24.555 
33 1 11.795 6.589 0.654 
77 1 11.795 6.589 11.681 
41 1 17.967 6.132 13.527 
68 1 17.967 6.132 24.554 
103 1 19.24 6.037 22.565 
126 1 19.24 6.037 15.517 
3 1 19.528 6.852 12.254 
7 1 19.987 8.167 12.289 
10 1 15.106 8.528 12.804 
22 1 19.175 9.576 12.254 
26 1 17.902 9.668 12.289 
38 1 17.439 8.356 12.254 
42 1 18.254 6.949 12.289 
44 1 20.019 11.982 12.804 
48 1 12.546 7.4 1.328 
65 1 19.528 6.852 0.081 
69 1 18.254 6.949 0.046 
82 1 17.439 8.356 0.081 
86 1 17.902 9.668 0.046 
96 1 14.084 8.604 12.405 
98 1 19.175 9.576 0.081 
102 1 19.987 8.167 0.046 
113 1 12.546 7.4 11.007 
1 1 17.919 9.638 16.194 
2 1 18.714 8.261 16.892 
8 1 18.669 10.449 15.517 
9 1 18.714 8.261 18.442 
20 1 14.084 8.604 25.677 
21 1 18.264 6.977 16.194 
23 1 19.541 10.618 13.32 
24 1 20.421 9.484 14.201 
25 1 17.396 10.544 13.527 
27 1 17.155 7.538 15.517 
37 1 19.96 8.169 16.194 
39 1 16.429 8.43 13.319 
40 1 16.644 9.732 14.201 
63 1 17.919 9.638 21.888 
64 1 18.714 8.261 21.19 
70 1 16.936 9.231 22.565 
71 1 18.714 8.261 19.64 
72 1 20.019 11.982 25.278 
81 1 19.96 8.169 21.888 
83 1 16.429 8.43 24.762 
84 1 16.989 7.071 23.881 
85 1 17.396 10.544 24.555 
87 1 19.967 9.515 22.565 
97 1 18.263 6.977 21.888 
99 1 19.541 10.618 24.762 
100 1 18.38 10.953 23.881 
104 1 15.106 8.528 25.278 
108 1 18.669 10.449 22.565 
111 1 20.421 9.484 23.881 
112 1 17.155 7.538 22.565 
115 1 16.644 9.732 23.881 
118 1 16.936 9.231 15.517 
121 1 16.989 7.071 14.201 
122 1 19.967 9.515 15.517 
125 1 18.38 10.953 14.201 
129 2 17.919 9.638 17.294 
ITEM: TIMESTEP
10
ITEM: NUMBER OF ATOMS
129
ITEM: BOX BOUNDS xy xz yz pp pp pp
0.0000000000000000e+00 2.3654499999999999e+01 7.8845000000000001e+00
0.0000000000000000e+00 1.3658086643083999e+01 0.0000000000000000e+00
0.0000000000000000e+00 2.5747000000000000e+01 0.0000000000000000e+00
ITEM: ATOMS id type x y z 
18 1 10.4174 6.77795 2.61823 
28 1 5.10508 4.56775 12.8845 
31 1 9.38324 6.5004 0.407079 
62 1 9.11822 5.2537 12.3813 
91 1 9.36164 6.47482 11.9381 
92 1 10.7818 6.16928 10.9126 
106 1 10.4208 6.76853 9.71063 
127 1 10.7921 6.18634 1.3962 
4 1 4.44561 5.80819 13.2264 
5 1 3.19795 5.57461 14.2254 
43 1 4.61569 6.9169 15.4298 
52 1 9.11944 5.25228 25.7009 
66 1 4.45168 5.78079 24.8405 
67 1 5.12022 6.96816 23.8615 
88 1 5.10959 4.55959 25.1943 
107 1 3.18306 5.59601 23.8583 
116 1 4.59895 6.95646 22.6058 
117 1 5.13145 6.95273 14.2037 
11 1 11.241 7.53492 3.42198 
12 1 10.4932 8.81632 4.1232 
14 1 8.97864 11.3237 0.367767 
15 1 10.2222 11.5517 1.33991 
16 1 8.4078 8.96883 0.712642 
19 1 10.4697 8.86527 5.5559 
29 1 10.9582 10.1276 3.35315 
32 1 8.70029 7.65759 1.28611 
35 1 12.0201 9.60204 2.57029 
45 1 9.2549 8.94167 3.2795 
47 1 12.7319 8.73501 0.544171 
49 1 11.3058 11.0306 0.689909 
51 1 8.82942 10.1719 2.57535 
53 1 11.2641 7.53375 8.92768 
54 1 10.5087 8.83991 8.20574 
56 1 8.98207 11.3369 11.9366 
57 1 8.30326 10.203 11.0236 
58 1 11.3171 10.9729 11.6958 
60 1 12.3236 8.05922 9.65452 
61 1 10.4733 8.86988 6.76425 
73 1 9.22497 8.94903 9.04649 
75 1 12.7527 8.77 11.7584 
76 1 12.3035 10.0879 11.0057 
79 1 9.1889 7.64044 9.77324 
80 1 8.32637 12.5452 12.3138 
89 1 10.9438 10.1355 8.98092 
93 1 8.39096 8.95263 11.6075 
95 1 10.0503 11.0476 9.70792 
105 1 10.2497 11.5146 11.0093 
109 1 8.68871 7.65324 11.041 
110 1 12.0384 9.6215 9.69914 
114 1 8.841 10.1837 9.75893 
119 1 8.29506 10.1763 1.33632 
120 1 12.3275 8.10359 2.66061 
123 1 12.2368 10.0609 1.23615 
124 1 9.19663 7.66803 2.56868 
128 1 10.0438 11.052 2.63116 
6 1 5.01089 8.17636 13.5937 
13 1 9.60738 10.2981 25.144 
17 1 9.15194 8.97416 25.1409 
30 1 9.916 7.73147 25.0381 
34 1 11.3162 7.4956 25.1494 
36 1 8.32325 12.5511 25.7623 
46 1 11.6934 8.7893 25.0638 
50 1 11.0495 10.108 25.2422 
55 1 9.60549 10.2876 12.9988 
59 1 10.9697 10.1549 12.8953 
74 1 11.7016 8.85643 13.0666 
78 1 11.2489 7.48855 12.9298 
90 1 9.94775 7.69398 13.038 
94 1 9.13952 8.9771 12.9631 
101 1 5.01948 8.16921 24.4954 
33 1 11.744 6.61443 0.698704 
77 1 11.7658 6.62472 11.6709 
41 1 17.8789 6.09935 13.5563 
68 1 17.8889 6.15165 24.5409 
103 1 19.1385 6.09647 22.5747 
126 1 19.1581 6.06576 15.4956 
3 1 19.5629 6.84608 12.283 
7 1 20.0255 8.1495 12.2603 
10 1 15.1243 8.4541 12.8415 
22 1 19.2543 9.38996 12.1682 
26 1 17.9019 9.67258 12.2869 
38 1 17.4867 8.32554 12.1861 
42 1 18.1588 7.02766 12.3908 
44 1 20.0746 11.8863 12.8286 
48 1 12.5893 7.55689 1.39138 
65 1 19.5762 6.78613 0.0863512 
69 1 18.2805 7.08685 -0.0447254 
82 1 17.5242 8.33728 0.159603 
86 1 17.9819 9.67617 0.0905959 
96 1 14.0716 8.67474 12.365 
98 1 19.1149 9.44156 0.117234 
102 1 19.9509 8.07648 0.0960856 
113 1 12.5897 7.5558 10.9434 
1 1 17.8848 9.71887 16.3703 
2 1 18.7717 8.16295 17.035 
8 1 18.8299 10.4292 15.4867 
9 1 18.7441 8.21636 18.4534 
20 1 14.0496 8.67056 25.7224 
21 1 18.2001 6.98371 16.2339 
23 1 19.8521 10.6246 13.244 
24 1 20.5008 9.46132 14.1359 
25 1 17.4442 10.5032 13.5776 
27 1 17.1718 7.52327 15.4313 
37 1 19.991 8.18631 16.1733 
39 1 16.4571 8.3821 13.4048 
40 1 16.601 9.56432 14.2232 
63 1 17.9579 9.59749 21.7763 
64 1 18.6955 8.31333 21.0868 
70 1 16.8531 9.03139 22.5543 
71 1 18.7206 8.26759 19.6424 
72 1 20.066 11.8437 25.2408 
81 1 19.9379 8.20558 21.9478 
83 1 16.4521 8.37056 24.6484 
84 1 16.9719 7.07727 23.9507 
85 1 17.3919 10.5072 24.5259 
87 1 19.9666 9.45827 22.6428 
97 1 18.2368 6.99663 21.8554 
99 1 19.8161 10.6507 24.8204 
100 1 18.4484 10.9764 23.7823 
104 1 15.1314 8.45823 25.2331 
108 1 18.8053 10.3376 22.5883 
111 1 20.4589 9.46374 23.9302 
112 1 17.1689 7.52497 22.6522 
115 1 16.5999 9.57896 23.8142 
118 1 16.8147 8.99946 15.4905 
121 1 16.9548 7.10293 14.0718 
122 1 19.9929 9.46997 15.4115 
125 1 18.34 10.9531 14.2491 
129 2 17.832 9.77137 17.3975 
ITEM: TIMESTEP
20
ITEM: NUMBER OF ATOMS
129
ITEM: BOX BOUNDS xy xz yz pp pp pp
0.0000000000000000e+00 2.3654499999999999e+01 7.8845000000000001e+00
0.0000000000000000e+00 1.3658086643083999e+01 0.0000000000000000e+00
0.0000000000000000e+00 2.5747000000000000e+01 0.0000000000000000e+00
ITEM: ATOMS id type x y z 
18 1 10.3681 6.79018 2.65316 
28 1 5.08797 4.63037 12.8864 
31 1 9.422 6.55238 0.417051 
62 1 9.06009 5.28249 12.3806 
91 1 9.44477 6.53481 11.8931 
92 1 10.6611 6.24716 10.9705 
106 1 10.3751 6.76647 9.67296 
127 1 10.651 6.19383 1.37888 
4 1 4.42778 5.86663 13.2771 
5 1 3.19113 5.60875 14.2248 
43 1 4.59409 6.93055 15.4607 
52 1 9.08338 5.30648 25.7244 
66 1 4.44239 5.82298 24.7747 
67 1 5.10023 6.97289 23.9 
88 1 5.10493 4.59819 25.1888 
107 1 3.16462 5.6488 23.8701 
116 1 4.59516 6.96172 22.5883 
117 1 5.10488 6.96854 14.1734 
11 1 11.2543 7.58306 3.43924 
12 1 10.533 8.77578 4.07444 
14 1 8.99949 11.2512 0.403297 
15 1 10.2285 11.5243 1.35925 
16 1 8.34442 8.89201 0.673001 
19 1 10.4692 8.86198 5.56055 
29 1 10.9401 10.1132 3.31987 
32 1 8.66142 7.63699 1.26558 
35 1 12.0508 9.61576 2.57253 
45 1 9.22597 8.93589 3.25594 
47 1 12.6994 8.78379 0.486891 
49 1 11.3478 11.045 0.672238 
51 1 8.84199 10.1727 2.60639 
53 1 11.246 7.5824 8.91232 
54 1 10.5432 8.79058 8.25254 
56 1 9.01191 11.2572 11.9181 
57 1 8.34066 10.1569 11.0349 
58 1 11.3732 10.9424 11.6883 
60 1 12.3114 8.10708 9.63808 
61 1 10.4705 8.86555 6.78069 
73 1 9.20106 8.93193 9.06858 
75 1 12.7057 8.85479 11.8183 
76 1 12.3123 10.1042 11.0002 
79 1 9.15282 7.64507 9.79371 
80 1 8.33692 12.5002 12.3069 
89 1 10.9486 10.1275 8.99653 
93 1 8.3442 8.88933 11.6618 
95 1 10.05 11.0238 9.70487 
105 1 10.2586 11.4595 11.0171 
109 1 8.66341 7.64243 11.0635 
110 1 12.0856 9.61517 9.69908 
114 1 8.83736 10.1851 9.75322 
119 1 8.31955 10.1528 1.30818 
120 1 12.2971 8.12628 2.69429 
123 1 12.2451 10.0993 1.2289 
124 1 9.16741 7.67 2.55347 
128 1 10.0269 11.0257 2.64197 
6 1 5.07527 8.2362 13.5424 
13 1 9.65597 10.234 25.1353 
17 1 9.13669 8.9453 25.1465 
30 1 9.92154 7.735 25.0543 
34 1 11.2442 7.48859 25.1794 
36 1 8.3346 12.4982 25.7623 
46 1 11.6923 8.7804 25.0984 
50 1 11.0811 10.1496 25.2628 
55 1 9.6273 10.2341 13.0107 
59 1 10.988 10.1472 12.9175 
74 1 11.6611 8.84906 13.0025 
78 1 11.2461 7.52653 12.8674 
90 1 9.91615 7.73347 13.0214 
94 1 9.12711 8.92952 12.9277 
101 1 5.03178 8.22862 24.5578 
33 1 11.7617 6.71543 0.652967 
77 1 11.7357 6.72329 11.7013 
41 1 17.8377 6.10248 13.5529 
68 1 17.8379 6.18472 24.533 
103 1 19.1527 6.10193 22.5642 
126 1 19.1747 6.10021 15.5009 
3 1 19.5525 6.88927 12.2482 
7 1 20.0647 8.18189 12.2692 
10 1 15.1238 8.42922 12.8314 
22 1 19.29 9.39953 12.1579 
26 1 17.9572 9.63932 12.2645 
38 1 17.4938 8.34991 12.2005 
42 1 18.115 6.97476 12.3664 
44 1 20.1262 11.8304 12.8449 
48 1 12.5861 7.55069 1.3872 
65 1 19.6225 6.8148 0.132499 
69 1 18.243 7.01688 0.021337 
82 1 17.4943 8.33336 0.156397 
86 1 17.9681 9.69918 0.058907 
96 1 14.0426 8.68537 12.3542 
98 1 19.1709 9.41574 0.16206 
102 1 20.0206 8.13677 0.0672644 
113 1 12.5832 7.55847 10.9368 
1 1 17.8669 9.70469 16.358 
2 1 18.7513 8.17706 16.9933 
8 1 18.8473 10.3539 15.4907 
9 1 18.7625 8.20303 18.4382 
20 1 14.0445 8.68655 25.7148 
21 1 18.2513 6.9934 16.1983 
23 1 19.8291 10.574 13.2414 
24 1 20.5434 9.49454 14.1364 
25 1 17.4681 10.4835 13.5958 
27 1 17.1387 7.5538 15.4503 
37 1 19.9762 8.17827 16.13 
39 1 16.4704 8.34836 13.3664 
40 1 16.6198 9.53735 14.2782 
63 1 17.9482 9.56133 21.7843 
64 1 18.6544 8.35024 21.1269 
70 1 16.8832 9.02804 22.5275 
71 1 18.7194 8.26078 19.6677 
72 1 20.1238 11.8351 25.2516 
81 1 19.9748 8.20224 21.9408 
83 1 16.4879 8.29649 24.7058 
84 1 16.9164 7.02281 23.8965 
85 1 17.414 10.4536 24.5205 
87 1 20.0228 9.46311 22.6654 
97 1 18.2453 7.00785 21.8668 
99 1 19.7768 10.6335 24.751 
100 1 18.5385 10.9136 23.8103 
104 1 15.1485 8.44772 25.2285 
108 1 18.8196 10.352 22.535 
111 1 20.5011 9.47869 23.9634 
112 1 17.1121 7.51873 22.6175 
115 1 16.6084 9.58021 23.7987 
118 1 16.8844 8.98475 15.5041 
121 1 16.9275 7.01441 14.1137 
122 1 19.9729 9.49095 15.4038 
125 1 18.4199 10.918 14.248 
129 2 17.8045 9.81793 17.4413 
ITEM: TIMESTEP
30
ITEM: NUMBER OF ATOMS
129
ITEM: BOX BOUNDS xy xz yz pp pp pp
0.0000000000000000e+00 2.3654499999999999e+01 7.8845000000000001e+00
0.0000000000000000e+00 1.3658086643083999e+01 0.0000000000000000e+00
0.0000000000000000e+00 2.5747000000000000e+01 0.0000000000000000e+00
ITEM: ATOMS id type x y z 
18 1 10.3715 6.78024 2.64673 
28 1 5.08833 4.63641 12.8854 
31 1 9.43238 6.56411 0.426841 
62 1 9.05059 5.28267 12.384 
91 1 9.44015 6.54549 11.8941 
92 1 10.6452 6.2562 10.9599 
106 1 10.3693 6.77277 9.67446 
127 1 10.6436 6.23277 1.37765 
4 1 4.42016 5.88091 13.2716 
5 1 3.18431 5.60962 14.2159 
43 1 4.60133 6.94956 15.4642 
52 1 9.07519 5.29518 25.7205 
66 1 4.43938 5.83456 24.7694 
67 1 5.08646 6.98316 23.8959 
88 1 5.10376 4.60578 25.186 
107 1 3.16422 5.66023 23.8731 
116 1 4.59192 6.97346 22.5988 
117 1 5.10345 6.97966 14.1702 
11 1 11.2494 7.58232 3.4273 
12 1 10.5298 8.78171 4.06785 
14 1 9.00528 11.2426 0.408353 
15 1 10.2339 11.5155 1.34838 
16 1 8.33655 8.88871 0.671559 
19 1 10.4694 8.86068 5.56508 
29 1 10.9491 10.1077 3.31234 
32 1 8.65384 7.64258 1.27119 
35 1 12.0497 9.61677 2.57242 
45 1 9.21932 8.92917 3.25345 
47 1 12.6994 8.78964 0.494434 
49 1 11.3519 11.0406 0.678206 
51 1 8.83626 10.1606 2.60285 
53 1 11.2442 7.57911 8.91652 
54 1 10.5296 8.7939 8.26591 
56 1 9.01426 11.2508 11.9238 
57 1 8.33791 10.1535 11.0348 
58 1 11.3861 10.9336 11.6853 
60 1 12.3122 8.10466 9.65387 
61 1 10.4707 8.86417 6.77075 
73 1 9.21468 8.93264 9.08239 
75 1 12.6949 8.86079 11.8092 
76 1 12.3079 10.1007 10.9976 
79 1 9.15203 7.66105 9.7793 
80 1 8.33823 12.4926 12.3059 
89 1 10.9456 10.1152 9.00148 
93 1 8.3297 8.88286 11.6654 
95 1 10.0511 11.0191 9.6986 
105 1 10.2643 11.4556 11.0183 
109 1 8.65941 7.63419 11.0637 
110 1 12.0902 9.62361 9.70866 
114 1 8.8419 10.1656 9.73999 
119 1 8.32586 10.1438 1.30861 
120 1 12.2983 8.12467 2.6746 
123 1 12.2519 10.1002 1.23867 
124 1 9.16155 7.67396 2.55104 
128 1 10.0336 11.0253 2.65205 
6 1 5.08372 8.24311 13.5445 
13 1 9.65891 10.2318 25.1384 
17 1 9.13505 8.93752 25.1442 
30 1 9.91371 7.73151 25.0562 
34 1 11.2398 7.4873 25.1837 
36 1 8.33468 12.4916 25.7617 
46 1 11.6979 8.78754 25.0946 
50 1 11.0748 10.1595 25.2534 
55 1 9.6252 10.2326 13.0105 
59 1 10.9959 10.1462 12.9155 
74 1 11.6576 8.85717 12.9998 
78 1 11.2457 7.5329 12.8778 
90 1 9.91075 7.73143 13.0181 
94 1 9.12585 8.92612 12.9355 
101 1 5.03701 8.22801 24.5511 
33 1 11.7438 6.70163 0.666086 
77 1 11.7521 6.72391 11.6861 
41 1 17.8366 6.10024 13.5517 
68 1 17.8385 6.19474 24.5386 
103 1 19.1487 6.11477 22.5582 
126 1 19.1738 6.09534 15.5061 
3 1 19.5378 6.89537 12.261 
7 1 20.0668 8.179 12.2664 
10 1 15.1298 8.4273 12.8298 
22 1 19.2942 9.4011 12.1539 
26 1 17.9553 9.63324 12.2634 
38 1 17.4908 8.34041 12.2154 
42 1 18.1144 6.98056 12.3762 
44 1 20.1388 11.839 12.8407 
48 1 12.5794 7.57732 1.39876 
65 1 19.6145 6.8133 0.132877 
69 1 18.2407 7.03701 0.0226901 
82 1 17.5244 8.32951 0.137782 
86 1 17.9616 9.68128 0.0535737 
96 1 14.0396 8.68498 12.3544 
98 1 19.1525 9.40779 0.167907 
102 1 20.016 8.13804 0.0687896 
113 1 12.5752 7.58299 10.9322 
1 1 17.8708 9.69787 16.3683 
2 1 18.7587 8.18252 16.9805 
8 1 18.8496 10.353 15.4943 
9 1 18.7635 8.20102 18.4442 
20 1 14.048 8.68477 25.7112 
21 1 18.2393 7.0011 16.1998 
23 1 19.8352 10.5611 13.2484 
24 1 20.5449 9.48887 14.1374 
25 1 17.4822 10.4853 13.5914 
27 1 17.1397 7.54302 15.4395 
37 1 19.9705 8.18467 16.1252 
39 1 16.4778 8.32953 13.3584 
40 1 16.6146 9.53566 14.2748 
63 1 17.9428 9.55792 21.7865 
64 1 18.6598 8.34254 21.1354 
70 1 16.8839 9.02425 22.5303 
71 1 18.7212 8.26042 19.6572 
72 1 20.1366 11.8409 25.257 
81 1 19.9727 8.20105 21.9529 
83 1 16.5048 8.2914 24.709 
84 1 16.9125 7.0268 23.8948 
85 1 17.4291 10.4415 24.5056 
87 1 20.0291 9.45166 22.6651 
97 1 18.2438 7.01876 21.8828 
99 1 19.7715 10.6233 24.7392 
100 1 18.5347 10.8939 23.8195 
104 1 15.1428 8.45104 25.2337 
108 1 18.8286 10.3548 22.5357 
111 1 20.5047 9.47865 23.9592 
112 1 17.119 7.51356 22.6087 
115 1 16.6198 9.57066 23.8087 
118 1 16.8858 8.97392 15.515 
121 1 16.9338 7.02422 14.108 
122 1 19.9864 9.47534 15.4024 
125 1 18.4221 10.9125 14.2421 
129 2 17.7994 9.8263 17.4478 
ITEM: TIMESTEP
40
ITEM: NUMBER OF ATOMS
129
ITEM: BOX BOUNDS xy xz yz pp pp pp
0.0000000000000000e+00 2.3654499999999999e+01 7.8845000000000001e+00
0.0000000000000000e+00 1.3658086643083999e+01 0.0000000000000000e+00
0.0000000000000000e+00 2.5747000000000000e+01 0.0000000000000000e+00
ITEM: ATOMS id type x y z 
18 1 10.3561 6.77469 2.67413 
28 1 5.09057 4.64909 12.8819 
31 1 9.43038 6.58067 0.430113 
62 1 9.02637 5.28136 12.3925 
91 1 9.4287 6.56509 11.8997 
92 1 10.6311 6.28214 10.9632 
106 1 10.3486 6.77558 9.66274 
127 1 10.6196 6.27333 1.37411 
4 1 4.40824 5.89925 13.2717 
5 1 3.18306 5.62057 14.2159 
43 1 4.59585 6.96038 15.4595 
52 1 9.04687 5.28334 25.7071 
66 1 4.43069 5.8528 24.772 
67 1 5.0865 6.9991 23.8969 
88 1 5.10407 4.61956 25.1803 
107 1 3.15746 5.68085 23.8746 
116 1 4.58465 6.97703 22.6066 
117 1 5.10548 7.00132 14.1707 
11 1 11.236 7.58106 3.41453 
12 1 10.5245 8.78387 4.06276 
14 1 9.01522 11.2251 0.410824 
15 1 10.2394 11.5013 1.35252 
16 1 8.31944 8.87985 0.656379 
19 1 10.4702 8.85781 5.56418 
29 1 10.9479 10.1009 3.30594 
32 1 8.62931 7.6429 1.27355 
35 1 12.0627 9.62063 2.57474 
45 1 9.20887 8.92729 3.25726 
47 1 12.6917 8.80582 0.488297 
49 1 11.3619 11.0418 0.672995 
51 1 8.84054 10.1515 2.60018 
53 1 11.2424 7.58097 8.92234 
54 1 10.5205 8.78999 8.27229 
56 1 9.02001 11.2312 11.9296 
57 1 8.34008 10.1315 11.0329 
58 1 11.3957 10.9355 11.6934 
60 1 12.3129 8.11725 9.64267 
61 1 10.47 8.86073 6.76855 
73 1 9.21225 8.92951 9.08465 
75 1 12.6839 8.87652 11.8118 
76 1 12.3275 10.1025 10.9958 
79 1 9.14379 7.66195 9.77631 
80 1 8.33783 12.4803 12.3059 
89 1 10.948 10.1031 9.00968 
93 1 8.30622 8.87227 11.6787 
95 1 10.048 11.0159 9.69257 
105 1 10.2714 11.4347 11.0171 
109 1 8.63948 7.63227 11.0579 
110 1 12.1034 9.62809 9.70429 
114 1 8.84828 10.1592 9.74354 
119 1 8.3267 10.1253 1.3076 
120 1 12.3094 8.13486 2.67707 
123 1 12.2674 10.1073 1.23604 
124 1 9.14744 7.66757 2.55137 
128 1 10.0314 11.0246 2.65884 
6 1 5.10181 8.25313 13.5321 
13 1 9.66187 10.2179 25.1442 
17 1 9.12498 8.92942 25.141 
30 1 9.90986 7.72185 25.0618 
34 1 11.2358 7.48872 25.1989 
36 1 8.33356 12.4763 25.7595 
46 1 11.6994 8.79461 25.096 
50 1 11.0853 10.1721 25.2507 
55 1 9.62395 10.2223 13.0113 
59 1 11.0001 10.1557 12.9131 
74 1 11.6618 8.86013 12.9952 
78 1 11.2444 7.53383 12.8744 
90 1 9.90649 7.725 13.0126 
94 1 9.11437 8.91878 12.9388 
101 1 5.04769 8.2417 24.5597 
33 1 11.7441 6.70604 0.663789 
77 1 11.7447 6.73375 11.6787 
41 1 17.8301 6.08646 13.5436 
68 1 17.8314 6.20897 24.5457 
103 1 19.1504 6.11518 22.552 
126 1 19.176 6.0963 15.515 
3 1 19.5277 6.90653 12.2656 
7 1 20.0792 8.19161 12.2645 
10 1 15.1286 8.42647 12.8203 
22 1 19.2928 9.39834 12.1473 
26 1 17.96 9.64269 12.2619 
38 1 17.4888 8.33699 12.2288 
42 1 18.1056 6.96642 12.3756 
44 1 20.1679 11.8381 12.8375 
48 1 12.5754 7.60173 1.38222 
65 1 19.6169 6.81741 0.143809 
69 1 18.2473 7.02591 0.0341244 
82 1 17.5082 8.31746 0.128378 
86 1 17.963 9.67107 0.0441269 
96 1 14.0361 8.68327 12.3572 
98 1 19.1647 9.41508 0.174422 
102 1 20.0141 8.14655 0.0696393 
113 1 12.5755 7.6142 10.9454 
1 1 17.8775 9.68276 16.384 
2 1 18.7488 8.19882 16.9734 
8 1 18.8573 10.3384 15.4961 
9 1 18.7673 8.19596 18.4395 
20 1 14.0558 8.6843 25.7012 
21 1 18.246 7.00308 16.1964 
23 1 19.8448 10.5509 13.2535 
24 1 20.565 9.49271 14.1326 
25 1 17.4986 10.4688 13.5887 
27 1 17.1308 7.53632 15.4425 
37 1 19.9783 8.18711 16.1224 
39 1 16.4864 8.31325 13.3631 
40 1 16.6206 9.5161 14.2686 
63 1 17.9422 9.55618 21.7922 
64 1 18.663 8.34425 21.137 
70 1 16.8803 9.01415 22.5215 
71 1 18.7254 8.25856 19.6516 
72 1 20.1677 11.842 25.2657 
81 1 19.9819 8.20265 21.9554 
83 1 16.5204 8.27609 24.7121 
84 1 16.8905 7.03232 23.8962 
85 1 17.4448 10.4218 24.5118 
87 1 20.037 9.45565 22.6629 
97 1 18.2462 7.02893 21.8876 
99 1 19.7709 10.6119 24.7336 
100 1 18.5519 10.8754 23.8182 
104 1 15.1511 8.45208 25.2368 
108 1 18.8486 10.3513 22.5187 
111 1 20.5243 9.48826 23.959 
112 1 17.1008 7.51311 22.5977 
115 1 16.6208 9.53464 23.8233 
118 1 16.8937 8.9646 15.5155 
121 1 16.9167 7.02774 14.1008 
122 1 19.9965 9.47772 15.4041 
125 1 18.4406 10.8956 14.2383 
129 2 17.7855 9.84932 17.4619 
ITEM: TIMESTEP
50
ITEM: NUMBER OF ATOMS
129
ITEM: BOX BOUNDS xy xz yz pp pp pp
0.0000000000000000e+00 2.3654499999999999e+01 7.8845000000000001e+00
0.0000000000000000e+00 1.3658086643083999e+01 0.0000000000000000e+00
0.0000000000000000e+00 2.5747000000000000e+01 0.0000000000000000e+00
ITEM: ATOMS id type x y z 
18 1 10.3052 6.7873 2.67762 
28 1 5.08857 4.70662 12.8744 
31 1 9.36968 6.58858 0.418713 
62 1 8.96066 5.31072 12.4068 
91 1 9.3794 6.58651 11.9148 
92 1 10.5805 6.33244 10.9616 
106 1 10.327 6.78838 9.65617 
127 1 10.5746 6.33094 1.38325 
4 1 4.40622 5.94085 13.2807 
5 1 3.16912 5.64227 14.2222 
43 1 4.59353 6.97802 15.4456 
52 1 8.97404 5.31437 25.6862 
66 1 4.4262 5.89614 24.7813 
67 1 5.08896 7.03672 23.9155 
88 1 5.10351 4.66513 25.161 
107 1 3.13653 5.7252 23.8755 
116 1 4.57743 6.98756 22.6193 
117 1 5.11094 7.03438 14.1556 
11 1 11.2455 7.59213 3.41035 
12 1 10.5133 8.77323 4.06617 
14 1 9.02234 11.1868 0.421156 
15 1 10.2522 11.487 1.36284 
16 1 8.27199 8.84908 0.633008 
19 1 10.4715 8.8498 5.56661 
29 1 10.9503 10.0784 3.29206 
32 1 8.57481 7.61955 1.27466 
35 1 12.0824 9.63852 2.5671 
45 1 9.1969 8.91377 3.26025 
47 1 12.7001 8.85187 0.452905 
49 1 11.3859 11.0716 0.681657 
51 1 8.83258 10.1403 2.58609 
53 1 11.2319 7.58274 8.92762 
54 1 10.5092 8.77212 8.26714 
56 1 9.02342 11.1864 11.9322 
57 1 8.32895 10.0906 11.0484 
58 1 11.4245 10.9254 11.6883 
60 1 12.3083 8.14308 9.6398 
61 1 10.4685 8.8486 6.76867 
73 1 9.19734 8.92605 9.07882 
75 1 12.6734 8.92702 11.8311 
76 1 12.3823 10.1319 10.9951 
79 1 9.09656 7.66038 9.77352 
80 1 8.34342 12.4281 12.3035 
89 1 10.9506 10.0842 9.01657 
93 1 8.25958 8.84082 11.6974 
95 1 10.0572 10.9981 9.69822 
105 1 10.2877 11.4001 11.0196 
109 1 8.57121 7.62055 11.0557 
110 1 12.1367 9.6462 9.69505 
114 1 8.84606 10.1409 9.75527 
119 1 8.31808 10.0904 1.29714 
120 1 12.298 8.15367 2.66837 
123 1 12.3006 10.1307 1.22871 
124 1 9.09711 7.66058 2.56252 
128 1 10.0235 11.0112 2.65948 
6 1 5.15371 8.28661 13.5068 
13 1 9.67905 10.1847 25.1455 
17 1 9.11309 8.90852 25.1386 
30 1 9.89904 7.71522 25.0721 
34 1 11.2456 7.48481 25.204 
36 1 8.33462 12.4194 25.7541 
46 1 11.6762 8.79927 25.0784 
50 1 11.0995 10.1824 25.2551 
55 1 9.62423 10.1927 13.0128 
59 1 10.9999 10.1699 12.9251 
74 1 11.6524 8.86677 12.9913 
78 1 11.2465 7.52222 12.8755 
90 1 9.90255 7.72547 13.0103 
94 1 9.08144 8.89731 12.9521 
101 1 5.07976 8.27448 24.5719 
33 1 11.7283 6.73663 0.698279 
77 1 11.7245 6.78119 11.6558 
41 1 17.7974 6.07199 13.5447 
68 1 17.8167 6.25201 24.5546 
103 1 19.1402 6.13094 22.5549 
126 1 19.1821 6.10246 15.512 
3 1 19.5168 6.9435 12.2635 
7 1 20.0816 8.20105 12.255 
10 1 15.1232 8.41581 12.8031 
22 1 19.304 9.40422 12.1312 
26 1 17.9654 9.6318 12.2448 
38 1 17.5085 8.3353 12.2256 
42 1 18.0884 6.9572 12.3816 
44 1 20.2576 11.819 12.8314 
48 1 12.5804 7.62828 1.38444 
65 1 19.6338 6.82337 0.1769 
69 1 18.261 7.00783 0.063204 
82 1 17.5259 8.30507 0.138702 
86 1 17.9607 9.66274 0.0490062 
96 1 14.0287 8.70096 12.3644 
98 1 19.1608 9.40716 0.206145 
102 1 20.0114 8.15529 0.0812231 
113 1 12.5653 7.65966 10.929 
1 1 17.9018 9.63964 16.4265 
2 1 18.7333 8.25154 16.9533 
8 1 18.8739 10.2969 15.5003 
9 1 18.7754 8.18762 18.44 
20 1 14.0669 8.70001 25.6778 
21 1 18.25 7.01771 16.184 
23 1 19.8813 10.5521 13.2523 
24 1 20.6214 9.51066 14.1347 
25 1 17.5375 10.4302 13.5919 
27 1 17.1216 7.50217 15.4435 
37 1 19.9799 8.20225 16.1267 
39 1 16.4803 8.28578 13.3571 
40 1 16.6506 9.49291 14.2858 
63 1 17.9534 9.54329 21.7884 
64 1 18.6827 8.359 21.1315 
70 1 16.8833 8.99207 22.5151 
71 1 18.7408 8.2487 19.6469 
72 1 20.2513 11.8193 25.2786 
81 1 19.9902 8.21052 21.9491 
83 1 16.5316 8.22047 24.731 
84 1 16.8304 7.0215 23.8825 
85 1 17.4754 10.371 24.489 
87 1 20.0829 9.46415 22.657 
97 1 18.2397 7.05287 21.8919 
99 1 19.8142 10.6144 24.7418 
100 1 18.5932 10.8338 23.7995 
104 1 15.1684 8.42819 25.2455 
108 1 18.8656 10.3433 22.5041 
111 1 20.5808 9.51252 23.9467 
112 1 17.0637 7.49002 22.5736 
115 1 16.6393 9.48838 23.816 
118 1 16.9073 8.93457 15.5175 
121 1 16.8976 6.96861 14.1057 
122 1 20.0424 9.47858 15.3933 
125 1 18.4912 10.8417 14.2398 
129 2 17.7374 9.92633 17.4913 
ITEM: TIMESTEP
60
ITEM: NUMBER OF ATOMS
129
ITEM: BOX BOUNDS xy xz yz pp pp pp
0.0000000000000000e+00 2.3654499999999999e+01 7.8845000000000001e+00
0.0000000000000000e+00 1.3658086643083999e+01 0.0000000000000000e+00
0.0000000000000000e+00 2.5747000000000000e+01 0.0000000000000000e+00
ITEM: ATOMS id type x y z 
18 1 10.3131 6.79773 2.68819 
28 1 5.09189 4.70932 12.8712 
31 1 9.36828 6.59241 0.420403 
62 1 8.9497 5.31071 12.4105 
91 1 9.37414 6.58861 11.9112 
92 1 10.5805 6.33616 10.9664 
106 1 10.3155 6.79584 9.65527 
127 1 10.5759 6.33065 1.38034 
4 1 4.40006 5.94512 13.278 
5 1 3.17195 5.64054 14.2193 
43 1 4.59515 6.98379 15.4439 
52 1 8.95997 5.30633 25.6793 
66 1 4.42466 5.89978 24.7828 
67 1 5.08884 7.04148 23.9111 
88 1 5.10672 4.66609 25.1598 
107 1 3.13701 5.72912 23.8796 
116 1 4.57931 6.98912 22.6244 
117 1 5.11354 7.0442 14.1578 
11 1 11.2345 7.58909 3.40189 
12 1 10.5175 8.76967 4.06362 
14 1 9.02587 11.1828 0.420303 
15 1 10.2521 11.4843 1.36128 
16 1 8.26869 8.8466 0.632761 
19 1 10.4713 8.84807 5.56473 
29 1 10.9452 10.0774 3.28948 
32 1 8.56304 7.62584 1.27965 
35 1 12.0826 9.63507 2.56437 
45 1 9.19506 8.91954 3.2578 
47 1 12.7 8.8473 0.455773 
49 1 11.3868 11.0682 0.678297 
51 1 8.83162 10.1356 2.58695 
53 1 11.2321 7.58358 8.92775 
54 1 10.5112 8.77085 8.27 
56 1 9.02485 11.1831 11.9301 
57 1 8.3266 10.0886 11.0456 
58 1 11.423 10.9259 11.6938 
60 1 12.3081 8.14523 9.63155 
61 1 10.4684 8.84723 6.76798 
73 1 9.19797 8.9239 9.08164 
75 1 12.6829 8.92399 11.8247 
76 1 12.382 10.1334 10.9892 
79 1 9.09147 7.66009 9.77515 
80 1 8.34154 12.4248 12.3048 
89 1 10.9496 10.0775 9.01928 
93 1 8.25565 8.83995 11.7012 
95 1 10.053 10.9935 9.69959 
105 1 10.2892 11.3978 11.0219 
109 1 8.56779 7.61846 11.0509 
110 1 12.1358 9.6534 9.69769 
114 1 8.84518 10.142 9.76025 
119 1 8.31516 10.0855 1.29537 
120 1 12.2972 8.16008 2.66961 
123 1 12.3016 10.1327 1.22643 
124 1 9.08624 7.65987 2.56056 
128 1 10.024 11.0083 2.6585 
6 1 5.15592 8.28699 13.5052 
13 1 9.67718 10.1834 25.1494 
17 1 9.11343 8.9098 25.1417 
30 1 9.9054 7.71081 25.068 
34 1 11.2383 7.49034 25.2093 
36 1 8.33244 12.415 25.7517 
46 1 11.6865 8.79889 25.0825 
50 1 11.0972 10.1829 25.2594 
55 1 9.62143 10.1886 13.0137 
59 1 11.0016 10.1671 12.9214 
74 1 11.651 8.86444 12.9961 
78 1 11.2429 7.53274 12.8775 
90 1 9.9015 7.72242 13.0126 
94 1 9.08085 8.89625 12.9509 
101 1 5.07706 8.27885 24.5764 
33 1 11.7204 6.74173 0.690551 
77 1 11.7209 6.78033 11.6533 
41 1 17.8032 6.05848 13.5437 
68 1 17.8136 6.24966 24.5526 
103 1 19.1422 6.13469 22.5553 
126 1 19.1818 6.10698 15.5147 
3 1 19.5122 6.93943 12.2683 
7 1 20.0871 8.20881 12.2575 
10 1 15.1275 8.4187 12.807 
22 1 19.3012 9.40367 12.1325 
26 1 17.9698 9.63753 12.2472 
38 1 17.5014 8.33292 12.2311 
42 1 18.0902 6.95878 12.3819 
44 1 20.2715 11.819 12.8291 
48 1 12.5788 7.64074 1.37858 
65 1 19.6345 6.82648 0.176979 
69 1 18.2627 7.0145 0.0659277 
82 1 17.5192 8.29585 0.14347 
86 1 17.9663 9.65966 0.0525846 
96 1 14.0324 8.70088 12.365 
98 1 19.167 9.41168 0.207103 
102 1 20.0147 8.15888 0.0789042 
113 1 12.5627 7.66688 10.9403 
1 1 17.8989 9.64067 16.426 
2 1 18.733 8.24669 16.9579 
8 1 18.8798 10.2902 15.5049 
9 1 18.7761 8.18794 18.4343 
20 1 14.0647 8.70054 25.6784 
21 1 18.2547 7.01815 16.1856 
23 1 19.8851 10.5472 13.2512 
24 1 20.6277 9.51095 14.127 
25 1 17.54 10.4245 13.5936 
27 1 17.1165 7.50119 15.4393 
37 1 19.9885 8.1988 16.1213 
39 1 16.4794 8.28159 13.36 
40 1 16.653 9.47992 14.2766 
63 1 17.9517 9.54551 21.7893 
64 1 18.6799 8.35901 21.1319 
70 1 16.8838 8.98798 22.5088 
71 1 18.7437 8.2469 19.6425 
72 1 20.2637 11.818 25.2803 
81 1 19.9941 8.20994 21.9544 
83 1 16.531 8.22403 24.729 
84 1 16.8345 7.01445 23.8803 
85 1 17.4802 10.3704 24.4857 
87 1 20.0847 9.46632 22.6561 
97 1 18.242 7.05597 21.8918 
99 1 19.817 10.6102 24.7381 
100 1 18.5958 10.8303 23.8081 
104 1 15.1646 8.42787 25.2454 
108 1 18.8765 10.3359 22.5005 
111 1 20.583 9.51221 23.9477 
112 1 17.0607 7.48957 22.5758 
115 1 16.6439 9.48214 23.8205 
118 1 16.9129 8.93045 15.5212 
121 1 16.8879 6.98823 14.0972 
122 1 20.0451 9.48078 15.3966 
125 1 18.4941 10.8367 14.2388 
129 2 17.7296 9.93771 17.4862 
ITEM: TIMESTEP
70
ITEM: NUMBER OF ATOMS
129
ITEM: BOX BOUNDS xy xz yz pp pp pp
0.0000000000000000e+00 2.3654499999999999e+01 7.8845000000000001e+00
0.0000000000000000e+00 1.3658086643083999e+01 0.0000000000000000e+00
0.0000000000000000e+00 2.5747000000000000e+01 0.0000000000000000e+00
ITEM: ATOMS id type x y z 
18 1 10.298 6.80987 2.68194 
28 1 5.1007 4.72613 12.8606 
31 1 9.35353 6.59577 0.424429 
62 1 8.91095 5.32102 12.4198 
91 1 9.35508 6.59195 11.9088 
92 1 10.5668 6.34828 10.97 
106 1 10.3021 6.80855 9.65907 
127 1 10.5605 6.33754 1.37598 
4 1 4.4 5.95464 13.2803 
5 1 3.17119 5.64344 14.2162 
43 1 4.60478 6.98668 15.4372 
52 1 8.91831 5.31691 25.6685 
66 1 4.42826 5.91092 24.7865 
67 1 5.09472 7.05025 23.9163 
88 1 5.11597 4.67552 25.1538 
107 1 3.13803 5.73775 23.8858 
116 1 4.58738 6.99336 22.6283 
117 1 5.123 7.05483 14.153 
11 1 11.2328 7.59576 3.3949 
12 1 10.5137 8.76807 4.05992 
14 1 9.02582 11.172 0.421722 
15 1 10.2536 11.4808 1.35942 
16 1 8.25088 8.83766 0.63131 
19 1 10.471 8.84142 5.56359 
29 1 10.9403 10.0732 3.28665 
32 1 8.53683 7.61994 1.28045 
35 1 12.0828 9.63878 2.56078 
45 1 9.18971 8.91866 3.25701 
47 1 12.7014 8.85341 0.455519 
49 1 11.3902 11.0706 0.674943 
51 1 8.82282 10.1307 2.58228 
53 1 11.2273 7.58548 8.93138 
54 1 10.5076 8.76817 8.27022 
56 1 9.02453 11.1705 11.9292 