
     Program PWSCF v.7.1 starts on  5Jun2025 at 19:31:38 

     This program is part of the open-source Quantum ESPRESSO suite
     for quantum simulation of materials; please cite
         "P. Giannozzi et al., J. Phys.:Condens. Matter 21 395502 (2009);
         "P. Giannozzi et al., J. Phys.:Condens. Matter 29 465901 (2017);
         "P. Giannozzi et al., J. Chem. Phys. 152 154105 (2020);
          URL http://www.quantum-espresso.org", 
     in publications or presentations arising from this work. More details at
     http://www.quantum-espresso.org/quote

     Parallel version (MPI), running on    16 processors

     MPI processes distributed on     1 nodes
     245596 MiB available memory on the printing compute node when the environment starts

     Reading input from input.pwi
Warning: card &CELL ignored
Warning: card / ignored
Warning: card &FCP ignored
Warning: card / ignored
Warning: card &RISM ignored
Warning: card / ignored

     Current dimensions of program PWSCF are:
     Max number of different atomic species (ntypx) = 10
     Max number of k-points (npk) =  40000
     Max angular momentum in pseudopotentials (lmaxx) =  4
     file C.pbe-n-kjpaw_psl.1.0.0.UPF: wavefunction(s)  2S 2P renormalized
     file O.pbe-n-kjpaw_psl.0.1.UPF: wavefunction(s)  2P renormalized

     IMPORTANT: XC functional enforced from input :
     Exchange-correlation= PBE
                           (   1   4   3   4   0   0   0)
     Any further DFT definition will be discarded
     Please, verify this is what you really want


     gamma-point specific algorithms are used

     K-points division:     npool     =       2
     R & G space division:  proc/nbgrp/npool/nimage =       8
     Subspace diagonalization in iterative solution of the eigenvalue problem:
     a serial algorithm will be used


     Parallelization info
     --------------------
     sticks:   dense  smooth     PW     G-vecs:    dense   smooth      PW
     Min        8285    4142   1034               164313    58201    7273
     Max        8290    4146   1038               164314    58204    7274
     Sum       66295   33157   8285              1314511   465617   58191

     Using Slab Decomposition



     bravais-lattice index     =            0
     lattice parameter (alat)  =      61.9981  a.u.
     unit-cell volume          =    9734.9165 (a.u.)^3
     number of atoms/cell      =           57
     number of atomic types    =            2
     number of electrons       =       230.00 (up: 115.00, down: 115.00)
     number of Kohn-Sham states=          138
     kinetic-energy cutoff     =      50.0000  Ry
     charge density cutoff     =     400.0000  Ry
     scf convergence threshold =      1.0E-06
     mixing beta               =       0.3000
     number of iterations used =            8  plain     mixing
     energy convergence thresh.=      1.0E-04
     force convergence thresh. =      1.0E-03
     Exchange-correlation= PBE
                           (   1   4   3   4   0   0   0)
     nstep                     =         1000


     celldm(1)=  61.998135  celldm(2)=   0.000000  celldm(3)=   0.000000
     celldm(4)=   0.000000  celldm(5)=   0.000000  celldm(6)=   0.000000

     crystal axes: (cart. coord. in units of alat)
               a(1) = (   1.000000   0.000000   0.000000 )  
               a(2) = (   0.000000   0.541941   0.000000 )  
               a(3) = (   0.000000   0.000000   0.075378 )  

     reciprocal axes: (cart. coord. in units 2 pi/alat)
               b(1) = (  1.000000  0.000000  0.000000 )  
               b(2) = (  0.000000  1.845219  0.000000 )  
               b(3) = (  0.000000  0.000000 13.266478 )  


     PseudoPot. # 1 for C  read from file:
     /home/ana.bisette/espresso/pseudo/C.pbe-n-kjpaw_psl.1.0.0.UPF
     MD5 check sum: 5d2aebdfa2cae82b50a7e79e9516da0f
     Pseudo is Projector augmented-wave + core cor, Zval =  4.0
     Generated using "atomic" code by A. Dal Corso  v.5.1
     Shape of augmentation charge: PSQ
     Using radial grid of 1073 points,  4 beta functions with: 
                l(1) =   0
                l(2) =   0
                l(3) =   1
                l(4) =   1
     Q(r) pseudized with 0 coefficients 


     PseudoPot. # 2 for O  read from file:
     /home/ana.bisette/espresso/pseudo/O.pbe-n-kjpaw_psl.0.1.UPF
     MD5 check sum: 0234752ac141de4415c5fc33072bef88
     Pseudo is Projector augmented-wave + core cor, Zval =  6.0
     Generated using "atomic" code by A. Dal Corso  v.5.0.99 svn rev. 10869
     Shape of augmentation charge: BESSEL
     Using radial grid of 1095 points,  4 beta functions with: 
                l(1) =   0
                l(2) =   0
                l(3) =   1
                l(4) =   1
     Q(r) pseudized with 0 coefficients 


     atomic species   valence    mass     pseudopotential
        C              4.00    12.01100     C ( 1.00)
        O              6.00    15.99900     O ( 1.00)

     Starting magnetic structure 
     atomic species   magnetization
        C            0.000
        O            0.000

     No symmetry found



   Cartesian axes

     site n.     atom                  positions (alat units)
         1           C   tau(   1) = (   0.1881553  -0.0116435   0.0751036  )
         2           C   tau(   2) = (   0.8343392  -0.0116435   0.0751036  )
         3           C   tau(   3) = (   0.6881553   0.2593270   0.0751036  )
         4           C   tau(   4) = (   0.3343087   0.2593270   0.0751036  )
         5           C   tau(   5) = (   0.1637101  -0.0116435   0.0374299  )
         6           C   tau(   6) = (   0.8587844  -0.0116435   0.0374299  )
         7           C   tau(   7) = (   0.6637101   0.2593270   0.0374299  )
         8           C   tau(   8) = (   0.3587844   0.2593270   0.0374299  )
         9           C   tau(   9) = (   0.1210985   0.5302975   0.0374299  )
        10           C   tau(  10) = (   0.9013655  -0.0116435   0.0374299  )
        11           C   tau(  11) = (   0.6210985   0.2593270   0.0374299  )
        12           C   tau(  12) = (   0.4013655   0.2593270   0.0374299  )
        13           C   tau(  13) = (   0.2146733   0.0258778   0.0751036  )
        14           C   tau(  14) = (   0.8077908   0.4927762   0.0751036  )
        15           C   tau(  15) = (   0.8077908   0.0258778   0.0751036  )
        16           C   tau(  16) = (   0.2146733   0.4927762   0.0751036  )
        17           C   tau(  17) = (   0.7146733   0.2968483   0.0751036  )
        18           C   tau(  18) = (   0.3077908   0.2218057   0.0751036  )
        19           C   tau(  19) = (   0.3077908   0.2968483   0.0751036  )
        20           C   tau(  20) = (   0.7146733   0.2218057   0.0751036  )
        21           C   tau(  21) = (   0.2532309   0.1033894   0.0751036  )
        22           C   tau(  22) = (   0.7692331   0.4152646   0.0751036  )
        23           C   tau(  23) = (   0.7692331   0.1033894   0.0751036  )
        24           C   tau(  24) = (   0.2532309   0.4152646   0.0751036  )
        25           C   tau(  25) = (   0.7532309   0.3743599   0.0751036  )
        26           C   tau(  26) = (   0.2692331   0.1442941   0.0751036  )
        27           C   tau(  27) = (   0.2692331   0.3743599   0.0751036  )
        28           C   tau(  28) = (   0.7532309   0.1442941   0.0751036  )
        29           C   tau(  29) = (   0.2254633   0.0436479   0.0374299  )
        30           C   tau(  30) = (   0.7970312   0.4750061   0.0374299  )
        31           C   tau(  31) = (   0.7970312   0.0436479   0.0374299  )
        32           C   tau(  32) = (   0.2254633   0.4750061   0.0374299  )
        33           C   tau(  33) = (   0.7254633   0.3146184   0.0374299  )
        34           C   tau(  34) = (   0.2970312   0.2040356   0.0374299  )
        35           C   tau(  35) = (   0.2970312   0.3146184   0.0374299  )
        36           C   tau(  36) = (   0.7254633   0.2040356   0.0374299  )
        37           C   tau(  37) = (   0.2449098   0.0833029   0.0374299  )
        38           C   tau(  38) = (   0.7775847   0.4353511   0.0374299  )
        39           C   tau(  39) = (   0.7775847   0.0833029   0.0374299  )
        40           C   tau(  40) = (   0.2449098   0.4353511   0.0374299  )
        41           C   tau(  41) = (   0.7449098   0.3542733   0.0374299  )
        42           C   tau(  42) = (   0.2775543   0.1643806   0.0374299  )
        43           C   tau(  43) = (   0.2775543   0.3542733   0.0374299  )
        44           C   tau(  44) = (   0.7449098   0.1643806   0.0374299  )
        45           C   tau(  45) = (   0.0986345   0.5302975   0.0751036  )
        46           C   tau(  46) = (   0.9238600   0.5302975   0.0751036  )
        47           C   tau(  47) = (   0.5986345   0.2593270   0.0751036  )
        48           C   tau(  48) = (   0.4238600   0.2593270   0.0751036  )
        49           C   tau(  49) = (   0.0551695   0.5302975   0.0751036  )
        50           C   tau(  50) = (   0.9672946   0.5302975   0.0751036  )
        51           C   tau(  51) = (   0.5551695   0.2593270   0.0751036  )
        52           C   tau(  52) = (   0.4672946   0.2593270   0.0751036  )
        53           C   tau(  53) = (   0.0330102   0.5302975   0.0374299  )
        54           C   tau(  54) = (   0.9894538   0.5302975   0.0374299  )
        55           C   tau(  55) = (   0.5330102   0.2593270   0.0374299  )
        56           C   tau(  56) = (   0.4894538   0.2593270   0.0374299  )
        57           O   tau(  57) = (   0.2717325   0.0661119   0.0754694  )

     number of k points=     1  Gaussian smearing, width (Ry)=  0.0001
                       cart. coord. in units 2pi/alat
        k(    1) = (   0.0000000   0.0000000   0.0000000), wk =   1.0000000

     Dense  grid:   657256 G-vectors     FFT dimensions: ( 400, 216,  30)

     Smooth grid:   232809 G-vectors     FFT dimensions: ( 288, 160,  24)

     Estimated max dynamical RAM per process >     264.43 MB

     Estimated total dynamical RAM >       3.82 GB

     Check: negative core charge=   -0.000003
     Generating pointlists ...
     new r_m :   0.0172 (alat units)  1.0643 (a.u.) for type    1
     new r_m :   0.0172 (alat units)  1.0643 (a.u.) for type    2

     Initial potential from superposition of free atoms

     starting charge     229.9977, renormalised to     230.0000

     negative rho (up, down):  4.625E-04 4.625E-04
     Starting wfcs are  228 randomized atomic wfcs
     Checking if some PAW data can be deallocated... 

     total cpu time spent up to now is        4.9 secs

     Self-consistent Calculation

     iteration #  1     ecut=    50.00 Ry     beta= 0.30
     Davidson diagonalization with overlap
     ethr =  1.00E-02,  avg # of iterations =  2.0

     negative rho (up, down):  4.548E-04 4.548E-04

     total cpu time spent up to now is        8.2 secs

     total energy              =   -1069.46296307 Ry
     estimated scf accuracy    <       6.61614002 Ry

     total magnetization       =    -0.00 Bohr mag/cell
     absolute magnetization    =     0.05 Bohr mag/cell

     iteration #  2     ecut=    50.00 Ry     beta= 0.30
     Davidson diagonalization with overlap
     ethr =  2.88E-03,  avg # of iterations =  2.0

     negative rho (up, down):  5.106E-04 5.106E-04

     total cpu time spent up to now is       11.0 secs

     total energy              =   -1068.20517677 Ry
     estimated scf accuracy    <       7.56413647 Ry

     total magnetization       =    -0.00 Bohr mag/cell
     absolute magnetization    =     0.07 Bohr mag/cell

     iteration #  3     ecut=    50.00 Ry     beta= 0.30
     Davidson diagonalization with overlap
     ethr =  2.88E-03,  avg # of iterations =  9.0

     negative rho (up, down):  5.058E-04 5.049E-04

     total cpu time spent up to now is       14.2 secs

     total energy              =   -1068.50362124 Ry
     estimated scf accuracy    <      19.69710200 Ry

     total magnetization       =     0.00 Bohr mag/cell
     absolute magnetization    =     0.04 Bohr mag/cell

     iteration #  4     ecut=    50.00 Ry     beta= 0.30
     Davidson diagonalization with overlap
     ethr =  2.88E-03,  avg # of iterations =  9.5

     negative rho (up, down):  5.421E-04 5.412E-04

     total cpu time spent up to now is       17.4 secs

     total energy              =   -1068.56704847 Ry
     estimated scf accuracy    <       6.31958220 Ry

     total magnetization       =    -0.00 Bohr mag/cell
     absolute magnetization    =     0.03 Bohr mag/cell

     iteration #  5     ecut=    50.00 Ry     beta= 0.30
     Davidson diagonalization with overlap
     ethr =  2.75E-03,  avg # of iterations =  3.5

     negative rho (up, down):  5.650E-04 5.654E-04

     total cpu time spent up to now is       20.3 secs

     total energy              =   -1068.13131828 Ry
     estimated scf accuracy    <      18.56151160 Ry

     total magnetization       =     0.00 Bohr mag/cell
     absolute magnetization    =     0.04 Bohr mag/cell

     iteration #  6     ecut=    50.00 Ry     beta= 0.30
     Davidson diagonalization with overlap
     ethr =  2.75E-03,  avg # of iterations =  1.0

     negative rho (up, down):  5.702E-04 5.706E-04

     total cpu time spent up to now is       23.0 secs

     total energy              =   -1068.59662930 Ry
     estimated scf accuracy    <       3.97340651 Ry

     total magnetization       =    -0.00 Bohr mag/cell
     absolute magnetization    =     0.03 Bohr mag/cell

     iteration #  7     ecut=    50.00 Ry     beta= 0.30
     Davidson diagonalization with overlap
     ethr =  1.73E-03,  avg # of iterations =  3.0

     negative rho (up, down):  5.720E-04 5.721E-04

     total cpu time spent up to now is       25.8 secs

     total energy              =   -1068.69599965 Ry
     estimated scf accuracy    <       3.70628426 Ry

     total magnetization       =     0.00 Bohr mag/cell
     absolute magnetization    =     0.03 Bohr mag/cell

     iteration #  8     ecut=    50.00 Ry     beta= 0.30
     Davidson diagonalization with overlap
     ethr =  1.61E-03,  avg # of iterations =  1.5

     negative rho (up, down):  5.768E-04 5.771E-04

     total cpu time spent up to now is       28.6 secs

     total energy              =   -1068.74820415 Ry
     estimated scf accuracy    <       2.08381650 Ry

     total magnetization       =     0.00 Bohr mag/cell
     absolute magnetization    =     0.06 Bohr mag/cell

     iteration #  9     ecut=    50.00 Ry     beta= 0.30
     Davidson diagonalization with overlap
     ethr =  9.06E-04,  avg # of iterations =  4.0

     negative rho (up, down):  5.743E-04 5.748E-04

     total cpu time spent up to now is       31.5 secs

     total energy              =   -1068.74028447 Ry
     estimated scf accuracy    <       0.38211187 Ry

     total magnetization       =    -0.00 Bohr mag/cell
     absolute magnetization    =     0.02 Bohr mag/cell

     iteration # 10     ecut=    50.00 Ry     beta= 0.30
     Davidson diagonalization with overlap
     ethr =  1.66E-04,  avg # of iterations =  9.5

     negative rho (up, down):  5.711E-04 5.717E-04

     total cpu time spent up to now is       34.9 secs

     total energy              =   -1068.72103617 Ry
     estimated scf accuracy    <       0.32466894 Ry

     total magnetization       =     0.00 Bohr mag/cell
     absolute magnetization    =     0.02 Bohr mag/cell

     iteration # 11     ecut=    50.00 Ry     beta= 0.30
     Davidson diagonalization with overlap
     ethr =  1.41E-04,  avg # of iterations =  2.0

     negative rho (up, down):  5.660E-04 5.663E-04

     total cpu time spent up to now is       37.8 secs

     total energy              =   -1068.63304256 Ry
     estimated scf accuracy    <       3.40257800 Ry

     total magnetization       =    -0.00 Bohr mag/cell
     absolute magnetization    =     0.02 Bohr mag/cell

     iteration # 12     ecut=    50.00 Ry     beta= 0.30
     Davidson diagonalization with overlap
     ethr =  1.41E-04,  avg # of iterations =  1.0

     negative rho (up, down):  5.713E-04 5.714E-04

     total cpu time spent up to now is       40.6 secs

     total energy              =   -1068.73934686 Ry
     estimated scf accuracy    <       0.61612437 Ry

     total magnetization       =    -0.00 Bohr mag/cell
     absolute magnetization    =     0.02 Bohr mag/cell

     iteration # 13     ecut=    50.00 Ry     beta= 0.30
     Davidson diagonalization with overlap
     ethr =  1.41E-04,  avg # of iterations =  1.0

     negative rho (up, down):  5.779E-04 5.780E-04

     total cpu time spent up to now is       43.6 secs

     total energy              =   -1068.73169596 Ry
     estimated scf accuracy    <       0.50779066 Ry

     total magnetization       =     0.00 Bohr mag/cell
     absolute magnetization    =     0.03 Bohr mag/cell

     iteration # 14     ecut=    50.00 Ry     beta= 0.30
     Davidson diagonalization with overlap
     ethr =  1.41E-04,  avg # of iterations =  1.0

     negative rho (up, down):  5.802E-04 5.804E-04

     total cpu time spent up to now is       46.7 secs

     total energy              =   -1068.73579214 Ry
     estimated scf accuracy    <       0.09072211 Ry

     total magnetization       =     0.00 Bohr mag/cell
     absolute magnetization    =     0.04 Bohr mag/cell

     iteration # 15     ecut=    50.00 Ry     beta= 0.30
     Davidson diagonalization with overlap
     ethr =  3.94E-05,  avg # of iterations =  1.0

     negative rho (up, down):  5.859E-04 5.862E-04

     total cpu time spent up to now is       49.7 secs

     total energy              =   -1068.73514560 Ry
     estimated scf accuracy    <       0.05719664 Ry

     total magnetization       =     0.00 Bohr mag/cell
     absolute magnetization    =     0.06 Bohr mag/cell

     iteration # 16     ecut=    50.00 Ry     beta= 0.30
     Davidson diagonalization with overlap
     ethr =  2.49E-05,  avg # of iterations =  1.0

     negative rho (up, down):  5.889E-04 5.896E-04

     total cpu time spent up to now is       52.7 secs

     total energy              =   -1068.73407627 Ry
     estimated scf accuracy    <       0.03871424 Ry

     total magnetization       =     0.00 Bohr mag/cell
     absolute magnetization    =     0.12 Bohr mag/cell

     iteration # 17     ecut=    50.00 Ry     beta= 0.30
     Davidson diagonalization with overlap
     ethr =  1.68E-05,  avg # of iterations =  1.0

     negative rho (up, down):  5.883E-04 5.896E-04

     total cpu time spent up to now is       55.8 secs

     total energy              =   -1068.73441293 Ry
     estimated scf accuracy    <       0.01121540 Ry

     total magnetization       =    -0.00 Bohr mag/cell
     absolute magnetization    =     0.33 Bohr mag/cell

     iteration # 18     ecut=    50.00 Ry     beta= 0.30
     Davidson diagonalization with overlap
     ethr =  4.88E-06,  avg # of iterations = 16.0

     negative rho (up, down):  5.887E-04 5.898E-04

     total cpu time spent up to now is       59.8 secs

     total energy              =   -1068.73421461 Ry
     estimated scf accuracy    <       0.01434157 Ry

     total magnetization       =     0.00 Bohr mag/cell
     absolute magnetization    =     0.21 Bohr mag/cell

     iteration # 19     ecut=    50.00 Ry     beta= 0.30
     Davidson diagonalization with overlap
     ethr =  4.88E-06,  avg # of iterations =  1.0

     negative rho (up, down):  5.886E-04 5.895E-04

     total cpu time spent up to now is       62.8 secs

     total energy              =   -1068.73369212 Ry
     estimated scf accuracy    <       0.01273272 Ry

     total magnetization       =     0.00 Bohr mag/cell
     absolute magnetization    =     0.15 Bohr mag/cell

     iteration # 20     ecut=    50.00 Ry     beta= 0.30
     Davidson diagonalization with overlap
     ethr =  4.88E-06,  avg # of iterations =  1.0

     negative rho (up, down):  5.885E-04 5.898E-04

     total cpu time spent up to now is       65.9 secs

     total energy              =   -1068.73296181 Ry
     estimated scf accuracy    <       0.01099510 Ry

     total magnetization       =    -0.00 Bohr mag/cell
     absolute magnetization    =     0.10 Bohr mag/cell

     iteration # 21     ecut=    50.00 Ry     beta= 0.30
     Davidson diagonalization with overlap
     ethr =  4.78E-06,  avg # of iterations =  2.0

     negative rho (up, down):  5.916E-04 5.934E-04

     total cpu time spent up to now is       69.1 secs

     total energy              =   -1068.72942044 Ry
     estimated scf accuracy    <       0.13548333 Ry

     total magnetization       =     0.00 Bohr mag/cell
     absolute magnetization    =     0.37 Bohr mag/cell

     iteration # 22     ecut=    50.00 Ry     beta= 0.30
     Davidson diagonalization with overlap
     ethr =  4.78E-06,  avg # of iterations =  2.0

     negative rho (up, down):  5.895E-04 5.893E-04

     total cpu time spent up to now is       72.3 secs

     total energy              =   -1068.73061959 Ry
     estimated scf accuracy    <       0.10574993 Ry

     total magnetization       =    -0.00 Bohr mag/cell
     absolute magnetization    =     0.15 Bohr mag/cell

     iteration # 23     ecut=    50.00 Ry     beta= 0.30
     Davidson diagonalization with overlap
     ethr =  4.78E-06,  avg # of iterations =  1.0

     negative rho (up, down):  5.902E-04 5.902E-04

     total cpu time spent up to now is       75.4 secs

     total energy              =   -1068.73281854 Ry
     estimated scf accuracy    <       0.00195274 Ry

     total magnetization       =    -0.00 Bohr mag/cell
     absolute magnetization    =     0.18 Bohr mag/cell

     iteration # 24     ecut=    50.00 Ry     beta= 0.30
     Davidson diagonalization with overlap
     ethr =  8.49E-07,  avg # of iterations =  2.0

     negative rho (up, down):  5.893E-04 5.893E-04

     total cpu time spent up to now is       78.6 secs

     total energy              =   -1068.73288055 Ry
     estimated scf accuracy    <       0.00149915 Ry

     total magnetization       =     0.00 Bohr mag/cell
     absolute magnetization    =     0.11 Bohr mag/cell

     iteration # 25     ecut=    50.00 Ry     beta= 0.30
     Davidson diagonalization with overlap
     ethr =  6.52E-07,  avg # of iterations =  1.0

     negative rho (up, down):  5.893E-04 5.895E-04

     total cpu time spent up to now is       81.7 secs

     total energy              =   -1068.73294874 Ry
     estimated scf accuracy    <       0.00104061 Ry

     total magnetization       =     0.00 Bohr mag/cell
     absolute magnetization    =     0.13 Bohr mag/cell

     iteration # 26     ecut=    50.00 Ry     beta= 0.30
     Davidson diagonalization with overlap
     ethr =  4.52E-07,  avg # of iterations =  1.0

     negative rho (up, down):  5.894E-04 5.895E-04

     total cpu time spent up to now is       84.7 secs

     total energy              =   -1068.73296945 Ry
     estimated scf accuracy    <       0.00003173 Ry

     total magnetization       =    -0.00 Bohr mag/cell
     absolute magnetization    =     0.15 Bohr mag/cell

     iteration # 27     ecut=    50.00 Ry     beta= 0.30
     Davidson diagonalization with overlap
     ethr =  1.38E-08,  avg # of iterations =  5.0

     negative rho (up, down):  5.892E-04 5.893E-04

     total cpu time spent up to now is       88.1 secs

     total energy              =   -1068.73297223 Ry
     estimated scf accuracy    <       0.00063023 Ry

     total magnetization       =     0.00 Bohr mag/cell
     absolute magnetization    =     0.15 Bohr mag/cell

     iteration # 28     ecut=    50.00 Ry     beta= 0.30
     Davidson diagonalization with overlap
     ethr =  1.38E-08,  avg # of iterations =  2.0

     negative rho (up, down):  5.892E-04 5.892E-04

     total cpu time spent up to now is       91.3 secs

     total energy              =   -1068.73298736 Ry
     estimated scf accuracy    <       0.00004137 Ry

     total magnetization       =     0.00 Bohr mag/cell
     absolute magnetization    =     0.17 Bohr mag/cell

     iteration # 29     ecut=    50.00 Ry     beta= 0.30
     Davidson diagonalization with overlap
     ethr =  1.38E-08,  avg # of iterations =  1.0

     negative rho (up, down):  5.892E-04 5.893E-04

     total cpu time spent up to now is       94.4 secs

     total energy              =   -1068.73297184 Ry
     estimated scf accuracy    <       0.00004329 Ry

     total magnetization       =    -0.00 Bohr mag/cell
     absolute magnetization    =     0.18 Bohr mag/cell

     iteration # 30     ecut=    50.00 Ry     beta= 0.30
     Davidson diagonalization with overlap
     ethr =  1.38E-08,  avg # of iterations =  1.0

     negative rho (up, down):  5.892E-04 5.892E-04

     total cpu time spent up to now is       97.4 secs

     total energy              =   -1068.73293755 Ry
     estimated scf accuracy    <       0.00005290 Ry

     total magnetization       =     0.00 Bohr mag/cell
     absolute magnetization    =     0.14 Bohr mag/cell

     iteration # 31     ecut=    50.00 Ry     beta= 0.30
     Davidson diagonalization with overlap
     ethr =  1.38E-08,  avg # of iterations =  2.0

     negative rho (up, down):  5.891E-04 5.892E-04

     total cpu time spent up to now is      100.7 secs

     total energy              =   -1068.73294590 Ry
     estimated scf accuracy    <       0.00006903 Ry

     total magnetization       =    -0.00 Bohr mag/cell
     absolute magnetization    =     0.08 Bohr mag/cell

     iteration # 32     ecut=    50.00 Ry     beta= 0.30
     Davidson diagonalization with overlap
     ethr =  1.38E-08,  avg # of iterations =  1.5

     negative rho (up, down):  5.890E-04 5.891E-04

     total cpu time spent up to now is      103.9 secs

     total energy              =   -1068.73293627 Ry
     estimated scf accuracy    <       0.00010847 Ry

     total magnetization       =     0.00 Bohr mag/cell
     absolute magnetization    =     0.08 Bohr mag/cell

     iteration # 33     ecut=    50.00 Ry     beta= 0.30
     Davidson diagonalization with overlap
     ethr =  1.38E-08,  avg # of iterations =  2.0

     negative rho (up, down):  5.890E-04 5.890E-04

     total cpu time spent up to now is      107.1 secs

     total energy              =   -1068.73294798 Ry
     estimated scf accuracy    <       0.00000650 Ry

     total magnetization       =    -0.00 Bohr mag/cell
     absolute magnetization    =     0.03 Bohr mag/cell

     iteration # 34     ecut=    50.00 Ry     beta= 0.30
     Davidson diagonalization with overlap
     ethr =  2.83E-09,  avg # of iterations =  4.0

     negative rho (up, down):  5.890E-04 5.890E-04

     total cpu time spent up to now is      110.5 secs

     total energy              =   -1068.73294685 Ry
     estimated scf accuracy    <       0.00001607 Ry

     total magnetization       =     0.00 Bohr mag/cell
     absolute magnetization    =     0.05 Bohr mag/cell

     iteration # 35     ecut=    50.00 Ry     beta= 0.30
     Davidson diagonalization with overlap
     ethr =  2.83E-09,  avg # of iterations =  1.0

     negative rho (up, down):  5.890E-04 5.891E-04

     total cpu time spent up to now is      113.5 secs

     total energy              =   -1068.73294579 Ry
     estimated scf accuracy    <       0.00000957 Ry

     total magnetization       =    -0.00 Bohr mag/cell
     absolute magnetization    =     0.03 Bohr mag/cell

     iteration # 36     ecut=    50.00 Ry     beta= 0.30
     Davidson diagonalization with overlap
     ethr =  2.83E-09,  avg # of iterations =  1.0

     negative rho (up, down):  5.890E-04 5.891E-04

     Magnetic moment per site  (integrated on atomic sphere of radius R)
     atom   1 (R=0.017)  charge=  1.5777  magn= -0.0001
     atom   2 (R=0.017)  charge=  1.5800  magn=  0.0001
     atom   3 (R=0.017)  charge=  1.5804  magn= -0.0000
     atom   4 (R=0.017)  charge=  1.5798  magn=  0.0000
     atom   5 (R=0.017)  charge=  1.5587  magn=  0.0005
     atom   6 (R=0.017)  charge=  1.5601  magn= -0.0004
     atom   7 (R=0.017)  charge=  1.5595  magn= -0.0005
     atom   8 (R=0.017)  charge=  1.5602  magn=  0.0005
     atom   9 (R=0.017)  charge=  1.5574  magn= -0.0001
     atom  10 (R=0.017)  charge=  1.5572  magn=  0.0001
     atom  11 (R=0.017)  charge=  1.5571  magn=  0.0000
     atom  12 (R=0.017)  charge=  1.5568  magn= -0.0000
     atom  13 (R=0.017)  charge=  1.5493  magn=  0.0002
     atom  14 (R=0.017)  charge=  1.5443  magn= -0.0001
     atom  15 (R=0.017)  charge=  1.5440  magn= -0.0001
     atom  16 (R=0.017)  charge=  1.5452  magn=  0.0002
     atom  17 (R=0.017)  charge=  1.5439  magn= -0.0001
     atom  18 (R=0.017)  charge=  1.5438  magn=  0.0001
     atom  19 (R=0.017)  charge=  1.5444  magn=  0.0001
     atom  20 (R=0.017)  charge=  1.5442  magn= -0.0001
     atom  21 (R=0.017)  charge=  1.6250  magn= -0.0004
     atom  22 (R=0.017)  charge=  1.5535  magn= -0.0000
     atom  23 (R=0.017)  charge=  1.5527  magn= -0.0000
     atom  24 (R=0.017)  charge=  1.5537  magn= -0.0000
     atom  25 (R=0.017)  charge=  1.5528  magn= -0.0000
     atom  26 (R=0.017)  charge=  1.5541  magn=  0.0001
     atom  27 (R=0.017)  charge=  1.5526  magn=  0.0000
     atom  28 (R=0.017)  charge=  1.5535  magn= -0.0000
     atom  29 (R=0.017)  charge=  1.5722  magn= -0.0000
     atom  30 (R=0.017)  charge=  1.5629  magn=  0.0000
     atom  31 (R=0.017)  charge=  1.5631  magn=  0.0000
     atom  32 (R=0.017)  charge=  1.5625  magn= -0.0000
     atom  33 (R=0.017)  charge=  1.5629  magn= -0.0000
     atom  34 (R=0.017)  charge=  1.5628  magn=  0.0000
     atom  35 (R=0.017)  charge=  1.5628  magn=  0.0000
     atom  36 (R=0.017)  charge=  1.5627  magn= -0.0000
     atom  37 (R=0.017)  charge=  1.5420  magn=  0.0005
     atom  38 (R=0.017)  charge=  1.5505  magn= -0.0000
     atom  39 (R=0.017)  charge=  1.5489  magn= -0.0000
     atom  40 (R=0.017)  charge=  1.5504  magn=  0.0000
     atom  41 (R=0.017)  charge=  1.5490  magn= -0.0000
     atom  42 (R=0.017)  charge=  1.5484  magn= -0.0000
     atom  43 (R=0.017)  charge=  1.5491  magn=  0.0000
     atom  44 (R=0.017)  charge=  1.5507  magn= -0.0000
     atom  45 (R=0.017)  charge=  1.5508  magn=  0.0002
     atom  46 (R=0.017)  charge=  1.5510  magn= -0.0002
     atom  47 (R=0.017)  charge=  1.5507  magn= -0.0002
     atom  48 (R=0.017)  charge=  1.5510  magn=  0.0002
     atom  49 (R=0.017)  charge=  1.5511  magn= -0.0001
     atom  50 (R=0.017)  charge=  1.5514  magn=  0.0001
     atom  51 (R=0.017)  charge=  1.5510  magn=  0.0000
     atom  52 (R=0.017)  charge=  1.5512  magn= -0.0000
     atom  53 (R=0.017)  charge=  1.5512  magn=  0.0001
     atom  54 (R=0.017)  charge=  1.5514  magn= -0.0001
     atom  55 (R=0.017)  charge=  1.5511  magn= -0.0001
     atom  56 (R=0.017)  charge=  1.5513  magn=  0.0001
     atom  57 (R=0.017)  charge=  3.6833  magn= -0.0013

     total cpu time spent up to now is      116.5 secs

     End of self-consistent calculation

 ------ SPIN UP ------------


          k = 0.0000 0.0000 0.0000 ( 29096 PWs)   bands (ev):

   -25.9192 -20.5553 -20.5139 -20.4486 -20.3283 -19.7190 -19.6013 -19.4148
   -19.3867 -19.1220 -19.0261 -18.9779 -18.7440 -18.4782 -18.4303 -18.0281
   -17.8862 -17.6331 -17.6114 -17.3810 -16.8682 -16.8106 -16.2093 -16.0386
   -15.8409 -15.4008 -15.2175 -14.8368 -14.4415 -13.6958 -13.1208 -12.9033
   -12.8953 -12.7658 -11.9605 -11.5602 -11.1846 -10.7579 -10.5599 -10.4313
    -9.6787  -9.4144  -9.2476  -8.9662  -8.7480  -8.3260  -8.2394  -7.9893
    -7.8973  -7.8161  -7.7126  -7.4915  -7.3746  -7.3005  -7.2343  -7.0641
    -7.0123  -6.9971  -6.8650  -6.8202  -6.7610  -6.7295  -6.6940  -6.6760
    -6.6524  -6.5373  -6.4730  -6.4611  -6.1941  -6.1771  -6.1238  -6.1109
    -6.0290  -6.0257  -5.9272  -5.7622  -5.5928  -5.5869  -5.4477  -5.3752
    -5.3290  -5.2443  -5.1798  -5.1723  -5.1629  -4.9723  -4.8548  -4.8397
    -4.6582  -4.6575  -4.5669  -4.5351  -4.4045  -4.3752  -4.2411  -4.1133
    -4.0817  -4.0232  -3.9682  -3.7328  -3.7142  -3.5748  -3.5534  -3.4852
    -3.3832  -3.3491  -3.2352  -3.2332  -3.2182  -2.8902  -2.8562  -2.4193
    -0.5873  -0.4929  -0.1685  -0.0922  -0.0054   0.1006   1.8096   1.9735
     2.4989   2.5895   2.6943   2.7820   3.1065   3.2179   3.2718   3.3066
     3.3813   3.4227   3.4816   3.5098   3.7142   3.7668   3.9130   3.9464
     4.0325   4.0813

 ------ SPIN DOWN ----------


          k = 0.0000 0.0000 0.0000 ( 29096 PWs)   bands (ev):

   -25.9202 -20.5550 -20.5141 -20.4487 -20.3280 -19.7190 -19.6013 -19.4148
   -19.3867 -19.1219 -19.0261 -18.9779 -18.7439 -18.4782 -18.4303 -18.0281
   -17.8862 -17.6332 -17.6114 -17.3810 -16.8682 -16.8106 -16.2093 -16.0385
   -15.8409 -15.4008 -15.2175 -14.8370 -14.4415 -13.6958 -13.1207 -12.9033
   -12.8954 -12.7657 -11.9604 -11.5602 -11.1844 -10.7581 -10.5598 -10.4312
    -9.6796  -9.4144  -9.2475  -8.9659  -8.7483  -8.3260  -8.2394  -7.9893
    -7.8973  -7.8160  -7.7126  -7.4915  -7.3745  -7.3005  -7.2342  -7.0640
    -7.0122  -6.9971  -6.8650  -6.8202  -6.7610  -6.7295  -6.6940  -6.6760
    -6.6524  -6.5372  -6.4731  -6.4611  -6.1940  -6.1771  -6.1238  -6.1109
    -6.0291  -6.0258  -5.9272  -5.7622  -5.5929  -5.5869  -5.4476  -5.3752
    -5.3290  -5.2443  -5.1797  -5.1724  -5.1628  -4.9722  -4.8548  -4.8396
    -4.6582  -4.6574  -4.5670  -4.5352  -4.4045  -4.3753  -4.2410  -4.1133
    -4.0817  -4.0232  -3.9682  -3.7327  -3.7142  -3.5747  -3.5534  -3.4851
    -3.3832  -3.3490  -3.2351  -3.2332  -3.2182  -2.8902  -2.8562  -2.4197
    -0.5870  -0.4925  -0.1706  -0.0928  -0.0054   0.1008   1.8095   1.9735
     2.4988   2.5895   2.6943   2.7820   3.1065   3.2179   3.2718   3.3066
     3.3814   3.4227   3.4816   3.5099   3.7142   3.7668   3.9129   3.9464
     4.0325   4.0813

     the spin up/dw Fermi energies are    -0.1278   -0.1278 ev

!    total energy              =   -1068.73294743 Ry
     total all-electron energy =     -4412.369318 Ry
     estimated scf accuracy    <       0.00000056 Ry
     smearing contrib. (-TS)   =      -0.00000000 Ry
     internal energy E=F+TS    =   -1068.73294743 Ry

     The total energy is F=E-TS. E is the sum of the following terms:
     one-electron contribution =   -4244.25501037 Ry
     hartree contribution      =    2183.12289615 Ry
     xc contribution           =    -268.43229409 Ry
     ewald contribution        =    1614.96524843 Ry
     one-center paw contrib.   =    -354.13378755 Ry

     total magnetization       =    -0.00 Bohr mag/cell
     absolute magnetization    =     0.02 Bohr mag/cell

     convergence has been achieved in  36 iterations

     negative rho (up, down):  5.890E-04 5.891E-04

     Forces acting on atoms (cartesian axes, Ry/au):

     atom    1 type  1   force =    -0.11600677   -0.00482797    0.00017536
     atom    2 type  1   force =     0.12513420    0.00001423    0.00112897
     atom    3 type  1   force =    -0.12623887    0.00004385    0.00112953
     atom    4 type  1   force =     0.12598713   -0.00288466    0.00118101
     atom    5 type  1   force =     0.03961254    0.00542638   -0.00052178
     atom    6 type  1   force =    -0.03869352    0.00002234   -0.00120708
     atom    7 type  1   force =     0.03728941    0.00000217   -0.00120695
     atom    8 type  1   force =    -0.03665395   -0.00036514   -0.00130463
     atom    9 type  1   force =    -0.17335574    0.00157643   -0.00152565
     atom   10 type  1   force =     0.17443252    0.00001950   -0.00130275
     atom   11 type  1   force =    -0.17217717   -0.00002859   -0.00130579
     atom   12 type  1   force =     0.17369190    0.00017358   -0.00130889
     atom   13 type  1   force =     0.11651730    0.16005933   -0.00416129
     atom   14 type  1   force =    -0.14143151   -0.17349609    0.00144868
     atom   15 type  1   force =    -0.14141881    0.17355320    0.00144216
     atom   16 type  1   force =     0.13902276   -0.17554982    0.00179089
     atom   17 type  1   force =     0.14264487    0.17423504    0.00144212
     atom   18 type  1   force =    -0.14117170   -0.17186819    0.00057496
     atom   19 type  1   force =    -0.14312748    0.17351776    0.00143257
     atom   20 type  1   force =     0.14264970   -0.17419437    0.00144489
     atom   21 type  1   force =    -0.12946462   -0.01803705   -0.43487611
     atom   22 type  1   force =     0.09326878    0.21630052    0.00133180
     atom   23 type  1   force =     0.09325931   -0.21645642    0.00133569
     atom   24 type  1   force =    -0.09260111    0.21568717    0.00132377
     atom   25 type  1   force =    -0.09263560   -0.21612820    0.00133706
     atom   26 type  1   force =     0.11164916    0.21824573    0.04123860
     atom   27 type  1   force =     0.09233211   -0.21583704    0.00133832
     atom   28 type  1   force =    -0.09264698    0.21597868    0.00133309
     atom   29 type  1   force =    -0.18776810   -0.14126424   -0.00668725
     atom   30 type  1   force =     0.10918815    0.18708401   -0.00141174
     atom   31 type  1   force =     0.10919434   -0.18703191   -0.00140797
     atom   32 type  1   force =    -0.10952982    0.18648003   -0.00151295
     atom   33 type  1   force =    -0.10999765   -0.18738501   -0.00140672
     atom   34 type  1   force =     0.10452580    0.18762257    0.00226311
     atom   35 type  1   force =     0.10842275   -0.18653838   -0.00140387
     atom   36 type  1   force =    -0.10999988    0.18744359   -0.00140903
     atom   37 type  1   force =    -0.24535521    0.17674065   -0.21920015
     atom   38 type  1   force =    -0.09987323   -0.21571370   -0.00133654
     atom   39 type  1   force =    -0.09987338    0.21576497   -0.00133559
     atom   40 type  1   force =     0.09979999   -0.21431456   -0.00130320
     atom   41 type  1   force =     0.09924953    0.21546832   -0.00133646
     atom   42 type  1   force =    -0.10018275   -0.21885143   -0.00967260
     atom   43 type  1   force =    -0.09842459    0.21514031   -0.00133600
     atom   44 type  1   force =     0.09925581   -0.21542282   -0.00133777
     atom   45 type  1   force =     0.17354852   -0.00028403    0.00139238
     atom   46 type  1   force =    -0.17460001   -0.00004800    0.00129877
     atom   47 type  1   force =     0.17218654   -0.00000235    0.00130319
     atom   48 type  1   force =    -0.17380320    0.00019586    0.00130422
     atom   49 type  1   force =    -0.18610333   -0.00045279    0.00129509
     atom   50 type  1   force =     0.18667384   -0.00005788    0.00132639
     atom   51 type  1   force =    -0.18534374    0.00002416    0.00132577
     atom   52 type  1   force =     0.18606126   -0.00002898    0.00132397
     atom   53 type  1   force =     0.19152677    0.00009171   -0.00131399
     atom   54 type  1   force =    -0.19116463    0.00012023   -0.00132874
     atom   55 type  1   force =     0.19074403   -0.00000912   -0.00132514
     atom   56 type  1   force =    -0.19052254   -0.00006634   -0.00132453
     atom   57 type  2   force =     0.46229685   -0.18988728    0.63084882

     Total force =     1.774395     Total SCF correction =     0.000862

     BFGS Geometry Optimization
     Energy error            =      0.0E+00 Ry
     Gradient error          =      6.3E-01 Ry/Bohr

     number of scf cycles    =   1
     number of bfgs steps    =   0

     energy             new  =   -1068.7329474278 Ry

     new trust radius        =       0.5000000000 bohr
     new conv_thr            =       0.0000010000 Ry


ATOMIC_POSITIONS (angstrom)
C             6.1348625053       -0.3835872065        2.4640576484
C            27.4141381592       -0.3819953234        2.4643711509
C            22.5354986788        8.5080144170        2.4643713341
C            11.0094185610        8.5070516611        2.4643882587
C             5.3840227133       -0.3802160654        1.2278284652
C            28.1622794168       -0.3819926540        1.2276031700
C            21.7872589808        8.5080007139        1.2276032126
C            11.7589499296        8.5078799605        1.2275711000
C             3.9160088958       17.3985182560        1.2274984391
C            29.6293450966       -0.3819935893        1.2275717189
C            20.3203963531        8.5079906009        1.2275707182
C            13.2251016179        8.5080570659        1.2275696983
C             7.0813053326        0.9016198768        2.4626319670
C            26.4555040605       16.1099627552        2.4644762576
C            26.4555082364        0.9060560199        2.4644741138
C             7.0887040554       16.1092875895        2.4645887593
C            23.4938948337        9.7962801759        2.4644741004
C            10.0515894742        7.2204979327        2.4641890188
C            10.0509465092        9.7960443687        2.4644709597
C            23.4938964199        7.2197331958        2.4644750115
C             8.2654382050        3.3860702788        2.3210334685
C            25.2676623283       13.6951093004        2.4644378314
C            25.2676592149        3.3208394497        2.4644391108
C             8.2775571680       13.6949076595        2.4644351930
C            24.6815458316       12.2109473520        2.4644395622
C             8.8697049218        4.8057487911        2.4775572857
C             8.8633543969       12.2110430696        2.4644399757
C            24.6815420896        4.8050034928        2.4644382551
C             7.3352708009        1.3855590515        1.2258015521
C            26.1848958591       15.6455043028        1.2275358872
C            26.1848978940        1.3705128236        1.2275371251
C             7.3609918184       15.6453057439        1.2275026127
C            23.7648380182       10.2603967435        1.2275375375
C             9.7793631006        6.7556813559        1.2287440018
C             9.7806442327       10.2606750727        1.2275384744
C            23.7648372842        6.7556225173        1.2275367783
C             7.9543389048        2.7911039004        1.1559374392
C            25.4781664447       14.2120836196        1.2275606101
C            25.4781663949        2.8039332366        1.2275609230
C             8.0678094777       14.2125435883        1.2275715710
C            24.4716285150       11.6938357123        1.2275606361
C             9.0730646865        5.3210520839        1.2248201089
C             9.0736426866       11.6937278785        1.2275607862
C            24.4716305792        5.3221792472        1.2275602050
C             3.2930544811       17.3979066256        2.4644577470
C            30.2525998399       17.3979842196        2.4644269728
C            19.6966067269        8.5079992263        2.4644284267
C            13.8488617944        8.5080643909        2.4644287640
C             1.7488180963       17.3978511441        2.4644257643
C            31.7963694578       17.3979809723        2.4644360549
C            18.1530678157        8.5080079422        2.4644358485
C            15.3921680711        8.5079904724        2.4644352582
C             1.1459648706       17.3980301496        1.2275680220
C            32.3991541832       17.3980395258        1.2275631734
C            17.5497075421        8.5079970016        1.2275643580
C            15.9953652706        8.5079781911        1.2275645582
O             9.0669811666        2.1065741153        2.6833930183



     Writing config-only to output data dir ./pwscf.save/
     NEW-OLD atomic charge density approx. for the potential

     Check: negative core charge=   -0.000003

     negative rho (up, down):  5.994E-04 6.001E-04
     Generating pointlists ...
     new r_m :   0.0168 (alat units)  1.0446 (a.u.) for type    1

     total cpu time spent up to now is      124.4 secs

     Self-consistent Calculation

     iteration #  1     ecut=    50.00 Ry     beta= 0.30
     Davidson diagonalization with overlap
     c_bands:  3 eigenvalues not converged
     ethr =  1.00E-06,  avg # of iterations = 20.0

     negative rho (up, down):  6.024E-04 6.026E-04

     total cpu time spent up to now is      134.9 secs

     total energy              =   -1070.00414099 Ry
     estimated scf accuracy    <       0.43388543 Ry

     total magnetization       =    -0.00 Bohr mag/cell
     absolute magnetization    =     0.01 Bohr mag/cell

     iteration #  2     ecut=    50.00 Ry     beta= 0.30
     Davidson diagonalization with overlap
     ethr =  1.89E-04,  avg # of iterations =  3.0

     negative rho (up, down):  6.753E-04 6.757E-04

     total cpu time spent up to now is      138.3 secs

     total energy              =   -1069.91680406 Ry
     estimated scf accuracy    <       1.10784876 Ry

     total magnetization       =     0.00 Bohr mag/cell
     absolute magnetization    =     0.01 Bohr mag/cell

     iteration #  3     ecut=    50.00 Ry     beta= 0.30
     Davidson diagonalization with overlap
     ethr =  1.89E-04,  avg # of iterations =  8.5

     negative rho (up, down):  6.596E-04 6.599E-04

     total cpu time spent up to now is      141.9 secs

     total energy              =   -1069.97566761 Ry
     estimated scf accuracy    <       2.66797698 Ry

     total magnetization       =    -0.00 Bohr mag/cell
     absolute magnetization    =     0.01 Bohr mag/cell

     iteration #  4     ecut=    50.00 Ry     beta= 0.30
     Davidson diagonalization with overlap
     ethr =  1.89E-04,  avg # of iterations =  3.0

     negative rho (up, down):  7.198E-04 7.202E-04

     total cpu time spent up to now is      145.2 secs

     total energy              =   -1069.95552958 Ry
     estimated scf accuracy    <       1.21130903 Ry

     total magnetization       =     0.00 Bohr mag/cell
     absolute magnetization    =     0.01 Bohr mag/cell

     iteration #  5     ecut=    50.00 Ry     beta= 0.30
     Davidson diagonalization with overlap
     ethr =  1.89E-04,  avg # of iterations =  1.0

     negative rho (up, down):  6.039E-04 6.039E-04

     total cpu time spent up to now is      148.3 secs

     total energy              =   -1069.95760054 Ry
     estimated scf accuracy    <       0.61244912 Ry

     total magnetization       =     0.00 Bohr mag/cell
     absolute magnetization    =     0.01 Bohr mag/cell

     iteration #  6     ecut=    50.00 Ry     beta= 0.30
     Davidson diagonalization with overlap
     ethr =  1.89E-04,  avg # of iterations =  2.0

     negative rho (up, down):  6.025E-04 6.025E-04

     total cpu time spent up to now is      151.5 secs

     total energy              =   -1069.96064499 Ry
     estimated scf accuracy    <       0.47467629 Ry

     total magnetization       =    -0.00 Bohr mag/cell
     absolute magnetization    =     0.00 Bohr mag/cell

     iteration #  7     ecut=    50.00 Ry     beta= 0.30
     Davidson diagonalization with overlap
     ethr =  1.89E-04,  avg # of iterations =  1.0

     negative rho (up, down):  6.020E-04 6.020E-04

     total cpu time spent up to now is      154.5 secs

     total energy              =   -1069.97513759 Ry
     estimated scf accuracy    <       0.44748008 Ry

     total magnetization       =    -0.00 Bohr mag/cell
     absolute magnetization    =     0.00 Bohr mag/cell

     iteration #  8     ecut=    50.00 Ry     beta= 0.30
     Davidson diagonalization with overlap
     ethr =  1.89E-04,  avg # of iterations =  1.0

     negative rho (up, down):  6.030E-04 6.030E-04

     total cpu time spent up to now is      157.6 secs

     total energy              =   -1069.98021408 Ry
     estimated scf accuracy    <       0.00716012 Ry

     total magnetization       =    -0.00 Bohr mag/cell
     absolute magnetization    =     0.01 Bohr mag/cell

     iteration #  9     ecut=    50.00 Ry     beta= 0.30
     Davidson diagonalization with overlap
     ethr =  3.11E-06,  avg # of iterations = 15.0

     negative rho (up, down):  6.031E-04 6.031E-04

     total cpu time spent up to now is      161.7 secs

     total energy              =   -1069.97706592 Ry
     estimated scf accuracy    <       0.08436931 Ry

     total magnetization       =     0.00 Bohr mag/cell
     absolute magnetization    =     0.01 Bohr mag/cell

     iteration # 10     ecut=    50.00 Ry     beta= 0.30
     Davidson diagonalization with overlap
     ethr =  3.11E-06,  avg # of iterations =  6.0

     negative rho (up, down):  6.022E-04 6.023E-04

     total cpu time spent up to now is      165.2 secs

     total energy              =   -1069.97864188 Ry
     estimated scf accuracy    <       0.05531474 Ry

     total magnetization       =    -0.00 Bohr mag/cell
     absolute magnetization    =     0.01 Bohr mag/cell

     iteration # 11     ecut=    50.00 Ry     beta= 0.30
     Davidson diagonalization with overlap
     ethr =  3.11E-06,  avg # of iterations =  2.0

     negative rho (up, down):  6.017E-04 6.017E-04

     total cpu time spent up to now is      168.4 secs

     total energy              =   -1069.97963223 Ry
     estimated scf accuracy    <       0.01176255 Ry

     total magnetization       =     0.00 Bohr mag/cell
     absolute magnetization    =     0.01 Bohr mag/cell

     iteration # 12     ecut=    50.00 Ry     beta= 0.30
     Davidson diagonalization with overlap
     ethr =  3.11E-06,  avg # of iterations =  1.0

     negative rho (up, down):  6.014E-04 6.014E-04

     total cpu time spent up to now is      171.5 secs

     total energy              =   -1069.97984508 Ry
     estimated scf accuracy    <       0.00145747 Ry

     total magnetization       =     0.00 Bohr mag/cell
     absolute magnetization    =     0.02 Bohr mag/cell

     iteration # 13     ecut=    50.00 Ry     beta= 0.30
     Davidson diagonalization with overlap
     ethr =  6.34E-07,  avg # of iterations =  1.0

     negative rho (up, down):  6.014E-04 6.014E-04

     total cpu time spent up to now is      174.5 secs

     total energy              =   -1069.97988444 Ry
     estimated scf accuracy    <       0.00099640 Ry

     total magnetization       =    -0.00 Bohr mag/cell
     absolute magnetization    =     0.03 Bohr mag/cell

     iteration # 14     ecut=    50.00 Ry     beta= 0.30
     Davidson diagonalization with overlap
     ethr =  4.33E-07,  avg # of iterations =  1.0

     negative rho (up, down):  6.013E-04 6.013E-04

     total cpu time spent up to now is      177.6 secs

     total energy              =   -1069.97990019 Ry
     estimated scf accuracy    <       0.00000361 Ry

     total magnetization       =     0.00 Bohr mag/cell
     absolute magnetization    =     0.04 Bohr mag/cell

     iteration # 15     ecut=    50.00 Ry     beta= 0.30
     Davidson diagonalization with overlap
     ethr =  1.57E-09,  avg # of iterations =  5.0

     negative rho (up, down):  6.012E-04 6.012E-04

     total cpu time spent up to now is      181.1 secs

     total energy              =   -1069.97989967 Ry
     estimated scf accuracy    <       0.00000204 Ry

     total magnetization       =     0.00 Bohr mag/cell
     absolute magnetization    =     0.05 Bohr mag/cell

     iteration # 16     ecut=    50.00 Ry     beta= 0.30
     Davidson diagonalization with overlap
     ethr =  8.85E-10,  avg # of iterations =  2.0

     negative rho (up, down):  6.012E-04 6.012E-04

     total cpu time spent up to now is      184.3 secs

     total energy              =   -1069.97989916 Ry
     estimated scf accuracy    <       0.00000217 Ry

     total magnetization       =     0.00 Bohr mag/cell
     absolute magnetization    =     0.04 Bohr mag/cell

     iteration # 17     ecut=    50.00 Ry     beta= 0.30
     Davidson diagonalization with overlap
     ethr =  8.85E-10,  avg # of iterations =  1.0

     negative rho (up, down):  6.012E-04 6.013E-04

     total cpu time spent up to now is      187.4 secs

     total energy              =   -1069.97989742 Ry
     estimated scf accuracy    <       0.00000166 Ry

     total magnetization       =     0.00 Bohr mag/cell
     absolute magnetization    =     0.03 Bohr mag/cell

     iteration # 18     ecut=    50.00 Ry     beta= 0.30
     Davidson diagonalization with overlap
     ethr =  7.22E-10,  avg # of iterations =  5.0

     negative rho (up, down):  6.013E-04 6.014E-04

     Magnetic moment per site  (integrated on atomic sphere of radius R)
     atom   1 (R=0.017)  charge=  1.4830  magn=  0.0000
     atom   2 (R=0.017)  charge=  1.4832  magn= -0.0000
     atom   3 (R=0.017)  charge=  1.4833  magn=  0.0000
     atom   4 (R=0.017)  charge=  1.4825  magn= -0.0000
     atom   5 (R=0.017)  charge=  1.4890  magn= -0.0002
     atom   6 (R=0.017)  charge=  1.4920  magn=  0.0005
     atom   7 (R=0.017)  charge=  1.4918  magn= -0.0005
     atom   8 (R=0.017)  charge=  1.4919  magn=  0.0002
     atom   9 (R=0.017)  charge=  1.5036  magn=  0.0000
     atom  10 (R=0.017)  charge=  1.5033  magn= -0.0000
     atom  11 (R=0.017)  charge=  1.5033  magn=  0.0000
     atom  12 (R=0.017)  charge=  1.5033  magn= -0.0000
     atom  13 (R=0.017)  charge=  1.5105  magn= -0.0001
     atom  14 (R=0.017)  charge=  1.5067  magn=  0.0002
     atom  15 (R=0.017)  charge=  1.5061  magn=  0.0002
     atom  16 (R=0.017)  charge=  1.5063  magn= -0.0001
     atom  17 (R=0.017)  charge=  1.5060  magn= -0.0002
     atom  18 (R=0.017)  charge=  1.5071  magn=  0.0001
     atom  19 (R=0.017)  charge=  1.5058  magn=  0.0001
     atom  20 (R=0.017)  charge=  1.5066  magn= -0.0002
     atom  21 (R=0.017)  charge=  1.4832  magn= -0.0000
     atom  22 (R=0.017)  charge=  1.5023  magn= -0.0000
     atom  23 (R=0.017)  charge=  1.5022  magn= -0.0000
     atom  24 (R=0.017)  charge=  1.5021  magn=  0.0000
     atom  25 (R=0.017)  charge=  1.5023  magn=  0.0000
     atom  26 (R=0.017)  charge=  1.5098  magn= -0.0000
     atom  27 (R=0.017)  charge=  1.5020  magn= -0.0000
     atom  28 (R=0.017)  charge=  1.5024  magn=  0.0000
     atom  29 (R=0.017)  charge=  1.5202  magn= -0.0000
     atom  30 (R=0.017)  charge=  1.5101  magn= -0.0000
     atom  31 (R=0.017)  charge=  1.5114  magn= -0.0000
     atom  32 (R=0.017)  charge=  1.5100  magn=  0.0000
     atom  33 (R=0.017)  charge=  1.5114  magn=  0.0000
     atom  34 (R=0.017)  charge=  1.5087  magn= -0.0000
     atom  35 (R=0.017)  charge=  1.5113  magn= -0.0000
     atom  36 (R=0.017)  charge=  1.5102  magn=  0.0000
     atom  37 (R=0.017)  charge=  1.4912  magn= -0.0000
     atom  38 (R=0.017)  charge=  1.5025  magn=  0.0001
     atom  39 (R=0.017)  charge=  1.5019  magn=  0.0001
     atom  40 (R=0.017)  charge=  1.5019  magn= -0.0000
     atom  41 (R=0.017)  charge=  1.5018  magn= -0.0001
     atom  42 (R=0.017)  charge=  1.5049  magn=  0.0000
     atom  43 (R=0.017)  charge=  1.5016  magn=  0.0000
     atom  44 (R=0.017)  charge=  1.5025  magn= -0.0001
     atom  45 (R=0.017)  charge=  1.4936  magn= -0.0001
     atom  46 (R=0.017)  charge=  1.4941  magn=  0.0001
     atom  47 (R=0.017)  charge=  1.4938  magn= -0.0002
     atom  48 (R=0.017)  charge=  1.4939  magn=  0.0001
     atom  49 (R=0.017)  charge=  1.4961  magn=  0.0000
     atom  50 (R=0.017)  charge=  1.4961  magn= -0.0000
     atom  51 (R=0.017)  charge=  1.4959  magn=  0.0000
     atom  52 (R=0.017)  charge=  1.4959  magn= -0.0000
     atom  53 (R=0.017)  charge=  1.4950  magn= -0.0000
     atom  54 (R=0.017)  charge=  1.4951  magn=  0.0000
     atom  55 (R=0.017)  charge=  1.4949  magn= -0.0000
     atom  56 (R=0.017)  charge=  1.4949  magn=  0.0000
     atom  57 (R=0.017)  charge=  3.5507  magn= -0.0000

     total cpu time spent up to now is      190.9 secs

     End of self-consistent calculation

 ------ SPIN UP ------------


          k = 0.0000 0.0000 0.0000 ( 29096 PWs)   bands (ev):

   -23.5126 -20.3488 -20.3380 -20.1337 -20.1300 -19.9759 -19.7312 -19.4324
   -19.3641 -19.1446 -18.8836 -18.7421 -18.6457 -18.3130 -18.1915 -17.9308
   -17.8285 -17.8273 -17.4283 -17.2460 -16.8021 -16.5781 -16.2907 -16.0525
   -15.8392 -15.6087 -15.0888 -14.9762 -14.5441 -12.7642 -12.3556 -12.1417
   -12.1377 -12.1200 -11.2217 -10.8367 -10.3944 -10.1389  -9.7966  -9.7005
    -8.6619  -8.6022  -8.5434  -8.3856  -8.2256  -8.1652  -8.1618  -8.1413
    -8.1390  -8.1047  -8.0492  -7.9945  -7.9297  -7.8155  -7.7477  -7.6763
    -7.5763  -7.3922  -7.2098  -7.1417  -7.0899  -7.0839  -6.9649  -6.9198
    -6.8921  -6.8641  -6.7544  -6.7298  -6.6841  -6.5824  -6.4864  -6.4239
    -6.4015  -6.3883  -6.3351  -6.3122  -6.2254  -6.2166  -6.1790  -6.0219
    -5.9839  -5.9218  -5.6050  -5.4542  -5.3612  -5.3123  -5.2976  -5.2180
    -5.1677  -4.8562  -4.6759  -4.6254  -4.6184  -4.5772  -4.4384  -4.1637
    -4.0629  -4.0247  -3.8739  -3.8562  -3.8424  -3.7487  -3.7343  -3.4744
    -3.0700  -3.0406  -2.6135  -2.5293  -2.2138  -2.0981  -1.9325  -1.6768
    -1.5014   0.1702   0.3768   0.5757   0.7884   1.4601   2.5870   2.6434
     3.0192   3.0825   3.1274   3.1811   3.3016   3.3433   3.3701   3.5244
     3.6058   3.6963   3.7456   3.8482   3.9303   3.9856   4.1071   4.2092
     4.2242   4.3345

 ------ SPIN DOWN ----------


          k = 0.0000 0.0000 0.0000 ( 29096 PWs)   bands (ev):

   -23.5126 -20.3488 -20.3380 -20.1337 -20.1300 -19.9759 -19.7313 -19.4324
   -19.3641 -19.1446 -18.8836 -18.7421 -18.6457 -18.3130 -18.1915 -17.9308
   -17.8285 -17.8273 -17.4283 -17.2460 -16.8021 -16.5781 -16.2907 -16.0525
   -15.8393 -15.6087 -15.0888 -14.9762 -14.5441 -12.7642 -12.3556 -12.1417
   -12.1377 -12.1200 -11.2217 -10.8367 -10.3944 -10.1389  -9.7966  -9.7005
    -8.6619  -8.6022  -8.5434  -8.3856  -8.2256  -8.1652  -8.1618  -8.1413
    -8.1390  -8.1047  -8.0492  -7.9945  -7.9297  -7.8155  -7.7477  -7.6763
    -7.5763  -7.3922  -7.2098  -7.1417  -7.0899  -7.0839  -6.9649  -6.9198
    -6.8921  -6.8641  -6.7543  -6.7298  -6.6841  -6.5824  -6.4864  -6.4239
    -6.4015  -6.3883  -6.3351  -6.3122  -6.2254  -6.2166  -6.1790  -6.0219
    -5.9839  -5.9219  -5.6050  -5.4542  -5.3612  -5.3124  -5.2976  -5.2179
    -5.1677  -4.8562  -4.6758  -4.6254  -4.6184  -4.5771  -4.4384  -4.1637
    -4.0629  -4.0247  -3.8739  -3.8562  -3.8424  -3.7486  -3.7344  -3.4744
    -3.0700  -3.0406  -2.6135  -2.5293  -2.2139  -2.0981  -1.9326  -1.6768
    -1.5014   0.1702   0.3768   0.5757   0.7884   1.4601   2.5870   2.6434
     3.0192   3.0826   3.1274   3.1811   3.3016   3.3434   3.3701   3.5244
     3.6058   3.6963   3.7456   3.8482   3.9303   3.9856   4.1072   4.2092
     4.2242   4.3345

     the spin up/dw Fermi energies are     0.4283    0.4283 ev

!    total energy              =   -1069.97989839 Ry
     total all-electron energy =     -4413.616269 Ry
     estimated scf accuracy    <       0.00000035 Ry
     smearing contrib. (-TS)   =      -0.00000000 Ry
     internal energy E=F+TS    =   -1069.97989839 Ry

     The total energy is F=E-TS. E is the sum of the following terms:
     one-electron contribution =   -4227.74785359 Ry
     hartree contribution      =    2175.23496317 Ry
     xc contribution           =    -268.67485661 Ry
     ewald contribution        =    1605.36727145 Ry
     one-center paw contrib.   =    -354.15942281 Ry

     total magnetization       =    -0.00 Bohr mag/cell
     absolute magnetization    =     0.01 Bohr mag/cell

     convergence has been achieved in  18 iterations

     negative rho (up, down):  6.013E-04 6.014E-04

     Forces acting on atoms (cartesian axes, Ry/au):

     atom    1 type  1   force =    -0.15484867    0.00094782   -0.00059775
     atom    2 type  1   force =     0.16293035    0.00006211   -0.00061130
     atom    3 type  1   force =    -0.16388186    0.00004203   -0.00061250
     atom    4 type  1   force =     0.16340779   -0.00724720   -0.00148962
     atom    5 type  1   force =     0.05204120   -0.00447630   -0.00061630
     atom    6 type  1   force =    -0.04659215    0.00003287    0.00064658
     atom    7 type  1   force =     0.04746547    0.00007644    0.00064706
     atom    8 type  1   force =    -0.04696726    0.00060701    0.00101459
     atom    9 type  1   force =    -0.08229188   -0.00103482    0.00163344
     atom   10 type  1   force =     0.08533764   -0.00000229    0.00120578
     atom   11 type  1   force =    -0.08670239    0.00004028    0.00121383
     atom   12 type  1   force =     0.08659627    0.00185629    0.00112833
     atom   13 type  1   force =     0.05258603    0.07163562   -0.00495872
     atom   14 type  1   force =    -0.09380622   -0.07898751   -0.00172218
     atom   15 type  1   force =    -0.09382373    0.07885819   -0.00170578
     atom   16 type  1   force =     0.08971109   -0.08836307   -0.00230642
     atom   17 type  1   force =     0.09413908    0.07875972   -0.00170482
     atom   18 type  1   force =    -0.09135750   -0.07422725    0.00588465
     atom   19 type  1   force =    -0.09487849    0.08075021   -0.00162973
     atom   20 type  1   force =     0.09415328   -0.07892202   -0.00171338
     atom   21 type  1   force =     0.06693203   -0.18590493    0.02123781
     atom   22 type  1   force =     0.03460160    0.08285837   -0.00138730
     atom   23 type  1   force =     0.03458957   -0.08266600   -0.00139146
     atom   24 type  1   force =    -0.03483154    0.08506386   -0.00132263
     atom   25 type  1   force =    -0.03430065   -0.08275424   -0.00139486
     atom   26 type  1   force =     0.04114673    0.06005358   -0.09895414
     atom   27 type  1   force =     0.03423443   -0.08410072   -0.00140205
     atom   28 type  1   force =    -0.03432593    0.08297387   -0.00139154
     atom   29 type  1   force =    -0.12431022   -0.06075247    0.00470656
     atom   30 type  1   force =     0.03062706    0.08489714    0.00170106
     atom   31 type  1   force =     0.03063233   -0.08499110    0.00168475
     atom   32 type  1   force =    -0.03289104    0.08600318    0.00230092
     atom   33 type  1   force =    -0.03083938   -0.08497737    0.00168251
     atom   34 type  1   force =     0.02457228    0.08036491   -0.01101194
     atom   35 type  1   force =     0.03097957   -0.08637765    0.00164431
     atom   36 type  1   force =    -0.03085129    0.08489372    0.00169247
     atom   37 type  1   force =     0.00627337   -0.04087084   -0.26289008
     atom   38 type  1   force =    -0.03736448   -0.09130321    0.00138026
     atom   39 type  1   force =    -0.03736994    0.09118019    0.00138888
     atom   40 type  1   force =     0.04034150   -0.09163588    0.00129297
     atom   41 type  1   force =     0.03709025    0.09137915    0.00139207
     atom   42 type  1   force =    -0.02749714   -0.06940067    0.08032039
     atom   43 type  1   force =    -0.03762265    0.09303582    0.00140039
     atom   44 type  1   force =     0.03709585   -0.09153610    0.00138377
     atom   45 type  1   force =     0.05861032    0.00076867   -0.00160100
     atom   46 type  1   force =    -0.05811823    0.00005319   -0.00119382
     atom   47 type  1   force =     0.05915493   -0.00001012   -0.00120233
     atom   48 type  1   force =    -0.05897854   -0.00006753   -0.00118206
     atom   49 type  1   force =    -0.06731212    0.00024365   -0.00119767
     atom   50 type  1   force =     0.06722367    0.00008019   -0.00129198
     atom   51 type  1   force =    -0.06830697    0.00000115   -0.00128238
     atom   52 type  1   force =     0.06809507   -0.00045831   -0.00128947
     atom   53 type  1   force =     0.07051192   -0.00011577    0.00122027
     atom   54 type  1   force =    -0.07019930   -0.00002006    0.00129539
     atom   55 type  1   force =     0.07120195    0.00018056    0.00128140
     atom   56 type  1   force =    -0.07110269    0.00008595    0.00128119
     atom   57 type  2   force =     0.03908963    0.23341766    0.26739359

     Total force =     0.870037     Total SCF correction =     0.001468
     Energy error            =      1.2E+00 Ry
     Gradient error          =      2.7E-01 Ry/Bohr

     number of scf cycles    =   2
     number of bfgs steps    =   1

     energy             old  =   -1068.7329474278 Ry
     energy             new  =   -1069.9798983865 Ry

     CASE: energy            _new < energy            _old

     new trust radius        =       0.5823801299 bohr
     new conv_thr            =       0.0000010000 Ry


ATOMIC_POSITIONS (angstrom)
C             6.0031191006       -0.3829382844        2.4635668097
C            27.5528447455       -0.3819433999        2.4638961869
C            22.3959714187        8.5080505232        2.4638953961
C            11.1485454238        8.5009581883        2.4631862269
C             5.4283165248       -0.3837747887        1.2273024202
C            28.1225316424       -0.3819647522        1.2281051730
C            21.8276912359        8.5080641826        1.2281056155
C            11.7189490007        8.5083730838        1.2283755932
C             3.8428195518       17.3977047181        1.2288099717
C            29.7050914736       -0.3819949372        1.2285348491
C            20.2435820705        8.5080232035        1.2285404392
C            13.3018709539        8.5096017643        1.2284684149
C             7.1282378896        0.9655919176        2.4584004547
C            26.3736715135       16.0395103463        2.4630889253
C            26.3736615301        0.9764027859        2.4631002055
C             7.1670712527       16.0309998917        2.4627265409
C            23.5760379821        9.8665646450        2.4631009834
C             9.9717954976        7.1540403814        2.4690865972
C             9.9681763059        9.8679595256        2.4631598617
C            23.5760514889        7.1493152570        2.4630948724
C             8.3172759763        3.2313519587        2.3262840717
C            25.2990159769       13.7699896938        2.4633249549
C            25.2990026164        3.2461141987        2.4633228972
C             8.2460317682       13.7716000306        2.4633757302
C            24.6504598194       12.1361582390        2.4633205697
C             8.9070103145        4.8617682554        2.3966489041
C             8.8943768505       12.1351453523        2.4633150507
C            24.6504347813        4.8799705368        2.4633218968
C             7.2268180342        1.3311488686        1.2295154196
C            26.2134053590       15.7212450366        1.2289067455
C            26.2134119449        1.2946956249        1.2288945635
C             7.3305946648       15.7219467525        1.2293681675
C            23.7361293784       10.1845808994        1.2288931542
C             9.8027176752        6.8276779911        1.2196741078
C             9.8094243697       10.1837217895        1.2288624857
C            23.7361187081        6.8313706445        1.2289005908
C             7.9525658124        2.7622278124        0.9316409208
C            25.4443332249       14.1302150412        1.2286675073
C            25.4443286438        2.8857012262        1.2286749997
C             8.1041100102       14.1304388568        1.2286070144
C            24.5052165298       11.7757603007        1.2286773340
C             9.0474074791        5.2572621269        1.2911696540
C             9.0396365099       11.7770173247        1.2286844013
C            24.5052234162        5.2401257663        1.2286699852
C             3.3466058018       17.3985361533        2.4631693336
C            30.1994268010       17.3980269791        2.4634736441
C            19.7505710597        8.5079907610        2.4634681722
C            13.7949978030        8.5080139428        2.4634853455
C             1.6876917617       17.3980403713        2.4634691411
C            31.8574386471       17.3980458451        2.4634020953
C            18.0911378716        8.5080095823        2.4634098303
C            15.4539426585        8.5076094902        2.4634033116
C             1.2098996135       17.3979367315        1.2285428573
C            32.3354890565       17.3980263061        1.2285998977
C            17.6141923901        8.5081465161        1.2285895766
C            15.9309690562        8.5080475953        1.2285896226
O             9.1125510126        2.2947911464        2.9231305080



     Writing config-only to output data dir ./pwscf.save/
     NEW-OLD atomic charge density approx. for the potential

     Check: negative core charge=   -0.000003

     negative rho (up, down):  6.282E-04 6.281E-04
     Generating pointlists ...
     new r_m :   0.0149 (alat units)  0.9217 (a.u.) for type    1
     new r_m :   0.0168 (alat units)  1.0446 (a.u.) for type    2

     total cpu time spent up to now is      199.1 secs

     Self-consistent Calculation

     iteration #  1     ecut=    50.00 Ry     beta= 0.30
     Davidson diagonalization with overlap
     ethr =  1.00E-06,  avg # of iterations = 35.0

     negative rho (up, down):  6.054E-04 6.053E-04

     total cpu time spent up to now is      212.2 secs

     total energy              =   -1070.93097531 Ry
     estimated scf accuracy    <       0.67199575 Ry

     total magnetization       =    -0.00 Bohr mag/cell
     absolute magnetization    =     0.00 Bohr mag/cell

     iteration #  2     ecut=    50.00 Ry     beta= 0.30
     Davidson diagonalization with overlap
     ethr =  2.92E-04,  avg # of iterations =  7.0

     negative rho (up, down):  5.914E-04 5.914E-04

     total cpu time spent up to now is      215.8 secs

     total energy              =   -1070.89725203 Ry
     estimated scf accuracy    <       0.25953055 Ry

     total magnetization       =     0.00 Bohr mag/cell
     absolute magnetization    =     0.00 Bohr mag/cell

     iteration #  3     ecut=    50.00 Ry     beta= 0.30
     Davidson diagonalization with overlap
     ethr =  1.13E-04,  avg # of iterations =  6.0

     negative rho (up, down):  5.891E-04 5.890E-04

     total cpu time spent up to now is      219.3 secs

     total energy              =   -1070.88226184 Ry
     estimated scf accuracy    <       0.17240521 Ry

     total magnetization       =    -0.00 Bohr mag/cell
     absolute magnetization    =     0.00 Bohr mag/cell

     iteration #  4     ecut=    50.00 Ry     beta= 0.30
     Davidson diagonalization with overlap
     ethr =  7.50E-05,  avg # of iterations =  5.0

     negative rho (up, down):  6.002E-04 6.002E-04

     total cpu time spent up to now is      222.7 secs

     total energy              =   -1070.89322826 Ry
     estimated scf accuracy    <       0.02363497 Ry

     total magnetization       =    -0.00 Bohr mag/cell
     absolute magnetization    =     0.00 Bohr mag/cell

     iteration #  5     ecut=    50.00 Ry     beta= 0.30
     Davidson diagonalization with overlap
     ethr =  1.03E-05,  avg # of iterations = 13.0

     negative rho (up, down):  5.902E-04 5.902E-04

     total cpu time spent up to now is      226.9 secs

     total energy              =   -1070.89497909 Ry
     estimated scf accuracy    <       0.02458127 Ry

     total magnetization       =    -0.00 Bohr mag/cell
     absolute magnetization    =     0.00 Bohr mag/cell

     iteration #  6     ecut=    50.00 Ry     beta= 0.30
     Davidson diagonalization with overlap
     ethr =  1.03E-05,  avg # of iterations =  9.5

     negative rho (up, down):  5.868E-04 5.868E-04

     total cpu time spent up to now is      230.6 secs

     total energy              =   -1070.89730912 Ry
     estimated scf accuracy    <       0.00314153 Ry

     total magnetization       =     0.00 Bohr mag/cell
     absolute magnetization    =     0.00 Bohr mag/cell

     iteration #  7     ecut=    50.00 Ry     beta= 0.30
     Davidson diagonalization with overlap
     ethr =  1.37E-06,  avg # of iterations =  7.5

     negative rho (up, down):  5.886E-04 5.886E-04

     total cpu time spent up to now is      234.2 secs

     total energy              =   -1070.89741160 Ry
     estimated scf accuracy    <       0.00116464 Ry

     total magnetization       =    -0.00 Bohr mag/cell
     absolute magnetization    =     0.00 Bohr mag/cell

     iteration #  8     ecut=    50.00 Ry     beta= 0.30
     Davidson diagonalization with overlap
     ethr =  5.06E-07,  avg # of iterations =  2.0

     negative rho (up, down):  5.934E-04 5.934E-04

     total cpu time spent up to now is      237.5 secs

     total energy              =   -1070.89748287 Ry
     estimated scf accuracy    <       0.00066061 Ry

     total magnetization       =    -0.00 Bohr mag/cell
     absolute magnetization    =     0.00 Bohr mag/cell

     iteration #  9     ecut=    50.00 Ry     beta= 0.30
     Davidson diagonalization with overlap
     ethr =  2.87E-07,  avg # of iterations =  2.0

     negative rho (up, down):  5.932E-04 5.931E-04

     total cpu time spent up to now is      240.7 secs

     total energy              =   -1070.89753855 Ry
     estimated scf accuracy    <       0.00007030 Ry

     total magnetization       =    -0.00 Bohr mag/cell
     absolute magnetization    =     0.00 Bohr mag/cell

     iteration # 10     ecut=    50.00 Ry     beta= 0.30
     Davidson diagonalization with overlap
     ethr =  3.06E-08,  avg # of iterations =  4.0

     negative rho (up, down):  5.916E-04 5.916E-04

     total cpu time spent up to now is      244.2 secs

     total energy              =   -1070.89754774 Ry
     estimated scf accuracy    <       0.00001890 Ry

     total magnetization       =     0.00 Bohr mag/cell
     absolute magnetization    =     0.00 Bohr mag/cell

     iteration # 11     ecut=    50.00 Ry     beta= 0.30
     Davidson diagonalization with overlap
     ethr =  8.22E-09,  avg # of iterations =  4.0

     negative rho (up, down):  5.906E-04 5.905E-04

     total cpu time spent up to now is      247.7 secs

     total energy              =   -1070.89755002 Ry
     estimated scf accuracy    <       0.00000913 Ry

     total magnetization       =     0.00 Bohr mag/cell
     absolute magnetization    =     0.00 Bohr mag/cell

     iteration # 12     ecut=    50.00 Ry     beta= 0.30
     Davidson diagonalization with overlap
     ethr =  3.97E-09,  avg # of iterations =  2.0

     negative rho (up, down):  5.901E-04 5.901E-04

     total cpu time spent up to now is      251.0 secs

     total energy              =   -1070.89755150 Ry
     estimated scf accuracy    <       0.00000109 Ry

     total magnetization       =     0.00 Bohr mag/cell
     absolute magnetization    =     0.00 Bohr mag/cell

     iteration # 13     ecut=    50.00 Ry     beta= 0.30
     Davidson diagonalization with overlap
     ethr =  4.74E-10,  avg # of iterations =  4.0

     negative rho (up, down):  5.896E-04 5.896E-04

     Magnetic moment per site  (integrated on atomic sphere of radius R)
     atom   1 (R=0.015)  charge=  1.0935  magn=  0.0000
     atom   2 (R=0.015)  charge=  1.0933  magn= -0.0000
     atom   3 (R=0.015)  charge=  1.0935  magn=  0.0000
     atom   4 (R=0.015)  charge=  1.0926  magn= -0.0000
     atom   5 (R=0.015)  charge=  1.1092  magn= -0.0000
     atom   6 (R=0.015)  charge=  1.1092  magn=  0.0000
     atom   7 (R=0.015)  charge=  1.1094  magn= -0.0000
     atom   8 (R=0.015)  charge=  1.1092  magn=  0.0000
     atom   9 (R=0.015)  charge=  1.1065  magn=  0.0000
     atom  10 (R=0.015)  charge=  1.1082  magn= -0.0000
     atom  11 (R=0.015)  charge=  1.1083  magn=  0.0000
     atom  12 (R=0.015)  charge=  1.1081  magn= -0.0000
     atom  13 (R=0.015)  charge=  1.1255  magn= -0.0000
     atom  14 (R=0.015)  charge=  1.1254  magn=  0.0000
     atom  15 (R=0.015)  charge=  1.1255  magn=  0.0000
     atom  16 (R=0.015)  charge=  1.1278  magn= -0.0000
     atom  17 (R=0.015)  charge=  1.1256  magn= -0.0000
     atom  18 (R=0.015)  charge=  1.1230  magn=  0.0000
     atom  19 (R=0.015)  charge=  1.1266  magn=  0.0000
     atom  20 (R=0.015)  charge=  1.1255  magn= -0.0000
     atom  21 (R=0.015)  charge=  1.1350  magn=  0.0000
     atom  22 (R=0.015)  charge=  1.1239  magn= -0.0000
     atom  23 (R=0.015)  charge=  1.1240  magn= -0.0000
     atom  24 (R=0.015)  charge=  1.1243  magn=  0.0000
     atom  25 (R=0.015)  charge=  1.1240  magn=  0.0000
     atom  26 (R=0.015)  charge=  1.1351  magn= -0.0000
     atom  27 (R=0.015)  charge=  1.1241  magn= -0.0000
     atom  28 (R=0.015)  charge=  1.1239  magn=  0.0000
     atom  29 (R=0.015)  charge=  1.1346  magn=  0.0000
     atom  30 (R=0.015)  charge=  1.1301  magn= -0.0000
     atom  31 (R=0.015)  charge=  1.1302  magn= -0.0000
     atom  32 (R=0.015)  charge=  1.1315  magn=  0.0000
     atom  33 (R=0.015)  charge=  1.1302  magn=  0.0000
     atom  34 (R=0.015)  charge=  1.1278  magn= -0.0000
     atom  35 (R=0.015)  charge=  1.1304  magn= -0.0000
     atom  36 (R=0.015)  charge=  1.1302  magn=  0.0000
     atom  37 (R=0.015)  charge=  1.1504  magn= -0.0000
     atom  38 (R=0.015)  charge=  1.1243  magn=  0.0000
     atom  39 (R=0.015)  charge=  1.1242  magn=  0.0000
     atom  40 (R=0.015)  charge=  1.1248  magn= -0.0000
     atom  41 (R=0.015)  charge=  1.1242  magn= -0.0000
     atom  42 (R=0.015)  charge=  1.1445  magn=  0.0000
     atom  43 (R=0.015)  charge=  1.1248  magn=  0.0000
     atom  44 (R=0.015)  charge=  1.1243  magn= -0.0000
     atom  45 (R=0.015)  charge=  1.1069  magn= -0.0000
     atom  46 (R=0.015)  charge=  1.1073  magn=  0.0000
     atom  47 (R=0.015)  charge=  1.1074  magn= -0.0000
     atom  48 (R=0.015)  charge=  1.1077  magn=  0.0000
     atom  49 (R=0.015)  charge=  1.1069  magn=  0.0000
     atom  50 (R=0.015)  charge=  1.1072  magn= -0.0000
     atom  51 (R=0.015)  charge=  1.1074  magn=  0.0000
     atom  52 (R=0.015)  charge=  1.1071  magn= -0.0000
     atom  53 (R=0.015)  charge=  1.1063  magn= -0.0000
     atom  54 (R=0.015)  charge=  1.1061  magn=  0.0000
     atom  55 (R=0.015)  charge=  1.1062  magn= -0.0000
     atom  56 (R=0.015)  charge=  1.1064  magn=  0.0000
     atom  57 (R=0.017)  charge=  3.5467  magn=  0.0000

     total cpu time spent up to now is      254.5 secs

     End of self-consistent calculation

 ------ SPIN UP ------------


          k = 0.0000 0.0000 0.0000 ( 29096 PWs)   bands (ev):

   -26.3239 -20.0811 -20.0369 -19.8295 -19.8150 -19.7181 -19.5223 -19.1958
   -19.1224 -19.0274 -18.9395 -18.8459 -18.6407 -18.3988 -18.1936 -17.9507
   -17.6298 -17.6120 -17.4848 -17.1797 -16.7534 -16.6027 -16.1808 -16.1367
   -15.7124 -15.3755 -15.0074 -14.8574 -14.5502 -12.1027 -11.6832 -11.4186
   -11.3541 -11.1684 -10.5730 -10.2990  -9.9651  -9.3493  -9.2731  -9.2713
    -9.2329  -9.1871  -9.0897  -9.0358  -8.9465  -8.8510  -8.8336  -8.8285
    -8.5374  -8.4736  -8.4307  -8.3113  -8.3043  -8.2108  -8.0882  -8.0249
    -7.9754  -7.9109  -7.8884  -7.8716  -7.8121  -7.7813  -7.6196  -7.6149
    -7.5740  -7.5143  -7.4041  -7.2960  -7.2912  -7.2150  -7.1964  -7.1782
    -6.9318  -6.7357  -6.6942  -6.6733  -6.6521  -6.5117  -6.3948  -6.3122
    -6.1983  -6.1928  -6.1823  -6.1516  -5.9815  -5.8955  -5.6258  -5.5566
    -5.4480  -5.4035  -5.3759  -5.3553  -5.3531  -5.3237  -5.2057  -4.8257
    -4.6572  -4.5707  -4.4575  -4.3509  -4.2704  -3.9291  -3.4482  -2.9164
    -2.8820  -2.3251  -2.1920  -2.0756  -1.4686  -0.9663   0.0034   0.1947
     0.2835   0.4157   0.9672   2.5672   2.6334   2.6580   2.7786   2.9145
     2.9254   3.0939   3.1175   3.1410   3.3418   3.3844   3.4229   3.5240
     3.6723   3.8161   3.9025   3.9865   4.0480   4.1313   4.2444   4.3225
     4.3734   4.5147

 ------ SPIN DOWN ----------


          k = 0.0000 0.0000 0.0000 ( 29096 PWs)   bands (ev):

   -26.3239 -20.0811 -20.0369 -19.8295 -19.8150 -19.7181 -19.5223 -19.1958
   -19.1224 -19.0274 -18.9395 -18.8459 -18.6407 -18.3988 -18.1936 -17.9507
   -17.6298 -17.6120 -17.4848 -17.1797 -16.7534 -16.6027 -16.1808 -16.1367
   -15.7124 -15.3755 -15.0074 -14.8574 -14.5502 -12.1027 -11.6832 -11.4186
   -11.3541 -11.1684 -10.5730 -10.2990  -9.9651  -9.3493  -9.2731  -9.2713
    -9.2329  -9.1871  -9.0897  -9.0358  -8.9465  -8.8510  -8.8336  -8.8285
    -8.5374  -8.4736  -8.4307  -8.3113  -8.3043  -8.2108  -8.0882  -8.0249
    -7.9754  -7.9109  -7.8884  -7.8716  -7.8121  -7.7813  -7.6196  -7.6149
    -7.5740  -7.5143  -7.4041  -7.2960  -7.2912  -7.2150  -7.1964  -7.1782
    -6.9318  -6.7357  -6.6942  -6.6733  -6.6521  -6.5117  -6.3948  -6.3122
[...]
     estimated scf accuracy    <       0.00000451 Ry

     total magnetization       =    -0.00 Bohr mag/cell
     absolute magnetization    =     0.00 Bohr mag/cell

     iteration #  9     ecut=    50.00 Ry     beta= 0.30
     Davidson diagonalization with overlap
     ethr =  1.96E-09,  avg # of iterations =  4.0

     negative rho (up, down):  2.977E-07 2.978E-07

     total cpu time spent up to now is     5708.6 secs

     total energy              =   -1083.18444981 Ry
     estimated scf accuracy    <       0.00000059 Ry

     total magnetization       =     0.00 Bohr mag/cell
     absolute magnetization    =     0.00 Bohr mag/cell

     iteration # 10     ecut=    50.00 Ry     beta= 0.30
     Davidson diagonalization with overlap
     ethr =  2.55E-10,  avg # of iterations =  4.0

     negative rho (up, down):  2.951E-07 2.951E-07

     total cpu time spent up to now is     5712.2 secs

     total energy              =   -1083.18445074 Ry
     estimated scf accuracy    <       0.00000009 Ry

     total magnetization       =    -0.00 Bohr mag/cell
     absolute magnetization    =     0.00 Bohr mag/cell

     iteration # 11     ecut=    50.00 Ry     beta= 0.30
     Davidson diagonalization with overlap
     ethr =  3.90E-11,  avg # of iterations =  4.0

     negative rho (up, down):  2.940E-07 2.940E-07

     total cpu time spent up to now is     5715.6 secs

     total energy              =   -1083.18445114 Ry
     estimated scf accuracy    <       0.00000001 Ry

     total magnetization       =    -0.00 Bohr mag/cell
     absolute magnetization    =     0.00 Bohr mag/cell

     iteration # 12     ecut=    50.00 Ry     beta= 0.30
     Davidson diagonalization with overlap
     ethr =  6.36E-12,  avg # of iterations =  4.0

     negative rho (up, down):  2.930E-07 2.930E-07

     Magnetic moment per site  (integrated on atomic sphere of radius R)
     atom   1 (R=0.010)  charge=  0.3434  magn=  0.0000
     atom   2 (R=0.010)  charge=  0.3451  magn=  0.0000
     atom   3 (R=0.010)  charge=  0.3445  magn=  0.0000
     atom   4 (R=0.010)  charge=  0.3444  magn=  0.0000
     atom   5 (R=0.010)  charge=  0.3434  magn= -0.0000
     atom   6 (R=0.010)  charge=  0.3451  magn= -0.0000
     atom   7 (R=0.010)  charge=  0.3445  magn= -0.0000
     atom   8 (R=0.010)  charge=  0.3444  magn=  0.0000
     atom   9 (R=0.010)  charge=  0.3448  magn= -0.0000
     atom  10 (R=0.010)  charge=  0.3442  magn=  0.0000
     atom  11 (R=0.010)  charge=  0.3439  magn=  0.0000
     atom  12 (R=0.010)  charge=  0.3430  magn=  0.0000
     atom  13 (R=0.010)  charge=  0.3441  magn=  0.0000
     atom  14 (R=0.010)  charge=  0.3440  magn= -0.0000
     atom  15 (R=0.010)  charge=  0.3444  magn= -0.0000
     atom  16 (R=0.010)  charge=  0.3449  magn= -0.0000
     atom  17 (R=0.010)  charge=  0.3447  magn= -0.0000
     atom  18 (R=0.010)  charge=  0.3430  magn= -0.0000
     atom  19 (R=0.010)  charge=  0.3431  magn=  0.0000
     atom  20 (R=0.010)  charge=  0.3427  magn= -0.0000
     atom  21 (R=0.010)  charge=  0.3476  magn=  0.0000
     atom  22 (R=0.010)  charge=  0.3446  magn=  0.0000
     atom  23 (R=0.010)  charge=  0.3439  magn= -0.0000
     atom  24 (R=0.010)  charge=  0.3445  magn=  0.0000
     atom  25 (R=0.010)  charge=  0.3444  magn=  0.0000
     atom  26 (R=0.010)  charge=  0.3441  magn=  0.0000
     atom  27 (R=0.010)  charge=  0.3434  magn= -0.0000
     atom  28 (R=0.010)  charge=  0.3451  magn= -0.0000
     atom  29 (R=0.010)  charge=  0.3441  magn= -0.0000
     atom  30 (R=0.010)  charge=  0.3440  magn=  0.0000
     atom  31 (R=0.010)  charge=  0.3444  magn=  0.0000
     atom  32 (R=0.010)  charge=  0.3448  magn=  0.0000
     atom  33 (R=0.010)  charge=  0.3447  magn=  0.0000
     atom  34 (R=0.010)  charge=  0.3430  magn=  0.0000
     atom  35 (R=0.010)  charge=  0.3431  magn= -0.0000
     atom  36 (R=0.010)  charge=  0.3427  magn=  0.0000
     atom  37 (R=0.010)  charge=  0.3477  magn= -0.0000
     atom  38 (R=0.010)  charge=  0.3446  magn= -0.0000
     atom  39 (R=0.010)  charge=  0.3439  magn=  0.0000
     atom  40 (R=0.010)  charge=  0.3444  magn= -0.0000
     atom  41 (R=0.010)  charge=  0.3444  magn= -0.0000
     atom  42 (R=0.010)  charge=  0.3441  magn= -0.0000
     atom  43 (R=0.010)  charge=  0.3434  magn=  0.0000
     atom  44 (R=0.010)  charge=  0.3451  magn=  0.0000
     atom  45 (R=0.010)  charge=  0.3448  magn=  0.0000
     atom  46 (R=0.010)  charge=  0.3442  magn= -0.0000
     atom  47 (R=0.010)  charge=  0.3439  magn= -0.0000
     atom  48 (R=0.010)  charge=  0.3430  magn= -0.0000
     atom  49 (R=0.010)  charge=  0.3447  magn=  0.0000
     atom  50 (R=0.010)  charge=  0.3432  magn= -0.0000
     atom  51 (R=0.010)  charge=  0.3429  magn=  0.0000
     atom  52 (R=0.010)  charge=  0.3441  magn=  0.0000
     atom  53 (R=0.010)  charge=  0.3447  magn= -0.0000
     atom  54 (R=0.010)  charge=  0.3432  magn=  0.0000
     atom  55 (R=0.010)  charge=  0.3429  magn= -0.0000
     atom  56 (R=0.010)  charge=  0.3441  magn= -0.0000
     atom  57 (R=0.011)  charge=  1.5177  magn= -0.0000

     total cpu time spent up to now is     5719.3 secs

     End of self-consistent calculation

 ------ SPIN UP ------------


          k = 0.0000 0.0000 0.0000 ( 29096 PWs)   bands (ev):

   -25.4211 -18.1286 -18.0759 -18.0458 -17.8704 -17.8167 -17.8098 -17.7945
   -17.7600 -17.7572 -17.7513 -17.6646 -17.6311 -17.6080 -17.5562 -17.5305
   -17.5118 -17.5016 -17.4867 -17.3952 -17.3887 -17.3866 -17.3706 -17.3618
   -17.3470 -17.2339 -17.1204 -16.9712 -16.3254 -12.7897 -10.6984 -10.6486
   -10.6285 -10.4460 -10.3943 -10.3801 -10.3625 -10.3471 -10.3386 -10.3311
   -10.2399 -10.2001 -10.1968 -10.1321 -10.1053 -10.0905 -10.0805 -10.0664
    -9.9674  -9.9657  -9.9540  -9.9496  -9.9414  -9.9405  -9.8117  -9.8084
    -9.6997  -9.5497  -8.0129  -7.5059  -7.4257  -7.3632  -7.3451  -7.2739
    -7.2113  -7.1661  -7.1414  -7.1249  -7.0958  -7.0789  -7.0654  -7.0492
    -7.0339  -7.0188  -6.9842  -6.9629  -6.9509  -6.9297  -6.9107  -6.8879
    -6.8859  -6.8594  -6.8426  -6.8255  -6.8208  -6.8127  -6.8060  -6.7978
    -6.7748  -6.7397  -6.7333  -6.7233  -6.7164  -6.6974  -6.6869  -6.6475
    -6.6441  -6.6364  -6.6323  -6.6180  -6.6051  -6.5938  -6.5664  -6.5423
    -6.5346  -6.4947  -6.4751  -6.4453  -6.4021  -6.3389  -6.3014  -6.1998
    -6.1697  -4.3987  -2.4051   2.1352   2.4079   2.6215   2.6946   2.8409
     2.9850   3.1290   3.1426   3.2056   3.2794   3.3068   3.3781   3.6337
     3.7025   3.7410   3.8653   3.9313   4.0955   4.2323   4.3031   4.3432
     4.4775   4.5036

 ------ SPIN DOWN ----------


          k = 0.0000 0.0000 0.0000 ( 29096 PWs)   bands (ev):

   -25.4211 -18.1286 -18.0759 -18.0458 -17.8704 -17.8167 -17.8098 -17.7945
   -17.7600 -17.7572 -17.7513 -17.6646 -17.6311 -17.6080 -17.5562 -17.5305
   -17.5118 -17.5016 -17.4867 -17.3952 -17.3887 -17.3866 -17.3706 -17.3618
   -17.3470 -17.2339 -17.1204 -16.9712 -16.3254 -12.7897 -10.6984 -10.6486
   -10.6285 -10.4460 -10.3943 -10.3801 -10.3625 -10.3471 -10.3386 -10.3311
   -10.2399 -10.2001 -10.1968 -10.1321 -10.1053 -10.0905 -10.0805 -10.0664
    -9.9674  -9.9657  -9.9540  -9.9496  -9.9414  -9.9405  -9.8117  -9.8084
    -9.6997  -9.5497  -8.0129  -7.5059  -7.4257  -7.3632  -7.3451  -7.2739
    -7.2113  -7.1661  -7.1414  -7.1249  -7.0958  -7.0789  -7.0654  -7.0492
    -7.0339  -7.0188  -6.9842  -6.9629  -6.9509  -6.9297  -6.9107  -6.8879
    -6.8859  -6.8594  -6.8426  -6.8255  -6.8208  -6.8127  -6.8060  -6.7978
    -6.7748  -6.7397  -6.7333  -6.7233  -6.7164  -6.6974  -6.6869  -6.6475
    -6.6441  -6.6364  -6.6323  -6.6180  -6.6051  -6.5938  -6.5664  -6.5423
    -6.5346  -6.4947  -6.4751  -6.4453  -6.4021  -6.3389  -6.3014  -6.1998
    -6.1697  -4.3988  -2.4051   2.1352   2.4079   2.6215   2.6946   2.8409
     2.9850   3.1290   3.1426   3.2056   3.2794   3.3068   3.3781   3.6337
     3.7025   3.7410   3.8653   3.9313   4.0955   4.2323   4.3031   4.3432
     4.4775   4.5035

     the spin up/dw Fermi energies are     0.7732    0.7732 ev

!    total energy              =   -1083.18445153 Ry
     total all-electron energy =     -4426.820822 Ry
     estimated scf accuracy    <          8.7E-10 Ry
     smearing contrib. (-TS)   =      -0.00000000 Ry
     internal energy E=F+TS    =   -1083.18445153 Ry

     The total energy is F=E-TS. E is the sum of the following terms:
     one-electron contribution =    -971.61087694 Ry
     hartree contribution      =     536.31202944 Ry
     xc contribution           =    -266.70591935 Ry
     ewald contribution        =     -27.14496189 Ry
     one-center paw contrib.   =    -354.03472278 Ry

     total magnetization       =     0.00 Bohr mag/cell
     absolute magnetization    =     0.00 Bohr mag/cell

     convergence has been achieved in  12 iterations

     negative rho (up, down):  2.930E-07 2.930E-07

     Forces acting on atoms (cartesian axes, Ry/au):

     atom    1 type  1   force =    -0.00005494    0.00011726   -0.00001170
     atom    2 type  1   force =     0.00002941   -0.00005207    0.00065431
     atom    3 type  1   force =    -0.00006031   -0.00003719   -0.00040309
     atom    4 type  1   force =     0.00018413   -0.00030556    0.00005091
     atom    5 type  1   force =    -0.00001060    0.00009717   -0.00001615
     atom    6 type  1   force =    -0.00003194   -0.00005252   -0.00064783
     atom    7 type  1   force =    -0.00000428   -0.00003628    0.00040645
     atom    8 type  1   force =     0.00013047   -0.00029407   -0.00005024
     atom    9 type  1   force =     0.00008290   -0.00000250    0.00021528
     atom   10 type  1   force =     0.00006540    0.00003571    0.00024700
     atom   11 type  1   force =    -0.00029243    0.00042921   -0.00009171
     atom   12 type  1   force =    -0.00006686    0.00002797   -0.00019152
     atom   13 type  1   force =    -0.00007358   -0.00038919    0.00001176
     atom   14 type  1   force =     0.00014959   -0.00005273    0.00017281
     atom   15 type  1   force =    -0.00005224    0.00012578   -0.00000632
     atom   16 type  1   force =     0.00000001    0.00001882    0.00022003
     atom   17 type  1   force =    -0.00011248    0.00017175    0.00042862
     atom   18 type  1   force =     0.00012658    0.00020621    0.00006092
     atom   19 type  1   force =    -0.00019176    0.00011441   -0.00023128
     atom   20 type  1   force =    -0.00006023   -0.00009723   -0.00058538
     atom   21 type  1   force =     0.00014753    0.00035800   -0.00005819
     atom   22 type  1   force =    -0.00006775   -0.00005697    0.00029030
     atom   23 type  1   force =     0.00011844   -0.00004469    0.00027947
     atom   24 type  1   force =    -0.00014753    0.00053191    0.00000341
     atom   25 type  1   force =    -0.00002799   -0.00009825   -0.00071182
     atom   26 type  1   force =    -0.00007944    0.00016820    0.00059770
     atom   27 type  1   force =    -0.00015389   -0.00015478   -0.00003790
     atom   28 type  1   force =     0.00017123   -0.00049023    0.00001024
     atom   29 type  1   force =    -0.00009297   -0.00042985   -0.00001706
     atom   30 type  1   force =     0.00017935    0.00003761   -0.00017279
     atom   31 type  1   force =    -0.00002871    0.00003954    0.00000811
     atom   32 type  1   force =    -0.00007885    0.00012556   -0.00021602
     atom   33 type  1   force =    -0.00014496    0.00008221   -0.00042511
     atom   34 type  1   force =     0.00012228    0.00022465   -0.00006573
     atom   35 type  1   force =    -0.00014191   -0.00001197    0.00022481
     atom   36 type  1   force =    -0.00009501   -0.00000857    0.00058356
     atom   37 type  1   force =     0.00040294    0.00034899    0.00020500
     atom   38 type  1   force =    -0.00012288   -0.00019797   -0.00028349
     atom   39 type  1   force =     0.00006227    0.00009333   -0.00028121
     atom   40 type  1   force =    -0.00006456    0.00033223   -0.00000219
     atom   41 type  1   force =     0.00002929    0.00004117    0.00071286
     atom   42 type  1   force =    -0.00009798    0.00014173   -0.00058922
     atom   43 type  1   force =    -0.00023167    0.00002467    0.00003207
     atom   44 type  1   force =     0.00022700   -0.00062955   -0.00000670
     atom   45 type  1   force =     0.00010660    0.00000325   -0.00021418
     atom   46 type  1   force =     0.00002752    0.00003616   -0.00024495
     atom   47 type  1   force =    -0.00025909    0.00042554    0.00009376
     atom   48 type  1   force =    -0.00009168    0.00002165    0.00019008
     atom   49 type  1   force =     0.00008229    0.00003281    0.00004433
     atom   50 type  1   force =    -0.00013305   -0.00021088   -0.00025488
     atom   51 type  1   force =     0.00018172    0.00002306    0.00014617
     atom   52 type  1   force =     0.00005739   -0.00009601    0.00042417
     atom   53 type  1   force =     0.00010992    0.00002899   -0.00005020
     atom   54 type  1   force =    -0.00016882   -0.00020971    0.00025341
     atom   55 type  1   force =     0.00021259    0.00002417   -0.00015060
     atom   56 type  1   force =     0.00003115   -0.00009761   -0.00041832
     atom   57 type  2   force =     0.00020238   -0.00043334   -0.00013177

     Total force =     0.003055     Total SCF correction =     0.000038
     Energy error            =      2.9E-05 Ry
     Gradient error          =      7.1E-04 Ry/Bohr

     bfgs converged in 138 scf cycles and 123 bfgs steps
     (criteria: energy <  1.0E-04 Ry, force <  1.0E-03 Ry/Bohr)

     End of BFGS Geometry Optimization

     Final energy             =   -1083.1844515298 Ry

     File ./pwscf.bfgs deleted, as requested
Begin final coordinates

ATOMIC_POSITIONS (angstrom)
C             4.9523238581       -3.9190606255        2.4121000027
C            23.5416449105       -0.3563232245        2.4675691275
C            25.9927868020        8.5273540808        2.4696620267
C            10.1826709060        6.6184559576        2.4691677296
C             4.9523056022       -3.9190517272        1.1756003247
C            23.5416703335       -0.3563230017        1.2311715849
C            25.9927643015        8.5273540537        1.2330983151
C            10.1826939871        6.6184479366        1.2326756826
C             2.6559570368       21.8139651101        1.2336351279
C            28.6521806428       -0.7237724494        1.2325292117
C            21.0162870402        7.7072756695        1.2330382517
C            14.2319781271        9.9277516956        1.2326643876
C             9.0456918914        0.6802496415        2.4705150156
C            19.2891334762       15.1907080234        2.4691361185
C            19.1789853274        1.7319291551        2.4688728434
C            15.1713133700       16.4791649650        2.4686793260
C            30.6631459460       10.6741424326        2.4688720060
C             5.0329032906        7.6083029281        2.4719715020
C             2.1823274337       10.5875630997        2.4695737654
C            30.3910916807        6.5477485138        2.4691453741
C            12.3909987594        2.7746212957        1.8544138440
C            26.8053794340       13.1535072569        2.4685611895
C            27.2482083927        3.3374812170        2.4692664773
C             9.1679880449       14.3423263689        2.4696308569
C            22.4548430843       11.9193179691        2.4692991580
C             6.9084474056        3.9816071107        2.3851426498
C            10.2277034530       10.5825715935        2.4693977672
C            23.2080643822        4.5032212539        2.4700190976
C             9.0457027492        0.6802692062        1.2340173023
C            19.2891218524       15.1906717501        1.2326633252
C            19.1789775755        1.7319639784        1.2323717189
C            15.1713325795       16.4791433206        1.2322136167
C            30.6631592888       10.6741794985        1.2324391726
C             5.0329053790        7.6082958111        1.2354814308
C             2.1823068778       10.5876151276        1.2330378779
C            30.3911066119        6.5477123436        1.2325533808
C            12.3908279422        2.7746314481        0.6129519243
C            26.8054033582       13.1535652894        1.2321063430
C            27.2482319126        3.3374247684        1.2328106154
C             9.1679549050       14.3424085592        1.2331312482
C            22.4548197041       11.9192603950        1.2326870510
C             6.9084554609        3.9816178051        1.1487360316
C            10.2277354292       10.5824975390        1.2328922770
C            23.2080416597        4.5032777522        1.2335204249
C             2.6559477687       21.8139626394        2.4701689019
C            28.6521959243       17.0562278560        2.4690679424
C            21.0162733812        7.7072780757        2.4695236165
C            14.2319881817        9.9277555200        2.4691343341
C             1.9025700575       17.2152627627        2.4702212919
C            31.6235930813       20.3035289190        2.4699614138
C            18.0950924235       11.0700639592        2.4696547037
C            15.0920691416        5.8855983691        2.4672758901
C             1.9025584996       17.2152640823        1.2337287397
C            31.6236076587       20.3035286284        1.2334214186
C            18.0950796164       11.0700639200        1.2331780404
C            15.0920719474        5.8855642217        1.2308421907
O            13.5753801121        2.2878301530        3.7067990116
End final coordinates



     Writing all to output data dir ./pwscf.save/

     init_run     :      4.65s CPU      4.81s WALL (       1 calls)
     electrons    :   4414.15s CPU   4613.98s WALL (     139 calls)
     update_pot   :    448.76s CPU    457.22s WALL (     137 calls)
     forces       :    457.61s CPU    473.78s WALL (     139 calls)

     Called by init_run:
     wfcinit      :      0.91s CPU      0.94s WALL (       1 calls)
     potinit      :      3.76s CPU      3.89s WALL (       2 calls)
     hinit0       :      1.57s CPU      1.59s WALL (       1 calls)

     Called by electrons:
     c_bands      :   2461.74s CPU   2509.58s WALL (    1201 calls)
     sum_band     :    580.34s CPU    609.50s WALL (    1201 calls)
     v_of_rho     :    725.97s CPU    771.69s WALL (    1340 calls)
     newd         :    193.10s CPU    216.67s WALL (    1340 calls)
     PAW_pot      :    466.32s CPU    470.02s WALL (    1477 calls)
     mix_rho      :     84.16s CPU     89.84s WALL (    1201 calls)

     Called by c_bands:
     init_us_2    :     28.24s CPU     28.84s WALL (    2540 calls)
     init_us_2:cp :     28.22s CPU     28.82s WALL (    2540 calls)
     regterg      :   2412.80s CPU   2458.95s WALL (    1203 calls)

     Called by *egterg:
     rdiaghg      :     91.52s CPU     92.02s WALL (    6234 calls)
     h_psi        :   1496.49s CPU   1529.34s WALL (    6375 calls)
     s_psi        :    224.94s CPU    227.14s WALL (    6375 calls)
     g_psi        :      4.25s CPU      4.30s WALL (    5171 calls)

     Called by h_psi:
     h_psi:calbec :    216.25s CPU    218.39s WALL (    6375 calls)
     vloc_psi     :   1040.80s CPU   1069.85s WALL (    6375 calls)
     add_vuspsi   :    226.44s CPU    227.97s WALL (    6375 calls)

     General routines
     calbec       :    334.12s CPU    337.37s WALL (    8269 calls)
     fft          :    401.09s CPU    445.20s WALL (   29387 calls)
     ffts         :     16.29s CPU     17.59s WALL (    5082 calls)
     fftw         :    964.53s CPU    989.20s WALL (  527415 calls)
     interpolate  :     56.40s CPU     60.79s WALL (    2680 calls)

     Parallel routines

     PWSCF        :      1h31m CPU      1h35m WALL


   This run was terminated on:  21: 7: 3   5Jun2025            

=------------------------------------------------------------------------------=
   JOB DONE.
=------------------------------------------------------------------------------=
