ITEM: TIMESTEP
0
ITEM: NUMBER OF ATOMS
163
ITEM: BOX BOUNDS xy xz yz pp pp pp
-6.7755000000000001e+00 1.3552000000000000e+01 -6.7755000000000001e+00
0.0000000000000000e+00 1.1735510246683001e+01 0.0000000000000000e+00
0.0000000000000000e+00 2.2149999999999999e+01 0.0000000000000000e+00
ITEM: ATOMS id type x y z 
8 1 -2.486 5.297 9.849 
87 1 3.001 4.231 10.696 
90 1 2.733 5.481 9.824 
109 1 -2.486 5.297 0.765 
158 1 2.733 5.481 0.79 
11 1 4.24 4.139 20.131 
14 1 3.031 4.094 19.728 
18 1 1.299 5.827 18.554 
33 1 2.266 4.151 20.924 
43 1 4.343 3.96 21.647 
47 1 3.32 5.732 17.88 
52 1 4.24 4.139 12.633 
76 1 2.552 4.924 14.209 
85 1 4.343 3.96 11.117 
89 1 3.32 5.732 14.883 
91 1 1.036 5.037 11.84 
102 1 3.031 4.094 13.035 
105 1 1.299 5.827 14.209 
114 1 2.266 4.151 11.84 
150 1 2.552 4.924 18.554 
156 1 3.001 4.231 22.068 
159 1 1.036 5.037 20.924 
5 1 -5.049 10.63 8.653 
9 1 -3.317 8.897 7.479 
19 1 -1.707 7.414 10.572 
21 1 -2.66 8.795 10.993 
23 1 -3.31 7.532 6.805 
25 1 -4.284 10.573 9.849 
32 1 1.503 6.367 0.79 
36 1 -1.869 7.426 9.056 
38 1 -2.209 6.086 8.653 
54 1 0.3 8.576 10.696 
57 1 1.291 8.001 9.824 
60 1 -1.707 7.414 0.042 
65 1 -3.31 7.532 3.808 
78 1 -1.869 7.426 1.558 
80 1 -2.566 8.842 1.961 
84 1 -4.57 9.799 3.135 
99 1 -3.054 9.687 0.765 
100 1 -2.96 6.142 3.135 
107 1 -5.049 10.63 1.961 
110 1 -3.317 8.897 3.135 
111 1 0.642 5.929 10.696 
113 1 1.503 6.367 9.824 
119 1 -4.284 10.573 0.765 
127 1 -2.209 6.086 1.961 
131 1 -2.318 6.148 10.993 
138 1 1.291 8.001 0.79 
142 1 -2.566 8.842 8.653 
145 1 -4.57 9.799 7.479 
151 1 -5.019 10.493 10.993 
154 1 -3.054 9.687 9.849 
155 1 -2.96 6.142 7.479 
12 1 2.53 7.1 17.202 
17 1 0.468 9.427 20.924 
24 1 -3.52 8.357 11.865 
27 1 -0.31 7.31 21.647 
29 1 0.642 5.929 22.068 
31 1 1.292 7.192 17.88 
44 1 -0.148 7.298 20.131 
46 1 0.191 8.638 19.728 
51 1 -0.31 7.31 11.117 
53 1 2.53 7.1 15.561 
56 1 1.292 7.192 14.883 
63 1 -2.318 6.148 21.771 
66 1 -3.309 6.723 20.899 
70 1 -0.148 7.298 12.633 
72 1 0.548 5.882 13.035 
92 1 0.942 8.582 14.209 
95 1 -5.019 10.493 21.771 
98 1 -4.751 9.243 20.899 
104 1 0.468 9.427 11.84 
116 1 -2.66 8.795 21.771 
118 1 -3.52 8.357 20.899 
122 1 0.191 8.638 13.035 
133 1 -3.309 6.723 11.865 
136 1 0.3 8.576 22.068 
147 1 0.548 5.882 19.728 
153 1 -4.751 9.243 11.865 
160 1 0.942 8.582 18.554 
1 1 7.976 4.694 10.572 
4 1 9.274 4.77 10.993 
20 1 8.034 4.861 9.056 
42 1 9.55 5.41 7.479 
67 1 10.043 4.578 0.765 
77 1 7.976 4.694 0.042 
94 1 8.035 4.861 1.558 
96 1 9.278 4.635 1.961 
121 1 4.688 5.417 10.696 
130 1 9.55 5.41 3.135 
134 1 10.043 4.578 9.849 
152 1 9.278 4.635 8.653 
45 1 4.688 5.417 22.068 
55 1 4.788 5.329 13.035 
106 1 9.274 4.77 21.771 
137 1 4.788 5.329 19.728 
2 1 7.294 10.585 9.056 
3 1 9.004 7.624 6.127 
6 1 8.556 6.347 6.805 
16 1 2.314 8.72 0.79 
22 1 7.166 6.156 8.653 
26 1 7.226 8.565 7.479 
35 1 7.191 10.764 10.572 
37 1 6.846 9.307 10.993 
39 1 8.214 8.992 6.805 
41 1 6.677 7.002 9.849 
48 1 3.775 6.213 0.79 
61 1 7.294 10.585 1.558 
62 1 9.004 7.624 4.487 
64 1 6.747 9.395 1.961 
68 1 7.437 6.931 3.135 
71 1 4.29 8.493 10.696 
74 1 3.567 7.818 9.824 
81 1 8.556 6.347 3.808 
83 1 6.47 8.606 0.765 
93 1 7.191 10.764 0.042 
97 1 8.214 8.992 3.808 
101 1 2.261 9.954 10.696 
103 1 2.314 8.72 9.824 
117 1 7.166 6.156 1.961 
120 1 7.226 8.565 3.135 
123 1 3.775 6.213 9.824 
129 1 6.677 7.002 0.765 
132 1 6.747 9.395 8.653 
135 1 7.437 6.931 7.479 
141 1 7.244 6.231 10.993 
144 1 6.47 8.606 9.849 
148 1 3.567 7.818 0.79 
161 2 5.876 8.565 7.479 
162 2 4.676 9.465 7.47 
163 3 5.252 10.265 7.47 
7 1 9.22 6.004 11.865 
10 1 3.558 10.029 21.647 
13 1 2.261 9.954 22.068 
15 1 2.978 8.376 17.88 
28 1 3.5 9.862 20.131 
30 1 4.369 8.568 19.728 
34 1 4.308 6.159 18.554 
40 1 7.76 8.511 11.865 
49 1 4.857 7.722 20.924 
50 1 1.984 9.314 18.554 
58 1 1.491 10.146 11.84 
59 1 4.097 7.793 14.209 
69 1 3.558 10.029 11.117 
73 1 2.978 8.376 14.883 
75 1 5.064 6.118 11.84 
79 1 7.244 6.231 21.771 
82 1 7.967 6.906 20.899 
86 1 3.5 9.862 12.633 
88 1 2.256 10.089 13.035 
108 1 9.22 6.004 20.899 
112 1 4.369 8.568 13.035 
115 1 4.308 6.159 14.209 
124 1 4.857 7.722 11.84 
125 1 1.984 9.314 14.209 
126 1 6.846 9.307 21.771 
128 1 7.76 8.511 20.899 
139 1 1.491 10.146 20.924 
140 1 4.097 7.793 18.554 
143 1 7.967 6.906 11.865 
146 1 4.29 8.493 22.068 
149 1 5.064 6.118 20.924 
157 1 2.256 10.089 19.728 
ITEM: TIMESTEP
10
ITEM: NUMBER OF ATOMS
163
ITEM: BOX BOUNDS xy xz yz pp pp pp
-6.7755000000000001e+00 1.3552000000000000e+01 -6.7755000000000001e+00
0.0000000000000000e+00 1.1735510246683001e+01 0.0000000000000000e+00
0.0000000000000000e+00 2.2149999999999999e+01 0.0000000000000000e+00
ITEM: ATOMS id type x y z 
8 1 -2.4269 5.3879 9.83973 
87 1 2.97391 4.26381 10.6402 
90 1 2.66647 5.44284 9.76195 
109 1 -2.41801 5.37415 0.784964 
158 1 2.65565 5.44631 0.854899 
11 1 4.28548 4.21863 20.135 
14 1 2.92001 4.11475 19.7248 
18 1 1.3405 5.87104 18.5965 
33 1 2.1044 4.2578 20.8993 
43 1 4.31815 4.16113 21.5438 
47 1 3.24525 5.81101 17.8596 
52 1 4.28794 4.22162 12.6277 
76 1 2.42797 4.87322 14.1857 
85 1 4.31461 4.17067 11.2129 
89 1 3.23563 5.80888 14.9107 
91 1 0.960369 5.11215 11.8596 
102 1 2.91901 4.11477 13.0417 
105 1 1.33749 5.86797 14.1753 
114 1 2.10607 4.25692 11.861 
150 1 2.42203 4.87017 18.5799 
156 1 2.98022 4.26786 22.127 
159 1 0.960272 5.11538 20.8962 
5 1 -4.88607 10.6187 8.61567 
9 1 -3.31554 8.86708 7.50556 
19 1 -1.76401 7.51157 10.5575 
21 1 -2.58429 8.75911 10.932 
23 1 -3.30813 7.5493 6.83376 
25 1 -4.12793 10.4716 9.81356 
32 1 1.59595 6.33497 0.775686 
36 1 -1.88432 7.54206 9.07315 
38 1 -2.15457 6.20673 8.6614 
54 1 0.304404 8.50783 10.6872 
57 1 1.3489 8.0074 9.78682 
60 1 -1.75539 7.53301 0.0674089 
65 1 -3.31225 7.52765 3.79473 
78 1 -1.90832 7.55354 1.55164 
80 1 -2.5723 8.78676 1.89889 
84 1 -4.43729 9.84321 3.10436 
99 1 -2.99001 9.62321 0.796297 
100 1 -2.91896 6.24575 3.18135 
107 1 -4.92061 10.6097 1.96733 
110 1 -3.38008 8.85823 3.09958 
111 1 0.607448 5.97892 10.7583 
113 1 1.59281 6.33343 9.83754 
119 1 -4.12468 10.4592 0.785495 
127 1 -2.14716 6.22044 1.95861 
131 1 -2.31527 6.20944 10.9988 
138 1 1.34955 8.00283 0.826124 
142 1 -2.54951 8.78715 8.73279 
145 1 -4.49038 9.78901 7.51275 
151 1 -4.9757 10.4426 11.0609 
154 1 -2.98721 9.62415 9.83323 
155 1 -2.92669 6.25147 7.4312 
12 1 2.57268 7.08357 17.1104 
17 1 0.398179 9.33745 20.9206 
24 1 -3.5366 8.3731 11.8602 
27 1 -0.247367 7.20308 21.6342 
29 1 0.606472 5.97947 22.0037 
31 1 1.28042 7.19263 17.8997 
44 1 -0.10377 7.15966 20.1375 
46 1 0.134927 8.50511 19.7275 
51 1 -0.251195 7.20152 11.1267 
53 1 2.57658 7.08635 15.6449 
56 1 1.28881 7.19281 14.8674 
63 1 -2.3068 6.2031 21.7489 
66 1 -3.39195 6.74663 20.8479 
70 1 -0.108999 7.16601 12.6239 
72 1 0.54729 5.94069 12.9738 
92 1 0.902702 8.47343 14.256 
95 1 -5.0195 10.4179 21.714 
98 1 -4.69298 9.23001 20.8347 
104 1 0.39512 9.33746 11.8429 
116 1 -2.61151 8.74799 21.8289 
118 1 -3.55611 8.38851 20.9131 
122 1 0.129348 8.50282 13.0318 
133 1 -3.37971 6.75928 11.9074 
136 1 0.304643 8.50773 22.0753 
147 1 0.553534 5.94341 19.789 
153 1 -4.67002 9.21504 11.9208 
160 1 0.906228 8.46984 18.5132 
1 1 7.86136 4.94519 10.5277 
4 1 9.20287 4.78807 11.0275 
20 1 7.86308 4.93448 9.05778 
42 1 9.46872 5.42774 7.44181 
67 1 9.97267 4.56553 0.744624 
77 1 7.86664 4.9462 0.078222 
94 1 7.85304 4.94304 1.56909 
96 1 9.19543 4.64985 2.00119 
121 1 4.66669 5.42526 10.7144 
130 1 9.45206 5.42655 3.17581 
134 1 9.98246 4.57343 9.87027 
152 1 9.19847 4.65112 8.61324 
45 1 4.66683 5.42131 22.0505 
55 1 4.81841 5.4691 13.0721 
106 1 9.19021 4.77259 21.7436 
137 1 4.81677 5.4773 19.6824 
2 1 7.27709 10.5773 9.11967 
3 1 8.93025 7.70654 6.06966 
6 1 8.53394 6.36147 6.83154 
16 1 2.34056 8.6771 0.864821 
22 1 7.14305 6.17893 8.68711 
26 1 7.01707 8.40035 7.47007 
35 1 7.26393 10.5529 10.5378 
37 1 6.82969 9.27835 11.0655 
39 1 8.28243 8.90417 6.77034 
41 1 6.72278 7.00688 9.82327 
48 1 3.69735 6.37061 0.856603 
61 1 7.23436 10.5127 1.56902 
62 1 8.97447 7.64646 4.59298 
64 1 6.71624 9.23017 2.00144 
68 1 7.39728 6.98408 3.03991 
71 1 4.31426 8.54893 10.7627 
74 1 3.61662 7.79223 9.81541 
81 1 8.53457 6.4048 3.77262 
83 1 6.55564 8.44405 0.773921 
93 1 7.21066 10.5614 0.122603 
97 1 8.29815 8.92809 3.81604 
101 1 2.34085 9.9714 10.6647 
103 1 2.34103 8.6797 9.74985 
117 1 7.13687 6.19325 1.91143 
120 1 7.19997 8.40484 3.06065 
123 1 3.69775 6.36619 9.76386 
129 1 6.72069 7.02134 0.788696 
132 1 6.77967 9.28558 8.73152 
135 1 7.43403 6.91297 7.55211 
141 1 7.22439 6.18897 10.929 
144 1 6.54842 8.43695 9.85878 
148 1 3.61711 7.79985 0.797068 
161 2 5.91853 8.48225 7.28739 
162 2 4.64958 9.48804 7.46404 
163 3 5.20335 10.2679 7.43051 
7 1 9.1919 6.03737 11.9134 
10 1 3.67801 9.7841 21.6067 
13 1 2.3389 9.97349 22.0997 
15 1 3.01009 8.32112 17.9245 
28 1 3.68485 9.7745 20.1138 
30 1 4.39789 8.51973 19.7786 
34 1 4.33057 6.33109 18.6254 
40 1 7.72964 8.39341 11.8863 
49 1 4.804 7.71583 20.8916 
50 1 2.08529 9.29199 18.5112 
58 1 1.55573 10.1596 11.8303 
59 1 4.11388 7.75428 14.1362 
69 1 3.67593 9.78655 11.1605 
73 1 3.00024 8.31562 14.8397 
75 1 4.98799 6.28242 11.8496 
79 1 7.22716 6.1785 21.8439 
82 1 7.90882 6.96137 20.8889 
86 1 3.67564 9.78002 12.6375 
88 1 2.3439 10.0733 13.0758 
108 1 9.19236 6.03605 20.8372 
112 1 4.40119 8.53762 12.9998 
115 1 4.34186 6.3216 14.1447 
124 1 4.81249 7.70974 11.8594 
125 1 2.09625 9.28785 14.257 
126 1 6.91838 9.29483 21.7839 
128 1 7.76963 8.3647 20.8671 
139 1 1.55354 10.1571 20.9307 
140 1 4.12507 7.74427 18.6465 
143 1 7.89722 6.97671 11.8584 
146 1 4.31744 8.54185 21.9903 
149 1 4.98779 6.29521 20.907 
157 1 2.33564 10.072 19.6889 
ITEM: TIMESTEP
20
ITEM: NUMBER OF ATOMS
163
ITEM: BOX BOUNDS xy xz yz pp pp pp
-6.7755000000000001e+00 1.3552000000000000e+01 -6.7755000000000001e+00
0.0000000000000000e+00 1.1735510246683001e+01 0.0000000000000000e+00
0.0000000000000000e+00 2.2149999999999999e+01 0.0000000000000000e+00
ITEM: ATOMS id type x y z 
8 1 -2.4209 5.39271 9.84126 
87 1 2.96189 4.27281 10.6516 
90 1 2.67001 5.44559 9.76511 
109 1 -2.42044 5.39351 0.770954 
158 1 2.66859 5.44917 0.850681 
11 1 4.28693 4.21647 20.1167 
14 1 2.88996 4.13338 19.7092 
18 1 1.33136 5.8659 18.5881 
33 1 2.10621 4.26788 20.91 
43 1 4.30395 4.17448 21.5615 
47 1 3.23784 5.79271 17.8561 
52 1 4.28667 4.21796 12.6451 
76 1 2.43836 4.89476 14.1783 
85 1 4.30036 4.18009 11.1993 
89 1 3.24148 5.79082 14.9097 
91 1 0.965785 5.11334 11.8539 
102 1 2.89063 4.13474 13.0566 
105 1 1.3276 5.86331 14.1822 
114 1 2.1045 4.26698 11.8541 
150 1 2.43546 4.89334 18.5848 
156 1 2.96548 4.27689 22.1125 
159 1 0.966221 5.11418 20.9056 
5 1 -4.88304 10.6036 8.61916 
9 1 -3.3176 8.86292 7.50165 
19 1 -1.75835 7.50869 10.5586 
21 1 -2.59179 8.77204 10.9501 
23 1 -3.31371 7.54295 6.83907 
25 1 -4.12286 10.4623 9.82375 
32 1 1.59253 6.34695 0.777026 
36 1 -1.88189 7.5495 9.06466 
38 1 -2.15717 6.22634 8.64318 
54 1 0.306211 8.5051 10.681 
57 1 1.35751 7.99847 9.78524 
60 1 -1.75741 7.51245 0.0619396 
65 1 -3.30902 7.52566 3.79621 
78 1 -1.89872 7.55438 1.5505 
80 1 -2.56668 8.79399 1.90317 
84 1 -4.4483 9.83495 3.101 
99 1 -2.98953 9.61698 0.787954 
100 1 -2.92668 6.25734 3.17584 
107 1 -4.91355 10.5949 1.97495 
110 1 -3.36097 8.85629 3.10451 
111 1 0.610761 5.96765 10.7453 
113 1 1.5942 6.34438 9.83586 
119 1 -4.12464 10.451 0.773607 
127 1 -2.15499 6.22693 1.96953 
131 1 -2.32663 6.22166 11.0113 
138 1 1.35751 7.99544 0.82759 
142 1 -2.54657 8.78803 8.72676 
145 1 -4.48832 9.77684 7.51586 
151 1 -4.96668 10.4115 11.0574 
154 1 -2.98283 9.61765 9.83261 
155 1 -2.92742 6.27377 7.43511 
12 1 2.55859 7.07928 17.1309 
17 1 0.40147 9.33049 20.9128 
24 1 -3.53464 8.36766 11.8556 
27 1 -0.251735 7.19663 21.6341 
29 1 0.609427 5.96915 22.0158 
31 1 1.28382 7.19423 17.9009 
44 1 -0.118374 7.16396 20.1359 
46 1 0.139955 8.49724 19.719 
51 1 -0.251802 7.19652 11.1294 
53 1 2.56036 7.07666 15.6333 
56 1 1.28568 7.19648 14.8624 
63 1 -2.32486 6.2227 21.7575 
66 1 -3.3841 6.75581 20.8615 
70 1 -0.121039 7.16674 12.6248 
72 1 0.542594 5.93197 12.9759 
92 1 0.908873 8.45906 14.2504 
95 1 -4.98922 10.414 21.7224 
98 1 -4.68294 9.22345 20.8408 
104 1 0.401252 9.33076 11.8509 
116 1 -2.61453 8.76295 21.8148 
118 1 -3.55412 8.3781 20.9142 
122 1 0.137783 8.49646 13.0438 
133 1 -3.38509 6.76606 11.9011 
136 1 0.307175 8.50456 22.0824 
147 1 0.548539 5.93439 19.7857 
153 1 -4.66261 9.20856 11.9181 
160 1 0.911651 8.45705 18.5149 
1 1 7.86478 4.94206 10.5254 
4 1 9.17184 4.81008 11.027 
20 1 7.85931 4.93634 9.06614 
42 1 9.47306 5.43051 7.44414 
67 1 9.96814 4.57132 0.756533 
77 1 7.86811 4.94338 0.0875872 
94 1 7.8534 4.94474 1.55603 
96 1 9.17919 4.66237 1.99656 
121 1 4.66101 5.46499 10.7038 
130 1 9.45818 5.43929 3.17095 
134 1 9.97084 4.57009 9.85877 
152 1 9.18444 4.65907 8.61982 
45 1 4.65829 5.46303 22.0574 
55 1 4.82181 5.50443 13.0672 
106 1 9.16743 4.79539 21.7451 
137 1 4.82299 5.5042 19.6963 
2 1 7.28715 10.5688 9.09554 
3 1 8.94441 7.70164 6.08227 
6 1 8.52291 6.36741 6.82696 
16 1 2.35691 8.69017 0.859075 
22 1 7.13132 6.18457 8.70045 
26 1 7.02115 8.41145 7.4635 
35 1 7.26709 10.549 10.5475 
37 1 6.83929 9.2655 11.0673 
39 1 8.28568 8.90999 6.77679 
41 1 6.72722 7.00226 9.82387 
48 1 3.69899 6.36761 0.841828 
61 1 7.24758 10.5066 1.5761 
62 1 8.9801 7.64471 4.56942 
64 1 6.71484 9.22181 1.99253 
68 1 7.39621 6.96826 3.04944 
71 1 4.3189 8.52495 10.7584 
74 1 3.60436 7.78809 9.81759 
81 1 8.5279 6.4023 3.78503 
83 1 6.55338 8.42929 0.788745 
93 1 7.22405 10.5676 0.123776 
97 1 8.29664 8.93405 3.8291 
101 1 2.36808 9.94157 10.6776 
103 1 2.35744 8.69061 9.7547 
117 1 7.1228 6.18644 1.90043 
120 1 7.19943 8.41964 3.06646 
123 1 3.69986 6.36523 9.77548 
129 1 6.72238 7.00698 0.781462 
132 1 6.77775 9.2662 8.74285 
135 1 7.43318 6.90243 7.55204 
141 1 7.22191 6.21106 10.9312 
144 1 6.55546 8.428 9.85727 
148 1 3.60487 7.79012 0.797114 
161 2 5.91347 8.47631 7.26921 
162 2 4.64555 9.48872 7.46342 
163 3 5.19973 10.2707 7.42707 
7 1 9.17597 6.05019 11.9114 
10 1 3.66652 9.79439 21.6027 
13 1 2.36768 9.94118 22.0856 
15 1 3.01427 8.33092 17.9079 
28 1 3.68145 9.77268 20.127 
30 1 4.40896 8.53325 19.784 
34 1 4.33527 6.30979 18.6237 
40 1 7.73706 8.37967 11.8931 
49 1 4.80889 7.71773 20.9027 
50 1 2.07577 9.28584 18.5174 
58 1 1.56512 10.1545 11.8316 
59 1 4.13327 7.75356 14.132 
69 1 3.66574 9.79323 11.1602 
73 1 3.01029 8.33186 14.8606 
75 1 4.98176 6.2914 11.857 
79 1 7.22576 6.19776 21.8328 
82 1 7.91616 6.95047 20.8956 
86 1 3.67857 9.77644 12.6284 
88 1 2.35801 10.0619 13.0731 
108 1 9.18112 6.03979 20.84 
112 1 4.41843 8.53784 12.9805 
115 1 4.33916 6.30391 14.1426 
124 1 4.80666 7.71826 11.8563 
125 1 2.07628 9.2857 14.2455 
126 1 6.89786 9.25638 21.7678 
128 1 7.7643 8.35994 20.8631 
139 1 1.56456 10.1548 20.9329 
140 1 4.13377 7.75766 18.6423 
143 1 7.90844 6.96959 11.8517 
146 1 4.31688 8.52508 22.0017 
149 1 4.98191 6.28723 20.9049 
157 1 2.35684 10.0601 19.691 
ITEM: TIMESTEP
30
ITEM: NUMBER OF ATOMS
163
ITEM: BOX BOUNDS xy xz yz pp pp pp
-6.7755000000000001e+00 1.3552000000000000e+01 -6.7755000000000001e+00
0.0000000000000000e+00 1.1735510246683001e+01 0.0000000000000000e+00
0.0000000000000000e+00 2.2149999999999999e+01 0.0000000000000000e+00
ITEM: ATOMS id type x y z 
8 1 -2.43087 5.409 9.83794 
87 1 2.95331 4.27872 10.6502 
90 1 2.65509 5.44351 9.76296 
109 1 -2.43212 5.40959 0.774961 
158 1 2.65654 5.44555 0.850325 
11 1 4.27499 4.22815 20.1142 
14 1 2.88189 4.14949 19.7056 
18 1 1.3035 5.8561 18.5759 
33 1 2.09403 4.27311 20.9094 
43 1 4.28633 4.20899 21.5561 
47 1 3.24919 5.79142 17.8402 
52 1 4.2745 4.22954 12.6493 
76 1 2.43921 4.91881 14.1834 
85 1 4.28615 4.20959 11.2074 
89 1 3.25038 5.79119 14.9247 
91 1 0.958204 5.1234 11.843 
102 1 2.8815 4.15067 13.0574 
105 1 1.30014 5.85575 14.1887 
114 1 2.09258 4.27265 11.8567 
150 1 2.43965 4.91562 18.5802 
156 1 2.95402 4.2802 22.1132 
159 1 0.959217 5.12265 20.9213 
5 1 -4.87666 10.5879 8.62714 
9 1 -3.30881 8.86931 7.4974 
19 1 -1.75464 7.5163 10.5591 
21 1 -2.57907 8.78096 10.9642 
23 1 -3.31286 7.54419 6.82905 
25 1 -4.1053 10.4515 9.82963 
32 1 1.60088 6.3658 0.781913 
36 1 -1.87093 7.56127 9.06564 
38 1 -2.15586 6.23955 8.64093 
54 1 0.317746 8.49301 10.6759 
57 1 1.3643 7.98727 9.78955 
60 1 -1.75594 7.51602 0.0601189 
65 1 -3.29907 7.53536 3.80163 
78 1 -1.88494 7.56354 1.54943 
80 1 -2.54856 8.79823 1.90493 
84 1 -4.45699 9.81252 3.10578 
99 1 -2.97715 9.60394 0.774569 
100 1 -2.9337 6.27183 3.17424 
107 1 -4.90006 10.5764 1.98248 
110 1 -3.32838 8.86256 3.11164 
111 1 0.608742 5.96285 10.7283 
113 1 1.60172 6.36419 9.83127 
119 1 -4.11519 10.4472 0.773724 
127 1 -2.15671 6.23844 1.97365 
131 1 -2.33626 6.2337 11.0142 
138 1 1.36529 7.98489 0.824617 
142 1 -2.53395 8.79467 8.71841 
145 1 -4.48397 9.76769 7.51611 
151 1 -4.9532 10.3893 11.0564 
154 1 -2.96834 9.60576 9.83987 
155 1 -2.93249 6.2807 7.4401 
12 1 2.55882 7.07899 17.1469 
17 1 0.413988 9.31594 20.9089 
24 1 -3.52333 8.35008 11.8593 
27 1 -0.250112 7.18765 21.6355 
29 1 0.60789 5.963 22.0337 
31 1 1.28042 7.18828 17.8935 
44 1 -0.135216 7.15904 20.1399 
46 1 0.138828 8.48503 19.7167 
51 1 -0.24864 7.18795 11.1269 
53 1 2.56016 7.07749 15.6158 
56 1 1.28146 7.18715 14.8682 
63 1 -2.33755 6.23636 21.7523 
66 1 -3.39149 6.77586 20.8667 
70 1 -0.134646 7.15762 12.6233 
72 1 0.525308 5.92707 12.977 
92 1 0.915703 8.44905 14.2477 
95 1 -4.97064 10.4071 21.7273 
98 1 -4.67622 9.21166 20.8468 
104 1 0.414145 9.3149 11.8545 
116 1 -2.59978 8.77498 21.7999 
118 1 -3.54692 8.35831 20.9096 
122 1 0.138452 8.48487 13.0466 
133 1 -3.38947 6.78066 11.8978 
136 1 0.317389 8.49364 22.0882 
147 1 0.526872 5.92796 19.7873 
153 1 -4.65767 9.19524 11.9261 
160 1 0.916541 8.4481 18.5156 
1 1 7.84311 4.9428 10.5258 
4 1 9.15145 4.83153 11.0201 
20 1 7.83983 4.93562 9.06919 
42 1 9.47045 5.43938 7.4474 
67 1 9.96137 4.58498 0.767566 
77 1 7.84765 4.94421 0.0885538 
94 1 7.833 4.94311 1.54957 
96 1 9.16657 4.67901 1.99555 
121 1 4.64938 5.49496 10.6894 
130 1 9.45284 5.45471 3.16844 
134 1 9.9645 4.58433 9.8522 
152 1 9.17252 4.67284 8.62115 
45 1 4.64993 5.49404 22.0724 
55 1 4.81999 5.51757 13.0639 
106 1 9.15073 4.82112 21.7471 
137 1 4.82035 5.51511 19.6982 
2 1 7.29564 10.5486 9.09121 
3 1 8.94745 7.69466 6.08865 
6 1 8.51251 6.36937 6.82136 
16 1 2.36293 8.69601 0.863055 
22 1 7.11798 6.18034 8.69529 
26 1 7.02002 8.4155 7.45296 
35 1 7.27316 10.5312 10.545 
37 1 6.84642 9.2536 11.0743 
39 1 8.28706 8.90303 6.77291 
41 1 6.71535 6.99346 9.82706 
48 1 3.70001 6.35643 0.836167 
61 1 7.26432 10.4931 1.56011 
62 1 8.97661 7.64745 4.54767 
64 1 6.71604 9.20633 1.99164 
68 1 7.39274 6.96019 3.05898 
71 1 4.32075 8.52143 10.7449 
74 1 3.59703 7.79727 9.80928 
81 1 8.51282 6.39811 3.79855 
83 1 6.54814 8.4157 0.803796 
93 1 7.25502 10.5324 0.119689 
97 1 8.28823 8.9317 3.84902 
101 1 2.3855 9.91715 10.6799 
103 1 2.36259 8.6964 9.751 
117 1 7.10249 6.18057 1.90869 
120 1 7.20224 8.41908 3.07432 
123 1 3.70108 6.35552 9.77805 
129 1 6.71121 6.9897 0.777993 
132 1 6.77775 9.24784 8.74124 
135 1 7.42704 6.89705 7.5522 
141 1 7.21467 6.21208 10.9291 
144 1 6.55598 8.42304 9.85814 
148 1 3.59769 7.79817 0.805262 
161 2 5.90945 8.4666 7.23675 
162 2 4.63834 9.49088 7.46223 
163 3 5.19274 10.2751 7.42093 
7 1 9.16214 6.06111 11.9158 
10 1 3.68991 9.7897 21.5988 
13 1 2.38605 9.91696 22.0831 
15 1 3.02154 8.33304 17.893 
28 1 3.70073 9.77932 20.1385 
30 1 4.43229 8.54105 19.7808 
34 1 4.33247 6.30601 18.6148 
40 1 7.74331 8.38192 11.9098 
49 1 4.81999 7.73173 20.912 
50 1 2.08011 9.27251 18.5182 
58 1 1.57102 10.1413 11.8447 
59 1 4.13996 7.76267 14.1367 
69 1 3.68934 9.78809 11.1628 
73 1 3.0215 8.3328 14.8715 
75 1 4.98522 6.30514 11.8631 
79 1 7.21917 6.20201 21.8215 
82 1 7.92182 6.9483 20.884 
86 1 3.70056 9.77701 12.6224 
88 1 2.36955 10.0458 13.0714 
108 1 9.17179 6.04712 20.8382 
112 1 4.43585 8.54221 12.987 
115 1 4.3345 6.3058 14.1511 
124 1 4.8165 7.73289 11.8528 
125 1 2.08078 9.27071 14.2441 
126 1 6.87063 9.22313 21.7547 
128 1 7.75691 8.37056 20.863 
139 1 1.57024 10.1422 20.9198 
140 1 4.14088 7.76347 18.6297 
143 1 7.91563 6.95869 11.8675 
146 1 4.31861 8.52059 22.0148 
149 1 4.98562 6.30229 20.9008 
157 1 2.3684 10.0459 19.6923 
ITEM: TIMESTEP
40
ITEM: NUMBER OF ATOMS
163
ITEM: BOX BOUNDS xy xz yz pp pp pp
-6.7755000000000001e+00 1.3552000000000000e+01 -6.7755000000000001e+00
0.0000000000000000e+00 1.1735510246683001e+01 0.0000000000000000e+00
0.0000000000000000e+00 2.2149999999999999e+01 0.0000000000000000e+00
ITEM: ATOMS id type x y z 
8 1 -2.45069 5.44743 9.83323 
87 1 2.93801 4.3029 10.6471 
90 1 2.63439 5.44271 9.74497 
109 1 -2.45856 5.45142 0.782934 
158 1 2.63484 5.44242 0.86705 
11 1 4.25544 4.26178 20.1045 
14 1 2.85878 4.17687 19.7133 
18 1 1.27371 5.8459 18.556 
33 1 2.07064 4.28761 20.9048 
43 1 4.26143 4.26443 21.5378 
47 1 3.23651 5.80424 17.8191 
52 1 4.25533 4.2634 12.6604 
76 1 2.41858 4.94322 14.1919 
85 1 4.26265 4.26322 11.2261 
89 1 3.23517 5.80488 14.9448 
91 1 0.934233 5.13787 11.8335 
102 1 2.85784 4.17828 13.0521 
105 1 1.27374 5.84483 14.2082 
114 1 2.07075 4.28791 11.8586 
150 1 2.41803 4.94446 18.5706 
156 1 2.93826 4.30229 22.1171 
159 1 0.934364 5.13902 20.9307 
5 1 -4.85653 10.5532 8.64726 
9 1 -3.29173 8.87238 7.4847 
19 1 -1.74746 7.54155 10.5622 
21 1 -2.53555 8.78846 10.985 
23 1 -3.31183 7.54341 6.81898 
25 1 -4.07325 10.4285 9.83971 
32 1 1.59688 6.38789 0.803811 
36 1 -1.84371 7.58926 9.06123 
38 1 -2.15034 6.26858 8.63993 
54 1 0.335319 8.46982 10.6755 
57 1 1.38262 7.97584 9.78546 
60 1 -1.75289 7.54074 0.0534454 
65 1 -3.29568 7.54552 3.80372 
78 1 -1.85115 7.58953 1.55247 
80 1 -2.51147 8.80582 1.90553 
84 1 -4.43985 9.77328 3.11679 
99 1 -2.94654 9.59386 0.763575 
100 1 -2.93917 6.29683 3.17225 
107 1 -4.8772 10.543 1.97412 
110 1 -3.29366 8.88066 3.13319 
111 1 0.588153 5.96012 10.7053 
113 1 1.59606 6.38845 9.80857 
119 1 -4.08488 10.4298 0.779168 
127 1 -2.15556 6.26394 1.97634 
131 1 -2.34908 6.25934 11.0133 
138 1 1.38275 7.9759 0.828261 
142 1 -2.50385 8.80819 8.70176 
145 1 -4.47067 9.75261 7.51456 
151 1 -4.92939 10.3495 11.0565 
154 1 -2.92835 9.58884 9.85002 
155 1 -2.93707 6.29211 7.44715 
12 1 2.57249 7.06991 17.1516 
17 1 0.436005 9.27704 20.9022 
24 1 -3.49311 8.3298 11.8806 
27 1 -0.245944 7.16353 21.6442 
29 1 0.588008 5.96165 22.0583 
31 1 1.27829 7.17903 17.892 
44 1 -0.164183 7.13102 20.1387 
46 1 0.135978 8.45608 19.7145 
51 1 -0.244013 7.16289 11.1196 
53 1 2.57205 7.06995 15.6119 
56 1 1.27847 7.18131 14.8721 
63 1 -2.35286 6.25909 21.753 
66 1 -3.40372 6.79831 20.8639 
70 1 -0.164538 7.13101 12.6257 
72 1 0.491147 5.91551 12.9805 
92 1 0.918701 8.42981 14.2422 
95 1 -4.95131 10.3537 21.7199 
98 1 -4.65661 9.18515 20.8343 
104 1 0.436567 9.27626 11.861 
116 1 -2.5501 8.78244 21.7791 
118 1 -3.51364 8.33577 20.8896 
122 1 0.135851 8.45609 13.0488 
133 1 -3.39514 6.79587 11.9002 
136 1 0.334664 8.46923 22.0883 
147 1 0.492417 5.9168 19.7831 
153 1 -4.64334 9.16806 11.9479 
160 1 0.918751 8.43125 18.5217 
1 1 7.78584 4.93765 10.526 
4 1 9.11578 4.87511 11.0096 
20 1 7.79673 4.93426 9.06381 
42 1 9.45878 5.45707 7.45434 
67 1 9.94084 4.6231 0.77818 
77 1 7.79388 4.9426 0.0827654 
94 1 7.78698 4.94727 1.55093 
96 1 9.12602 4.7139 1.99366 
121 1 4.62604 5.53846 10.6791 
130 1 9.43377 5.47965 3.16515 
134 1 9.94281 4.62168 9.84756 
152 1 9.13688 4.70029 8.62333 
45 1 4.6254 5.5388 22.0861 
55 1 4.81367 5.55144 13.0683 
106 1 9.12007 4.86733 21.7559 
137 1 4.81324 5.54988 19.6949 
2 1 7.30781 10.5 9.08682 
3 1 8.94124 7.68669 6.08722 
6 1 8.50129 6.37646 6.81385 
16 1 2.37763 8.7038 0.876996 
22 1 7.08217 6.17024 8.68171 
26 1 7.01041 8.40914 7.43575 
35 1 7.29601 10.4876 10.5397 
37 1 6.86247 9.22276 11.0891 
39 1 8.29557 8.89233 6.77298 
41 1 6.68495 6.97593 9.82899 
48 1 3.69263 6.35595 0.854498 
61 1 7.2885 10.4565 1.57018 
62 1 8.96289 7.65705 4.53439 
64 1 6.72595 9.17643 1.98993 
68 1 7.37126 6.95355 3.07058 
71 1 4.33716 8.51691 10.7233 
74 1 3.59721 7.80987 9.78441 
81 1 8.50352 6.39757 3.81687 
83 1 6.53541 8.3812 0.812376 
93 1 7.27953 10.4666 0.127641 
97 1 8.29489 8.92274 3.8731 
101 1 2.41871 9.8856 10.6935 
103 1 2.3762 8.70273 9.73542 
117 1 7.05868 6.16298 1.92963 
120 1 7.20081 8.39735 3.08829 
123 1 3.69199 6.3555 9.75617 
129 1 6.68061 6.96688 0.78405 
132 1 6.77772 9.2092 8.73019 
135 1 7.40833 6.89683 7.55028 
141 1 7.19457 6.21837 10.9353 
144 1 6.55544 8.40564 9.85915 
148 1 3.59778 7.81034 0.828881 
161 2 5.91061 8.44842 7.16453 
162 2 4.62153 9.49785 7.45919 
163 3 5.17592 10.283 7.40701 
7 1 9.13634 6.07543 11.9222 
10 1 3.74108 9.7919 21.6027 
13 1 2.41948 9.88454 22.0674 
15 1 3.02974 8.32804 17.8777 
28 1 3.74767 9.77598 20.1372 
30 1 4.47664 8.55597 19.763 
34 1 4.33382 6.32683 18.6013 
40 1 7.74881 8.37479 11.9442 
49 1 4.84703 7.75702 20.9118 
50 1 2.09578 9.2482 18.5223 
58 1 1.59371 10.1071 11.8575 
59 1 4.16319 7.77174 14.146 
69 1 3.74291 9.78879 11.1609 
73 1 3.03027 8.32801 14.8867 
75 1 4.99182 6.33615 11.8692 
79 1 7.19747 6.20967 21.8036 
82 1 7.90933 6.94377 20.8549 
86 1 3.74874 9.77586 12.6262 
88 1 2.40924 10.0131 13.0711 
108 1 9.14746 6.06141 20.8327 
112 1 4.47739 8.55591 13.0016 
115 1 4.33509 6.32658 14.1634 
124 1 4.84534 7.75734 11.852 
125 1 2.09615 9.24786 14.2414 
126 1 6.86189 9.18552 21.7405 
128 1 7.74273 8.37133 20.8482 
139 1 1.59545 10.1069 20.908 
140 1 4.16148 7.77061 18.6185 
143 1 7.90328 6.94507 11.903 
146 1 4.33444 8.51601 22.0388 
149 1 4.99156 6.33617 20.8931 
157 1 2.40833 10.0145 19.6921 
ITEM: TIMESTEP
50
ITEM: NUMBER OF ATOMS
163
ITEM: BOX BOUNDS xy xz yz pp pp pp
-6.7755000000000001e+00 1.3552000000000000e+01 -6.7755000000000001e+00
0.0000000000000000e+00 1.1735510246683001e+01 0.0000000000000000e+00
0.0000000000000000e+00 2.2149999999999999e+01 0.0000000000000000e+00
ITEM: ATOMS id type x y z 
8 1 -2.47465 5.48723 9.83074 
87 1 2.91806 4.33726 10.6472 
90 1 2.6254 5.46775 9.70582 
109 1 -2.47921 5.4843 0.784742 
158 1 2.62684 5.46917 0.909515 
11 1 4.23676 4.31555 20.085 
14 1 2.8307 4.19325 19.7141 
18 1 1.26105 5.86017 18.5543 
33 1 2.0524 4.3139 20.9292 
43 1 4.24159 4.3002 21.5268 
47 1 3.22347 5.78575 17.8518 
52 1 4.23678 4.31548 12.6782 
76 1 2.38513 4.91031 14.1971 
85 1 4.23869 4.30509 11.2354 
89 1 3.22529 5.7821 14.91 
91 1 0.896543 5.13995 11.8321 
102 1 2.83255 4.19437 13.0496 
105 1 1.25779 5.86046 14.2114 
114 1 2.05017 4.31165 11.8378 
150 1 2.38101 4.90895 18.5685 
156 1 2.91502 4.33695 22.1136 
159 1 0.898254 5.13909 20.9339 
5 1 -4.83403 10.5187 8.66812 
9 1 -3.27273 8.85514 7.47317 
19 1 -1.7314 7.56634 10.5482 
21 1 -2.50307 8.7966 11.0039 
23 1 -3.31384 7.53083 6.82508 
25 1 -4.04592 10.3943 9.8581 
32 1 1.55924 6.36975 0.837322 
36 1 -1.80598 7.61739 9.04576 
38 1 -2.1372 6.29568 8.64425 
54 1 0.360794 8.44327 10.6759 
57 1 1.40018 7.98439 9.76427 
60 1 -1.73464 7.56727 0.0671936 
65 1 -3.31057 7.53868 3.80636 
78 1 -1.81524 7.61695 1.56337 
80 1 -2.49781 8.83045 1.94217 
84 1 -4.39939 9.82087 3.11227 
99 1 -2.89314 9.59023 0.758737 
100 1 -2.93461 6.28078 3.16427 
107 1 -4.8341 10.5241 1.96347 
110 1 -3.28589 8.85865 3.13608 
111 1 0.577551 5.94911 10.6891 
113 1 1.56261 6.36868 9.77548 
119 1 -4.0737 10.3851 0.744885 
127 1 -2.1355 6.30746 1.97012 
131 1 -2.36135 6.28878 11.0165 
138 1 1.39817 7.98564 0.847317 
142 1 -2.46944 8.82694 8.69054 
145 1 -4.4454 9.75306 7.51423 
151 1 -4.90269 10.306 11.0728 
154 1 -2.87414 9.59043 9.8539 
155 1 -2.92845 6.28563 7.44992 
12 1 2.57396 7.05883 17.1409 
17 1 0.463048 9.23763 20.8993 
24 1 -3.45125 8.34212 11.9122 
27 1 -0.254109 7.14143 21.6365 
29 1 0.576719 5.9522 22.0713 
31 1 1.28487 7.195 17.888 
44 1 -0.196069 7.10224 20.1344 
46 1 0.116879 8.4192 19.7232 
51 1 -0.251133 7.14417 11.1291 
53 1 2.57358 7.05876 15.625 
56 1 1.2874 7.19614 14.8757 
63 1 -2.36504 6.28776 21.7596 
66 1 -3.40159 6.7902 20.8458 
70 1 -0.195927 7.10048 12.6304 
72 1 0.471108 5.89272 13.008 
92 1 0.910299 8.43906 14.237 
95 1 -4.93467 10.3083 21.7362 
98 1 -4.64094 9.12004 20.7884 
104 1 0.462967 9.23735 11.8657 
116 1 -2.52122 8.80567 21.7656 
118 1 -3.46508 8.35236 20.8615 
122 1 0.117676 8.42109 13.0409 
133 1 -3.39592 6.7937 11.9143 
136 1 0.359802 8.44293 22.088 
147 1 0.472719 5.89388 19.7528 
153 1 -4.61509 9.13376 11.9742 
160 1 0.910123 8.43813 18.5264 
1 1 7.71598 4.90641 10.5271 
4 1 9.06407 4.91163 11.0017 
20 1 7.7474 4.94162 9.06562 
42 1 9.44297 5.46634 7.46401 
67 1 9.89406 4.68369 0.775661 
77 1 7.71914 4.91451 0.0753583 
94 1 7.7311 4.95586 1.54935 
96 1 9.07629 4.73758 1.98845 
121 1 4.60408 5.56912 10.6939 
130 1 9.43098 5.48402 3.15668 
134 1 9.90672 4.67937 9.84824 
152 1 9.09042 4.71989 8.62783 
45 1 4.60436 5.56943 22.0653 
55 1 4.80981 5.58708 13.0798 
106 1 9.07207 4.90484 21.766 
137 1 4.81004 5.58634 19.6825 
2 1 7.32067 10.452 9.08272 
3 1 8.92572 7.70482 6.08988 
6 1 8.49255 6.37762 6.82551 
16 1 2.39962 8.70904 0.891946 
22 1 7.02553 6.15432 8.66209 
26 1 6.99598 8.39502 7.41981 
35 1 7.33089 10.429 10.5335 
37 1 6.88196 9.18637 11.0964 
39 1 8.29844 8.90683 6.79459 
41 1 6.6498 6.95254 9.83106 
48 1 3.65932 6.38392 0.903715 
61 1 7.29509 10.4093 1.57882 
62 1 8.95701 7.66921 4.56441 
64 1 6.73335 9.12455 1.99638 
68 1 7.35025 6.91702 3.09143 
71 1 4.36785 8.51103 10.716 
74 1 3.62571 7.81831 9.75506 
81 1 8.49163 6.40555 3.7988 
83 1 6.528 8.37671 0.804981 
93 1 7.30229 10.4178 0.159891 
97 1 8.31347 8.93018 3.83522 
101 1 2.46247 9.86515 10.708 
103 1 2.3998 8.70674 9.7204 
117 1 6.99889 6.14726 1.95158 
120 1 7.20865 8.38816 3.10847 
123 1 3.66247 6.38295 9.71242 
129 1 6.64142 6.93489 0.786159 
132 1 6.7696 9.17581 8.72338 
135 1 7.38705 6.88698 7.53766 
141 1 7.15875 6.2248 10.9536 
144 1 6.54993 8.38042 9.85367 
148 1 3.62546 7.81744 0.857955 
161 2 5.9263 8.43949 7.08218 
162 2 4.59891 9.50916 7.45447 
163 3 5.15584 10.2888 7.39092 
7 1 9.11318 6.09094 11.926 
10 1 3.80817 9.8233 21.6082 
13 1 2.46238 9.86324 22.0557 
15 1 3.04246 8.32694 17.8932 
28 1 3.80193 9.77129 20.1338 
30 1 4.53487 8.57444 19.7432 