ITEM: TIMESTEP
0
ITEM: NUMBER OF ATOMS
43
ITEM: BOX BOUNDS pp pp pp
0.0000000000000000e+00 9.8979999999999997e+00
0.0000000000000000e+00 9.8979999999999997e+00
0.0000000000000000e+00 9.8979999999999997e+00
ITEM: ATOMS id type x y z 
1 1 1.091 1.091 1.091 
2 1 0.2 0.2 0.2 
3 1 1.982 1.982 0.2 
4 1 0.2 1.982 1.982 
5 1 1.982 0.2 1.982 
11 1 3.566 3.566 8.515 
12 1 2.675 2.675 9.406 
13 1 4.456 4.456 9.405 
14 1 4.457 2.675 7.624 
15 1 2.675 4.457 7.624 
16 1 3.566 8.515 3.566 
17 1 2.675 9.406 2.675 
18 1 4.457 7.624 2.675 
19 1 4.456 9.405 4.456 
20 1 2.675 7.624 4.457 
41 2 0.056 9.74 1.499 
31 1 1.091 6.04 6.04 
32 1 0.2 5.149 5.149 
33 1 1.982 6.931 5.149 
34 1 0.2 6.931 6.931 
35 1 1.982 5.149 6.931 
26 1 8.515 3.566 3.566 
27 1 9.406 2.675 2.675 
28 1 7.624 4.457 2.675 
29 1 7.624 2.675 4.457 
30 1 9.405 4.456 4.456 
36 1 6.04 1.091 6.04 
37 1 6.931 0.2 6.931 
38 1 5.149 0.2 5.149 
39 1 5.149 1.982 6.931 
40 1 6.931 1.982 5.149 
21 1 6.04 6.04 1.091 
22 1 5.149 6.931 1.982 
23 1 6.931 5.149 1.982 
24 1 5.149 5.149 0.2 
25 1 6.931 6.931 0.2 
42 2 8.838 9.545 2.504 
43 3 9.47 9.59 3.245 
6 1 8.515 8.515 8.515 
7 1 9.405 9.405 9.405 
8 1 7.624 7.624 9.406 
9 1 7.624 9.406 7.624 
10 1 9.406 7.624 7.624 
ITEM: TIMESTEP
10
ITEM: NUMBER OF ATOMS
43
ITEM: BOX BOUNDS pp pp pp
0.0000000000000000e+00 9.8979999999999997e+00
0.0000000000000000e+00 9.8979999999999997e+00
0.0000000000000000e+00 9.8979999999999997e+00
ITEM: ATOMS id type x y z 
1 1 1.16354 1.17068 1.15113 
2 1 0.16399 0.13494 0.282753 
3 1 2.0143 2.01592 0.180101 
4 1 0.207863 1.99739 1.9832 
5 1 1.99166 0.212668 1.98026 
11 1 3.5658 3.56557 8.51337 
12 1 2.70214 2.70146 9.37163 
13 1 4.45922 4.45923 9.40857 
14 1 4.45983 2.67206 7.62148 
15 1 2.67194 4.45996 7.62137 
16 1 3.568 8.51224 3.56802 
17 1 2.67026 9.40444 2.67334 
18 1 4.45797 7.6229 2.6732 
19 1 4.45712 9.40735 4.4574 
20 1 2.67343 7.62259 4.45798 
41 2 -0.0211083 9.67429 1.50357 
31 1 1.09369 6.0367 6.03471 
32 1 0.198148 5.14801 5.14728 
33 1 1.98402 6.93292 5.14648 
34 1 0.200706 6.93019 6.92918 
35 1 1.98305 5.14848 6.93041 
26 1 8.5129 3.56603 3.56661 
27 1 9.40266 2.67421 2.67474 
28 1 7.62146 4.45896 2.67267 
29 1 7.62154 2.67283 4.45889 
30 1 9.40868 4.45879 4.45927 
36 1 6.03731 1.0937 6.03482 
37 1 6.9296 0.201581 6.92838 
38 1 5.14758 0.197651 5.1469 
39 1 5.14845 1.98306 6.93042 
40 1 6.9324 1.98366 5.14717 
21 1 6.03752 6.03739 1.0964 
22 1 5.1468 6.93264 1.98441 
23 1 6.93252 5.14734 1.9842 
24 1 5.14918 5.14911 0.198724 
25 1 6.92978 6.9293 0.201584 
42 2 8.85061 9.54639 2.52689 
43 3 9.45835 9.57811 3.20455 
6 1 8.51817 8.5189 8.51431 
7 1 9.38575 9.38718 9.35618 
8 1 7.61466 7.61494 9.41419 
9 1 7.6135 9.41541 7.6135 
10 1 9.41499 7.61384 7.61374 
ITEM: TIMESTEP
20
ITEM: NUMBER OF ATOMS
43
ITEM: BOX BOUNDS pp pp pp
0.0000000000000000e+00 9.8979999999999997e+00
0.0000000000000000e+00 9.8979999999999997e+00
0.0000000000000000e+00 9.8979999999999997e+00
ITEM: ATOMS id type x y z 
1 1 1.1793 1.1862 1.13846 
2 1 0.128924 0.0778264 0.348057 
3 1 2.00438 2.00632 0.197131 
4 1 0.218527 2.00586 1.98638 
5 1 2.00168 0.221997 1.98754 
11 1 3.57621 3.57609 8.50248 
12 1 2.68979 2.68995 9.38374 
13 1 4.46222 4.46207 9.4069 
14 1 4.46222 2.67238 7.61876 
15 1 2.67231 4.46223 7.61869 
16 1 3.56198 8.51646 3.56341 
17 1 2.67411 9.40163 2.67202 
18 1 4.45668 7.62373 2.67434 
19 1 4.45643 9.40473 4.45649 
20 1 2.67479 7.62402 4.45664 
41 2 0.00493106 9.70445 1.46786 
31 1 1.09602 6.03589 6.03152 
32 1 0.199706 5.14716 5.14612 
33 1 1.98479 6.93195 5.14552 
34 1 0.20124 6.92869 6.92723 
35 1 1.98101 5.14997 6.92736 
26 1 8.51512 3.56365 3.56498 
27 1 9.39976 2.67809 2.67351 
28 1 7.62292 4.45696 2.67426 
29 1 7.62313 2.67402 4.45718 
30 1 9.40529 4.45729 4.4575 
36 1 6.03513 1.09554 6.03127 
37 1 6.92762 0.201932 6.92626 
38 1 5.14626 0.19882 5.14517 
39 1 5.14985 1.98094 6.92728 
40 1 6.93118 1.98424 5.14639 
21 1 6.03593 6.03643 1.09914 
22 1 5.1463 6.93233 1.98614 
23 1 6.93138 5.14746 1.98533 
24 1 5.14985 5.14995 0.203274 
25 1 6.92934 6.92946 0.202125 
42 2 8.82446 9.54367 2.54113 
43 3 9.46365 9.56864 3.20988 
6 1 8.51565 8.51796 8.50544 
7 1 9.40054 9.40331 9.33554 
8 1 7.61388 7.61399 9.4126 
9 1 7.61252 9.41393 7.61126 
10 1 9.41303 7.6128 7.61166 
ITEM: TIMESTEP
21
ITEM: NUMBER OF ATOMS
43
ITEM: BOX BOUNDS pp pp pp
0.0000000000000000e+00 9.8979999999999997e+00
0.0000000000000000e+00 9.8979999999999997e+00
0.0000000000000000e+00 9.8979999999999997e+00
ITEM: ATOMS id type x y z 
1 1 1.1793 1.1862 1.13846 
2 1 0.128924 0.0778264 0.348057 
3 1 2.00438 2.00632 0.197131 
4 1 0.218527 2.00586 1.98638 
5 1 2.00168 0.221997 1.98754 
11 1 3.57621 3.57609 8.50248 
12 1 2.68979 2.68995 9.38374 
13 1 4.46222 4.46207 9.4069 
14 1 4.46222 2.67238 7.61876 
15 1 2.67231 4.46223 7.61869 
16 1 3.56198 8.51646 3.56341 
17 1 2.67411 9.40163 2.67202 
18 1 4.45668 7.62373 2.67434 
19 1 4.45643 9.40473 4.45649 
20 1 2.67479 7.62402 4.45664 
41 2 0.00493106 9.70445 1.46786 
31 1 1.09602 6.03589 6.03152 
32 1 0.199706 5.14716 5.14612 
33 1 1.98479 6.93195 5.14552 
34 1 0.20124 6.92869 6.92723 
35 1 1.98101 5.14997 6.92736 
26 1 8.51512 3.56365 3.56498 
27 1 9.39976 2.67809 2.67351 
28 1 7.62292 4.45696 2.67426 
29 1 7.62313 2.67402 4.45718 
30 1 9.40529 4.45729 4.4575 
36 1 6.03513 1.09554 6.03127 
37 1 6.92762 0.201932 6.92626 
38 1 5.14626 0.19882 5.14517 
39 1 5.14985 1.98094 6.92728 
40 1 6.93118 1.98424 5.14639 
21 1 6.03593 6.03643 1.09914 
22 1 5.1463 6.93233 1.98614 
23 1 6.93138 5.14746 1.98533 
24 1 5.14985 5.14995 0.203274 
25 1 6.92934 6.92946 0.202125 
42 2 8.82446 9.54367 2.54113 
43 3 9.46365 9.56864 3.20988 
6 1 8.51565 8.51796 8.50544 
7 1 9.40054 9.40331 9.33554 
8 1 7.61388 7.61399 9.4126 
9 1 7.61252 9.41393 7.61126 
10 1 9.41303 7.6128 7.61166 
ITEM: TIMESTEP
22
ITEM: NUMBER OF ATOMS
43
ITEM: BOX BOUNDS pp pp pp
0.0000000000000000e+00 9.8979999999999997e+00
0.0000000000000000e+00 9.8979999999999997e+00
0.0000000000000000e+00 9.8979999999999997e+00
ITEM: ATOMS id type x y z 
1 1 1.1793 1.1862 1.13846 
2 1 0.128924 0.0778264 0.348057 
3 1 2.00438 2.00632 0.197131 
4 1 0.218527 2.00586 1.98638 
5 1 2.00168 0.221997 1.98754 
11 1 3.57621 3.57609 8.50248 
12 1 2.68979 2.68995 9.38374 
13 1 4.46222 4.46207 9.4069 
14 1 4.46222 2.67238 7.61876 
15 1 2.67231 4.46223 7.61869 
16 1 3.56198 8.51646 3.56341 
17 1 2.67411 9.40163 2.67202 
18 1 4.45668 7.62373 2.67434 
19 1 4.45643 9.40473 4.45649 
20 1 2.67479 7.62402 4.45664 
41 2 0.00493106 9.70445 1.46786 
31 1 1.09602 6.03589 6.03152 
32 1 0.199706 5.14716 5.14612 
33 1 1.98479 6.93195 5.14552 
34 1 0.20124 6.92869 6.92723 
35 1 1.98101 5.14997 6.92736 
26 1 8.51512 3.56365 3.56498 
27 1 9.39976 2.67809 2.67351 
28 1 7.62292 4.45696 2.67426 
29 1 7.62313 2.67402 4.45718 
30 1 9.40529 4.45729 4.4575 
36 1 6.03513 1.09554 6.03127 
37 1 6.92762 0.201932 6.92626 
38 1 5.14626 0.19882 5.14517 
39 1 5.14985 1.98094 6.92728 
40 1 6.93118 1.98424 5.14639 
21 1 6.03593 6.03643 1.09914 
22 1 5.1463 6.93233 1.98614 
23 1 6.93138 5.14746 1.98533 
24 1 5.14985 5.14995 0.203274 
25 1 6.92934 6.92946 0.202125 
42 2 8.82446 9.54367 2.54113 
43 3 9.46365 9.56864 3.20988 
6 1 8.51565 8.51796 8.50544 
7 1 9.40054 9.40331 9.33554 
8 1 7.61388 7.61399 9.4126 
9 1 7.61252 9.41393 7.61126 
10 1 9.41303 7.6128 7.61166 
ITEM: TIMESTEP
30
ITEM: NUMBER OF ATOMS
43
ITEM: BOX BOUNDS pp pp pp
-2.9393698456909138e-03 9.9009393698456893e+00
-2.6791301817924258e-03 9.9006791301817927e+00
-3.9592000000000004e-03 9.9019591999999967e+00
ITEM: ATOMS id type x y z 
1 1 1.17707 1.18416 1.13544 
2 1 0.125906 0.0749824 0.344379 
3 1 2.00282 2.00492 0.193155 
4 1 0.215592 2.00446 1.98418 
5 1 2.00009 0.219352 1.9853 
11 1 3.57534 3.57529 8.50537 
12 1 2.68833 2.68861 9.3874 
13 1 4.46199 4.46186 9.4105 
14 1 4.462 2.6711 7.62083 
15 1 2.67091 4.46203 7.62076 
16 1 3.56113 8.51842 3.56228 
17 1 2.67263 9.40419 2.67006 
18 1 4.4564 7.62516 2.67251 
19 1 4.45617 9.40719 4.45614 
20 1 2.67339 7.62543 4.45628 
41 2 0.0020427 9.70706 1.46511 
31 1 1.09373 6.03648 6.03238 
32 1 0.196761 5.14714 5.14615 
33 1 1.98309 6.93307 5.14562 
34 1 0.198381 6.92979 6.92885 
35 1 1.97933 5.15 6.92902 
26 1 8.51726 3.5629 3.56385 
27 1 9.40256 2.67672 2.67154 
28 1 7.62441 4.45678 2.67235 
29 1 7.62464 2.67272 4.45685 
30 1 9.40803 4.45711 4.4572 
36 1 6.03577 1.09346 6.03213 
37 1 6.92882 0.199326 6.92786 
38 1 5.14632 0.196195 5.14526 
39 1 5.14988 1.97942 6.92894 
40 1 6.93244 1.98273 5.14645 
21 1 6.03658 6.03702 1.09607 
22 1 5.1464 6.93342 1.9838 
23 1 6.93268 5.14744 1.98309 
24 1 5.14989 5.14999 0.199421 
25 1 6.93055 6.93056 0.198299 
42 2 8.82669 9.54615 2.53928 
43 3 9.46632 9.5711 3.2085 
6 1 8.51778 8.5199 8.50825 
7 1 9.40328 9.40581 9.33908 
8 1 7.61545 7.61542 9.41617 
9 1 7.61407 9.41636 7.61336 
10 1 9.41569 7.61421 7.61376 
ITEM: TIMESTEP
40
ITEM: NUMBER OF ATOMS
43
ITEM: BOX BOUNDS pp pp pp
-4.1100496844630316e-03 9.9021100496844561e+00
-3.1882429374187689e-03 9.9011882429374154e+00
-7.3966272928201486e-03 9.9053966272928164e+00
ITEM: ATOMS id type x y z 
1 1 1.1762 1.18377 1.13289 
2 1 0.124306 0.073889 0.341115 
3 1 2.00261 2.00511 0.189418 
4 1 0.214189 2.00466 1.98253 
5 1 1.99985 0.218606 1.98365 
11 1 3.57485 3.57499 8.50799 
12 1 2.68749 2.68808 9.39078 
13 1 4.46203 4.46197 9.4137 
14 1 4.46205 2.67074 7.62251 
15 1 2.67025 4.46214 7.62245 
16 1 3.56075 8.51885 3.5613 
17 1 2.67173 9.40506 2.66809 
18 1 4.45638 7.62533 2.67081 
19 1 4.45627 9.40788 4.45601 
20 1 2.67264 7.62551 4.45612 
41 2 0.000995607 9.70765 1.46276 
31 1 1.09283 6.03658 6.03311 
32 1 0.195278 5.1468 5.1459 
33 1 1.98267 6.93352 5.14549 
34 1 0.197091 6.93014 6.93036 
35 1 1.97883 5.14982 6.93058 
26 1 8.51815 3.56275 3.56284 
27 1 9.40401 2.67615 2.66958 
28 1 7.6248 4.45696 2.67055 
29 1 7.62508 2.67229 4.4567 
30 1 9.40934 4.45731 4.45711 
36 1 6.03601 1.09306 6.03287 
37 1 6.92943 0.198683 6.92936 
38 1 5.14606 0.195405 5.14508 
39 1 5.14971 1.97933 6.93051 
40 1 6.93318 1.98271 5.14629 
21 1 6.03684 6.03712 1.09341 
22 1 5.14629 6.93377 1.98192 
23 1 6.93346 5.14713 1.98137 
24 1 5.14975 5.14982 0.195974 
25 1 6.93113 6.9309 0.194883 
42 2 8.82744 9.54659 2.53781 
43 3 9.46736 9.57147 3.20732 
6 1 8.51863 8.52027 8.51062 
7 1 9.40466 9.40657 9.3423 
8 1 7.61603 7.61563 9.41928 
9 1 7.61459 9.41689 7.61508 
10 1 9.41681 7.61438 7.61548 
ITEM: TIMESTEP
49
ITEM: NUMBER OF ATOMS
43
ITEM: BOX BOUNDS pp pp pp
-5.3923215360121204e-03 9.9033923215360051e+00
-3.9827349821235153e-03 9.9019827349821199e+00
-1.0613477382657239e-02 9.9086134773826515e+00
ITEM: ATOMS id type x y z 
1 1 1.17525 1.18317 1.1305 
2 1 0.122692 0.0726269 0.338104 
3 1 2.00217 2.00496 0.186062 
4 1 0.212848 2.00449 1.98083 
5 1 1.99938 0.21774 1.98195 
11 1 3.57436 3.57464 8.51042 
12 1 2.68672 2.68754 9.39385 
13 1 4.46202 4.462 9.41666 
14 1 4.46204 2.67029 7.62413 
15 1 2.66958 4.46218 7.62406 
16 1 3.56037 8.51947 3.56037 
17 1 2.67091 9.40605 2.66636 
18 1 4.45633 7.62566 2.66924 
19 1 4.45628 9.40875 4.45583 
20 1 2.67192 7.62582 4.45592 
41 2 -0.000186837 9.7085 1.46056 
31 1 1.09184 6.03675 6.0338 
32 1 0.193857 5.14664 5.14582 
33 1 1.98209 6.934 5.14543 
34 1 0.195703 6.9306 6.93177 
35 1 1.97821 5.14971 6.932 
26 1 8.51911 3.56251 3.56189 
27 1 9.40542 2.67558 2.66786 
28 1 7.62536 4.45699 2.66895 
29 1 7.62566 2.6718 4.45648 
30 1 9.41063 4.45735 4.45691 
36 1 6.03628 1.09245 6.03356 
37 1 6.93008 0.197773 6.93077 
38 1 5.14589 0.194426 5.14497 
39 1 5.14962 1.97901 6.93194 
40 1 6.93386 1.98242 5.14624 
21 1 6.03713 6.0373 1.09092 
22 1 5.1462 6.93422 1.98015 
23 1 6.93415 5.14698 1.97964 
24 1 5.14966 5.14971 0.192783 
25 1 6.93175 6.93134 0.191681 
42 2 8.82829 9.54731 2.53643 
43 3 9.4685 9.57212 3.20621 
6 1 8.51955 8.52085 8.51284 
7 1 9.40607 9.40752 9.34527 
8 1 7.61666 7.616 9.4222 
9 1 7.61518 9.41767 7.6167 
10 1 9.41803 7.6147 7.61709 
ITEM: TIMESTEP
50
ITEM: NUMBER OF ATOMS
43
ITEM: BOX BOUNDS pp pp pp
-5.3923215360121204e-03 9.9033923215360051e+00
-3.9827349821235153e-03 9.9019827349821199e+00
-1.0613477382657239e-02 9.9086134773826515e+00
ITEM: ATOMS id type x y z 
1 1 1.17525 1.18317 1.1305 
2 1 0.122692 0.0726269 0.338104 
3 1 2.00217 2.00496 0.186062 
4 1 0.212848 2.00449 1.98083 
5 1 1.99938 0.21774 1.98195 
11 1 3.57436 3.57464 8.51042 
12 1 2.68672 2.68754 9.39385 
13 1 4.46202 4.462 9.41666 
14 1 4.46204 2.67029 7.62413 
15 1 2.66958 4.46218 7.62406 
16 1 3.56037 8.51947 3.56037 
17 1 2.67091 9.40605 2.66636 
18 1 4.45633 7.62566 2.66924 
19 1 4.45628 9.40875 4.45583 
20 1 2.67192 7.62582 4.45592 
41 2 -0.000186837 9.7085 1.46056 
31 1 1.09184 6.03675 6.0338 
32 1 0.193857 5.14664 5.14582 
33 1 1.98209 6.934 5.14543 
34 1 0.195703 6.9306 6.93177 
35 1 1.97821 5.14971 6.932 
26 1 8.51911 3.56251 3.56189 
27 1 9.40542 2.67558 2.66786 
28 1 7.62536 4.45699 2.66895 
29 1 7.62566 2.6718 4.45648 
30 1 9.41063 4.45735 4.45691 
36 1 6.03628 1.09245 6.03356 
37 1 6.93008 0.197773 6.93077 
38 1 5.14589 0.194426 5.14497 
39 1 5.14962 1.97901 6.93194 
40 1 6.93386 1.98242 5.14624 
21 1 6.03713 6.0373 1.09092 
22 1 5.1462 6.93422 1.98015 
23 1 6.93415 5.14698 1.97964 
24 1 5.14966 5.14971 0.192783 
25 1 6.93175 6.93134 0.191681 
42 2 8.82829 9.54731 2.53643 
43 3 9.4685 9.57212 3.20621 
6 1 8.51955 8.52085 8.51284 
7 1 9.40607 9.40752 9.34527 
8 1 7.61666 7.616 9.4222 
9 1 7.61518 9.41767 7.6167 
10 1 9.41803 7.6147 7.61709 
ITEM: TIMESTEP
51
ITEM: NUMBER OF ATOMS
43
ITEM: BOX BOUNDS pp pp pp
-5.3923215360121204e-03 9.9033923215360051e+00
-3.9827349821235153e-03 9.9019827349821199e+00
-1.0613477382657239e-02 9.9086134773826515e+00
ITEM: ATOMS id type x y z 
1 1 1.17525 1.18317 1.1305 
2 1 0.122692 0.0726269 0.338104 
3 1 2.00217 2.00496 0.186062 
4 1 0.212848 2.00449 1.98083 
5 1 1.99938 0.21774 1.98195 
11 1 3.57436 3.57464 8.51042 
12 1 2.68672 2.68754 9.39385 
13 1 4.46202 4.462 9.41666 
14 1 4.46204 2.67029 7.62413 
15 1 2.66958 4.46218 7.62406 
16 1 3.56037 8.51947 3.56037 
17 1 2.67091 9.40605 2.66636 
18 1 4.45633 7.62566 2.66924 
19 1 4.45628 9.40875 4.45583 
20 1 2.67192 7.62582 4.45592 
41 2 -0.000186837 9.7085 1.46056 
31 1 1.09184 6.03675 6.0338 
32 1 0.193857 5.14664 5.14582 
33 1 1.98209 6.934 5.14543 
34 1 0.195703 6.9306 6.93177 
35 1 1.97821 5.14971 6.932 
26 1 8.51911 3.56251 3.56189 
27 1 9.40542 2.67558 2.66786 
28 1 7.62536 4.45699 2.66895 
29 1 7.62566 2.6718 4.45648 
30 1 9.41063 4.45735 4.45691 
36 1 6.03628 1.09245 6.03356 
37 1 6.93008 0.197773 6.93077 
38 1 5.14589 0.194426 5.14497 
39 1 5.14962 1.97901 6.93194 
40 1 6.93386 1.98242 5.14624 
21 1 6.03713 6.0373 1.09092 
22 1 5.1462 6.93422 1.98015 
23 1 6.93415 5.14698 1.97964 
24 1 5.14966 5.14971 0.192783 
25 1 6.93175 6.93134 0.191681 
42 2 8.82829 9.54731 2.53643 
43 3 9.4685 9.57212 3.20621 
6 1 8.51955 8.52085 8.51284 
7 1 9.40607 9.40752 9.34527 
8 1 7.61666 7.616 9.4222 
9 1 7.61518 9.41767 7.6167 
10 1 9.41803 7.6147 7.61709 
ITEM: TIMESTEP
52
ITEM: NUMBER OF ATOMS
43
ITEM: BOX BOUNDS pp pp pp
-5.3923215360121204e-03 9.9033923215360051e+00
-3.9827349821235153e-03 9.9019827349821199e+00
-1.0613477382657239e-02 9.9086134773826515e+00
ITEM: ATOMS id type x y z 
1 1 1.17525 1.18317 1.1305 
2 1 0.122692 0.0726269 0.338104 
3 1 2.00217 2.00496 0.186062 
4 1 0.212848 2.00449 1.98083 
5 1 1.99938 0.21774 1.98195 
11 1 3.57436 3.57464 8.51042 
12 1 2.68672 2.68754 9.39385 
13 1 4.46202 4.462 9.41666 
14 1 4.46204 2.67029 7.62413 
15 1 2.66958 4.46218 7.62406 
16 1 3.56037 8.51947 3.56037 
17 1 2.67091 9.40605 2.66636 
18 1 4.45633 7.62566 2.66924 
19 1 4.45628 9.40875 4.45583 
20 1 2.67192 7.62582 4.45592 
41 2 -0.000186837 9.7085 1.46056 
31 1 1.09184 6.03675 6.0338 
32 1 0.193857 5.14664 5.14582 
33 1 1.98209 6.934 5.14543 
34 1 0.195703 6.9306 6.93177 
35 1 1.97821 5.14971 6.932 
26 1 8.51911 3.56251 3.56189 
27 1 9.40542 2.67558 2.66786 
28 1 7.62536 4.45699 2.66895 
29 1 7.62566 2.6718 4.45648 
30 1 9.41063 4.45735 4.45691 
36 1 6.03628 1.09245 6.03356 
37 1 6.93008 0.197773 6.93077 
38 1 5.14589 0.194426 5.14497 
39 1 5.14962 1.97901 6.93194 
40 1 6.93386 1.98242 5.14624 
21 1 6.03713 6.0373 1.09092 
22 1 5.1462 6.93422 1.98015 
23 1 6.93415 5.14698 1.97964 
24 1 5.14966 5.14971 0.192783 
25 1 6.93175 6.93134 0.191681 
42 2 8.82829 9.54731 2.53643 
43 3 9.4685 9.57212 3.20621 
6 1 8.51955 8.52085 8.51284 
7 1 9.40607 9.40752 9.34527 
8 1 7.61666 7.616 9.4222 
9 1 7.61518 9.41767 7.6167 
10 1 9.41803 7.6147 7.61709 
