LAMMPS (3 Mar 2020)
# Alpha
clear
units		real
dimension 3
boundary        p p p
atom_style	charge
newton on
read_data       H_4.lmp
  orthogonal box = (0 0 0) to (7.097 7.097 24.588)
  1 by 2 by 4 MPI processor grid
  reading atoms ...
  33 atoms
  read_data CPU = 0.00216753 secs

timestep 0.25

# ---------- Define Interatomic Potential ---------------------
pair_style      reax/c NULL checkqeq no
pair_coeff      * * ffield.reax C H
fix             2 all qeq/reax 1 0.0 10.0 1.0e-6 reax/c

#------------ Equilibration of the system -------------------------
reset_timestep 0

dump 1 all custom 10 min.lammpstrj id type x y z

minimize 1.0e-8 1.0e-8 100000 100000
WARNING: Using 'neigh_modify every 1 delay 0 check yes' setting during minimization (../min.cpp:190)
WARNING: Total cutoff < 2*bond cutoff. May need to use an increased neighbor list skin. (../pair_reaxc.cpp:413)
Neighbor list info ...
  update every 1 steps, delay 0 steps, check yes
  max neighbors/atom: 2000, page size: 100000
  master list distance cutoff = 9.5
  ghost atom cutoff = 9.5
  binsize = 4.75, bins = 2 2 6
  2 neighbor lists, perpetual/occasional/extra = 2 0 0
  (1) pair reax/c, perpetual
      attributes: half, newton off, ghost
      pair build: half/bin/newtoff/ghost
      stencil: half/ghost/bin/3d/newtoff
      bin: standard
  (2) fix qeq/reax, perpetual, copy from (1)
      attributes: half, newton off, ghost
      pair build: copy
      stencil: none
      bin: none
Per MPI rank memory allocation (min/avg/max) = 14.25 | 14.75 | 15.25 Mbytes
Step Temp E_pair E_mol TotEng Press 
       0            0    -5898.843            0    -5898.843    12003.367 
     163            0   -5953.9325            0   -5953.9325   -21478.559 
Loop time of 1.60669 on 8 procs for 163 steps with 33 atoms

99.5% CPU use with 8 MPI tasks x no OpenMP threads

Minimization stats:
  Stopping criterion = energy tolerance
  Energy initial, next-to-last, final = 
        -5898.84304794     -5953.93249249     -5953.93252744
  Force two-norm initial, final = 888.791 14.8022
  Force max component initial, final = 456.043 7.31069
  Final line search alpha, max atom move = 0.000106652 0.000779702
  Iterations, force evaluations = 163 1082

MPI task timing breakdown:
Section |  min time  |  avg time  |  max time  |%varavg| %total
---------------------------------------------------------------
Pair    | 1.0864     | 1.1299     | 1.1661     |   2.7 | 70.33
Neigh   | 0          | 0          | 0          |   0.0 |  0.00
Comm    | 0.016919   | 0.053535   | 0.096629   |  12.4 |  3.33
Output  | 0.0002062  | 0.00027023 | 0.0003821  |   0.0 |  0.02
Modify  | 0.41756    | 0.4176     | 0.41764    |   0.0 | 25.99
Other   |            | 0.005355   |            |       |  0.33

Nlocal:    4.125 ave 9 max 0 min
Histogram: 4 0 0 0 0 0 0 0 3 1
Nghost:    392.875 ave 397 max 388 min
Histogram: 1 3 0 0 0 0 0 0 0 4
Neighs:    401.75 ave 893 max 0 min
Histogram: 4 0 0 0 0 0 0 0 3 1

Total # of neighbors = 3214
Ave neighs/atom = 97.3939
Neighbor list builds = 0
Dangerous builds = 0

###
min_style cg
minimize 1.0e-8 1.0e-8 100000 100000
WARNING: Using 'neigh_modify every 1 delay 0 check yes' setting during minimization (../min.cpp:190)
WARNING: Total cutoff < 2*bond cutoff. May need to use an increased neighbor list skin. (../pair_reaxc.cpp:413)
Per MPI rank memory allocation (min/avg/max) = 14.25 | 14.75 | 15.25 Mbytes
Step Temp E_pair E_mol TotEng Press 
     163            0   -5953.9325            0   -5953.9325   -21478.559 
     164            0   -5953.9325            0   -5953.9325   -21478.433 
Loop time of 0.0157718 on 8 procs for 1 steps with 33 atoms

99.5% CPU use with 8 MPI tasks x no OpenMP threads

Minimization stats:
  Stopping criterion = energy tolerance
  Energy initial, next-to-last, final = 
        -5953.93252744     -5953.93252744     -5953.93252955
  Force two-norm initial, final = 14.8022 14.7986
  Force max component initial, final = 7.31069 7.30981
  Final line search alpha, max atom move = 0.000106864 0.000781156
  Iterations, force evaluations = 1 10

MPI task timing breakdown:
Section |  min time  |  avg time  |  max time  |%varavg| %total
---------------------------------------------------------------
Pair    | 0.010986   | 0.011417   | 0.011759   |   0.3 | 72.39
Neigh   | 0          | 0          | 0          |   0.0 |  0.00
Comm    | 0.00014664 | 0.00049323 | 0.00092193 |   0.0 |  3.13
Output  | 0          | 0          | 0          |   0.0 |  0.00
Modify  | 0.0037758  | 0.0037778  | 0.0037799  |   0.0 | 23.95
Other   |            | 8.348e-05  |            |       |  0.53

Nlocal:    4.125 ave 9 max 0 min
Histogram: 4 0 0 0 0 0 0 0 3 1
Nghost:    392.875 ave 397 max 388 min
Histogram: 1 3 0 0 0 0 0 0 0 4
Neighs:    400.5 ave 887 max 0 min
Histogram: 4 0 0 0 0 0 0 0 3 1

Total # of neighbors = 3204
Ave neighs/atom = 97.0909
Neighbor list builds = 0
Dangerous builds = 0

###
fix 1 all box/relax aniso 0.0
min_style cg
minimize 1.0e-8 1.0e-8 100000 100000
WARNING: Using 'neigh_modify every 1 delay 0 check yes' setting during minimization (../min.cpp:190)
WARNING: Total cutoff < 2*bond cutoff. May need to use an increased neighbor list skin. (../pair_reaxc.cpp:413)
Per MPI rank memory allocation (min/avg/max) = 14.25 | 14.75 | 15.25 Mbytes
Step Temp E_pair E_mol TotEng Press Volume 
     164            0   -5953.9325            0   -5953.9325   -21478.433    1238.4339 
     646            0   -5957.9844            0   -5957.9844     -193.397    1218.0459 
Loop time of 0.90236 on 8 procs for 482 steps with 33 atoms

99.5% CPU use with 8 MPI tasks x no OpenMP threads

Minimization stats:
  Stopping criterion = energy tolerance
  Energy initial, next-to-last, final = 
        -5953.93252955     -5957.98436092     -5957.98437976
  Force two-norm initial, final = 711.303 14.563
  Force max component initial, final = 572.592 9.0184
  Final line search alpha, max atom move = 1.38849e-05 0.00012522
  Iterations, force evaluations = 482 670

MPI task timing breakdown:
Section |  min time  |  avg time  |  max time  |%varavg| %total
---------------------------------------------------------------
Pair    | 0.66734    | 0.69304    | 0.71551    |   2.1 | 76.80
Neigh   | 0          | 0          | 0          |   0.0 |  0.00
Comm    | 0.0083124  | 0.030899   | 0.056335   |   9.7 |  3.42
Output  | 0.00054856 | 0.00065855 | 0.0008401  |   0.0 |  0.07
Modify  | 0.16802    | 0.16803    | 0.16804    |   0.0 | 18.62
Other   |            | 0.009735   |            |       |  1.08

Nlocal:    4.125 ave 9 max 0 min
Histogram: 4 0 0 0 0 0 0 0 3 1
Nghost:    392.875 ave 397 max 388 min
Histogram: 1 3 0 0 0 0 0 0 0 4
Neighs:    400.5 ave 887 max 0 min
Histogram: 4 0 0 0 0 0 0 0 3 1

Total # of neighbors = 3204
Ave neighs/atom = 97.0909
Neighbor list builds = 0
Dangerous builds = 0

unfix 1
###
min_style cg
minimize 1.0e-8 1.0e-8 100000 100000
WARNING: Using 'neigh_modify every 1 delay 0 check yes' setting during minimization (../min.cpp:190)
WARNING: Total cutoff < 2*bond cutoff. May need to use an increased neighbor list skin. (../pair_reaxc.cpp:413)
Per MPI rank memory allocation (min/avg/max) = 14.25 | 14.75 | 15.25 Mbytes
Step Temp E_pair E_mol TotEng Press 
     646            0   -5957.9844            0   -5957.9844     -193.397 
     677            0   -5958.2952            0   -5958.2952    -2523.597 
Loop time of 0.294217 on 8 procs for 31 steps with 33 atoms

99.6% CPU use with 8 MPI tasks x no OpenMP threads

Minimization stats:
  Stopping criterion = energy tolerance
  Energy initial, next-to-last, final = 
        -5957.98437976     -5958.29515373     -5958.29515961
  Force two-norm initial, final = 12.1951 16.0884
  Force max component initial, final = 9.0184 5.55702
  Final line search alpha, max atom move = 0.000280976 0.00156139
  Iterations, force evaluations = 31 198

MPI task timing breakdown:
Section |  min time  |  avg time  |  max time  |%varavg| %total
---------------------------------------------------------------
Pair    | 0.20085    | 0.20908    | 0.21637    |   1.2 | 71.06
Neigh   | 0          | 0          | 0          |   0.0 |  0.00
Comm    | 0.0033173  | 0.010653   | 0.018792   |   5.4 |  3.62
Output  | 3.6198e-05 | 4.3402e-05 | 5.4061e-05 |   0.0 |  0.01
Modify  | 0.073404   | 0.073413   | 0.073419   |   0.0 | 24.95
Other   |            | 0.00103    |            |       |  0.35

Nlocal:    4.125 ave 9 max 0 min
Histogram: 4 0 0 0 0 0 0 0 3 1
Nghost:    399.875 ave 404 max 395 min
Histogram: 1 3 0 0 0 0 0 0 0 4
Neighs:    407.25 ave 907 max 0 min
Histogram: 4 0 0 0 0 0 0 0 3 1

Total # of neighbors = 3258
Ave neighs/atom = 98.7273
Neighbor list builds = 0
Dangerous builds = 0

###
fix 1 all box/relax aniso 0.0
min_style cg
minimize 1.0e-8 1.0e-8 100000 100000
WARNING: Using 'neigh_modify every 1 delay 0 check yes' setting during minimization (../min.cpp:190)
WARNING: Total cutoff < 2*bond cutoff. May need to use an increased neighbor list skin. (../pair_reaxc.cpp:413)
Per MPI rank memory allocation (min/avg/max) = 14.25 | 14.75 | 15.25 Mbytes
Step Temp E_pair E_mol TotEng Press Volume 
     677            0   -5958.2952            0   -5958.2952    -2523.597    1218.0459 
     993            0   -5958.9998            0   -5958.9998   -350.81812    1215.6169 
Loop time of 0.775319 on 8 procs for 316 steps with 33 atoms

99.5% CPU use with 8 MPI tasks x no OpenMP threads

Minimization stats:
  Stopping criterion = energy tolerance
  Energy initial, next-to-last, final = 
        -5958.29515961     -5958.99978347     -5958.99979627
  Force two-norm initial, final = 95.2386 19.2124
  Force max component initial, final = 76.4348 10.7273
  Final line search alpha, max atom move = 1.58418e-05 0.00016994
  Iterations, force evaluations = 316 566

MPI task timing breakdown:
Section |  min time  |  avg time  |  max time  |%varavg| %total
---------------------------------------------------------------
Pair    | 0.57106    | 0.5942     | 0.61525    |   2.0 | 76.64
Neigh   | 0          | 0          | 0          |   0.0 |  0.00
Comm    | 0.0068115  | 0.027949   | 0.050872   |   9.2 |  3.60
Output  | 0.00057112 | 0.00064875 | 0.00077843 |   0.0 |  0.08
Modify  | 0.1448     | 0.14483    | 0.14485    |   0.0 | 18.68
Other   |            | 0.007693   |            |       |  0.99

Nlocal:    4.125 ave 9 max 0 min
Histogram: 4 0 0 0 0 0 0 0 3 1
Nghost:    399.875 ave 404 max 395 min
Histogram: 1 3 0 0 0 0 0 0 0 4
Neighs:    407.75 ave 908 max 0 min
Histogram: 4 0 0 0 0 0 0 0 3 1

Total # of neighbors = 3262
Ave neighs/atom = 98.8485
Neighbor list builds = 0
Dangerous builds = 0

unfix 1
###
min_style cg
minimize 1.0e-8 1.0e-8 100000 100000
WARNING: Using 'neigh_modify every 1 delay 0 check yes' setting during minimization (../min.cpp:190)
WARNING: Total cutoff < 2*bond cutoff. May need to use an increased neighbor list skin. (../pair_reaxc.cpp:413)
Per MPI rank memory allocation (min/avg/max) = 14.25 | 14.75 | 15.25 Mbytes
Step Temp E_pair E_mol TotEng Press 
     993            0   -5958.9998            0   -5958.9998   -350.81812 
     999            0   -5959.0044            0   -5959.0044   -132.88103 
Loop time of 0.113306 on 8 procs for 6 steps with 33 atoms

99.6% CPU use with 8 MPI tasks x no OpenMP threads

Minimization stats:
  Stopping criterion = energy tolerance
  Energy initial, next-to-last, final = 
        -5958.99979627     -5959.00438728     -5959.00444438
  Force two-norm initial, final = 14.8921 4.62146
  Force max component initial, final = 7.2337 1.77541
  Final line search alpha, max atom move = 4.17892e-05 7.41929e-05
  Iterations, force evaluations = 6 78

MPI task timing breakdown:
Section |  min time  |  avg time  |  max time  |%varavg| %total
---------------------------------------------------------------
Pair    | 0.078415   | 0.082326   | 0.085939   |   0.9 | 72.66
Neigh   | 0          | 0          | 0          |   0.0 |  0.00
Comm    | 0.00098861 | 0.0046168  | 0.0084898  |   3.6 |  4.07
Output  | 0          | 0          | 0          |   0.0 |  0.00
Modify  | 0.025972   | 0.025976   | 0.02598    |   0.0 | 22.93
Other   |            | 0.0003873  |            |       |  0.34

Nlocal:    4.125 ave 9 max 0 min
Histogram: 4 0 0 0 0 0 0 0 3 1
Nghost:    397.875 ave 404 max 392 min
Histogram: 2 0 1 1 0 0 2 0 0 2
Neighs:    409 ave 907 max 0 min
Histogram: 4 0 0 0 0 0 0 0 3 1

Total # of neighbors = 3272
Ave neighs/atom = 99.1515
Neighbor list builds = 0
Dangerous builds = 0

undump 1
#############
#----------- Thermo ------------
reset_timestep 0
thermo  200

thermo_style    custom step temp etotal ke pe press
velocity all create 300 12345 mom yes rot yes
fix 1 all npt temp 300 300 25.0 iso 0.0 0.0 250.0

variable vpe equal pe
variable vtemp equal temp
variable vstep equal step

fix output all print 2500 "${vstep} ${vtemp} ${vpe}" file temp-tpdh-Pt.dat screen no

dump 1 all custom 2500 thermo-tpdh-Pt.lammpstrj id type x y z

run 1000000
WARNING: Total cutoff < 2*bond cutoff. May need to use an increased neighbor list skin. (../pair_reaxc.cpp:413)
Per MPI rank memory allocation (min/avg/max) = 13.12 | 13.62 | 14.12 Mbytes
Step Temp TotEng KinEng PotEng Press 
       0          300   -5930.3887    28.615776   -5959.0044    943.19177 
     200    257.79146   -5917.4201    24.589676   -5942.0098   -6836.9957 
     400    294.33945   -5898.4681     28.07584    -5926.544    2472.7018 
     600    324.50504   -5900.2756    30.953212   -5931.2288   -13194.455 
     800    266.92855    -5906.667    25.461226   -5932.1283    15972.749 
    1000    332.04339   -5891.3714    31.672264   -5923.0437    13188.745 
    1200    279.99416   -5901.7385    26.707501    -5928.446   -12328.695 
    1400    272.87132   -5906.0823    26.028082   -5932.1104   -442.70385 
    1600    272.80617   -5901.5186    26.021868   -5927.5404   -4710.4983 
    1800    333.64872    -5883.692    31.825391   -5915.5174    24486.937 
    2000    309.58095   -5899.6555    29.529664   -5929.1852    -4875.517 
    2200    289.21358   -5900.1242    27.586903   -5927.7111    5664.9656 
    2400    276.62889        -5908    26.386501   -5934.3865   -10770.574 
    2600    278.96789   -5910.8818     26.60961   -5937.4914    2411.9251 
    2800    293.30372   -5896.9282    27.977046   -5924.9052    21023.151 
    3000    239.22655   -5904.5773    22.818845   -5927.3962    4006.8094 
    3200    275.83885   -5902.2355    26.311143   -5928.5466   -2622.8252 
    3400    331.05189   -5898.7012     31.57769   -5930.2789   -6304.6592 
    3600    336.52296   -5894.5479    32.099553   -5926.6475    623.60559 
    3800    259.95596   -5908.9074    24.796139   -5933.7036   -4331.0619 
    4000    291.52538   -5899.9074    27.807417   -5927.7148   -17.293917 
    4200    327.80422   -5899.0434    31.267908   -5930.3113   -8884.2958 
    4400    321.55101   -5902.2073     30.67144   -5932.8787    2954.7902 
    4600    260.54935   -5905.7047     24.85274   -5930.5574    4236.5284 
    4800    246.50986   -5901.6834    23.513571    -5925.197    1427.5991 
    5000    250.27743   -5896.3758    23.872943   -5920.2488   -358.27381 
    5200    233.10433   -5912.2589    22.234872   -5934.4938    6702.7049 
    5400    300.79063    -5905.432    28.691191   -5934.1232    609.46618 
    5600    356.00224   -5900.2736    33.957601   -5934.2312   -286.63839 
    5800    229.94105   -5910.6538    21.933139   -5932.5869     4197.166 
    6000    256.23071   -5905.4449    24.440802   -5929.8857   -1266.4527 
    6200     250.2667   -5898.0845     23.87192   -5921.9564    10308.229 
    6400    236.42559    -5902.517    22.551672   -5925.0687   -7945.7714 
    6600    279.08238   -5907.8238     26.62053   -5934.4443    13878.742 
    6800    369.05627   -5896.9289    35.202773   -5932.1317   -934.72991 
    7000    246.00894   -5909.2843     23.46579   -5932.7501    1276.8111 
    7200    274.29168   -5908.1477    26.163564   -5934.3112   -7359.2854 
    7400    261.46244   -5898.7867    24.939836   -5923.7266    17567.524 
    7600    316.80084    -5897.429     30.21834   -5927.6474   -20046.719 
    7800    211.97157   -5911.6225    20.219103   -5931.8416   -4236.1175 
    8000     275.2418   -5903.9897    26.254193   -5930.2439    6043.3764 
    8200    335.84339   -5900.1586    32.034732   -5932.1933   -14093.579 
    8400    263.76208   -5908.9454    25.159189   -5934.1045   -1485.2642 
    8600    249.52045   -5907.6354    23.800738   -5931.4361   -2152.3268 
    8800    363.97818   -5896.4151    34.718394   -5931.1335   -16873.333 
    9000    274.08552   -5908.0539      26.1439   -5934.1978    7715.3162 
    9200    269.61041   -5903.3032    25.717038   -5929.0202   -4355.9052 
    9400    289.01967   -5899.0311    27.568408   -5926.5995   -19761.664 
    9600    442.37378   -5885.1481     42.19623   -5927.3443    28079.069 
    9800    344.33911   -5904.5922    32.845103   -5937.4373   -10124.674 
   10000    315.03746   -5907.4798    30.050138   -5937.5299   -8943.7369 
   10200    332.90343   -5893.4232      31.7543   -5925.1775   -1742.4035 
   10400    249.87541   -5903.6254    23.834596     -5927.46     8610.064 
   10600    266.39752    -5911.566    25.410573   -5936.9765   -7066.2761 
   10800    349.92596    -5898.893     33.37801    -5932.271    21112.103 
   11000    402.84961   -5896.7101    38.426181   -5935.1363   -10300.733 
   11200     323.1292   -5910.0871    30.821976    -5940.909    191.71381 
   11400    387.10062   -5898.5922     36.92395   -5935.5161   -6374.4544 
   11600    363.78336   -5897.6932    34.699811    -5932.393    2372.8422 
   11800    237.26325   -5907.2063    22.631573   -5929.8379   -3347.9267 
   12000    260.69197   -5910.4659    24.866343   -5935.3322    11369.278 
   12200    294.75023   -5899.6258    28.115022   -5927.7409    24153.077 
   12400    278.70506   -5906.4804    26.584539   -5933.0649    9038.8797 
   12600    251.85918   -5913.5873     24.02382   -5937.6111    882.35829 
   12800     246.3081   -5899.8406    23.494325    -5923.335   -17492.198 
   13000    378.47065   -5897.5179    36.100772   -5933.6187    7409.9223 
   13200    259.31474    -5908.793    24.734975   -5933.5279    7741.2857 
   13400    326.24501   -5903.0886    31.119181   -5934.2077   -2309.3806 
   13600    365.88356   -5897.8105     34.90014   -5932.7106   -946.53995 
   13800    290.70106   -5903.1224    27.728789   -5930.8512   -15640.715 
   14000    285.89448   -5908.0124    27.270309   -5935.2827     9696.573 
   14200    293.89129   -5900.8091    28.033091   -5928.8422   -11617.015 
   14400    333.04116   -5903.9149    31.767438   -5935.6824    9730.7551 
   14600    321.81684   -5904.9572    30.696796    -5935.654    -7038.153 
   14800    379.36051   -5895.4577    36.185652   -5931.6433    11571.143 
   15000    326.91867   -5900.4257    31.183439   -5931.6091    18581.235 
   15200    279.45344   -5905.2723    26.655924   -5931.9282    11831.351 
   15400    320.05468    -5899.968     30.52871   -5930.4967     17615.84 
   15600    275.70147   -5907.6902    26.298039   -5933.9882   -570.09159 
   15800    319.25243   -5900.5465    30.452187   -5930.9987    856.87087 
   16000    347.00657   -5889.0255    33.099542    -5922.125   -306.05062 
   16200    311.04552   -5901.2412    29.669364   -5930.9106    2844.3797 
   16400    240.48046   -5906.0469     22.93845   -5928.9853    -13228.79 
   16600      275.213   -5895.3334    26.251446   -5921.5849    5820.6191 
   16800    233.78158   -5908.9716    22.299471   -5931.2711   -91.372041 
   17000    271.45408   -5904.8049    25.892898   -5930.6978    12895.567 
   17200    338.74367    -5900.367    32.311378   -5932.6784    5968.5189 
   17400    343.56188   -5905.8313    32.770967   -5938.6023    299.18889 
   17600    249.91937    -5912.178     23.83879   -5936.0167   -4592.0038 
   17800    329.46105     -5899.54    31.425946    -5930.966    795.02007 
   18000    321.81727   -5893.0079    30.696837   -5923.7047   -17964.331 
   18200    260.53794   -5908.1893    24.851651   -5933.0409   -4933.1608 
   18400    299.80825    -5899.281    28.597487   -5927.8785   -2355.6633 
   18600    339.05184    -5901.004    32.340772   -5933.3448   -187.69343 
   18800    269.00297   -5906.1028    25.659097   -5931.7619    6501.0759 
   19000    295.08884   -5892.2519    28.147321   -5920.3993   -2425.9681 
   19200    341.71602   -5893.3873    32.594897   -5925.9822   -23777.468 
   19400    331.86973   -5902.5472      31.6557   -5934.2029   -19283.828 
   19600    287.19366   -5896.5796    27.394232   -5923.9739   -38262.228 
   19800    291.18284   -5896.3236    27.774744   -5924.0984    1941.1868 
   20000    225.26951   -5903.9643     21.48754   -5925.4519    17762.023 
   20200    318.75055   -5895.4465    30.404315   -5925.8508   -28283.436 
   20400    333.08324   -5895.4048    31.771451   -5927.1763    2499.5102 
   20600    298.43487   -5905.0354    28.466485   -5933.5018    516.75873 
   20800    295.99455   -5905.2716    28.233713   -5933.5053    6330.6757 
   21000     354.0629    -5891.304    33.772616   -5925.0767    -13219.79 
   21200     290.0603   -5902.1615    27.667669   -5929.8292   -13361.652 
   21400    281.46179   -5903.1155    26.847492    -5929.963    7197.6808 
   21600    343.71201   -5901.6397    32.785287    -5934.425    1105.9703 
   21800    288.20943   -5906.4116    27.491122   -5933.9027    8184.6833 
   22000     228.6921   -5911.4991    21.814007   -5933.3131   -5042.6307 
   22200    345.12007   -5897.3853    32.919596   -5930.3049    702.48229 
   22400    341.59441   -5896.8358    32.583297   -5929.4191    1107.4241 
   22600    361.23113   -5900.5564    34.456364   -5935.0128    11174.561 
   22800    256.30754   -5906.2441    24.448131   -5930.6922    7348.9888 
   23000    333.79866   -5893.0632    31.839693   -5924.9029    5143.6438 
   23200    245.16102   -5907.3943     23.38491   -5930.7792    2533.8285 
   23400    323.20957   -5900.6635    30.829643   -5931.4931    7827.2537 
   23600    316.92191   -5887.8677    30.229889   -5918.0975    14897.803 
   23800    360.44602   -5887.5921    34.381476   -5921.9736     8478.595 
   24000    289.88919     -5902.41    27.651347   -5930.0614     17412.38 
   24200    319.17802   -5903.7615    30.445089   -5934.2066   -2166.7441 
   24400    374.92281   -5895.9049    35.762358   -5931.6672    3514.1222 
   24600    370.47661   -5897.5044    35.338253   -5932.8426   -15597.579 
   24800    282.66382   -5908.1562    26.962149   -5935.1184     18602.84 
   25000    341.46196   -5896.8836    32.570664   -5929.4542    12283.593 
   25200    331.65964   -5899.9978    31.635661   -5931.6335    8323.7528 
   25400    323.72694   -5898.6735    30.878993   -5929.5525   -3826.6335 
   25600    254.87159   -5900.3105    24.311162   -5924.6216     14567.85 
   25800    253.00855   -5909.2911    24.133454   -5933.4246    2416.6001 
   26000    256.38249   -5902.3125     24.45528   -5926.7678    19798.818 
   26200    254.78125   -5900.4151    24.302545   -5924.7176   -299.06308 
   26400     236.6002   -5905.5565    22.568328   -5928.1249    4334.8972 
   26600    421.21542   -5889.0879    40.178021    -5929.266   -3528.5957 
   26800    462.05605   -5880.2874    44.073642    -5924.361    -13861.49 
   27000    313.82809    -5903.539    29.934782   -5933.4737    13328.886 
   27200    278.50306   -5907.9513    26.565271   -5934.5165    8036.7254 
   27400    392.14271   -5894.2367    37.404894   -5931.6416   -1839.4951 
   27600    305.47469   -5902.2273    29.137984   -5931.3653    15234.056 
   27800    278.13924   -5902.8092    26.530568   -5929.3398    13041.741 
   28000    273.88244   -5902.9895    26.124529   -5929.1141    9405.3754 
   28200     364.0221   -5893.2409    34.722583   -5927.9634   -937.34566 
   28400    218.91532   -5906.5836    20.881439   -5927.4651    3977.2425 
   28600    326.95595   -5898.8107    31.186994   -5929.9977    2817.3257 
   28800     342.2985   -5899.9117    32.650458   -5932.5622    5157.9203 
   29000    329.07331   -5903.1759    31.388961   -5934.5648   -6459.5377 
   29200    252.04141   -5907.2967    24.041202   -5931.3379    4600.6331 
   29400     277.7519   -5911.1413    26.493621   -5937.6349    8405.3198 
   29600    313.76316   -5896.0813    29.928588   -5926.0099    2415.0759 
   29800    282.13644   -5898.9604    26.911845   -5925.8722    -13977.76 
   30000    208.42915   -5910.1881    19.881207   -5930.0693    6885.9983 
   30200    334.08012   -5902.5337     31.86654   -5934.4002    13596.387 
   30400    290.74228    -5899.123    27.732721   -5926.8557    2310.2722 
   30600    247.97707    -5912.055    23.653521   -5935.7085   -4106.4592 
   30800    264.56999    -5903.701    25.236253   -5928.9373   -5310.4524 
   31000    324.42991   -5901.4647    30.946046   -5932.4107    9810.6931 
   31200    238.96199   -5911.9276    22.793609   -5934.7212   -10539.206 
   31400    318.40505   -5901.0505     30.37136   -5931.4219    11638.173 
   31600    307.14129   -5899.7167    29.296955   -5929.0136    2130.7848 
   31800    280.91357   -5903.5886      26.7952   -5930.3838    10078.952 
   32000    225.49626   -5909.9316    21.509169   -5931.4408   -10998.773 
   32200    376.36579    -5895.956    35.899998    -5931.856    3401.0924 
   32400    311.87553   -5902.4514    29.748535   -5932.1999   -1202.0406 
   32600    271.59312   -5904.6646     25.90616   -5930.5708   -5073.6032 
   32800    249.42368   -5897.4567    23.791507   -5921.2482   -8292.1075 
   33000    414.06776   -5887.5343    39.496235   -5927.0306   -14987.339 
   33200    244.18853   -5901.8517    23.292148   -5925.1438   -30402.048 
   33400     296.5378   -5903.1514    28.285531    -5931.437    3479.6877 
   33600    273.38817   -5904.3162    26.077382   -5930.3936    11973.603 
   33800    224.73889   -5908.9913    21.436927   -5930.4282    21240.731 
   34000    252.38435   -5896.3787    24.073913   -5920.4527     11589.17 
   34200     312.7035   -5897.8246    29.827512   -5927.6521    14657.479 
   34400    249.78012   -5904.7438    23.825507   -5928.5693   -24470.277 
   34600    338.58833   -5897.3879    32.296559   -5929.6844    19520.782 
   34800    269.44745   -5906.2274    25.701493   -5931.9289   -1275.3714 
   35000    249.42447   -5908.6646    23.791583   -5932.4562    1470.0098 
   35200    306.60621   -5895.3283    29.245916   -5924.5742   -21965.464 
   35400    310.96783   -5899.8377    29.661953   -5929.4997   -8786.6961 
   35600    284.76948   -5910.9415       27.163   -5938.1045   -9614.8258 
   35800    421.42898   -5893.0036    40.198392    -5933.202    1590.7158 
   36000    333.47534    -5900.125    31.808853   -5931.9338    4600.1792 
   36200    285.73163   -5908.7371    27.254775   -5935.9919    3767.3599 
   36400    244.23698   -5912.4393    23.296769   -5935.7361   -14762.345 
   36600    380.60808   -5900.5403    36.304652    -5936.845     -933.187 
   36800    257.07213    -5909.491    24.521062   -5934.0121    17865.048 
   37000    286.58714   -5905.6737    27.336379   -5933.0101   -15120.444 
   37200    316.25407   -5895.0323    30.166186   -5925.1985   -11617.722 
   37400    283.38293   -5904.1943    27.030742   -5931.2251   -2329.3361 
   37600    280.33753   -5907.2661    26.740254   -5934.0064   -18802.465 
   37800    355.10844   -5895.7739    33.872346   -5929.6463   -20515.623 
   38000     278.4665   -5907.6037    26.561784   -5934.1655     5716.612 
   38200    323.81977   -5902.4827    30.887847   -5933.3705    10134.422 
   38400    354.56545   -5887.7553    33.820552   -5921.5758    708.60995 
   38600    350.36739   -5900.9768    33.420117    -5934.397     9288.289 
   38800    299.04881   -5902.2578    28.525046   -5930.7829   -22026.764 
   39000     283.0742   -5889.4774    27.001294   -5916.4787   -4466.4252 
   39200    339.94498   -5901.4723    32.425966   -5933.8982    160.04873 
   39400     304.3591   -5905.8107    29.031573   -5934.8423   -19281.309 
   39600     256.7622   -5913.6244    24.491499   -5938.1159    15839.792 
   39800    308.02641   -5899.9802    29.381383   -5929.3616   -10264.248 
   40000    302.05566   -5902.0546    28.811858   -5930.8664    3140.7696 
   40200    235.29577   -5910.5713    22.443904   -5933.0152   -9930.9291 
   40400    340.27731   -5897.7742    32.457665   -5930.2319    11049.067 
   40600    263.66952   -5899.8977     25.15036    -5925.048   -18315.453 
   40800    320.16723   -5910.1443    30.539447   -5940.6838   -13591.762 
   41000    284.19853   -5906.6751    27.108538   -5933.7837     11015.11 
   41200    313.78861   -5897.5526    29.931016   -5927.4836   -9859.5558 
   41400    280.45265   -5900.0332    26.751234   -5926.7844    5697.1401 
   41600    251.66075   -5907.6985    24.004893   -5931.7034   -2208.8424 
   41800    277.05623   -5897.7038    26.427263   -5924.1311    1887.1413 
   42000    294.49063   -5901.1138     28.09026    -5929.204   -13830.066 
   42200    272.53561   -5912.2339     25.99606   -5938.2299   -12327.217 
   42400    262.46242   -5909.4592     25.03522   -5934.4944    13594.528 
   42600    367.98327   -5900.7902    35.100423   -5935.8906    8431.7103 
   42800    276.55411   -5897.5072    26.379369   -5923.8866   -5630.3462 
   43000    320.29399   -5908.6762    30.551538   -5939.2277    19989.149 
   43200    264.36396   -5903.6479      25.2166   -5928.8645    11124.469 
   43400    335.53493   -5894.4697    32.005309    -5926.475    11502.827 
   43600     317.8122    -5907.205    30.314809   -5937.5198    3172.0471 
   43800    317.02641   -5903.9867    30.239857   -5934.2265    -21848.28 
   44000    312.37696   -5902.1251    29.796365   -5931.9215   -20965.978 
   44200    344.67715   -5905.5691    32.877348   -5938.4465   -13274.818 
   44400    235.23264   -5915.1485    22.437882   -5937.5863    11580.711 
   44600    324.29849   -5899.3115     30.93351    -5930.245   -9347.0654 
   44800     292.2575   -5902.4332    27.877251   -5930.3105    21307.428 
   45000    258.93083   -5909.3507    24.698356    -5934.049    1084.1141 
   45200    308.90455   -5896.1645    29.465145   -5925.6296   -6033.3894 
   45400    328.10101   -5904.0585    31.296218   -5935.3547   -2663.4094 
   45600    276.02884   -5904.1502    26.329265   -5930.4795    10142.127 
   45800    301.25559    -5896.765    28.735542   -5925.5005   -13090.945 
   46000    303.34301   -5905.7901    28.934653   -5934.7248      19256.9 
   46200    304.60388   -5904.1529    29.054922   -5933.2078    27244.371 
   46400    297.97239   -5891.7626    28.422371    -5920.185   -13253.926 
   46600     274.8213   -5903.5689    26.214083   -5929.7829   -5437.9406 
   46800    294.28643   -5907.1038    28.070782   -5935.1746    3084.8759 
   47000    341.46665   -5895.4777    32.571111   -5928.0488    6484.5771 
   47200    319.33742   -5897.5379    30.460294   -5927.9982   -5505.7803 
   47400    280.43859   -5909.5545    26.749894   -5936.3044    2570.5006 
   47600    219.49181   -5897.3704    20.936428   -5918.3068   -13174.928 
   47800    334.52846    -5898.067    31.909305   -5929.9763    815.03086 
   48000    227.73016   -5911.5637    21.722251    -5933.286    5205.3838 
   48200    344.05404   -5895.3695    32.817912   -5928.1874   -7045.4145 
   48400    324.31928   -5903.6217    30.935493   -5934.5572    3432.1916 
   48600    262.12959   -5909.0529    25.003473   -5934.0564   -861.46094 
   48800    330.71291   -5893.6347    31.545356   -5925.1801   -13244.858 
   49000    304.51537   -5903.7623    29.046479   -5932.8088   -29577.064 
   49200    336.06559   -5899.7072    32.055926   -5931.7631    374.21189 
   49400    379.17115   -5888.3429    36.167589   -5924.5105   -2673.2704 
   49600    285.16598    -5902.328    27.200819   -5929.5288   -15997.961 
   49800    329.08368   -5905.8505     31.38995   -5937.2404    13493.239 
   50000    319.05924   -5899.5094    30.433759   -5929.9432    9112.7969 
   50200    345.03635   -5901.5369     32.91161   -5934.4486    16803.465 
   50400     244.5156   -5907.2196    23.323346    -5930.543    10747.338 
   50600    265.69206   -5899.6835    25.343282   -5925.0268   -3009.3854 
   50800    306.03751   -5897.4068     29.19167   -5926.5985    2387.7592 
   51000    230.18535   -5906.6772    21.956442   -5928.6336     715.9101 
   51200    273.70123   -5907.6569    26.107244   -5933.7641   -5280.7091 
   51400    363.65783   -5896.0131    34.687837   -5930.7009    27090.037 
   51600    352.78634   -5904.0964     33.65085   -5937.7472    299.47477 
   51800    316.63744   -5901.8995    30.202754   -5932.1022    10620.362 
   52000    297.66025   -5899.7694    28.392598    -5928.162   -11465.732 
   52200     295.1454   -5898.8601    28.152716   -5927.0129   -13158.451 
   52400    258.52143   -5906.9383    24.659304   -5931.5976   -2695.8601 
   52600     265.6206   -5905.4025    25.336465   -5930.7389   -22761.028 
   52800    272.14229   -5898.2039    25.958543   -5924.1624    -33141.15 
   53000    280.73688   -5906.2027    26.778346   -5932.9811    7065.5962 
   53200    284.16593   -5903.5193    27.105429   -5930.6248    8980.2561 
   53400    346.00927   -5894.4355    33.004413   -5927.4399     545.3779 
   53600    296.99689   -5900.0116    28.329322   -5928.3409   -483.15801 
   53800    258.85656   -5907.3879    24.691272   -5932.0792   -13153.099 
   54000     368.1719   -5891.7267    35.118416   -5926.8451    7393.0118 
   54200    298.51985   -5902.4809    28.474591   -5930.9555     12019.34 
   54400    293.21239   -5906.7562    27.968334   -5934.7245     208.7806 
   54600    335.56575   -5891.3315    32.008248   -5923.3397    26148.645 
   54800    360.70959   -5901.7481    34.406617   -5936.1548    20921.065 
   55000    310.68947   -5903.5689    29.635401   -5933.2043    3900.6404 
   55200    345.65809   -5899.7081    32.970915    -5932.679    17621.246 
   55400    328.87071   -5903.9039    31.369635   -5935.2735   -4632.6124 
   55600    229.29141   -5913.3836    21.871172   -5935.2548   -4424.7458 
   55800    312.27082   -5901.5647     29.78624    -5931.351    13956.956 
   56000    275.54815   -5900.7512    26.283414   -5927.0346    14423.371 
   56200    340.69347   -5892.5729    32.497361   -5925.0702    -10295.23 
   56400     292.9057   -5904.2234     27.93908   -5932.1624   -5468.2221 
   56600    280.07658   -5903.0759    26.715363   -5929.7913    23385.134 
   56800    332.90849   -5892.3633    31.754783   -5924.1181   -8977.6259 
   57000    291.89412   -5904.3654    27.842589    -5932.208    25108.736 
   57200    287.67489   -5904.1383    27.440134   -5931.5784    27414.312 
   57400    321.58968   -5893.6442    30.675128   -5924.3194   -17791.644 
   57600     287.3791   -5904.6905     27.41192   -5932.1024    878.03842 
   57800    247.03563    -5902.732    23.563721   -5926.2957    15991.615 
   58000     351.7361   -5899.7682    33.550672   -5933.3189   -10922.095 
   58200    400.41581   -5885.0572    38.194031   -5923.2512    2645.8241 
   58400    358.16688    -5902.257    34.164078   -5936.4211    53.895447 
   58600    294.92926   -5902.2863    28.132099   -5930.4184    12407.311 
   58800    268.12333   -5901.6962    25.575191   -5927.2714    1312.2862 
   59000    322.73186   -5899.6779    30.784076    -5930.462    8622.4699 
   59200    253.82673   -5908.4884    24.211497   -5932.6999    15114.301 
   59400     335.3167    -5899.931    31.984492   -5931.9155    5847.8915 
   59600    317.37051   -5896.2572    30.272679   -5926.5299   -15581.897 
   59800    240.96187   -5912.1239     22.98437   -5935.1082   -3270.0405 
   60000    248.14027    -5907.225    23.669089   -5930.8941   -17983.112 
   60200    345.66397   -5899.5174    32.971476   -5932.4889   -6248.8466 
   60400     252.4363   -5911.4674    24.078869   -5935.5462    -6850.359 
   60600    306.50809    -5907.751    29.236557   -5936.9875    -22923.25 
   60800     310.0021    -5900.192    29.569836   -5929.7619    1566.5133 
   61000    369.31715   -5900.2995    35.227656   -5935.5272    9067.2404 
   61200    276.32185    -5909.836    26.357215   -5936.1932    10195.407 
   61400    375.06266   -5897.2709    35.775697   -5933.0466   -13172.343 
   61600    224.56406   -5904.6005     21.42025   -5926.0207   -2833.9772 
   61800    282.29768   -5910.6855    26.927224   -5937.6127   -20962.775 
   62000      289.451   -5905.1241     27.60955   -5932.7336    7446.3589 
   62200    291.99392   -5899.9981    27.852109   -5927.8502   -972.88652 
   62400    210.05333   -5908.6507     20.03613   -5928.6868   -14017.988 
   62600    340.60458   -5895.2613    32.488882   -5927.7502    -16341.77 
   62800    265.17781   -5900.3724     25.29423   -5925.6666   -82.667457 
   63000    231.86895    -5913.088    22.117034    -5935.205    10467.729 
   63200    303.67865   -5895.3703    28.966668    -5924.337    21022.474 
   63400    295.80485   -5904.6845    28.215618   -5932.9001    3166.0213 
   63600    274.14589   -5906.7325    26.149659   -5932.8822   -9989.8342 
   63800    327.76951   -5896.9353    31.264597   -5928.1999    46677.227 
   64000    268.62451   -5898.9121    25.622997   -5924.5351    994.29748 
   64200    313.90773   -5910.1342    29.942378   -5940.0766   -14394.433 
   64400    283.40187   -5904.0998    27.032548   -5931.1324    11927.441 
   64600     274.6275   -5899.5704    26.195597   -5925.7659    -25860.92 
   64800     241.2034    -5908.703    23.007409   -5931.7104    11888.914 
   65000    396.62549   -5892.5849    37.832488   -5930.4174    -9219.302 
   65200     253.5135   -5898.4027    24.181619   -5922.5843   -5016.1421 
   65400    282.54391   -5907.7118    26.950712   -5934.6625    10768.463 
   65600     306.3782   -5892.7931    29.224167   -5922.0173   -18116.742 
   65800     363.5916   -5902.1139     34.68152   -5936.7954     21492.53 
   66000       223.46   -5908.4578    21.314938   -5929.7727    200.81486 
   66200    331.12505   -5895.7532    31.584668   -5927.3379    8788.9418 
   66400    210.60839   -5911.4378    20.089075   -5931.5269    841.18565 
   66600    283.81885   -5900.6795    27.072323   -5927.7518    23564.822 
   66800    343.56525   -5894.7904    32.771288   -5927.5617   -14424.743 
   67000    280.27796   -5908.2071    26.734571   -5934.9417      8757.04 
   67200    235.30616   -5905.1869    22.444895   -5927.6318    12069.767 
   67400    302.56617   -5900.1934    28.860553    -5929.054    7594.0635 
   67600    247.77395   -5908.3774    23.634146   -5932.0116    44035.738 
   67800    290.07173   -5901.9932    27.668759   -5929.6619    46100.074 
   68000    309.19973   -5890.1474    29.493301   -5919.6407   -44753.298 
   68200    244.09724   -5902.5312    23.283441   -5925.8146   -1343.7008 
   68400    285.61631   -5901.6661    27.243775   -5928.9099    -3554.806 
   68600    350.18265   -5893.4172    33.402495   -5926.8197    21186.705 
   68800    272.53242   -5905.3171    25.995756   -5931.3128    19013.324 
   69000     298.3702   -5905.7346    28.460316   -5934.1949   -21163.278 
   69200    208.04161   -5912.4672    19.844241   -5932.3114    3366.8383 
   69400    298.13276   -5899.2694    28.437668    -5927.707   -22786.085 
   69600    282.46021   -5898.6733    26.942728    -5925.616    -3609.224 
   69800     370.3532   -5893.4075    35.326481    -5928.734    -13719.87 
   70000    299.78359   -5905.1962    28.595134   -5933.7913   -19400.109 
   70200     321.9945   -5893.1703    30.713743    -5923.884    2357.2321 
   70400    335.14049   -5896.9683    31.967684    -5928.936   -1085.3582 
   70600    289.05514   -5906.7075    27.571791   -5934.2793    17520.378 
   70800    256.78608   -5901.2777    24.493777   -5925.7715   -9597.2555 
   71000    331.87473   -5895.6805    31.656177   -5927.3366    3485.8272 
   71200    290.63871   -5902.6502    27.722841    -5930.373    3121.5619 
   71400    339.93606   -5902.1785    32.425114   -5934.6037   -6870.2561 
   71600    330.92381   -5898.6553    31.565472   -5930.2208    8406.3335 
   71800    272.16581   -5902.1209    25.960786   -5928.0817    4755.1911 
   72000    272.54533   -5908.0689    25.996988   -5934.0658   -20923.558 
   72200    375.94052   -5891.3977    35.859433   -5927.2572   -23020.494 
   72400    345.61959    -5895.407    32.967243   -5928.3743    491.98402 
   72600    261.68312   -5908.3829    24.960885   -5933.3438   -19038.611 
   72800    291.68474   -5900.9467    27.822618   -5928.7693    5163.5849 
   73000    266.35887   -5904.9147    25.406886   -5930.3216    7627.7331 
   73200    294.23196   -5898.4493    28.065587   -5926.5149   -3738.3094 
   73400    432.56746   -5894.4364    41.260846   -5935.6973   -14921.215 
   73600    258.57116   -5905.4869    24.664049    -5930.151   -4775.3606 
   73800    322.24498   -5893.8534    30.737634    -5924.591    9117.1718 
   74000    294.61124   -5894.2214    28.101765   -5922.3232   -3289.7886 
   74200    291.79798   -5906.4996    27.833419   -5934.3331    746.74845 
   74400    315.17816   -5896.2436    30.063559   -5926.3071    215.10435 
   74600    360.55333   -5890.2895    34.391712   -5924.6812    11488.852 
   74800    295.49549   -5905.9577     28.18611   -5934.1438    8740.3418 
   75000    271.07352   -5905.2095    25.856597   -5931.0661   -6462.9998 
   75200    303.49904   -5893.4514    28.949536    -5922.401   -6828.5554 
   75400    229.07076   -5905.4369    21.850125    -5927.287   -6318.9089 
   75600    316.02186   -5904.4927    30.144036   -5934.6367    8318.3015 
   75800    325.88698   -5898.6855     31.08503   -5929.7705   -9646.7911 
   76000    383.27184   -5891.3609    36.558738   -5927.9196   -11282.342 
   76200    266.35999   -5906.4482    25.406993   -5931.8552    18093.428 
   76400    330.60589   -5897.2307    31.535147   -5928.7659   -9539.7385 
   76600    272.41852   -5901.0587    25.984892   -5927.0436    1233.0603 
   76800    316.97066   -5902.1344    30.234538    -5932.369    2585.7062 
   77000    261.96109   -5905.7394      24.9874   -5930.7268   -3350.0826 
   77200    258.29583   -5910.7379    24.637786   -5935.3757    1573.1433 
   77400    283.00826   -5897.2172    26.995003   -5924.2122   -14323.442 
   77600    289.69384   -5900.7602    27.632714   -5928.3929   -8768.4272 
   77800    306.38399   -5910.6597    29.224719   -5939.8844    4421.5879 
   78000    324.14553   -5903.1942     30.91892   -5934.1131    16352.708 
   78200    347.18977   -5901.0427    33.117016   -5934.1597    27695.092 
   78400     311.8675   -5910.1241    29.747769   -5939.8718     -2445.59 
   78600    297.08127   -5906.5653    28.337371   -5934.9026    10666.814 
   78800    344.56476   -5897.0777    32.866627   -5929.9443    9230.0601 
   79000     225.7027   -5908.7343     21.52886   -5930.2632   -4475.3696 
   79200    284.97658   -5903.8395    27.182754   -5931.0223    18650.023 
   79400    286.56093   -5902.9441    27.333878    -5930.278   -4406.6088 
   79600    308.54024   -5898.1474    29.430395   -5927.5778   -1174.7029 
   79800    211.30462   -5910.1821    20.155486   -5930.3376   -28608.818 
   80000    329.38624   -5899.8305     31.41881   -5931.2493    34355.773 
   80200    293.17353   -5900.6542    27.964628   -5928.6189    13770.219 
   80400    300.86642   -5903.0251    28.698421   -5931.7235    21958.156 
   80600    312.41403   -5901.4894      29.7999   -5931.2893   -29789.649 
   80800    315.89869   -5899.0646    30.132287   -5929.1969   -8351.9716 
   81000    337.44774    -5904.265    32.187764   -5936.4528    6634.0186 
   81200    313.28015   -5906.1894    29.882516   -5936.0719    5095.8093 
   81400    296.03476   -5899.0967    28.237549   -5927.3342    23095.917 
   81600    356.38854   -5899.2428    33.994449   -5933.2372   -20158.731 
   81800    243.03613   -5908.1002    23.182226   -5931.2825     27347.18 
   82000    247.73578   -5907.8002    23.630506   -5931.4307    18585.134 
   82200    299.57771   -5897.5255    28.575496    -5926.101    8979.3499 
   82400    267.45462    -5908.871    25.511405   -5934.3824    7924.4507 
   82600    273.22436   -5907.4138    26.061758   -5933.4755   -14295.377 
   82800    282.40514   -5900.2225    26.937475     -5927.16   -10597.169 
   83000    322.78744   -5898.0349    30.789378   -5928.8243   -34241.755 
   83200    251.63359   -5912.7058    24.002302   -5936.7081    3094.8528 
   83400    296.76408   -5905.6052    28.307115   -5933.9123    7635.5353 
   83600    328.20755   -5899.0751     31.30638   -5930.3815    10755.609 
   83800    266.92901   -5908.7444     25.46127   -5934.2057    5416.7844 
   84000    276.92512   -5904.5893    26.414758   -5931.0041   -5205.9865 
   84200    329.01401   -5895.3006    31.383305   -5926.6839    17851.367 
   84400    345.13293   -5892.1576    32.920823   -5925.0785    28790.399 
   84600    285.45554   -5906.5586     27.22844    -5933.787    -9706.571 
   84800      372.124   -5899.5239     35.49539   -5935.0193    14810.886 
   85000     283.4227   -5901.2009    27.034535   -5928.2355    23582.204 
   85200    287.05129   -5904.3876    27.380652   -5931.7683     15057.95 
   85400     257.5572   -5910.0999    24.567331   -5934.6673    8769.7877 
   85600      346.924   -5898.4659    33.091665   -5931.5576     1833.792 
   85800     315.9579   -5895.4384    30.137936   -5925.5763   -12276.101 
   86000    281.26322   -5911.5788    26.828551   -5938.4074   -9653.1069 
   86200    305.78813   -5905.2796    29.167883   -5934.4474    2161.3994 
   86400    278.34087   -5900.6508    26.549801   -5927.2006   -30190.907 
   86600    227.90449   -5913.6523    21.738879   -5935.3912   -11636.811 
   86800    273.82228    -5905.067    26.118791   -5931.1858    5890.6021 
   87000    305.03295   -5899.5918    29.095849   -5928.6876   -10421.087 
   87200    264.11234   -5901.3646    25.192599   -5926.5572   -3236.2635 
   87400    219.07953   -5904.4615    20.897103   -5925.3586    6984.8363 
   87600    325.18172   -5897.0786    31.017758   -5928.0964    -25664.07 
   87800    299.60277   -5905.1206    28.577886   -5933.6985    2866.4412 
   88000    315.91339   -5906.9832     30.13369   -5937.1169    6610.7014 
   88200    358.25482   -5887.6931    34.172466   -5921.8656   -18895.487 
   88400    314.09402   -5896.6131    29.960147   -5926.5733    5000.1473 
   88600    241.60856   -5907.2934    23.046055   -5930.3395    1250.5412 
   88800    380.41704   -5892.0408     36.28643   -5928.3272    3601.8284 
   89000    262.21873    -5894.219    25.011975    -5919.231    7574.8467 
   89200    312.92517   -5904.3087    29.848656   -5934.1574   -2247.7208 
   89400    236.20834   -5906.6437     22.53095   -5929.1746   -2535.5159 
   89600    339.95943   -5893.2301    32.427343   -5925.6575    12998.932 
   89800    332.24574   -5905.8959    31.691566   -5937.5874    6014.7353 
   90000    386.91828   -5898.3342    36.906557   -5935.2407    11452.432 
   90200    237.18076   -5896.1923    22.623705   -5918.8161   -7637.8491 
   90400    305.67377   -5904.7554    29.156974   -5933.9123   -10767.014 
   90600    197.26036   -5915.1895    18.815861   -5934.0054   -12476.347 
   90800    301.50858   -5903.5497    28.759674   -5932.3094     -1981.57 
   91000    276.11461   -5903.1897    26.337446   -5929.5272   -3780.2533 
   91200    328.77532   -5896.4745    31.360537   -5927.8351   -21732.347 
   91400    269.68622   -5900.8555    25.724269   -5926.5798   -8807.5405 
   91600    251.85513   -5903.9925    24.023434   -5928.0159    15891.828 
   91800     317.8933   -5901.0417    30.322546   -5931.3642   -11502.481 
   92000    307.87783   -5903.6215    29.367211   -5932.9888    9058.0331 
   92200    251.50479    -5911.095    23.990016    -5935.085    10292.907 
   92400    293.95052   -5899.6098    28.038741   -5927.6485     21561.32 
   92600    335.95233   -5900.4767    32.045123   -5932.5218   -12281.418 
   92800    308.50379   -5907.5467    29.426918   -5936.9736    15951.203 
   93000    369.89218   -5899.1175    35.282506      -5934.4    1039.1415 
   93200    351.63842   -5897.0563    33.541354   -5930.5976    3000.5121 
   93400    239.57365   -5908.1993    22.851953   -5931.0513    5310.3265 
   93600    287.88827   -5900.6488    27.460488   -5928.1092    27045.039 
   93800     319.7916   -5897.0728    30.503617   -5927.5764    -4331.857 
   94000    282.54736   -5910.4169     26.95104   -5937.3679   -115.02026 
   94200    293.83509   -5907.8599    28.027731   -5935.8876    15823.987 
   94400    307.40856   -5898.8253    29.322449   -5928.1477    25816.999 
   94600    367.02302   -5886.1947    35.008829   -5921.2036   -22568.757 
   94800    246.32674    -5904.946    23.496103   -5928.4421    15535.137 
   95000    372.80729   -5896.5576    35.560567   -5932.1182    11117.732 
   95200    265.31003   -5907.7265    25.306842   -5933.0333   -6367.3529 
   95400    289.24581   -5907.5775    27.589979   -5935.1675    6656.5603 
   95600    311.85987    -5901.041    29.747041    -5930.788   -4821.1777 
   95800    211.01676    -5904.953    20.128028   -5925.0811   -955.15245 
   96000    243.95508   -5902.5069     23.26988   -5925.7768     1751.897 
   96200     313.4853   -5900.4717    29.902084   -5930.3738    -12578.23 
   96400    312.79883   -5887.8868    29.836605   -5917.7234    1214.4098 
   96600    232.88724   -5902.1101    22.214164   -5924.3243   -11393.861 
   96800     277.1177    -5903.855    26.433127   -5930.2882    -19708.95 
   97000    355.71663   -5890.4151    33.930358   -5924.3454    10973.361 
   97200    327.18441   -5904.8532    31.208787    -5936.062   -13469.191 
   97400    302.53597   -5905.9835    28.857672   -5934.8412    1992.7555 
   97600    320.79119   -5890.5616    30.598963   -5921.1605    19060.936 
   97800    296.60447    -5898.398    28.291891   -5926.6899   -4791.6029 
   98000    312.86579   -5900.4864    29.842991   -5930.3294     3712.078 
   98200    308.70891   -5900.3336    29.446484   -5929.7801     30604.37 
   98400     315.0944   -5904.4514     30.05557   -5934.5069    726.72747 
   98600    245.72228   -5914.6619    23.438446   -5938.1004    190.95404 
   98800    250.10033   -5910.3055    23.856051   -5934.1615    3007.9226 
   99000    357.13515   -5899.7695    34.065665   -5933.8352     8811.679 
   99200    270.64434   -5897.5806    25.815659   -5923.3963    4862.2972 
   99400     435.9534   -5892.2089    41.583817   -5933.7927    1302.4823 
   99600    277.10013   -5905.1695    26.431451   -5931.6009   -3096.3082 
   99800    340.25074   -5896.1689    32.455131    -5928.624   -7328.0779 
  100000    341.21753   -5899.0399    32.547349   -5931.5872   -8873.1667 
  100200    271.61683   -5909.2107    25.908421   -5935.1191    1268.1887 
  100400    316.01697    -5896.789    30.143569   -5926.9326    3129.9951 
  100600    297.19027   -5896.5459    28.347768   -5924.8936   -11417.259 
  100800     290.0144   -5898.6994    27.663291   -5926.3627   -20566.643 
  101000    326.65908   -5901.7023    31.158677    -5932.861   -10430.226 
  101200    250.11829   -5910.5307    23.857763   -5934.3884   -27629.158 
  101400    354.83561   -5898.1771    33.846322   -5932.0234    22636.799 
  101600    274.17711   -5908.0268    26.152637   -5934.1795   -1565.0025 
  101800    331.08378   -5899.6116    31.580732   -5931.1923   -6998.0482 
  102000    314.91457   -5897.6834    30.038416   -5927.7218   -6785.2578 
  102200    306.45349   -5906.1145    29.231349   -5935.3458    28883.266 
  102400    345.33151   -5889.5294    32.939764   -5922.4692   -20268.658 
  102600    322.69931   -5902.6486    30.780971   -5933.4295    19551.281 
  102800    303.29115   -5902.6125    28.929706   -5931.5422    17349.866 
  103000    397.92808   -5893.7806    37.956737   -5931.7373     3036.052 
  103200    288.11378   -5904.5896    27.481998   -5932.0716    21640.358 
  103400    305.73287   -5905.2894    29.162611   -5934.4521    4664.0464 
  103600    373.32342   -5895.9612    35.609799    -5931.571     3842.735 
  103800    297.29686   -5899.5358    28.357935   -5927.8937    17074.511 
  104000    281.67462   -5905.9907    26.867794   -5932.8585   -3982.6509 
  104200    311.70116   -5906.2486    29.731902   -5935.9805   -2842.4784 
  104400    292.06219   -5894.6541    27.858621   -5922.5127   -10227.333 
  104600     254.0712    -5909.169    24.234815   -5933.4038    5943.3812 
  104800     263.2322   -5904.2702    25.108646   -5929.3788    16398.159 
  105000    349.45815   -5895.6583    33.333388   -5928.9917    18319.619 
  105200    325.86111   -5900.9135    31.082562    -5931.996    10319.766 
  105400    246.33459   -5900.6999    23.496852   -5924.1968   -20982.498 
  105600     277.5347   -5899.9415    26.472903   -5926.4144   -13422.573 
  105800    211.80383   -5911.7302    20.203103   -5931.9333    -15448.35 
  106000    299.39457   -5901.8086    28.558027   -5930.3666   -8100.7295 
  106200    327.92864   -5901.0484    31.279776   -5932.3281    3724.6706 
  106400    260.41002   -5909.7139     24.83945   -5934.5533      -811.25 
  106600    259.38933   -5902.2107     24.74209   -5926.9528   -11087.072 
  106800    347.35766   -5899.1823     33.13303   -5932.3153    10177.944 
  107000    328.48384   -5903.9259    31.332734   -5935.2587   -2474.3814 
  107200    243.47969   -5911.6541    23.224534   -5934.8786    5457.7386 
  107400    304.16876   -5903.0348    29.013417   -5932.0482    5036.7548 
  107600    309.14657   -5897.8587     29.48823    -5927.347   -19698.426 
  107800    214.96772   -5912.0016    20.504894   -5932.5065     27560.19 
  108000    263.07693   -5905.3659    25.093836   -5930.4597    11254.333 
  108200    315.15308   -5897.5412    30.061167   -5927.6024   -412.21401 
  108400    284.17614   -5903.0881    27.106403   -5930.1945    22147.144 
  108600    239.30443   -5908.4429    22.826274   -5931.2692    13153.205 
  108800    308.05373   -5899.4655    29.383989   -5928.8495   -5503.2516 
  109000    334.53668   -5903.6016    31.910089   -5935.5117   -4639.4387 
  109200    232.30482   -5904.6125    22.158609   -5926.7711   -5715.8494 
  109400    353.95169   -5897.1495    33.762009   -5930.9115    22792.063 
  109600    311.13494   -5895.7242    29.677893   -5925.4021   -11038.615 
  109800    253.72039   -5907.3745    24.201353   -5931.5759   -616.26063 
  110000    320.06285    -5894.935     30.52949   -5925.4645   -22607.144 
  110200    301.85211   -5896.6627    28.792441   -5925.4551    32.364223 
  110400    280.36151    -5904.666    26.742541   -5931.4086     14549.08 
  110600    288.38661   -5902.7867    27.508023   -5930.2947    2353.0989 
  110800    303.15551   -5902.3954    28.916767   -5931.3122    9150.9759 
  111000    260.66729   -5907.5868     24.86399   -5932.4508     7221.984 
  111200    349.16475   -5898.6376    33.305402    -5931.943    6383.9656 
  111400    303.15421   -5896.4497    28.916644   -5925.3664    20699.078 
  111600    243.03507   -5911.6703    23.182124   -5934.8524   -5519.5329 
  111800    290.03359   -5905.4168    27.665121   -5933.0819   -1996.7258 
  112000    341.42417   -5901.5494    32.567059   -5934.1164   -18961.686 
  112200    249.89221    -5916.233    23.836199   -5940.0692   -10376.705 
  112400    258.09119   -5906.9154    24.618266   -5931.5336    4529.4497 
  112600    318.79531   -5899.4022    30.408584   -5929.8108     23496.36 
  112800    272.66065   -5893.0232    26.007987   -5919.0312   -19153.422 
  113000    290.57408   -5899.2605    27.716676   -5926.9772   -3716.1602 
  113200    282.38569   -5906.5036    26.935619   -5933.4392   -17826.534 
  113400    342.42312   -5892.3482    32.662344   -5925.0105   -11834.426 
  113600    342.16995   -5902.0267    32.638196   -5934.6649      12944.1 
  113800    267.80247   -5904.8566    25.544586   -5930.4012     3717.582 
  114000    322.78025   -5895.8139    30.788691   -5926.6026    4907.6139 
  114200    225.51184   -5900.9076    21.510654   -5922.4183   -5548.0134 
  114400    266.38136   -5906.8843    25.409032   -5932.2933    10551.013 
  114600    334.22946   -5893.2546    31.880785   -5925.1353    13302.252 
  114800    315.38935   -5903.3998    30.083704   -5933.4835    6323.4184 
  115000    317.13653   -5908.4684     30.25036   -5938.7187    10871.529 
  115200    276.58864   -5904.4523    26.382662    -5930.835    2433.9878 
  115400    287.35714   -5901.8985    27.409825   -5929.3083     184.0228 
  115600    365.40986   -5885.8406    34.854957   -5920.6955     19033.73 
  115800    270.04487   -5899.4408    25.758479   -5925.1993   -8401.0382 
  116000    323.66287    -5900.791    30.872881   -5931.6639    20825.105 
  116200    304.19812   -5905.9103    29.016218   -5934.9265   -21621.019 
  116400    272.11472   -5911.3087    25.955913   -5937.2646    5531.0816 
  116600    327.56645    -5896.808    31.245228   -5928.0532   -23873.984 
  116800    325.93991   -5904.9916    31.090078   -5936.0817   -15100.357 
  117000     372.5689   -5893.8003    35.537828   -5929.3381   -15891.128 
  117200    332.83806   -5894.0296    31.748065   -5925.7777    6072.1678 
  117400    284.50666   -5904.4579     27.13793   -5931.5958   -12230.197 
  117600    267.64704   -5900.7848     25.52976   -5926.3146    4250.7312 
  117800    360.80042   -5893.5301     34.41528   -5927.9454   -7292.6523 
  118000    270.84787   -5906.9475    25.835074   -5932.7825   -16753.201 
  118200     274.0123   -5900.0577    26.136916   -5926.1947    5456.3291 
  118400    304.52783   -5894.3924    29.047668     -5923.44   -2666.8583 
  118600    286.85095   -5904.1662    27.361542   -5931.5277   -17302.972 
  118800    317.79848   -5899.9695      30.3135    -5930.283    10525.867 
  119000    356.06027   -5883.8912    33.963137   -5917.8543   -27867.938 
  119200     288.4165   -5903.7939    27.510874   -5931.3048    13743.508 
  119400    326.77818   -5903.0852    31.170038   -5934.2552    2938.7686 
  119600    354.93513   -5892.9084    33.855815   -5926.7642    3371.9012 
  119800    306.22502   -5904.8612    29.209556   -5934.0707   -20537.306 
  120000    308.91166   -5905.0274    29.465824   -5934.4932     2448.402 
  120200    293.17107   -5895.5874    27.964393   -5923.5518   -7231.6293 
  120400    294.22499   -5903.5172    28.064922   -5931.5822    16697.863 
  120600    308.17847   -5904.3308    29.395888   -5933.7267   -719.16742 
  120800    348.95851   -5892.7944    33.285729   -5926.0801   -25887.974 
  121000     283.4235   -5904.7458    27.034611   -5931.7805     27400.76 
  121200    293.13179   -5899.7101    27.960646   -5927.6707   -14123.539 
  121400    363.28995    -5894.723    34.652747   -5929.3758    11780.237 
  121600     313.7102   -5904.7136    29.923536   -5934.6371    -6184.641 
  121800    322.18381   -5901.3799    30.731799   -5932.1117    10746.237 
  122000    436.40237   -5880.4753    41.626643   -5922.1019   -7.7650881 
  122200    325.37834   -5898.4314    31.036513    -5929.468    8069.5197 
  122400    247.52144   -5905.1715    23.610061   -5928.7816    26966.967 
  122600    311.29602   -5900.1668    29.693258   -5929.8601    6147.5899 
  122800    350.88381   -5896.6653    33.469376   -5930.1347    13285.961 
  123000    217.02016    -5908.836    20.700668   -5929.5367    1443.1532 
  123200    262.83183   -5899.6864    25.070456   -5924.7569    6626.5251 
  123400    284.57157   -5898.3565    27.144122   -5925.5006   -32022.991 
  123600     248.6906   -5911.3482    23.721582   -5935.0698   -6103.5041 
  123800    267.30684   -5907.1506     25.49731   -5932.6479   -8484.5308 
  124000    290.96346   -5901.1941    27.753817   -5928.9479    14508.353 
  124200    240.99065    -5906.626    22.987116   -5929.6131   -5186.2018 
  124400    220.76891    -5912.074    21.058246   -5933.1322   -5160.7516 
  124600    342.37439   -5899.0072    32.657696   -5931.6649   -18452.015 
  124800    332.77934   -5897.6235    31.742464   -5929.3659   -10826.868 
  125000    258.50345   -5904.5657     24.65759   -5929.2233    22290.226 
  125200    225.72922   -5905.9057    21.531389    -5927.437    2048.4987 
  125400    342.94425   -5895.0798    32.712053   -5927.7918   -4632.3725 
  125600    292.93002   -5906.4019      27.9414   -5934.3433   -6796.6748 
  125800    256.44069   -5904.9413    24.460832   -5929.4021    11386.136 
  126000    309.05203   -5900.5578    29.479213    -5930.037    11068.057 
  126200    364.94788   -5887.4589    34.810889   -5922.2698    1939.4182 
  126400    295.76786   -5904.2136     28.21209   -5932.4257    -24170.92 
  126600    333.05654   -5899.0523    31.768905   -5930.8212   -23918.809 
  126800    202.71226   -5907.6604    19.335895   -5926.9963    20937.674 
  127000    227.29833   -5912.3713     21.68106   -5934.0523   -9652.4583 
  127200    267.51263   -5897.3042    25.516939   -5922.8211    2795.1138 
  127400    267.84061   -5901.3741    25.548223   -5926.9224   -4682.9213 
  127600    217.76222   -5912.2339     20.77145   -5933.0054    453.85987 
  127800    288.93681   -5898.4194    27.560504   -5925.9799   -10538.085 
  128000    273.46116     -5903.42    26.084345   -5929.5044    12283.224 
  128200    265.97053   -5912.5273    25.369844   -5937.8971     5393.145 
  128400    356.80226   -5896.7517    34.033913   -5930.7856    3370.7079 
  128600    276.62455   -5902.3223    26.386088   -5928.7084    11560.036 
  128800     223.0615    -5912.695    21.276927   -5933.9719    5451.2371 
  129000    320.00755   -5897.7554    30.524215   -5928.2797   -10734.163 
  129200    301.20713   -5901.2509     28.73092   -5929.9818   -7366.5411 
  129400    237.65026   -5910.6441     22.66849   -5933.3126    1378.9123 
  129600    343.68216   -5896.4411     32.78244   -5929.2236   -18662.874 
  129800    275.73126   -5904.0015    26.300881   -5930.3024   -21203.101 
  130000    291.75508   -5906.3162    27.829327   -5934.1455     -3665.91 
  130200    364.75206   -5891.5347    34.792211   -5926.3269   -4156.1805 
  130400    296.15659   -5901.2584    28.249169   -5929.5076   -13895.158 
  130600    257.06515   -5910.0599    24.520396   -5934.5803    9057.9082 
  130800    284.02382   -5902.0584    27.091874   -5929.1503    -19562.04 
  131000    308.88742   -5904.3682    29.463511   -5933.8317   -2974.7847 
  131200    282.18279   -5909.0179    26.916266   -5935.9341   -1228.6578 
  131400    364.93342   -5897.6337     34.80951   -5932.4432   -3341.0002 
  131600    300.30377   -5898.8866    28.644752   -5927.5313   -13769.745 
  131800    259.55054   -5904.6541    24.757467   -5929.4116    19942.936 
  132000    307.67303   -5900.1647    29.347675   -5929.5124   -9976.5641 
  132200    299.83453   -5898.9828    28.599993   -5927.5828    2600.0273 
  132400    255.50996   -5908.6056    24.372053   -5932.9776   -4779.9258 
  132600    350.36102   -5898.4206    33.419509   -5931.8401    -19648.31 
  132800    300.45385   -5908.6052    28.659068   -5937.2643    2593.5511 
  133000    283.48829   -5908.0711    27.040792   -5935.1119    24837.386 
  133200    306.10157   -5900.8555     29.19778   -5930.0533    5833.9888 
  133400    395.88237   -5895.9686    37.761605   -5933.7302   -9028.8178 
  133600    298.46398   -5901.2305    28.469261   -5929.6998   -3164.3306 
  133800    255.30682   -5906.7746    24.352676   -5931.1273     24595.34 
  134000    281.43139   -5889.4867    26.844592   -5916.3313    16834.747 
  134200     278.4961   -5907.7959    26.564607   -5934.3605    11451.505 
  134400    262.98429   -5903.7049    25.084999   -5928.7899    8633.5402 
  134600    295.60571   -5894.6976    28.196623   -5922.8942   -11611.619 
  134800    287.32093    -5892.383    27.406372   -5919.7893   -4255.1061 
  135000    259.94028   -5904.1821    24.794643   -5928.9768    -6428.537 
  135200    353.67108   -5895.7636    33.735242   -5929.4988   -29421.167 
  135400    258.45572   -5907.7891    24.653037   -5932.4422     15489.28 
  135600    313.27219    -5903.289    29.881756   -5933.1707    17811.041 
  135800    289.02722   -5899.3542    27.569127   -5926.9233    -26553.62 
  136000    242.51295   -5900.6343    23.132321   -5923.7667   -3185.1404 
  136200    238.44761   -5913.2599    22.744545   -5936.0044   -10632.201 
  136400    271.81938   -5904.7357    25.927742   -5930.6635   -10739.771 
  136600    290.98126   -5900.8442    27.755516   -5928.5998   -816.46124 
  136800    281.64354   -5901.3476    26.864829   -5928.2124    7180.4996 
  137000    274.49198   -5905.7715    26.182671   -5931.9541   -5048.8512 
  137200    299.26561   -5894.7111    28.545726   -5923.2569   -41076.128 
  137400    333.08041   -5903.7852    31.771181   -5935.5564    22461.849 
  137600    276.98086   -5907.5919    26.420075    -5934.012     10290.41 
  137800    274.80956   -5895.4705    26.212963   -5921.6834    16844.755 
  138000    278.44164   -5901.4315    26.559412   -5927.9909    1307.0329 
  138200    268.48633   -5906.7795    25.609816   -5932.3893    -10225.25 
  138400     257.1733   -5902.1725    24.530713   -5926.7032   -25992.941 
  138600    239.27595   -5899.3313    22.823557   -5922.1548    -9744.844 
  138800    270.48124    -5912.272    25.800102   -5938.0721    3505.3191 
  139000    244.27524   -5902.0286    23.300419    -5925.329    20178.029 
  139200    261.63256   -5901.3544    24.956063   -5926.3105    2127.0522 
  139400    268.19044   -5906.7268    25.581592   -5932.3084   -2417.3187 
  139600    348.68719   -5896.4583    33.259849   -5929.7181    29266.628 
  139800    270.31073   -5901.5534    25.783838   -5927.3372    -2543.406 
  140000    265.09898   -5909.6242     25.28671   -5934.9109      10660.9 
  140200    262.22923   -5903.3355    25.012976   -5928.3485   -12273.083 
  140400    316.70077   -5896.0591    30.208795   -5926.2679   -17575.785 
  140600    216.26547   -5910.4873    20.628681    -5931.116    3610.9051 
  140800    285.35199   -5900.6922    27.218562   -5927.9108    7097.5858 
  141000    373.75858   -5898.3181    35.651307   -5933.9694    19081.937 
  141200    277.27725   -5903.2965    26.448346   -5929.7449   -20738.583 
  141400      268.391   -5910.2189    25.600723   -5935.8197   -5554.8287 
  141600    342.77455   -5900.4521    32.695867   -5933.1479     23372.66 
  141800    246.40651   -5906.3499    23.503712   -5929.8536   -12871.899 
  142000    220.26568   -5910.9199    21.010245   -5931.9302   -11724.926 
  142200    294.29996   -5895.4371    28.072073   -5923.5092    31938.537 
  142400    352.56038    -5896.562    33.629297   -5930.1913    6394.7521 
  142600    311.18659   -5907.1103     29.68282   -5936.7931      18293.1 
  142800    299.07485   -5899.4971     28.52753   -5928.0246   -1292.3545 
  143000    265.02809   -5912.8523    25.279948   -5938.1322   -8980.6571 
  143200    299.77925    -5905.914     28.59472   -5934.5087    19168.639 
  143400    285.79353   -5899.2861    27.260679   -5926.5468   -3424.6987 
  143600    410.25551   -5889.2795      39.1326   -5928.4121    5280.4636 
  143800    286.78857   -5902.1107    27.355592   -5929.4662   -18452.167 
  144000     324.0131    -5904.336    30.906289   -5935.2423   -6283.7541 
  144200    322.99973   -5889.2635    30.809626   -5920.0731    38185.554 
  144400    253.45753   -5906.6572     24.17628   -5930.8334   -15223.155 
  144600    213.10579   -5904.1433    20.327292   -5924.4706    29709.951 
  144800    304.38504   -5894.6289    29.034047   -5923.6629   -2869.9779 
  145000    310.32896   -5909.8995    29.601014   -5939.5005    9536.7361 
  145200    224.71797   -5901.7005     21.43493   -5923.1355    7742.2349 
  145400    338.38897   -5897.2454    32.277543    -5929.523   -10712.913 
  145600    261.14001   -5907.0588     24.90908   -5931.9679    -16567.32 
  145800    294.20283   -5909.1724    28.062808   -5937.2352     10307.29 
  146000    302.04592   -5900.1796    28.810928   -5928.9905   -27774.559 
  146200    299.33645   -5902.9463    28.552483   -5931.4988    22515.378 
  146400    305.14936   -5897.9901    29.106953   -5927.0971    -7807.167 
  146600    311.07949   -5892.5221    29.672604   -5922.1947    3968.1649 
  146800    332.44813   -5906.5608    31.710872   -5938.2717    -18456.53 
  147000    333.71286   -5902.5151    31.831509   -5934.3466   -3707.7833 
  147200    345.22135   -5902.3456    32.929256   -5935.2748    11637.942 
  147400    185.17403   -5915.9317    17.662995   -5933.5947    1212.5442 
  147600    315.81307   -5900.9415    30.124121   -5931.0656    20257.433 
  147800    296.06985   -5898.0145    28.240895   -5926.2554    17644.953 
  148000    300.20011   -5906.4836    28.634864   -5935.1185    8881.8577 
  148200    318.60035   -5901.9108    30.389988   -5932.3008   -13041.608 
  148400    360.75581   -5897.6696    34.411025   -5932.0807     8222.585 
  148600    245.85778   -5907.0711    23.451371   -5930.5224   -4611.8941 
  148800    329.31006   -5905.7834    31.411544   -5937.1949   -7059.9385 
  149000     362.8494   -5895.7779    34.610725   -5930.3886    8021.0883 
  149200    258.64267   -5907.0009    24.670869   -5931.6718    27352.171 
  149400    251.43757   -5911.9007    23.983605   -5935.8843    23088.423 
  149600    317.25087   -5897.3154    30.261267   -5927.5767   -1405.5098 
  149800    278.10804   -5905.7905    26.527592   -5932.3181    17219.587 
  150000    238.07689   -5904.6008    22.709183     -5927.31   -23860.465 
  150200    287.64309   -5892.9418    27.437101   -5920.3789    2679.3002 
  150400    246.34613   -5903.9208    23.497953   -5927.4188    1871.9738 
  150600    342.07586   -5897.2731    32.629221   -5929.9023    2856.7089 
  150800    330.20942   -5891.2367     31.49733    -5922.734     19347.26 
  151000    319.30264   -5904.0505    30.456976   -5934.5075    28799.288 
  151200    302.35245   -5901.0939    28.840167   -5929.9341    2435.5546 
  151400    345.85859   -5893.4567    32.990041   -5926.4467    16590.089 
  151600    256.26365   -5907.4911    24.443944    -5931.935   -3434.7895 
  151800    388.65719   -5896.7073    37.072424   -5933.7797    6795.6454 
  152000    303.31651   -5900.7046    28.932125   -5929.6367    -2177.186 
  152200    273.22922   -5910.4226    26.062221   -5936.4849   -16273.825 
  152400      306.185   -5898.4245    29.205739   -5927.6303    16838.948 
  152600    265.45188   -5901.6566    25.320372    -5926.977    6167.1506 
  152800    268.50376   -5915.8941    25.611478   -5941.5056   -18.597766 
  153000    344.09665   -5904.5272    32.821976   -5937.3492    6194.7159 
  153200    296.62957   -5898.6381    28.294284   -5926.9324   -30961.914 
  153400    237.10842   -5911.3573    22.616805   -5933.9741    5961.5359 
  153600    311.57444   -5902.9729    29.719815   -5932.6927    13947.471 
  153800    268.77859   -5900.0563    25.637693    -5925.694    12477.437 
  154000    259.84902   -5907.6649    24.785938   -5932.4509   -8133.6984 
  154200     301.0755   -5910.0092    28.718364   -5938.7276   -251.04422 
  154400     360.9258   -5900.1933     34.42724   -5934.6206   -14222.433 
  154600    290.84026   -5904.0997    27.742066   -5931.8417    11154.431 
  154800    296.22218   -5909.3448    28.255426   -5937.6002     7376.075 
  155000    325.28001   -5895.9627    31.027134   -5926.9898   -21232.643 
  155200    265.40344   -5904.6595    25.315752   -5929.9752   -11943.547 
  155400    209.71069   -5916.1228    20.003447   -5936.1262   -30622.667 
  155600    318.06854   -5901.3298    30.339261   -5931.6691   -10367.274 
  155800     278.5864   -5900.6919     26.57322   -5927.2652    6838.3457 
  156000    287.78418   -5907.2209     27.45056   -5934.6714   -16881.462 
  156200    243.64326   -5904.7991    23.240137   -5928.0392   -1843.4213 
  156400    268.41293   -5896.8522    25.602814    -5922.455    18343.935 
  156600    273.50669   -5909.2026    26.088688   -5935.2913    5039.2319 
  156800    288.65236   -5904.5959    27.533372   -5932.1293    -21080.76 
  157000    264.83113   -5894.5961    25.261162   -5919.8573   -1648.9852 
  157200    353.02953   -5892.1288    33.674047   -5925.8028    2683.9728 
  157400    294.07933   -5907.5304    28.051028   -5935.5814    2528.6738 
  157600    277.02867    -5899.167    26.424635   -5925.5916    16530.196 
  157800    337.15888   -5898.6346    32.160211   -5930.7948    55.419984 
  158000     283.7878   -5907.9308    27.069361   -5935.0001    5988.2742 
  158200    328.66295   -5898.2869    31.349819   -5929.6367    6015.3148 
  158400    296.71782   -5898.7178    28.302703   -5927.0205    13863.359 
  158600    252.29139   -5909.7886    24.065047   -5933.8537   -22219.024 
  158800     286.7234   -5901.5275    27.349375   -5928.8769    3352.4574 
  159000    283.36597    -5898.416    27.029124   -5925.4451    15425.801 
  159200    306.82514   -5909.6872    29.266798    -5938.954    7217.1431 
  159400    326.42541   -5904.6823    31.136389   -5935.8187    10744.528 
  159600    276.76741   -5899.0869    26.399714   -5925.4866   -3177.5443 
  159800    295.88427   -5902.7109    28.223194   -5930.9341    -33174.77 
  160000    308.12039    -5888.093    29.390347   -5917.4833    12574.357 
  160200     278.6053   -5898.0453    26.575023   -5924.6204   -14877.622 
  160400    242.45887   -5906.3568    23.127162    -5929.484    7335.6515 
  160600    344.23398    -5900.361    32.835076    -5933.196   -13089.465 
  160800    296.24418   -5906.0971    28.257524   -5934.3546    -1541.921 
  161000    315.63658   -5908.2981    30.107286   -5938.4053    17745.921 
  161200    361.81464   -5894.6956    34.512023   -5929.2076    4968.6809 
  161400    280.06838   -5903.6817     26.71458   -5930.3962    9948.9687 
  161600    316.08126   -5900.5832    30.149703   -5930.7329   -8251.5107 
  161800     290.4092   -5897.0579    27.700949   -5924.7588   -8076.3078 
  162000    307.20755   -5905.7938    29.303275    -5935.097   -51962.215 
  162200    215.72669   -5910.8824    20.577289   -5931.4597   -36112.144 
  162400    315.66043   -5903.3355    30.109561   -5933.4451    367.47206 
  162600    289.00085   -5900.3957    27.566612   -5927.9623   -29591.316 
  162800      269.901    -5908.429    25.744756   -5934.1738     25724.16 
  163000     270.7363   -5902.6953    25.824432   -5928.5198   -1590.6395 
  163200    323.87316   -5899.6684     30.89294   -5930.5614    19713.034 
  163400    261.80027   -5908.2857     24.97206   -5933.2578   -41614.648 
  163600    223.13269   -5910.3508    21.283718   -5931.6346   -24602.304 
  163800    330.50071    -5900.505    31.525115   -5932.0301   -12807.896 
  164000    285.24348   -5904.1618    27.208212     -5931.37    6575.3506 
  164200    361.25736   -5894.3842    34.458866   -5928.8431   -11852.869 
  164400    389.81048   -5894.6962    37.182432   -5931.8786   -11248.565 
  164600    288.82347   -5906.7952    27.549693   -5934.3448     24404.67 
  164800    295.48773   -5897.6478    28.185369   -5925.8332   -5450.5727 
  165000     252.7738   -5904.8052    24.111062   -5928.9163    12504.544 
  165200    310.97905   -5907.1618    29.663023   -5936.8249   -6174.1887 
  165400    376.99936   -5891.6492    35.960432   -5927.6096   -14280.985 
  165600    341.07652   -5897.6622    32.533898   -5930.1961   -18436.116 
  165800    297.89772   -5907.9813    28.415249   -5936.3966    335.12761 
  166000    306.82027   -5909.5214    29.266335   -5938.7877    5786.2015 
  166200    352.01024   -5901.5908    33.576821   -5935.1676    1952.2245 
  166400     273.1223   -5907.5984    26.052022   -5933.6504   -1780.0921 
  166600    267.37032   -5909.9325    25.503364   -5935.4359    579.24764 
  166800    355.81285   -5898.3168    33.939536   -5932.2563   -4955.8859 
  167000    331.08915   -5899.3878    31.581243    -5930.969   -11597.256 
  167200    241.86812   -5911.1547    23.070813   -5934.2255    11935.773 
  167400    387.89636   -5900.8235    36.999852   -5937.8234    9266.6614 
  167600    330.73655   -5900.7946    31.547611   -5932.3422    3878.8317 
  167800    296.50595   -5909.4267    28.282493   -5937.7092    -12679.48 
  168000    254.85005   -5911.7009    24.309107     -5936.01    7383.9531 
  168200    299.67869   -5898.3487    28.585128   -5926.9338   -24066.799 
  168400    389.51364   -5896.2895    37.154118   -5933.4436   -3726.5615 
  168600    276.15291   -5908.9925    26.341099   -5935.3336    -12488.76 
  168800    338.81798   -5899.9904    32.318465   -5932.3089    7397.4253 
  169000    316.08107   -5902.6412    30.149684   -5932.7909   -25509.189 
  169200     289.0955   -5901.9875    27.575641   -5929.5632    38296.666 
  169400    401.85631   -5887.2288    38.331434   -5925.5602    15420.862 
  169600    361.33644   -5900.9078    34.466409   -5935.3742   -7129.1506 
  169800    332.25605   -5898.4686     31.69255   -5930.1612    28505.051 
  170000    350.82774   -5899.7023    33.464027   -5933.1664    14963.877 
  170200    299.07208   -5908.8754    28.527266   -5937.4026    2938.9217 
  170400    255.42449   -5907.6757    24.363901   -5932.0396   -16427.762 
  170600    329.89211   -5899.2411    31.467063   -5930.7081    27592.965 
  170800    234.01678   -5907.1007    22.321906   -5929.4226    2821.2623 
  171000    341.27547   -5891.3844    32.552875   -5923.9372    -7669.586 
  171200    262.43056   -5903.2971    25.032181   -5928.3293    3481.8469 
  171400    336.33111   -5902.3727    32.081253   -5934.4539   -8229.0355 
  171600    269.30317   -5902.6469    25.687731   -5928.3346     6229.384 
  171800    222.01368   -5906.7338    21.176979   -5927.9108   -3184.6015 
  172000    298.64372   -5894.9785    28.486406   -5923.4649   -8929.7551 
  172200     220.5722   -5905.7577    21.039483   -5926.7972   -4954.6526 
  172400     263.2538   -5903.4061    25.110707   -5928.5168   -26205.013 
  172600    320.17153   -5897.1399    30.539856   -5927.6798    15575.771 
  172800    278.84627   -5901.7286    26.598009   -5928.3266   -26767.098 
  173000    225.25658   -5914.9636    21.486306   -5936.4499    3331.2721 
  173200    313.61027   -5905.1256    29.914005   -5935.0397   -7647.0887 
  173400    315.54312   -5898.6437    30.098372   -5928.7421    1552.2285 
  173600    257.95306   -5909.8252    24.605091   -5934.4303    20366.513 
  173800    232.22163   -5904.3694    22.150674   -5926.5201   -2519.4951 
  174000    269.02431   -5897.9799    25.661132   -5923.6411    3221.0178 
  174200    320.81096   -5904.7108    30.600849   -5935.3117    -1047.699 
  174400    234.89469    -5909.605    22.405646   -5932.0106    27404.815 
  174600    290.10515   -5902.0924    27.671947   -5929.7643    10906.591 
  174800    272.52215   -5902.5588    25.994777   -5928.5536    -3701.724 
  175000    339.07309   -5898.4679    32.342799   -5930.8107   -9562.3811 
  175200    301.23543   -5893.3839    28.733619   -5922.1175   -6404.8588 
  175400    271.26834   -5908.2275    25.875181   -5934.1027    10263.738 
  175600    340.75652   -5899.9426    32.503374    -5932.446   -6337.8121 
  175800    468.64638   -5882.7209    44.702267   -5927.4232    2535.9898 
  176000    304.92963   -5898.9795    29.085994   -5928.0655    15148.672 
  176200    303.47685   -5903.2788    28.947419   -5932.2263    -27733.57 
  176400    417.65728   -5888.7836    39.838624   -5928.6223    17974.209 
  176600    320.13575   -5897.9007    30.536444   -5928.4371    7829.8367 
  176800    278.27728   -5902.7227    26.543735   -5929.2664   -19200.035 
  177000    311.67076    -5901.777    29.729003    -5931.506   -12804.488 
  177200    354.62629   -5897.0416    33.826355   -5930.8679    3033.0828 
  177400    254.33924   -5906.3182    24.260383   -5930.5786    15339.783 
  177600    304.87997     -5905.74    29.081257   -5934.8213   -7428.6651 
  177800    312.18528   -5896.6314     29.77808   -5926.4095   -19393.602 
  178000    332.96724   -5905.1306    31.760387    -5936.891    10636.967 
[...]
  950000    223.45021   -5910.0871    21.314004   -5931.4011   -11655.519 
  950200    260.36032   -5903.2802    24.834709   -5928.1149    5128.1602 
  950400     316.8122   -5899.5442    30.219424   -5929.7637   -18093.408 
  950600    246.33051   -5908.9862    23.496463   -5932.4827   -14899.735 
  950800    303.44406   -5900.4158    28.944291   -5929.3601   -16392.716 
  951000    326.95614   -5896.4205    31.187012   -5927.6075     -2483.98 
  951200    381.29576     -5899.29    36.370248   -5935.6602    9099.5151 
  951400     272.7157   -5907.4361    26.013238   -5933.4494   -2587.5621 
  951600    324.53268   -5896.2523    30.955848   -5927.2081   -18800.969 
  951800    300.01298   -5901.3252    28.617014   -5929.9422   -2838.7612 
  952000    300.54572   -5902.4555    28.667831   -5931.1233   -2645.0276 
  952200    277.65489   -5903.7026    26.484367    -5930.187   -2.2657011 
  952400    288.53744   -5901.1672    27.522409   -5928.6896    6282.8928 
  952600    223.60817   -5915.1622    21.329072   -5936.4913   -18744.814 
  952800    240.58137    -5908.741    22.948075   -5931.6891   -20578.584 
  953000    236.15595   -5904.1798    22.525953   -5926.7058   -14223.621 
  953200    240.00591   -5905.0525    22.893185   -5927.9457    43.524908 
  953400    280.73087   -5901.0219    26.777773   -5927.7997    9743.0586 
  953600     334.0992   -5893.0353     31.86836   -5924.9037    11969.543 
  953800    280.28486   -5904.5925     26.73523   -5931.3278   -12226.295 
  954000    315.69612   -5903.7722    30.112965   -5933.8852   -8876.7743 
  954200    297.70084   -5899.6494    28.396469   -5928.0459   -3254.4555 
  954400    293.30914   -5898.7314    27.977563    -5926.709   -6370.9224 
  954600    284.60124   -5902.4476    27.146951   -5929.5945   -7672.8765 
  954800    222.02941   -5911.1873     21.17848   -5932.3658   -7681.9187 
  955000    314.54197   -5896.8344    30.002876   -5926.8372   -280.99914 
  955200    311.43081   -5900.5285    29.706115   -5930.2346    533.73765 
  955400    237.39987   -5905.9232    22.644605   -5928.5678    16560.976 
  955600    318.02166   -5897.3357    30.334789   -5927.6704    10218.329 
  955800    315.43614   -5894.2569    30.088167    -5924.345    5404.2001 
  956000    305.82719   -5905.7101    29.171609   -5934.8817    1793.2041 
  956200    295.42796   -5902.5285    28.179668   -5930.7082    15614.897 
  956400      344.302   -5896.0139    32.841564   -5928.8555   -4695.1638 
  956600    283.76299   -5910.6653    27.066994   -5937.7322    34414.257 
  956800    345.47803   -5904.0728     32.95374   -5937.0266   -8824.7176 
  957000    287.50895   -5900.4005    27.424306   -5927.8248   -21835.135 
  957200    303.59386    -5902.396     28.95858   -5931.3546   -10850.683 
  957400    247.27062   -5905.0275    23.586136   -5928.6136    15780.124 
  957600     329.6594   -5892.5566    31.444866   -5924.0014    8354.7649 
  957800    295.68019   -5899.4805    28.203727   -5927.6842   -22802.449 
  958000    310.84756   -5902.3824    29.650481   -5932.0329    24281.427 
  958200     295.1645   -5898.6886    28.154538   -5926.8431    2368.8057 
  958400    264.94862   -5912.0352    25.272368   -5937.3076   -10514.792 
  958600    299.50113   -5901.9354    28.568191   -5930.5036   -10499.629 
  958800    291.76243   -5900.3782    27.830029   -5928.2083     11341.99 
  959000    226.23656   -5913.8236    21.579783   -5935.4034     -11488.8 
  959200    387.27658   -5900.9504    36.940733   -5937.8911   -5602.5053 
  959400    270.50965    -5905.068    25.802812   -5930.8708   -19163.137 
  959600     268.5519   -5909.2599     25.61607   -5934.8759    1842.7461 
  959800    320.67903   -5896.5744    30.588265   -5927.1626   -3810.5553 
  960000     293.4206   -5901.2786    27.988194   -5929.2668    13299.768 
  960200    274.97795   -5911.7189    26.229026   -5937.9479   -3949.5275 
  960400     296.4793   -5902.9795    28.279951   -5931.2594   -6143.9083 
  960600    357.08877   -5896.7798    34.061242    -5930.841    2804.3796 
  960800    195.46721   -5910.8728     18.64482   -5929.5177    11753.624 
  961000    247.25345   -5901.3067    23.584498   -5924.8912    4531.4031 
  961200    321.01682   -5898.3486    30.620486   -5928.9691    8542.8082 
  961400     344.4852   -5900.2512    32.859039   -5933.1103   -10854.686 
  961600     227.8846   -5910.3957    21.736982   -5932.1327    6306.1092 
  961800      273.547   -5899.9034    26.092533    -5925.996     5032.883 
  962000    296.01231   -5905.7461    28.235407   -5933.9815   -540.63186 
  962200     291.6117   -5914.7984     27.81565   -5942.6141   -12198.636 
  962400    314.06539   -5903.8042    29.957417   -5933.7616   -1042.6847 
  962600    349.56501   -5899.2496     33.34358   -5932.5932    20764.103 
  962800    258.92213   -5911.7282    24.697526   -5936.4257     16881.77 
  963000     305.6496   -5901.7596    29.154668   -5930.9142    1395.1904 
  963200    337.27235   -5901.1731    32.171034   -5933.3442    16380.612 
  963400    239.75321   -5909.3409    22.869081     -5932.21    1226.8597 
  963600    271.27099   -5902.0193    25.875433   -5927.8947    21976.376 
  963800    265.56184   -5897.7118    25.330861   -5923.0427   -1247.9632 
  964000    251.76824   -5912.1368    24.015145    -5936.152    15119.812 
  964200    277.97074   -5904.7131    26.514495   -5931.2276    12463.121 
  964400    310.53993   -5895.9815    29.621138   -5925.6026   -7391.8794 
  964600    289.06758   -5907.5171    27.572978   -5935.0901    5837.1773 
  964800    339.00851   -5905.4571     32.33664   -5937.7937    6070.4407 
  965000    305.85858   -5898.4064    29.174603    -5927.581   -5919.9942 
  965200    356.93916   -5892.3971    34.046971   -5926.4441    10590.992 
  965400    286.36439   -5905.7347    27.315131   -5933.0499    -6380.835 
  965600    327.50877   -5894.8238    31.239726   -5926.0636   -23348.002 
  965800    377.46074   -5899.4928     36.00444   -5935.4973    -14104.93 
  966000    363.12365   -5902.9409    34.636884   -5937.5778   -10727.067 
  966200     252.6431   -5913.5483    24.098595   -5937.6469    -4724.642 
  966400    298.90761   -5907.6957    28.511578   -5936.2073   -22403.897 
  966600    359.05927   -5900.3441    34.249199   -5934.5933     18997.25 
  966800    229.63623     -5897.61    21.904063   -5919.5141   -168.54429 
  967000     275.3709    -5901.163    26.266507   -5927.4296   -5731.9568 
  967200    306.30084   -5906.2552    29.216788    -5935.472   -11496.356 
  967400    403.59615    -5892.107     38.49739   -5930.6044    3006.4401 
  967600    325.49261   -5901.5799    31.047413   -5932.6273    7959.3251 
  967800    230.33838   -5905.0679    21.971039    -5927.039   -39353.433 
  968000     305.5042   -5897.5486    29.140799   -5926.6894   -3186.3183 
  968200    235.19893   -5905.5328    22.434666   -5927.9675    6126.0726 
  968400    261.90374    -5905.242     24.98193    -5930.224   -11679.929 
  968600    361.51172   -5894.3203    34.483128   -5928.8035    12351.147 
  968800    284.49507   -5905.3487    27.136825   -5932.4855    4862.6782 
  969000    305.06917   -5907.2821    29.099304   -5936.3814    13824.176 
  969200    369.73929   -5890.6744    35.267923   -5925.9423    10026.446 
  969400    256.40615   -5904.8132    24.457537   -5929.2707    6242.0598 
  969600    303.83364   -5903.3298    28.981451   -5932.3112    5571.2319 
  969800     297.5921   -5890.9057    28.386096   -5919.2918   -21142.333 
  970000    250.86309   -5905.4597    23.928807   -5929.3885   -3778.3651 
  970200    308.98111   -5902.4166    29.472448   -5931.8891   -10809.164 
  970400    359.48522   -5889.6314    34.289829   -5923.9212   -4841.6071 
  970600    316.62232   -5896.2539    30.201311   -5926.4552   -733.76874 
  970800    245.92361   -5904.1771     23.45765   -5927.6348       -25037 
  971000    313.11924   -5894.3855    29.867168   -5924.2527   -14230.096 
  971200    351.04396   -5898.2231    33.484652   -5931.7077   -2886.3308 
  971400    290.41646   -5907.0197    27.701642   -5934.7213   -10040.094 
  971600    326.31292   -5895.5478    31.125659   -5926.6734    16701.086 
  971800    275.37028   -5909.3117    26.266448   -5935.5782   -5841.6739 
  972000    366.61905   -5905.8221    34.970296   -5940.7924    6403.1712 
  972200    309.92997    -5897.963    29.562956    -5927.526    12474.728 
  972400    305.95333   -5902.5276     29.18364   -5931.7113    616.00333 
  972600    261.37369   -5903.1094     24.93137   -5928.0408    20828.343 
  972800    332.63685   -5896.6073    31.728873   -5928.3362    2829.8805 
  973000    326.63458   -5897.9586    31.156341   -5929.1149    -12999.31 
  973200     299.9709   -5906.3901    28.613001   -5935.0031   -7813.3249 
  973400    398.33916   -5892.7189    37.995948   -5930.7148   -5851.4871 
  973600    332.60778   -5893.2162      31.7261   -5924.9423   -13154.025 
  973800    240.71299    -5901.658     22.96063   -5924.6186   -3830.6721 
  974000    257.13978   -5899.9088    24.527515   -5924.4364   -10645.973 
  974200    348.13601   -5896.0213    33.207274   -5929.2286   -18165.638 
  974400    240.79835   -5908.2827    22.968772   -5931.2514    2372.8094 
  974600    320.58266   -5893.8603    30.579073   -5924.4393    5772.9056 
  974800    332.27124   -5896.2229    31.693998   -5927.9168   -7513.8014 
  975000     331.3953   -5905.1524    31.610447   -5936.7629    12882.008 
  975200    363.20234   -5889.3853     34.64439   -5924.0297    15097.434 
  975400    298.45957   -5900.0445    28.468841   -5928.5134    6613.4755 
  975600    245.58368   -5908.4267    23.425226   -5931.8519    9091.7033 
  975800    279.20241   -5895.9623    26.631979   -5922.5943   -20223.879 
  976000    281.50109   -5898.8194    26.851241   -5925.6706   -3995.2429 
  976200    266.02973   -5902.9007    25.375491   -5928.2762   -24359.846 
  976400    310.49825   -5899.0926    29.617162   -5928.7098    17080.902 
  976600    354.14438    -5890.807    33.780388   -5924.5873     2029.972 
  976800     331.6363   -5905.9534    31.633434   -5937.5869   -24532.324 
  977000    312.11277   -5902.1631    29.771164   -5931.9343    -300.5649 
  977200    362.74757   -5898.2666    34.601011   -5932.8676    6051.7169 
  977400    282.02248   -5899.2494    26.900974   -5926.1504   -281.12799 
  977600    383.94356   -5898.9847     36.62281   -5935.6075   -3524.4723 
  977800    321.83435   -5897.9248    30.698466   -5928.6232    6078.1245 
  978000    289.45938    -5907.096    27.610349   -5934.7063    9503.6827 
  978200    276.64014   -5909.2398    26.387575   -5935.6274    341.71176 
  978400    313.86955    -5896.579    29.938736   -5926.5178    22060.929 
  978600    271.94742   -5908.9896    25.939955   -5934.9296   -8235.0665 
  978800    299.30791   -5904.8387    28.549761   -5933.3885   -10051.323 
  979000    269.65712   -5900.4222    25.721493   -5926.1437    10238.676 
  979200    277.11648   -5903.3844    26.433011   -5929.8174    -9477.249 
  979400    246.30693   -5913.2087    23.494213    -5936.703    7066.6583 
  979600    260.49885   -5902.6547    24.847922   -5927.5027   -21836.268 
  979800    386.52808    -5898.388    36.869338   -5935.2573   -16552.828 
  980000    270.86431   -5896.5556    25.836641   -5922.3922   -12897.126 
  980200    234.20473    -5903.795    22.339834   -5926.1348    17235.484 
  980400    279.53624   -5900.0352    26.663822    -5926.699   -11637.443 
  980600    323.76539   -5892.9659     30.88266   -5923.8485    11856.262 
  980800    219.49656   -5906.9604    20.936882   -5927.8973   -13113.972 
  981000    329.48971   -5900.5493     31.42868    -5931.978   -17376.389 
  981200    364.96123   -5892.8245    34.812164   -5927.6367   -28016.097 
  981400    310.72213   -5899.9186    29.638517   -5929.5571    8201.2818 
  981600    279.48756   -5906.4201    26.659178   -5933.0793    3370.8629 
  981800    374.42368   -5888.8812    35.714747    -5924.596    13765.025 
  982000    325.89047   -5897.6161    31.085363   -5928.7015    -11842.71 
  982200    268.77175   -5908.4588    25.637041   -5934.0958   -16821.341 
  982400    349.42151   -5897.3235    33.329892   -5930.6534   -22324.827 
  982600    391.64046   -5897.9337    37.356986   -5935.2907   -25998.354 
  982800    315.60706   -5904.9817     30.10447   -5935.0862   -2504.8633 
  983000    388.73822   -5895.3814    37.080153   -5932.4616    26285.183 
  983200    403.08352    -5892.389    38.448493   -5930.8375   -2326.2253 
  983400    259.75141   -5901.8242    24.776628   -5926.6008    17190.157 
  983600    262.32551   -5898.4812    25.022161   -5923.5034   -34397.992 
  983800    294.03955    -5895.049    28.047233   -5923.0963   -2683.7252 
  984000    208.02873   -5908.7888    19.843012   -5928.6318    5055.9953 
  984200    296.77794   -5898.4363    28.308437   -5926.7448   -9046.0276 
  984400    269.21104    -5899.006    25.678944   -5924.6849      3703.17 
  984600    289.14957   -5906.3947    27.580798   -5933.9755   -142.39186 
  984800    277.76265   -5913.4012    26.494646   -5939.8958     4983.476 
  985000    298.92803   -5899.5373    28.513526   -5928.0508     -1781.69 
  985200    314.29908   -5904.1166    29.979708   -5934.0963   -17761.125 
  985400    214.56718    -5914.531    20.466688   -5934.9977    19965.851 
  985600    309.83652   -5902.5637    29.554042   -5932.1178    7377.3599 
  985800     284.2423   -5897.1854    27.112714   -5924.2981    21485.095 
  986000    259.29779   -5907.2995    24.733358   -5932.0328   -5860.7434 
  986200    301.19662   -5903.3923    28.729917   -5932.1222     -11293.7 
  986400    313.10178   -5894.8083    29.865502   -5924.6738     35367.66 
  986600     309.3946   -5904.9335    29.511889   -5934.4454   -11688.759 
  986800    368.50604   -5892.2099    35.150288   -5927.3601   -19599.816 
  987000    298.99394   -5894.1244    28.519813   -5922.6442    11545.296 
  987200    296.50959   -5905.1355    28.282841   -5933.4183   -3292.9061 
  987400    284.38649   -5893.0308    27.126467   -5920.1572     13965.51 
  987600    275.31906   -5895.8171    26.261562   -5922.0786   -21567.133 
  987800    269.95438   -5905.4107    25.749848   -5931.1605    1569.5858 
  988000    325.68344   -5899.5291    31.065615   -5930.5947    16357.898 
  988200    303.91417   -5891.4281    28.989133   -5920.4173    3902.8876 
  988400    263.86005   -5904.7867    25.168534   -5929.9553     3861.554 
  988600    313.68464   -5898.8834    29.921099   -5928.8045    8695.9802 
  988800    335.89236   -5892.6066    32.039402    -5924.646   -12572.229 
  989000    281.99307   -5906.2886    26.898169   -5933.1867    6232.3354 
  989200    310.26263   -5904.2358    29.594687   -5933.8305    6344.9671 
  989400    331.50433   -5891.7758    31.620846   -5923.3966    1843.5774 
  989600    277.00644   -5905.7316    26.422515   -5932.1542   -582.88605 
  989800    305.01152   -5902.5889    29.093805   -5931.6827    15888.495 
  990000     313.8276   -5893.1739    29.934735   -5923.1086   -18222.582 
  990200    299.99165   -5906.8024     28.61498   -5935.4174   -27490.068 
  990400    259.35437   -5904.8899    24.738755   -5929.6287     33470.79 
  990600     292.4826   -5894.3312    27.898722   -5922.2299    7073.6076 
  990800     265.7271   -5898.9372    25.346624   -5924.2838   -9453.1473 
  991000    324.94664   -5904.5102    30.995334   -5935.5055    5175.9451 
  991200    287.20512   -5907.8965    27.395325   -5935.2918    7427.1125 
  991400    305.52171   -5896.2538     29.14247   -5925.3963    4851.0259 
  991600    246.12581   -5908.3718    23.476937   -5931.8488   -3498.1206 
  991800    250.65304   -5902.7308    23.908771   -5926.6396    18446.323 
  992000    272.84089   -5897.6629     26.02518   -5923.6881    32010.885 
  992200    297.60564   -5901.7557    28.387389   -5930.1431   -16499.924 
  992400    313.12395   -5902.7301    29.867617   -5932.5977    16813.892 
  992600    296.63625   -5903.8111    28.294922   -5932.1061   -10199.548 
  992800    335.28526    -5895.081    31.981493   -5927.0625   -1644.8573 
  993000    308.97249    -5898.585    29.471626   -5928.0566    21821.154 
  993200    277.09872   -5905.9222    26.431316   -5932.3536    2941.2567 
  993400    351.83617   -5892.1404    33.560217   -5925.7007    32493.805 
  993600    324.71432   -5899.0774    30.973175   -5930.0506    13328.265 
  993800    296.77517   -5898.9343    28.308173   -5927.2425    16301.899 
  994000    364.87587   -5895.0251    34.804021   -5929.8292   -5988.2172 
  994200    286.19503   -5905.0645    27.298976   -5932.3635   -16727.032 
  994400    251.42996   -5906.4931    23.982878    -5930.476   -8507.5571 
  994600     396.5655   -5895.0499    37.826766   -5932.8767   -3187.3935 
  994800    281.48914   -5902.5358    26.850101   -5929.3859   -25637.616 
  995000    287.64263   -5906.0791    27.437057   -5933.5162    5792.3561 
  995200    301.63103   -5895.9264    28.771354   -5924.6978    17749.929 
  995400    284.87442   -5902.5011    27.173009   -5929.6741    2897.3664 
  995600    282.30077   -5909.6733    26.927519   -5936.6008    9736.4156 
  995800    289.34419   -5906.2019    27.599362   -5933.8013   -9320.1566 
  996000    307.70177   -5900.2681    29.350417   -5929.6185    5157.3528 
  996200    285.70697   -5899.8876    27.252423     -5927.14    -31567.01 
  996400    361.55963   -5897.9809    34.487699   -5932.4686   -8411.3337 
  996600    366.83386   -5898.6529    34.990786   -5933.6437    -1341.608 
  996800    228.11556   -5906.0876    21.759013   -5927.8466    24283.731 
  997000    306.11457   -5905.2944     29.19902   -5934.4934    1471.9953 
  997200    336.67061   -5895.4156    32.113636   -5927.5293    2734.1104 
  997400    215.71137   -5907.2376    20.575827   -5927.8134   -24995.898 
  997600    266.42555   -5914.0984    25.413247   -5939.5116   -21341.642 
  997800    297.76164   -5899.4676    28.402268   -5927.8699   -4510.7767 
  998000    271.72253   -5900.5751    25.918504   -5926.4936   -19968.334 
  998200    289.65264   -5910.0991    27.628784   -5937.7279    17721.459 
  998400     347.4122   -5894.3403    33.138233   -5927.4785   -4906.4371 
  998600    296.59976    -5906.479    28.291441   -5934.7704   -2562.7868 
  998800    332.20897   -5908.0258    31.688059   -5939.7139    7959.0445 
  999000    312.86654    -5896.604    29.843063   -5926.4471   -14929.075 
  999200     318.9836   -5896.7186    30.426545   -5927.1451    14190.541 
  999400    262.08642   -5905.9596    24.999355    -5930.959    14070.678 
  999600    358.46426   -5892.5322    34.192444   -5926.7246    -4843.492 
  999800    247.10679   -5898.5899    23.570509   -5922.1604   -10361.718 
 1000000    250.80121    -5903.092    23.922905   -5927.0149    264.67363 
Loop time of 1328.11 on 8 procs for 1000000 steps with 33 atoms

Performance: 16.264 ns/day, 1.476 hours/ns, 752.951 timesteps/s
99.6% CPU use with 8 MPI tasks x no OpenMP threads

MPI task timing breakdown:
Section |  min time  |  avg time  |  max time  |%varavg| %total
---------------------------------------------------------------
Pair    | 973.29     | 1016.3     | 1056.4     |  89.2 | 76.52
Neigh   | 0.41063    | 0.4217     | 0.43791    |   1.2 |  0.03
Comm    | 16.179     | 56.158     | 98.719     | 378.1 |  4.23
Output  | 0.063587   | 0.067551   | 0.091517   |   3.5 |  0.01
Modify  | 253.26     | 253.69     | 254.07     |   1.6 | 19.10
Other   |            | 1.444      |            |       |  0.11

Nlocal:    4.125 ave 8 max 0 min
Histogram: 1 3 0 0 0 0 0 0 2 2
Nghost:    394.875 ave 401 max 389 min
Histogram: 2 0 0 1 1 2 0 0 0 2
Neighs:    420 ave 829 max 0 min
Histogram: 1 3 0 0 0 0 0 0 2 2

Total # of neighbors = 3360
Ave neighs/atom = 101.818
Neighbor list builds = 999
Dangerous builds = 0

unfix 1
unfix output
undump 1

Please see the log.cite file for references relevant to this simulation

Total wall time: 0:22:12
