ITEM: TIMESTEP
0
ITEM: NUMBER OF ATOMS
49
ITEM: BOX BOUNDS pp pp pp
0.0000000000000000e+00 1.1000000000000000e+01
0.0000000000000000e+00 1.1002000000000001e+01
0.0000000000000000e+00 1.1000000000000000e+01
ITEM: ATOMS id type x y z 
10 1 4.603 4.603 4.603 
11 1 3.085 3.085 3.085 
12 1 3.796 3.796 3.796 
46 1 0.726 0.725 0.725 
47 1 2.26 2.259 2.26 
48 1 1.551 1.55 1.55 
19 1 4.546 4.545 6.226 
20 1 3.013 3.013 7.764 
21 1 3.721 3.721 7.053 
31 1 0.668 0.667 10.103 
32 1 2.187 2.187 8.589 
33 1 1.476 1.475 9.298 
16 1 4.546 6.225 4.546 
17 1 3.013 7.765 3.013 
18 1 3.721 7.053 3.722 
25 1 0.668 10.103 0.668 
26 1 2.188 8.589 2.188 
27 1 1.476 9.298 1.476 
4 1 4.608 6.169 6.169 
5 1 3.086 7.684 7.684 
6 1 3.799 6.974 6.974 
37 1 0.729 10.046 10.046 
38 1 2.259 8.509 8.508 
39 1 1.552 9.219 9.219 
13 1 6.225 4.546 4.546 
14 1 7.764 3.013 3.013 
15 1 7.053 3.721 3.722 
28 1 10.102 0.667 0.668 
29 1 8.589 2.187 2.188 
30 1 9.298 1.475 1.476 
49 2 5.598 4.447 3.347 
1 1 6.168 4.608 6.169 
2 1 7.684 3.086 7.684 
3 1 6.974 3.799 6.974 
40 1 10.045 0.728 10.046 
41 1 8.508 2.259 8.508 
42 1 9.218 1.551 9.218 
7 1 6.169 6.169 4.608 
8 1 7.684 7.684 3.086 
9 1 6.974 6.974 3.799 
43 1 10.046 10.047 0.729 
44 1 8.508 8.509 2.259 
45 1 9.219 9.219 1.552 
22 1 6.229 6.229 6.229 
23 1 7.764 7.765 7.765 
24 1 7.055 7.056 7.055 
34 1 10.108 10.108 10.107 
35 1 8.59 8.59 8.59 
36 1 9.301 9.301 9.3 
ITEM: TIMESTEP
10
ITEM: NUMBER OF ATOMS
49
ITEM: BOX BOUNDS pp pp pp
0.0000000000000000e+00 1.1000000000000000e+01
0.0000000000000000e+00 1.1002000000000001e+01
0.0000000000000000e+00 1.1000000000000000e+01
ITEM: ATOMS id type x y z 
10 1 4.48494 4.55998 4.56727 
11 1 3.08133 3.08711 3.09474 
12 1 3.66975 3.76085 3.84688 
46 1 0.735754 0.731337 0.732225 
47 1 2.26998 2.26847 2.26811 
48 1 1.56617 1.56449 1.56491 
19 1 4.5339 4.54384 6.23726 
20 1 3.00765 3.00576 7.76963 
21 1 3.71266 3.71719 7.06169 
31 1 0.676506 0.674526 10.0965 
32 1 2.18978 2.18894 8.58344 
33 1 1.48391 1.48456 9.2949 
16 1 4.54704 6.26502 4.56657 
17 1 3.0104 7.76328 3.00906 
18 1 3.71598 7.0689 3.71874 
25 1 0.67404 10.0959 0.676881 
26 1 2.19045 8.58352 2.19008 
27 1 1.4843 9.29446 1.48576 
4 1 4.58605 6.17396 6.16368 
5 1 3.08352 7.69196 7.69049 
6 1 3.7835 6.97869 6.98113 
37 1 0.738974 10.0371 10.0373 
38 1 2.2695 8.49829 8.4975 
39 1 1.56401 9.20751 9.20764 
13 1 6.30984 4.57921 4.63769 
14 1 7.81891 2.97168 2.99822 
15 1 7.07881 3.69025 3.68857 
28 1 10.0927 0.674856 0.679225 
29 1 8.58933 2.18647 2.18412 
30 1 9.30529 1.47281 1.47375 
49 2 5.67165 4.45021 3.12709 
1 1 6.1712 4.58437 6.20375 
2 1 7.69735 3.07559 7.69128 
3 1 6.98083 3.78622 6.9948 
40 1 10.0358 0.736539 10.0338 
41 1 8.49797 2.26722 8.4982 
42 1 9.21002 1.56279 9.20936 
7 1 6.15821 6.21098 4.61074 
8 1 7.68575 7.67926 3.08088 
9 1 6.97391 6.98879 3.80353 
43 1 10.0375 10.035 0.73888 
44 1 8.49476 8.49547 2.27217 
45 1 9.20588 9.20538 1.5656 
22 1 6.23849 6.26055 6.23199 
23 1 7.78084 7.78059 7.78359 
24 1 7.07119 7.0741 7.06759 
34 1 10.0988 10.0989 10.101 
35 1 8.5889 8.5893 8.5883 
36 1 9.29591 9.29572 9.29651 
ITEM: TIMESTEP
20
ITEM: NUMBER OF ATOMS
49
ITEM: BOX BOUNDS pp pp pp
0.0000000000000000e+00 1.1000000000000000e+01
0.0000000000000000e+00 1.1002000000000001e+01
0.0000000000000000e+00 1.1000000000000000e+01
ITEM: ATOMS id type x y z 
10 1 4.42056 4.56586 4.58305 
11 1 3.0458 3.07088 3.09786 
12 1 3.63153 3.75427 3.83989 
46 1 0.75126 0.735338 0.735952 
47 1 2.27557 2.27193 2.27162 
48 1 1.57211 1.56358 1.56379 
19 1 4.52636 4.54288 6.2357 
20 1 3.0077 3.00678 7.77233 
21 1 3.7088 3.71586 7.06225 
31 1 0.680366 0.676661 10.0988 
32 1 2.19473 2.19538 8.58478 
33 1 1.4849 1.48136 9.28314 
16 1 4.53284 6.27502 4.56201 
17 1 3.00643 7.76718 3.00262 
18 1 3.71479 7.07892 3.72305 
25 1 0.672281 10.098 0.678767 
26 1 2.19246 8.58656 2.19176 
27 1 1.47944 9.28663 1.48158 
4 1 4.58327 6.1767 6.17842 
5 1 3.076 7.69195 7.69307 
6 1 3.78662 6.98677 6.98582 
37 1 0.738613 10.0401 10.0398 
38 1 2.26592 8.50192 8.50171 
39 1 1.56246 9.21006 9.20971 
13 1 6.31008 4.59973 4.61454 
14 1 7.88604 2.93904 3.01778 
15 1 7.05491 3.66885 3.58196 
28 1 10.1073 0.662269 0.672314 
29 1 8.61147 2.17344 2.17684 
30 1 9.30582 1.45443 1.4555 
49 2 5.73298 4.41861 3.09586 
1 1 6.15694 4.598 6.24797 
2 1 7.70386 3.06947 7.69335 
3 1 6.97855 3.78587 7.01045 
40 1 10.0435 0.734104 10.0288 
41 1 8.50458 2.26505 8.50438 
42 1 9.21207 1.555 9.20832 
7 1 6.14814 6.26209 4.64348 
8 1 7.6886 7.67564 3.07724 
9 1 6.96667 7.00654 3.80792 
43 1 10.0388 10.0248 0.739484 
44 1 8.49598 8.49618 2.2712 
45 1 9.20596 9.20071 1.56604 
22 1 6.23765 6.273 6.25413 
23 1 7.78566 7.7808 7.78541 
24 1 7.07114 7.08469 7.07257 
34 1 10.1022 10.0994 10.1078 
35 1 8.59182 8.59198 8.59094 
36 1 9.29851 9.29772 9.30122 
ITEM: TIMESTEP
30
ITEM: NUMBER OF ATOMS
49
ITEM: BOX BOUNDS pp pp pp
0.0000000000000000e+00 1.1000000000000000e+01
0.0000000000000000e+00 1.1002000000000001e+01
0.0000000000000000e+00 1.1000000000000000e+01
ITEM: ATOMS id type x y z 
10 1 4.35435 4.62632 4.71125 
11 1 3.03024 3.08796 3.13222 
12 1 3.65675 3.8149 3.88441 
46 1 0.762577 0.729307 0.732154 
47 1 2.2756 2.26747 2.27239 
48 1 1.57576 1.55645 1.55875 
19 1 4.49428 4.51329 6.22584 
20 1 2.97681 2.97929 7.80626 
21 1 3.68165 3.68829 7.09066 
31 1 0.687457 0.676442 10.0928 
32 1 2.18547 2.18607 8.59484 
33 1 1.47477 1.46716 9.29408 
16 1 4.4963 6.22162 4.53454 
17 1 2.99537 7.78972 2.99248 
18 1 3.69774 7.08318 3.70907 
25 1 0.676351 10.0924 0.68146 
26 1 2.19034 8.59148 2.18817 
27 1 1.47412 9.28638 1.47464 
4 1 4.5915 6.22107 6.18734 
5 1 3.06689 7.69167 7.69897 
6 1 3.7883 6.99716 6.98484 
37 1 0.748586 10.0334 10.0374 
38 1 2.27025 8.50049 8.50048 
39 1 1.562 9.20841 9.20924 
13 1 6.1908 4.61889 4.57302 
14 1 7.93867 2.91264 3.06091 
15 1 7.01406 3.66522 3.45741 
28 1 10.1182 0.653054 0.65898 
29 1 8.63434 2.17148 2.19154 
30 1 9.30827 1.43785 1.45715 
49 2 5.93048 4.39895 2.98425 
1 1 6.20906 4.61753 6.19564 
2 1 7.69232 3.07545 7.69495 
3 1 6.97644 3.79515 7.00237 
40 1 10.0469 0.734322 10.0173 
41 1 8.50147 2.26958 8.499 
42 1 9.21215 1.55566 9.19952 
7 1 6.16187 6.2501 4.66169 
8 1 7.67914 7.67954 3.0841 
9 1 6.96118 7.00553 3.81387 
43 1 10.0462 10.0091 0.73995 
44 1 8.49713 8.48831 2.27061 
45 1 9.20378 9.19999 1.56721 
22 1 6.23584 6.27272 6.28392 
23 1 7.79568 7.79128 7.78738 
24 1 7.07047 7.08878 7.09247 
34 1 10.1061 10.1023 10.1085 
35 1 8.59618 8.60262 8.59233 
36 1 9.30982 9.29197 9.31468 
ITEM: TIMESTEP
40
ITEM: NUMBER OF ATOMS
49
ITEM: BOX BOUNDS pp pp pp
0.0000000000000000e+00 1.1000000000000000e+01
0.0000000000000000e+00 1.1002000000000001e+01
0.0000000000000000e+00 1.1000000000000000e+01
ITEM: ATOMS id type x y z 
10 1 4.40531 4.64357 4.70886 
11 1 3.01244 3.08909 3.1338 
12 1 3.63992 3.81223 3.89622 
46 1 0.762296 0.727612 0.735422 
47 1 2.27402 2.26264 2.272 
48 1 1.57514 1.55454 1.55785 
19 1 4.52355 4.54049 6.27012 
20 1 2.97646 2.97598 7.80335 
21 1 3.68179 3.6936 7.10108 
31 1 0.672291 0.666602 10.0999 
32 1 2.17861 2.18046 8.59241 
33 1 1.48022 1.46875 9.30809 
16 1 4.49458 6.24813 4.55056 
17 1 2.99241 7.80016 2.98481 
18 1 3.68437 7.0851 3.70383 
25 1 0.674266 10.0929 0.679014 
26 1 2.18418 8.59042 2.18173 
27 1 1.4751 9.3 1.4751 
4 1 4.59215 6.2018 6.18443 
5 1 3.07246 7.69178 7.68675 
6 1 3.79411 6.98386 6.99152 
37 1 0.748555 10.0282 10.0358 
38 1 2.27033 8.49776 8.49787 
39 1 1.56631 9.2061 9.20968 
13 1 6.15856 4.59272 4.54398 
14 1 7.95957 2.89663 3.09374 
15 1 7.02456 3.66137 3.42419 
28 1 10.1133 0.644395 0.64861 
29 1 8.64351 2.14622 2.19102 
30 1 9.34275 1.44291 1.45529 
49 2 5.94223 4.43974 2.97236 
1 1 6.18296 4.61435 6.18979 
2 1 7.67732 3.08307 7.69641 
3 1 6.98828 3.80233 6.97956 
40 1 10.0411 0.733633 10.0153 
41 1 8.49812 2.26958 8.49664 
42 1 9.21141 1.55998 9.19641 
7 1 6.15528 6.25452 4.66184 
8 1 7.67159 7.68257 3.08434 
9 1 6.96711 7.00213 3.82356 
43 1 10.0388 10.0098 0.745402 
44 1 8.49019 8.48838 2.27334 
45 1 9.20737 9.18798 1.56834 
22 1 6.2243 6.26052 6.28087 
23 1 7.79538 7.792 7.78547 
24 1 7.0675 7.08762 7.09619 
34 1 10.1073 10.0943 10.1132 
35 1 8.60408 8.59497 8.60272 
36 1 9.30649 9.31445 9.30428 
ITEM: TIMESTEP
50
ITEM: NUMBER OF ATOMS
49
ITEM: BOX BOUNDS pp pp pp
0.0000000000000000e+00 1.1000000000000000e+01
0.0000000000000000e+00 1.1002000000000001e+01
0.0000000000000000e+00 1.1000000000000000e+01
ITEM: ATOMS id type x y z 
10 1 4.42051 4.64705 4.7071 
11 1 3.0073 3.09414 3.1425 
12 1 3.63601 3.81659 3.90568 
46 1 0.760905 0.727268 0.734151 
47 1 2.27602 2.26583 2.27349 
48 1 1.578 1.55473 1.56364 
19 1 4.52034 4.53773 6.28822 
20 1 2.98009 2.9813 7.79639 
21 1 3.68954 3.69827 7.10327 
31 1 0.672152 0.664957 10.1028 
32 1 2.17609 2.17443 8.60019 
33 1 1.47009 1.4642 9.30795 
16 1 4.49271 6.25834 4.55197 
17 1 2.99482 7.79664 2.98541 
18 1 3.68412 7.08688 3.70796 
25 1 0.669783 10.0967 0.676613 
26 1 2.18505 8.59546 2.17924 
27 1 1.46866 9.29714 1.47367 
4 1 4.59296 6.19503 6.18685 
5 1 3.07432 7.69031 7.69105 
6 1 3.79064 6.98827 6.98424 
37 1 0.747306 10.026 10.0356 
38 1 2.27152 8.49776 8.49798 
39 1 1.56518 9.20367 9.2076 
13 1 6.14388 4.58715 4.53379 
14 1 7.96783 2.88454 3.10494 
15 1 7.03501 3.65617 3.40523 
28 1 10.1133 0.642784 0.643289 
29 1 8.65544 2.14407 2.19457 
30 1 9.34816 1.43441 1.46191 
49 2 5.95126 4.45882 2.95574 
1 1 6.18359 4.61497 6.17919 
2 1 7.6816 3.08623 7.68966 
3 1 6.97763 3.80212 6.98382 
40 1 10.0385 0.732156 10.0123 
41 1 8.49559 2.2724 8.49427 
42 1 9.20796 1.5612 9.1942 
7 1 6.14931 6.24872 4.66464 
8 1 7.6734 7.67869 3.08733 
9 1 6.95762 7.01037 3.8259 
43 1 10.0391 10.008 0.743328 
44 1 8.49073 8.48626 2.27376 
45 1 9.20431 9.18745 1.5683 
22 1 6.22844 6.25811 6.27831 
23 1 7.79277 7.79323 7.78915 
24 1 7.07324 7.08677 7.09359 
34 1 10.1069 10.1012 10.1143 
35 1 8.6026 8.59915 8.59745 
36 1 9.30769 9.30425 9.31052 
ITEM: TIMESTEP
60
ITEM: NUMBER OF ATOMS
49
ITEM: BOX BOUNDS pp pp pp
0.0000000000000000e+00 1.1000000000000000e+01
0.0000000000000000e+00 1.1002000000000001e+01
0.0000000000000000e+00 1.1000000000000000e+01
ITEM: ATOMS id type x y z 
10 1 4.44901 4.64801 4.71039 
11 1 2.99359 3.10457 3.1654 
12 1 3.62962 3.8265 3.92297 
46 1 0.761159 0.727329 0.735579 
47 1 2.27726 2.26966 2.2808 
48 1 1.58207 1.55874 1.56691 
19 1 4.52951 4.544 6.30852 
20 1 2.97783 2.97883 7.79859 
21 1 3.6917 3.69917 7.11328 
31 1 0.664124 0.660849 10.1097 
32 1 2.17255 2.16863 8.60391 
33 1 1.46406 1.46079 9.31089 
16 1 4.48853 6.27417 4.56397 
17 1 2.99129 7.79637 2.9806 
18 1 3.68228 7.0962 3.71103 
25 1 0.659955 10.1011 0.674429 
26 1 2.1806 8.5978 2.17462 
27 1 1.46861 9.30495 1.47015 
4 1 4.59482 6.19009 6.19416 
5 1 3.0777 7.69254 7.69029 
6 1 3.7884 6.9841 6.98428 
37 1 0.742683 10.0227 10.0333 
38 1 2.27187 8.49634 8.49697 
39 1 1.56501 9.20262 9.20791 
13 1 6.11422 4.5734 4.50349 
14 1 7.98174 2.86135 3.12999 
15 1 7.04912 3.65287 3.35976 
28 1 10.1195 0.638252 0.634184 
29 1 8.68332 2.12981 2.21617 
30 1 9.36324 1.4261 1.46765 
49 2 5.98791 4.49636 2.92868 
1 1 6.17602 4.61258 6.16318 
2 1 7.67708 3.09428 7.68223 
3 1 6.97449 3.80529 6.9704 
40 1 10.0329 0.730732 10.0043 
41 1 8.49086 2.27714 8.48906 
42 1 9.20074 1.56564 9.189 
7 1 6.13471 6.24502 4.66457 
8 1 7.66682 7.68 3.09657 
9 1 6.95054 7.00907 3.83156 
43 1 10.0329 10.0032 0.742173 
44 1 8.48792 8.47976 2.277 
45 1 9.19935 9.18133 1.57021 
22 1 6.24235 6.2476 6.26944 
23 1 7.78876 7.79321 7.79046 
24 1 7.07642 7.08351 7.09257 
34 1 10.1042 10.1026 10.1149 
35 1 8.60323 8.59851 8.59691 
36 1 9.30746 9.30432 9.30983 
ITEM: TIMESTEP
70
ITEM: NUMBER OF ATOMS
49
ITEM: BOX BOUNDS pp pp pp
0.0000000000000000e+00 1.1000000000000000e+01
0.0000000000000000e+00 1.1002000000000001e+01
0.0000000000000000e+00 1.1000000000000000e+01
ITEM: ATOMS id type x y z 
10 1 4.44757 4.64888 4.71148 
11 1 2.98746 3.10512 3.17103 
12 1 3.62986 3.82722 3.92292 
46 1 0.763563 0.728081 0.734869 
47 1 2.27634 2.27047 2.28184 
48 1 1.57956 1.56055 1.57017 
19 1 4.53121 4.54474 6.3092 
20 1 2.97787 2.97914 7.79992 
21 1 3.69363 3.69906 7.11493 
31 1 0.662773 0.661105 10.111 
32 1 2.17159 2.1674 8.60396 
33 1 1.46306 1.46041 9.31138 
16 1 4.48676 6.27691 4.56949 
17 1 2.99189 7.79632 2.98095 
18 1 3.68021 7.09692 3.712 
25 1 0.659666 10.1038 0.675549 
26 1 2.18142 8.60004 2.17314 
27 1 1.46553 9.30335 1.46916 
4 1 4.59681 6.18954 6.1965 
5 1 3.07608 7.69284 7.68977 
6 1 3.79163 6.98548 6.988 
37 1 0.740881 10.0234 10.0343 
38 1 2.27058 8.49777 8.49841 
39 1 1.56365 9.20292 9.2083 
13 1 6.11287 4.57323 4.49637 
14 1 7.98309 2.85677 3.13341 
15 1 7.05278 3.65341 3.35267 
28 1 10.1223 0.63796 0.631935 
29 1 8.69333 2.12348 2.22683 
30 1 9.36759 1.42149 1.47165 
49 2 5.99789 4.50708 2.9225 
1 1 6.17597 4.61044 6.1563 
2 1 7.67648 3.09594 7.67979 
3 1 6.97441 3.80511 6.9658 
40 1 10.0312 0.731099 10.0036 
41 1 8.48977 2.27821 8.48852 
42 1 9.1994 1.56653 9.18675 
7 1 6.13145 6.24256 4.66098 
8 1 7.66559 7.68134 3.09983 
9 1 6.94758 7.00815 3.8309 
43 1 10.0317 10.0031 0.741249 
44 1 8.48751 8.47857 2.27748 
45 1 9.19879 9.18114 1.56987 
22 1 6.24516 6.24373 6.26724 
23 1 7.78646 7.79202 7.79005 
24 1 7.07767 7.08057 7.0905 
34 1 10.1032 10.103 10.1148 
35 1 8.6029 8.59783 8.5956 
36 1 9.30529 9.30371 9.31004 
ITEM: TIMESTEP
80
ITEM: NUMBER OF ATOMS
49
ITEM: BOX BOUNDS pp pp pp
0.0000000000000000e+00 1.1000000000000000e+01
0.0000000000000000e+00 1.1002000000000001e+01
0.0000000000000000e+00 1.1000000000000000e+01
ITEM: ATOMS id type x y z 
10 1 4.44202 4.65291 4.71386 
11 1 2.95964 3.11094 3.19837 
12 1 3.63366 3.83256 3.92395 
46 1 0.766695 0.732744 0.735675 
47 1 2.26367 2.27829 2.29784 
48 1 1.57979 1.5654 1.57499 
19 1 4.53987 4.54416 6.31314 
20 1 2.98388 2.98234 7.80635 
21 1 3.69896 3.7001 7.12047 
31 1 0.654093 0.663989 10.1123 
32 1 2.16967 2.1641 8.60208 
33 1 1.45914 1.46037 9.31042 
16 1 4.47285 6.28848 4.59287 
17 1 2.99099 7.79772 2.98003 
18 1 3.67475 7.10269 3.72117 
25 1 0.649115 10.1079 0.677163 
26 1 2.18273 8.59879 2.16765 
27 1 1.46464 9.30638 1.47051 
4 1 4.61151 6.18981 6.21381 
5 1 3.07424 7.69903 7.69136 
6 1 3.79734 6.98618 7.00322 
37 1 0.73058 10.0262 10.0368 
38 1 2.26524 8.50091 8.50101 
39 1 1.5589 9.20563 9.21271 
13 1 6.10538 4.57804 4.46023 
14 1 7.98906 2.83809 3.14576 
15 1 7.0702 3.657 3.3189 
28 1 10.1292 0.636189 0.619904 
29 1 8.73904 2.08288 2.28806 
30 1 9.39446 1.40525 1.49598 
49 2 6.0476 4.55377 2.89374 
1 1 6.17467 4.59479 6.12121 
2 1 7.67648 3.10135 7.66636 
3 1 6.97373 3.80213 6.9455 
40 1 10.0243 0.732828 9.99923 
41 1 8.48445 2.28468 8.48346 
42 1 9.19246 1.57018 9.17987 
7 1 6.11396 6.23344 4.64651 
8 1 7.65974 7.68901 3.11006 
9 1 6.93745 7.00866 3.82939 
43 1 10.0253 10.002 0.738116 
44 1 8.4858 8.47575 2.27967 
45 1 9.19498 9.17673 1.57051 
22 1 6.25926 6.22563 6.25239 
23 1 7.77855 7.786 7.78707 
24 1 7.0823 7.06705 7.083 
34 1 10.0923 10.104 10.1131 
35 1 8.598 8.59273 8.5918 
36 1 9.29739 9.30221 9.3054 
ITEM: TIMESTEP
90
ITEM: NUMBER OF ATOMS
49
ITEM: BOX BOUNDS pp pp pp
0.0000000000000000e+00 1.1000000000000000e+01
0.0000000000000000e+00 1.1002000000000001e+01
0.0000000000000000e+00 1.1000000000000000e+01
ITEM: ATOMS id type x y z 
10 1 4.4431 4.65472 4.71182 
11 1 2.95773 3.11146 3.19916 
12 1 3.63419 3.83301 3.92246 
46 1 0.76645 0.731074 0.733636 
47 1 2.2595 2.27797 2.30038 
48 1 1.57917 1.56555 1.57461 
19 1 4.54023 4.54325 6.31191 
20 1 2.98472 2.98273 7.80711 
21 1 3.70048 3.70015 7.12087 
31 1 0.65412 0.664466 10.1111 
32 1 2.17021 2.16478 8.60131 
33 1 1.45948 1.46094 9.30951 
16 1 4.47123 6.28852 4.59403 
17 1 2.99225 7.79773 2.98071 
18 1 3.67307 7.10241 3.72383 
25 1 0.649754 10.1072 0.678327 
26 1 2.18251 8.59958 2.16696 
27 1 1.46373 9.30588 1.46941 
4 1 4.61246 6.18886 6.21864 
5 1 3.07535 7.69773 7.69461 
6 1 3.79755 6.98932 7.00098 
37 1 0.730119 10.0267 10.0377 
38 1 2.26506 8.50198 8.50243 
39 1 1.55601 9.20626 9.21171 
13 1 6.10311 4.58045 4.45829 
14 1 7.98894 2.83806 3.14573 
15 1 7.07116 3.65828 3.3181 
28 1 10.1285 0.638963 0.619959 
29 1 8.74383 2.07807 2.29572 
30 1 9.39748 1.39834 1.50391 
49 2 6.0498 4.55515 2.89039 
1 1 6.17521 4.5923 6.11962 
2 1 7.67701 3.10153 7.66527 
3 1 6.97412 3.79924 6.94131 
40 1 10.0236 0.732845 9.99774 
41 1 8.48433 2.28497 8.48306 
42 1 9.19264 1.57071 9.18011 
7 1 6.11302 6.23713 4.64687 
8 1 7.6596 7.68985 3.10971 
9 1 6.93583 7.01038 3.8284 
43 1 10.0256 10.0013 0.737089 
44 1 8.48674 8.47663 2.27965 
45 1 9.19502 9.1783 1.5697 
22 1 6.26069 6.22419 6.25187 
23 1 7.77953 7.78394 7.78682 
24 1 7.08165 7.0675 7.08164 
34 1 10.0911 10.1043 10.1129 
35 1 8.59622 8.59223 8.59144 
36 1 9.29683 9.30106 9.30446 
ITEM: TIMESTEP
100
ITEM: NUMBER OF ATOMS
49
ITEM: BOX BOUNDS pp pp pp
0.0000000000000000e+00 1.1000000000000000e+01
0.0000000000000000e+00 1.1002000000000001e+01
0.0000000000000000e+00 1.1000000000000000e+01
ITEM: ATOMS id type x y z 
10 1 4.4431 4.65478 4.71177 
11 1 2.95761 3.11147 3.19921 
12 1 3.63418 3.83301 3.92231 
46 1 0.766507 0.731049 0.733485 
47 1 2.25935 2.27796 2.30046 
48 1 1.57889 1.56545 1.57461 
19 1 4.54037 4.54328 6.31191 
20 1 2.98487 2.98278 7.80723 
21 1 3.70046 3.70017 7.12068 
31 1 0.654161 0.664417 10.1111 
32 1 2.17031 2.16471 8.60134 
33 1 1.45929 1.46111 9.30941 
16 1 4.47107 6.28846 4.59426 
17 1 2.99211 7.79765 2.98078 
18 1 3.67322 7.10263 3.72382 
25 1 0.649729 10.1071 0.678437 
26 1 2.18236 8.59948 2.16697 
27 1 1.46402 9.3061 1.4693 
4 1 4.61255 6.18896 6.21867 
5 1 3.07544 7.6979 7.69459 
6 1 3.79751 6.98906 7.00127 
37 1 0.73005 10.0267 10.0377 
38 1 2.26499 8.50202 8.50251 
39 1 1.55595 9.20632 9.21166 
13 1 6.10304 4.58051 4.45815 
14 1 7.98892 2.83799 3.14577 
15 1 7.07119 3.65838 3.31804 
28 1 10.1284 0.638974 0.61993 
29 1 8.74403 2.07773 2.29614 
30 1 9.39792 1.39816 1.50433 
49 2 6.04992 4.55526 2.89022 
1 1 6.17525 4.59216 6.11937 
2 1 7.67707 3.10144 7.665 
3 1 6.97404 3.79929 6.94143 
40 1 10.0236 0.732813 9.99776 
41 1 8.4843 2.28501 8.48303 
42 1 9.19273 1.57065 9.18015 
7 1 6.11282 6.23733 4.64678 
8 1 7.65946 7.68994 3.10955 
9 1 6.936 7.01046 3.82859 
43 1 10.0256 10.0014 0.737002 
44 1 8.48677 8.47664 2.27967 
45 1 9.19495 9.17834 1.56971 
22 1 6.26067 6.22415 6.25184 
23 1 7.7795 7.78389 7.78676 
24 1 7.0817 7.06731 7.08158 
34 1 10.091 10.1044 10.1128 
35 1 8.59617 8.59224 8.59142 
36 1 9.29681 9.30102 9.30449 
ITEM: TIMESTEP
110
ITEM: NUMBER OF ATOMS
49
ITEM: BOX BOUNDS pp pp pp
0.0000000000000000e+00 1.1000000000000000e+01
0.0000000000000000e+00 1.1002000000000001e+01
0.0000000000000000e+00 1.1000000000000000e+01
ITEM: ATOMS id type x y z 
10 1 4.44311 4.65479 4.71176 
11 1 2.9576 3.11147 3.19922 
12 1 3.63418 3.83301 3.92229 
46 1 0.766517 0.731048 0.733467 
47 1 2.25933 2.27796 2.30047 
48 1 1.57886 1.56545 1.57462 
19 1 4.54039 4.54328 6.31191 
20 1 2.98489 2.98279 7.80725 
21 1 3.70046 3.70017 7.12065 
31 1 0.654163 0.664422 10.1111 
32 1 2.17032 2.16471 8.60134 
33 1 1.45928 1.46111 9.30939 
16 1 4.47106 6.28847 4.59428 
17 1 2.99211 7.79765 2.98078 
18 1 3.67321 7.10264 3.72383 
25 1 0.64974 10.1071 0.678449 
26 1 2.18236 8.59948 2.16697 
27 1 1.46403 9.3061 1.46929 
4 1 4.61256 6.18895 6.2187 
5 1 3.07544 7.6979 7.6946 
6 1 3.79752 6.98906 7.00128 
37 1 0.730043 10.0267 10.0377 
38 1 2.26499 8.50203 8.50252 
39 1 1.55593 9.20633 9.21166 
13 1 6.10303 4.58052 4.45813 
14 1 7.98892 2.83799 3.14577 
15 1 7.0712 3.65839 3.31803 
28 1 10.1284 0.638984 0.619927 
29 1 8.74407 2.07769 2.2962 
30 1 9.39796 1.39811 1.5044 
49 2 6.04994 4.55528 2.89019 
1 1 6.17525 4.59214 6.11934 
2 1 7.67708 3.10144 7.66498 
3 1 6.97403 3.79928 6.94142 
40 1 10.0236 0.732812 9.99776 
41 1 8.4843 2.28501 8.48303 
42 1 9.19274 1.57065 9.18015 
7 1 6.11281 6.23735 4.64677 
8 1 7.65946 7.68995 3.10954 
9 1 6.936 7.01048 3.8286 
43 1 10.0256 10.0014 0.73699 
44 1 8.48678 8.47665 2.27967 
45 1 9.19495 9.17835 1.5697 
22 1 6.26067 6.22414 6.25184 
23 1 7.7795 7.78388 7.78675 
24 1 7.08171 7.06729 7.08157 
34 1 10.091 10.1044 10.1128 
35 1 8.59616 8.59224 8.59141 
36 1 9.29681 9.30101 9.3045 
ITEM: TIMESTEP
120
ITEM: NUMBER OF ATOMS
49
ITEM: BOX BOUNDS pp pp pp
0.0000000000000000e+00 1.1000000000000000e+01
0.0000000000000000e+00 1.1002000000000001e+01
0.0000000000000000e+00 1.1000000000000000e+01
ITEM: ATOMS id type x y z 
10 1 4.44282 4.65868 4.70307 
11 1 2.94598 3.11271 3.20264 
12 1 3.63602 3.8354 3.91166 
46 1 0.769806 0.729673 0.726085 
47 1 2.24148 2.27789 2.31107 
48 1 1.56652 1.5648 1.57933 
19 1 4.54749 4.54114 6.30729 
20 1 2.99491 2.98638 7.81302 
21 1 3.70207 3.70068 7.1151 
31 1 0.651257 0.666202 10.1033 
32 1 2.17326 2.16708 8.59913 
33 1 1.45926 1.46421 9.3049 
16 1 4.4628 6.2932 4.60794 
17 1 2.98997 7.79905 2.98339 
18 1 3.66796 7.10633 3.73159 
25 1 0.652613 10.1048 0.679656 
26 1 2.18392 8.59839 2.16543 
27 1 1.46596 9.3062 1.46771 
4 1 4.61616 6.1873 6.23134 
5 1 3.07866 7.70094 7.70324 
6 1 3.80035 6.99032 7.01133 
37 1 0.724403 10.0273 10.0349 
38 1 2.26218 8.50455 8.50401 
39 1 1.55103 9.2086 9.21174 
13 1 6.09677 4.59066 4.44248 
14 1 7.98593 2.83191 3.14727 
15 1 7.07759 3.66384 3.31163 
28 1 10.1292 0.636686 0.62359 
29 1 8.77467 2.04845 2.34855 
30 1 9.41153 1.38336 1.53124 
49 2 6.0621 4.5651 2.87558 
1 1 6.17622 4.58242 6.10434 
2 1 7.68032 3.09706 7.65472 
3 1 6.97702 3.79113 6.92713 
40 1 10.0208 0.733686 9.99835 
41 1 8.48533 2.28652 8.48136 
42 1 9.19217 1.57187 9.17945 
7 1 6.10407 6.25099 4.64495 
8 1 7.65725 7.69552 3.10645 
9 1 6.92993 7.0208 3.82635 
43 1 10.0232 10.0034 0.732786 
44 1 8.48785 8.48074 2.28101 
45 1 9.19431 9.18089 1.56829 
22 1 6.264 6.21767 6.24853 
23 1 7.78122 7.77692 7.78348 
24 1 7.08446 7.06003 7.07809 
34 1 10.0851 10.107 10.1069 
35 1 8.59045 8.58935 8.59063 
36 1 9.29163 9.30021 9.30095 
ITEM: TIMESTEP
130
ITEM: NUMBER OF ATOMS
49
ITEM: BOX BOUNDS pp pp pp
0.0000000000000000e+00 1.1000000000000000e+01
0.0000000000000000e+00 1.1002000000000001e+01
0.0000000000000000e+00 1.1000000000000000e+01
ITEM: ATOMS id type x y z 
10 1 4.44223 4.65817 4.70255 
11 1 2.94557 3.11327 3.20294 
12 1 3.63656 3.83586 3.9114 
46 1 0.769446 0.729246 0.725685 
47 1 2.24015 2.27769 2.31138 
48 1 1.56562 1.56501 1.58024 
19 1 4.54607 4.54023 6.30509 
20 1 2.99375 2.98631 7.81141 
21 1 3.70547 3.70119 7.11812 
31 1 0.651307 0.666983 10.1032 
32 1 2.17329 2.1674 8.59919 
33 1 1.45959 1.46394 9.30472 
16 1 4.46189 6.29433 4.60823 
17 1 2.98966 7.79937 2.98384 
18 1 3.66774 7.10622 3.73185 
25 1 0.651749 10.1057 0.678922 
26 1 2.18415 8.59863 2.16512 
27 1 1.46567 9.30583 1.46776 
4 1 4.61631 6.1871 6.23216 
5 1 3.07899 7.7009 7.70331 
6 1 3.80132 6.98975 7.01241 
37 1 0.724121 10.0275 10.0351 
38 1 2.26235 8.50441 8.50381 
39 1 1.55113 9.20843 9.21136 
13 1 6.097 4.59201 4.44112 
14 1 7.9858 2.83153 3.14793 
15 1 7.07738 3.66402 3.31081 
28 1 10.1284 0.637147 0.62328 
29 1 8.77597 2.04738 2.35046 
30 1 9.41467 1.38114 1.53566 
49 2 6.06316 4.56539 2.87506 
1 1 6.17697 4.58168 6.10234 
2 1 7.68062 3.09623 7.65262 
3 1 6.97654 3.792 6.92795 
40 1 10.0205 0.734404 9.99877 
41 1 8.48507 2.2869 8.4806 
42 1 9.19177 1.57235 9.1794 
7 1 6.10383 6.25103 4.64509 
8 1 7.65655 7.69609 3.10677 
9 1 6.92957 7.02078 3.82638 
43 1 10.0238 10.0032 0.732655 
44 1 8.48788 8.48097 2.28067 
45 1 9.19462 9.18156 1.56822 
22 1 6.26433 6.21691 6.24797 
23 1 7.78145 7.77633 7.78329 
24 1 7.08421 7.05931 7.07764 
34 1 10.0844 10.1065 10.1068 
35 1 8.5905 8.58913 8.5904 
36 1 9.29087 9.30053 9.30127 
ITEM: TIMESTEP
140
ITEM: NUMBER OF ATOMS
49
ITEM: BOX BOUNDS pp pp pp
0.0000000000000000e+00 1.1000000000000000e+01
0.0000000000000000e+00 1.1002000000000001e+01
0.0000000000000000e+00 1.1000000000000000e+01
ITEM: ATOMS id type x y z 
10 1 4.44201 4.65833 4.70215 
11 1 2.94527 3.1135 3.20306 
12 1 3.63676 3.83603 3.91109 
46 1 0.769383 0.729273 0.725549 
47 1 2.23965 2.27784 2.31186 
48 1 1.56508 1.56512 1.58069 
19 1 4.54549 4.53997 6.30436 
20 1 2.99326 2.98659 7.8109 
21 1 3.70702 3.70082 7.11922 
31 1 0.651044 0.667143 10.103 
32 1 2.17347 2.16754 8.59925 
33 1 1.45952 1.46394 9.3044 
16 1 4.46162 6.29465 4.60851 
17 1 2.9897 7.79927 2.98418 
18 1 3.66756 7.10636 3.73221 
25 1 0.651763 10.1058 0.678467 
26 1 2.18431 8.59875 2.16497 
27 1 1.46546 9.30561 1.46775 
4 1 4.61638 6.18696 6.23247 
5 1 3.07941 7.70078 7.70365 
6 1 3.80145 6.98961 7.01249 
37 1 0.723811 10.0276 10.035 
38 1 2.26225 8.50445 8.50373 
39 1 1.55122 9.20844 9.21142 
13 1 6.09701 4.59273 4.44048 
14 1 7.98584 2.83123 3.14822 
15 1 7.07741 3.664 3.3104 
28 1 10.1284 0.637169 0.623649 
29 1 8.77735 2.0462 2.35261 
30 1 9.41512 1.38103 1.5363 
49 2 6.06362 4.5657 2.87461 
1 1 6.17705 4.58166 6.102 
2 1 7.68046 3.09634 7.65245 
3 1 6.97691 3.79136 6.92655 
40 1 10.0203 0.73465 9.99909 
41 1 8.48514 2.28689 8.48043 
42 1 9.19173 1.57245 9.17942 
7 1 6.10321 6.25125 4.64488 
8 1 7.65607 7.69663 3.1069 
9 1 6.92966 7.02051 3.82634 
43 1 10.0239 10.0031 0.732622 
44 1 8.48769 8.48107 2.28071 
45 1 9.19468 9.18151 1.56827 
22 1 6.2645 6.21647 6.24785 
23 1 7.78161 7.77597 7.78323 
24 1 7.08434 7.05921 7.07757 
34 1 10.0841 10.1068 10.1066 
35 1 8.59037 8.58907 8.59034 
36 1 9.29064 9.30052 9.30122 
ITEM: TIMESTEP
150
ITEM: NUMBER OF ATOMS
49
ITEM: BOX BOUNDS pp pp pp
0.0000000000000000e+00 1.1000000000000000e+01
0.0000000000000000e+00 1.1002000000000001e+01
0.0000000000000000e+00 1.1000000000000000e+01
ITEM: ATOMS id type x y z 
10 1 4.44201 4.65833 4.70214 
11 1 2.94526 3.1135 3.20306 
12 1 3.63676 3.83603 3.91108 
46 1 0.76938 0.729274 0.725545 
47 1 2.23964 2.27785 2.31187 
48 1 1.56506 1.56512 1.58069 
19 1 4.5455 4.53996 6.30436 
20 1 2.99327 2.9866 7.81091 
21 1 3.70702 3.70081 7.1192 
31 1 0.651033 0.667149 10.1029 
32 1 2.17347 2.16754 8.59925 
33 1 1.45953 1.46394 9.3044 
16 1 4.46162 6.29466 4.60852 
17 1 2.98969 7.79928 2.98418 
18 1 3.66755 7.10637 3.73222 
25 1 0.651756 10.1058 0.678464 
26 1 2.1843 8.59875 2.16498 
27 1 1.46547 9.30562 1.46774 
4 1 4.61638 6.18695 6.23247 
5 1 3.07942 7.70078 7.70365 
6 1 3.80146 6.9896 7.01251 
37 1 0.723805 10.0277 10.035 
38 1 2.26225 8.50445 8.50373 
39 1 1.55122 9.20844 9.21142 
13 1 6.09701 4.59274 4.44046 
14 1 7.98583 2.83122 3.14822 
15 1 7.07741 3.664 3.31039 
28 1 10.1284 0.637183 0.623635 
29 1 8.77736 2.04619 2.35263 
30 1 9.41517 1.381 1.53637 
49 2 6.06363 4.56571 2.8746 
1 1 6.17706 4.58164 6.10197 
2 1 7.68047 3.09632 7.65242 
3 1 6.9769 3.79138 6.92657 
40 1 10.0203 0.734656 9.9991 
41 1 8.48514 2.28689 8.48043 
42 1 9.19173 1.57246 9.17941 
7 1 6.1032 6.25125 4.64488 
8 1 7.65606 7.69664 3.1069 
9 1 6.92966 7.02051 3.82634 
43 1 10.0239 10.0031 0.732624 
44 1 8.4877 8.48107 2.28071 
45 1 9.19466 9.18152 1.56827 
22 1 6.2645 6.21646 6.24785 
23 1 7.78161 7.77596 7.78323 
24 1 7.08434 7.05921 7.07756 
34 1 10.0841 10.1068 10.1066 
35 1 8.59036 8.58904 8.59036 
36 1 9.29064 9.30057 9.30117 
ITEM: TIMESTEP
151
ITEM: NUMBER OF ATOMS
49
ITEM: BOX BOUNDS pp pp pp
0.0000000000000000e+00 1.1000000000000000e+01
0.0000000000000000e+00 1.1002000000000001e+01
0.0000000000000000e+00 1.1000000000000000e+01
ITEM: ATOMS id type x y z 
10 1 4.44201 4.65833 4.70214 
11 1 2.94526 3.1135 3.20306 
12 1 3.63676 3.83603 3.91108 
46 1 0.76938 0.729274 0.725545 
47 1 2.23964 2.27785 2.31187 
48 1 1.56506 1.56512 1.58069 
19 1 4.5455 4.53996 6.30436 
20 1 2.99327 2.9866 7.81091 
21 1 3.70702 3.70081 7.1192 
31 1 0.651033 0.667149 10.1029 
32 1 2.17347 2.16754 8.59925 
33 1 1.45953 1.46394 9.3044 
16 1 4.46162 6.29466 4.60852 
17 1 2.98969 7.79928 2.98418 
18 1 3.66755 7.10637 3.73222 
25 1 0.651756 10.1058 0.678464 
26 1 2.1843 8.59875 2.16498 
27 1 1.46547 9.30562 1.46774 
4 1 4.61638 6.18695 6.23247 
5 1 3.07942 7.70078 7.70365 
6 1 3.80146 6.9896 7.01251 
37 1 0.723805 10.0277 10.035 
38 1 2.26225 8.50445 8.50373 
39 1 1.55122 9.20844 9.21142 
13 1 6.09701 4.59274 4.44046 
14 1 7.98583 2.83122 3.14822 
15 1 7.07741 3.664 3.31039 
28 1 10.1284 0.637183 0.623635 
29 1 8.77736 2.04619 2.35263 
30 1 9.41517 1.381 1.53637 
49 2 6.06363 4.56571 2.8746 
1 1 6.17706 4.58164 6.10197 
2 1 7.68047 3.09632 7.65242 
3 1 6.9769 3.79139 6.92657 
40 1 10.0203 0.734656 9.9991 
41 1 8.48514 2.28689 8.48043 
42 1 9.19173 1.57246 9.17941 
7 1 6.1032 6.25125 4.64488 
8 1 7.65606 7.69664 3.1069 
9 1 6.92966 7.02051 3.82634 
43 1 10.0239 10.0031 0.732624 
44 1 8.4877 8.48107 2.28071 
45 1 9.19466 9.18152 1.56827 
22 1 6.2645 6.21645 6.24785 
23 1 7.78161 7.77596 7.78323 
24 1 7.08434 7.05921 7.07756 
34 1 10.0841 10.1068 10.1066 
35 1 8.59036 8.58904 8.59036 
36 1 9.29064 9.30057 9.30117 
ITEM: TIMESTEP
153
ITEM: NUMBER OF ATOMS
49
ITEM: BOX BOUNDS pp pp pp
0.0000000000000000e+00 1.1000000000000000e+01
0.0000000000000000e+00 1.1002000000000001e+01
0.0000000000000000e+00 1.1000000000000000e+01
ITEM: ATOMS id type x y z 
10 1 4.44201 4.65833 4.70214 
11 1 2.94526 3.1135 3.20306 
12 1 3.63676 3.83603 3.91108 
46 1 0.76938 0.729274 0.725545 
47 1 2.23964 2.27785 2.31187 
48 1 1.56506 1.56512 1.5807 
19 1 4.5455 4.53996 6.30436 
20 1 2.99327 2.9866 7.81091 
21 1 3.70702 3.70081 7.1192 
31 1 0.651034 0.667148 10.1029 
32 1 2.17347 2.16754 8.59925 
33 1 1.45953 1.46394 9.3044 
16 1 4.46162 6.29466 4.60852 
17 1 2.98969 7.79928 2.98417 
18 1 3.66755 7.10637 3.73222 
25 1 0.651757 10.1058 0.678463 
26 1 2.1843 8.59875 2.16497 
27 1 1.46547 9.30562 1.46774 
4 1 4.61638 6.18695 6.23248 
5 1 3.07942 7.70078 7.70365 
6 1 3.80146 6.9896 7.01251 
37 1 0.723805 10.0277 10.035 
38 1 2.26225 8.50446 8.50373 
39 1 1.55122 9.20844 9.21142 
13 1 6.09701 4.59274 4.44046 
14 1 7.98583 2.83122 3.14822 
15 1 7.07741 3.664 3.31039 
28 1 10.1284 0.637183 0.623635 
29 1 8.77736 2.04619 2.35264 
30 1 9.41517 1.381 1.53637 
49 2 6.06363 4.56571 2.8746 
1 1 6.17706 4.58164 6.10197 
2 1 7.68047 3.09632 7.65242 
3 1 6.9769 3.79139 6.92657 
40 1 10.0203 0.734656 9.9991 
41 1 8.48514 2.28689 8.48043 
42 1 9.19173 1.57246 9.17941 
7 1 6.1032 6.25125 4.64488 
8 1 7.65606 7.69664 3.1069 
9 1 6.92966 7.02051 3.82634 
43 1 10.0239 10.0031 0.732624 
44 1 8.4877 8.48107 2.28071 
45 1 9.19466 9.18152 1.56827 
22 1 6.2645 6.21645 6.24785 
23 1 7.78161 7.77596 7.78323 