ITEM: TIMESTEP
0
ITEM: NUMBER OF ATOMS
49
ITEM: BOX BOUNDS pp pp pp
0.0000000000000000e+00 1.1000000000000000e+01
0.0000000000000000e+00 1.1002000000000001e+01
0.0000000000000000e+00 1.1000000000000000e+01
ITEM: ATOMS id type x y z 
10 1 4.603 4.603 4.603 
11 1 3.085 3.085 3.085 
12 1 3.796 3.796 3.796 
46 1 0.726 0.725 0.725 
47 1 2.26 2.259 2.26 
48 1 1.551 1.55 1.55 
19 1 4.546 4.545 6.226 
20 1 3.013 3.013 7.764 
21 1 3.721 3.721 7.053 
31 1 0.668 0.667 10.103 
32 1 2.187 2.187 8.589 
33 1 1.476 1.475 9.298 
16 1 4.546 6.225 4.546 
17 1 3.013 7.765 3.013 
18 1 3.721 7.053 3.722 
25 1 0.668 10.103 0.668 
26 1 2.188 8.589 2.188 
27 1 1.476 9.298 1.476 
4 1 4.608 6.169 6.169 
5 1 3.086 7.684 7.684 
6 1 3.799 6.974 6.974 
37 1 0.729 10.046 10.046 
38 1 2.259 8.509 8.508 
39 1 1.552 9.219 9.219 
13 1 6.225 4.546 4.546 
14 1 7.764 3.013 3.013 
15 1 7.053 3.721 3.722 
28 1 10.102 0.667 0.668 
29 1 8.589 2.187 2.188 
30 1 9.298 1.475 1.476 
1 1 6.168 4.608 6.169 
2 1 7.684 3.086 7.684 
3 1 6.974 3.799 6.974 
40 1 10.045 0.728 10.046 
41 1 8.508 2.259 8.508 
42 1 9.218 1.551 9.218 
7 1 6.169 6.169 4.608 
8 1 7.684 7.684 3.086 
9 1 6.974 6.974 3.799 
43 1 10.046 10.047 0.729 
44 1 8.508 8.509 2.259 
45 1 9.219 9.219 1.552 
22 1 6.229 6.229 6.229 
23 1 7.764 7.765 7.765 
24 1 7.055 7.056 7.055 
34 1 10.108 10.108 10.107 
35 1 8.59 8.59 8.59 
36 1 9.301 9.301 9.3 
49 2 8.079 8.024 9.708 
ITEM: TIMESTEP
10
ITEM: NUMBER OF ATOMS
49
ITEM: BOX BOUNDS pp pp pp
0.0000000000000000e+00 1.1000000000000000e+01
0.0000000000000000e+00 1.1002000000000001e+01
0.0000000000000000e+00 1.1000000000000000e+01
ITEM: ATOMS id type x y z 
10 1 4.60354 4.60357 4.60355 
11 1 3.08545 3.08543 3.08574 
12 1 3.79669 3.79662 3.79616 
46 1 0.726103 0.725219 0.725322 
47 1 2.26058 2.25992 2.26047 
48 1 1.55175 1.55023 1.55088 
19 1 4.54535 4.54466 6.22623 
20 1 3.01248 3.01258 7.76428 
21 1 3.7207 3.72045 7.05368 
31 1 0.667523 0.666299 10.1034 
32 1 2.18668 2.18698 8.58956 
33 1 1.47554 1.47399 9.29792 
16 1 4.54523 6.22531 4.54525 
17 1 3.01278 7.76481 3.0127 
18 1 3.721 7.05356 3.72215 
25 1 0.666114 10.1032 0.667074 
26 1 2.18748 8.58994 2.18736 
27 1 1.47507 9.29808 1.47535 
4 1 4.60692 6.16849 6.16823 
5 1 3.08549 7.68344 7.68334 
6 1 3.8008 6.97428 6.97437 
37 1 0.72963 10.0477 10.0461 
38 1 2.2587 8.5089 8.50837 
39 1 1.55261 9.21941 9.21866 
13 1 6.22535 4.54532 4.5453 
14 1 7.76422 3.01249 3.01271 
15 1 7.05342 3.72102 3.72174 
28 1 10.1023 0.665175 0.667393 
29 1 8.58974 2.18683 2.18737 
30 1 9.29778 1.47399 1.47577 
1 1 6.1679 4.60699 6.16849 
2 1 7.68348 3.08588 7.68332 
3 1 6.9738 3.80023 6.9742 
40 1 10.0464 0.728743 10.0454 
41 1 8.50825 2.25819 8.50844 
42 1 9.21804 1.55248 9.21763 
7 1 6.1683 6.16823 4.60692 
8 1 7.68341 7.68346 3.08539 
9 1 6.97441 6.97441 3.8007 
43 1 10.0471 10.0476 0.729324 
44 1 8.50883 8.5095 2.25807 
45 1 9.21912 9.21962 1.55223 
22 1 6.22879 6.22822 6.22825 
23 1 7.74113 7.74269 7.7383 
24 1 7.0517 7.05456 7.05246 
34 1 10.1054 10.106 10.1 
35 1 8.62241 8.62175 8.54782 
36 1 9.31013 9.31022 9.33535 
49 2 8.06536 8.00836 9.75523 
ITEM: TIMESTEP
20
ITEM: NUMBER OF ATOMS
49
ITEM: BOX BOUNDS pp pp pp
0.0000000000000000e+00 1.1000000000000000e+01
0.0000000000000000e+00 1.1002000000000001e+01
0.0000000000000000e+00 1.1000000000000000e+01
ITEM: ATOMS id type x y z 
10 1 4.60338 4.60272 4.60256 
11 1 3.08733 3.08685 3.08505 
12 1 3.79609 3.79603 3.80072 
46 1 0.728413 0.726821 0.727965 
47 1 2.26263 2.26069 2.26061 
48 1 1.55116 1.5529 1.55356 
19 1 4.54266 4.54176 6.22747 
20 1 3.01071 3.01057 7.76652 
21 1 3.71794 3.71741 7.05498 
31 1 0.671066 0.668948 10.1062 
32 1 2.18651 2.18563 8.58935 
33 1 1.47428 1.47552 9.29972 
16 1 4.54162 6.22748 4.54159 
17 1 3.00943 7.76888 3.00945 
18 1 3.71762 7.0547 3.71799 
25 1 0.665426 10.1053 0.670405 
26 1 2.18608 8.59098 2.18591 
27 1 1.47346 9.29978 1.4748 
4 1 4.59982 6.16495 6.16586 
5 1 3.08854 7.68605 7.68498 
6 1 3.79265 6.97034 6.97256 
37 1 0.729187 10.0487 10.0414 
38 1 2.25992 8.50864 8.50883 
39 1 1.55591 9.21633 9.2137 
13 1 6.22764 4.54233 4.54227 
14 1 7.76802 3.00977 3.01057 
15 1 7.05429 3.71683 3.71709 
28 1 10.1049 0.663792 0.671196 
29 1 8.59098 2.18506 2.18651 
30 1 9.29899 1.47354 1.47331 
1 1 6.16384 4.5993 6.16502 
2 1 7.68561 3.08843 7.68473 
3 1 6.97017 3.79265 6.97248 
40 1 10.0474 0.727659 10.041 
41 1 8.50713 2.2601 8.50838 
42 1 9.21664 1.55526 9.2136 
7 1 6.16608 6.16519 4.5992 
8 1 7.68566 7.68584 3.08699 
9 1 6.9727 6.97265 3.79306 
43 1 10.0481 10.049 0.728639 
44 1 8.50919 8.50976 2.25778 
45 1 9.21724 9.21772 1.55576 
22 1 6.20519 6.20701 6.20593 
23 1 7.74265 7.74397 7.73829 
24 1 7.05146 7.05018 7.0539 
34 1 10.1279 10.1313 10.1097 
35 1 8.65109 8.65421 8.51532 
36 1 9.26886 9.26378 9.42094 
49 2 8.09739 8.04173 9.7502 
ITEM: TIMESTEP
30
ITEM: NUMBER OF ATOMS
49
ITEM: BOX BOUNDS pp pp pp
0.0000000000000000e+00 1.1000000000000000e+01
0.0000000000000000e+00 1.1002000000000001e+01
0.0000000000000000e+00 1.1000000000000000e+01
ITEM: ATOMS id type x y z 
10 1 4.60275 4.60341 4.60264 
11 1 3.08654 3.08597 3.08716 
12 1 3.79778 3.79752 3.79711 
46 1 0.728023 0.72789 0.728869 
47 1 2.26277 2.2626 2.26244 
48 1 1.5535 1.55234 1.55272 
19 1 4.53643 4.5356 6.22749 
20 1 3.00945 3.00905 7.76728 
21 1 3.71695 3.71673 7.05621 
31 1 0.673167 0.672133 10.1078 
32 1 2.18497 2.18592 8.58835 
33 1 1.47685 1.47474 9.30269 
16 1 4.53653 6.22678 4.53636 
17 1 3.01048 7.76693 3.01092 
18 1 3.71686 7.0564 3.71628 
25 1 0.667501 10.1058 0.672395 
26 1 2.18554 8.58967 2.18455 
27 1 1.47333 9.30353 1.47661 
4 1 4.58698 6.16486 6.16404 
5 1 3.08743 7.68291 7.68356 
6 1 3.79689 6.97247 6.97198 
37 1 0.731498 10.0467 10.0386 
38 1 2.26277 8.5057 8.50602 
39 1 1.55461 9.21892 9.21528 
13 1 6.22669 4.53671 4.53586 
14 1 7.76682 3.00907 3.00994 
15 1 7.05688 3.71708 3.71723 
28 1 10.1061 0.666445 0.673202 
29 1 8.59011 2.18528 2.18461 
30 1 9.3019 1.472 1.47599 
1 1 6.16387 4.58649 6.16454 
2 1 7.6824 3.08752 7.68338 
3 1 6.97213 3.79678 6.97158 
40 1 10.0457 0.730681 10.0377 
41 1 8.50571 2.26278 8.50623 
42 1 9.21677 1.55387 9.21423 
7 1 6.16445 6.16442 4.58693 
8 1 7.68402 7.68397 3.08665 
9 1 6.97261 6.97302 3.79546 
43 1 10.0485 10.0491 0.734125 
44 1 8.50744 8.50769 2.26119 
45 1 9.2181 9.21915 1.55271 
22 1 6.21208 6.21242 6.21257 
23 1 7.75356 7.75262 7.74735 
24 1 7.0417 7.04399 7.0455 
34 1 10.1224 10.1253 10.1037 
35 1 8.65569 8.65938 8.50812 
36 1 9.24866 9.24191 9.4605 
49 2 8.12712 8.07279 9.73741 
ITEM: TIMESTEP
40
ITEM: NUMBER OF ATOMS
49
ITEM: BOX BOUNDS pp pp pp
0.0000000000000000e+00 1.1000000000000000e+01
0.0000000000000000e+00 1.1002000000000001e+01
0.0000000000000000e+00 1.1000000000000000e+01
ITEM: ATOMS id type x y z 
10 1 4.60388 4.60391 4.60258 
11 1 3.0875 3.0869 3.08638 
12 1 3.79754 3.79741 3.79992 
46 1 0.72948 0.728987 0.729388 
47 1 2.26386 2.26299 2.26423 
48 1 1.55441 1.55453 1.55262 
19 1 4.53819 4.53752 6.22632 
20 1 3.00894 3.00883 7.76902 
21 1 3.71641 3.71587 7.05261 
31 1 0.67233 0.669949 10.1088 
32 1 2.18675 2.1853 8.59072 
33 1 1.47292 1.47499 9.30049 
16 1 4.53837 6.22589 4.53761 
17 1 3.00901 7.76989 3.00866 
18 1 3.71569 7.05329 3.71604 
25 1 0.667005 10.1069 0.67186 
26 1 2.18558 8.59216 2.18635 
27 1 1.47249 9.30025 1.47322 
4 1 4.59467 6.16219 6.16165 
5 1 3.08917 7.68407 7.68418 
6 1 3.79263 6.97027 6.97092 
37 1 0.727459 10.0479 10.0377 
38 1 2.2624 8.50709 8.50648 
39 1 1.55396 9.21812 9.21562 
13 1 6.22615 4.53874 4.53761 
14 1 7.76971 3.00839 3.00896 
15 1 7.05323 3.71573 3.71586 
28 1 10.1069 0.666392 0.671633 
29 1 8.5919 2.18558 2.18558 
30 1 9.29945 1.47056 1.47406 
1 1 6.16133 4.5941 6.16137 
2 1 7.6838 3.08927 7.68374 
3 1 6.96949 3.79256 6.97104 
40 1 10.0457 0.725287 10.0372 
41 1 8.50568 2.26156 8.50735 
42 1 9.21923 1.55405 9.21394 
7 1 6.16236 6.16221 4.59411 
8 1 7.6844 7.68494 3.08825 
9 1 6.97149 6.97082 3.79157 
43 1 10.0504 10.0514 0.734267 
44 1 8.507 8.50773 2.26011 
45 1 9.21916 9.21931 1.55548 
22 1 6.20235 6.2044 6.20513 
23 1 7.74691 7.74838 7.73906 
24 1 7.04997 7.04828 7.05033 
34 1 10.125 10.1286 10.1083 
35 1 8.65511 8.65906 8.49629 
36 1 9.21398 9.2053 9.4951 
49 2 8.16965 8.11708 9.72431 
ITEM: TIMESTEP
50
ITEM: NUMBER OF ATOMS
49
ITEM: BOX BOUNDS pp pp pp
0.0000000000000000e+00 1.1000000000000000e+01
0.0000000000000000e+00 1.1002000000000001e+01
0.0000000000000000e+00 1.1000000000000000e+01
ITEM: ATOMS id type x y z 
10 1 4.60348 4.60362 4.60277 
11 1 3.08735 3.08681 3.08716 
12 1 3.79808 3.79785 3.79887 
46 1 0.729974 0.729747 0.728801 
47 1 2.26391 2.26334 2.26393 
48 1 1.5546 1.55419 1.55331 
19 1 4.53681 4.53609 6.22577 
20 1 3.00873 3.00848 7.76861 
21 1 3.71585 3.71539 7.05364 
31 1 0.672469 0.670098 10.1094 
32 1 2.18611 2.18516 8.59073 
33 1 1.47354 1.47481 9.30161 
16 1 4.53697 6.22554 4.53623 
17 1 3.0086 7.76951 3.00856 
18 1 3.71557 7.05421 3.71532 
25 1 0.667788 10.1074 0.67172 
26 1 2.18508 8.59202 2.18583 
27 1 1.47275 9.30147 1.47355 
4 1 4.59347 6.16184 6.16131 
5 1 3.08841 7.68369 7.68405 
6 1 3.79394 6.9704 6.97061 
37 1 0.725727 10.0468 10.0369 
38 1 2.26271 8.50728 8.50702 
39 1 1.55351 9.21796 9.21454 
13 1 6.22592 4.53746 4.53622 
14 1 7.76942 3.00816 3.00874 
15 1 7.0541 3.71535 3.71521 
28 1 10.1072 0.66713 0.671874 
29 1 8.59158 2.18493 2.18517 
30 1 9.30089 1.47102 1.47439 
1 1 6.16086 4.59305 6.16116 
2 1 7.68331 3.08858 7.68386 
3 1 6.96968 3.79368 6.97042 
40 1 10.0447 0.723693 10.0361 
41 1 8.50602 2.26236 8.50738 
42 1 9.21836 1.55327 9.21306 
7 1 6.16197 6.16161 4.59289 
8 1 7.68413 7.68441 3.08742 
9 1 6.9711 6.9709 3.79304 
43 1 10.0508 10.0516 0.735197 
44 1 8.50695 8.50756 2.26014 
45 1 9.21883 9.21923 1.55683 
22 1 6.20338 6.20472 6.20608 
23 1 7.75251 7.75327 7.73656 
24 1 7.04924 7.04895 7.05019 
34 1 10.125 10.1281 10.1117 
35 1 8.65535 8.65986 8.48386 
36 1 9.20133 9.19213 9.50164 
49 2 8.18285 8.13034 9.73465 
ITEM: TIMESTEP
60
ITEM: NUMBER OF ATOMS
49
ITEM: BOX BOUNDS pp pp pp
0.0000000000000000e+00 1.1000000000000000e+01
0.0000000000000000e+00 1.1002000000000001e+01
0.0000000000000000e+00 1.1000000000000000e+01
ITEM: ATOMS id type x y z 
10 1 4.60359 4.60396 4.60374 
11 1 3.08676 3.08624 3.08839 
12 1 3.79908 3.79882 3.79653 
46 1 0.730782 0.730816 0.727247 
47 1 2.26423 2.26384 2.26325 
48 1 1.55432 1.55359 1.55471 
19 1 4.53546 4.53476 6.22432 
20 1 3.0078 3.00738 7.76799 
21 1 3.71621 3.71579 7.05514 
31 1 0.672467 0.671181 10.1101 
32 1 2.18461 2.18504 8.59011 
33 1 1.47547 1.47436 9.30448 
16 1 4.53595 6.22429 4.53522 
17 1 3.00777 7.76856 3.00825 
18 1 3.7167 7.05532 3.71554 
25 1 0.670193 10.1079 0.671691 
26 1 2.18431 8.59087 2.18468 
27 1 1.47351 9.30482 1.47493 
4 1 4.59559 6.16122 6.1606 
5 1 3.08786 7.68234 7.68363 
6 1 3.79588 6.97116 6.96969 
37 1 0.721986 10.044 10.0352 
38 1 2.2642 8.50685 8.50717 
39 1 1.55194 9.21767 9.21271 
13 1 6.22475 4.53649 4.53501 
14 1 7.76846 3.00745 3.00808 
15 1 7.05537 3.71626 3.71564 
28 1 10.1079 0.669224 0.672258 
29 1 8.59037 2.18364 2.18457 
30 1 9.30436 1.47264 1.47507 
1 1 6.1602 4.59535 6.16082 
2 1 7.68185 3.08822 7.68381 
3 1 6.97042 3.79515 6.969 
40 1 10.0426 0.720075 10.0338 
41 1 8.50668 2.26427 8.50685 
42 1 9.2162 1.55099 9.2122 
7 1 6.16108 6.16013 4.595 
8 1 7.68327 7.68274 3.08685 
9 1 6.96999 6.97133 3.79517 
43 1 10.0505 10.0515 0.736352 
44 1 8.50579 8.50677 2.26133 
45 1 9.21878 9.21849 1.55853 
22 1 6.2058 6.20644 6.20883 
23 1 7.76117 7.7615 7.72738 
24 1 7.04965 7.05087 7.05028 
34 1 10.1269 10.1297 10.12 
35 1 8.64835 8.65328 8.47043 
36 1 9.18708 9.17769 9.49725 
49 2 8.19677 8.144 9.75412 
ITEM: TIMESTEP
70
ITEM: NUMBER OF ATOMS
49
ITEM: BOX BOUNDS pp pp pp
0.0000000000000000e+00 1.1000000000000000e+01
0.0000000000000000e+00 1.1002000000000001e+01
0.0000000000000000e+00 1.1000000000000000e+01
ITEM: ATOMS id type x y z 
10 1 4.60497 4.60497 4.60315 
11 1 3.08871 3.08812 3.08576 
12 1 3.79669 3.79671 3.80228 
46 1 0.731135 0.7313 0.727185 
47 1 2.26486 2.26432 2.26716 
48 1 1.55733 1.55681 1.55181 
19 1 4.53712 4.53645 6.22458 
20 1 3.0092 3.00889 7.76879 
21 1 3.7145 3.71403 7.05056 
31 1 0.672328 0.670858 10.1101 
32 1 2.18484 2.1846 8.59095 
33 1 1.47459 1.47441 9.30511 
16 1 4.53729 6.22553 4.53581 
17 1 3.00828 7.77024 3.00788 
18 1 3.71386 7.05209 3.71411 
25 1 0.673917 10.1105 0.672353 
26 1 2.18456 8.59292 2.18673 
27 1 1.47369 9.30176 1.47149 
4 1 4.59978 6.16077 6.16029 
5 1 3.09059 7.68276 7.68206 
6 1 3.79425 6.96669 6.96907 
37 1 0.713379 10.0406 10.0329 
38 1 2.26593 8.50778 8.50718 
39 1 1.54776 9.21491 9.21089 
13 1 6.22603 4.53775 4.53583 
14 1 7.76987 3.00794 3.00829 
15 1 7.05205 3.71396 3.71364 
28 1 10.1091 0.672665 0.671758 
29 1 8.59082 2.18352 2.18541 
30 1 9.30445 1.47356 1.47399 
1 1 6.15998 4.5983 6.15902 
2 1 7.68263 3.08973 7.68072 
3 1 6.96542 3.79578 6.97125 
40 1 10.0387 0.710536 10.0312 
41 1 8.50746 2.26504 8.50708 
42 1 9.21409 1.54786 9.21053 
7 1 6.1605 6.16088 4.59952 
8 1 7.68091 7.68242 3.08985 
9 1 6.96823 6.96588 3.79366 
43 1 10.0507 10.0504 0.735631 
44 1 8.50575 8.50496 2.26383 
45 1 9.21565 9.21847 1.55915 
22 1 6.21055 6.21165 6.21636 
23 1 7.77031 7.7724 7.71353 
24 1 7.05206 7.05217 7.04748 
34 1 10.1244 10.1269 10.1286 
35 1 8.63853 8.64312 8.46647 
36 1 9.18483 9.17598 9.48669 
49 2 8.20842 8.15518 9.77619 
ITEM: TIMESTEP
80
ITEM: NUMBER OF ATOMS
49
ITEM: BOX BOUNDS pp pp pp
0.0000000000000000e+00 1.1000000000000000e+01
0.0000000000000000e+00 1.1002000000000001e+01
0.0000000000000000e+00 1.1000000000000000e+01
ITEM: ATOMS id type x y z 
10 1 4.60441 4.60451 4.60383 
11 1 3.08822 3.08775 3.08794 
12 1 3.79852 3.79834 3.80008 
46 1 0.731668 0.7318 0.725115 
47 1 2.26519 2.2645 2.26558 
48 1 1.55683 1.55659 1.55366 
19 1 4.53662 4.53595 6.22383 
20 1 3.00803 3.00774 7.76804 
21 1 3.71467 3.7142 7.05272 
31 1 0.671886 0.670251 10.1111 
32 1 2.18493 2.18495 8.59207 
33 1 1.47424 1.47348 9.30414 
16 1 4.537 6.22501 4.53571 
17 1 3.00765 7.76888 3.00804 
18 1 3.71481 7.05384 3.71401 
25 1 0.673847 10.11 0.670461 
26 1 2.18415 8.59167 2.1856 
27 1 1.47478 9.30476 1.47315 
4 1 4.60006 6.16046 6.16005 
5 1 3.08922 7.68166 7.68181 
6 1 3.79701 6.96852 6.96952 
37 1 0.711019 10.0392 10.0319 
38 1 2.26476 8.50784 8.50686 
39 1 1.5485 9.21489 9.21116 
13 1 6.22545 4.53761 4.53568 
14 1 7.76852 3.00728 3.00787 
15 1 7.05371 3.71481 3.71412 
28 1 10.1099 0.672576 0.671438 
29 1 8.59104 2.18297 2.18566 
30 1 9.30513 1.4747 1.47321 
1 1 6.1595 4.59978 6.16 
2 1 7.68133 3.08978 7.68207 
3 1 6.9675 3.79595 6.96886 
40 1 10.0372 0.708766 10.0306 
41 1 8.5073 2.2648 8.50674 
42 1 9.21386 1.54744 9.20993 
7 1 6.15969 6.15931 4.59993 
8 1 7.68022 7.68073 3.08835 
9 1 6.96848 6.96755 3.79681 
43 1 10.0496 10.0505 0.736088 
44 1 8.5049 8.50569 2.26383 
45 1 9.21676 9.21709 1.56025 
22 1 6.21138 6.21243 6.21788 
23 1 7.77282 7.77464 7.71061 
24 1 7.05166 7.05214 7.04429 
34 1 10.1236 10.1254 10.131 
35 1 8.63657 8.64132 8.46649 
36 1 9.18547 9.17676 9.48508 
49 2 8.21143 8.1581 9.78076 
ITEM: TIMESTEP
90
ITEM: NUMBER OF ATOMS
49
ITEM: BOX BOUNDS pp pp pp
0.0000000000000000e+00 1.1000000000000000e+01
0.0000000000000000e+00 1.1002000000000001e+01
0.0000000000000000e+00 1.1000000000000000e+01
ITEM: ATOMS id type x y z 
10 1 4.60436 4.60474 4.60432 
11 1 3.08811 3.08765 3.08868 
12 1 3.79916 3.79896 3.79943 
46 1 0.731678 0.731946 0.723948 
47 1 2.26525 2.26465 2.26559 
48 1 1.55712 1.55676 1.55347 
19 1 4.53635 4.53574 6.22372 
20 1 3.00741 3.00719 7.76773 
21 1 3.71499 3.71442 7.0533 
31 1 0.670952 0.66957 10.1108 
32 1 2.18449 2.18438 8.59214 
33 1 1.47422 1.47362 9.30538 
16 1 4.53731 6.22512 4.53581 
17 1 3.00736 7.76852 3.0077 
18 1 3.71512 7.05386 3.71459 
25 1 0.674284 10.1107 0.66972 
26 1 2.1841 8.59197 2.18526 
27 1 1.47477 9.30524 1.47309 
4 1 4.60008 6.16052 6.16002 
5 1 3.08971 7.68137 7.68184 
6 1 3.79677 6.96861 6.96902 
37 1 0.710177 10.038 10.0316 
38 1 2.26501 8.50783 8.50672 
39 1 1.5472 9.21401 9.21033 
13 1 6.22557 4.53779 4.5357 
14 1 7.76809 3.00682 3.00748 
15 1 7.05406 3.71514 3.7145 
28 1 10.1108 0.673528 0.670152 
29 1 8.59153 2.18353 2.18505 
30 1 9.30521 1.47369 1.4738 
1 1 6.15932 4.59926 6.15987 
2 1 7.68081 3.08966 7.68179 
3 1 6.96804 3.7968 6.96904 
40 1 10.0363 0.707599 10.0301 
41 1 8.50747 2.26487 8.50639 
42 1 9.21295 1.54607 9.20974 
7 1 6.15933 6.1588 4.60012 
8 1 7.67988 7.67999 3.08903 
9 1 6.96747 6.96724 3.7966 
43 1 10.0496 10.0503 0.737057 
44 1 8.5048 8.5053 2.26427 
45 1 9.21619 9.21713 1.5607 
22 1 6.21235 6.21338 6.21973 
23 1 7.77424 7.77617 7.70737 
24 1 7.05371 7.0543 7.0431 
34 1 10.1224 10.1245 10.1331 
35 1 8.63494 8.6397 8.46674 
36 1 9.18597 9.1774 9.4834 
49 2 8.21401 8.16058 9.78489 
ITEM: TIMESTEP
100
ITEM: NUMBER OF ATOMS
49
ITEM: BOX BOUNDS pp pp pp
0.0000000000000000e+00 1.1000000000000000e+01
0.0000000000000000e+00 1.1002000000000001e+01
0.0000000000000000e+00 1.1000000000000000e+01
ITEM: ATOMS id type x y z 
10 1 4.60442 4.60474 4.60438 
11 1 3.08818 3.08767 3.08876 
12 1 3.79915 3.79906 3.79944 
46 1 0.731775 0.732006 0.723641 
47 1 2.26531 2.26464 2.26556 
48 1 1.5571 1.55688 1.55352 
19 1 4.5364 4.53573 6.22383 
20 1 3.00741 3.00714 7.76772 
21 1 3.71483 3.71438 7.05329 
31 1 0.670778 0.669464 10.1109 
32 1 2.18447 2.18438 8.59239 
33 1 1.47404 1.47338 9.30521 
16 1 4.53732 6.22508 4.53582 
17 1 3.00721 7.76828 3.00756 
18 1 3.71525 7.05422 3.71475 
25 1 0.674434 10.1108 0.669433 
26 1 2.18408 8.59198 2.18512 
27 1 1.4748 9.30548 1.47316 
4 1 4.60007 6.16041 6.16002 
5 1 3.08962 7.6812 7.68179 
6 1 3.79711 6.96886 6.96901 
37 1 0.709826 10.0377 10.0315 
38 1 2.26486 8.50774 8.50656 
39 1 1.54717 9.21394 9.21037 
13 1 6.22561 4.53784 4.53574 
14 1 7.76791 3.00674 3.0074 
15 1 7.05428 3.71521 3.71458 
28 1 10.1109 0.673533 0.670068 
29 1 8.59162 2.18332 2.18517 
30 1 9.3053 1.47405 1.47341 
1 1 6.15929 4.59938 6.15993 
2 1 7.68074 3.08973 7.6818 
3 1 6.96812 3.79683 6.96892 
40 1 10.036 0.707257 10.0301 
41 1 8.50736 2.26476 8.50635 
42 1 9.21295 1.54589 9.2096 
7 1 6.1592 6.15863 4.60016 
8 1 7.67969 7.67977 3.08901 
9 1 6.96743 6.96725 3.79688 
43 1 10.0495 10.0503 0.737304 
44 1 8.50461 8.50524 2.26437 
45 1 9.21626 9.21695 1.56094 
22 1 6.21246 6.21349 6.22009 
23 1 7.77468 7.77666 7.70673 
24 1 7.0539 7.05451 7.0424 
34 1 10.1222 10.1243 10.1335 
35 1 8.63466 8.63942 8.46684 
36 1 9.18612 9.17758 9.48312 
49 2 8.21465 8.16119 9.78584 
ITEM: TIMESTEP
110
ITEM: NUMBER OF ATOMS
49
ITEM: BOX BOUNDS pp pp pp
0.0000000000000000e+00 1.1000000000000000e+01
0.0000000000000000e+00 1.1002000000000001e+01
0.0000000000000000e+00 1.1000000000000000e+01
ITEM: ATOMS id type x y z 
10 1 4.60508 4.60608 4.60578 
11 1 3.08919 3.08884 3.08935 
12 1 3.79969 3.79921 3.80138 
46 1 0.733087 0.733631 0.719324 
47 1 2.26622 2.26562 2.26645 
48 1 1.55834 1.55832 1.55247 
19 1 4.53628 4.53553 6.22354 
20 1 3.00598 3.00566 7.76603 
21 1 3.71518 3.71485 7.05635 
31 1 0.668582 0.666445 10.1111 
32 1 2.1845 2.18354 8.59605 
33 1 1.46999 1.47067 9.30275 
16 1 4.53869 6.22694 4.53737 
17 1 3.00632 7.76726 3.00692 
18 1 3.71479 7.05462 3.71445 
25 1 0.675539 10.1122 0.665957 
26 1 2.18342 8.59385 2.18485 
27 1 1.476 9.30637 1.47039 
4 1 4.60226 6.15913 6.16174 
5 1 3.09134 7.67998 7.68307 
6 1 3.79624 6.97064 6.96505 
37 1 0.705227 10.0326 10.0303 
38 1 2.26316 8.507 8.5052 
39 1 1.54429 9.21111 9.20897 
13 1 6.22768 4.53914 4.53721 
14 1 7.76695 3.00572 3.00651 
15 1 7.0549 3.71492 3.7143 
28 1 10.112 0.674992 0.66612 
29 1 8.59263 2.18294 2.18391 
30 1 9.30789 1.47467 1.47276 
1 1 6.15881 4.60054 6.16025 
2 1 7.68064 3.09055 7.68131 
3 1 6.96782 3.79764 6.96871 
40 1 10.0307 0.702273 10.0284 
41 1 8.50631 2.26335 8.50457 
42 1 9.21003 1.54246 9.20802 
7 1 6.15656 6.15672 4.60125 
8 1 7.67675 7.67747 3.08973 
9 1 6.9665 6.96496 3.79937 
43 1 10.0496 10.0499 0.742247 
44 1 8.50347 8.50381 2.26649 
45 1 9.21447 9.21582 1.56336 
22 1 6.21455 6.21546 6.2265 
23 1 7.78239 7.78494 7.6954 
24 1 7.05901 7.06003 7.03108 
34 1 10.1193 10.1211 10.1432 
35 1 8.62889 8.63362 8.4693 
36 1 9.18909 9.18119 9.47779 
49 2 8.22471 8.17082 9.80137 
ITEM: TIMESTEP
120
ITEM: NUMBER OF ATOMS
49
ITEM: BOX BOUNDS pp pp pp
0.0000000000000000e+00 1.1000000000000000e+01
0.0000000000000000e+00 1.1002000000000001e+01
0.0000000000000000e+00 1.1000000000000000e+01
ITEM: ATOMS id type x y z 
10 1 4.60497 4.60572 4.60641 
11 1 3.08913 3.08848 3.09006 
12 1 3.80004 3.80014 3.80044 
46 1 0.733064 0.733701 0.719054 
47 1 2.26574 2.26514 2.26617 
48 1 1.55878 1.55878 1.55208 
19 1 4.53648 4.53572 6.22418 
20 1 3.00609 3.00574 7.76708 
21 1 3.7145 3.71417 7.05521 
31 1 0.667707 0.666172 10.1104 
32 1 2.18377 2.18305 8.59506 
33 1 1.47092 1.47119 9.3044 
16 1 4.53873 6.22702 4.53731 
17 1 3.00623 7.76727 3.00672 
18 1 3.71469 7.05477 3.71464 
25 1 0.675986 10.1122 0.66548 
26 1 2.18383 8.59362 2.18416 
27 1 1.4754 9.30697 1.47136 
4 1 4.60192 6.15964 6.16106 
5 1 3.09082 7.68055 7.68217 
6 1 3.79703 6.96983 6.96658 
37 1 0.70546 10.0323 10.0303 
38 1 2.26324 8.50653 8.50474 
39 1 1.54421 9.21076 9.20904 
13 1 6.22774 4.5392 4.53712 
14 1 7.76681 3.00573 3.00624 
15 1 7.0552 3.71472 3.71465 
28 1 10.1128 0.675088 0.666369 
29 1 8.59331 2.18286 2.1844 
30 1 9.30693 1.47491 1.47148 
1 1 6.15906 4.60057 6.1603 
2 1 7.6808 3.09061 7.68129 
3 1 6.96764 3.79748 6.96876 
40 1 10.0304 0.702234 10.0286 
41 1 8.50614 2.26289 8.50441 
42 1 9.2099 1.54251 9.20801 
7 1 6.1569 6.15636 4.60163 
8 1 7.67733 7.67726 3.09025 
9 1 6.9652 6.96507 3.79847 
43 1 10.0493 10.05 0.742768 
44 1 8.50288 8.50361 2.26654 
45 1 9.215 9.21569 1.56399 
22 1 6.21456 6.21547 6.22671 
23 1 7.78268 7.78536 7.69482 
24 1 7.0595 7.06053 7.02999 
34 1 10.1189 10.1212 10.1436 
35 1 8.62893 8.63361 8.46981 
36 1 9.18929 9.18142 9.47793 
49 2 8.22502 8.1711 9.80178 
ITEM: TIMESTEP
130
ITEM: NUMBER OF ATOMS
49
ITEM: BOX BOUNDS pp pp pp
0.0000000000000000e+00 1.1000000000000000e+01
0.0000000000000000e+00 1.1002000000000001e+01
0.0000000000000000e+00 1.1000000000000000e+01
ITEM: ATOMS id type x y z 
10 1 4.6051 4.6058 4.60648 
11 1 3.08927 3.08864 3.08992 
12 1 3.7999 3.79998 3.80091 
46 1 0.733134 0.733793 0.718669 
47 1 2.26579 2.26519 2.266 
48 1 1.55864 1.55864 1.55207 
19 1 4.53664 4.53586 6.22448 
20 1 3.00626 3.00588 7.76751 
21 1 3.71412 3.7138 7.05454 
31 1 0.667308 0.665957 10.11 
32 1 2.18332 2.18286 8.59458 
33 1 1.47152 1.4713 9.30528 
16 1 4.53862 6.22705 4.53735 
17 1 3.00609 7.76724 3.00668 
18 1 3.71477 7.05496 3.71455 
25 1 0.675899 10.1124 0.665481 
26 1 2.18375 8.59372 2.18421 
27 1 1.47562 9.30695 1.47104 
4 1 4.60176 6.15982 6.16077 
5 1 3.09058 7.68082 7.68163 
6 1 3.79748 6.96937 6.96747 
37 1 0.705539 10.0321 10.0304 
38 1 2.26314 8.50633 8.50465 
39 1 1.54412 9.21069 9.20896 
13 1 6.22786 4.53912 4.53732 
14 1 7.76687 3.00563 3.00637 
15 1 7.05514 3.71481 3.71438 
28 1 10.113 0.675135 0.666299 
29 1 8.59335 2.18292 2.18428 
30 1 9.307 1.47487 1.47146 
1 1 6.15891 4.60049 6.16034 
2 1 7.68071 3.09048 7.68127 
3 1 6.96786 3.79772 6.9688 
40 1 10.0302 0.702314 10.0286 
41 1 8.50603 2.26276 8.50427 
42 1 9.20967 1.54242 9.2079 
7 1 6.15686 6.15629 4.60171 
8 1 7.67725 7.67726 3.09035 
9 1 6.96512 6.96487 3.79834 
43 1 10.0494 10.05 0.743008 
44 1 8.50276 8.50347 2.26648 
45 1 9.21513 9.21583 1.56441 
22 1 6.21454 6.21543 6.22679 
23 1 7.7829 7.78559 7.69445 
24 1 7.05975 7.06082 7.02929 
34 1 10.1189 10.1212 10.1441 
35 1 8.62889 8.63358 8.47003 
36 1 9.18946 9.18162 9.47808 
49 2 8.22518 8.17124 9.80206 
ITEM: TIMESTEP
140
ITEM: NUMBER OF ATOMS
49
ITEM: BOX BOUNDS pp pp pp
0.0000000000000000e+00 1.1000000000000000e+01
0.0000000000000000e+00 1.1002000000000001e+01
0.0000000000000000e+00 1.1000000000000000e+01
ITEM: ATOMS id type x y z 
10 1 4.60517 4.6058 4.60691 
11 1 3.08935 3.08881 3.08998 
12 1 3.79997 3.7999 3.8012 
46 1 0.733223 0.733944 0.718191 
47 1 2.26578 2.26519 2.26587 
48 1 1.55874 1.55875 1.55184 
19 1 4.53669 4.53596 6.22469 
20 1 3.00629 3.00601 7.76784 
21 1 3.71383 3.71334 7.05399 
31 1 0.666977 0.665728 10.1098 
32 1 2.18301 2.18275 8.5945 
33 1 1.47169 1.47108 9.30556 
16 1 4.53853 6.2272 4.53739 
17 1 3.00595 7.76734 3.00654 
18 1 3.71464 7.05505 3.71448 
25 1 0.675952 10.1126 0.665239 
26 1 2.18375 8.59383 2.18406 
27 1 1.47571 9.30707 1.47084 
4 1 4.60161 6.16006 6.16053 
5 1 3.09026 7.68116 7.68094 
6 1 3.79809 6.96876 6.96862 
37 1 0.705654 10.0318 10.0306 
38 1 2.26285 8.50612 8.50442 
39 1 1.54395 9.21041 9.20892 
13 1 6.22796 4.53911 4.53744 
14 1 7.76689 3.00558 3.0063 
15 1 7.05522 3.71473 3.71439 
28 1 10.1132 0.675236 0.666178 
29 1 8.59346 2.18297 2.18411 
30 1 9.30711 1.47489 1.47133 
1 1 6.15884 4.60056 6.16044 
2 1 7.68074 3.09044 7.68118 
3 1 6.96785 3.79779 6.96887 
40 1 10.0299 0.702367 10.0287 
41 1 8.50573 2.26247 8.50396 
42 1 9.20941 1.54227 9.20783 
7 1 6.15678 6.15604 4.60178 
8 1 7.67705 7.67714 3.09038 
9 1 6.96501 6.96466 3.79836 
43 1 10.0494 10.05 0.743621 
44 1 8.50258 8.5033 2.26657 
45 1 9.21524 9.21588 1.56493 
22 1 6.21451 6.21538 6.22687 
23 1 7.78328 7.78602 7.69368 
24 1 7.06032 7.06146 7.02802 
34 1 10.1188 10.1211 10.1448 
35 1 8.62882 8.63351 8.47053 
36 1 9.18968 9.18189 9.47824 
49 2 8.22548 8.17149 9.80258 
ITEM: TIMESTEP
150
ITEM: NUMBER OF ATOMS
49
ITEM: BOX BOUNDS pp pp pp
0.0000000000000000e+00 1.1000000000000000e+01
0.0000000000000000e+00 1.1002000000000001e+01
0.0000000000000000e+00 1.1000000000000000e+01
ITEM: ATOMS id type x y z 
10 1 4.60519 4.6058 4.60705 
11 1 3.08938 3.08881 3.09004 
12 1 3.79997 3.79997 3.8012 
46 1 0.733281 0.734018 0.71807 
47 1 2.26582 2.26522 2.26586 
48 1 1.55878 1.55881 1.5518 
19 1 4.53662 4.53588 6.22459 
20 1 3.00621 3.00593 7.76775 
21 1 3.71389 3.71338 7.05419 
31 1 0.666889 0.665685 10.1097 
32 1 2.18298 2.18275 8.59456 
33 1 1.47164 1.47096 9.30547 
16 1 4.53849 6.22721 4.53742 
17 1 3.00592 7.76733 3.00652 
18 1 3.71466 7.0551 3.71449 
25 1 0.675987 10.1126 0.665175 
26 1 2.18377 8.59389 2.18402 
27 1 1.4757 9.30706 1.47076 
4 1 4.6016 6.1601 6.16052 
5 1 3.09023 7.68119 7.68086 
6 1 3.79817 6.9687 6.96873 
37 1 0.705663 10.0317 10.0306 
38 1 2.26275 8.50605 8.50433 
39 1 1.54392 9.21034 9.20892 
13 1 6.22799 4.53909 4.53747 
14 1 7.7669 3.00555 3.00629 
15 1 7.05523 3.71473 3.71438 
28 1 10.1132 0.675245 0.66612 
29 1 8.59349 2.18297 2.18407 
30 1 9.30714 1.47494 1.47125 
1 1 6.15884 4.60057 6.16049 
2 1 7.68074 3.09043 7.68117 
3 1 6.96786 3.7978 6.96886 
40 1 10.0298 0.702382 10.0287 
41 1 8.5057 2.26238 8.50392 
42 1 9.2093 1.54216 9.2078 
7 1 6.15672 6.15596 4.6018 
8 1 7.67702 7.67709 3.0904 
9 1 6.96493 6.96461 3.79833 
43 1 10.0495 10.0501 0.743816 
44 1 8.50256 8.50327 2.26661 
45 1 9.21522 9.21588 1.56505 
22 1 6.21451 6.21538 6.22688 
23 1 7.7834 7.78616 7.69344 
24 1 7.06051 7.06167 7.02764 
34 1 10.1188 10.1212 10.1451 
35 1 8.62881 8.6335 8.47067 
36 1 9.18974 9.18196 9.4783 
49 2 8.22557 8.17157 9.80275 
ITEM: TIMESTEP
154
ITEM: NUMBER OF ATOMS
49
ITEM: BOX BOUNDS pp pp pp
0.0000000000000000e+00 1.1000000000000000e+01
0.0000000000000000e+00 1.1002000000000001e+01
0.0000000000000000e+00 1.1000000000000000e+01
ITEM: ATOMS id type x y z 
10 1 4.60519 4.6058 4.60705 
11 1 3.08938 3.08881 3.09004 
12 1 3.79998 3.79996 3.8012 
46 1 0.733279 0.734021 0.718069 
47 1 2.26582 2.26522 2.26586 
48 1 1.55878 1.55881 1.5518 
19 1 4.53662 4.53588 6.22459 
20 1 3.00621 3.00593 7.76775 
21 1 3.71388 3.71338 7.05419 
31 1 0.666886 0.665684 10.1097 
32 1 2.18298 2.18275 8.59456 
33 1 1.47164 1.47095 9.30548 
16 1 4.53849 6.22721 4.53742 
17 1 3.00592 7.76733 3.00652 
18 1 3.71466 7.0551 3.71449 
25 1 0.675985 10.1126 0.665172 
26 1 2.18376 8.59388 2.18402 
27 1 1.47571 9.30707 1.47076 
4 1 4.6016 6.1601 6.16052 
5 1 3.09023 7.68119 7.68086 
6 1 3.79817 6.9687 6.96873 
37 1 0.705663 10.0317 10.0306 
38 1 2.26274 8.50604 8.50433 
39 1 1.54392 9.21034 9.20892 
13 1 6.22799 4.53909 4.53747 
14 1 7.7669 3.00555 3.00629 
15 1 7.05524 3.71473 3.71438 
28 1 10.1132 0.675244 0.666119 
29 1 8.59349 2.18297 2.18407 
30 1 9.30714 1.47495 1.47125 
1 1 6.15884 4.60057 6.16049 
2 1 7.68074 3.09043 7.68117 
3 1 6.96786 3.7978 6.96886 
40 1 10.0298 0.702381 10.0287 
41 1 8.5057 2.26238 8.50391 
42 1 9.2093 1.54216 9.2078 
7 1 6.15673 6.15596 4.6018 
8 1 7.67702 7.67709 3.09041 
9 1 6.96493 6.96461 3.79833 
43 1 10.0495 10.0501 0.743819 
44 1 8.50256 8.50326 2.26661 
45 1 9.21522 9.21588 1.56505 
22 1 6.21451 6.21538 6.22688 
23 1 7.7834 7.78616 7.69344 
24 1 7.06052 7.06167 7.02763 
34 1 10.1188 10.1212 10.1451 
35 1 8.62881 8.6335 8.47067 
36 1 9.18974 9.18197 9.4783 
49 2 8.22558 8.17158 9.80275 
ITEM: TIMESTEP
155
ITEM: NUMBER OF ATOMS
49
ITEM: BOX BOUNDS pp pp pp
0.0000000000000000e+00 1.1000000000000000e+01
0.0000000000000000e+00 1.1002000000000001e+01
0.0000000000000000e+00 1.1000000000000000e+01
ITEM: ATOMS id type x y z 
10 1 4.60519 4.6058 4.60705 
11 1 3.08938 3.08881 3.09004 
12 1 3.79998 3.79996 3.8012 
46 1 0.733279 0.734021 0.718069 
47 1 2.26582 2.26522 2.26586 
48 1 1.55878 1.55881 1.5518 
19 1 4.53662 4.53588 6.22459 
20 1 3.00621 3.00593 7.76775 
21 1 3.71388 3.71338 7.05419 
31 1 0.666886 0.665684 10.1097 
32 1 2.18298 2.18275 8.59456 
33 1 1.47164 1.47095 9.30548 
16 1 4.53849 6.22721 4.53742 
17 1 3.00592 7.76733 3.00652 
18 1 3.71466 7.0551 3.71449 
25 1 0.675985 10.1126 0.665172 
26 1 2.18376 8.59388 2.18402 
27 1 1.47571 9.30707 1.47076 
4 1 4.6016 6.1601 6.16052 
5 1 3.09023 7.68119 7.68086 
6 1 3.79817 6.9687 6.96873 
37 1 0.705663 10.0317 10.0306 
38 1 2.26274 8.50604 8.50433 
39 1 1.54392 9.21034 9.20892 
13 1 6.22799 4.53909 4.53747 
14 1 7.7669 3.00555 3.00629 
15 1 7.05524 3.71473 3.71438 
28 1 10.1132 0.675244 0.666119 
29 1 8.59349 2.18297 2.18407 
30 1 9.30714 1.47495 1.47125 
1 1 6.15884 4.60057 6.16049 
2 1 7.68074 3.09043 7.68117 
3 1 6.96786 3.7978 6.96886 
40 1 10.0298 0.702381 10.0287 
41 1 8.5057 2.26238 8.50391 
42 1 9.2093 1.54216 9.2078 
7 1 6.15673 6.15596 4.6018 
8 1 7.67702 7.67709 3.09041 
9 1 6.96493 6.96461 3.79833 
43 1 10.0495 10.0501 0.743819 
44 1 8.50256 8.50326 2.26661 
45 1 9.21522 9.21588 1.56505 
22 1 6.21451 6.21538 6.22688 