ITEM: TIMESTEP
0
ITEM: NUMBER OF ATOMS
129
ITEM: BOX BOUNDS pp pp pp
0.0000000000000000e+00 1.8762000000000000e+01
0.0000000000000000e+00 1.8762000000000000e+01
0.0000000000000000e+00 1.8760999999999999e+01
ITEM: ATOMS id type x y z 
1 1 3.12 3.119 3.121 
10 1 5.595 5.596 5.595 
17 1 4.011 4.011 4.012 
26 1 4.704 4.704 4.704 
33 1 0.414 3.456 3.456 
41 1 3.456 0.413 3.456 
49 1 3.456 3.456 0.414 
58 1 8.301 5.259 5.259 
66 1 5.259 8.301 5.259 
74 1 5.259 5.259 8.301 
81 1 1.612 3.354 3.354 
89 1 3.353 1.612 3.354 
97 1 3.354 3.354 1.613 
106 1 7.103 5.361 5.361 
114 1 5.362 7.103 5.361 
122 1 5.361 5.361 7.103 
4 1 3.12 3.12 14.976 
11 1 5.595 5.595 12.5 
20 1 4.011 4.011 14.084 
27 1 4.704 4.704 13.392 
36 1 0.414 3.456 14.639 
46 1 3.456 0.414 14.639 
56 1 3.456 3.456 17.682 
59 1 8.301 5.259 12.837 
69 1 5.259 8.301 12.837 
79 1 5.259 5.259 9.794 
84 1 1.612 3.354 14.742 
94 1 3.354 1.612 14.742 
104 1 3.354 3.354 16.483 
107 1 7.103 5.361 12.735 
117 1 5.361 7.103 12.735 
127 1 5.361 5.361 10.993 
6 1 3.12 14.976 3.12 
13 1 5.595 12.501 5.596 
22 1 4.011 14.085 4.011 
29 1 4.704 13.392 4.705 
38 1 0.414 14.64 3.457 
48 1 3.456 17.682 3.456 
52 1 3.456 14.64 0.414 
61 1 8.301 12.837 5.259 
71 1 5.259 9.794 5.259 
75 1 5.259 12.837 8.301 
86 1 1.612 14.742 3.354 
96 1 3.354 16.483 3.354 
100 1 3.354 14.742 1.612 
109 1 7.103 12.735 5.361 
119 1 5.361 10.993 5.361 
123 1 5.361 12.735 7.103 
7 1 3.12 14.976 14.976 
16 1 5.595 12.501 12.5 
23 1 4.011 14.085 14.084 
32 1 4.704 13.392 13.391 
39 1 0.414 14.64 14.639 
43 1 3.456 17.682 14.639 
53 1 3.456 14.64 17.682 
64 1 8.302 12.837 12.837 
68 1 5.259 9.795 12.837 
78 1 5.259 12.837 9.794 
87 1 1.612 14.742 14.741 
91 1 3.354 16.483 14.741 
101 1 3.353 14.742 16.483 
112 1 7.103 12.735 12.735 
116 1 5.361 10.993 12.735 
126 1 5.361 12.735 10.993 
8 1 14.976 3.12 3.12 
15 1 12.501 5.595 5.595 
24 1 14.084 4.011 4.011 
31 1 13.392 4.704 4.704 
40 1 17.682 3.456 3.456 
44 1 14.64 0.414 3.457 
54 1 14.64 3.456 0.414 
63 1 9.795 5.259 5.259 
67 1 12.837 8.301 5.259 
77 1 12.837 5.259 8.301 
88 1 16.483 3.354 3.354 
92 1 14.742 1.612 3.354 
102 1 14.742 3.354 1.612 
111 1 10.993 5.361 5.361 
115 1 12.735 7.103 5.361 
125 1 12.735 5.361 7.103 
5 1 14.976 3.119 14.975 
14 1 12.501 5.596 12.501 
21 1 14.085 4.011 14.084 
30 1 13.392 4.703 13.392 
37 1 17.682 3.456 14.639 
47 1 14.64 0.413 14.639 
51 1 14.64 3.456 17.682 
62 1 9.794 5.259 12.837 
72 1 12.837 8.301 12.837 
76 1 12.837 5.259 9.795 
85 1 16.483 3.354 14.741 
95 1 14.742 1.612 14.741 
99 1 14.742 3.354 16.483 
110 1 10.993 5.361 12.735 
120 1 12.734 7.103 12.735 
124 1 12.735 5.361 10.993 
3 1 14.976 14.976 3.12 
12 1 12.501 12.501 5.595 
19 1 14.085 14.085 4.011 
28 1 13.392 13.392 4.704 
35 1 17.682 14.64 3.457 
45 1 14.64 17.682 3.457 
55 1 14.64 14.64 0.414 
60 1 9.794 12.837 5.259 
70 1 12.837 9.794 5.259 
80 1 12.837 12.837 8.301 
83 1 16.484 14.742 3.354 
93 1 14.742 16.483 3.354 
103 1 14.742 14.742 1.613 
108 1 10.993 12.735 5.361 
118 1 12.734 10.993 5.361 
128 1 12.734 12.734 7.103 
129 2 12.288 13.459 3.917 
2 1 14.976 14.976 14.975 
9 1 12.501 12.501 12.501 
18 1 14.084 14.085 14.084 
25 1 13.391 13.393 13.392 
34 1 17.682 14.64 14.639 
42 1 14.64 17.682 14.639 
50 1 14.64 14.64 17.682 
57 1 9.795 12.837 12.837 
65 1 12.837 9.794 12.837 
73 1 12.837 12.837 9.794 
82 1 16.483 14.742 14.741 
90 1 14.742 16.483 14.741 
98 1 14.742 14.742 16.483 
105 1 10.993 12.734 12.734 
113 1 12.735 10.993 12.735 
121 1 12.735 12.734 10.993 
ITEM: TIMESTEP
10
ITEM: NUMBER OF ATOMS
129
ITEM: BOX BOUNDS pp pp pp
0.0000000000000000e+00 1.8762000000000000e+01
0.0000000000000000e+00 1.8762000000000000e+01
0.0000000000000000e+00 1.8760999999999999e+01
ITEM: ATOMS id type x y z 
1 1 3.11055 3.10983 3.1119 
10 1 5.60398 5.60433 5.60398 
17 1 4.01316 4.01282 4.01357 
26 1 4.70172 4.70216 4.70232 
33 1 0.418175 3.45465 3.45452 
41 1 3.45436 0.418133 3.45464 
49 1 3.45453 3.45465 0.4188 
58 1 8.29655 5.26039 5.26043 
66 1 5.26058 8.29636 5.26022 
74 1 5.26039 5.26032 8.2966 
81 1 1.60786 3.35476 3.35515 
89 1 3.3542 1.60725 3.35538 
97 1 3.35517 3.3553 1.60824 
106 1 7.10784 5.36001 5.35978 
114 1 5.36073 7.10723 5.36002 
122 1 5.35986 5.36005 7.10705 
4 1 3.11036 3.11036 14.9836 
11 1 5.60426 5.60464 12.4922 
20 1 4.01339 4.01337 14.0824 
27 1 4.70155 4.7014 13.3937 
36 1 0.419086 3.45455 14.6406 
46 1 3.45458 0.418794 14.6406 
56 1 3.45457 3.45455 17.6772 
59 1 8.29657 5.26042 12.8357 
69 1 5.26043 8.29634 12.8356 
79 1 5.26035 5.26041 9.79866 
84 1 1.60724 3.35483 14.7406 
94 1 3.35482 1.60741 14.7406 
104 1 3.35545 3.35545 16.4893 
107 1 7.10699 5.36005 12.7362 
117 1 5.36013 7.10707 12.736 
127 1 5.35964 5.35974 10.9877 
6 1 3.11071 14.9838 3.11054 
13 1 5.6047 12.4906 5.60466 
22 1 4.0131 14.0825 4.01383 
29 1 4.70251 13.394 4.70236 
38 1 0.420574 14.6411 3.45568 
48 1 3.45464 17.6778 3.45461 
52 1 3.45465 14.6414 0.418577 
61 1 8.30474 12.8365 5.26233 
71 1 5.26038 9.80053 5.26061 
75 1 5.26035 12.8356 8.29604 
86 1 1.61008 14.7412 3.3548 
96 1 3.35535 16.4887 3.35537 
100 1 3.3549 14.7408 1.60811 
109 1 7.11704 12.7376 5.35956 
119 1 5.35971 10.9893 5.36047 
123 1 5.36021 12.7356 7.10673 
7 1 3.11035 14.9846 14.9843 
16 1 5.60328 12.4914 12.491 
23 1 4.01294 14.0827 14.0821 
32 1 4.70208 13.3943 13.3933 
39 1 0.418287 14.6414 14.6404 
43 1 3.45452 17.6775 14.6404 
53 1 3.45439 14.6413 17.6769 
64 1 8.29691 12.8356 12.8356 
68 1 5.26042 9.79958 12.8356 
78 1 5.26042 12.8355 9.79934 
87 1 1.60804 14.741 14.7401 
91 1 3.35519 16.4885 14.7396 
101 1 3.35438 14.7407 16.488 
112 1 7.10843 12.7363 12.7364 
116 1 5.35993 10.9891 12.7357 
126 1 5.35955 12.736 10.9879 
8 1 14.9843 3.11159 3.1107 
15 1 12.4916 5.60413 5.60431 
24 1 14.082 4.01368 4.01366 
31 1 13.3937 4.70223 4.70178 
40 1 17.6777 3.45455 3.45459 
44 1 14.6412 0.420995 3.45575 
54 1 14.6413 3.45464 0.418336 
63 1 9.79953 5.26039 5.26044 
67 1 12.8351 8.30831 5.26175 
77 1 12.8355 5.26039 8.29636 
88 1 16.4888 3.35537 3.3554 
92 1 14.7409 1.60965 3.35504 
102 1 14.7407 3.35496 1.60809 
111 1 10.9899 5.36016 5.36032 
115 1 12.7371 7.11913 5.35904 
125 1 12.7357 5.36014 7.10629 
5 1 14.9851 3.11015 14.9842 
14 1 12.4929 5.6045 12.4918 
21 1 14.0823 4.01257 14.082 
30 1 13.3945 4.70169 13.3939 
37 1 17.6775 3.45459 14.6404 
47 1 14.6415 0.418258 14.6404 
51 1 14.6415 3.45462 17.6767 
62 1 9.79888 5.26038 12.8355 
72 1 12.8355 8.2966 12.8357 
76 1 12.8356 5.26039 9.79925 
85 1 16.4882 3.35511 14.7397 
95 1 14.7408 1.60682 14.7396 
99 1 14.7407 3.35532 16.4881 
110 1 10.987 5.35968 12.7365 
120 1 12.7354 7.10659 12.7356 
124 1 12.7363 5.36038 10.9891 
3 1 14.9852 14.9777 3.12219 
12 1 12.4612 12.3955 5.73268 
19 1 14.0606 14.0938 3.98159 
28 1 13.3992 13.3659 4.74494 
35 1 17.6835 14.6406 3.45637 
45 1 14.6407 17.6783 3.4558 
55 1 14.6405 14.6411 0.41789 
60 1 9.82177 12.8254 5.26299 
70 1 12.8305 9.82109 5.26167 
80 1 12.8315 12.8341 8.28123 
83 1 16.4956 14.74 3.35783 
93 1 14.7404 16.4928 3.35523 
103 1 14.7389 14.7416 1.60362 
108 1 11.0125 12.7201 5.38342 
118 1 12.7247 11.0222 5.37949 
128 1 12.7254 12.7199 7.07702 
129 2 12.2838 13.5296 3.79764 
2 1 14.9848 14.9856 14.983 
9 1 12.4911 12.4905 12.4923 
18 1 14.0813 14.0826 14.0816 
25 1 13.3934 13.3945 13.3938 
34 1 17.6776 14.6414 14.6404 
42 1 14.6414 17.6772 14.6404 
50 1 14.6412 14.6411 17.6743 
57 1 9.80066 12.8354 12.8355 
65 1 12.8354 9.80099 12.8355 
73 1 12.8351 12.8343 9.78323 
82 1 16.4884 14.7408 14.7397 
90 1 14.7409 16.4875 14.7397 
98 1 14.7408 14.7407 16.486 
105 1 10.9898 12.7346 12.7351 
113 1 12.7355 10.9892 12.7363 
121 1 12.7371 12.7366 10.9772 
ITEM: TIMESTEP
20
ITEM: NUMBER OF ATOMS
129
ITEM: BOX BOUNDS pp pp pp
0.0000000000000000e+00 1.8762000000000000e+01
0.0000000000000000e+00 1.8762000000000000e+01
0.0000000000000000e+00 1.8760999999999999e+01
ITEM: ATOMS id type x y z 
1 1 3.10706 3.10706 3.10858 
10 1 5.6081 5.60814 5.6075 
17 1 4.01332 4.01296 4.01371 
26 1 4.70177 4.70208 4.70258 
33 1 0.416278 3.45397 3.4539 
41 1 3.45364 0.416098 3.45415 
49 1 3.45389 3.45404 0.417183 
58 1 8.29864 5.26136 5.26109 
66 1 5.2616 8.2987 5.26102 
74 1 5.26112 5.26113 8.29738 
81 1 1.60744 3.35403 3.35459 
89 1 3.35366 1.60719 3.35469 
97 1 3.35469 3.35465 1.60722 
106 1 7.10934 5.36067 5.36048 
114 1 5.36116 7.10916 5.36049 
122 1 5.36057 5.36059 7.10811 
4 1 3.10754 3.10784 14.9874 
11 1 5.60711 5.60793 12.488 
20 1 4.01393 4.01367 14.0818 
27 1 4.70093 4.70094 13.3946 
36 1 0.418485 3.45374 14.6415 
46 1 3.45379 0.417047 14.6414 
56 1 3.45382 3.45385 17.6784 
59 1 8.29758 5.26121 12.835 
69 1 5.26117 8.2988 12.835 
79 1 5.26105 5.26111 9.79745 
84 1 1.60601 3.35411 14.7411 
94 1 3.35411 1.60684 14.7412 
104 1 3.35469 3.35451 16.4892 
107 1 7.10858 5.36067 12.7356 
117 1 5.36091 7.10744 12.7353 
127 1 5.36033 5.36045 10.9873 
6 1 3.1094 14.9878 3.10799 
13 1 5.6151 12.4886 5.60724 
22 1 4.01588 14.0798 4.0159 
29 1 4.70298 13.3931 4.7034 
38 1 0.42066 14.6412 3.45526 
48 1 3.45399 17.6792 3.45404 
52 1 3.45391 14.6419 0.41664 
61 1 8.30149 12.8351 5.26221 
71 1 5.26095 9.79906 5.2618 
75 1 5.26118 12.8342 8.29561 
86 1 1.61206 14.7418 3.35406 
96 1 3.35484 16.4893 3.35486 
100 1 3.35438 14.7411 1.60674 
109 1 7.11194 12.7362 5.36236 
119 1 5.36125 10.9912 5.36216 
123 1 5.36137 12.7339 7.10587 
7 1 3.10704 14.9884 14.988 
16 1 5.60761 12.488 12.4875 
23 1 4.01325 14.0825 14.0822 
32 1 4.70173 13.3941 13.3931 
39 1 0.417598 14.6422 14.6411 
43 1 3.45396 17.6799 14.6409 
53 1 3.4536 14.642 17.6778 
64 1 8.29909 12.8349 12.8347 
68 1 5.26117 9.79838 12.8348 
78 1 5.26114 12.8348 9.79628 
87 1 1.6065 14.7416 14.7406 
91 1 3.3543 16.488 14.7405 
101 1 3.35394 14.7415 16.4886 
112 1 7.10979 12.7358 12.7356 
116 1 5.36048 10.9879 12.735 
126 1 5.36039 12.7352 10.9873 
8 1 14.9882 3.11056 3.1077 
15 1 12.488 5.61483 5.60794 
24 1 14.0792 4.01677 4.01662 
31 1 13.3934 4.7017 4.70197 
40 1 17.6799 3.45387 3.45409 
44 1 14.6416 0.42035 3.45522 
54 1 14.6419 3.45376 0.417063 
63 1 9.80538 5.26147 5.26247 
67 1 12.8338 8.3061 5.26132 
77 1 12.8336 5.2614 8.29147 
88 1 16.4883 3.35468 3.35469 
92 1 14.7416 1.60965 3.35478 
102 1 14.7412 3.35466 1.60656 
111 1 10.9876 5.36084 5.3624 
115 1 12.7352 7.11087 5.36176 
125 1 12.7335 5.36086 7.10783 
5 1 14.989 3.10684 14.988 
14 1 12.4881 5.60781 12.4879 
21 1 14.0823 4.01342 14.0817 
30 1 13.3945 4.70091 13.3942 
37 1 17.6759 3.45373 14.6413 
47 1 14.6423 0.417617 14.6411 
51 1 14.6422 3.45397 17.6778 
62 1 9.79642 5.26105 12.835 
72 1 12.8347 8.29796 12.8346 
76 1 12.8349 5.26161 9.79833 
85 1 16.4904 3.35427 14.7405 
95 1 14.7415 1.60552 14.7404 
99 1 14.7416 3.35439 16.4879 
110 1 10.9887 5.36074 12.7354 
120 1 12.7351 7.10939 12.7352 
124 1 12.7357 5.3607 10.9862 
3 1 14.9975 14.9839 3.11715 
12 1 12.4122 12.389 5.72888 
19 1 13.9606 14.0997 3.91015 
28 1 13.4111 13.3566 4.76184 
35 1 17.6913 14.6404 3.45686 
45 1 14.6404 17.6803 3.4542 
55 1 14.6401 14.6432 0.419413 
60 1 9.81651 12.8243 5.26487 
70 1 12.8326 9.80995 5.25971 
80 1 12.8356 12.8385 8.29057 
83 1 16.4989 14.7389 3.36068 
93 1 14.7433 16.4945 3.35405 
103 1 14.7419 14.7451 1.6029 
108 1 11.0007 12.6928 5.4187 
118 1 12.72 11.0062 5.38858 
128 1 12.7212 12.7127 7.08929 
129 2 12.4038 13.5804 3.77697 
2 1 14.9885 14.9886 14.984 
9 1 12.4876 12.4881 12.4885 
18 1 14.0792 14.0797 14.0788 
25 1 13.393 13.3943 13.3956 
34 1 17.6797 14.6419 14.6412 
42 1 14.642 17.6787 14.6412 
50 1 14.6418 14.6414 17.6747 
57 1 9.80146 12.8335 12.8348 
65 1 12.834 9.7973 12.8354 
73 1 12.8349 12.8351 9.79792 
82 1 16.4884 14.7415 14.7403 
90 1 14.7413 16.4894 14.7401 
98 1 14.7414 14.7412 16.4862 
105 1 10.99 12.732 12.7358 
113 1 12.7326 10.9932 12.7364 
121 1 12.7363 12.7352 10.9819 
ITEM: TIMESTEP
30
ITEM: NUMBER OF ATOMS
129
ITEM: BOX BOUNDS pp pp pp
0.0000000000000000e+00 1.8762000000000000e+01
0.0000000000000000e+00 1.8762000000000000e+01
0.0000000000000000e+00 1.8760999999999999e+01
ITEM: ATOMS id type x y z 
1 1 3.10703 3.1069 3.10809 
10 1 5.60839 5.60834 5.60767 
17 1 4.01327 4.01331 4.0141 
26 1 4.70195 4.70199 4.70232 
33 1 0.416714 3.45356 3.45358 
41 1 3.45329 0.416859 3.45382 
49 1 3.45364 3.45374 0.417481 
58 1 8.29983 5.26169 5.26147 
66 1 5.26193 8.29947 5.26138 
74 1 5.26138 5.26137 8.29789 
81 1 1.60661 3.35367 3.35423 
89 1 3.35327 1.60669 3.35431 
97 1 3.3542 3.3542 1.60741 
106 1 7.10966 5.36125 5.36091 
114 1 5.36164 7.10944 5.36083 
122 1 5.36113 5.36108 7.10755 
4 1 3.10752 3.10701 14.9884 
11 1 5.60762 5.60811 12.4877 
20 1 4.01327 4.0132 14.0823 
27 1 4.7018 4.70193 13.3938 
36 1 0.416549 3.4535 14.6417 
46 1 3.45343 0.417289 14.6417 
56 1 3.45356 3.4536 17.6783 
59 1 8.29759 5.26151 12.8347 
69 1 5.2616 8.29816 12.8346 
79 1 5.26135 5.26139 9.79757 
84 1 1.60662 3.3537 14.7415 
94 1 3.35372 1.60635 14.7416 
104 1 3.35418 3.35404 16.4888 
107 1 7.10836 5.36113 12.7351 
117 1 5.36123 7.10855 12.7348 
127 1 5.36075 5.36098 10.9872 
6 1 3.10981 14.9877 3.10799 
13 1 5.61324 12.4887 5.60715 
22 1 4.01518 14.0807 4.01541 
29 1 4.70366 13.393 4.70334 
38 1 0.422199 14.6414 3.45502 
48 1 3.45368 17.6793 3.45383 
52 1 3.45354 14.6421 0.416661 
61 1 8.30609 12.8349 5.26158 
71 1 5.26114 9.79871 5.26232 
75 1 5.26125 12.8338 8.29719 
86 1 1.6127 14.7422 3.35371 
96 1 3.35459 16.4893 3.35443 
100 1 3.35419 14.7416 1.60658 
109 1 7.11448 12.7361 5.36233 
119 1 5.36201 10.9889 5.36207 
123 1 5.36213 12.734 7.10701 
7 1 3.10731 14.9887 14.9878 
16 1 5.60828 12.488 12.4869 
23 1 4.01337 14.0824 14.0818 
32 1 4.70182 13.3939 13.3933 
39 1 0.416262 14.6424 14.6413 
43 1 3.4536 17.6792 14.6413 
53 1 3.45339 14.6422 17.6784 
64 1 8.29933 12.8345 12.8344 
68 1 5.26145 9.79818 12.8344 
78 1 5.26153 12.8343 9.79688 
87 1 1.60691 14.7421 14.741 
91 1 3.35386 16.489 14.741 
101 1 3.35356 14.742 16.4881 
112 1 7.10997 12.7354 12.735 
116 1 5.36098 10.9879 12.7344 
126 1 5.36092 12.7347 10.9862 
8 1 14.9883 3.11045 3.10789 
15 1 12.4893 5.61456 5.60687 
24 1 14.0805 4.01544 4.01515 
31 1 13.3931 4.7026 4.70241 
40 1 17.6792 3.45345 3.45377 
44 1 14.6419 0.419317 3.45475 
54 1 14.6421 3.45341 0.416713 
63 1 9.79991 5.26114 5.26272 
67 1 12.8336 8.30687 5.26114 
77 1 12.8332 5.26114 8.2964 
88 1 16.4889 3.3544 3.35419 
92 1 14.7421 1.60871 3.35456 
102 1 14.7417 3.35434 1.60684 
111 1 10.9887 5.36176 5.36257 
115 1 12.7349 7.11478 5.36177 
125 1 12.7334 5.36172 7.10729 
5 1 14.9884 3.1068 14.988 
14 1 12.4879 5.60783 12.488 
21 1 14.0823 4.0132 14.0818 
30 1 13.3942 4.70168 13.3937 
37 1 17.6794 3.45365 14.6414 
47 1 14.6425 0.416223 14.6413 
51 1 14.6425 3.45371 17.6783 
62 1 9.79739 5.26142 12.8346 
72 1 12.8344 8.30001 12.8343 
76 1 12.8347 5.26184 9.79569 
85 1 16.4889 3.3538 14.7411 
95 1 14.742 1.60657 14.7409 
99 1 14.7421 3.35395 16.4881 
110 1 10.9881 5.36124 12.7348 
120 1 12.7347 7.10851 12.7346 
124 1 12.7352 5.36128 10.987 
3 1 15.0044 14.988 3.11114 
12 1 12.4119 12.4012 5.70736 
19 1 13.9133 14.0982 3.8828 
28 1 13.4344 13.3577 4.77466 
35 1 17.6846 14.641 3.45654 
45 1 14.6411 17.6776 3.45305 
55 1 14.6408 14.6446 0.421429 
60 1 9.79644 12.825 5.26732 
70 1 12.8348 9.79055 5.25903 
80 1 12.838 12.8395 8.31277 
83 1 16.4941 14.7391 3.3604 
93 1 14.7454 16.4901 3.353 
103 1 14.7459 14.7478 1.60921 
108 1 10.9788 12.6814 5.4334 
118 1 12.7196 10.9877 5.3871 
128 1 12.7227 12.7162 7.11448 
129 2 12.4529 13.6081 3.75289 
2 1 14.9888 14.9886 14.9842 
9 1 12.4886 12.4883 12.4848 
18 1 14.081 14.0817 14.0807 
25 1 13.3924 13.3935 13.3948 
34 1 17.6793 14.6422 14.6416 
42 1 14.6422 17.6791 14.6415 
50 1 14.6421 14.6419 17.6768 
57 1 9.7999 12.8329 12.8349 
65 1 12.8331 9.79945 12.8352 
73 1 12.8351 12.8357 9.79279 
82 1 16.4893 14.7419 14.7405 
90 1 14.7418 16.489 14.7404 
98 1 14.7418 14.7413 16.4876 
105 1 10.9883 12.732 12.7352 
113 1 12.7327 10.9882 12.7362 
121 1 12.735 12.7342 10.986 
ITEM: TIMESTEP
40
ITEM: NUMBER OF ATOMS
129
ITEM: BOX BOUNDS pp pp pp
0.0000000000000000e+00 1.8762000000000000e+01
0.0000000000000000e+00 1.8762000000000000e+01
0.0000000000000000e+00 1.8760999999999999e+01
ITEM: ATOMS id type x y z 
1 1 3.10694 3.10712 3.10783 
10 1 5.60879 5.60845 5.60769 
17 1 4.01336 4.01354 4.014 
26 1 4.70217 4.70219 4.7023 
33 1 0.416234 3.45273 3.453 
41 1 3.45257 0.416762 3.45323 
49 1 3.45299 3.45305 0.417269 
58 1 8.29914 5.26226 5.26233 
66 1 5.26248 8.29891 5.26218 
74 1 5.26209 5.26206 8.29779 
81 1 1.60624 3.35287 3.35335 
89 1 3.35249 1.60673 3.35341 
97 1 3.35326 3.35327 1.60725 
106 1 7.10925 5.36258 5.36198 
114 1 5.36278 7.10897 5.36174 
122 1 5.36226 5.36207 7.10779 
4 1 3.1067 3.10718 14.9884 
11 1 5.60797 5.60837 12.4875 
20 1 4.01346 4.01347 14.0824 
27 1 4.70155 4.70166 13.3936 
36 1 0.416692 3.45279 14.6423 
46 1 3.45279 0.416308 14.6424 
56 1 3.45296 3.45295 17.679 
59 1 8.29843 5.26217 12.8341 
69 1 5.26227 8.29868 12.8339 
79 1 5.26198 5.26206 9.79709 
84 1 1.60664 3.35286 14.7424 
94 1 3.35296 1.60633 14.7424 
104 1 3.35322 3.35314 16.489 
107 1 7.10837 5.36202 12.7342 
117 1 5.36208 7.10874 12.7339 
127 1 5.36167 5.36192 10.987 
6 1 3.10887 14.9881 3.10782 
13 1 5.61214 12.4892 5.60732 
22 1 4.01516 14.0812 4.01488 
29 1 4.70359 13.3938 4.70266 
38 1 0.417701 14.6425 3.45388 
48 1 3.45291 17.6789 3.45324 
52 1 3.45272 14.6427 0.416987 
61 1 8.29866 12.8363 5.25962 
71 1 5.26171 9.79819 5.26302 
75 1 5.26174 12.833 8.29767 
86 1 1.6088 14.7428 3.35312 
96 1 3.35397 16.4892 3.3535 
100 1 3.35363 14.7425 1.60671 
109 1 7.10779 12.7341 5.36305 
119 1 5.36362 10.9879 5.36277 
123 1 5.36356 12.7334 7.10783 
7 1 3.10706 14.9887 14.9878 
16 1 5.60858 12.4878 12.4871 
23 1 4.01348 14.0824 14.0816 
32 1 4.70212 13.394 13.3932 
39 1 0.41638 14.6431 14.6421 
43 1 3.45289 17.6793 14.642 
53 1 3.4527 14.6429 17.6781 
64 1 8.2987 12.8338 12.8339 
68 1 5.26206 9.79784 12.8337 
78 1 5.26198 12.8335 9.79676 
87 1 1.60641 14.743 14.7418 
91 1 3.35292 16.4892 14.742 
101 1 3.35278 14.743 16.4882 
112 1 7.10861 12.7344 12.7337 
116 1 5.36203 10.9879 12.7334 
126 1 5.3621 12.7339 10.9867 
8 1 14.9884 3.10771 3.10761 
15 1 12.4898 5.61379 5.60671 
24 1 14.0813 4.01494 4.01448 
31 1 13.3943 4.70238 4.70133 
40 1 17.6784 3.45269 3.45294 
44 1 14.6428 0.414574 3.45318 
54 1 14.643 3.45264 0.417352 
63 1 9.79878 5.26136 5.26366 
67 1 12.8346 8.3001 5.2598 
77 1 12.8323 5.26138 8.29728 
88 1 16.4887 3.35355 3.35299 
92 1 14.7429 1.60496 3.35388 
102 1 14.7429 3.35347 1.60716 
111 1 10.9885 5.36355 5.36322 
115 1 12.7326 7.10852 5.36313 
125 1 12.7328 5.3635 7.1076 
5 1 14.9887 3.10669 14.9878 
14 1 12.4883 5.60818 12.4874 
21 1 14.0821 4.0134 14.0817 
30 1 13.394 4.70173 13.3937 
37 1 17.679 3.45292 14.6421 
47 1 14.6431 0.416326 14.642 
51 1 14.6431 3.45293 17.6787 
62 1 9.79764 5.26219 12.8339 
72 1 12.8335 8.29821 12.8337 
76 1 12.8337 5.26245 9.79704 
85 1 16.4892 3.35291 14.742 
95 1 14.743 1.60633 14.742 
99 1 14.743 3.35289 16.4886 
110 1 10.9875 5.36225 12.7337 
120 1 12.7338 7.1083 12.7333 
124 1 12.7341 5.36261 10.987 
3 1 15.0213 15.0079 3.09326 
12 1 12.4211 12.4187 5.69635 
19 1 13.8629 14.0856 3.86933 
28 1 13.4567 13.3513 4.80153 
35 1 17.6864 14.6417 3.4566 
45 1 14.6431 17.6785 3.45161 
55 1 14.6428 14.6471 0.418704 
60 1 9.79345 12.823 5.279 
70 1 12.8369 9.794 5.26019 
80 1 12.8408 12.8394 8.3099 
83 1 16.4909 14.7392 3.36115 
93 1 14.751 16.4866 3.35119 
103 1 14.7528 14.7521 1.60997 
108 1 10.9716 12.65 5.46444 
118 1 12.7075 10.9862 5.396 
128 1 12.7113 12.7071 7.11625 
129 2 12.491 13.6474 3.69118 
2 1 14.9891 14.9892 14.9889 
9 1 12.4896 12.4894 12.4856 
18 1 14.082 14.0824 14.0819 
25 1 13.3941 13.3951 13.3956 
34 1 17.6785 14.6431 14.6423 
42 1 14.643 17.6782 14.6422 
50 1 14.643 14.6435 17.6824 
57 1 9.798 12.8318 12.8351 
65 1 12.832 9.79743 12.8355 
73 1 12.8365 12.8374 9.80179 
82 1 16.4888 14.7431 14.7414 
90 1 14.7431 16.4885 14.7414 
98 1 14.7429 14.7421 16.4919 
105 1 10.9875 12.7319 12.7337 
113 1 12.7327 10.9871 12.7346 
121 1 12.7327 12.7327 10.9935 
ITEM: TIMESTEP
50
ITEM: NUMBER OF ATOMS
129
ITEM: BOX BOUNDS pp pp pp
0.0000000000000000e+00 1.8762000000000000e+01
0.0000000000000000e+00 1.8762000000000000e+01
0.0000000000000000e+00 1.8760999999999999e+01
ITEM: ATOMS id type x y z 
1 1 3.10692 3.1072 3.10785 
10 1 5.60872 5.60847 5.60773 
17 1 4.01322 4.01339 4.01375 
26 1 4.70222 4.70219 4.70226 
33 1 0.416099 3.4525 3.45284 
41 1 3.45235 0.416646 3.45306 
49 1 3.45283 3.45286 0.417251 
58 1 8.29924 5.26237 5.26255 
66 1 5.2626 8.29885 5.26236 
74 1 5.26227 5.26222 8.29794 
81 1 1.60613 3.35269 3.35318 
89 1 3.35232 1.60662 3.35323 
97 1 3.35303 3.35306 1.60734 
106 1 7.10925 5.36276 5.36215 
114 1 5.36297 7.1088 5.36195 
122 1 5.36245 5.36226 7.10784 
4 1 3.10688 3.107 14.9885 
11 1 5.60801 5.60832 12.4875 
20 1 4.01308 4.01318 14.0825 
27 1 4.7019 4.70203 13.3935 
36 1 0.41647 3.45261 14.6425 
46 1 3.45262 0.416446 14.6425 
56 1 3.4528 3.45277 17.679 
59 1 8.29833 5.26234 12.8339 
69 1 5.26243 8.29869 12.8338 
79 1 5.26214 5.26223 9.79702 
84 1 1.60651 3.35268 14.7426 
94 1 3.35272 1.60648 14.7426 
104 1 3.35296 3.35294 16.4889 
107 1 7.10829 5.36225 12.7339 
117 1 5.36231 7.1086 12.7337 
127 1 5.36191 5.36216 10.9871 
6 1 3.10755 14.9881 3.10785 
13 1 5.61175 12.4888 5.60773 
22 1 4.01434 14.0822 4.014 
29 1 4.70382 13.3937 4.70265 
38 1 0.417532 14.6428 3.4536 
48 1 3.45277 17.6789 3.45299 
52 1 3.45258 14.6429 0.416997 
61 1 8.29945 12.8368 5.25966 
71 1 5.26199 9.79808 5.2631 
75 1 5.26196 12.8329 8.29783 
86 1 1.60879 14.7431 3.3528 
96 1 3.35373 16.489 3.35321 
100 1 3.35341 14.7427 1.60684 
109 1 7.10821 12.734 5.36262 
119 1 5.3637 10.9878 5.36292 
123 1 5.36368 12.7333 7.10804 
7 1 3.10702 14.9887 14.9877 
16 1 5.60844 12.4879 12.4871 
23 1 4.01329 14.0827 14.0818 
32 1 4.70223 13.3939 13.3931 
39 1 0.416214 14.6433 14.6423 
43 1 3.45272 17.6792 14.6422 
53 1 3.4525 14.6431 17.6783 
64 1 8.29857 12.8336 12.8338 
68 1 5.26223 9.79773 12.8335 
78 1 5.26209 12.8334 9.79681 
87 1 1.60622 14.7431 14.742 
91 1 3.35273 16.4891 14.7422 
101 1 3.35259 14.7431 16.4883 
112 1 7.10852 12.7342 12.7334 
116 1 5.36224 10.9878 12.7333 
126 1 5.36232 12.7337 10.9869 
8 1 14.9883 3.10642 3.10768 
15 1 12.4894 5.61288 5.607 
24 1 14.0826 4.01357 4.01318 
31 1 13.3937 4.70337 4.70195 
40 1 17.6784 3.45258 3.45265 
44 1 14.6431 0.413898 3.45278 
54 1 14.6433 3.45254 0.417475 
63 1 9.79868 5.26165 5.26376 
67 1 12.8349 8.30125 5.25978 
77 1 12.8322 5.26166 8.29754 
88 1 16.4884 3.3532 3.35269 
92 1 14.7432 1.60446 3.35355 
102 1 14.7432 3.35313 1.60741 
111 1 10.9883 5.36369 5.36332 
115 1 12.7326 7.10983 5.36293 
125 1 12.7327 5.36367 7.10789 
5 1 14.9887 3.10675 14.9879 
14 1 12.4881 5.60817 12.4874 
21 1 14.0827 4.0129 14.0822 
30 1 13.3938 4.70201 13.3933 
37 1 17.6792 3.45273 14.6423 
47 1 14.6432 0.416058 14.6423 
51 1 14.6433 3.45269 17.6787 
62 1 9.7975 5.26237 12.8337 
72 1 12.8333 8.29813 12.8336 
76 1 12.8335 5.26255 9.79686 
85 1 16.4892 3.3527 14.7422 
95 1 14.7431 1.60602 14.7422 
99 1 14.7432 3.3527 16.4887 
110 1 10.9876 5.36244 12.7335 
120 1 12.7336 7.10807 12.733 
124 1 12.734 5.36279 10.9869 
3 1 15.022 15.0093 3.09114 
12 1 12.4278 12.424 5.69241 
19 1 13.8677 14.0857 3.87155 
28 1 13.4507 13.3518 4.79832 
35 1 17.6881 14.6414 3.45707 
45 1 14.6435 17.681 3.45187 
55 1 14.6432 14.6471 0.416642 
60 1 9.78909 12.8214 5.28332 
70 1 12.8362 9.79086 5.26066 
80 1 12.8405 12.8389 8.31435 
83 1 16.4928 14.7393 3.36139 
93 1 14.7521 16.4885 3.35053 
103 1 14.7544 14.7536 1.60856 
108 1 10.9677 12.6466 5.46484 
118 1 12.707 10.9831 5.39706 
128 1 12.7109 12.7064 7.12044 
129 2 12.4888 13.6473 3.68596 
2 1 14.989 14.9889 14.9902 
9 1 12.4891 12.4887 12.4867 
18 1 14.0831 14.0836 14.0835 
25 1 13.3938 13.3948 13.3948 
34 1 17.6786 14.6434 14.6423 
42 1 14.6433 17.6785 14.6422 
50 1 14.6432 14.6439 17.6826 
57 1 9.79784 12.8317 12.8348 
65 1 12.832 9.79736 12.8352 
73 1 12.8368 12.8375 9.80048 
82 1 16.4886 14.7434 14.7418 
90 1 14.7434 16.4885 14.7418 
98 1 14.7432 14.7425 16.4923 
105 1 10.9875 12.7319 12.7335 
113 1 12.7326 10.9871 12.7344 
121 1 12.7327 12.7329 10.9923 
ITEM: TIMESTEP
60
ITEM: NUMBER OF ATOMS
129
ITEM: BOX BOUNDS pp pp pp
0.0000000000000000e+00 1.8762000000000000e+01
0.0000000000000000e+00 1.8762000000000000e+01
0.0000000000000000e+00 1.8760999999999999e+01
ITEM: ATOMS id type x y z 
1 1 3.10688 3.10721 3.10784 
10 1 5.60868 5.60842 5.60774 
17 1 4.01325 4.01341 4.01371 
26 1 4.70216 4.70215 4.70216 
33 1 0.416032 3.45236 3.45272 
41 1 3.45222 0.41661 3.45295 
49 1 3.45272 3.45274 0.417241 
58 1 8.29921 5.26245 5.26268 
66 1 5.26268 8.29879 5.26246 
74 1 5.26238 5.26232 8.29799 
81 1 1.60604 3.35258 3.35308 
89 1 3.35221 1.6066 3.35312 
97 1 3.35291 3.35294 1.60733 
106 1 7.10921 5.36287 5.36226 
114 1 5.36307 7.10874 5.36207 
122 1 5.36256 5.36238 7.10789 
4 1 3.10693 3.10697 14.9885 
11 1 5.60801 5.60829 12.4875 
20 1 4.01312 4.01325 14.0823 
27 1 4.7018 4.70198 13.3937 
36 1 0.416449 3.4525 14.6426 
46 1 3.45251 0.416433 14.6427 
56 1 3.45268 3.45266 17.679 
59 1 8.29835 5.26245 12.8338 
69 1 5.26253 8.29866 12.8336 
79 1 5.26224 5.26234 9.79702 
84 1 1.60648 3.35256 14.7428 
94 1 3.3526 1.60647 14.7427 
104 1 3.35284 3.35282 16.4889 
107 1 7.10829 5.36237 12.7338 
117 1 5.36243 7.10859 12.7336 
127 1 5.36204 5.36228 10.9871 
6 1 3.10706 14.9881 3.10783 
13 1 5.61178 12.4886 5.6078 
22 1 4.01435 14.0822 4.01401 
29 1 4.70364 13.3941 4.70233 
38 1 0.417552 14.6429 3.4535 
48 1 3.45271 17.6789 3.45283 
52 1 3.45251 14.6431 0.417012 
61 1 8.29872 12.8371 5.2597 
71 1 5.26214 9.79802 5.26316 
75 1 5.26209 12.8329 8.29791 
86 1 1.60905 14.7432 3.35264 
96 1 3.35358 16.4891 3.35308 
100 1 3.35327 14.7429 1.60681 
109 1 7.10735 12.734 5.36246 
119 1 5.36374 10.9877 5.36305 
123 1 5.36374 12.7332 7.10809 
7 1 3.107 14.9887 14.9877 
16 1 5.60838 12.4879 12.4872 
23 1 4.0133 14.0827 14.0817 
32 1 4.70211 13.394 13.3931 
39 1 0.41615 14.6434 14.6425 
43 1 3.4526 17.6792 14.6424 
53 1 3.45237 14.6432 17.6783 
64 1 8.29852 12.8335 12.8337 
68 1 5.26233 9.79767 12.8334 
78 1 5.26218 12.8333 9.79689 
87 1 1.60618 14.7432 14.7421 
91 1 3.35261 16.4892 14.7423 
101 1 3.35248 14.7432 16.4883 
112 1 7.10846 12.7341 12.7333 
116 1 5.36236 10.9878 12.7332 
126 1 5.36243 12.7335 10.987 
8 1 14.9883 3.1058 3.10774 
15 1 12.4893 5.61286 5.60709 
24 1 14.0823 4.01359 4.01345 
31 1 13.3942 4.7032 4.70145 
40 1 17.6783 3.45251 3.45246 
44 1 14.6432 0.413813 3.45263 
54 1 14.6434 3.45248 0.417556 
63 1 9.79872 5.26181 5.26383 
67 1 12.8351 8.30092 5.25969 
77 1 12.8321 5.26183 8.29752 
88 1 16.4885 3.35301 3.35256 
92 1 14.7433 1.60474 3.3533 
102 1 14.7433 3.35293 1.60735 
111 1 10.9883 5.36376 5.36347 
115 1 12.7325 7.10938 5.36293 
125 1 12.7326 5.36375 7.10786 
5 1 14.9887 3.10671 14.988 
14 1 12.488 5.60809 12.4875 
21 1 14.0826 4.013 14.0821 
30 1 13.394 4.70182 13.3935 
37 1 17.6792 3.4526 14.6424 
47 1 14.6434 0.416015 14.6424 
51 1 14.6434 3.45254 17.6788 
62 1 9.79744 5.26248 12.8336 
72 1 12.8332 8.29808 12.8336 
76 1 12.8334 5.26262 9.79688 
85 1 16.4892 3.35258 14.7423 
95 1 14.7432 1.60602 14.7423 
99 1 14.7433 3.35258 16.4888 
110 1 10.9875 5.36253 12.7334 
120 1 12.7335 7.10804 12.7329 
124 1 12.7338 5.36289 10.9869 
3 1 15.0224 15.01 3.09046 
12 1 12.4297 12.4253 5.69154 
19 1 13.8683 14.086 3.87101 
28 1 13.4482 13.3523 4.7969 
35 1 17.6886 14.6412 3.45737 
45 1 14.6437 17.6812 3.45199 
55 1 14.6434 14.6472 0.416112 
60 1 9.78823 12.8201 5.28537 
70 1 12.8359 9.79044 5.26094 
80 1 12.8404 12.8387 8.31511 
83 1 16.4928 14.7395 3.36129 
93 1 14.7529 16.4889 3.34996 
103 1 14.7554 14.7546 1.60816 
108 1 10.9671 12.6447 5.46621 
118 1 12.7065 10.9827 5.39797 
128 1 12.7104 12.7056 7.12122 
129 2 12.4902 13.6486 3.68242 
2 1 14.989 14.9889 14.9908 
9 1 12.4889 12.4886 12.4867 
18 1 14.083 14.0834 14.0836 
25 1 13.3942 13.3952 13.3949 
34 1 17.6785 14.6436 14.6423 
42 1 14.6435 17.6784 14.6423 
50 1 14.6433 14.644 17.6829 
57 1 9.7978 12.8317 12.8347 
65 1 12.8319 9.79733 12.8351 
73 1 12.837 12.8377 9.80117 
82 1 16.4887 14.7435 14.742 
90 1 14.7435 16.4886 14.742 
98 1 14.7434 14.7427 16.4919 
105 1 10.9874 12.7318 12.7335 
113 1 12.7325 10.9871 12.7344 
121 1 12.7326 12.7329 10.9931 
ITEM: TIMESTEP
62
ITEM: NUMBER OF ATOMS
129
ITEM: BOX BOUNDS pp pp pp
0.0000000000000000e+00 1.8762000000000000e+01
0.0000000000000000e+00 1.8762000000000000e+01
0.0000000000000000e+00 1.8760999999999999e+01
ITEM: ATOMS id type x y z 
1 1 3.10688 3.10721 3.10784 
10 1 5.60868 5.60842 5.60774 
17 1 4.01325 4.01341 4.01371 
26 1 4.70216 4.70215 4.70216 
33 1 0.416032 3.45236 3.45272 
41 1 3.45222 0.41661 3.45295 
49 1 3.45272 3.45274 0.417241 
58 1 8.29921 5.26245 5.26268 
66 1 5.26268 8.29879 5.26246 
74 1 5.26238 5.26232 8.29799 
81 1 1.60604 3.35258 3.35308 
89 1 3.35221 1.6066 3.35312 
97 1 3.35291 3.35294 1.60733 
106 1 7.10921 5.36287 5.36226 
114 1 5.36307 7.10874 5.36207 
122 1 5.36256 5.36238 7.10789 
4 1 3.10693 3.10697 14.9885 
11 1 5.60801 5.60829 12.4875 
20 1 4.01312 4.01325 14.0823 
27 1 4.7018 4.70198 13.3937 
36 1 0.416449 3.4525 14.6426 
46 1 3.45251 0.416433 14.6427 
56 1 3.45268 3.45266 17.679 
59 1 8.29835 5.26245 12.8338 
69 1 5.26253 8.29866 12.8336 
79 1 5.26224 5.26234 9.79702 
84 1 1.60648 3.35256 14.7428 
94 1 3.3526 1.60647 14.7427 
104 1 3.35284 3.35282 16.4889 
107 1 7.10829 5.36237 12.7338 
117 1 5.36243 7.10859 12.7336 
127 1 5.36204 5.36228 10.9871 
6 1 3.10706 14.9881 3.10783 
13 1 5.61178 12.4886 5.6078 
22 1 4.01435 14.0822 4.01401 
29 1 4.70364 13.3941 4.70233 
38 1 0.417552 14.6429 3.4535 
48 1 3.45271 17.6789 3.45283 
52 1 3.45251 14.6431 0.417012 
61 1 8.29872 12.8371 5.2597 
71 1 5.26214 9.79802 5.26316 
75 1 5.26209 12.8329 8.29791 
86 1 1.60905 14.7432 3.35264 
96 1 3.35358 16.4891 3.35308 
100 1 3.35327 14.7429 1.60681 
109 1 7.10735 12.734 5.36246 
119 1 5.36374 10.9877 5.36305 
123 1 5.36374 12.7332 7.10809 
7 1 3.107 14.9887 14.9877 
16 1 5.60838 12.4879 12.4872 
23 1 4.0133 14.0827 14.0817 
32 1 4.70211 13.394 13.3931 
39 1 0.416151 14.6434 14.6425 
43 1 3.4526 17.6792 14.6424 
53 1 3.45237 14.6432 17.6783 
64 1 8.29852 12.8335 12.8337 