ITEM: TIMESTEP
0
ITEM: NUMBER OF ATOMS
51
ITEM: BOX BOUNDS pp pp pp
0.0000000000000000e+00 1.1000000000000000e+01
0.0000000000000000e+00 1.1002000000000001e+01
0.0000000000000000e+00 1.1000000000000000e+01
ITEM: ATOMS id type x y z 
10 1 4.603 4.603 4.603 
11 1 3.085 3.085 3.085 
12 1 3.796 3.796 3.796 
46 1 0.726 0.725 0.725 
47 1 2.26 2.259 2.26 
48 1 1.551 1.55 1.55 
19 1 4.546 4.545 6.226 
20 1 3.013 3.013 7.764 
21 1 3.721 3.721 7.053 
31 1 0.668 0.667 10.103 
32 1 2.187 2.187 8.589 
33 1 1.476 1.475 9.298 
16 1 4.546 6.225 4.546 
17 1 3.013 7.765 3.013 
18 1 3.721 7.053 3.722 
25 1 0.668 10.103 0.668 
26 1 2.188 8.589 2.188 
27 1 1.476 9.298 1.476 
4 1 4.608 6.169 6.169 
5 1 3.086 7.684 7.684 
6 1 3.799 6.974 6.974 
37 1 0.729 10.046 10.046 
38 1 2.259 8.509 8.508 
39 1 1.552 9.219 9.219 
13 1 6.225 4.546 4.546 
14 1 7.764 3.013 3.013 
15 1 7.053 3.721 3.722 
28 1 10.102 0.667 0.668 
29 1 8.589 2.187 2.188 
30 1 9.298 1.475 1.476 
1 1 6.168 4.608 6.169 
2 1 7.684 3.086 7.684 
3 1 6.974 3.799 6.974 
40 1 10.045 0.728 10.046 
41 1 8.508 2.259 8.508 
42 1 9.218 1.551 9.218 
7 1 6.169 6.169 4.608 
8 1 7.684 7.684 3.086 
9 1 6.974 6.974 3.799 
43 1 10.046 10.047 0.729 
44 1 8.508 8.509 2.259 
45 1 9.219 9.219 1.552 
22 1 6.229 6.229 6.229 
23 1 7.764 7.765 7.765 
24 1 7.055 7.056 7.055 
34 1 10.108 10.108 10.107 
35 1 8.59 8.59 8.59 
36 1 9.301 9.301 9.3 
49 2 8.821 10.52 10.029 
50 2 7.482 10.702 9.369 
51 3 7.018 10.699 10.238 
ITEM: TIMESTEP
10
ITEM: NUMBER OF ATOMS
51
ITEM: BOX BOUNDS pp pp pp
0.0000000000000000e+00 1.1000000000000000e+01
0.0000000000000000e+00 1.1002000000000001e+01
0.0000000000000000e+00 1.1000000000000000e+01
ITEM: ATOMS id type x y z 
10 1 4.60444 4.60447 4.60404 
11 1 3.08558 3.08547 3.08577 
12 1 3.79653 3.79664 3.79607 
46 1 0.725784 0.726373 0.734418 
47 1 2.26101 2.26001 2.26009 
48 1 1.54971 1.54818 1.55031 
19 1 4.54556 4.54568 6.22635 
20 1 3.01399 3.0141 7.76285 
21 1 3.72262 3.72211 7.05208 
31 1 0.677251 0.646336 10.0939 
32 1 2.18974 2.192 8.58653 
33 1 1.48398 1.47559 9.29137 
16 1 4.54589 6.22529 4.54676 
17 1 3.01288 7.76439 3.01336 
18 1 3.72128 7.0534 3.72132 
25 1 0.658759 10.0942 0.645247 
26 1 2.18605 8.59163 2.18733 
27 1 1.47639 9.29651 1.47339 
4 1 4.60301 6.16853 6.16783 
5 1 3.08428 7.68586 7.68579 
6 1 3.79651 6.97574 6.97582 
37 1 0.767232 10.06 10.065 
38 1 2.25207 8.51279 8.512 
39 1 1.55339 9.22807 9.22829 
13 1 6.22595 4.54549 4.54545 
14 1 7.76386 3.01314 3.01337 
15 1 7.05273 3.72152 3.72163 
28 1 10.1033 0.656265 0.676711 
29 1 8.58754 2.18955 2.18787 
30 1 9.29657 1.47301 1.48155 
1 1 6.16852 4.60186 6.16908 
2 1 7.68279 3.08627 7.68332 
3 1 6.97277 3.79968 6.97256 
40 1 10.1104 0.839814 10.0525 
41 1 8.50226 2.26098 8.50272 
42 1 9.22936 1.57173 9.21686 
7 1 6.16793 6.16788 4.60339 
8 1 7.6847 7.68478 3.08548 
9 1 6.97401 6.97404 3.79771 
43 1 10.0658 10.0619 0.775145 
44 1 8.50706 8.50843 2.25629 
45 1 9.22491 9.22398 1.5579 
22 1 6.23367 6.2342 6.23315 
23 1 7.75067 7.75529 7.75722 
24 1 7.04111 7.04306 7.04416 
34 1 10.0331 10.0919 10.0979 
35 1 8.56809 8.54706 8.5533 
36 1 9.36343 9.1885 9.22768 
49 2 8.7217 10.557 10.1094 
50 2 7.46584 10.7051 9.37378 
51 3 7.06113 10.6961 10.23 
ITEM: TIMESTEP
20
ITEM: NUMBER OF ATOMS
51
ITEM: BOX BOUNDS pp pp pp
0.0000000000000000e+00 1.1000000000000000e+01
0.0000000000000000e+00 1.1002000000000001e+01
0.0000000000000000e+00 1.1000000000000000e+01
ITEM: ATOMS id type x y z 
10 1 4.60178 4.59773 4.59591 
11 1 3.08629 3.07949 3.08531 
12 1 3.79167 3.80356 3.79075 
46 1 0.728989 0.731627 0.760232 
47 1 2.26257 2.26052 2.25774 
48 1 1.54418 1.54526 1.55716 
19 1 4.5427 4.54793 6.22969 
20 1 3.01415 3.01841 7.76415 
21 1 3.72412 3.71996 7.04723 
31 1 0.676549 0.646824 10.0825 
32 1 2.1955 2.19443 8.58782 
33 1 1.48596 1.46905 9.28242 
16 1 4.54052 6.22756 4.54652 
17 1 3.00849 7.76502 3.01408 
18 1 3.7249 7.05774 3.71766 
25 1 0.663943 10.0913 0.636919 
26 1 2.18516 8.59497 2.18933 
27 1 1.47679 9.28806 1.46307 
4 1 4.57613 6.17195 6.16475 
5 1 3.07964 7.69241 7.69222 
6 1 3.78245 6.97674 6.9753 
37 1 0.792343 10.0609 10.0758 
38 1 2.25253 8.51287 8.51088 
39 1 1.56865 9.23164 9.23823 
13 1 6.22712 4.54112 4.543 
14 1 7.76441 3.00813 3.01157 
15 1 7.0586 3.72406 3.71591 
28 1 10.1155 0.659216 0.667795 
29 1 8.5873 2.18344 2.18272 
30 1 9.30655 1.47234 1.48472 
1 1 6.16689 4.58069 6.16296 
2 1 7.68459 3.08298 7.68843 
3 1 6.97176 3.78678 6.96915 
40 1 10.1323 0.893692 10.0723 
41 1 8.50473 2.25914 8.50273 
42 1 9.25906 1.60767 9.22336 
7 1 6.16356 6.16441 4.57814 
8 1 7.68803 7.6883 3.08351 
9 1 6.97129 6.97201 3.78618 
43 1 10.0664 10.0746 0.811225 
44 1 8.50744 8.50674 2.25606 
45 1 9.23118 9.23318 1.57552 
22 1 6.21237 6.22031 6.21668 
23 1 7.71695 7.73639 7.73389 
24 1 7.02914 7.02672 7.02955 
34 1 10.0382 10.1357 10.1213 
35 1 8.60832 8.5178 8.54053 
36 1 9.37948 9.1714 9.22382 
49 2 8.68165 10.531 10.1434 
50 2 7.44803 10.7102 9.35668 
51 3 7.04599 10.6981 10.2452 
ITEM: TIMESTEP
30
ITEM: NUMBER OF ATOMS
51
ITEM: BOX BOUNDS pp pp pp
0.0000000000000000e+00 1.1000000000000000e+01
0.0000000000000000e+00 1.1002000000000001e+01
0.0000000000000000e+00 1.1000000000000000e+01
ITEM: ATOMS id type x y z 
10 1 4.59887 4.59971 4.59276 
11 1 3.08307 3.08385 3.08183 
12 1 3.7963 3.7958 3.79254 
46 1 0.732164 0.730169 0.763782 
47 1 2.26314 2.26137 2.26158 
48 1 1.54619 1.54525 1.55964 
19 1 4.54045 4.54346 6.2247 
20 1 3.01492 3.01573 7.76301 
21 1 3.72259 3.72499 7.05024 
31 1 0.675443 0.645545 10.0802 
32 1 2.19873 2.19333 8.58489 
33 1 1.48848 1.47181 9.28237 
16 1 4.53862 6.22805 4.54067 
17 1 3.01005 7.76854 3.01197 
18 1 3.71868 7.05668 3.71861 
25 1 0.664145 10.0893 0.637425 
26 1 2.1868 8.59137 2.18765 
27 1 1.47673 9.28806 1.46626 
4 1 4.57181 6.1703 6.16321 
5 1 3.07728 7.69188 7.69098 
6 1 3.7792 6.97609 6.97385 
37 1 0.793123 10.0662 10.0774 
38 1 2.25319 8.51462 8.51523 
39 1 1.57321 9.23774 9.24341 
13 1 6.22718 4.54015 4.53819 
14 1 7.76667 3.00962 3.00906 
15 1 7.0553 3.71902 3.71601 
28 1 10.1231 0.664195 0.673696 
29 1 8.58862 2.18294 2.18693 
30 1 9.30408 1.47459 1.48146 
1 1 6.16473 4.57711 6.15964 
2 1 7.68232 3.07965 7.68652 
3 1 6.96993 3.78343 6.9677 
40 1 10.1369 0.895934 10.075 
41 1 8.51222 2.26363 8.50326 
42 1 9.26927 1.62114 9.23211 
7 1 6.16179 6.16196 4.57427 
8 1 7.68693 7.68744 3.08095 
9 1 6.97061 6.97045 3.78226 
43 1 10.0704 10.0771 0.80995 
44 1 8.50986 8.50972 2.2574 
45 1 9.23633 9.23915 1.5827 
22 1 6.2061 6.21155 6.20925 
23 1 7.7296 7.73714 7.73853 
24 1 7.01997 7.03054 7.02717 
34 1 10.0202 10.1365 10.1192 
35 1 8.62415 8.5022 8.53418 
36 1 9.37731 9.17805 9.22791 
49 2 8.69005 10.5157 10.1523 
50 2 7.43309 10.7127 9.36159 
51 3 7.03317 10.7006 10.2405 
ITEM: TIMESTEP
40
ITEM: NUMBER OF ATOMS
51
ITEM: BOX BOUNDS pp pp pp
0.0000000000000000e+00 1.1000000000000000e+01
0.0000000000000000e+00 1.1002000000000001e+01
0.0000000000000000e+00 1.1000000000000000e+01
ITEM: ATOMS id type x y z 
10 1 4.5955 4.59812 4.58561 
11 1 3.08095 3.08464 3.07954 
12 1 3.79925 3.79478 3.78831 
46 1 0.737747 0.733764 0.778507 
47 1 2.26218 2.26119 2.26778 
48 1 1.54795 1.54336 1.5662 
19 1 4.53652 4.5413 6.21618 
20 1 3.01727 3.01678 7.76525 
21 1 3.72097 3.72639 7.04604 
31 1 0.684771 0.628728 10.072 
32 1 2.20515 2.19381 8.57979 
33 1 1.49919 1.46697 9.27799 
16 1 4.53282 6.22392 4.53472 
17 1 3.00922 7.77009 3.01209 
18 1 3.71375 7.05501 3.71729 
25 1 0.666105 10.0828 0.623863 
26 1 2.19091 8.58788 2.18673 
27 1 1.47958 9.28188 1.46419 
4 1 4.56413 6.17297 6.15967 
5 1 3.06869 7.69376 7.69142 
6 1 3.76886 6.9774 6.97303 
37 1 0.806415 10.0809 10.0836 
38 1 2.25858 8.52446 8.53063 
39 1 1.5766 9.25147 9.25585 
13 1 6.22454 4.53626 4.53232 
14 1 7.767 3.0062 3.00741 
15 1 7.05184 3.71418 3.7121 
28 1 10.1466 0.678983 0.686124 
29 1 8.58847 2.18334 2.18738 
30 1 9.31321 1.48055 1.48583 
1 1 6.16335 4.57103 6.15319 
2 1 7.67957 3.07068 7.67996 
3 1 6.96437 3.77437 6.96357 
40 1 10.1338 0.905765 10.0843 
41 1 8.53165 2.2921 8.50697 
42 1 9.28809 1.6529 9.24442 
7 1 6.15921 6.15902 4.5638 
8 1 7.68494 7.68565 3.07125 
9 1 6.96986 6.96952 3.77521 
43 1 10.0742 10.082 0.813185 
44 1 8.51863 8.51921 2.27115 
45 1 9.24395 9.24968 1.59395 
22 1 6.19089 6.20785 6.20184 
23 1 7.7493 7.71981 7.72995 
24 1 7.01135 7.02849 7.02535 
34 1 9.91472 10.1794 10.1394 
35 1 8.65488 8.45343 8.50329 
36 1 9.3747 9.15791 9.21114 
49 2 8.74471 10.4752 10.1944 
50 2 7.38871 10.7218 9.35746 
51 3 7.01735 10.7043 10.2408 
ITEM: TIMESTEP
50
ITEM: NUMBER OF ATOMS
51
ITEM: BOX BOUNDS pp pp pp
0.0000000000000000e+00 1.1000000000000000e+01
0.0000000000000000e+00 1.1002000000000001e+01
0.0000000000000000e+00 1.1000000000000000e+01
ITEM: ATOMS id type x y z 
10 1 4.59463 4.59649 4.58484 
11 1 3.08152 3.0839 3.07879 
12 1 3.79786 3.79486 3.78857 
46 1 0.736237 0.734485 0.777505 
47 1 2.26486 2.2624 2.27003 
48 1 1.5458 1.54426 1.56857 
19 1 4.53666 4.54228 6.21635 
20 1 3.01867 3.01835 7.76266 
21 1 3.72174 3.72699 7.04642 
31 1 0.682792 0.619808 10.0663 
32 1 2.20601 2.19238 8.58382 
33 1 1.49883 1.46171 9.27232 
16 1 4.53261 6.22465 4.53475 
17 1 3.00766 7.76989 3.01139 
18 1 3.71559 7.05546 3.71785 
25 1 0.663275 10.0741 0.615427 
26 1 2.18934 8.58972 2.18628 
27 1 1.4797 9.27836 1.45819 
4 1 4.56331 6.17472 6.16204 
5 1 3.0661 7.69565 7.69339 
6 1 3.76549 6.97903 6.97597 
37 1 0.814265 10.0864 10.085 
38 1 2.25731 8.52748 8.53271 
39 1 1.58216 9.25619 9.26059 
13 1 6.2264 4.53746 4.53232 
14 1 7.76497 3.00466 3.00641 
15 1 7.05215 3.7152 3.71235 
28 1 10.1518 0.682571 0.687104 
29 1 8.58859 2.18349 2.18814 
30 1 9.31718 1.48327 1.48806 
1 1 6.16085 4.56995 6.1524 
2 1 7.68135 3.07271 7.67872 
3 1 6.96389 3.77374 6.96298 
40 1 10.1373 0.900734 10.0826 
41 1 8.53806 2.29793 8.51369 
42 1 9.29122 1.65347 9.24282 
7 1 6.15992 6.15907 4.56348 
8 1 7.68527 7.68639 3.07175 
9 1 6.97038 6.96911 3.7736 
43 1 10.0747 10.0795 0.80588 
44 1 8.52196 8.52407 2.27425 
45 1 9.24532 9.24906 1.5922 
22 1 6.18704 6.20978 6.20115 
23 1 7.74821 7.70638 7.71885 
24 1 7.01079 7.02425 7.02286 
34 1 9.87449 10.1912 10.1486 
35 1 8.67446 8.45109 8.50465 
36 1 9.37686 9.16161 9.21397 
49 2 8.75352 10.4668 10.2067 
50 2 7.37752 10.7243 9.35358 
51 3 7.01632 10.7047 10.2431 
ITEM: TIMESTEP
60
ITEM: NUMBER OF ATOMS
51
ITEM: BOX BOUNDS pp pp pp
0.0000000000000000e+00 1.1000000000000000e+01
0.0000000000000000e+00 1.1002000000000001e+01
0.0000000000000000e+00 1.1000000000000000e+01
ITEM: ATOMS id type x y z 
10 1 4.59504 4.59698 4.58439 
11 1 3.08254 3.08267 3.07856 
12 1 3.79599 3.79636 3.78854 
46 1 0.73405 0.735194 0.778129 
47 1 2.26409 2.2617 2.27003 
48 1 1.54534 1.54439 1.56894 
19 1 4.53586 4.54286 6.21654 
20 1 3.01878 3.01935 7.76301 
21 1 3.72254 3.72614 7.04526 
31 1 0.683468 0.61698 10.063 
32 1 2.20669 2.1915 8.58384 
33 1 1.49894 1.45976 9.27141 
16 1 4.53281 6.22521 4.53468 
17 1 3.009 7.76988 3.01254 
18 1 3.71503 7.05367 3.7178 
25 1 0.662999 10.0703 0.612677 
26 1 2.18858 8.58937 2.18594 
27 1 1.48031 9.27739 1.45576 
4 1 4.56077 6.17521 6.16262 
5 1 3.06382 7.69492 7.69482 
6 1 3.76643 6.98176 6.97559 
37 1 0.818689 10.0882 10.0866 
38 1 2.25903 8.5275 8.53318 
39 1 1.58445 9.25841 9.26081 
13 1 6.22697 4.53813 4.53169 
14 1 7.7638 3.00467 3.00604 
15 1 7.05235 3.71469 3.71249 
28 1 10.1573 0.686357 0.689236 
29 1 8.58852 2.1835 2.18848 
30 1 9.31964 1.48485 1.48944 
1 1 6.15931 4.56754 6.15224 
2 1 7.68149 3.07327 7.67922 
3 1 6.96538 3.77494 6.96178 
40 1 10.1372 0.89475 10.0806 
41 1 8.53997 2.30157 8.51464 
42 1 9.29274 1.65469 9.2428 
7 1 6.15972 6.15882 4.56264 
8 1 7.68657 7.68689 3.07282 
9 1 6.96868 6.96911 3.77208 
43 1 10.0738 10.0768 0.799625 
44 1 8.52289 8.52528 2.27604 
45 1 9.24578 9.24896 1.59184 
22 1 6.18555 6.21149 6.20152 
23 1 7.75413 7.70421 7.71844 
24 1 7.0098 7.02151 7.02062 
34 1 9.85951 10.1928 10.1508 
35 1 8.68435 8.45031 8.50534 
36 1 9.37711 9.16682 9.21818 
49 2 8.74951 10.4636 10.2127 
50 2 7.37157 10.7256 9.35223 
51 3 7.01419 10.7052 10.2439 
ITEM: TIMESTEP
70
ITEM: NUMBER OF ATOMS
51
ITEM: BOX BOUNDS pp pp pp
0.0000000000000000e+00 1.1000000000000000e+01
0.0000000000000000e+00 1.1002000000000001e+01
0.0000000000000000e+00 1.1000000000000000e+01
ITEM: ATOMS id type x y z 
10 1 4.59318 4.59998 4.58406 
11 1 3.08228 3.0822 3.07929 
12 1 3.79719 3.79627 3.78717 
46 1 0.726225 0.739049 0.782571 
47 1 2.26402 2.26164 2.27146 
48 1 1.54351 1.54461 1.57125 
19 1 4.5363 4.54313 6.21611 
20 1 3.02041 3.02026 7.76361 
21 1 3.72276 3.72654 7.04362 
31 1 0.68271 0.608235 10.0506 
32 1 2.20952 2.18992 8.58211 
33 1 1.50166 1.45533 9.26655 
16 1 4.53123 6.22392 4.53374 
17 1 3.00855 7.76914 3.01412 
18 1 3.71645 7.05429 3.71717 
25 1 0.660865 10.0564 0.602667 
26 1 2.18947 8.58764 2.1843 
27 1 1.47985 9.27078 1.45127 
4 1 4.56152 6.18033 6.16563 
5 1 3.06128 7.69541 7.69612 
6 1 3.76575 6.98378 6.97687 
37 1 0.832919 10.092 10.0901 
38 1 2.26259 8.52806 8.53366 
39 1 1.59535 9.26322 9.26377 
13 1 6.22797 4.54029 4.53174 
14 1 7.76074 3.00346 3.0044 
15 1 7.05218 3.71438 3.71334 
28 1 10.1734 0.697433 0.694834 
29 1 8.58893 2.18314 2.18919 
30 1 9.32879 1.49041 1.4935 
1 1 6.15812 4.56732 6.15024 
2 1 7.68605 3.07952 7.67929 
3 1 6.96441 3.77483 6.9616 
40 1 10.1319 0.875697 10.0727 
41 1 8.54645 2.3115 8.51859 
42 1 9.2982 1.65767 9.24217 
7 1 6.16027 6.15867 4.56302 
8 1 7.68848 7.68835 3.07526 
9 1 6.96842 6.97022 3.7714 
43 1 10.0714 10.0679 0.783257 
44 1 8.52617 8.52928 2.28051 
45 1 9.24771 9.24854 1.59028 
22 1 6.17979 6.21512 6.20225 
23 1 7.77281 7.69269 7.7131 
24 1 7.01529 7.01907 7.02 
34 1 9.82478 10.2035 10.1627 
35 1 8.70623 8.44169 8.50024 
36 1 9.3734 9.17404 9.22315 
49 2 8.72451 10.4574 10.233 
50 2 7.35169 10.7297 9.34933 
51 3 6.99929 10.708 10.2451 
ITEM: TIMESTEP
80
ITEM: NUMBER OF ATOMS
51
ITEM: BOX BOUNDS pp pp pp
0.0000000000000000e+00 1.1000000000000000e+01
0.0000000000000000e+00 1.1002000000000001e+01
0.0000000000000000e+00 1.1000000000000000e+01
ITEM: ATOMS id type x y z 
10 1 4.59231 4.6005 4.58392 
11 1 3.08331 3.08196 3.0793 
12 1 3.79654 3.7972 3.7878 
46 1 0.724376 0.739831 0.783377 
47 1 2.26426 2.26126 2.27193 
48 1 1.54202 1.54596 1.57315 
19 1 4.53676 4.54321 6.21557 
20 1 3.02117 3.02077 7.76326 
21 1 3.72335 3.72643 7.04341 
31 1 0.680995 0.607632 10.0463 
32 1 2.21146 2.1891 8.58197 
33 1 1.50096 1.45428 9.26312 
16 1 4.53164 6.22375 4.53297 
17 1 3.00893 7.77017 3.01337 
18 1 3.71535 7.05327 3.71783 
25 1 0.657977 10.0515 0.602304 
26 1 2.19032 8.58655 2.18414 
27 1 1.47911 9.26715 1.4499 
4 1 4.56321 6.18144 6.16658 
5 1 3.06109 7.69525 7.69574 
6 1 3.76665 6.98382 6.97743 
37 1 0.832728 10.0933 10.0896 
38 1 2.26617 8.52964 8.53497 
39 1 1.59463 9.26318 9.26354 
13 1 6.22958 4.5409 4.53274 
14 1 7.76001 3.00255 3.0049 
15 1 7.05165 3.71466 3.71174 
28 1 10.179 0.701662 0.69753 
29 1 8.58987 2.1836 2.18988 
30 1 9.33119 1.49234 1.49423 
1 1 6.15756 4.56747 6.15002 
2 1 7.68809 3.08245 7.68001 
3 1 6.96375 3.77443 6.96204 
40 1 10.1318 0.872523 10.0694 
41 1 8.54985 2.31512 8.51969 
42 1 9.29972 1.65809 9.24155 
7 1 6.16098 6.15883 4.56308 
8 1 7.6892 7.6893 3.07582 
9 1 6.96891 6.97145 3.7722 
43 1 10.073 10.0649 0.784254 
44 1 8.52751 8.53029 2.28193 
45 1 9.24866 9.24799 1.58948 
22 1 6.17866 6.21706 6.20297 
23 1 7.78026 7.68757 7.71024 
24 1 7.01882 7.01822 7.02003 
34 1 9.82101 10.2075 10.1651 
35 1 8.71234 8.4376 8.49718 
36 1 9.37 9.17267 9.22095 
49 2 8.71414 10.4544 10.2396 
50 2 7.3436 10.7312 9.34941 
51 3 6.9886 10.71 10.2446 
ITEM: TIMESTEP
90
ITEM: NUMBER OF ATOMS
51
ITEM: BOX BOUNDS pp pp pp
0.0000000000000000e+00 1.1000000000000000e+01
0.0000000000000000e+00 1.1002000000000001e+01
0.0000000000000000e+00 1.1000000000000000e+01
ITEM: ATOMS id type x y z 
10 1 4.58868 4.60882 4.58316 
11 1 3.08606 3.08098 3.07903 
12 1 3.79371 3.79959 3.78746 
46 1 0.726625 0.741421 0.783545 
47 1 2.26103 2.25893 2.27616 
48 1 1.53559 1.54815 1.57743 
19 1 4.53965 4.53954 6.21215 
20 1 3.02539 3.01992 7.76191 
21 1 3.7292 3.72653 7.04453 
31 1 0.669395 0.602707 10.0271 
32 1 2.2171 2.18412 8.57806 
33 1 1.4998 1.44659 9.24818 
16 1 4.5317 6.21952 4.52938 
17 1 3.01192 7.76991 3.01239 
18 1 3.71646 7.05125 3.71726 
25 1 0.642261 10.0297 0.598445 
26 1 2.19082 8.58013 2.1812 
27 1 1.47441 9.24968 1.44158 
4 1 4.57345 6.18938 6.17392 
5 1 3.06365 7.69877 7.70239 
6 1 3.76905 6.99124 6.98002 
37 1 0.808041 10.0935 10.0835 
38 1 2.27696 8.54034 8.54179 
39 1 1.59075 9.26379 9.26418 
13 1 6.23758 4.54645 4.53628 
14 1 7.75421 2.99778 3.00387 
15 1 7.05293 3.7178 3.7108 
28 1 10.2066 0.720927 0.709585 
29 1 8.59426 2.19033 2.19677 
30 1 9.34242 1.50399 1.50078 
1 1 6.15398 4.56101 6.14666 
2 1 7.69932 3.09852 7.68595 
3 1 6.96926 3.78307 6.96302 
40 1 10.1281 0.857745 10.0564 
41 1 8.56368 2.33265 8.52198 
42 1 9.30907 1.66377 9.23664 
7 1 6.16709 6.16057 4.56387 
8 1 7.69347 7.69784 3.08505 
9 1 6.97216 6.97177 3.77266 
43 1 10.0795 10.057 0.786944 
44 1 8.53223 8.53224 2.28723 
45 1 9.25664 9.24408 1.59273 
22 1 6.17168 6.22696 6.20411 
23 1 7.82524 7.65871 7.69377 
24 1 7.03961 7.00749 7.01454 
34 1 9.79391 10.2167 10.1697 
35 1 8.74881 8.41809 8.48364 
36 1 9.36306 9.17905 9.21833 
49 2 8.67541 10.4305 10.2766 
50 2 7.29164 10.7407 9.34952 
51 3 6.92944 10.7219 10.2398 
ITEM: TIMESTEP
100
ITEM: NUMBER OF ATOMS
51
ITEM: BOX BOUNDS pp pp pp
0.0000000000000000e+00 1.1000000000000000e+01
0.0000000000000000e+00 1.1002000000000001e+01
0.0000000000000000e+00 1.1000000000000000e+01
ITEM: ATOMS id type x y z 
10 1 4.58806 4.60826 4.58324 
11 1 3.08605 3.07988 3.07953 
12 1 3.79375 3.80211 3.78716 
46 1 0.724161 0.741536 0.783646 
47 1 2.26204 2.26101 2.27817 
48 1 1.53732 1.54776 1.57722 
19 1 4.54066 4.54044 6.21281 
20 1 3.02628 3.02014 7.76272 
21 1 3.72858 3.72605 7.04299 
31 1 0.66933 0.601082 10.0247 
32 1 2.21702 2.18375 8.57639 
33 1 1.50043 1.44703 9.24951 
16 1 4.5315 6.21946 4.53007 
17 1 3.01209 7.76976 3.01321 
18 1 3.71693 7.05064 3.71636 
25 1 0.642812 10.0275 0.595837 
26 1 2.19079 8.5791 2.18009 
27 1 1.47438 9.25028 1.44277 
4 1 4.57321 6.19002 6.17354 
5 1 3.06431 7.69926 7.70137 
6 1 3.77032 6.99045 6.98117 
37 1 0.809664 10.0903 10.0823 
38 1 2.27554 8.54016 8.54283 
39 1 1.58994 9.26706 9.2656 
13 1 6.23839 4.54715 4.53588 
14 1 7.75382 2.99934 3.00416 
15 1 7.05228 3.71699 3.71218 
28 1 10.2038 0.72128 0.708989 
29 1 8.59575 2.18793 2.19407 
30 1 9.34584 1.50389 1.5011 
1 1 6.15345 4.56015 6.14649 
2 1 7.6982 3.09971 7.68502 
3 1 6.97079 3.78341 6.9638 
40 1 10.1266 0.858226 10.0585 
41 1 8.56413 2.33377 8.52161 
42 1 9.30921 1.6637 9.23663 
7 1 6.16624 6.15958 4.56313 
8 1 7.6931 7.69733 3.08389 
9 1 6.97346 6.97314 3.7746 
43 1 10.0789 10.0592 0.787756 
44 1 8.53196 8.5318 2.28858 
45 1 9.25684 9.24379 1.59286 
22 1 6.17126 6.22697 6.20419 
23 1 7.82698 7.65797 7.69335 
24 1 7.04024 7.0066 7.01373 
34 1 9.79069 10.2168 10.1697 
35 1 8.7508 8.41833 8.48388 
36 1 9.36303 9.17883 9.21789 
49 2 8.67434 10.4297 10.2777 
50 2 7.28949 10.7412 9.34913 
51 3 6.92813 10.7222 10.2398 
ITEM: TIMESTEP
110
ITEM: NUMBER OF ATOMS
51
ITEM: BOX BOUNDS pp pp pp
0.0000000000000000e+00 1.1000000000000000e+01
0.0000000000000000e+00 1.1002000000000001e+01
0.0000000000000000e+00 1.1000000000000000e+01
ITEM: ATOMS id type x y z 
10 1 4.5868 4.60879 4.5824 
11 1 3.08589 3.08097 3.07957 
12 1 3.79379 3.8012 3.78845 
46 1 0.723551 0.74141 0.783036 
47 1 2.26057 2.26024 2.27786 
48 1 1.53862 1.54708 1.57605 
19 1 4.54102 4.54092 6.21296 
20 1 3.02632 3.01984 7.76257 
21 1 3.72965 3.72556 7.0436 
31 1 0.669179 0.601351 10.0244 
32 1 2.21716 2.18237 8.57624 
33 1 1.499 1.44707 9.24876 
16 1 4.53099 6.21935 4.52991 
17 1 3.01185 7.76982 3.01257 
18 1 3.71686 7.05077 3.7163 
25 1 0.642724 10.0268 0.595609 
26 1 2.19136 8.5781 2.17848 
27 1 1.47263 9.25038 1.44394 
4 1 4.57373 6.19076 6.17412 
5 1 3.06436 7.70027 7.70102 
6 1 3.77256 6.99092 6.98328 
37 1 0.806283 10.0902 10.0815 
38 1 2.27606 8.54056 8.54318 
39 1 1.5885 9.26587 9.26465 
13 1 6.23909 4.54801 4.53598 
14 1 7.7543 2.99956 3.00339 
15 1 7.05272 3.71615 3.71313 
28 1 10.205 0.721279 0.708755 
29 1 8.59634 2.1883 2.1943 
30 1 9.34665 1.50416 1.50116 
1 1 6.15244 4.55977 6.14648 
2 1 7.69831 3.10022 7.68563 
3 1 6.97199 3.78538 6.96297 
40 1 10.1271 0.858757 10.0596 
41 1 8.56556 2.33503 8.52154 
42 1 9.30911 1.66406 9.23661 
7 1 6.16638 6.15887 4.56255 
8 1 7.69249 7.69686 3.08265 
9 1 6.97527 6.97436 3.7778 
43 1 10.0793 10.0606 0.789055 
44 1 8.53309 8.53214 2.28905 
45 1 9.25717 9.244 1.59336 
22 1 6.17068 6.22687 6.20429 
23 1 7.82945 7.65601 7.69176 
24 1 7.04211 7.00535 7.01279 
34 1 9.78923 10.2166 10.1702 
35 1 8.7531 8.4172 8.48279 
36 1 9.36361 9.17865 9.21737 
49 2 8.67213 10.4284 10.28 
50 2 7.2854 10.7419 9.34843 
51 3 6.92554 10.7229 10.2399 
ITEM: TIMESTEP
120
ITEM: NUMBER OF ATOMS
51
ITEM: BOX BOUNDS pp pp pp
0.0000000000000000e+00 1.1000000000000000e+01
0.0000000000000000e+00 1.1002000000000001e+01
0.0000000000000000e+00 1.1000000000000000e+01
ITEM: ATOMS id type x y z 
10 1 4.56479 4.63643 4.58695 
11 1 3.06876 3.08419 3.08951 
12 1 3.79652 3.80003 3.78347 
46 1 0.744173 0.7305 0.759521 
47 1 2.25572 2.25381 2.276 
48 1 1.54549 1.54095 1.56623 
19 1 4.54961 4.54055 6.21854 
20 1 3.04409 3.00374 7.76457 
21 1 3.72805 3.72709 7.044 
31 1 0.653916 0.588791 10.0121 
32 1 2.21408 2.16262 8.56335 
33 1 1.4885 1.43509 9.23492 
16 1 4.53085 6.21516 4.53083 
17 1 3.02618 7.77503 3.00491 
18 1 3.69149 7.02204 3.71055 
25 1 0.631456 10.0163 0.585378 
26 1 2.18529 8.56527 2.16618 
27 1 1.47069 9.23248 1.42536 
4 1 4.5913 6.20586 6.19097 
5 1 3.08352 7.72087 7.7164 
6 1 3.80095 7.01439 7.00554 
37 1 0.750549 10.0745 10.0638 
38 1 2.26727 8.54533 8.54851 
39 1 1.56332 9.26755 9.25741 
13 1 6.24989 4.55626 4.5401 
14 1 7.75943 3.00155 3.0088 
15 1 7.06267 3.72496 3.7128 
28 1 10.2204 0.732483 0.705903 
29 1 8.61283 2.1978 2.1991 
30 1 9.35903 1.5111 1.50505 
1 1 6.14425 4.5509 6.13995 
2 1 7.71907 3.13329 7.69024 
3 1 6.9843 3.79782 6.9607 
40 1 10.1148 0.853999 10.0694 
41 1 8.5886 2.36592 8.51931 
42 1 9.31375 1.67582 9.2392 
7 1 6.17777 6.15223 4.56806 
8 1 7.70041 7.70079 3.0964 
9 1 6.98367 6.97443 3.78728 
43 1 10.0769 10.0776 0.801527 
44 1 8.54723 8.52964 2.3042 
45 1 9.26573 9.25155 1.61196 
22 1 6.16485 6.23772 6.20953 
23 1 7.90701 7.6166 7.66194 
24 1 7.0964 6.98148 6.99645 
34 1 9.7327 10.2164 10.1825 
35 1 8.81424 8.39686 8.46104 
36 1 9.37222 9.17959 9.21025 
49 2 8.62094 10.3951 10.3346 
50 2 7.17973 10.7617 9.33154 
51 3 6.85761 10.74 10.2392 
ITEM: TIMESTEP
130
ITEM: NUMBER OF ATOMS
51
ITEM: BOX BOUNDS pp pp pp
0.0000000000000000e+00 1.1000000000000000e+01
0.0000000000000000e+00 1.1002000000000001e+01
0.0000000000000000e+00 1.1000000000000000e+01
ITEM: ATOMS id type x y z 
10 1 4.56294 4.63526 4.58741 
11 1 3.07569 3.08147 3.08725 
12 1 3.78146 3.80874 3.78916 
46 1 0.743833 0.730235 0.755252 
47 1 2.25393 2.25502 2.27709 
48 1 1.54972 1.53649 1.56358 
19 1 4.54804 4.54375 6.21686 
20 1 3.0398 3.0045 7.76084 
21 1 3.73756 3.72022 7.04738 
31 1 0.649532 0.58858 10.0095 
32 1 2.21385 2.1606 8.56042 
33 1 1.4927 1.4282 9.23156 
16 1 4.52009 6.20605 4.53081 
17 1 3.01432 7.76322 3.00289 
18 1 3.70404 7.03161 3.70842 
25 1 0.631046 10.013 0.580476 
26 1 2.18858 8.56375 2.15957 
27 1 1.46807 9.23334 1.42514 
4 1 4.60122 6.21041 6.19872 
5 1 3.09025 7.7257 7.72156 
6 1 3.79857 7.01439 7.00601 
37 1 0.745204 10.0738 10.0617 
38 1 2.26845 8.54978 8.5478 
39 1 1.55611 9.26285 9.2574 
13 1 6.25145 4.56113 4.53969 
14 1 7.76361 3.00552 3.00799 
15 1 7.06304 3.72335 3.71689 
28 1 10.2242 0.735647 0.709807 
29 1 8.61349 2.19717 2.20073 
30 1 9.36623 1.51772 1.5059 
1 1 6.14105 4.54856 6.1382 
2 1 7.72673 3.13941 7.6876 
3 1 6.98028 3.79949 6.96277 
40 1 10.1069 0.848113 10.0646 
41 1 8.59316 2.37058 8.52293 
42 1 9.31539 1.68004 9.24049 
7 1 6.17802 6.15008 4.57013 
8 1 7.70328 7.70035 3.09915 
9 1 6.9869 6.97237 3.78906 
43 1 10.0755 10.0748 0.800938 
44 1 8.5489 8.53346 2.30901 
45 1 9.26857 9.25194 1.61589 
22 1 6.16927 6.24215 6.21048 
23 1 7.9243 7.60723 7.65705 
24 1 7.10711 6.98065 6.99249 
34 1 9.72377 10.2178 10.1874 
35 1 8.82671 8.39414 8.45601 
36 1 9.37159 9.1806 9.21105 
49 2 8.60896 10.389 10.3426 
50 2 7.15598 10.7659 9.32871 
51 3 6.84351 10.7439 10.2378 
ITEM: TIMESTEP
140
ITEM: NUMBER OF ATOMS
51
ITEM: BOX BOUNDS pp pp pp
0.0000000000000000e+00 1.1000000000000000e+01
0.0000000000000000e+00 1.1002000000000001e+01
0.0000000000000000e+00 1.1000000000000000e+01
ITEM: ATOMS id type x y z 
10 1 4.56094 4.63519 4.58662 
11 1 3.07656 3.08033 3.08543 
12 1 3.77462 3.81164 3.79122 
46 1 0.743522 0.730772 0.755335 
47 1 2.25746 2.25245 2.27622 
48 1 1.5474 1.53925 1.56359 
19 1 4.54979 4.54323 6.22013 
20 1 3.03865 3.00467 7.7603 
21 1 3.739 3.71771 7.04653 
31 1 0.648956 0.587936 10.0082 
32 1 2.21542 2.15856 8.56005 
33 1 1.49085 1.42873 9.23031 
16 1 4.51906 6.20495 4.53094 
17 1 3.01084 7.75731 3.00103 
18 1 3.70936 7.0373 3.70946 
25 1 0.630425 10.012 0.580032 
26 1 2.1894 8.56246 2.15801 
27 1 1.46772 9.23361 1.42634 
4 1 4.60257 6.21181 6.19975 
5 1 3.08991 7.72534 7.7211 
6 1 3.80014 7.01455 7.00676 
37 1 0.744841 10.0731 10.0612 
38 1 2.26914 8.55028 8.54839 
39 1 1.55559 9.26344 9.25668 
13 1 6.252 4.56102 4.54047 
14 1 7.76439 3.00582 3.00923 
15 1 7.06425 3.72543 3.71644 
28 1 10.2259 0.736789 0.710538 
29 1 8.61535 2.19886 2.20091 
30 1 9.36614 1.517 1.50639 
1 1 6.13862 4.54753 6.13889 
2 1 7.72644 3.13955 7.68771 
3 1 6.98182 3.79979 6.9614 
40 1 10.1072 0.846495 10.0641 
41 1 8.5932 2.37257 8.5239 
42 1 9.31522 1.68107 9.24058 
7 1 6.17706 6.14924 4.57023 
8 1 7.70382 7.69913 3.10042 
9 1 6.9872 6.97132 3.78996 
43 1 10.0771 10.074 0.801568 
44 1 8.54872 8.53483 2.3112 
45 1 9.26882 9.25179 1.61714 
22 1 6.17007 6.2443 6.20775 
23 1 7.92775 7.60594 7.65539 
24 1 7.1094 6.98016 6.99185 
34 1 9.72278 10.2187 10.1889 
35 1 8.82959 8.39332 8.45483 
36 1 9.37088 9.18066 9.21136 
49 2 8.6066 10.3881 10.3421 
50 2 7.15009 10.767 9.32758 
51 3 6.84044 10.7448 10.2376 
ITEM: TIMESTEP
150
ITEM: NUMBER OF ATOMS
51
ITEM: BOX BOUNDS pp pp pp
0.0000000000000000e+00 1.1000000000000000e+01
0.0000000000000000e+00 1.1002000000000001e+01
0.0000000000000000e+00 1.1000000000000000e+01
ITEM: ATOMS id type x y z 
10 1 4.5602 4.63541 4.58673 
11 1 3.07631 3.08048 3.08544 
12 1 3.77423 3.81183 3.79147 
46 1 0.743317 0.731163 0.755453 
47 1 2.25776 2.25221 2.27602 
48 1 1.54758 1.53915 1.56324 
19 1 4.55036 4.54318 6.22048 
20 1 3.03865 3.0044 7.76019 
21 1 3.73907 3.71734 7.04642 
31 1 0.648745 0.587721 10.0077 
32 1 2.21553 2.15822 8.5598 
33 1 1.49067 1.42883 9.23024 
16 1 4.51901 6.20496 4.53095 
17 1 3.01074 7.75674 3.00055 
18 1 3.70954 7.0377 3.70969 
25 1 0.630449 10.0119 0.579905 
26 1 2.18942 8.56208 2.15756 
27 1 1.46741 9.23356 1.42652 
4 1 4.60309 6.21188 6.20014 
5 1 3.08988 7.72531 7.72125 
6 1 3.80033 7.01485 7.00682 
37 1 0.744569 10.0731 10.0612 
38 1 2.26922 8.55043 8.54834 
39 1 1.55559 9.26336 9.25667 
13 1 6.25179 4.5612 4.54032 
14 1 7.76468 3.00625 3.00901 
15 1 7.06447 3.72539 3.71728 
28 1 10.226 0.736686 0.710785 
29 1 8.61554 2.19897 2.20121 
30 1 9.3663 1.51751 1.50626 
1 1 6.13835 4.54719 6.13872 
2 1 7.72655 3.1397 7.6876 
3 1 6.9818 3.79984 6.96134 
40 1 10.107 0.846293 10.0639 
41 1 8.59329 2.37287 8.52418 
42 1 9.31532 1.68117 9.24077 
7 1 6.17716 6.14881 4.57024 
8 1 7.704 7.69901 3.10062 
9 1 6.98738 6.97121 3.79016 
43 1 10.0773 10.0738 0.801662 
44 1 8.54876 8.53501 2.31164 
45 1 9.26893 9.25189 1.61745 
22 1 6.17019 6.24476 6.2075 
23 1 7.92855 7.60546 7.65511 
24 1 7.10993 6.98028 6.99132 
34 1 9.72245 10.2187 10.1891 
35 1 8.83033 8.39323 8.45468 
36 1 9.37078 9.18073 9.21146 
49 2 8.60615 10.3879 10.3421 
50 2 7.14866 10.7672 9.3273 
51 3 6.83974 10.7451 10.2375 
ITEM: TIMESTEP
160
ITEM: NUMBER OF ATOMS
51
ITEM: BOX BOUNDS pp pp pp
0.0000000000000000e+00 1.1000000000000000e+01
0.0000000000000000e+00 1.1002000000000001e+01
0.0000000000000000e+00 1.1000000000000000e+01
ITEM: ATOMS id type x y z 
10 1 4.55606 4.63736 4.58761 
11 1 3.07487 3.08103 3.08566 
12 1 3.77193 3.81299 3.79204 
46 1 0.742347 0.732587 0.755282 
47 1 2.25985 2.25101 2.27482 
48 1 1.54811 1.53925 1.56221 
19 1 4.55243 4.54236 6.22197 
20 1 3.03854 3.00247 7.75903 
21 1 3.73986 3.71613 7.04692 
31 1 0.647687 0.586719 10.0058 
32 1 2.21598 2.15637 8.55892 
33 1 1.4893 1.42882 9.2294 
16 1 4.51899 6.20565 4.53186 
17 1 3.01087 7.75508 2.99891 
18 1 3.70943 7.03706 3.70916 
25 1 0.630118 10.0114 0.57984 
26 1 2.18898 8.56027 2.15622 
27 1 1.467 9.23233 1.42572 
4 1 4.60574 6.21329 6.20181 
5 1 3.08997 7.72561 7.72156 
6 1 3.80142 7.01545 7.00784 
37 1 0.742978 10.0727 10.061 
38 1 2.26954 8.55112 8.54846 
39 1 1.55515 9.26349 9.25644 
13 1 6.25126 4.56091 4.5405 
14 1 7.76651 3.00793 3.00997 
15 1 7.06527 3.7263 3.71799 
28 1 10.2265 0.73731 0.711475 
29 1 8.61686 2.2006 2.20176 
30 1 9.36717 1.5182 1.50721 
1 1 6.13739 4.54555 6.13828 
2 1 7.72751 3.14066 7.68749 
3 1 6.98172 3.79926 6.96096 
40 1 10.1063 0.845184 10.0632 
41 1 8.59373 2.37464 8.52547 
42 1 9.31549 1.68204 9.24148 
7 1 6.17762 6.14726 4.57019 
8 1 7.70494 7.69855 3.10188 
9 1 6.98838 6.97039 3.79093 
43 1 10.078 10.073 0.802401 
44 1 8.54913 8.536 2.31402 
45 1 9.26942 9.25231 1.61929 
22 1 6.1708 6.24755 6.20608 
23 1 7.93319 7.6034 7.65334 
24 1 7.11325 6.98059 6.98912 
34 1 9.72086 10.2189 10.1904 
35 1 8.83388 8.39219 8.45351 
36 1 9.37046 9.18088 9.21173 
49 2 8.60358 10.3869 10.3418 
50 2 7.14071 10.7686 9.32574 
51 3 6.83597 10.7463 10.2373 
ITEM: TIMESTEP
170
ITEM: NUMBER OF ATOMS
51
ITEM: BOX BOUNDS pp pp pp
0.0000000000000000e+00 1.1000000000000000e+01
0.0000000000000000e+00 1.1002000000000001e+01
0.0000000000000000e+00 1.1000000000000000e+01
ITEM: ATOMS id type x y z 
10 1 4.55532 4.63788 4.58794 
11 1 3.07471 3.0811 3.08562 
12 1 3.77117 3.81333 3.79229 
46 1 0.742051 0.732891 0.755014 
47 1 2.26005 2.25103 2.27446 
48 1 1.54852 1.53883 1.56218 
19 1 4.55273 4.54227 6.22228 
20 1 3.03866 3.00211 7.75877 
21 1 3.74015 3.71576 7.04688 