ITEM: TIMESTEP
0
ITEM: NUMBER OF ATOMS
161
ITEM: BOX BOUNDS xy xz yz pp pp pp
-6.7755000000000001e+00 1.3552000000000000e+01 -6.7755000000000001e+00
0.0000000000000000e+00 1.1735510246683001e+01 0.0000000000000000e+00
0.0000000000000000e+00 2.2149999999999999e+01 0.0000000000000000e+00
ITEM: ATOMS id type x y z 
8 1 -2.486 5.297 9.849 
87 1 3.001 4.231 10.696 
90 1 2.733 5.481 9.824 
109 1 -2.486 5.297 0.765 
158 1 2.733 5.481 0.79 
11 1 4.24 4.139 20.131 
14 1 3.031 4.094 19.728 
18 1 1.299 5.827 18.554 
33 1 2.266 4.151 20.924 
43 1 4.343 3.96 21.647 
47 1 3.32 5.732 17.88 
52 1 4.24 4.139 12.633 
76 1 2.552 4.924 14.209 
85 1 4.343 3.96 11.117 
89 1 3.32 5.732 14.883 
91 1 1.036 5.037 11.84 
102 1 3.031 4.094 13.035 
105 1 1.299 5.827 14.209 
114 1 2.266 4.151 11.84 
150 1 2.552 4.924 18.554 
156 1 3.001 4.231 22.068 
159 1 1.036 5.037 20.924 
5 1 -5.049 10.63 8.653 
9 1 -3.317 8.897 7.479 
19 1 -1.707 7.414 10.572 
21 1 -2.66 8.795 10.993 
23 1 -3.31 7.532 6.805 
25 1 -4.284 10.573 9.849 
32 1 1.503 6.367 0.79 
36 1 -1.869 7.426 9.056 
38 1 -2.209 6.086 8.653 
54 1 0.3 8.576 10.696 
57 1 1.291 8.001 9.824 
60 1 -1.707 7.414 0.042 
65 1 -3.31 7.532 3.808 
78 1 -1.869 7.426 1.558 
80 1 -2.566 8.842 1.961 
84 1 -4.57 9.799 3.135 
99 1 -3.054 9.687 0.765 
100 1 -2.96 6.142 3.135 
107 1 -5.049 10.63 1.961 
110 1 -3.317 8.897 3.135 
111 1 0.642 5.929 10.696 
113 1 1.503 6.367 9.824 
119 1 -4.284 10.573 0.765 
127 1 -2.209 6.086 1.961 
131 1 -2.318 6.148 10.993 
138 1 1.291 8.001 0.79 
142 1 -2.566 8.842 8.653 
145 1 -4.57 9.799 7.479 
151 1 -5.019 10.493 10.993 
154 1 -3.054 9.687 9.849 
155 1 -2.96 6.142 7.479 
12 1 2.53 7.1 17.202 
17 1 0.468 9.427 20.924 
24 1 -3.52 8.357 11.865 
27 1 -0.31 7.31 21.647 
29 1 0.642 5.929 22.068 
31 1 1.292 7.192 17.88 
44 1 -0.148 7.298 20.131 
46 1 0.191 8.638 19.728 
51 1 -0.31 7.31 11.117 
53 1 2.53 7.1 15.561 
56 1 1.292 7.192 14.883 
63 1 -2.318 6.148 21.771 
66 1 -3.309 6.723 20.899 
70 1 -0.148 7.298 12.633 
72 1 0.548 5.882 13.035 
92 1 0.942 8.582 14.209 
95 1 -5.019 10.493 21.771 
98 1 -4.751 9.243 20.899 
104 1 0.468 9.427 11.84 
116 1 -2.66 8.795 21.771 
118 1 -3.52 8.357 20.899 
122 1 0.191 8.638 13.035 
133 1 -3.309 6.723 11.865 
136 1 0.3 8.576 22.068 
147 1 0.548 5.882 19.728 
153 1 -4.751 9.243 11.865 
160 1 0.942 8.582 18.554 
1 1 7.976 4.694 10.572 
4 1 9.274 4.77 10.993 
20 1 8.034 4.861 9.056 
42 1 9.55 5.41 7.479 
67 1 10.043 4.578 0.765 
77 1 7.976 4.694 0.042 
94 1 8.035 4.861 1.558 
96 1 9.278 4.635 1.961 
121 1 4.688 5.417 10.696 
130 1 9.55 5.41 3.135 
134 1 10.043 4.578 9.849 
152 1 9.278 4.635 8.653 
45 1 4.688 5.417 22.068 
55 1 4.788 5.329 13.035 
106 1 9.274 4.77 21.771 
137 1 4.788 5.329 19.728 
161 2 7.976 4.694 11.672 
2 1 7.294 10.585 9.056 
3 1 9.004 7.624 6.127 
6 1 8.556 6.347 6.805 
16 1 2.314 8.72 0.79 
22 1 7.166 6.156 8.653 
26 1 7.226 8.565 7.479 
35 1 7.191 10.764 10.572 
37 1 6.846 9.307 10.993 
39 1 8.214 8.992 6.805 
41 1 6.677 7.002 9.849 
48 1 3.775 6.213 0.79 
61 1 7.294 10.585 1.558 
62 1 9.004 7.624 4.487 
64 1 6.747 9.395 1.961 
68 1 7.437 6.931 3.135 
71 1 4.29 8.493 10.696 
74 1 3.567 7.818 9.824 
81 1 8.556 6.347 3.808 
83 1 6.47 8.606 0.765 
93 1 7.191 10.764 0.042 
97 1 8.214 8.992 3.808 
101 1 2.261 9.954 10.696 
103 1 2.314 8.72 9.824 
117 1 7.166 6.156 1.961 
120 1 7.226 8.565 3.135 
123 1 3.775 6.213 9.824 
129 1 6.677 7.002 0.765 
132 1 6.747 9.395 8.653 
135 1 7.437 6.931 7.479 
141 1 7.244 6.231 10.993 
144 1 6.47 8.606 9.849 
148 1 3.567 7.818 0.79 
7 1 9.22 6.004 11.865 
10 1 3.558 10.029 21.647 
13 1 2.261 9.954 22.068 
15 1 2.978 8.376 17.88 
28 1 3.5 9.862 20.131 
30 1 4.369 8.568 19.728 
34 1 4.308 6.159 18.554 
40 1 7.76 8.511 11.865 
49 1 4.857 7.722 20.924 
50 1 1.984 9.314 18.554 
58 1 1.491 10.146 11.84 
59 1 4.097 7.793 14.209 
69 1 3.558 10.029 11.117 
73 1 2.978 8.376 14.883 
75 1 5.064 6.118 11.84 
79 1 7.244 6.231 21.771 
82 1 7.967 6.906 20.899 
86 1 3.5 9.862 12.633 
88 1 2.256 10.089 13.035 
108 1 9.22 6.004 20.899 
112 1 4.369 8.568 13.035 
115 1 4.308 6.159 14.209 
124 1 4.857 7.722 11.84 
125 1 1.984 9.314 14.209 
126 1 6.846 9.307 21.771 
128 1 7.76 8.511 20.899 
139 1 1.491 10.146 20.924 
140 1 4.097 7.793 18.554 
143 1 7.967 6.906 11.865 
146 1 4.29 8.493 22.068 
149 1 5.064 6.118 20.924 
157 1 2.256 10.089 19.728 
ITEM: TIMESTEP
10
ITEM: NUMBER OF ATOMS
161
ITEM: BOX BOUNDS xy xz yz pp pp pp
-6.7755000000000001e+00 1.3552000000000000e+01 -6.7755000000000001e+00
0.0000000000000000e+00 1.1735510246683001e+01 0.0000000000000000e+00
0.0000000000000000e+00 2.2149999999999999e+01 0.0000000000000000e+00
ITEM: ATOMS id type x y z 
8 1 -2.39783 5.3584 9.84471 
87 1 2.97578 4.27062 10.6485 
90 1 2.65204 5.44412 9.78172 
109 1 -2.40943 5.35999 0.766227 
158 1 2.64923 5.451 0.837803 
11 1 4.29147 4.19472 20.1437 
14 1 2.91898 4.12321 19.69 
18 1 1.32223 5.85299 18.598 
33 1 2.12835 4.2359 20.8993 
43 1 4.32523 4.11515 21.5777 
47 1 3.24914 5.79683 17.8481 
52 1 4.28611 4.1932 12.6208 
76 1 2.43598 4.91368 14.1816 
85 1 4.32078 4.1075 11.1817 
89 1 3.25459 5.79718 14.916 
91 1 0.973737 5.09547 11.8512 
102 1 2.91874 4.1233 13.072 
105 1 1.32437 5.84873 14.1676 
114 1 2.13264 4.23712 11.8572 
150 1 2.43512 4.91271 18.5784 
156 1 2.97187 4.25858 22.1235 
159 1 0.970972 5.09999 20.9075 
5 1 -4.92652 10.588 8.60397 
9 1 -3.3084 8.87131 7.53733 
19 1 -1.76154 7.50273 10.5599 
21 1 -2.60978 8.76162 10.9185 
23 1 -3.29806 7.55988 6.84742 
25 1 -4.13687 10.4872 9.81152 
32 1 1.57647 6.33983 0.776432 
36 1 -1.90329 7.52486 9.0617 
38 1 -2.16009 6.20877 8.63687 
54 1 0.301349 8.5146 10.6731 
57 1 1.30995 7.97659 9.78437 
60 1 -1.76653 7.51589 0.0506106 
65 1 -3.30041 7.52405 3.78715 
78 1 -1.90575 7.53775 1.5595 
80 1 -2.56328 8.7881 1.88816 
84 1 -4.45735 9.82106 3.11045 
99 1 -2.99247 9.62333 0.780676 
100 1 -2.92103 6.23203 3.16993 
107 1 -4.92889 10.6045 1.99369 
110 1 -3.34355 8.88604 3.09029 
111 1 0.604687 5.96505 10.773 
113 1 1.57463 6.33911 9.83491 
119 1 -4.1395 10.4846 0.787446 
127 1 -2.15505 6.20567 1.97101 
131 1 -2.30272 6.20861 11.0063 
138 1 1.3465 8.00339 0.824916 
142 1 -2.55828 8.78567 8.71707 
145 1 -4.45755 9.78231 7.49073 
151 1 -4.99288 10.4496 11.0647 
154 1 -2.99921 9.63394 9.83557 
155 1 -2.92951 6.24237 7.42658 
12 1 2.57328 7.06026 17.1254 
17 1 0.391295 9.36054 20.9185 
24 1 -3.5246 8.39655 11.8555 
27 1 -0.254601 7.20861 21.6364 
29 1 0.605154 5.96843 21.99 
31 1 1.30571 7.20434 17.9151 
44 1 -0.105078 7.18876 20.1284 
46 1 0.140896 8.51383 19.7204 
51 1 -0.252777 7.2098 11.135 
53 1 2.57417 7.06346 15.6357 
56 1 1.30635 7.20703 14.8508 
63 1 -2.31983 6.21471 21.751 
66 1 -3.36158 6.72003 20.8627 
70 1 -0.106411 7.19016 12.6325 
72 1 0.546683 5.93984 12.9727 
92 1 0.907766 8.47152 14.2501 
95 1 -4.98355 10.4621 21.7187 
98 1 -4.6839 9.27391 20.8543 
104 1 0.389224 9.36114 11.8439 
116 1 -2.60332 8.75904 21.8537 
118 1 -3.58035 8.38549 20.8993 
122 1 0.13782 8.51393 13.0432 
133 1 -3.3401 6.77087 11.9205 
136 1 0.303734 8.51179 22.0902 
147 1 0.549592 5.94097 19.794 
153 1 -4.67588 9.20766 11.9109 
160 1 0.90899 8.4732 18.5144 
1 1 7.78351 4.76845 10.5653 
4 1 9.25847 4.74917 11.0882 
20 1 7.91856 4.94901 9.10281 
42 1 9.47178 5.42889 7.41707 
67 1 9.98577 4.54664 0.762408 
77 1 7.89287 4.94336 0.0891345 
94 1 7.86969 4.94981 1.54523 
96 1 9.20404 4.64668 1.99381 
121 1 4.69499 5.41973 10.7126 
130 1 9.46444 5.41593 3.17661 
134 1 10.004 4.57075 9.83834 
152 1 9.20639 4.64393 8.59467 
45 1 4.69954 5.41616 22.0476 
55 1 4.81895 5.48562 13.072 
106 1 9.17474 4.77504 21.7251 
137 1 4.81776 5.48077 19.7014 
161 2 7.93268 4.56623 11.6679 
2 1 7.24108 10.5342 9.06852 
3 1 8.94505 7.6946 6.05176 
6 1 8.52198 6.40968 6.83272 
16 1 2.33027 8.69161 0.8392 
22 1 7.16049 6.1838 8.77348 
26 1 7.16417 8.41997 7.5349 
35 1 7.20602 10.5948 10.5125 
37 1 6.85575 9.2774 11.002 
39 1 8.24632 8.92249 6.76459 
41 1 6.69585 7.08834 9.79311 
48 1 3.71816 6.36252 0.855973 
61 1 7.23454 10.5399 1.54519 
62 1 8.94764 7.65785 4.57206 
64 1 6.71394 9.23542 1.99142 
68 1 7.40096 6.96385 3.04569 
71 1 4.2919 8.55584 10.7951 
74 1 3.6333 7.80929 9.83747 
81 1 8.54175 6.40638 3.77814 
83 1 6.54479 8.44653 0.790141 
93 1 7.21158 10.5912 0.10312 
97 1 8.27197 8.92727 3.8354 
101 1 2.35691 9.95508 10.6309 
103 1 2.37843 8.72032 9.78215 
117 1 7.15984 6.192 1.88903 
120 1 7.17526 8.43101 3.06121 
123 1 3.71521 6.36024 9.75949 
129 1 6.73864 7.0129 0.789238 
132 1 6.70739 9.25305 8.64325 
135 1 7.42496 6.96108 7.55927 
141 1 7.19522 6.24342 10.8271 
144 1 6.54488 8.46911 9.80499 
148 1 3.63736 7.80209 0.775303 
7 1 9.18306 6.12436 11.9286 
10 1 3.65316 9.77909 21.6015 
13 1 2.3529 9.9605 22.1249 
15 1 2.98589 8.31557 17.9102 
28 1 3.66069 9.78492 20.1462 
30 1 4.39006 8.52426 19.786 
34 1 4.36032 6.29689 18.6285 
40 1 7.74655 8.37788 11.8814 
49 1 4.79117 7.70801 20.9108 
50 1 2.06566 9.29809 18.5119 
58 1 1.54077 10.1787 11.8492 
59 1 4.12729 7.75002 14.1346 
69 1 3.65722 9.77411 11.1705 
73 1 2.98077 8.31099 14.8546 
75 1 4.97959 6.29351 11.8835 
79 1 7.24898 6.16559 21.8641 
82 1 7.89728 6.93002 20.9151 
86 1 3.65376 9.7863 12.6124 
88 1 2.33374 10.0774 13.0687 
108 1 9.19598 6.02458 20.8543 
112 1 4.38959 8.53067 12.9695 
115 1 4.35548 6.29849 14.1323 
124 1 4.79101 7.70393 11.847 
125 1 2.06822 9.30286 14.2508 
126 1 6.83939 9.30008 21.8025 
128 1 7.79016 8.36334 20.8457 
139 1 1.54047 10.1766 20.9198 
140 1 4.12532 7.75757 18.6301 
143 1 7.94034 6.98135 11.8496 
146 1 4.29283 8.55413 21.9763 
149 1 4.99205 6.28952 20.8857 
157 1 2.3256 10.0804 19.6911 
ITEM: TIMESTEP
20
ITEM: NUMBER OF ATOMS
161
ITEM: BOX BOUNDS xy xz yz pp pp pp
-6.7755000000000001e+00 1.3552000000000000e+01 -6.7755000000000001e+00
0.0000000000000000e+00 1.1735510246683001e+01 0.0000000000000000e+00
0.0000000000000000e+00 2.2149999999999999e+01 0.0000000000000000e+00
ITEM: ATOMS id type x y z 
8 1 -2.41058 5.39122 9.84081 
87 1 2.95454 4.27843 10.6556 
90 1 2.66815 5.45703 9.78113 
109 1 -2.4228 5.39313 0.777633 
158 1 2.66295 5.45085 0.834645 
11 1 4.28065 4.21705 20.1232 
14 1 2.89331 4.14699 19.6993 
18 1 1.30063 5.85218 18.5815 
33 1 2.10468 4.26452 20.9052 
43 1 4.30554 4.1733 21.5775 
47 1 3.2578 5.78995 17.8384 
52 1 4.27914 4.21937 12.6407 
76 1 2.44954 4.92487 14.1769 
85 1 4.3092 4.17058 11.1818 
89 1 3.2597 5.79021 14.9266 
91 1 0.96731 5.11208 11.8514 
102 1 2.8945 4.14701 13.0659 
105 1 1.30027 5.85395 14.183 
114 1 2.10676 4.26096 11.857 
150 1 2.44878 4.9256 18.5858 
156 1 2.95441 4.27626 22.1072 
159 1 0.971236 5.11192 20.9127 
5 1 -4.91159 10.5555 8.6141 
9 1 -3.2996 8.86382 7.52838 
19 1 -1.74637 7.50459 10.5494 
21 1 -2.60149 8.79212 10.9492 
23 1 -3.30242 7.57408 6.83896 
25 1 -4.12815 10.4591 9.83047 
32 1 1.60064 6.35769 0.772134 
36 1 -1.88538 7.53758 9.07012 
38 1 -2.15856 6.22845 8.62665 
54 1 0.310735 8.48982 10.667 
57 1 1.30051 7.94185 9.79246 
60 1 -1.76695 7.52932 0.0564936 
65 1 -3.3052 7.5359 3.78553 
78 1 -1.88865 7.55568 1.55201 
80 1 -2.55165 8.79156 1.88912 
84 1 -4.46882 9.79699 3.1019 
99 1 -2.98425 9.60885 0.772 
100 1 -2.93546 6.26951 3.17193 
107 1 -4.91168 10.5778 1.99025 
110 1 -3.31807 8.87308 3.10549 
111 1 0.60576 5.95528 10.7439 
113 1 1.58921 6.37347 9.83327 
119 1 -4.12023 10.4615 0.784124 
127 1 -2.1629 6.22002 1.9733 
131 1 -2.3184 6.22063 11.0114 
138 1 1.36444 7.98885 0.821648 
142 1 -2.53656 8.80094 8.70493 
145 1 -4.45009 9.75438 7.49808 
151 1 -4.96099 10.4181 11.0415 
154 1 -2.9917 9.62391 9.84326 
155 1 -2.94065 6.27743 7.43287 
12 1 2.56201 7.06844 17.149 
17 1 0.403995 9.32749 20.9138 
24 1 -3.52402 8.37776 11.8594 
27 1 -0.24878 7.20188 21.6308 
29 1 0.613227 5.96425 22.023 
31 1 1.28793 7.1854 17.9047 
44 1 -0.12629 7.16827 20.1414 
46 1 0.141436 8.50212 19.7191 
51 1 -0.257527 7.19 11.1433 
53 1 2.56207 7.067 15.6145 
56 1 1.28705 7.18625 14.8582 
63 1 -2.3304 6.22437 21.7495 
66 1 -3.38342 6.73628 20.8678 
70 1 -0.127286 7.16911 12.6255 
72 1 0.532456 5.92852 12.9665 
92 1 0.914484 8.45636 14.2448 
95 1 -4.97393 10.4491 21.7331 
98 1 -4.68309 9.27298 20.8507 
104 1 0.409491 9.32869 11.8489 
116 1 -2.62639 8.75692 21.8154 
118 1 -3.62019 8.36981 20.9161 
122 1 0.142777 8.50616 13.0424 
133 1 -3.3552 6.79615 11.9145 
136 1 0.310912 8.49866 22.0854 
147 1 0.532377 5.93177 19.8028 
153 1 -4.66792 9.21102 11.9044 
160 1 0.91379 8.45498 18.5165 
1 1 7.78143 4.77281 10.5696 
4 1 9.22297 4.75356 11.092 
20 1 7.89638 4.93219 9.09392 
42 1 9.45719 5.45936 7.42284 
67 1 9.97608 4.56589 0.761695 
77 1 7.86482 4.93281 0.097445 
94 1 7.85163 4.94209 1.54542 
96 1 9.17801 4.66609 1.99698 
121 1 4.65187 5.4802 10.6985 
130 1 9.46173 5.44771 3.17633 
134 1 9.98376 4.5855 9.8238 
152 1 9.19319 4.67264 8.61165 
45 1 4.66007 5.47451 22.0618 
55 1 4.81478 5.49829 13.0679 
106 1 9.1665 4.79465 21.745 
137 1 4.81579 5.50133 19.6986 
161 2 7.93706 4.52765 11.6567 
2 1 7.272 10.52 9.052 
3 1 8.95674 7.69018 6.08286 
6 1 8.51073 6.40614 6.8238 
16 1 2.35582 8.68317 0.855242 
22 1 7.14669 6.16452 8.76368 
26 1 7.1817 8.40633 7.52931 
35 1 7.25607 10.5483 10.4976 
37 1 6.83889 9.24765 11.036 
39 1 8.23165 8.9259 6.74587 
41 1 6.66377 7.05788 9.80065 
48 1 3.69997 6.35036 0.826883 
61 1 7.25363 10.5108 1.56424 
62 1 8.97461 7.65275 4.54537 
64 1 6.71599 9.22623 1.98953 
68 1 7.39783 6.96587 3.05782 
71 1 4.31251 8.5352 10.7707 
74 1 3.58935 7.81701 9.80713 
81 1 8.51684 6.39507 3.78773 
83 1 6.54298 8.43582 0.786252 
93 1 7.23364 10.5435 0.116665 
97 1 8.27382 8.93381 3.84866 
101 1 2.37453 9.92231 10.6448 
103 1 2.4371 8.72895 9.78923 
117 1 7.13018 6.18581 1.89803 
120 1 7.19042 8.42023 3.06837 
123 1 3.69018 6.34535 9.79448 
129 1 6.72325 6.99974 0.775931 
132 1 6.70745 9.25025 8.60613 
135 1 7.41399 6.9561 7.56975 
141 1 7.18904 6.25298 10.848 
144 1 6.51799 8.48855 9.81018 
148 1 3.59695 7.79435 0.792335 
7 1 9.1675 6.14858 11.9301 
10 1 3.67968 9.79083 21.5949 
13 1 2.36476 9.94226 22.1063 
15 1 3.01751 8.33 17.8954 
28 1 3.68442 9.77808 20.1399 
30 1 4.41233 8.535 19.7857 
34 1 4.34273 6.30067 18.6205 
40 1 7.75113 8.39151 11.8833 
49 1 4.80456 7.72878 20.91 
50 1 2.07471 9.28209 18.514 
58 1 1.55557 10.1498 11.8422 
59 1 4.13478 7.76188 14.1346 
69 1 3.68791 9.78607 11.1722 
73 1 3.0139 8.33293 14.8665 
75 1 4.97652 6.28468 11.8619 
79 1 7.2257 6.19482 21.84 
82 1 7.93372 6.93095 20.8968 
86 1 3.68563 9.78024 12.6233 
88 1 2.34665 10.0567 13.0625 
108 1 9.17597 6.03201 20.8396 
112 1 4.41305 8.53618 12.9775 
115 1 4.34306 6.29819 14.1438 
124 1 4.80556 7.73132 11.8548 
125 1 2.07438 9.28173 14.247 
126 1 6.873 9.25045 21.779 
128 1 7.83883 8.37071 20.8618 
139 1 1.55221 10.1597 20.9163 
140 1 4.13576 7.75915 18.6278 
143 1 7.95277 6.96729 11.8388 
146 1 4.31139 8.52205 22.0055 
149 1 4.98931 6.28955 20.9043 
157 1 2.35371 10.0583 19.6938 
ITEM: TIMESTEP
30
ITEM: NUMBER OF ATOMS
161
ITEM: BOX BOUNDS xy xz yz pp pp pp
-6.7755000000000001e+00 1.3552000000000000e+01 -6.7755000000000001e+00
0.0000000000000000e+00 1.1735510246683001e+01 0.0000000000000000e+00
0.0000000000000000e+00 2.2149999999999999e+01 0.0000000000000000e+00
ITEM: ATOMS id type x y z 
8 1 -2.44256 5.42538 9.8329 
87 1 2.94195 4.29037 10.6503 
90 1 2.63279 5.44832 9.77408 
109 1 -2.44139 5.42754 0.78209 
158 1 2.63827 5.43524 0.849881 
11 1 4.26669 4.24805 20.1207 
14 1 2.8702 4.16433 19.7106 
18 1 1.28686 5.84582 18.5675 
33 1 2.07716 4.28037 20.901 
43 1 4.28321 4.22791 21.5567 
47 1 3.24031 5.80451 17.8237 
52 1 4.26331 4.24941 12.6389 
76 1 2.43512 4.93376 14.1868 
85 1 4.28489 4.22684 11.1984 
89 1 3.24085 5.80358 14.9405 
91 1 0.943529 5.12633 11.8372 
102 1 2.87345 4.1636 13.0527 
105 1 1.28653 5.84605 14.198 
114 1 2.07904 4.27497 11.8639 
150 1 2.43238 4.93462 18.578 
156 1 2.94639 4.28398 22.1068 
159 1 0.94799 5.13186 20.9278 
5 1 -4.874 10.5211 8.61644 
9 1 -3.27416 8.86226 7.5212 
19 1 -1.74404 7.52443 10.5612 
21 1 -2.55848 8.79548 10.9708 
23 1 -3.30705 7.57712 6.82744 
25 1 -4.09158 10.4381 9.82396 
32 1 1.60522 6.38612 0.787673 
36 1 -1.85774 7.56162 9.06856 
38 1 -2.15158 6.25603 8.63063 
54 1 0.317699 8.45602 10.6737 
57 1 1.31496 7.93741 9.77407 
60 1 -1.77053 7.5486 0.0482494 
65 1 -3.29181 7.54446 3.79716 
78 1 -1.86318 7.57532 1.54906 
80 1 -2.52574 8.80136 1.9036 
84 1 -4.44988 9.78799 3.10712 
99 1 -2.96283 9.59058 0.758462 
100 1 -2.94003 6.29237 3.1709 
107 1 -4.88722 10.5589 1.98101 
110 1 -3.30627 8.87967 3.12301 
111 1 0.581041 5.9414 10.7241 
113 1 1.58398 6.39354 9.81824 
119 1 -4.09505 10.4442 0.787027 
127 1 -2.15673 6.25301 1.97366 
131 1 -2.33105 6.25397 11.0053 
138 1 1.37759 7.97898 0.821798 
142 1 -2.49586 8.81878 8.69923 
145 1 -4.44402 9.73044 7.48765 
151 1 -4.95287 10.3874 11.0376 
154 1 -2.95548 9.60461 9.85204 
155 1 -2.9437 6.29809 7.43881 
12 1 2.56383 7.07946 17.151 
17 1 0.425156 9.29683 20.9074 
24 1 -3.5014 8.37528 11.8731 
27 1 -0.246632 7.17793 21.6404 
29 1 0.597219 5.96231 22.0483 
31 1 1.27547 7.18132 17.8946 
44 1 -0.15233 7.14782 20.1404 
46 1 0.137988 8.46885 19.7157 
51 1 -0.265731 7.15107 11.1387 
53 1 2.56273 7.08169 15.6118 
56 1 1.27325 7.18302 14.869 
63 1 -2.34167 6.24535 21.7512 
66 1 -3.39571 6.74923 20.8675 
70 1 -0.156407 7.14712 12.6351 
72 1 0.508237 5.92163 12.9871 
92 1 0.922579 8.43389 14.2417 
95 1 -4.96301 10.4377 21.7273 
98 1 -4.65709 9.28856 20.838 
104 1 0.427726 9.28693 11.8436 
116 1 -2.61263 8.76207 21.7919 
118 1 -3.62351 8.3368 20.8995 
122 1 0.141232 8.47358 13.0431 
133 1 -3.36625 6.81224 11.9175 
136 1 0.325426 8.47939 22.0875 
147 1 0.508165 5.92292 19.7844 
153 1 -4.66062 9.19723 11.9201 
160 1 0.921751 8.43291 18.52 
1 1 7.73731 4.77579 10.5654 
4 1 9.19077 4.75665 11.1081 
20 1 7.85513 4.92305 9.09196 
42 1 9.4462 5.48383 7.43654 
67 1 9.96071 4.59557 0.77563 
77 1 7.81745 4.93298 0.0832817 
94 1 7.8046 4.94395 1.5526 
96 1 9.15423 4.68967 2.00318 
121 1 4.62361 5.52564 10.6749 
130 1 9.443 5.47223 3.1738 
134 1 9.9589 4.62262 9.83329 
152 1 9.16965 4.70055 8.61876 
45 1 4.63309 5.51685 22.0843 
55 1 4.81418 5.53096 13.0687 
106 1 9.13373 4.82156 21.7607 
137 1 4.81608 5.53395 19.6972 
161 2 7.9717 4.479 11.6225 
2 1 7.28947 10.4894 9.04722 
3 1 8.94067 7.70747 6.08049 
6 1 8.50207 6.41673 6.81833 
16 1 2.36412 8.69629 0.869156 
22 1 7.11069 6.14874 8.76596 
26 1 7.18651 8.38968 7.5205 
35 1 7.28304 10.4977 10.4837 
37 1 6.84705 9.23244 11.0299 
39 1 8.22109 8.92011 6.7233 
41 1 6.62437 7.05886 9.8042 
48 1 3.70234 6.3515 0.833796 
61 1 7.26676 10.4818 1.57266 
62 1 8.96986 7.64621 4.54173 
64 1 6.71517 9.18907 1.99146 
68 1 7.3775 6.9579 3.06211 
71 1 4.3232 8.53569 10.7531 
74 1 3.61531 7.83358 9.78331 
81 1 8.50388 6.39391 3.81134 
83 1 6.54212 8.40091 0.794812 
93 1 7.2567 10.4914 0.140539 
97 1 8.29121 8.91846 3.86475 
101 1 2.42324 9.90437 10.6674 
103 1 2.44196 8.72999 9.77191 
117 1 7.08311 6.17979 1.91571 
120 1 7.19886 8.40853 3.08052 
123 1 3.68384 6.36252 9.79343 
129 1 6.69944 6.98117 0.778177 
132 1 6.70274 9.21985 8.60945 
135 1 7.40211 6.94716 7.57738 
141 1 7.1763 6.25209 10.8486 
144 1 6.49429 8.46897 9.79732 
148 1 3.59361 7.80526 0.817397 
7 1 9.15507 6.15386 11.9309 
10 1 3.71928 9.79596 21.6054 
13 1 2.40149 9.90146 22.0738 
15 1 3.03023 8.33137 17.8792 
28 1 3.71937 9.77841 20.1396 
30 1 4.45165 8.54718 19.7693 
34 1 4.33324 6.31466 18.6057 
40 1 7.74838 8.38839 11.8969 
49 1 4.83369 7.74398 20.9131 
50 1 2.09238 9.25656 18.5206 
58 1 1.57834 10.1139 11.845 
59 1 4.15534 7.76849 14.1437 
69 1 3.74464 9.78839 11.171 
73 1 3.02849 8.33338 14.8825 
75 1 4.9786 6.32223 11.8745 
79 1 7.21087 6.20474 21.8114 
82 1 7.93823 6.91664 20.8739 
86 1 3.72408 9.78692 12.6304 
88 1 2.37686 10.0225 13.0618 
108 1 9.16768 6.02676 20.821 
112 1 4.45229 8.54784 12.9972 
115 1 4.33262 6.31318 14.1601 
124 1 4.8336 7.7453 11.8498 
125 1 2.09061 9.25895 14.2393 
126 1 6.89744 9.20357 21.7561 
128 1 7.83515 8.37228 20.8546 
139 1 1.57705 10.1281 20.9097 
140 1 4.15536 7.76731 18.6219 
143 1 7.93272 6.97608 11.838 
146 1 4.32133 8.51996 22.0277 
149 1 4.99167 6.3235 20.8919 
157 1 2.38393 10.0264 19.6923 
ITEM: TIMESTEP
40
ITEM: NUMBER OF ATOMS
161
ITEM: BOX BOUNDS xy xz yz pp pp pp
-6.7755000000000001e+00 1.3552000000000000e+01 -6.7755000000000001e+00
0.0000000000000000e+00 1.1735510246683001e+01 0.0000000000000000e+00
0.0000000000000000e+00 2.2149999999999999e+01 0.0000000000000000e+00
ITEM: ATOMS id type x y z 
8 1 -2.46809 5.44627 9.83302 
87 1 2.93273 4.31022 10.6494 
90 1 2.63266 5.46888 9.75433 
109 1 -2.45443 5.45144 0.78661 
158 1 2.63916 5.4528 0.868173 
11 1 4.25521 4.27026 20.103 
14 1 2.8582 4.17908 19.7137 
18 1 1.27519 5.85099 18.5558 
33 1 2.06879 4.29165 20.9091 
43 1 4.26668 4.25613 21.5437 
47 1 3.23713 5.79547 17.8299 
52 1 4.25506 4.26945 12.6503 
76 1 2.41774 4.93126 14.1909 
85 1 4.26254 4.2596 11.2101 
89 1 3.23775 5.79588 14.936 
91 1 0.924569 5.12607 11.8433 
102 1 2.85838 4.17882 13.0514 
105 1 1.27534 5.84952 14.2129 
114 1 2.06947 4.28615 11.8549 
150 1 2.41461 4.93244 18.5722 
156 1 2.9377 4.30929 22.1137 
159 1 0.929408 5.1357 20.9268 
5 1 -4.85857 10.4996 8.62265 
9 1 -3.25211 8.86053 7.51632 
19 1 -1.73997 7.54079 10.5574 
21 1 -2.53639 8.80442 10.9859 
23 1 -3.30958 7.57776 6.82743 
25 1 -4.0769 10.419 9.83148 
32 1 1.58353 6.37529 0.806354 
36 1 -1.83178 7.57864 9.06386 
38 1 -2.15259 6.27535 8.62896 
54 1 0.336904 8.43635 10.6623 
57 1 1.31662 7.93742 9.77174 
60 1 -1.76535 7.55998 0.0491106 
65 1 -3.3036 7.54191 3.80063 
78 1 -1.84673 7.59743 1.54998 
80 1 -2.50838 8.81181 1.90935 
84 1 -4.43323 9.79022 3.11676 
99 1 -2.94665 9.58768 0.762064 
100 1 -2.93539 6.2897 3.16553 
107 1 -4.87621 10.5464 1.9755 
110 1 -3.29192 8.87262 3.13229 
111 1 0.563784 5.93752 10.7131 
113 1 1.55841 6.38845 9.80079 
119 1 -4.08552 10.4309 0.777737 
127 1 -2.14926 6.2704 1.97125 
131 1 -2.35157 6.26378 11.0054 
138 1 1.38475 7.98262 0.830063 
142 1 -2.46651 8.82794 8.69316 
145 1 -4.43343 9.71769 7.47555 
151 1 -4.94183 10.3565 11.0354 
154 1 -2.92289 9.60303 9.85574 
155 1 -2.94108 6.30415 7.44428 
12 1 2.57207 7.06349 17.1465 
17 1 0.435421 9.27201 20.9025 
24 1 -3.48548 8.3808 11.8873 
27 1 -0.251845 7.16395 21.6398 
29 1 0.581796 5.96173 22.0574 
31 1 1.28396 7.18436 17.8944 
44 1 -0.17103 7.12609 20.1402 
46 1 0.129938 8.45461 19.72 
51 1 -0.265404 7.12937 11.1452 
53 1 2.5698 7.06584 15.6144 
56 1 1.28208 7.18619 14.87 
63 1 -2.35359 6.25875 21.752 
66 1 -3.40115 6.7433 20.8595 
70 1 -0.176768 7.12473 12.6392 
72 1 0.489698 5.90818 12.9901 
92 1 0.916403 8.43812 14.2363 
95 1 -4.95467 10.4152 21.7261 
98 1 -4.65608 9.27037 20.8182 
104 1 0.446844 9.26017 11.8474 
116 1 -2.59936 8.76259 21.7807 
118 1 -3.60136 8.3496 20.8822 
122 1 0.133941 8.45773 13.0379 
133 1 -3.37283 6.81791 11.9241 
136 1 0.335612 8.46628 22.0883 
147 1 0.489526 5.91152 19.7798 
153 1 -4.64434 9.18446 11.9368 
160 1 0.915977 8.43689 18.5238 
1 1 7.69617 4.77329 10.5562 
4 1 9.14063 4.75276 11.133 
20 1 7.82909 4.9173 9.09662 
42 1 9.44584 5.501 7.44286 
67 1 9.94122 4.62157 0.786685 
77 1 7.77956 4.92287 0.0900545 
94 1 7.78361 4.94865 1.55266 
96 1 9.11849 4.71192 1.99786 
121 1 4.61734 5.54336 10.6837 
130 1 9.43773 5.47339 3.16577 
134 1 9.92593 4.65712 9.84292 
152 1 9.14846 4.71204 8.6341 
45 1 4.62854 5.53347 22.0732 
55 1 4.80959 5.55256 13.0713 
106 1 9.11583 4.83234 21.7687 
137 1 4.81195 5.55483 19.6939 
161 2 8.04766 4.45114 11.5722 
2 1 7.30494 10.4677 9.01747 
3 1 8.92935 7.72086 6.08606 
6 1 8.49955 6.41655 6.82281 
16 1 2.37978 8.70418 0.875927 
22 1 7.07439 6.14501 8.75335 
26 1 7.17454 8.38277 7.51449 
35 1 7.29584 10.4805 10.4706 
37 1 6.86002 9.21802 11.0326 
39 1 8.21462 8.92571 6.72301 
41 1 6.60171 7.03914 9.80404 
48 1 3.6825 6.36082 0.864269 
61 1 7.27933 10.4541 1.59001 
62 1 8.96466 7.66083 4.55156 
64 1 6.71951 9.17131 1.99496 
68 1 7.37103 6.94857 3.07498 
71 1 4.34881 8.53581 10.7475 
74 1 3.61367 7.84227 9.76439 
81 1 8.49975 6.39968 3.8055 
83 1 6.5413 8.38912 0.790296 
93 1 7.27045 10.4632 0.147224 
97 1 8.2983 8.92508 3.85683 
101 1 2.44272 9.88644 10.6684 
103 1 2.46604 8.73573 9.76448 
117 1 7.05342 6.16604 1.92844 
120 1 7.19933 8.39188 3.0914 
123 1 3.65713 6.3731 9.76757 
129 1 6.68135 6.96129 0.77548 
132 1 6.70118 9.20733 8.60441 
135 1 7.39302 6.93693 7.5773 
141 1 7.15236 6.25682 10.8524 
144 1 6.47892 8.45846 9.80382 
148 1 3.60484 7.80837 0.830046 
7 1 9.13555 6.15901 11.9349 
10 1 3.75407 9.80697 21.6061 
13 1 2.42077 9.88342 22.067 
15 1 3.03107 8.32857 17.8865 
28 1 3.75268 9.77275 20.1354 
30 1 4.48111 8.5579 19.7625 
34 1 4.33435 6.32994 18.5966 
40 1 7.74534 8.38941 11.9048 
49 1 4.85073 7.76434 20.9124 
50 1 2.09577 9.25237 18.5223 
58 1 1.59758 10.0821 11.8437 
59 1 4.16452 7.77695 14.1559 
69 1 3.78225 9.81006 11.1763 
73 1 3.02842 8.33279 14.8772 
75 1 4.97847 6.33282 11.8697 
79 1 7.19224 6.2082 21.8054 
82 1 7.92973 6.91596 20.8573 
86 1 3.75879 9.78192 12.6338 
88 1 2.40394 10.0092 13.0571 
108 1 9.15381 6.02448 20.8093 
112 1 4.4843 8.55975 13.0088 
115 1 4.33456 6.3273 14.1696 
124 1 4.85248 7.76473 11.8565 
125 1 2.09426 9.25319 14.2373 
126 1 6.90607 9.19034 21.7663 
128 1 7.85216 8.36241 20.8255 
139 1 1.59471 10.1041 20.9094 
140 1 4.16441 7.77701 18.6127 
143 1 7.92554 6.9666 11.8458 
146 1 4.33871 8.51314 22.0361 
149 1 4.99112 6.33476 20.898 
157 1 2.41593 10.0127 19.6924 
ITEM: TIMESTEP
50
ITEM: NUMBER OF ATOMS
161
ITEM: BOX BOUNDS xy xz yz pp pp pp
-6.7755000000000001e+00 1.3552000000000000e+01 -6.7755000000000001e+00
0.0000000000000000e+00 1.1735510246683001e+01 0.0000000000000000e+00
0.0000000000000000e+00 2.2149999999999999e+01 0.0000000000000000e+00
ITEM: ATOMS id type x y z 
8 1 -2.47965 5.45528 9.83116 
87 1 2.9264 4.31515 10.6456 
90 1 2.62375 5.46752 9.7479 
109 1 -2.46037 5.45952 0.787652 
158 1 2.63108 5.45179 0.87528 
11 1 4.2507 4.27842 20.1013 
14 1 2.85185 4.18327 19.713 
18 1 1.26979 5.84971 18.5564 
33 1 2.0642 4.29572 20.911 
43 1 4.25955 4.26908 21.5394 
47 1 3.23232 5.7979 17.8304 
52 1 4.25038 4.27701 12.654 
76 1 2.412 4.93201 14.1931 
85 1 4.25577 4.27248 11.2155 
89 1 3.23359 5.79734 14.935 
91 1 0.915742 5.12734 11.8392 
102 1 2.85314 4.18246 13.0509 
105 1 1.27004 5.84779 14.2125 
114 1 2.06482 4.28938 11.8537 
150 1 2.40879 4.93212 18.5708 
156 1 2.93273 4.31172 22.1146 
159 1 0.921419 5.1383 20.9299 
5 1 -4.84882 10.4883 8.61965 
9 1 -3.24559 8.86235 7.51564 
19 1 -1.73891 7.54492 10.5575 
21 1 -2.52887 8.80519 10.9888 
23 1 -3.31195 7.57985 6.82671 
25 1 -4.06922 10.4107 9.82928 
32 1 1.58401 6.38129 0.811495 
36 1 -1.82335 7.58375 9.0623 
38 1 -2.15209 6.2809 8.63297 
54 1 0.338287 8.42888 10.6664 
57 1 1.32466 7.93327 9.76633 
60 1 -1.76508 7.56415 0.0490689 
65 1 -3.30068 7.54146 3.80206 
78 1 -1.84024 7.602 1.55202 
80 1 -2.50182 8.81517 1.91292 
84 1 -4.42658 9.79026 3.11719 
99 1 -2.93862 9.5853 0.758581 
100 1 -2.93669 6.29338 3.16548 
107 1 -4.86915 10.5409 1.97619 
110 1 -3.28662 8.8742 3.13272 
111 1 0.560263 5.93373 10.7127 
113 1 1.55657 6.39099 9.79398 
119 1 -4.08195 10.4276 0.777704 
127 1 -2.14886 6.27815 1.97227 
131 1 -2.3559 6.27342 11.0058 
138 1 1.38797 7.97854 0.832844 
142 1 -2.45657 8.83248 8.69353 
145 1 -4.42947 9.7136 7.47718 
151 1 -4.93723 10.3513 11.0338 
154 1 -2.91065 9.60123 9.85638 
155 1 -2.9407 6.30753 7.444 
12 1 2.57221 7.0654 17.1479 
17 1 0.441963 9.26469 20.9023 
24 1 -3.47876 8.37832 11.8916 
27 1 -0.252564 7.15985 21.64 
29 1 0.58053 5.9595 22.0605 
31 1 1.28239 7.18511 17.8925 
44 1 -0.17736 7.12144 20.1381 
46 1 0.129197 8.44642 19.7184 
51 1 -0.265994 7.12523 11.1447 
53 1 2.57049 7.06861 15.6134 
56 1 1.28063 7.18753 14.8717 
63 1 -2.35844 6.26458 21.7519 
66 1 -3.40602 6.74566 20.8566 
70 1 -0.18343 7.11901 12.6416 
72 1 0.483502 5.90478 12.9961 
92 1 0.917174 8.4349 14.2352 
95 1 -4.94999 10.4114 21.7241 
98 1 -4.64879 9.27201 20.8119 
104 1 0.45289 9.24986 11.8455 
116 1 -2.59765 8.76445 21.778 
118 1 -3.60102 8.34366 20.8767 
122 1 0.133295 8.44881 13.0393 
133 1 -3.38008 6.82249 11.9275 
136 1 0.339992 8.46003 22.0886 
147 1 0.483676 5.90826 19.7762 
153 1 -4.64249 9.17965 11.9408 
160 1 0.916398 8.43408 18.5247 
1 1 7.67674 4.77365 10.5563 
4 1 9.13183 4.75487 11.1381 
20 1 7.81607 4.91594 9.09417 
42 1 9.44229 5.5031 7.44993 
67 1 9.93057 4.63212 0.781382 
77 1 7.76616 4.90369 0.0804964 
94 1 7.77565 4.95332 1.55668 
96 1 9.10799 4.71709 1.99968 
121 1 4.60905 5.55515 10.6797 
130 1 9.43331 5.4812 3.16595 
134 1 9.91286 4.66721 9.84994 
152 1 9.14023 4.71978 8.63406 
45 1 4.62091 5.54437 22.0772 
55 1 4.80899 5.55984 13.0735 
106 1 9.10725 4.84831 21.7771 
137 1 4.81171 5.56229 19.692 
161 2 8.07685 4.43973 11.5511 
2 1 7.31142 10.4604 9.02085 
3 1 8.92697 7.72219 6.08661 
6 1 8.49645 6.42003 6.82512 
16 1 2.38288 8.70462 0.878916 
22 1 7.06482 6.14043 8.75395 
26 1 7.17185 8.37748 7.51051 
35 1 7.30758 10.4686 10.4634 
37 1 6.85733 9.21427 11.0298 
39 1 8.21489 8.92408 6.72491 
41 1 6.58595 7.04222 9.80408 
48 1 3.68148 6.36431 0.867045 
61 1 7.28418 10.4454 1.58992 
62 1 8.96321 7.65859 4.5491 
64 1 6.72035 9.16257 1.99684 
68 1 7.36406 6.94344 3.07751 
71 1 4.35239 8.5375 10.7456 
74 1 3.62304 7.84661 9.76355 
81 1 8.49812 6.40092 3.81097 
83 1 6.5404 8.38212 0.791201 
93 1 7.27695 10.4524 0.152793 
97 1 8.30196 8.92246 3.85722 
101 1 2.45658 9.88333 10.6729 
103 1 2.46289 8.73507 9.75803 
117 1 7.04173 6.1603 1.93199 
120 1 7.20017 8.39115 3.09474 
123 1 3.65505 6.38002 9.76485 
129 1 6.67407 6.95727 0.775954 
132 1 6.6979 9.19983 8.60726 
135 1 7.38999 6.93441 7.57775 
141 1 7.14979 6.25244 10.8485 
144 1 6.47483 8.45573 9.79988 
148 1 3.60777 7.81202 0.835893 
7 1 9.13099 6.16125 11.9387 
10 1 3.77294 9.82297 21.6098 
13 1 2.43039 9.87478 22.0621 
15 1 3.03524 8.32677 17.8818 
28 1 3.75845 9.76998 20.1375 
30 1 4.49312 8.5633 19.7568 
34 1 4.33282 6.33292 18.5927 
40 1 7.75118 8.38453 11.9077 
49 1 4.8586 7.76711 20.9144 
50 1 2.09928 9.24685 18.5245 
58 1 1.60749 10.0711 11.8448 
59 1 4.17106 7.78145 14.1572 
69 1 3.79797 9.81607 11.1739 
73 1 3.03203 8.33023 14.881 
75 1 4.97747 6.34087 11.8699 
79 1 7.18603 6.21507 21.8 
82 1 7.9265 6.91126 20.8531 
86 1 3.76841 9.78183 12.6345 