LAMMPS (3 Mar 2020)
Reading data file ...
  orthogonal box = (0 0 0) to (13.416 13.416 13.415)
  2 by 2 by 2 MPI processor grid
  reading atoms ...
  81 atoms
  read_data CPU = 0.00771585 secs
WARNING: Changed valency_val to valency_boc for X (../reaxc_ffield.cpp:315)
WARNING: Using 'neigh_modify every 1 delay 0 check yes' setting during minimization (../min.cpp:190)
Neighbor list info ...
  update every 1 steps, delay 0 steps, check yes
  max neighbors/atom: 2000, page size: 100000
  master list distance cutoff = 12
  ghost atom cutoff = 12
  binsize = 6, bins = 3 3 3
  2 neighbor lists, perpetual/occasional/extra = 2 0 0
  (1) pair reax/c, perpetual
      attributes: half, newton off, ghost
      pair build: half/bin/newtoff/ghost
      stencil: half/ghost/bin/3d/newtoff
      bin: standard
  (2) fix qeq/reax, perpetual, copy from (1)
      attributes: half, newton off, ghost
      pair build: copy
      stencil: none
      bin: none
Setting up cg style minimization ...
  Unit style    : real
  Current step  : 0
Per MPI rank memory allocation (min/avg/max) = 27.51 | 27.55 | 27.58 Mbytes
Step Temp E_pair E_mol TotEng Press 
       0            0   -14080.494            0   -14080.494   -16406.124 
      25            0   -14372.368            0   -14372.368    5186.6664 
Loop time of 2.09128 on 8 procs for 25 steps with 81 atoms

99.8% CPU use with 8 MPI tasks x no OpenMP threads

Minimization stats:
  Stopping criterion = energy tolerance
  Energy initial, next-to-last, final = 
        -14080.4941949     -14372.3675936     -14372.3677091
  Force two-norm initial, final = 1760.47 517.612
  Force max component initial, final = 844.125 233.095
  Final line search alpha, max atom move = 0.000127405 0.0296974
  Iterations, force evaluations = 25 99

MPI task timing breakdown:
Section |  min time  |  avg time  |  max time  |%varavg| %total
---------------------------------------------------------------
Pair    | 1.5691     | 1.5818     | 1.6101     |   1.0 | 75.64
Neigh   | 0          | 0          | 0          |   0.0 |  0.00
Comm    | 0.022101   | 0.050262   | 0.06252    |   5.6 |  2.40
Output  | 0.00018039 | 0.00025849 | 0.00040381 |   0.0 |  0.01
Modify  | 0.45394    | 0.45399    | 0.45423    |   0.0 | 21.71
Other   |            | 0.004982   |            |       |  0.24

Nlocal:    10.125 ave 11 max 10 min
Histogram: 7 0 0 0 0 0 0 0 0 1
Nghost:    1099.88 ave 1102 max 1098 min
Histogram: 4 0 0 0 0 0 0 1 0 3
Neighs:    2393.5 ave 2597 max 2359 min
Histogram: 7 0 0 0 0 0 0 0 0 1

Total # of neighbors = 19148
Ave neighs/atom = 236.395
Neighbor list builds = 0
Dangerous builds = 0
WARNING: Using 'neigh_modify every 1 delay 0 check yes' setting during minimization (../min.cpp:190)
Setting up cg style minimization ...
  Unit style    : real
  Current step  : 25
Per MPI rank memory allocation (min/avg/max) = 27.51 | 27.55 | 27.58 Mbytes
Step Temp E_pair E_mol TotEng Press 
      25            0   -14372.368            0   -14372.368    5186.6686 
      74            0   -14399.641            0   -14399.641    -299.0624 
Loop time of 7.54925 on 8 procs for 49 steps with 81 atoms

99.8% CPU use with 8 MPI tasks x no OpenMP threads

Minimization stats:
  Stopping criterion = linesearch alpha is zero
  Energy initial, next-to-last, final = 
        -14372.3677086     -14399.6411239     -14399.6411248
  Force two-norm initial, final = 517.612 203.771
  Force max component initial, final = 233.095 61.5333
  Final line search alpha, max atom move = 1.89191e-13 1.16415e-11
  Iterations, force evaluations = 49 373

MPI task timing breakdown:
Section |  min time  |  avg time  |  max time  |%varavg| %total
---------------------------------------------------------------
Pair    | 5.8683     | 5.9417     | 6.0441     |   2.0 | 78.71
Neigh   | 0          | 0          | 0          |   0.0 |  0.00
Comm    | 0.090982   | 0.19276    | 0.26634    |  11.1 |  2.55
Output  | 0.0006678  | 0.00095342 | 0.0013581  |   0.0 |  0.01
Modify  | 1.396      | 1.3963     | 1.3973     |   0.0 | 18.50
Other   |            | 0.01753    |            |       |  0.23

Nlocal:    10.125 ave 11 max 10 min
Histogram: 7 0 0 0 0 0 0 0 0 1
Nghost:    1099.88 ave 1102 max 1098 min
Histogram: 4 0 0 0 0 0 0 1 0 3
Neighs:    2406 ave 2610 max 2372 min
Histogram: 7 0 0 0 0 0 0 0 0 1

Total # of neighbors = 19248
Ave neighs/atom = 237.63
Neighbor list builds = 0
Dangerous builds = 0
WARNING: Using 'neigh_modify every 1 delay 0 check yes' setting during minimization (../min.cpp:190)
Setting up cg style minimization ...
  Unit style    : real
  Current step  : 74
WARNING: Energy due to 3 extra global DOFs will be included in minimizer energies
Per MPI rank memory allocation (min/avg/max) = 27.51 | 27.55 | 27.58 Mbytes
Step Temp E_pair E_mol TotEng Press Volume 
      74            0   -14399.641            0   -14399.641     -299.065    2414.5532 
      80            0   -14399.651            0   -14399.651    166.46434    2414.5466 
Loop time of 1.08439 on 8 procs for 6 steps with 81 atoms

99.4% CPU use with 8 MPI tasks x no OpenMP threads

Minimization stats:
  Stopping criterion = energy tolerance
  Energy initial, next-to-last, final = 
        -14399.6411254     -14399.6509396     -14399.6510402
  Force two-norm initial, final = 272.254 255.634
  Force max component initial, final = 156.776 126.764
  Final line search alpha, max atom move = 1.53042e-09 1.94001e-07
  Iterations, force evaluations = 6 58

MPI task timing breakdown:
Section |  min time  |  avg time  |  max time  |%varavg| %total
---------------------------------------------------------------
Pair    | 0.91331    | 0.93425    | 0.95861    |   1.5 | 86.15
Neigh   | 0          | 0          | 0          |   0.0 |  0.00
Comm    | 0.014517   | 0.038815   | 0.059876   |   7.1 |  3.58
Output  | 0          | 0          | 0          |   0.0 |  0.00
Modify  | 0.10439    | 0.10443    | 0.10458    |   0.0 |  9.63
Other   |            | 0.006892   |            |       |  0.64

Nlocal:    10.125 ave 11 max 10 min
Histogram: 7 0 0 0 0 0 0 0 0 1
Nghost:    1099.88 ave 1102 max 1098 min
Histogram: 4 0 0 0 0 0 0 1 0 3
Neighs:    2406.25 ave 2609 max 2375 min
Histogram: 7 0 0 0 0 0 0 0 0 1

Total # of neighbors = 19250
Ave neighs/atom = 237.654
Neighbor list builds = 0
Dangerous builds = 0
WARNING: Using 'neigh_modify every 1 delay 0 check yes' setting during minimization (../min.cpp:190)
Setting up cg style minimization ...
  Unit style    : real
  Current step  : 80
Per MPI rank memory allocation (min/avg/max) = 27.51 | 27.55 | 27.58 Mbytes
Step Temp E_pair E_mol TotEng Press 
      80            0   -14399.651            0   -14399.651      166.464 
      81            0   -14399.651            0   -14399.651    166.46617 
Loop time of 1.10021 on 8 procs for 1 steps with 81 atoms

99.5% CPU use with 8 MPI tasks x no OpenMP threads

Minimization stats:
  Stopping criterion = linesearch alpha is zero
  Energy initial, next-to-last, final = 
          -14399.65104       -14399.65104     -14399.6510396
  Force two-norm initial, final = 196.113 196.113
  Force max component initial, final = 57.8532 57.8532
  Final line search alpha, max atom move = 2.01225e-13 1.16415e-11
  Iterations, force evaluations = 1 59

MPI task timing breakdown:
Section |  min time  |  avg time  |  max time  |%varavg| %total
---------------------------------------------------------------
Pair    | 0.9279     | 0.94864    | 0.96789    |   1.2 | 86.22
Neigh   | 0          | 0          | 0          |   0.0 |  0.00
Comm    | 0.011494   | 0.030734   | 0.051599   |   6.6 |  2.79
Output  | 0          | 0          | 0          |   0.0 |  0.00
Modify  | 0.11817    | 0.11821    | 0.11837    |   0.0 | 10.74
Other   |            | 0.002625   |            |       |  0.24

Nlocal:    10.125 ave 11 max 10 min
Histogram: 7 0 0 0 0 0 0 0 0 1
Nghost:    1099.88 ave 1102 max 1098 min
Histogram: 4 0 0 0 0 0 0 1 0 3
Neighs:    2406.25 ave 2609 max 2375 min
Histogram: 7 0 0 0 0 0 0 0 0 1

Total # of neighbors = 19250
Ave neighs/atom = 237.654
Neighbor list builds = 0
Dangerous builds = 0
WARNING: Using 'neigh_modify every 1 delay 0 check yes' setting during minimization (../min.cpp:190)
Setting up cg style minimization ...
  Unit style    : real
  Current step  : 81
WARNING: Energy due to 3 extra global DOFs will be included in minimizer energies
Per MPI rank memory allocation (min/avg/max) = 27.51 | 27.55 | 27.58 Mbytes
Step Temp E_pair E_mol TotEng Press Volume 
      81            0   -14399.651            0   -14399.651    166.46436    2414.5466 
      82            0   -14399.651            0   -14399.651    175.93885    2414.5466 
Loop time of 0.28739 on 8 procs for 1 steps with 81 atoms

99.7% CPU use with 8 MPI tasks x no OpenMP threads

Minimization stats:
  Stopping criterion = energy tolerance
  Energy initial, next-to-last, final = 
          -14399.65104       -14399.65104     -14399.6510896
  Force two-norm initial, final = 255.633 255.453
  Force max component initial, final = 126.761 126.241
  Final line search alpha, max atom move = 7.70397e-10 9.72557e-08
  Iterations, force evaluations = 1 15

MPI task timing breakdown:
Section |  min time  |  avg time  |  max time  |%varavg| %total
---------------------------------------------------------------
Pair    | 0.24787    | 0.25188    | 0.25493    |   0.4 | 87.64
Neigh   | 0          | 0          | 0          |   0.0 |  0.00
Comm    | 0.0028931  | 0.005932   | 0.009948   |   2.5 |  2.06
Output  | 0          | 0          | 0          |   0.0 |  0.00
Modify  | 0.027316   | 0.027438   | 0.027464   |   0.0 |  9.55
Other   |            | 0.002139   |            |       |  0.74

Nlocal:    10.125 ave 11 max 10 min
Histogram: 7 0 0 0 0 0 0 0 0 1
Nghost:    1099.88 ave 1102 max 1098 min
Histogram: 4 0 0 0 0 0 0 1 0 3
Neighs:    2406.25 ave 2609 max 2375 min
Histogram: 7 0 0 0 0 0 0 0 0 1

Total # of neighbors = 19250
Ave neighs/atom = 237.654
Neighbor list builds = 0
Dangerous builds = 0
WARNING: Using 'neigh_modify every 1 delay 0 check yes' setting during minimization (../min.cpp:190)
Setting up cg style minimization ...
  Unit style    : real
  Current step  : 82
Per MPI rank memory allocation (min/avg/max) = 27.51 | 27.55 | 27.58 Mbytes
Step Temp E_pair E_mol TotEng Press 
      82            0   -14399.651            0   -14399.651    175.93233 
      83            0   -14399.651            0   -14399.651    175.93575 
Loop time of 1.09748 on 8 procs for 1 steps with 81 atoms

99.7% CPU use with 8 MPI tasks x no OpenMP threads

Minimization stats:
  Stopping criterion = linesearch alpha is zero
  Energy initial, next-to-last, final = 
        -14399.6510909     -14399.6510909       -14399.65109
  Force two-norm initial, final = 196.01 196.01
  Force max component initial, final = 57.8333 57.8333
  Final line search alpha, max atom move = 2.01295e-13 1.16415e-11
  Iterations, force evaluations = 1 59

MPI task timing breakdown:
Section |  min time  |  avg time  |  max time  |%varavg| %total
---------------------------------------------------------------
Pair    | 0.9274     | 0.94241    | 0.96429    |   1.1 | 85.87
Neigh   | 0          | 0          | 0          |   0.0 |  0.00
Comm    | 0.011278   | 0.033008   | 0.048175   |   5.9 |  3.01
Output  | 0          | 0          | 0          |   0.0 |  0.00
Modify  | 0.11933    | 0.1194     | 0.11954    |   0.0 | 10.88
Other   |            | 0.002659   |            |       |  0.24

Nlocal:    10.125 ave 11 max 10 min
Histogram: 7 0 0 0 0 0 0 0 0 1
Nghost:    1099.88 ave 1102 max 1098 min
Histogram: 4 0 0 0 0 0 0 1 0 3
Neighs:    2406.25 ave 2609 max 2375 min
Histogram: 7 0 0 0 0 0 0 0 0 1

Total # of neighbors = 19250
Ave neighs/atom = 237.654
Neighbor list builds = 0
Dangerous builds = 0
Setting up Verlet run ...
  Unit style    : real
  Current step  : 0
  Time step     : 0.25
Per MPI rank memory allocation (min/avg/max) = 26.39 | 26.42 | 26.46 Mbytes
Step Temp TotEng KinEng PotEng Press 
       0          300   -14328.112    71.539441   -14399.651    1530.3241 
     200    214.78452    -14300.23    51.218549   -14351.448    10660.923 
     400    349.83123   -14262.805    83.422436   -14346.227    8537.3584 
     600    332.12285   -14278.287    79.199611   -14357.486   -22289.836 
     800     297.7951   -14315.176     71.01365   -14386.189    3285.8419 
    1000    288.13104   -14322.543    68.709112   -14391.252    9959.6231 
    1200    325.79834   -14312.153    77.691438   -14389.844   -8257.1497 
    1400    267.22464   -14331.121    63.723672   -14394.844   -1030.5687 
    1600    275.18248   -14314.805    65.621337   -14380.426    19705.464 
    1800    305.61702   -14301.757    72.878902   -14374.636    2311.8509 
    2000    321.51096   -14284.862    76.669048   -14361.531   -384.42186 
    2200    320.10945   -14295.758    76.334836   -14372.093    3686.0503 
    2400    297.71952   -14322.715    70.995627   -14393.711   -3617.6804 
    2600    333.83689   -14314.228    79.608348   -14393.837   -2004.9066 
    2800    291.80242   -14325.783    69.584608   -14395.367   -4964.6216 
    3000    242.67722   -14327.153    57.869975   -14385.023     -423.951 
    3200    292.37168   -14309.744    69.720356   -14379.465    6183.5698 
    3400    321.42842   -14291.911    76.649365    -14368.56     5025.778 
    3600    252.34404   -14298.077    60.175172   -14358.252   -10547.783 
    3800     267.7537   -14315.269    63.849833   -14379.118    4221.4299 
    4000    284.20667   -14309.497    67.773288    -14377.27   -17503.509 
    4200    272.60601   -14326.199    65.006938   -14391.206    12285.598 
    4400    260.72574   -14332.908    62.173912   -14395.082    9660.7415 
    4600     301.7286    -14314.19    71.951652   -14386.142    7011.1584 
    4800    287.29608   -14296.541    68.510003   -14365.051    10628.612 
    5000    323.00738   -14294.704    77.025891    -14371.73    7842.2296 
    5200    265.74923   -14311.648    63.371837   -14375.019    3350.6743 
    5400    284.86106   -14323.204    67.929338   -14391.134    8235.8836 
    5600    306.16851   -14308.243    73.010413   -14381.254    11098.328 
    5800    305.37128   -14321.775    72.820303   -14394.595    3245.0794 
    6000    286.33184   -14318.475    68.280067   -14386.755   -13564.698 
    6200     321.4536    -14301.02     76.65537   -14377.676    17193.378 
    6400    284.65936   -14301.083    67.881239   -14368.965   -14300.687 
    6600    306.84779   -14295.391    73.172398   -14368.563    1736.2898 
    6800     302.3273   -14309.122    72.094421   -14381.216    14779.228 
    7000    323.41447   -14309.854    77.122968   -14386.977   -14781.526 
    7200    310.26591   -14311.499      73.9875   -14385.487    4677.4273 
    7400    254.03915    -14329.15    60.579396   -14389.729   -605.76301 
    7600    312.55199   -14308.552    74.532649   -14383.085   -3000.5972 
    7800    323.78105   -14298.076    77.210385   -14375.286   -3499.7364 
    8000    326.73678   -14292.282    77.915222   -14370.197    5336.9165 
    8200    303.43506   -14304.595    72.358583   -14376.954   -3175.5215 
    8400    306.67963   -14322.449    73.132298   -14395.581   -12656.432 
    8600    276.22929   -14323.454    65.870964   -14389.325   -4969.5649 
    8800    305.36951   -14307.626    72.819879   -14380.445    1517.9187 
    9000    306.80099   -14310.452    73.161239   -14383.614    2266.3196 
    9200    299.18536   -14308.682    71.345178   -14380.027   -14830.605 
    9400    325.35531   -14289.717    77.585791   -14367.302    6560.4563 
    9600    294.44162    -14308.07    70.213962   -14378.284    17892.053 
    9800    295.70322   -14317.147    70.514811   -14387.662    5561.5783 
   10000    273.99108   -14325.057    65.337229   -14390.395    10203.742 
   10200    317.40779   -14318.265    75.690586   -14393.956    5418.0849 
   10400    324.69443   -14305.256    77.428193   -14382.684   -8840.4283 
   10600     326.0314   -14292.426    77.747013   -14370.173   -12210.253 
   10800    339.82377   -14281.185    81.036009   -14362.221    27303.587 
   11000    307.52833   -14305.835    73.334684   -14379.169   -13041.185 
   11200     342.3452   -14307.671     81.63728   -14389.308   -4090.4287 
   11400    291.02192   -14331.104    69.398486   -14400.502   -16736.252 
   11600    299.58499   -14313.319    71.440477   -14384.759   -4918.2785 
   11800    291.85597   -14307.739    69.597378   -14377.336   -2039.9869 
   12000    347.90701   -14289.124    82.963578   -14372.087    -1206.659 
   12200    287.22651   -14297.262    68.493413   -14365.755   -2710.2284 
   12400    282.35213   -14302.269    67.331045     -14369.6   -7006.1767 
   12600    313.25905   -14319.634    74.701257   -14394.335    16293.769 
   12800    275.65948   -14321.245    65.735084    -14386.98   -6654.1543 
   13000    322.57119    -14314.62    76.921875   -14391.542    14362.253 
   13200    287.27453   -14318.099    68.504864   -14386.603    13080.695 
   13400    287.01365   -14299.288    68.442653   -14367.731    5406.1963 
   13600    283.70703   -14303.469    67.654142   -14371.123    11466.407 
   13800    346.80378   -14284.076    82.700497   -14366.776    2874.8298 
   14000    290.27222   -14307.308    69.219709   -14376.528     18544.71 
   14200    282.71237   -14314.921    67.416951   -14382.338    3537.5512 
   14400    313.62239   -14315.789    74.787902   -14390.576    3005.1655 
   14600    258.21404   -14325.586    61.574961   -14387.161    4935.5997 
   14800    318.59735   -14305.705    75.974256   -14381.679   -12142.119 
   15000    351.68036   -14297.152    83.863389   -14381.016   -3864.7558 
   15200    330.08204   -14302.069    78.712949   -14380.782    92.401276 
   15400    297.61481   -14312.602    70.970656   -14383.573   -5371.8543 
   15600    290.29726    -14321.23    69.225679   -14390.456   -2151.0118 
   15800    348.90511   -14305.625    83.201589   -14388.826   -7619.1433 
   16000    305.94223   -14318.204    72.956453    -14391.16    19945.518 
   16200    282.24543   -14321.415    67.305601    -14388.72    7829.9904 
   16400    284.28757   -14298.276    67.792579   -14366.069    912.56522 
   16600    356.46129   -14287.723    85.003472   -14372.727   -11212.757 
   16800    301.83105    -14308.49    71.976081   -14380.466   -7033.9408 
   17000    322.39522   -14308.392    76.879913   -14385.272   -1760.6459 
   17200    285.16887   -14326.449    68.002739   -14394.452   -535.94969 
   17400    307.52882   -14303.364      73.3348   -14376.699   -4387.8435 
   17600    332.11647   -14301.364    79.198089   -14380.562    10837.587 
   17800    263.84299   -14320.561    62.917266   -14383.478   -15566.831 
   18000    275.77693   -14306.618    65.763091   -14372.381    3901.0458 
   18200    302.44103   -14307.851    72.121542   -14379.973    12755.971 
   18400    268.63341   -14331.874    64.059613   -14395.934    4616.4714 
   18600    295.96544   -14319.875    70.577342   -14390.452    19128.729 
   18800    286.31935    -14303.92    68.277088   -14372.197    -10375.19 
   19000    271.85986   -14320.902    64.829008   -14385.731    8419.5282 
   19200    313.86022    -14308.74    74.844616   -14383.585   -13366.297 
   19400    297.12318   -14301.713     70.85342   -14372.567   -15571.718 
   19600      305.489   -14313.505    72.848374   -14386.354   -23250.316 
   19800    272.66408   -14326.537    65.020786   -14391.558    -1370.178 
   20000    315.11359   -14306.126    75.143501   -14381.269    -6241.266 
   20200    284.05667   -14313.318    67.737518   -14381.056   -13829.992 
   20400    338.43276   -14309.976    80.704303   -14390.681   -4302.9743 
   20600    275.46343   -14292.841    65.688332    -14358.53   -15974.652 
   20800    283.44813   -14316.672    67.592403   -14384.265     12736.06 
   21000    350.29905   -14307.665    83.533995   -14391.199    10386.837 
   21200    286.12953   -14315.195    68.231822   -14383.427   -3096.9052 
   21400    293.63675   -14323.147     70.02203   -14393.169    16687.351 
   21600    289.55883   -14309.095     69.04959   -14378.145    -8640.807 
   21800    317.64839   -14302.834    75.747962   -14378.582    -20927.88 
   22000    255.44673   -14325.481    60.915053   -14386.396    10989.216 
   22200    287.35294    -14302.47    68.523563   -14370.994    4504.8839 
   22400    319.14847   -14312.273    76.105676   -14388.379   -4895.1832 
   22600    304.03999   -14314.905    72.502837   -14387.408    13539.711 
   22800     374.8037   -14292.097    89.377492   -14381.474    23717.547 
   23000    305.38807    -14309.03    72.824307   -14381.854   -14893.562 
   23200    291.90834   -14311.934    69.609864   -14381.544    12673.161 
   23400    380.49681   -14283.793    90.735097   -14374.528    12499.621 
   23600    287.60407   -14314.213    68.583449   -14382.796    16347.289 
   23800    276.08231   -14309.453    65.835914   -14375.289   -27571.941 
   24000    255.82044   -14319.383    61.004172   -14380.388   -2101.7259 
   24200    315.06744   -14298.863    75.132495   -14373.996    806.13248 
   24400    272.19197   -14316.469    64.908205   -14381.377   -3757.7744 
   24600    243.63978   -14320.674    58.099512   -14378.773   -661.18764 
   24800    314.65352   -14307.036    75.033789   -14382.069    11906.845 
   25000    334.49866    -14301.19    79.766157   -14380.956   -5569.2866 
   25200    300.72342   -14310.314    71.711952   -14382.026   -3908.1627 
   25400    284.77965   -14312.473    67.909924   -14380.383    1370.4713 
   25600    392.27807   -14285.332    93.544513   -14378.876    4607.6887 
   25800    270.63851   -14306.277    64.537758   -14370.815   -1898.3073 
   26000     255.8785   -14308.348    61.018016   -14369.366    2642.7624 
   26200    259.28406   -14328.266    61.830123   -14390.096   -6984.9203 
   26400    289.47547   -14314.408    69.029712   -14383.438   -23199.127 
   26600    289.11985   -14306.183    68.944909   -14375.128    -14724.76 
   26800    361.16925   -14282.447    86.126155   -14368.573    6762.9248 
   27000    300.66824   -14303.913    71.698792   -14375.612   -2544.7729 
   27200    310.78419   -14317.203    74.111091   -14391.314   -16157.668 
   27400     265.3099   -14324.815    63.267073   -14388.082    773.45571 
   27600    323.54554   -14301.064    77.154223   -14378.218     3028.375 
   27800    265.60342   -14318.597    63.337067   -14381.934   -5113.6165 
   28000    294.42628   -14314.716    70.210305   -14384.927    3441.1034 
   28200     290.8741   -14314.291    69.363234   -14383.654   -14759.979 
   28400    309.08219   -14294.934    73.705225   -14368.639   -10528.785 
   28600    271.46525   -14317.733    64.734908   -14382.468    7845.9356 
   28800     313.0278   -14312.171    74.646112   -14386.817    1880.2916 
   29000    288.20176   -14304.404    68.725977   -14373.129   -7905.6664 
   29200    259.62715   -14312.419    61.911938   -14374.331    10548.953 
   29400    324.46996   -14307.489    77.374666   -14384.864    304.26479 
   29600    334.31884   -14289.047    79.723277    -14368.77    6147.6645 
   29800    291.27994   -14318.701    69.460015   -14388.161    11359.765 
   30000    300.43837    -14305.75    71.643977   -14377.394    11900.033 
   30200    332.74901   -14295.096    79.348928   -14374.445    5472.3278 
   30400    316.40736   -14316.779     75.45202   -14392.231    8617.4438 
   30600    291.42687   -14315.051    69.495052   -14384.546   -13907.607 
   30800    319.33475   -14300.453    76.150098   -14376.603   -8616.4721 
   31000    322.18339   -14310.384    76.829398   -14387.213    76.662828 
   31200    238.62567   -14332.011    56.903822   -14388.915   -20939.515 
   31400    295.71672   -14312.595     70.51803   -14383.113    582.16322 
   31600    306.73473   -14313.029    73.145437   -14386.174    6206.1807 
   31800    281.40178    -14299.08     67.10442   -14366.184    -12331.92 
   32000    326.45226   -14295.329    77.847375   -14373.176   -7203.3672 
   32200    268.87114   -14315.568    64.116304   -14379.685    8685.1665 
   32400     338.5312   -14306.447    80.727777   -14387.175   -9612.7992 
   32600    311.79053   -14286.179    74.351068    -14360.53   -2634.9777 
   32800    305.05591   -14314.468    72.745097   -14387.213   -22197.815 
   33000    291.61462   -14308.211    69.539824   -14377.751    3576.2644 
   33200    329.12994   -14299.533    78.485906   -14378.018   -7819.6157 
   33400    274.48518   -14322.414    65.455054   -14387.869    942.79637 
   33600    282.22292   -14308.382    67.300233   -14375.683   -14771.743 
   33800    277.26707   -14308.417    66.118437   -14374.536    3160.9739 
   34000    261.62781   -14327.877    62.389025   -14390.266    2678.9038 
   34200    304.85479    -14308.15    72.697137   -14380.847    3196.7244 
   34400    336.04388   -14296.163    80.134638   -14376.298    8852.0688 
   34600    291.01993   -14313.814    69.398011   -14383.212   -9326.2388 
   34800    298.89409   -14316.604    71.275722    -14387.88    14400.968 
   35000    298.98122   -14317.387    71.296498   -14388.683    13206.218 
   35200    306.67138   -14303.483    73.130332   -14376.613   -7175.0252 
   35400    261.35008   -14308.793    62.322796   -14371.116   -29368.324 
   35600     309.4869   -14320.795    73.801733   -14394.597   -4712.1273 
   35800    315.45561   -14302.503     75.22506   -14377.728   -14812.087 
   36000    304.25684   -14302.923    72.554549   -14375.477   -14137.246 
   36200    262.04772   -14329.256    62.489157   -14391.745   -3343.4829 
   36400    262.48726    -14316.81    62.593973   -14379.404    9467.3568 
   36600    320.89606   -14304.715    76.522416   -14381.238    16438.532 
   36800    285.37572   -14321.736    68.052066   -14389.788   -1916.5745 
   37000    298.77092   -14310.941     71.24635   -14382.187    1259.7057 
   37200    294.17946   -14311.957    70.151447   -14382.109    2244.6027 
   37400    332.60753   -14302.186    79.315189   -14381.502    18074.901 
   37600    294.67899   -14303.793    70.270567   -14374.063    9097.1476 
   37800     307.2513   -14319.486    73.268621   -14392.755    4469.2505 
   38000    289.88808   -14327.825    69.128105   -14396.953   -8013.3877 
   38200    294.83777   -14312.742     70.30843    -14383.05    3409.6737 
   38400    338.06911   -14302.737    80.617583   -14383.354    3495.1798 
   38600    258.14895   -14322.645     61.55944   -14384.205   -8669.6008 
   38800    313.73957   -14296.682    74.815845   -14371.498    20143.869 
   39000     304.0249   -14309.671    72.499239    -14382.17     8181.008 
   39200    296.99084   -14306.603    70.821862   -14377.425    3301.7234 
   39400    328.94233   -14299.477    78.441169   -14377.918    19648.438 
   39600    293.78538   -14313.807    70.057473   -14383.864     25310.02 
   39800    271.61686   -14325.112    64.771061   -14389.883     3558.281 
   40000    258.05765   -14322.481    61.537666   -14384.019     12726.58 
   40200    306.31222   -14302.745    73.044685    -14375.79    8679.0793 
   40400    291.52265   -14314.381    69.517892   -14383.899   -28654.629 
   40600    293.86889   -14315.535    70.077388   -14385.612   -3441.1235 
   40800    292.13208   -14304.811    69.663219   -14374.475   -5962.9114 
   41000    377.60804   -14283.985    90.046228   -14374.031   -11115.774 
   41200    284.49106   -14307.905    67.841104   -14375.746   -12903.045 
   41400    254.26718   -14320.346    60.633774   -14380.979   -29794.024 
   41600    316.98532   -14303.893    75.589842   -14379.482    6200.6206 
   41800    276.65275   -14308.128    65.971943     -14374.1   -18168.691 
   42000    301.74575   -14314.945    71.955741   -14386.901   -8062.9883 
   42200    299.70453   -14302.888    71.468983   -14374.357    2784.2292 
   42400    284.00684   -14312.066    67.725636   -14379.792   -4399.4689 
   42600    268.32766   -14313.871    63.986703   -14377.858    1611.6984 
   42800    365.70288   -14294.539    87.207266   -14381.746   -3634.0763 
   43000     326.7986   -14315.188    77.929964   -14393.118   -8214.4557 
   43200    272.06474   -14310.973    64.877866   -14375.851    19814.723 
   43400    308.70597   -14297.554     73.61551   -14371.169   -7788.3751 
   43600    298.10295   -14301.363    71.087061    -14372.45    4724.5657 
   43800    301.02442   -14317.539    71.783729   -14389.322   -344.09596 
   44000    298.27712    -14298.61    71.128596   -14369.738    16899.287 
   44200    269.18059   -14310.828    64.190096   -14375.018    6084.3475 
   44400    277.81741   -14315.097    66.249673   -14381.346    6005.7119 
   44600    329.69312   -14300.834    78.620206   -14379.454   -12269.038 
   44800    278.05794   -14322.128    66.307033   -14388.435    11981.859 
   45000    273.17366   -14316.919    65.142303   -14382.061   -533.43071 
   45200    305.82375   -14305.458    72.928202   -14378.386   -22429.086 
   45400    282.00846   -14313.625    67.249091   -14380.874    4847.0176 
   45600    279.49448   -14318.919    66.649596   -14385.568   -14130.893 
   45800    289.59293   -14304.274     69.05772   -14373.332    11616.302 
   46000    283.38009   -14316.995    67.576177   -14384.571    826.73477 
   46200    286.15779   -14319.764    68.238561   -14388.003   -28215.659 
   46400    309.36139   -14305.611    73.771804   -14379.382     -10572.9 
   46600    313.62032   -14304.767    74.787407   -14379.554   -6999.1141 
   46800    286.00604   -14321.538    68.202374    -14389.74   -6551.9159 
   47000    273.17512   -14309.627    65.142652   -14374.769    17426.403 
   47200    311.72837   -14300.595    74.336245   -14374.932   -22872.954 
   47400    320.12923    -14307.74    76.339555   -14384.079    -30198.57 
   47600    299.21061    -14303.86      71.3512   -14375.211    11174.316 
   47800    275.57119   -14323.563    65.714029   -14389.277    7606.6539 
   48000    277.58171   -14311.983    66.193469   -14378.177   -27094.459 
   48200    282.48003   -14302.575    67.361544   -14369.937    11822.132 
   48400    266.45824   -14317.717    63.540912   -14381.258    1432.6787 
   48600    246.16626   -14328.313    58.701988   -14387.015    7262.0888 
   48800    300.51712     -14306.2    71.662756   -14377.862   -6107.9741 
   49000    308.12974   -14309.701    73.478098   -14383.179    6905.6333 
   49200    238.82929   -14332.613    56.952379   -14389.565   -16425.998 
   49400    276.62415   -14310.555    65.965124    -14376.52    9866.7059 
   49600    276.83944   -14307.089    66.016462   -14373.105    -12874.22 
   49800    263.95535   -14320.785    62.944061   -14383.729   -11264.943 
   50000    276.95058   -14318.043    66.042965   -14384.086    1524.8326 
   50200    347.05233   -14297.913    82.759766   -14380.673    -4238.508 
   50400    255.75834   -14316.492    60.989362   -14377.481    3281.2194 
   50600    323.53998   -14307.692    77.152898   -14384.845    17423.104 
   50800    314.39369   -14293.013    74.971829   -14367.984    22840.469 
   51000    277.61544   -14312.327    66.201512   -14378.528    16493.071 
   51200    276.35208   -14313.633    65.900244   -14379.533   -11339.524 
   51400    298.97003   -14297.541     71.29383   -14368.835    270.61149 
   51600    265.90644   -14323.284    63.409326   -14386.693    2972.8189 
   51800    297.43077   -14316.195     70.92677   -14387.122    5130.7032 
   52000    328.78593   -14292.364    78.403871   -14370.768    21110.043 
   52200    359.58602   -14281.121     85.74861   -14366.869    20946.956 
   52400    288.80548   -14315.599    68.869942   -14384.469    12871.573 
   52600    280.49715   -14314.878    66.888698   -14381.767   -20546.601 
   52800    326.06325   -14300.093    77.754609   -14377.848    20634.432 
   53000    267.58673   -14313.753    63.810017   -14377.563    13439.313 
   53200    319.99492   -14307.621    76.307526   -14383.929    4770.1482 
   53400    308.62751   -14313.066    73.596799   -14386.663    15030.601 
   53600    260.55812   -14317.951    62.133942   -14380.085     5945.716 
   53800     315.7811   -14300.528    75.302677   -14375.831   -10971.155 
   54000    307.30343   -14304.719    73.281053       -14378    758.54489 
   54200      261.571   -14328.107    62.375478   -14390.482   -31559.271 
   54400    255.81866   -14306.453    61.003746   -14367.457   -2504.1557 
   54600    313.84207    -14298.48    74.840288    -14373.32    3153.1444 
   54800    287.33465   -14317.272      68.5192   -14385.791   -17957.282 
   55000      330.079   -14305.703    78.712225   -14384.416    13614.615 
   55200    300.74231   -14304.788    71.716456   -14376.504    -2647.406 
   55400    263.35901   -14324.067    62.801856   -14386.869   -4882.4641 
   55600     319.4206   -14306.101    76.170571   -14382.272    16386.242 
   55800    274.72646   -14312.009    65.512591   -14377.522      2453.72 
   56000    278.41115   -14302.354    66.391261   -14368.745   -37167.662 
   56200    337.92116   -14294.638    80.582304    -14375.22   -19138.808 
   56400    271.49144   -14315.045    64.741152   -14379.786     -5950.02 
   56600    282.35436   -14311.148    67.331577    -14378.48   -14212.749 
   56800    300.46094   -14303.621    71.649358    -14375.27     209.0495 
   57000    335.87297   -14295.155    80.093882   -14375.248    13284.522 
   57200    298.22136   -14316.786    71.115299   -14387.902   -15944.965 
   57400     286.8852    -14307.21    68.412023   -14375.622   -8026.2407 
   57600    387.14653    -14282.72    92.320821    -14375.04   -6785.4052 
   57800    321.05553   -14303.346    76.560443   -14379.906   -788.57479 
   58000    271.52186   -14317.819    64.748408   -14382.568   -13358.504 
   58200    269.45408   -14313.056    64.255315   -14377.311   -1341.8508 
   58400    306.03845   -14296.289      72.9794   -14369.268   -25356.429 
   58600    326.78137   -14296.678    77.925855   -14374.604   -6260.2497 
   58800    278.35904   -14315.878    66.378835   -14382.257    16915.139 
   59000    339.19942   -14304.858    80.887124   -14385.745    10061.098 
   59200    266.74174   -14323.469    63.608518   -14387.077    20798.054 
   59400    343.84498   -14300.728    81.994926   -14382.723    6274.4862 
   59600    277.60646   -14315.501    66.199371     -14381.7   -10077.245 
   59800    329.92723   -14306.561    78.676032   -14385.237    11291.853 
   60000    265.98483   -14303.445     63.42802   -14366.873   -12066.034 
   60200    321.15019   -14308.699    76.583018   -14385.282    11337.523 
   60400    264.66337   -14326.819    63.112898   -14389.932    5510.8057 
   60600    280.96516   -14309.978    67.000302   -14376.979    6684.2456 
   60800    291.55845   -14309.456    69.526428   -14378.983   -7034.4175 
   61000    247.32842   -14319.353    58.979124   -14378.332   -7059.3524 
   61200    316.21552    -14305.52    75.406273   -14380.927   -3193.0631 
   61400    324.09205   -14308.889    77.284547   -14386.173    26258.278 
   61600    261.05615   -14317.497    62.252705    -14379.75    1936.2774 
   61800    312.66127   -14308.136    74.558707   -14382.694   -4203.1663 
   62000    272.39811   -14313.056    64.957362   -14378.014    7581.1351 
   62200    333.95296   -14292.795    79.636027   -14372.431    4282.9237 
   62400    286.32717   -14313.218    68.278952   -14381.497   -15827.036 
   62600    258.70236   -14310.403    61.691406   -14372.095    3154.2615 
   62800    287.18815   -14308.886    68.484265    -14377.37   -10363.683 
   63000    311.24372    -14313.88    74.220673   -14388.101    1746.8009 
   63200    253.83903   -14326.354    60.531675   -14386.886    16229.287 
   63400    265.54255   -14302.834    63.322552   -14366.157    6613.1248 
   63600    318.12998   -14309.128    75.862804   -14384.991     2570.501 
   63800    302.13092   -14322.212     72.04759   -14394.259    7365.5452 
   64000    286.18557   -14312.441    68.245185   -14380.686    7966.7556 
   64200    292.82446   -14307.107    69.828329   -14376.935    14138.434 
   64400    263.31045   -14328.661    62.790275   -14391.451    6140.3932 
   64600    277.51898   -14313.726    66.178509   -14379.904    15442.327 
   64800    325.83301   -14302.545    77.699705   -14380.245    -31563.96 
   65000    289.65187    -14303.83    69.071777   -14372.902     16932.52 
   65200    300.52324    -14321.36    71.664215   -14393.024   -2442.7243 
   65400    336.72145   -14306.602    80.296214   -14386.898    8546.6303 
   65600    326.73862   -14308.369     77.91566   -14386.285   -3578.5266 
   65800    308.59661   -14311.674     73.58943   -14385.264     10439.53 
   66000    363.77203   -14294.064    86.746826   -14380.811    8570.8487 
   66200    307.49645   -14310.198     73.32708   -14383.525    -10183.79 
   66400    253.55841   -14315.686    60.464756    -14376.15     17344.05 
   66600    279.22581   -14309.971    66.585528   -14376.556    6639.8084 
   66800    362.45327   -14292.815    86.432347   -14379.247    4204.2257 
   67000     272.3399   -14315.931    64.943482   -14380.874    2438.4121 
   67200    286.81605   -14301.349    68.395534   -14369.745    11153.426 
   67400    307.48897   -14305.081    73.325297   -14378.407   -3285.3595 
   67600    302.85351   -14315.768    72.219903   -14387.988   -206.64412 
   67800    309.04302   -14304.978    73.695884   -14378.674    25388.822 
   68000    363.96514   -14291.309    86.792876   -14378.102   -14024.921 
   68200    332.93205   -14311.495    79.392575   -14390.888    6162.7519 
   68400    317.38897   -14310.402    75.686099   -14386.088   -6717.3708 
   68600    279.38735   -14303.586     66.62405    -14370.21    11733.407 
   68800    299.45627   -14308.514    71.409782   -14379.924    13001.937 
   69000    308.16957   -14308.466    73.487595   -14381.953    9122.1316 
   69200    278.95129   -14313.906    66.520064   -14380.426    19.151418 
   69400    266.52548   -14326.172    63.556946   -14389.729   -2173.2108 
   69600    282.27427   -14307.538    67.312478    -14374.85     12815.92 
   69800    278.21201   -14304.788    66.343771   -14371.132   -6100.3224 
   70000    323.55479   -14307.501    77.156431   -14384.657    2295.8347 
   70200    246.16109   -14324.334    58.700756   -14383.034   -3460.1511 
   70400    287.78113   -14307.848     68.62567   -14376.473   -17688.369 
   70600    267.34319   -14312.331    63.751941   -14376.083   -14134.754 
   70800    358.63671   -14300.488    85.522232    -14386.01    8075.8812 
   71000    342.92826   -14306.601     81.77632   -14388.378    5844.3301 
   71200    272.42438   -14311.216    64.963627   -14376.179   -5178.9336 
   71400    344.88469   -14299.504    82.242859   -14381.747    8052.8244 
   71600    296.97909   -14320.475     70.81906   -14391.294    5036.1159 
   71800    315.62426    -14312.11    75.265277   -14387.375     2474.638 
   72000    299.28779   -14295.313    71.369604   -14366.682    11084.675 
   72200    286.14396   -14323.564    68.235264   -14391.799    11335.209 
   72400    274.55472   -14312.122    65.471638   -14377.594   -4370.6004 
   72600    309.73704   -14299.318    73.861382    -14373.18    9307.0642 
   72800    277.94494    -14316.78    66.280085    -14383.06   -1220.5982 
   73000    256.68588    -14324.09    61.210547   -14385.301    2015.6888 
   73200    311.39612   -14303.584    74.257016   -14377.841    1788.7774 
   73400    269.52322    -14318.61    64.271802   -14382.882    5957.9139 
   73600    365.06516   -14303.766    87.055191   -14390.821    612.79869 
   73800     312.4726   -14303.165    74.513717   -14377.679    10708.478 
   74000    304.54964   -14317.913     72.62437   -14390.537    2133.5547 
   74200    326.13235   -14299.438    77.771088   -14377.209   -16847.731 
   74400    312.37299   -14292.599    74.489964   -14367.089      19540.7 
   74600    290.64828   -14309.681    69.309385   -14378.991    7433.8517 
   74800    321.39052   -14312.947    76.640328   -14389.587      240.088 
   75000    292.62329   -14300.635    69.780357   -14370.415   -11031.655 
   75200    298.27973   -14308.402    71.129218   -14379.531   -3144.6908 
   75400    296.69382   -14313.149    70.751033     -14383.9    10401.361 
   75600    317.66166   -14303.507    75.751125   -14379.259   -3640.9396 
   75800    257.91029   -14328.266    61.502527   -14389.769    6058.9897 
   76000    275.89039   -14309.059    65.790148   -14374.849    -12721.26 
   76200    304.66547   -14301.236    72.651992   -14373.888    2550.8038 
   76400    307.45932   -14323.668    73.318227   -14396.986   -1261.4708 
   76600    259.31517    -14316.81    61.837541   -14378.648    -2912.315 
   76800    274.65272   -14305.398    65.495006   -14370.893      13464.9 
   77000    282.89973   -14316.398    67.461629   -14383.859    9444.2434 
   77200    304.65899    -14306.24    72.650446    -14378.89   -14658.741 
   77400     304.7958   -14304.247     72.68307    -14376.93    885.26188 
   77600    267.77002   -14316.982    63.853725   -14380.836    5345.1787 
   77800    314.59598   -14307.385    75.020068   -14382.405   -13586.189 
   78000    287.53944   -14314.049    68.568037   -14382.617   -3151.2388 
   78200     257.1462   -14332.075    61.320318   -14393.395   -22380.578 
   78400    323.50609   -14308.107    77.144815   -14385.252    13662.005 
   78600    320.55004   -14299.381    76.439903    -14375.82    14321.446 
   78800    265.30502   -14318.156     63.26591   -14381.422   -8673.6255 
   79000    286.76151   -14305.598    68.382527    -14373.98   -1807.7334 
   79200    353.60128   -14284.349    84.321459    -14368.67    7517.8118 
   79400    323.42524   -14309.809    77.125535   -14386.934   -11356.845 
   79600    288.78962   -14315.877    68.866161   -14384.743    571.81356 
   79800    316.45353   -14301.016    75.463028   -14376.479    13779.861 
   80000    322.01082   -14311.904    76.788248   -14388.693   -1251.1851 
   80200    283.26496   -14306.184    67.548724   -14373.732    3772.3513 
   80400    315.44317   -14289.393    75.222095   -14364.615   -10363.705 
   80600     291.8029   -14315.661    69.584721   -14385.246    15770.689 
   80800    282.46935   -14310.526    67.358999   -14377.885     12392.71 
   81000    310.17075   -14294.966    73.964806   -14368.931   -14873.407 
   81200    283.73649   -14307.249    67.661165    -14374.91    9870.9455 
   81400    311.03066   -14313.666    74.169865   -14387.836   -2915.6437 
   81600    289.50732    -14310.92    69.037306   -14379.958    27291.551 
   81800    356.14596   -14296.408    84.928277   -14381.336   -8560.0551 
   82000     225.1159   -14310.943     53.68222   -14364.625    13804.588 
   82200    323.69986   -14304.434    77.191023   -14381.625   -6606.9503 
   82400    298.56788   -14326.435     71.19793   -14397.633   -2280.3367 
   82600    314.12747   -14311.136    74.908346   -14386.044   -5907.7826 
   82800    320.67996   -14307.193    76.470885   -14383.664   -1394.7516 
   83000    331.62622   -14305.906    79.081181   -14384.987    14237.233 
   83200    271.88686   -14318.995    64.835446   -14383.831    7664.1487 
   83400    285.18044   -14314.196    68.005498   -14382.201    4417.0665 
   83600    334.59668   -14299.487    79.789531   -14379.277     14256.48 
   83800    260.38016   -14321.494    62.091503   -14383.585   -14340.857 
   84000    283.65386   -14318.843    67.641463   -14386.485    769.63704 
   84200    302.75764   -14304.703     72.19704     -14376.9    7111.8608 
   84400    292.77525   -14306.657    69.816592   -14376.473    10963.236 
   84600    320.35619    -14318.98    76.393676   -14395.374   -2444.8611 
   84800    311.81128   -14299.145    74.356016   -14373.501   -11817.346 
   85000    328.56603   -14306.972    78.351435   -14385.324    13553.125 
   85200    246.49494   -14313.062    58.780368   -14371.842    13842.515 
   85400    360.02678   -14283.917    85.853716    -14369.77   -385.38815 
   85600    298.06967   -14297.724    71.079126   -14368.803     12238.97 
   85800    302.80338   -14313.648    72.207949   -14385.856   -14476.215 
   86000    283.67753   -14322.401    67.647106   -14390.048   -3737.2907 
   86200    284.49454    -14296.01    67.841936   -14363.852   -49.455482 
   86400    271.12303   -14316.049    64.653301   -14380.703   -2082.6036 
   86600    270.30687   -14312.374    64.458675   -14376.833    17781.383 
   86800    372.14325   -14292.904    88.743068   -14381.647   -4474.1417 
   87000    280.69003   -14310.969    66.934692   -14377.904   -1651.2417 
   87200     292.7812   -14297.407    69.818011   -14367.225   -3440.1819 
   87400    372.25098    -14289.82    88.768757   -14378.589   -3467.2495 
   87600    338.50216   -14311.621    80.720851   -14392.342   -25055.376 
   87800    283.50652   -14308.065    67.606327   -14375.671    6201.7173 
   88000    290.50814   -14297.629    69.275968   -14366.905    -9988.889 
   88200    259.74889   -14319.826    61.940967   -14381.767    -12400.11 
   88400    314.29913   -14304.555    74.949279   -14379.504   -1379.3969 
   88600    323.08494   -14297.487    77.044387   -14374.532    10040.982 
   88800    270.73957   -14317.957    64.561859   -14382.519    13912.997 
   89000    290.72562   -14305.752    69.327827   -14375.079    1621.0817 
   89200    326.03575   -14301.346    77.748051   -14379.094   -9702.5055 
   89400    294.48289   -14321.424    70.223804   -14391.648   -5229.7287 
   89600    273.84934    -14311.81     65.30343   -14377.113    -4992.228 
   89800    300.80907   -14305.566    71.732376   -14377.299    6760.0458 
   90000    290.50088   -14321.464    69.274236   -14390.738   -2798.8114 
   90200    275.26936   -14303.865    65.642055   -14369.507    -8808.809 
   90400    309.08993    -14303.18     73.70707   -14376.887   -190.46982 
   90600    239.58265   -14318.437    57.132031   -14375.569   -8202.9167 
   90800    309.84056   -14311.159    73.886068   -14385.045     1816.865 
   91000    352.28801   -14300.357    84.008292   -14384.365   -7486.2226 
   91200    284.07257   -14320.515     67.74131   -14388.257    16887.165 
   91400    320.40222   -14304.815    76.404653    -14381.22   -5495.2951 
   91600    310.00022   -14307.323    73.924142   -14381.247   -1217.5464 
   91800    307.39089   -14322.198    73.301908     -14395.5    1223.0334 
   92000    296.06174   -14312.109    70.600304   -14382.709    -9568.955 
   92200    355.79289   -14300.946    84.844082    -14385.79   -2857.3501 
   92400     278.1876   -14321.121    66.337952   -14387.459    7329.1579 
   92600      350.178    -14304.42    83.505128   -14387.925   -4442.7065 
   92800    321.34736    -14298.24    76.630035    -14374.87    4277.1568 
   93000    311.95148   -14311.371    74.389449    -14385.76    6900.1615 
   93200    331.99444   -14298.406    79.168989   -14377.575   -4046.6664 
   93400     360.4377   -14290.204    85.951705   -14376.155   -12895.418 
   93600    297.82129   -14314.347    71.019895   -14385.367    2279.7477 
   93800    315.20824   -14305.515    75.166072   -14380.681    8171.3405 
   94000     356.8678   -14296.588    85.100411   -14381.689    12966.181 
   94200    304.68589    -14311.59    72.656861   -14384.247   -3270.2269 
   94400    316.82314   -14305.834    75.551167   -14381.386   -2017.7608 
   94600    332.32253   -14284.603    79.247226    -14363.85    -9972.199 
   94800    312.39266   -14309.675    74.494655    -14384.17   -13490.569 
   95000    278.65955   -14316.948    66.450495   -14383.398    8844.8494 
   95200    291.50545   -14316.053    69.513791   -14385.567   -1408.1861 
   95400    322.57604   -14295.456    76.923033   -14372.379     13956.02 
   95600    308.68302   -14308.949    73.610035   -14382.559    8532.0352 
   95800     271.9849   -14318.456    64.858825   -14383.315    7244.2202 
   96000    330.05629   -14308.905    78.706807   -14387.612     12399.52 
   96200    340.30187   -14292.024    81.150018   -14373.174     1437.732 
   96400    293.06015   -14313.008    69.884532   -14382.892      3962.37 
   96600    290.15289   -14318.213    69.191252   -14387.404   -1650.9646 
   96800    320.42695   -14308.321    76.410549   -14384.732    1114.2208 
   97000    312.58107   -14307.229    74.539584   -14381.768     8172.115 
   97200     348.4053    -14294.42    83.082401   -14377.502    16100.018 
   97400    340.27916   -14307.335    81.144603   -14388.479    13288.342 
   97600    293.57048    -14314.21    70.006226   -14384.217   -8936.6227 
   97800    273.67237   -14308.744    65.261227   -14374.005    13851.131 
   98000    338.56928   -14298.927    80.736857   -14379.664    253.52751 
   98200    262.84396   -14315.546    62.679034   -14378.225   -1392.1407 
   98400    328.13152   -14306.106     78.24782   -14384.354     14391.47 
   98600    243.02834    -14332.04    57.953704   -14389.994   -18599.732 
   98800    286.91639   -14310.098     68.41946   -14378.517   -8463.2628 
   99000    321.26693    -14298.89    76.610856   -14375.501    6224.6529 
   99200    283.73237   -14320.381    67.660185   -14388.041     8843.749 
   99400    305.26259    -14314.69    72.794383   -14387.484    18440.617 
   99600    294.02363   -14302.775    70.114288   -14372.889    4063.3628 
   99800     314.0876   -14312.652    74.898839   -14387.551    15438.884 
  100000    285.56519   -14323.814    68.097248   -14391.912   -9735.8805 
  100200    299.91456   -14305.987    71.519068   -14377.506   -5760.5237 
  100400    313.30722   -14296.896    74.712746   -14371.609   -12025.234 
  100600    281.65149   -14312.125    67.163967   -14379.289    13441.785 
  100800    294.56386   -14317.944    70.243114   -14388.187    1952.8303 
  101000    281.35929   -14306.846    67.094288    -14373.94    10540.212 
  101200    271.52624   -14321.087    64.749452   -14385.837   -7575.4662 
  101400    275.87748   -14323.738    65.787068   -14389.525    19586.114 
  101600    344.90688   -14303.565    82.248153   -14385.813   -6930.4549 
  101800    270.58729   -14319.118    64.525545   -14383.644     1222.068 
  102000    293.68858   -14314.631    70.034389   -14384.665   -96.468942 
  102200    340.12146   -14298.604    81.106997   -14379.711    10833.776 
  102400    278.27748   -14312.847    66.359385   -14379.207    -598.6595 
  102600    278.72633   -14311.512    66.466419   -14377.978   -8623.5871 
  102800    345.77441   -14297.705    82.455026    -14380.16   -12458.533 
  103000    311.40345   -14314.659    74.258762   -14388.918    18709.316 
  103200     355.2748    -14302.18    84.720536   -14386.901    663.58213 
  103400    252.35803    -14307.61    60.178507   -14367.788   -5582.9158 
  103600    275.28546   -14320.506    65.645894   -14386.152     14060.38 
  103800    346.86625   -14293.417    82.715392   -14376.132   -988.66484 
  104000    297.10812   -14312.599    70.849829   -14383.448    6531.9897 
  104200    240.44476   -14323.824    57.337613   -14381.162    7137.2817 
  104400    351.32657    -14300.57    83.779022   -14384.349   -18079.573 
  104600    254.36705   -14312.434    60.657589   -14373.092    4430.9739 
  104800    305.48898   -14315.408    72.848369   -14388.256    4500.5972 
  105000    318.91055   -14303.553    76.048941   -14379.602   -3490.8838 
  105200       332.65   -14286.302    79.325317   -14365.628   -1969.1545 
  105400     314.0936   -14313.737    74.900269   -14388.637   -2482.4883 
  105600     301.3664   -14311.464    71.865279   -14383.329    9535.2234 
  105800    338.98297   -14295.609    80.835507   -14376.445    8683.4181 
  106000    273.18808   -14320.642    65.145743   -14385.788    7715.2687 
  106200    286.69696   -14306.049    68.367136   -14374.416    20559.565 
  106400    287.79275    -14303.93    68.628441   -14372.558    4883.5269 
  106600     311.5592   -14308.482    74.295904   -14382.778    568.56356 
  106800    249.93821   -14329.964    59.601467   -14389.565    8158.1435 
  107000    353.80342   -14311.884    84.369663   -14396.253   -3824.5186 
  107200    300.79597    -14302.42    71.729252   -14374.149   -10221.521 
  107400    291.65003   -14308.582    69.548267    -14378.13    27907.217 
  107600    325.72476   -14320.493    77.673891   -14398.167    8666.0106 
  107800    322.53534   -14294.421    76.913327   -14371.334    3155.9588 
  108000    275.19826    -14302.75    65.625099   -14368.375    15822.993 
  108200    316.12822   -14315.422    75.385453   -14390.807     8942.213 
  108400    306.31014   -14292.217    73.044186   -14365.261   -2343.4082 
  108600    299.46471   -14308.785    71.411792   -14380.197   -1022.1133 
  108800    334.25344   -14308.608    79.707682   -14388.316   -8912.3123 
  109000    301.78912   -14300.872    71.966084   -14372.838    15294.043 
  109200    321.01256   -14312.357    76.550198   -14388.908   -5500.4148 
  109400    284.51608   -14317.845     67.84707   -14385.692    3103.2119 
  109600    358.77841    -14298.63    85.556023   -14384.186    7113.5116 
  109800    289.57949   -14313.476    69.054516    -14382.53     8104.164 
  110000    299.46527    -14308.29    71.411928   -14379.702    16067.726 
  110200    347.93119   -14292.525    82.969343   -14375.494   -8265.1117 
  110400    294.24852   -14315.865    70.167915   -14386.033   -5057.0591 
  110600    295.42323   -14313.464    70.448042   -14383.912   -4046.4727 
  110800    341.29009    -14301.23    81.385675   -14382.615   -198.19168 
  111000    262.70977   -14316.573    62.647035    -14379.22   -12838.407 
  111200    308.28208   -14306.431    73.514426   -14379.945    4492.5923 
  111400    340.68767   -14286.305    81.242018   -14367.547   -6621.7619 
  111600    296.08033   -14310.813    70.604738   -14381.418    5967.3529 
  111800    299.82543   -14315.138    71.497813   -14386.636    13282.377 
  112000    342.84617   -14294.679    81.756746   -14376.436    7991.8854 
  112200    280.03931    -14306.83    66.779518    -14373.61    3873.1254 
  112400    256.44938   -14326.407     61.15415   -14387.562   -32913.519 
  112600    298.39414   -14317.619      71.1565   -14388.775    2660.5503 
  112800    306.95156   -14302.933    73.197144    -14376.13   -21610.239 
  113000    314.84594   -14305.467    75.079676   -14380.546    1902.3478 
  113200    268.06072   -14330.631    63.923047   -14394.554    2511.6316 
  113400    323.95045   -14312.957    77.250779   -14390.208    5353.1996 
  113600     261.7481   -14309.508     62.41771   -14371.926    30413.477 
  113800     287.4851   -14310.582    68.555078   -14379.137   -6642.3698 
  114000    283.04465   -14310.735    67.496188   -14378.232   -4400.3282 
  114200    267.79559   -14327.902    63.859823   -14391.761   -14741.103 
  114400    332.65454   -14304.676    79.326401   -14384.002    7423.4725 
  114600    344.69307   -14304.635    82.197165   -14386.832    -15305.97 
  114800    276.03095    -14318.29    65.823667   -14384.113   -25040.129 
  115000    335.80142   -14313.889    80.076819   -14393.966   -8976.8289 
  115200    370.13915   -14297.302     88.26516   -14385.568     4169.693 
  115400    286.65032   -14309.742    68.356012   -14378.098    16414.049 
  115600    318.16586   -14307.687     75.87136   -14383.558   -4491.5318 
  115800    362.43488   -14291.658    86.427963   -14378.086   -4723.3415 
  116000    295.06531   -14313.222    70.362692   -14383.585   -22154.494 
  116200    257.70044   -14310.605    61.452485   -14372.058    -12810.54 
  116400    366.13325   -14295.069    87.309893   -14382.379    -3965.139 
  116600    294.19943   -14310.826    70.156211   -14380.982   -2401.2925 
  116800    280.54837   -14325.796    66.900912   -14392.697    6020.8865 
  117000    321.74299   -14309.383    76.724379   -14386.107   -13236.145 
  117200    325.08091   -14299.132    77.520356   -14376.652   -2599.5082 
  117400    260.19242   -14316.383    62.046734   -14378.429    4196.3071 
  117600    259.85814   -14314.555     61.96702   -14376.522    4448.2658 
  117800    370.01736   -14288.767    88.236117   -14377.003    632.41785 
  118000    298.81609   -14308.212    71.257121   -14379.469   -1810.8635 
  118200    274.56862   -14321.268    65.474951   -14386.743    8091.7365 
  118400    339.32694   -14300.722    80.917533    -14381.64   -6303.9443 
  118600    320.57625   -14300.989    76.446152   -14377.435   -656.06471 
  118800    297.48135   -14320.458    70.938831   -14391.397   -10877.099 
  119000    284.86415   -14313.534    67.930074   -14381.464     13153.99 
  119200    306.84452   -14304.993    73.171618   -14378.164   -22164.431 
  119400    300.19208   -14307.112    71.585245   -14378.697    7528.4574 
  119600    262.26959   -14331.949    62.542065   -14394.491   -13108.042 
  119800    264.52953   -14316.921    63.080983   -14380.002    6927.4751 
  120000    273.04149   -14309.828    65.110787   -14374.939   -24263.795 
  120200    340.63605   -14292.112    81.229708   -14373.342    2282.5909 
  120400    263.32095   -14316.671    62.792778   -14379.464    3413.3036 
  120600    313.12387   -14307.465    74.669023   -14382.134      18255.4 
  120800    354.04419    -14289.14    84.427077   -14373.567     -3225.62 
  121000    299.27732   -14306.465    71.367108   -14377.832   -4370.1347 
  121200    274.26281   -14313.653    65.402027   -14379.055   -7252.0094 
  121400    341.82605   -14292.536    81.513483    -14374.05   -23833.943 
  121600    326.73237   -14303.428    77.914171   -14381.343    14151.516 
  121800    231.21186   -14320.708    55.135892   -14375.844    10133.379 
  122000    324.07946   -14310.414    77.281545   -14387.695    7411.4788 
  122200    339.68402   -14308.641    81.002683   -14389.644   -2532.0049 
  122400     244.2683    -14325.16    58.249393    -14383.41    8385.9716 
  122600    322.52542   -14307.179    76.910962    -14384.09   -7969.1743 
  122800    291.47316   -14303.177     69.50609   -14372.683   -13035.669 
  123000    295.25624   -14326.048    70.408221   -14396.456   -7114.4976 
  123200    281.90948   -14319.129    67.225488   -14386.355   -918.57206 
  123400    316.59762    -14307.63    75.497391   -14383.128   -14833.652 
  123600    283.32289   -14306.465    67.562537   -14374.027    12318.851 
  123800    318.58291    -14308.55    75.970812   -14384.521   -3148.1255 
  124000    246.61191   -14318.505    58.808262   -14377.314    9775.7756 
  124200     307.5373   -14296.741    73.336823   -14370.078      10809.6 
  124400    364.43574    -14282.49    86.905096   -14369.395   -6080.9343 
  124600    292.34201   -14312.108     69.71328   -14381.822   -12793.549 
  124800    296.06657   -14308.745    70.601457   -14379.347    8036.5195 
  125000    328.23764    -14300.71    78.273125   -14378.983   -5527.1629 
  125200    322.22532   -14308.533    76.839398   -14385.372   -22195.451 
  125400    291.56267   -14310.182    69.527436   -14379.709   -3932.8702 
  125600    298.59404   -14317.214    71.204168   -14388.418   -7238.2306 
  125800    343.14028   -14305.719    81.826879   -14387.546   -4315.0884 
  126000    339.65464   -14299.353    80.995678   -14380.349    3021.3381 
  126200    257.21344   -14319.775    61.336353   -14381.111    7541.0372 
  126400    289.55741   -14312.459    69.049252   -14381.508   -2114.5906 
  126600    348.38549   -14292.662    83.077677   -14375.739    -1997.695 
  126800    269.43452   -14308.283     64.25065   -14372.533    4343.1317 
  127000    253.45603   -14316.614    60.440343   -14377.054   -1979.9846 
  127200    345.42155   -14295.023    82.370883   -14377.393   -5223.3456 
  127400     306.6433   -14305.647    73.123635    -14378.77     2738.449 
  127600    295.01147   -14312.446    70.349852   -14382.795   -1319.7761 
  127800    315.98515   -14297.054    75.351338   -14372.406    12867.003 
  128000    273.03279   -14316.767    65.108712   -14381.875    4776.6453 
  128200    291.48609   -14310.373    69.509174   -14379.883    4592.5226 
  128400    343.04999   -14295.034    81.805348   -14376.839   -7401.9464 
  128600    300.97303   -14312.253    71.771475   -14384.025    738.56758 
  128800    310.70877   -14309.919    74.093107   -14384.012    9624.4059 
  129000    273.08942   -14322.242    65.122216   -14387.365     1346.591 
  129200    338.83624   -14306.585    80.800517   -14387.386    17206.584 
  129400    317.69973   -14302.686    75.760205   -14378.446    2510.5872 
  129600    293.07448   -14318.977    69.887948   -14388.865    18290.854 
  129800    330.44506   -14310.378    78.799518   -14389.178    11821.723 
  130000    325.74219   -14291.997    77.678047   -14369.675    16533.147 
  130200    338.12415   -14300.247    80.630709   -14380.877   -6031.0706 
  130400    273.09056   -14314.048    65.122486   -14379.171    3251.2097 
  130600    288.22573   -14305.383    68.731692   -14374.114   -33421.346 
  130800    304.02808   -14298.438    72.499996   -14370.938   -4209.4828 
  131000    279.76457   -14314.608    66.714002   -14381.322   -21427.646 
  131200    269.50191    -14310.46    64.266719   -14374.727   -19936.011 
  131400    292.53254   -14318.534    69.758714   -14388.293    6941.3536 
  131600    297.02292   -14321.398    70.829513   -14392.228   -13204.742 
  131800    315.50942   -14304.462    75.237891     -14379.7    9502.4538 
  132000    282.86558   -14314.201    67.453486   -14381.655   -8425.5606 
  132200    284.09426   -14331.384    67.746482   -14399.131    3321.2477 
  132400    312.63113   -14306.192    74.551521   -14380.744    4419.9136 
  132600    277.29242   -14312.179    66.124482   -14378.304   -4624.7395 
  132800    269.73505   -14320.107    64.322316   -14384.429    9871.5398 
  133000    312.12061   -14298.768    74.429779   -14373.198    7993.0918 
  133200     286.0703   -14314.596    68.217698   -14382.814    1346.3693 
  133400    309.46196   -14311.392    73.795787   -14385.188   -21435.457 
  133600     352.0743   -14291.959    83.957329   -14375.916     19120.03 
  133800    329.55992   -14300.706    78.588441   -14379.294     1349.364 
  134000    295.29232   -14311.606    70.416826   -14382.023    8764.7699 
  134200    319.66903   -14300.748    76.229814   -14376.978    1848.1001 
  134400    317.70584    -14306.29    75.761661   -14382.051    1082.8676 
  134600    303.15094   -14318.766     72.29083   -14391.056   -7276.6828 
  134800    280.98662   -14311.857     67.00542   -14378.863    17217.181 
  135000    329.64633   -14307.516    78.609048   -14386.125    4477.4218 
  135200    245.47806   -14316.934    58.537878   -14375.472    14019.768 
  135400    345.53769   -14297.541    82.398578   -14379.939    1517.8491 
  135600     373.3569   -14299.368    89.032481   -14388.401    1174.1106 
  135800    286.98083   -14314.856    68.434828   -14383.291    9198.4905 
  136000    307.70345   -14304.301    73.376443   -14377.678    9547.0009 
  136200    323.89816    -14299.14    77.238312   -14376.379    9154.1734 
  136400    285.84345   -14311.866    68.163602    -14380.03   -61.663186 
  136600    325.88345   -14296.068    77.711733   -14373.779     18608.19 
  136800    331.00605   -14303.471    78.933292   -14382.405   -1271.7847 
  137000    298.07587   -14313.229    71.080603   -14384.309    -3706.074 
  137200    306.21324   -14298.267    73.021081   -14371.288   -6691.3198 
  137400    288.50605   -14306.021    68.798539   -14374.819    24799.731 
  137600    274.36245   -14314.286    65.425788   -14379.712   -12125.263 
  137800    331.58997   -14307.426    79.072538   -14386.498     4258.963 
  138000    333.23604   -14288.992    79.465068   -14368.457    9277.9688 
  138200    301.14687    -14314.95    71.812928   -14386.763   -25.503652 
  138400    311.65098   -14307.034    74.317791   -14381.352   -918.23325 
  138600    312.66134   -14314.456    74.558724   -14389.014   -2843.8484 
  138800    280.63817   -14326.013    66.922325   -14392.935     3726.158 
  139000    301.81849   -14305.111    71.973087   -14377.084   -12549.526 
  139200    290.01636   -14307.383    69.158695   -14376.542    2566.0927 
  139400    279.78472   -14320.133    66.718809   -14386.852   -12658.064 
  139600    321.87885   -14296.154    76.756776   -14372.911    16732.606 
  139800    307.67643   -14305.272    73.369999   -14378.642   -7317.1156 
  140000    310.03099    -14311.01    73.931479   -14384.942    7060.7568 
  140200    279.74577   -14308.932     66.70952   -14375.642   -4685.3547 
  140400     273.4501   -14303.231    65.208225   -14368.439   -14830.202 
  140600    355.92858    -14289.96     84.87644   -14374.836   -13189.718 
  140800    317.27282   -14310.529      75.6584   -14386.188   -19056.598 
  141000     264.3769    -14312.99    63.044586   -14376.035    8646.8789 
  141200    275.34628   -14327.493    65.660396   -14393.153    12977.847 
  141400    306.86453   -14302.051    73.176389   -14375.228    22906.167 
  141600    277.48066   -14314.851    66.169372    -14381.02    15468.792 
  141800    282.89061   -14319.025    67.459453   -14386.485    5052.4979 
  142000    312.48149   -14299.866    74.515837   -14374.382   -662.46451 
  142200     319.0798   -14302.429    76.089303   -14378.518    8606.9631 
  142400    258.12132    -14319.35     61.55285   -14380.903   -16539.227 
  142600    324.10064   -14301.914    77.286596   -14379.201   -4505.0908 
  142800    336.13843   -14306.584    80.157185   -14386.742   -32351.991 
  143000    248.66277   -14319.463     59.29732    -14378.76     12504.69 
  143200    323.16412   -14298.011    77.063268   -14375.074    5335.2852 
  143400    290.91411   -14314.184    69.372777   -14383.556   -10308.906 
  143600    267.54948   -14315.145    63.801133   -14378.946    3509.3833 
  143800    316.62102    -14309.45     75.50297   -14384.953   -2126.1548 
  144000    316.43428   -14298.004    75.458439   -14373.463   -4034.0806 
  144200    287.69726   -14313.708     68.60567   -14382.314   -7678.5703 
  144400     299.8685   -14313.194    71.508083   -14384.702   -1454.4321 
  144600     289.0555    -14304.18    68.929564   -14373.109    -9519.663 
  144800    312.86262   -14311.653    74.606723    -14386.26    5562.5238 
  145000    241.80466   -14336.012    57.661902   -14393.674    -7918.115 
  145200    297.67185   -14317.226    70.984258    -14388.21   -2512.5854 
  145400    301.82494   -14307.715    71.974625   -14379.689    9758.0117 
  145600    322.82313   -14287.924    76.981954   -14364.905     15591.46 
  145800    330.97864   -14308.081    78.926757   -14387.008   -4089.4487 
  146000    285.82257   -14316.369    68.158624   -14384.527   -9837.2742 
  146200    291.59024   -14306.161    69.534011   -14375.695   -27850.001 
  146400    341.99431   -14290.739    81.553605   -14372.292   -11006.662 
  146600    271.83814   -14315.082    64.823828   -14379.906   -22.855026 
  146800    290.42555   -14309.871    69.256272   -14379.128    4747.4058 
  147000    340.92218   -14288.462    81.297942    -14369.76    11516.555 
  147200    266.70736   -14316.031    63.600319   -14379.631    2502.4037 
  147400    310.23226   -14314.778    73.979475   -14388.758   -26643.962 
  147600    305.61957   -14309.263    72.879512   -14382.143   -9550.1813 
  147800    295.90912   -14292.849    70.563911   -14363.413   -15525.364 
  148000    305.87261   -14310.366    72.939853   -14383.306   -3732.6458 
  148200    271.74007   -14316.992    64.800442   -14381.792    11088.846 
  148400    348.40837   -14294.339    83.083134   -14377.422   -2423.1784 
  148600     278.6098   -14313.863    66.438632   -14380.302    -12231.68 
  148800    292.21859   -14315.888     69.68385   -14385.571    -11255.13 
  149000     316.7899    -14300.29    75.543241   -14375.833   -8661.2905 
  149200    352.37246   -14291.578    84.028429   -14375.606     19109.64 
  149400     257.7116   -14313.266    61.455146   -14374.721    5258.8626 
  149600    330.27665   -14297.978    78.759357   -14376.737    9187.2041 
  149800    336.30376    -14297.88     80.19661   -14378.077   -586.27203 
  150000    318.64743   -14316.118    75.986197   -14392.105    10805.631 
  150200    295.34832   -14315.611    70.430178   -14386.041    349.00165 
  150400    328.82563   -14294.949    78.413339   -14373.362    11098.378 
  150600    301.42185   -14309.227    71.878503   -14381.105    13012.334 
  150800    288.75053   -14318.927    68.856837   -14387.784   -3829.2974 
  151000     304.0076   -14304.787    72.495114   -14377.282    1332.8145 
  151200    319.83801   -14312.158    76.270108   -14388.428    1969.8641 
  151400    259.44356   -14319.447    61.868157   -14381.315     11263.57 
  151600    270.50727   -14315.411    64.506462   -14379.917   -31.609818 
  151800    335.02614   -14297.819    79.891943   -14377.711   -7557.9264 
  152000    310.62825   -14296.251    74.073905   -14370.325   -8633.9082 
  152200    278.21727   -14309.909    66.345028   -14376.254   -28692.761 
  152400    343.80963   -14308.607    81.986497   -14390.593    20221.014 
  152600    272.90733   -14315.543    65.078792   -14380.621    19200.619 
  152800    331.24025   -14306.979    78.989142   -14385.968   -478.50216 
  153000    274.31346   -14308.824    65.414106   -14374.238   -7027.6191 
  153200    253.03421    -14322.74    60.339752    -14383.08    9797.8229 
  153400    335.97505   -14301.359    80.118225   -14381.477    17615.705 
  153600    306.21267   -14307.079    73.020943     -14380.1   -18520.811 
  153800    310.75343   -14324.435    74.103755   -14398.539    23917.229 
  154000    280.49037   -14310.882    66.887081   -14377.769    11107.388 
  154200    316.92198   -14302.882    75.574738   -14378.457   -3624.6989 
  154400    293.12525   -14316.066    69.900056   -14385.966   -5303.1163 
  154600    281.08101   -14296.411    67.027928   -14363.439    30640.479 
  154800     307.2787   -14306.054    73.275155   -14379.329    12728.927 
  155000    290.72315   -14317.623    69.327239    -14386.95    15579.482 
  155200    293.56182   -14299.583    70.004161   -14369.587   -3320.1395 
  155400    382.72183   -14271.137    91.265686   -14362.403    4999.0369 
  155600    331.53193   -14300.387    79.058696   -14379.446   -4372.4924 
  155800    262.58472   -14319.539    62.617215   -14382.156   -4420.9339 
  156000    332.58263   -14303.489    79.309251   -14382.798    22589.974 
  156200    315.38553   -14301.836    75.208348   -14377.044   -14192.989 
  156400    266.68898   -14310.888    63.595936   -14374.484    3723.6274 
  156600     288.7467   -14324.876    68.855924   -14393.732    16594.015 
  156800    266.21312    -14319.89    63.482459   -14383.373    7956.6067 
  157000    334.95944     -14308.8    79.876037   -14388.677   -48.195928 
  157200    294.15578   -14317.692    70.145801   -14387.838   -3580.4298 
  157400    254.52846   -14326.988    60.696078   -14387.684   -16891.887 
  157600    291.82199   -14305.961    69.589273    -14375.55    5906.6167 
  157800    295.97115   -14304.627    70.578703   -14375.205   -264.77358 
  158000    287.78611   -14321.735    68.626857   -14390.362   -10955.096 
  158200    264.70591   -14305.558    63.123043   -14368.681    -16567.06 
  158400    330.24483    -14301.43    78.751769   -14380.182    3465.8525 
  158600    279.76731   -14317.239    66.714656   -14383.953   -15794.062 
  158800    272.24963   -14309.818    64.921954    -14374.74   -10100.436 
  159000    321.97875   -14298.729    76.780599    -14375.51    4839.5456 
  159200    309.53554   -14317.033    73.813332   -14390.847    10464.228 
  159400    279.52118   -14326.029    66.655964   -14392.685    16342.254 
  159600    357.06001    -14299.14    85.146244   -14384.286   -2413.5401 
  159800    260.37613   -14317.216    62.090543   -14379.306   -7408.0172 
  160000    311.55777   -14311.388    74.295563   -14385.684    7849.4509 
  160200    284.63377   -14311.003    67.875135   -14378.878   -9923.1133 
  160400    288.40832   -14308.773    68.775235   -14377.548   -939.90869 
  160600    316.22797   -14296.348    75.409241   -14371.758   -3685.4465 
  160800    308.53003    -14312.88    73.573553   -14386.454   -6589.8172 
  161000    317.70715   -14315.973    75.761972   -14391.735    11327.127 
  161200    324.68142   -14290.575    77.425092       -14368    22765.128 
  161400    284.08683    -14310.55    67.744711   -14378.295   -13258.058 
  161600    322.79213    -14313.35    76.974563   -14390.324    4087.8692 
  161800    311.67797   -14305.968    74.324227   -14380.292    8200.9238 
  162000    320.69657   -14294.755    76.474845    -14371.23    5178.9427 
  162200    244.98901   -14317.887    58.421257   -14376.308    11139.242 
  162400    317.94607   -14300.065    75.818948   -14375.884    6752.9035 
  162600    289.72623   -14314.345    69.089508   -14383.434   -12404.304 
  162800    276.52697   -14318.228    65.941949    -14384.17    2241.5207 
  163000    335.99774   -14304.218    80.123635   -14384.341   -2129.5729 
  163200    311.76574   -14310.077    74.345157   -14384.422   -5152.6309 
  163400    317.92904   -14315.792    75.814885   -14391.607    1883.3026 
  163600    306.00928   -14301.924    72.972442   -14374.896   -4423.3116 
  163800    298.24379   -14289.239    71.120647    -14360.36   -1593.1262 
  164000    313.91166   -14315.333    74.856883   -14390.189    7799.7215 
  164200    286.11544   -14311.963    68.228462   -14380.191   -5076.4153 
  164400    323.95601   -14292.703    77.252105   -14369.955    6131.4536 
  164600    298.17463    -14306.61    71.104155   -14377.714   -20599.637 
  164800    321.97248   -14306.733    76.779104   -14383.512     1420.546 
  165000    295.47307   -14316.606    70.459929   -14387.066    12384.655 
  165200    290.52424   -14313.962    69.279806   -14383.242   -3267.8134 
  165400    348.13068   -14292.066    83.016914   -14375.083    3311.7335 
  165600    299.17343    -14307.03    71.342332   -14378.373   -17569.835 
  165800    297.31956   -14315.143    70.900251   -14386.043   -11749.663 
  166000    324.78218   -14306.996     77.44912   -14384.445   -346.55038 
  166200    381.75922   -14283.437    91.036138   -14374.473   -18620.001 
  166400    279.08899   -14308.289    66.552902   -14374.842    832.61983 
  166600    261.45816    -14320.02    62.348569   -14382.368   -14011.601 
  166800    337.21084    -14301.63    80.412917   -14382.043   -4513.0752 
  167000    286.04907   -14302.372    68.212635   -14370.585   -13626.964 
  167200    286.42465   -14326.807    68.302198   -14395.109   -10905.453 
  167400    259.84648   -14311.809     61.96424   -14373.773   -9451.0639 
  167600    304.79998   -14306.421    72.684067   -14379.105    2341.0344 
  167800    282.62474   -14324.113    67.396054   -14391.509    6805.7568 
  168000    297.55801   -14310.097    70.957112   -14381.054   -14519.613 
  168200    314.52537   -14305.781     75.00323   -14380.784   -4523.5855 
  168400    283.16685   -14325.146    67.525327   -14392.671    6920.4188 
  168600    294.42096   -14313.489    70.209036   -14383.698    12883.731 
  168800    303.48386   -14309.852    72.370219   -14382.223   -2275.9545 
  169000    308.09241   -14312.153    73.469197   -14385.622    9104.5256 
  169200    262.39494   -14324.123    62.571959   -14386.695    13148.422 
  169400    337.80997   -14304.051    80.555787   -14384.606   -3796.4292 
  169600    315.24319   -14305.548    75.174406   -14380.723    9225.1456 
  169800    288.82803   -14321.588     68.87532   -14390.463   -5861.6218 
  170000    248.09897   -14331.924    59.162872   -14391.087    3122.4185 
  170200    303.71736   -14306.486    72.425901   -14378.912    1300.0509 
  170400    310.72733   -14296.168    74.097531   -14370.266   -12209.193 
  170600    302.70682   -14313.272    72.184923   -14385.457   -5730.8686 
  170800    342.36927   -14308.751    81.643021   -14390.394    13120.345 
  171000    295.55174   -14302.523    70.478688   -14373.002    4466.1652 
  171200    307.00524    -14279.95    73.209946    -14353.16    4084.8249 
  171400    324.68988   -14308.755    77.427109   -14386.182    10732.708 
  171600    304.57957   -14316.326    72.631507   -14388.958    6488.9825 
  171800    298.44631   -14302.845    71.168942   -14374.014    8143.7473 
  172000    306.30932   -14309.613    73.043991   -14382.657    8517.2463 
  172200    287.91882   -14314.848    68.658505   -14383.507    25185.402 
  172400    327.48587    -14305.12    78.093855   -14383.214   -687.56154 
  172600    254.65792   -14325.518    60.726951   -14386.245   -3491.5748 
  172800    255.80534   -14315.944     61.00057   -14376.944   -13162.344 
  173000    328.63634   -14304.684    78.368199   -14383.052    7553.3754 
  173200    337.16647   -14306.054    80.402335   -14386.456   -10181.008 
  173400     296.1763   -14310.275    70.627624   -14380.903    520.77485 
  173600    319.33173   -14302.493    76.149378   -14378.642      25401.5 
  173800    334.16003   -14308.228    79.685406   -14387.914    20898.767 
  174000    259.83901   -14321.676    61.962458   -14383.638   -4672.8775 
  174200    313.72526   -14299.318    74.812434   -14374.131    22457.654 
  174400    285.64894   -14308.534    68.117219   -14376.651    -10562.22 
  174600     285.6219   -14309.674     68.11077   -14377.785    20363.479 
  174800    263.13409   -14311.478    62.748218   -14374.226   -195.87971 
  175000    292.92185   -14305.285    69.851552   -14375.136   -18887.318 
  175200    318.73963   -14314.605    76.008183   -14390.613   -9956.7287 
  175400    297.66955   -14314.471    70.983711   -14385.454   -952.05698 
  175600    298.09183   -14304.549    71.084409   -14375.634    12652.646 
  175800    290.36339   -14315.508     69.24145   -14384.749    17681.987 
  176000    295.66254    -14311.95    70.505109   -14382.455    -12056.19 
  176200    279.00881   -14310.352    66.533781   -14376.885   -5730.8367 
  176400     321.4556   -14298.702    76.655846   -14375.358   -10463.881 
  176600    331.38145   -14298.446    79.022814   -14377.469    2372.8717 
  176800     292.6235    -14314.75    69.780406    -14384.53    1505.5054 
  177000    294.47801   -14302.027    70.222641   -14372.249     11845.92 
  177200    285.11761   -14310.542    67.990516   -14378.532    13555.547 
  177400    283.63034   -14319.176    67.635854   -14386.812   -6952.6882 
  177600    295.82126     -14311.7     70.54296   -14382.243   -7910.1222 
  177800    330.27294   -14298.423    78.758472   -14377.181   -4145.0659 
  178000    306.16166   -14311.341    73.008779    -14384.35    9536.1288 
  178200    317.31862   -14306.789    75.669324   -14382.458     9816.685 
  178400    330.84359   -14294.563    78.894553   -14373.457   -16875.141 
  178600    271.57208   -14314.188    64.760383   -14378.948    9952.9722 
  178800     322.2849   -14312.805    76.853605   -14389.658    8004.2307 
  179000    347.21371    -14296.53    82.798249   -14379.328   -11668.759 
  179200    278.41852   -14313.482    66.393018   -14379.875    5878.4046 
  179400    292.52866   -14313.717    69.757791   -14383.475    3217.3303 
  179600    327.09845   -14293.383    78.001467   -14371.384    13849.618 
  179800    321.35449   -14312.066    76.631734   -14388.697    12396.876 
  180000    296.10354   -14312.451    70.610272   -14383.062     291.0533 
  180200    303.70719   -14306.228    72.423476   -14378.652    1507.1418 
  180400    274.25712   -14318.474    65.400671   -14383.875    9272.1327 
  180600    330.37762   -14297.808    78.783434   -14376.591    12036.226 
  180800    282.71012   -14310.167    67.416412   -14377.584    487.36808 
  181000    297.05886   -14316.722    70.838082    -14387.56    571.06188 
  181200    321.94458   -14295.702    76.772451   -14372.474   -11432.143 
[...]
  950000    360.64751   -14298.701    86.001737   -14384.703    1129.2582 
  950200    272.33983   -14315.578    64.943463   -14380.521   -5503.8366 
  950400    277.76916   -14312.769    66.238168   -14379.007   -17434.658 
  950600    320.62015   -14304.142    76.456621   -14380.599   -12877.996 
  950800    287.26801   -14312.852    68.503309   -14381.355    5167.1264 
  951000    305.01255   -14307.512    72.734758   -14380.247    15331.503 
  951200    299.65496    -14303.74    71.457161   -14375.198    27913.369 
  951400    306.24709   -14315.964    73.029151   -14388.993   -8533.1844 
  951600    344.19281   -14294.741    82.077871   -14376.819    -7594.646 
  951800     305.1681   -14310.431    72.771851   -14383.203    11237.512 
  952000    276.91692   -14315.515    66.034939    -14381.55    9497.6877 
  952200    290.51904   -14302.847    69.278566   -14372.126   -6226.7723 
  952400     363.3655    -14296.18    86.649884    -14382.83   -8354.7003 
  952600     293.5988   -14319.863    70.012979   -14389.876   -3907.3243 
  952800    327.28202   -14306.067    78.045242   -14384.112    4477.7657 
  953000    297.24275   -14301.496    70.881934   -14372.378   -11836.969 
  953200    294.35461   -14314.897    70.193214    -14385.09   -4702.6304 
  953400    350.40807   -14304.454    83.559992   -14388.014    -23714.46 
  953600    290.08655   -14305.915    69.175433    -14375.09    -1125.764 
  953800     272.7745   -14315.316    65.047119   -14380.363   -20669.411 
  954000    345.31698   -14291.901    82.345946   -14374.247    20765.347 
  954200     314.0808   -14303.573    74.897216   -14378.471   -12574.544 
  954400    301.92176   -14315.128    71.997714   -14387.125    8693.0967 
  954600    295.95459   -14303.067    70.574754   -14373.642    7432.2727 
  954800    343.95657    -14299.07    82.021536   -14381.091     734.1809 
  955000     293.7643   -14315.814    70.052447   -14385.866    6117.4975 
  955200    288.10189   -14304.735    68.702162   -14373.437    3919.5087 
  955400    311.85502   -14306.508    74.366447   -14380.874    3836.7234 
  955600     247.3314   -14324.166    58.979834   -14383.146    4884.6276 
  955800    302.74682   -14304.468    72.194461   -14376.663    25978.178 
  956000    309.82185   -14308.341    73.881607   -14382.223    5299.4077 
  956200    308.91161   -14312.632    73.664547   -14386.297    3517.1669 
  956400    338.37567   -14307.645    80.690688   -14388.336   -1338.5963 
  956600    332.10439   -14300.763    79.195209   -14379.958   -16960.211 
  956800     278.6963     -14320.5    66.459258   -14386.959   -2722.6139 
  957000    323.91201   -14309.501    77.241613   -14386.743   -12057.396 
  957200    337.88456   -14301.624    80.573575   -14382.198   -2908.9893 
  957400    268.39191   -14318.476    64.002024   -14382.478    398.00265 
  957600    267.36573   -14312.485    63.757316   -14376.243    3122.6175 
  957800    288.53558   -14306.513     68.80558   -14375.319   -9902.8815 
  958000    284.08134   -14313.884    67.743401   -14381.628   -3631.5893 
  958200    320.84715   -14309.933    76.510752   -14386.444     2151.361 
  958400    285.68483   -14303.132    68.125776   -14371.258   -5313.4559 
  958600    295.93714   -14320.354    70.570593   -14390.925   -15110.684 
  958800    265.63165   -14311.256    63.343799     -14374.6   -12158.938 
  959000    326.89368   -14306.574    77.952638   -14384.527    5051.8422 
  959200    333.02734   -14295.944      79.4153    -14375.36   -5290.8211 
  959400    306.78398   -14314.399    73.157181   -14387.556    24118.764 
  959600    311.99898   -14302.897    74.400776   -14377.298   -7736.1937 
  959800    340.69907   -14295.474    81.244737   -14376.718   -14708.292 
  960000    293.21522   -14312.683     69.92151   -14382.605    667.91178 
  960200    330.84569   -14313.812    78.895052   -14392.707   -2435.8399 
  960400    303.10871   -14298.725     72.28076   -14371.006    13701.958 
  960600    294.07216   -14310.905     70.12586    -14381.03   -18354.616 
  960800    296.02117   -14310.471     70.59063   -14381.061   -12971.226 
  961000    324.89671   -14301.127    77.476431   -14378.603    7479.3135 
  961200    296.40049   -14303.707    70.681086   -14374.388    3837.3328 
  961400    310.06731   -14311.855    73.940141   -14385.795   -13849.353 
  961600     287.0956   -14310.875    68.462195   -14379.337    -24208.81 
  961800    324.10286   -14303.574    77.287125   -14380.861   -10640.321 
  962000    345.04062   -14309.541    82.280044   -14391.821    5487.7426 
  962200    300.45746   -14318.475     71.64853   -14390.124    17381.896 
  962400    284.58877   -14307.363    67.864404   -14375.228   -10821.871 
  962600    290.49265   -14306.492    69.272272   -14375.764    16495.293 
  962800    330.07496    -14302.51     78.71126   -14381.222    20972.812 
  963000    275.40209   -14324.451    65.673706   -14390.125   -21789.111 
  963200    264.54422   -14318.268    63.084486   -14381.352   -1975.7119 
  963400    287.51093   -14310.631    68.561237   -14379.193   -8352.4996 
  963600    324.88086    -14294.63     77.47265   -14372.102   -19203.603 
  963800    324.79914    -14301.54    77.453163   -14378.994    3729.0407 
  964000    249.10826    -14317.57    59.403552   -14376.973    13203.159 
  964200    307.84112   -14301.994    73.409273   -14375.404   -3847.0362 
  964400    257.01284   -14324.813    61.288516   -14386.102   -2527.1458 
  964600    312.75785   -14316.414    74.581739   -14390.996    15586.701 
  964800    309.04871   -14306.562     73.69724   -14380.259   -8334.8485 
  965000    280.27533   -14314.185    66.835801   -14381.021   -8377.5948 
  965200    293.84217   -14318.732    70.071014   -14388.803   -1318.5564 
  965400    317.84986   -14299.293    75.796005   -14375.089    1979.3947 
  965600    331.14169   -14303.813    78.965638   -14382.779    961.00578 
  965800    266.19342   -14313.222    63.477762     -14376.7   -16803.717 
  966000    347.87476   -14298.201    82.955886   -14381.157     10805.68 
  966200    277.39553   -14317.342    66.149071   -14383.491    13260.776 
  966400    296.46507   -14312.277    70.696485   -14382.973    9397.1828 
  966600    302.55257   -14306.618     72.14814   -14378.767   -9159.3715 
  966800    290.12534   -14314.393    69.184682   -14383.577    2524.1078 
  967000    296.21925   -14320.351    70.637865   -14390.989   -16477.191 
  967200    323.74126   -14303.242    77.200897   -14380.443    8052.7935 
  967400     322.4265   -14304.178    76.887372   -14381.065    2308.5345 
  967600    265.53385   -14322.614    63.320477   -14385.935    -22540.16 
  967800    322.68222   -14306.184    76.948352   -14383.132   -3537.0844 
  968000    329.17505    -14307.03    78.496665   -14385.526    83.878959 
  968200    272.04751   -14326.112    64.873757   -14390.986   -2666.1413 
  968400    302.07644   -14309.652    72.034598   -14381.686   -4013.5809 
  968600    284.67599   -14304.049    67.885205   -14371.934    18640.543 
  968800    246.41626   -14330.454    58.761605   -14389.215    4946.2501 
  969000    281.67243   -14311.584     67.16896   -14378.753   -11099.726 
  969200    305.88377   -14305.002    72.942513   -14377.945    14351.773 
  969400    297.17562    -14327.32    70.865926   -14398.186   -13286.852 
  969600    317.19183   -14312.793    75.639087   -14388.432   -9278.9525 
  969800    295.09623   -14307.049    70.370066   -14377.419    4107.0527 
  970000     322.5202   -14301.734    76.909717   -14378.643   -9223.2886 
  970200    252.07551   -14317.934    60.111137   -14378.045   -17773.732 
  970400    326.30968   -14300.238    77.813374   -14378.051    36007.458 
  970600    310.27714   -14305.571    73.990178   -14379.561    15126.219 
  970800    304.96456    -14318.33    72.723315   -14391.053    -8197.431 
  971000    300.56791    -14299.45    71.674867   -14371.125   -9562.8348 
  971200    300.36632   -14306.915    71.626796   -14378.542    7052.0837 
  971400    309.02308   -14309.563    73.691129   -14383.254   -1543.7121 
  971600    325.80725   -14306.622    77.693563   -14384.316    17281.539 
  971800    330.02304   -14295.959    78.698879   -14374.657    11046.682 
  972000    276.96886    -14320.67    66.047324   -14386.717    26248.255 
  972200    307.34099   -14302.076    73.290009   -14375.366   -21182.744 
  972400    315.53471   -14306.633    75.243924   -14381.877    16962.468 
  972600     227.5248   -14335.746    54.256657   -14390.002    18042.233 
  972800    253.50931   -14315.477    60.453049    -14375.93    14825.841 
  973000    288.00975   -14302.343     68.68019   -14371.023    -4327.439 
  973200    321.79454   -14320.258    76.736671   -14396.994     6973.067 
  973400    282.56191   -14318.082     67.38107   -14385.463    9153.4354 
  973600    326.65885   -14304.788    77.896639   -14382.684   -13182.494 
  973800      306.827   -14312.499     73.16744   -14385.667    2072.8583 
  974000    275.20403   -14322.798    65.626474   -14388.425   -2687.7972 
  974200    332.18763   -14299.813    79.215059   -14379.028   -5839.9429 
  974400     259.1563   -14312.683    61.799656   -14374.482    17605.104 
  974600     297.4024   -14314.301    70.920006   -14385.221    11382.495 
  974800    273.90156   -14315.814    65.315881    -14381.13    6712.4774 
  975000    300.58439   -14299.521    71.678797     -14371.2   -6579.2861 
  975200    284.81343   -14321.233    67.917978   -14389.151    23083.198 
  975400    245.29416    -14316.83    58.494024   -14375.324   -6768.9151 
  975600    299.80055   -14307.943     71.49188   -14379.435    9324.3967 
  975800    297.44523   -14320.654    70.930219   -14391.585    1082.8551 
  976000    256.18923   -14319.948    61.092114   -14381.041   -8815.0319 
  976200    271.68276   -14304.091    64.786777   -14368.877   -630.25501 
  976400    308.09675   -14302.492    73.470232   -14375.962   -5876.0774 
  976600    253.71252   -14321.882    60.501505   -14382.383   -10623.707 
  976800     333.5907   -14305.648    79.549641   -14385.198   -4388.4661 
  977000    275.77062   -14313.002    65.761587   -14378.764    1071.1963 
  977200    260.70894   -14308.496    62.169905   -14370.666    14738.074 
  977400     355.4789   -14288.289    84.769207   -14373.058    5626.3806 
  977600    321.77249   -14302.775    76.731414   -14379.506    35254.554 
  977800    298.30476   -14313.296    71.135185   -14384.431    -1524.845 
  978000    266.25286   -14331.737    63.491936   -14395.229    3922.8006 
  978200    308.88926   -14310.094    73.659216   -14383.753    19117.113 
  978400    289.64773   -14304.152    69.070788   -14373.223   -13633.505 
  978600    292.28982    -14320.64    69.700834   -14390.341   -1208.6384 
  978800    324.68373   -14305.194    77.425641   -14382.619    19016.761 
  979000    317.90163   -14299.413     75.80835   -14375.222    12354.015 
  979200    279.25208   -14320.422    66.591792   -14387.014   -18028.797 
  979400    284.31831    -14318.07    67.799909    -14385.87     402.4721 
  979600    323.98557   -14305.098    77.259156   -14382.357    23176.745 
  979800    313.51508   -14308.557    74.762312    -14383.32   -26829.663 
  980000    288.69034   -14311.451    68.842485   -14380.294   -8019.7243 
  980200    309.91214   -14305.887    73.903138   -14379.791   -16534.603 
  980400    283.89001   -14320.005    67.697777   -14387.703   -14506.015 
  980600    259.24084   -14299.781    61.819815     -14361.6   -14446.724 
  980800    337.79528   -14304.996    80.552285   -14385.548   -13192.802 
  981000    294.37235   -14315.324    70.197444   -14385.521   -15167.683 
  981200    357.61121   -14291.629    85.277687   -14376.906    17957.477 
  981400    312.81534   -14306.181    74.595449   -14380.777   -7096.5354 
  981600    272.52481   -14314.467    64.987576   -14379.455    2489.7018 
  981800    294.30441   -14304.981    70.181243   -14375.163   -12402.787 
  982000    314.02704   -14307.148    74.884396   -14382.032    2407.1991 
  982200    277.60312   -14323.465    66.198574   -14389.663   -11628.235 
  982400    321.37382   -14298.404    76.636345    -14375.04    4018.2253 
  982600    313.22692    -14305.15    74.693596   -14379.844     12980.82 
  982800     300.2486   -14319.598    71.598724   -14391.197    15047.579 
  983000    254.45994   -14334.644    60.679741   -14395.323     12007.35 
  983200    278.77892   -14310.774     66.47896   -14377.253   -17372.511 
  983400    305.31872   -14300.178    72.807768   -14372.986    3741.1647 
  983600    265.08844   -14322.704    63.214263   -14385.919   -1620.3854 
  983800    262.87242   -14314.119    62.685819   -14376.805    17576.655 
  984000    321.45454   -14305.465    76.655594   -14382.121    12418.158 
  984200    270.73106   -14318.962    64.559828   -14383.521   -1639.5436 
  984400    321.19625   -14311.413    76.594001   -14388.007   -5396.7391 
  984600    290.48809   -14300.335    69.271186   -14369.606   -10180.012 
  984800    230.66423   -14321.796    55.005301   -14376.801    3103.4371 
  985000    304.78073   -14308.981    72.679477   -14381.661    4826.2588 
  985200    307.60181    -14312.63    73.352206   -14385.982   -9059.1047 
  985400    237.38813   -14328.244    56.608714   -14384.853   -18524.167 
  985600    308.37994   -14308.835    73.537762   -14382.372   -15806.066 
  985800    313.92596   -14312.418    74.860293   -14387.278    5109.1196 
  986000    259.57208   -14325.241    61.898804   -14387.139     545.4593 
  986200    302.16587   -14301.688    72.055924   -14373.744    9093.9734 
  986400    354.26905    -14310.03      84.4807    -14394.51     8203.338 
  986600     318.8792   -14313.447    76.041466   -14389.489   -13628.449 
  986800    319.86761    -14300.77    76.277167   -14377.047   -8851.0464 
  987000    337.80011   -14292.738    80.553437   -14373.292   -26799.558 
  987200    281.33665   -14307.261    67.088888    -14374.35    7463.0999 
  987400    299.95535   -14307.618    71.528793   -14379.147   -2732.1704 
  987600    237.18291   -14320.288    56.559775   -14376.847   -8633.2467 
  987800    325.23367   -14303.254    77.556784   -14380.811   -16914.621 
  988000    295.62729   -14304.549    70.496705   -14375.045    -16820.57 
  988200    282.74575   -14315.389     67.42491   -14382.814    8471.1072 
  988400    306.00188   -14307.158    72.970678   -14380.129   -2063.7986 
  988600    308.73705   -14306.639    73.622921   -14380.262    8197.7249 
  988800    285.74956    -14301.86    68.141212   -14370.001    5061.1882 
  989000    309.03547   -14318.994    73.694083   -14392.688    2358.8681 
  989200    352.00958   -14303.058    83.941896       -14387   -19269.645 
  989400    307.92263   -14296.693    73.428709   -14370.122    8941.8228 
  989600    322.05731   -14315.259    76.799333   -14392.058   -20833.683 
  989800    347.92662   -14309.005    82.968254   -14391.973   -4601.1977 
  990000    359.36583   -14278.849    85.696101   -14364.545   -6272.5994 
  990200    312.21847   -14304.775    74.453117   -14379.228   -1890.3419 
  990400    255.39383   -14317.715     60.90244   -14378.618   -23725.871 
  990600     342.5606   -14302.464    81.688647   -14384.152    9344.7889 
  990800    259.77275   -14310.358    61.946659   -14372.305    5206.5329 
  991000    300.51474   -14295.756    71.662189   -14367.419   -20764.857 
  991200    298.07261   -14308.505    71.079826   -14379.585    1418.6119 
  991400    324.69279   -14311.799    77.427803   -14389.227   -5028.9918 
  991600    265.19156   -14318.696    63.238854   -14381.935    2284.7356 
  991800    326.45294   -14303.824    77.847537   -14381.672    24525.335 
  992000    291.29817   -14308.612     69.46436   -14378.077   -1788.2429 
  992200    330.50211   -14305.711    78.813122   -14384.524   -9077.0779 
  992400    286.49493   -14307.599    68.318958   -14375.918   -271.24748 
  992600    324.03393   -14309.563    77.270688   -14386.833   -14805.428 
  992800    310.45787    -14295.15    74.033274   -14369.183    7627.7998 
  993000    284.75145   -14306.583    67.903199   -14374.486   -21746.816 
  993200    309.30116   -14317.821    73.757441   -14391.579   -13756.357 
  993400    286.98203   -14305.908    68.435115   -14374.344    13229.309 
  993600    311.08808   -14294.454    74.183559   -14368.637   -24044.629 
  993800    290.56807   -14317.214    69.290259   -14386.505   -5547.7067 
  994000    285.28409   -14316.811    68.030215   -14384.841    2849.9939 
  994200    284.10579   -14308.342    67.749231   -14376.091   -770.34131 
  994400    314.57743   -14303.712    75.015645   -14378.727    4812.2569 
  994600    327.74507   -14288.061    78.155663   -14366.217    5463.2027 
  994800    274.52382   -14317.428    65.464268   -14382.893    17390.696 
  995000    303.21379   -14302.692    72.305817   -14374.998    3809.6277 
  995200    301.99866    -14304.79    72.016051   -14376.807    11423.817 
  995400    284.24653   -14325.431    67.782794   -14393.214    7895.6002 
  995600    334.05016   -14305.197    79.659206   -14384.857    1839.9548 
  995800    327.74927   -14304.045    78.156665   -14382.201    20985.073 
  996000    305.34267   -14317.901    72.813479   -14390.715     1260.016 
  996200    285.53345   -14318.645    68.089679   -14386.735    5753.2063 
  996400    282.29137   -14299.024    67.316555   -14366.341   -6975.9557 
  996600    232.94945   -14317.212    55.550245   -14372.763    23196.879 
  996800     293.4483   -14311.036    69.977092   -14381.013    3931.6784 
  997000    312.57022   -14305.677    74.536996   -14380.214    2651.6132 
  997200     279.8908   -14323.385    66.744106   -14390.129   -6245.0745 
  997400    334.42584   -14305.836    79.748792   -14385.585   -6060.5868 
  997600    359.86638   -14299.426    85.815466   -14385.242     25317.81 
  997800    295.38091   -14312.222    70.437951    -14382.66   -3307.3617 
  998000    293.76291   -14306.884    70.052115   -14376.936    4709.0742 
  998200    228.95955   -14331.626    54.598795   -14386.225     2658.026 
  998400    275.34695   -14318.219    65.660555    -14383.88    8689.6857 
  998600    341.74337   -14300.628    81.493765   -14382.121    4308.9931 
  998800     298.1816   -14317.853    71.105816   -14388.959   -14450.598 
  999000    288.24533    -14320.42    68.736365   -14389.156    498.25106 
  999200    331.49747   -14303.985    79.050479   -14383.035   -3138.4513 
  999400    305.60276   -14307.338    72.875503   -14380.214    3630.1508 
  999600    261.20109   -14329.242    62.287268   -14391.529    12540.986 
  999800    312.22572   -14312.047    74.454846   -14386.502   -13580.084 
 1000000      290.378   -14307.403    69.244933   -14376.648    21332.299 
Loop time of 18210.4 on 8 procs for 1000000 steps with 81 atoms

Performance: 1.186 ns/day, 20.234 hours/ns, 54.914 timesteps/s
99.7% CPU use with 8 MPI tasks x no OpenMP threads

MPI task timing breakdown:
Section |  min time  |  avg time  |  max time  |%varavg| %total
---------------------------------------------------------------
Pair    | 15742      | 15926      | 16222      | 118.7 | 87.45
Neigh   | 1.4876     | 1.4971     | 1.5055     |   0.6 |  0.01
Comm    | 206.73     | 502.23     | 685.37     | 667.0 |  2.76
Output  | 0.38563    | 0.42195    | 0.58779    |   9.7 |  0.00
Modify  | 1757.3     | 1758.5     | 1761.3     |   3.0 |  9.66
Other   |            | 22.05      |            |       |  0.12

Nlocal:    10.125 ave 11 max 10 min
Histogram: 7 0 0 0 0 0 0 0 0 1
Nghost:    1102.38 ave 1108 max 1098 min
Histogram: 2 0 0 0 4 0 0 0 0 2
Neighs:    2445.5 ave 2634 max 2398 min
Histogram: 4 3 0 0 0 0 0 0 0 1

Total # of neighbors = 19564
Ave neighs/atom = 241.531
Neighbor list builds = 215
Dangerous builds = 0

Please see the log.cite file for references relevant to this simulation

Total wall time: 5:03:43
