ITEM: TIMESTEP
0
ITEM: NUMBER OF ATOMS
51
ITEM: BOX BOUNDS pp pp pp
0.0000000000000000e+00 1.1000000000000000e+01
0.0000000000000000e+00 1.1002000000000001e+01
0.0000000000000000e+00 1.1000000000000000e+01
ITEM: ATOMS id type x y z 
10 1 4.603 4.603 4.603 
11 1 3.085 3.085 3.085 
12 1 3.796 3.796 3.796 
46 1 0.726 0.725 0.725 
47 1 2.26 2.259 2.26 
48 1 1.551 1.55 1.55 
19 1 4.546 4.545 6.226 
20 1 3.013 3.013 7.764 
21 1 3.721 3.721 7.053 
31 1 0.668 0.667 10.103 
32 1 2.187 2.187 8.589 
33 1 1.476 1.475 9.298 
16 1 4.546 6.225 4.546 
17 1 3.013 7.765 3.013 
18 1 3.721 7.053 3.722 
25 1 0.668 10.103 0.668 
26 1 2.188 8.589 2.188 
27 1 1.476 9.298 1.476 
4 1 4.608 6.169 6.169 
5 1 3.086 7.684 7.684 
6 1 3.799 6.974 6.974 
37 1 0.729 10.046 10.046 
38 1 2.259 8.509 8.508 
39 1 1.552 9.219 9.219 
13 1 6.225 4.546 4.546 
14 1 7.764 3.013 3.013 
15 1 7.053 3.721 3.722 
28 1 10.102 0.667 0.668 
29 1 8.589 2.187 2.188 
30 1 9.298 1.475 1.476 
1 1 6.168 4.608 6.169 
2 1 7.684 3.086 7.684 
3 1 6.974 3.799 6.974 
40 1 10.045 0.728 10.046 
41 1 8.508 2.259 8.508 
42 1 9.218 1.551 9.218 
49 2 6.083 4.916 7.482 
50 2 6.787 4.893 8.825 
51 3 6.044 4.941 9.438 
7 1 6.169 6.169 4.608 
8 1 7.684 7.684 3.086 
9 1 6.974 6.974 3.799 
43 1 10.046 10.047 0.729 
44 1 8.508 8.509 2.259 
45 1 9.219 9.219 1.552 
22 1 6.229 6.229 6.229 
23 1 7.764 7.765 7.765 
24 1 7.055 7.056 7.055 
34 1 10.108 10.108 10.107 
35 1 8.59 8.59 8.59 
36 1 9.301 9.301 9.3 
ITEM: TIMESTEP
10
ITEM: NUMBER OF ATOMS
51
ITEM: BOX BOUNDS pp pp pp
0.0000000000000000e+00 1.1000000000000000e+01
0.0000000000000000e+00 1.1002000000000001e+01
0.0000000000000000e+00 1.1000000000000000e+01
ITEM: ATOMS id type x y z 
10 1 4.62768 4.59691 4.61088 
11 1 3.08596 3.089 3.08676 
12 1 3.79924 3.79182 3.79572 
46 1 0.725721 0.72576 0.724653 
47 1 2.26082 2.26038 2.26004 
48 1 1.5511 1.54994 1.55201 
19 1 4.48898 4.55885 6.20017 
20 1 3.01137 3.00782 7.76961 
21 1 3.71526 3.72659 7.04381 
31 1 0.671055 0.666326 10.1044 
32 1 2.18487 2.18661 8.59041 
33 1 1.4792 1.47464 9.29706 
16 1 4.53583 6.22853 4.54477 
17 1 3.0153 7.76256 3.0137 
18 1 3.71955 7.05361 3.7235 
25 1 0.667836 10.1039 0.666513 
26 1 2.18786 8.59052 2.1863 
27 1 1.47272 9.29879 1.47579 
4 1 4.60944 6.15976 6.16373 
5 1 3.08677 7.68547 7.68314 
6 1 3.7971 6.97066 6.97413 
37 1 0.729728 10.0464 10.0457 
38 1 2.26091 8.50856 8.50768 
39 1 1.5506 9.21842 9.21888 
13 1 6.20656 4.55972 4.50569 
14 1 7.75898 3.01791 3.02203 
15 1 7.04351 3.72975 3.71865 
28 1 10.1025 0.666642 0.67162 
29 1 8.58783 2.18856 2.18805 
30 1 9.29662 1.47525 1.47976 
1 1 6.1709 4.60533 6.23827 
2 1 7.7112 3.05621 7.69557 
3 1 7.03067 3.7291 6.93613 
40 1 10.0433 0.728823 10.0445 
41 1 8.52163 2.24338 8.52463 
42 1 9.22406 1.5468 9.22597 
49 2 6.04345 4.91273 7.51472 
50 2 6.78777 4.90046 8.84099 
51 3 6.04189 4.94155 9.43602 
7 1 6.17596 6.14611 4.60916 
8 1 7.6851 7.68911 3.0838 
9 1 6.97855 6.96978 3.79403 
43 1 10.0459 10.0471 0.728916 
44 1 8.50894 8.50927 2.25797 
45 1 9.21986 9.22152 1.55226 
22 1 6.22162 6.32185 6.17828 
23 1 7.76757 7.76466 7.76979 
24 1 7.05554 7.07179 7.04476 
34 1 10.1085 10.1044 10.107 
35 1 8.58932 8.59075 8.58962 
36 1 9.30339 9.30063 9.3035 
ITEM: TIMESTEP
20
ITEM: NUMBER OF ATOMS
51
ITEM: BOX BOUNDS pp pp pp
0.0000000000000000e+00 1.1000000000000000e+01
0.0000000000000000e+00 1.1002000000000001e+01
0.0000000000000000e+00 1.1000000000000000e+01
ITEM: ATOMS id type x y z 
10 1 4.65217 4.58389 4.60161 
11 1 3.08122 3.08814 3.08795 
12 1 3.81285 3.78304 3.78742 
46 1 0.727475 0.726342 0.733261 
47 1 2.25835 2.26012 2.26325 
48 1 1.55391 1.5557 1.54799 
19 1 4.44206 4.56773 6.19504 
20 1 3.01499 3.00937 7.76485 
21 1 3.68618 3.73934 7.03107 
31 1 0.699019 0.658798 10.1075 
32 1 2.18983 2.18613 8.58566 
33 1 1.48682 1.47532 9.30714 
16 1 4.51525 6.23876 4.54956 
17 1 3.01128 7.76578 3.01193 
18 1 3.71823 7.05192 3.72417 
25 1 0.674473 10.0981 0.67352 
26 1 2.18706 8.58444 2.19267 
27 1 1.48608 9.29859 1.47318 
4 1 4.60086 6.16696 6.14365 
5 1 3.08749 7.67832 7.68625 
6 1 3.79614 6.97844 6.9654 
37 1 0.732692 10.0399 10.0436 
38 1 2.26116 8.50504 8.50467 
39 1 1.5607 9.21813 9.21579 
13 1 6.19059 4.57438 4.4775 
14 1 7.75396 3.0219 3.02508 
15 1 7.02427 3.74593 3.70496 
28 1 10.1038 0.668776 0.701743 
29 1 8.57714 2.19506 2.1984 
30 1 9.29746 1.48267 1.49541 
1 1 6.12858 4.6736 6.36369 
2 1 7.74628 3.00787 7.65774 
3 1 7.05794 3.68952 6.89427 
40 1 10.0627 0.715502 10.0666 
41 1 8.53708 2.23381 8.54345 
42 1 9.24236 1.52005 9.25054 
49 2 6.00893 4.88878 7.46433 
50 2 6.7995 4.91423 8.86994 
51 3 6.03 4.94291 9.43708 
7 1 6.19198 6.12323 4.5947 
8 1 7.68344 7.68914 3.07823 
9 1 6.99174 6.9642 3.78945 
43 1 10.0447 10.0484 0.735754 
44 1 8.50834 8.51457 2.25939 
45 1 9.22061 9.2188 1.55016 
22 1 6.20661 6.37922 6.15939 
23 1 7.77024 7.76444 7.76726 
24 1 7.04371 7.11207 7.01667 
34 1 10.1156 10.08 10.1081 
35 1 8.58609 8.58581 8.59092 
36 1 9.30603 9.2878 9.30328 
ITEM: TIMESTEP
30
ITEM: NUMBER OF ATOMS
51
ITEM: BOX BOUNDS pp pp pp
0.0000000000000000e+00 1.1000000000000000e+01
0.0000000000000000e+00 1.1002000000000001e+01
0.0000000000000000e+00 1.1000000000000000e+01
ITEM: ATOMS id type x y z 
10 1 4.6523 4.58079 4.60107 
11 1 3.08258 3.08773 3.08605 
12 1 3.81191 3.78146 3.78955 
46 1 0.72832 0.725797 0.733061 
47 1 2.25902 2.26235 2.26284 
48 1 1.5533 1.55397 1.55032 
19 1 4.44389 4.5707 6.19014 
20 1 3.01253 3.00944 7.76514 
21 1 3.68063 3.73756 7.03086 
31 1 0.70002 0.65919 10.1097 
32 1 2.19144 2.18812 8.58721 
33 1 1.48903 1.4724 9.30421 
16 1 4.51317 6.2408 4.54693 
17 1 3.01139 7.76521 3.01092 
18 1 3.7169 7.05201 3.72758 
25 1 0.675907 10.0982 0.672986 
26 1 2.18937 8.58586 2.1908 
27 1 1.48148 9.29754 1.47482 
4 1 4.59762 6.171 6.13978 
5 1 3.08778 7.68008 7.68535 
6 1 3.79398 6.97646 6.96591 
37 1 0.734799 10.0397 10.0447 
38 1 2.26297 8.50536 8.50543 
39 1 1.55798 9.21713 9.21583 
13 1 6.19043 4.57544 4.47192 
14 1 7.7527 3.02219 3.02418 
15 1 7.02354 3.74713 3.70197 
28 1 10.1047 0.668894 0.703932 
29 1 8.57889 2.19644 2.19937 
30 1 9.29483 1.48031 1.49733 
1 1 6.12036 4.68016 6.36499 
2 1 7.75451 2.99934 7.65241 
3 1 7.06646 3.67972 6.89383 
40 1 10.062 0.71347 10.068 
41 1 8.53694 2.23009 8.54222 
42 1 9.245 1.52239 9.25287 
49 2 6.00024 4.89467 7.4786 
50 2 6.80086 4.91606 8.87398 
51 3 6.02857 4.94306 9.4369 
7 1 6.19529 6.12336 4.59572 
8 1 7.68501 7.69008 3.079 
9 1 6.99161 6.96237 3.78497 
43 1 10.0469 10.0476 0.735437 
44 1 8.50875 8.5138 2.25817 
45 1 9.22069 9.22194 1.55083 
22 1 6.20612 6.37933 6.15575 
23 1 7.77073 7.76716 7.7659 
24 1 7.04207 7.11715 7.01572 
34 1 10.1169 10.0783 10.1093 
35 1 8.58763 8.58455 8.59103 
36 1 9.30587 9.28723 9.30556 
ITEM: TIMESTEP
40
ITEM: NUMBER OF ATOMS
51
ITEM: BOX BOUNDS pp pp pp
0.0000000000000000e+00 1.1000000000000000e+01
0.0000000000000000e+00 1.1002000000000001e+01
0.0000000000000000e+00 1.1000000000000000e+01
ITEM: ATOMS id type x y z 
10 1 4.65677 4.57209 4.60244 
11 1 3.08361 3.08617 3.08341 
12 1 3.81327 3.7768 3.7894 
46 1 0.731532 0.725624 0.735032 
47 1 2.25973 2.2649 2.26151 
48 1 1.55121 1.552 1.554 
19 1 4.44321 4.57298 6.18312 
20 1 3.00617 3.01383 7.76077 
21 1 3.67506 3.74021 7.0261 
31 1 0.704068 0.658151 10.1122 
32 1 2.19397 2.18811 8.58933 
33 1 1.4938 1.46783 9.30442 
16 1 4.50832 6.24611 4.54708 
17 1 3.00991 7.76608 3.0097 
18 1 3.71338 7.05327 3.73027 
25 1 0.67993 10.0965 0.673661 
26 1 2.19294 8.58584 2.18936 
27 1 1.47765 9.29561 1.47744 
4 1 4.59161 6.17835 6.12742 
5 1 3.08736 7.68092 7.68646 
6 1 3.78932 6.97971 6.96054 
37 1 0.738608 10.0384 10.0455 
38 1 2.26484 8.50521 8.5061 
39 1 1.55757 9.21475 9.21767 
13 1 6.18737 4.5814 4.45567 
14 1 7.74984 3.02404 3.0214 
15 1 7.01864 3.75283 3.69348 
28 1 10.1043 0.669022 0.710133 
29 1 8.57841 2.1968 2.20348 
30 1 9.29533 1.47953 1.50223 
1 1 6.11291 4.68628 6.39129 
2 1 7.7628 2.98501 7.62295 
3 1 7.06799 3.67926 6.89309 
40 1 10.0658 0.708856 10.0766 
41 1 8.54274 2.22098 8.53933 
42 1 9.24933 1.52279 9.25863 
49 2 5.9856 4.8984 7.50464 
50 2 6.80661 4.92186 8.88828 
51 3 6.02367 4.94354 9.43659 
7 1 6.20286 6.11839 4.59687 
8 1 7.68672 7.69074 3.0755 
9 1 6.99683 6.95897 3.7806 
43 1 10.0492 10.0462 0.737766 
44 1 8.508 8.51465 2.25698 
45 1 9.22248 9.2246 1.55259 
22 1 6.2031 6.3789 6.15143 
23 1 7.7659 7.77514 7.75881 
24 1 7.03835 7.12519 7.00783 
34 1 10.1189 10.0739 10.1116 
35 1 8.58972 8.58125 8.5925 
36 1 9.3088 9.28301 9.30773 
ITEM: TIMESTEP
50
ITEM: NUMBER OF ATOMS
51
ITEM: BOX BOUNDS pp pp pp
0.0000000000000000e+00 1.1000000000000000e+01
0.0000000000000000e+00 1.1002000000000001e+01
0.0000000000000000e+00 1.1000000000000000e+01
ITEM: ATOMS id type x y z 
10 1 4.66546 4.55785 4.60603 
11 1 3.08357 3.08315 3.08038 
12 1 3.82105 3.76878 3.78445 
46 1 0.734361 0.72252 0.738786 
47 1 2.25718 2.26596 2.26124 
48 1 1.55036 1.55055 1.55581 
19 1 4.46107 4.56461 6.1831 
20 1 2.99494 3.02165 7.75018 
21 1 3.67176 3.74503 7.01934 
31 1 0.705808 0.656898 10.1128 
32 1 2.19722 2.18466 8.58795 
33 1 1.4997 1.47137 9.31073 
16 1 4.50101 6.25176 4.54865 
17 1 3.00584 7.76663 3.01119 
18 1 3.71238 7.05564 3.73019 
25 1 0.68208 10.0949 0.678896 
26 1 2.19191 8.58335 2.19157 
27 1 1.48465 9.29615 1.47527 
4 1 4.58077 6.19437 6.10483 
5 1 3.08554 7.68154 7.68667 
6 1 3.78323 6.9873 6.95019 
37 1 0.739663 10.0349 10.0468 
38 1 2.26572 8.50263 8.50957 
39 1 1.56061 9.21531 9.22012 
13 1 6.18086 4.59046 4.4365 
14 1 7.74329 3.02848 3.01353 
15 1 7.01142 3.76077 3.68381 
28 1 10.1028 0.671642 0.712507 
29 1 8.57819 2.19492 2.2099 
30 1 9.29742 1.48251 1.50776 
1 1 6.09983 4.69724 6.44315 
2 1 7.77609 2.96616 7.58031 
3 1 7.06302 3.68474 6.89379 
40 1 10.0682 0.710156 10.0847 
41 1 8.55557 2.2081 8.52032 
42 1 9.24492 1.51944 9.26344 
49 2 5.96041 4.9059 7.54858 
50 2 6.81853 4.93233 8.91588 
51 3 6.01431 4.94435 9.43393 
7 1 6.21686 6.10848 4.59678 
8 1 7.6885 7.6882 3.06938 
9 1 7.00434 6.95606 3.77964 
43 1 10.053 10.0458 0.741848 
44 1 8.50682 8.5175 2.25598 
45 1 9.22554 9.22435 1.55291 
22 1 6.20704 6.35701 6.15569 
23 1 7.75771 7.79077 7.74317 
24 1 7.03432 7.12991 6.99807 
34 1 10.1222 10.0737 10.1109 
35 1 8.59241 8.57803 8.59154 
36 1 9.30644 9.27645 9.31232 
ITEM: TIMESTEP
60
ITEM: NUMBER OF ATOMS
51
ITEM: BOX BOUNDS pp pp pp
0.0000000000000000e+00 1.1000000000000000e+01
0.0000000000000000e+00 1.1002000000000001e+01
0.0000000000000000e+00 1.1000000000000000e+01
ITEM: ATOMS id type x y z 
10 1 4.66731 4.55288 4.60637 
11 1 3.08585 3.08342 3.07814 
12 1 3.81999 3.7657 3.78799 
46 1 0.73522 0.722436 0.738613 
47 1 2.25705 2.26599 2.26129 
48 1 1.55003 1.55076 1.55591 
19 1 4.46314 4.56451 6.1833 
20 1 2.99227 3.0235 7.74802 
21 1 3.67239 3.74365 7.01771 
31 1 0.706496 0.657721 10.1142 
32 1 2.19841 2.1871 8.59 
33 1 1.49774 1.46884 9.30578 
16 1 4.50136 6.2527 4.55036 
17 1 3.00633 7.76738 3.00935 
18 1 3.70806 7.05651 3.73341 
25 1 0.683805 10.0942 0.677752 
26 1 2.19361 8.58378 2.19006 
27 1 1.48126 9.29561 1.47727 
4 1 4.57819 6.19722 6.09977 
5 1 3.08537 7.68194 7.68592 
6 1 3.78145 6.98882 6.94681 
37 1 0.738893 10.037 10.0461 
38 1 2.26668 8.50312 8.51066 
39 1 1.55977 9.21336 9.22126 
13 1 6.1816 4.59094 4.44085 
14 1 7.74228 3.0296 3.01173 
15 1 7.01025 3.76172 3.68123 
28 1 10.1022 0.672809 0.711429 
29 1 8.57887 2.19609 2.21112 
30 1 9.29537 1.48088 1.50761 
1 1 6.0975 4.69823 6.45053 
2 1 7.77933 2.96261 7.57309 
3 1 7.06355 3.68415 6.89578 
40 1 10.0679 0.708914 10.088 
41 1 8.55594 2.204 8.5121 
42 1 9.24653 1.52124 9.26068 
49 2 5.95537 4.90614 7.56229 
50 2 6.82243 4.93521 8.92433 
51 3 6.0116 4.94455 9.432 
7 1 6.22137 6.10778 4.59814 
8 1 7.68908 7.68857 3.06859 
9 1 7.00718 6.95381 3.7783 
43 1 10.0539 10.0452 0.741242 
44 1 8.50787 8.51758 2.2548 
45 1 9.22498 9.2263 1.5531 
22 1 6.20758 6.35315 6.15702 
23 1 7.75608 7.7943 7.74065 
24 1 7.03533 7.13036 6.99618 
34 1 10.1214 10.0723 10.113 
35 1 8.59068 8.57762 8.59303 
36 1 9.3092 9.27873 9.30807 
ITEM: TIMESTEP
70
ITEM: NUMBER OF ATOMS
51
ITEM: BOX BOUNDS pp pp pp
0.0000000000000000e+00 1.1000000000000000e+01
0.0000000000000000e+00 1.1002000000000001e+01
0.0000000000000000e+00 1.1000000000000000e+01
ITEM: ATOMS id type x y z 
10 1 4.66874 4.54739 4.60919 
11 1 3.0868 3.08237 3.07754 
12 1 3.82114 3.76336 3.78838 
46 1 0.734459 0.722579 0.738909 
47 1 2.25518 2.26671 2.2618 
48 1 1.55278 1.54918 1.55373 
19 1 4.46342 4.56292 6.18256 
20 1 2.98939 3.02502 7.74637 
21 1 3.67229 3.74227 7.0159 
31 1 0.705843 0.657434 10.1127 
32 1 2.19691 2.18748 8.58792 
33 1 1.49906 1.47014 9.30752 
16 1 4.50041 6.25412 4.55231 
17 1 3.00544 7.76805 3.01038 
18 1 3.70708 7.05601 3.73344 
25 1 0.683843 10.0946 0.677912 
26 1 2.19346 8.58376 2.18997 
27 1 1.48187 9.29581 1.47654 
4 1 4.57499 6.20081 6.09404 
5 1 3.08428 7.68197 7.68564 
6 1 3.77992 6.99302 6.94234 
37 1 0.738263 10.0379 10.0456 
38 1 2.26712 8.50232 8.51244 
39 1 1.55966 9.21359 9.22195 
13 1 6.18247 4.59097 4.44671 
14 1 7.73999 3.03217 3.00881 
15 1 7.00976 3.76242 3.68203 
28 1 10.1028 0.674436 0.711109 
29 1 8.58003 2.19645 2.21315 
30 1 9.29148 1.48095 1.50498 
1 1 6.09581 4.69998 6.45973 
2 1 7.78304 2.9578 7.56402 
3 1 7.064 3.68379 6.8974 
40 1 10.067 0.709895 10.0907 
41 1 8.55936 2.19849 8.50347 
42 1 9.24826 1.5203 9.25819 
49 2 5.94981 4.90565 7.5767 
50 2 6.82765 4.9389 8.93535 
51 3 6.00803 4.94479 9.42901 
7 1 6.22628 6.10601 4.59986 
8 1 7.68969 7.68671 3.06617 
9 1 7.01047 6.95405 3.78051 
43 1 10.0545 10.0448 0.741221 
44 1 8.50782 8.51806 2.25432 
45 1 9.22538 9.22693 1.55242 
22 1 6.20941 6.34992 6.15737 
23 1 7.7543 7.79784 7.73795 
24 1 7.0356 7.13111 6.99376 
34 1 10.1212 10.0713 10.1135 
35 1 8.58977 8.57811 8.5925 
36 1 9.30973 9.28048 9.30497 
ITEM: TIMESTEP
80
ITEM: NUMBER OF ATOMS
51
ITEM: BOX BOUNDS pp pp pp
0.0000000000000000e+00 1.1000000000000000e+01
0.0000000000000000e+00 1.1002000000000001e+01
0.0000000000000000e+00 1.1000000000000000e+01
ITEM: ATOMS id type x y z 
10 1 4.67415 4.53373 4.61484 
11 1 3.09189 3.08061 3.07426 
12 1 3.82407 3.7535 3.79496 
46 1 0.737635 0.720474 0.735242 
47 1 2.25633 2.2658 2.25919 
48 1 1.54845 1.54983 1.55388 
19 1 4.46251 4.56007 6.1806 
20 1 2.98159 3.02463 7.74346 
21 1 3.66831 3.74067 7.01058 
31 1 0.706737 0.656139 10.1128 
32 1 2.19198 2.19072 8.583 
33 1 1.50073 1.47289 9.3078 
16 1 4.50029 6.25464 4.55325 
17 1 3.00155 7.76904 3.01332 
18 1 3.70758 7.05667 3.7333 
25 1 0.684415 10.0953 0.679108 
26 1 2.19099 8.58161 2.18944 
27 1 1.48602 9.30044 1.47556 
4 1 4.56733 6.21252 6.07852 
5 1 3.08144 7.68585 7.68191 
6 1 3.77353 6.99723 6.93521 
37 1 0.734199 10.039 10.0419 
38 1 2.26587 8.50166 8.51865 
39 1 1.56134 9.21625 9.2222 
13 1 6.18734 4.59052 4.4657 
14 1 7.73145 3.03965 3.0019 
15 1 7.00937 3.76338 3.68968 
28 1 10.0976 0.679561 0.705531 
29 1 8.57363 2.19966 2.21087 
30 1 9.29407 1.48591 1.51105 
1 1 6.08958 4.70537 6.48898 
2 1 7.79554 2.94204 7.53971 
3 1 7.06423 3.68358 6.89944 
40 1 10.0643 0.713927 10.0971 
41 1 8.57147 2.18277 8.47652 
42 1 9.25146 1.51543 9.24796 
49 2 5.93579 4.90139 7.60844 
50 2 6.84446 4.9504 8.97074 
51 3 5.9969 4.94553 9.41753 
7 1 6.23975 6.10108 4.60865 
8 1 7.69275 7.68433 3.06471 
9 1 7.01832 6.9462 3.77851 
43 1 10.0549 10.0444 0.74059 
44 1 8.50534 8.5183 2.25469 
45 1 9.22659 9.22565 1.55093 
22 1 6.21321 6.34481 6.15876 
23 1 7.75254 7.8079 7.72877 
24 1 7.03608 7.13527 6.98854 
34 1 10.1246 10.0702 10.1099 
35 1 8.58762 8.58512 8.58646 
36 1 9.30819 9.27937 9.30647 
ITEM: TIMESTEP
90
ITEM: NUMBER OF ATOMS
51
ITEM: BOX BOUNDS pp pp pp
0.0000000000000000e+00 1.1000000000000000e+01
0.0000000000000000e+00 1.1002000000000001e+01
0.0000000000000000e+00 1.1000000000000000e+01
ITEM: ATOMS id type x y z 
10 1 4.67375 4.53271 4.61906 
11 1 3.09086 3.0784 3.07548 
12 1 3.82559 3.75343 3.79149 
46 1 0.737163 0.720727 0.736244 
47 1 2.25588 2.26659 2.2596 
48 1 1.55126 1.54985 1.55332 
19 1 4.46333 4.5602 6.18135 
20 1 2.98195 3.02627 7.74066 
21 1 3.66774 3.74074 7.00975 
31 1 0.708521 0.658594 10.1135 
32 1 2.19242 2.19086 8.585 
33 1 1.49714 1.47178 9.30554 
16 1 4.5012 6.25393 4.55127 
17 1 3.00269 7.76777 3.0127 
18 1 3.70584 7.05737 3.7359 
25 1 0.683579 10.0969 0.68022 
26 1 2.19345 8.58334 2.18894 
27 1 1.4819 9.29738 1.47748 
4 1 4.56593 6.21302 6.07707 
5 1 3.08093 7.6858 7.68157 
6 1 3.77335 6.99858 6.93348 
37 1 0.735076 10.0401 10.041 
38 1 2.2688 8.50109 8.51709 
39 1 1.55913 9.21408 9.22246 
13 1 6.18879 4.58705 4.47212 
14 1 7.73088 3.04006 3.00238 
15 1 7.00895 3.76441 3.69028 
28 1 10.0968 0.678575 0.706913 
29 1 8.57428 2.20021 2.2114 
30 1 9.29156 1.48615 1.50791 
1 1 6.08996 4.70356 6.48907 
2 1 7.79462 2.94265 7.53413 
3 1 7.06304 3.68493 6.90078 
40 1 10.0635 0.714637 10.0977 
41 1 8.5733 2.18046 8.47281 
42 1 9.25245 1.51417 9.24652 
49 2 5.9349 4.9 7.61068 
50 2 6.84659 4.95204 8.97595 
51 3 5.99559 4.94567 9.41653 
7 1 6.24084 6.10134 4.60906 
8 1 7.69361 7.68313 3.06371 
9 1 7.01941 6.94738 3.7796 
43 1 10.0562 10.0443 0.739833 
44 1 8.50775 8.51921 2.25227 
45 1 9.22594 9.22748 1.55081 
22 1 6.21275 6.34317 6.16059 
23 1 7.75259 7.80927 7.72815 
24 1 7.0361 7.13606 6.98772 
34 1 10.1226 10.0688 10.1131 
35 1 8.58738 8.58531 8.58643 
36 1 9.30809 9.28135 9.30438 
ITEM: TIMESTEP
100
ITEM: NUMBER OF ATOMS
51
ITEM: BOX BOUNDS pp pp pp
0.0000000000000000e+00 1.1000000000000000e+01
0.0000000000000000e+00 1.1002000000000001e+01
0.0000000000000000e+00 1.1000000000000000e+01
ITEM: ATOMS id type x y z 
10 1 4.67675 4.52729 4.6251 
11 1 3.09156 3.07593 3.07917 
12 1 3.83447 3.74895 3.78809 
46 1 0.738316 0.719814 0.736295 
47 1 2.25696 2.26669 2.25831 
48 1 1.55324 1.54864 1.552 
19 1 4.46092 4.56084 6.18267 
20 1 2.97675 3.02579 7.73741 
21 1 3.66245 3.74015 7.00729 
31 1 0.708072 0.65873 10.1153 
32 1 2.18832 2.19198 8.58429 
33 1 1.49372 1.471 9.30347 
16 1 4.50514 6.2516 4.5481 
17 1 3.00192 7.76753 3.01488 
18 1 3.7071 7.055 3.73363 
25 1 0.679795 10.0984 0.682919 
26 1 2.1907 8.58198 2.19051 
27 1 1.48597 9.30136 1.47802 
4 1 4.56224 6.21881 6.07003 
5 1 3.07892 7.68827 7.67843 
6 1 3.77149 7.00336 6.9283 
37 1 0.732057 10.0413 10.0392 
38 1 2.26683 8.49924 8.51891 
39 1 1.56018 9.21744 9.22168 
13 1 6.19179 4.58262 4.48564 
14 1 7.73021 3.04267 3.00458 
15 1 7.00836 3.76537 3.69447 
28 1 10.0924 0.683336 0.704238 
29 1 8.56966 2.20418 2.20842 
30 1 9.28599 1.48995 1.50371 
1 1 6.08576 4.7059 6.50236 
2 1 7.80228 2.93357 7.51938 
3 1 7.0637 3.68453 6.90427 
40 1 10.0616 0.717437 10.1016 
41 1 8.58195 2.1693 8.45206 
42 1 9.25553 1.50972 9.23549 
49 2 5.92999 4.89435 7.62302 
50 2 6.85685 4.9606 9.00322 
51 3 5.98942 4.94651 9.41365 
7 1 6.24671 6.09854 4.61414 
8 1 7.69611 7.67966 3.06422 
9 1 7.02402 6.9439 3.78204 
43 1 10.0578 10.0444 0.741051 
44 1 8.50809 8.51803 2.25091 
45 1 9.22491 9.22539 1.54782 
22 1 6.21221 6.34137 6.16377 
23 1 7.75228 7.8154 7.72416 
24 1 7.03609 7.14035 6.98503 
34 1 10.1235 10.0678 10.1139 
35 1 8.58657 8.59135 8.58225 
36 1 9.30835 9.28471 9.30165 
ITEM: TIMESTEP
110
ITEM: NUMBER OF ATOMS
51
ITEM: BOX BOUNDS pp pp pp
0.0000000000000000e+00 1.1000000000000000e+01
0.0000000000000000e+00 1.1002000000000001e+01
0.0000000000000000e+00 1.1000000000000000e+01
ITEM: ATOMS id type x y z 
10 1 4.67812 4.52566 4.62519 
11 1 3.09489 3.07523 3.07683 
12 1 3.8323 3.74716 3.79273 
46 1 0.73862 0.719775 0.736557 
47 1 2.25784 2.26654 2.25818 
48 1 1.55319 1.54913 1.55264 
19 1 4.46094 4.56175 6.18309 
20 1 2.97519 3.02594 7.73611 
21 1 3.66139 3.74086 7.00614 
31 1 0.708105 0.658336 10.1152 
32 1 2.18715 2.1919 8.58333 
33 1 1.49289 1.47164 9.30364 
16 1 4.50623 6.25086 4.54699 
17 1 3.00161 7.7667 3.01462 
18 1 3.7077 7.05518 3.73391 
25 1 0.681116 10.1001 0.684 
26 1 2.19319 8.58408 2.18997 
27 1 1.48067 9.29858 1.48021 
4 1 4.56184 6.21939 6.06863 
5 1 3.07865 7.68921 7.67737 
6 1 3.7702 7.00382 6.92672 
37 1 0.732583 10.0432 10.0381 
38 1 2.26848 8.50112 8.51847 
39 1 1.55675 9.21439 9.22201 
13 1 6.19369 4.58252 4.48802 
14 1 7.72982 3.04344 3.00375 
15 1 7.00907 3.76412 3.69674 
28 1 10.0909 0.68379 0.703211 
29 1 8.56935 2.20523 2.20806 
30 1 9.28384 1.49108 1.50168 
1 1 6.08404 4.70579 6.50649 
2 1 7.8033 2.9322 7.51384 
3 1 7.06257 3.68562 6.90496 
40 1 10.0603 0.718435 10.1025 
41 1 8.58501 2.16568 8.4462 
42 1 9.25721 1.5076 9.23251 
49 2 5.92901 4.89242 7.62557 
50 2 6.85924 4.96321 9.01171 
51 3 5.98819 4.94687 9.41494 
7 1 6.24842 6.09761 4.61565 
8 1 7.69721 7.67806 3.06402 
9 1 7.0252 6.94371 3.78305 
43 1 10.0576 10.0444 0.739718 
44 1 8.50752 8.51694 2.24936 
45 1 9.22619 9.22585 1.5494 
22 1 6.21176 6.34062 6.16443 
23 1 7.75205 7.81739 7.72257 
24 1 7.0358 7.14144 6.98462 
34 1 10.124 10.0677 10.1148 
35 1 8.58666 8.59362 8.58074 
36 1 9.30843 9.28519 9.30187 
ITEM: TIMESTEP
120
ITEM: NUMBER OF ATOMS
51
ITEM: BOX BOUNDS pp pp pp
0.0000000000000000e+00 1.1000000000000000e+01
0.0000000000000000e+00 1.1002000000000001e+01
0.0000000000000000e+00 1.1000000000000000e+01
ITEM: ATOMS id type x y z 
10 1 4.68065 4.5219 4.6283 
11 1 3.09976 3.07201 3.07627 
12 1 3.83242 3.7439 3.79693 
46 1 0.73869 0.718942 0.737458 
47 1 2.26021 2.266 2.2568 
48 1 1.55479 1.54863 1.55235 
19 1 4.45909 4.56324 6.1835 
20 1 2.96995 3.02609 7.73286 
21 1 3.65687 3.7416 7.0042 
31 1 0.708529 0.657639 10.1171 
32 1 2.18336 2.19264 8.58166 
33 1 1.49102 1.47118 9.30245 
16 1 4.50929 6.24905 4.54412 
17 1 3.00249 7.766 3.01479 
18 1 3.70957 7.05416 3.73239 
25 1 0.67913 10.1033 0.688889 
26 1 2.19197 8.58387 2.19152 
27 1 1.47949 9.29915 1.48266 
4 1 4.5591 6.22248 6.06381 
5 1 3.07706 7.69186 7.67405 
6 1 3.76813 7.00668 6.92282 
37 1 0.730324 10.0446 10.0364 
38 1 2.26724 8.50167 8.5185 
39 1 1.55572 9.21535 9.22106 
13 1 6.19693 4.57966 4.49668 
14 1 7.7286 3.04432 3.00439 
15 1 7.01074 3.76442 3.70127 
28 1 10.0864 0.686713 0.698823 
29 1 8.56648 2.20806 2.20457 
30 1 9.28089 1.49352 1.49843 
1 1 6.08063 4.70678 6.51503 
2 1 7.80822 2.92643 7.50078 
3 1 7.06151 3.68599 6.90674 
40 1 10.0582 0.72139 10.1045 
41 1 8.59278 2.15653 8.42783 
42 1 9.26058 1.50287 9.22188 
49 2 5.92617 4.88724 7.63304 
50 2 6.86557 4.97078 9.03658 
51 3 5.98523 4.94803 9.4205 
7 1 6.25253 6.09587 4.62001 
8 1 7.69982 7.67461 3.06413 
9 1 7.02887 6.94091 3.78462 
43 1 10.0578 10.0447 0.740519 
44 1 8.50808 8.5147 2.24819 
45 1 9.22652 9.22452 1.54875 
22 1 6.2109 6.33975 6.16668 
23 1 7.75173 7.82373 7.71837 
24 1 7.03506 7.14478 6.98356 
34 1 10.1259 10.0664 10.1162 
35 1 8.58649 8.59927 8.57692 
36 1 9.30863 9.28705 9.30115 
ITEM: TIMESTEP
130
ITEM: NUMBER OF ATOMS
51
ITEM: BOX BOUNDS pp pp pp
0.0000000000000000e+00 1.1000000000000000e+01
0.0000000000000000e+00 1.1002000000000001e+01
0.0000000000000000e+00 1.1000000000000000e+01
ITEM: ATOMS id type x y z 
10 1 4.68072 4.52144 4.62867 
11 1 3.09983 3.07166 3.07677 
12 1 3.83325 3.74384 3.79641 
46 1 0.73883 0.718845 0.737485 
47 1 2.26055 2.26593 2.25672 
48 1 1.55498 1.54843 1.55225 
19 1 4.45888 4.56339 6.1838 
20 1 2.96939 3.02615 7.73262 
21 1 3.65638 3.74166 7.00398 
31 1 0.708553 0.657413 10.1171 
32 1 2.18301 2.19234 8.58141 
33 1 1.49051 1.4715 9.30264 
16 1 4.50962 6.24894 4.54395 
17 1 3.00255 7.76587 3.01477 
18 1 3.70982 7.05405 3.73222 
25 1 0.679054 10.1035 0.689165 
26 1 2.19202 8.5836 2.19129 
27 1 1.47911 9.29976 1.4837 
4 1 4.55906 6.22299 6.06322 
5 1 3.07693 7.69231 7.67358 
6 1 3.76782 7.00662 6.92271 
37 1 0.730012 10.0446 10.0362 
38 1 2.26703 8.50163 8.51842 
39 1 1.55575 9.2157 9.22082 
13 1 6.19695 4.57979 4.49699 
14 1 7.72837 3.04467 3.00411 
15 1 7.01125 3.76397 3.70233 
28 1 10.0861 0.687194 0.698268 
29 1 8.56638 2.20843 2.20463 
30 1 9.27985 1.49374 1.49763 
1 1 6.08038 4.70704 6.51582 
2 1 7.80865 2.92593 7.49957 
3 1 7.0616 3.68584 6.90687 
40 1 10.0581 0.721581 10.1046 
41 1 8.59361 2.15549 8.42617 
42 1 9.26105 1.50243 9.22073 
49 2 5.92589 4.88681 7.63377 
50 2 6.8661 4.97154 9.03914 
51 3 5.98504 4.94817 9.42137 
7 1 6.25298 6.09531 4.62019 
8 1 7.7001 7.67395 3.06402 
9 1 7.02902 6.94093 3.78523 
43 1 10.0576 10.0448 0.740523 
44 1 8.508 8.51452 2.24805 
45 1 9.22681 9.22413 1.54888 
22 1 6.21076 6.33962 6.16702 
23 1 7.75153 7.82426 7.71796 
24 1 7.03494 7.1451 6.98335 
34 1 10.1259 10.0661 10.1166 
35 1 8.58637 8.59955 8.57701 
36 1 9.30903 9.28788 9.30021 
ITEM: TIMESTEP
140
ITEM: NUMBER OF ATOMS
51
ITEM: BOX BOUNDS pp pp pp
0.0000000000000000e+00 1.1000000000000000e+01
0.0000000000000000e+00 1.1002000000000001e+01
0.0000000000000000e+00 1.1000000000000000e+01
ITEM: ATOMS id type x y z 
10 1 4.68941 4.51093 4.63827 
11 1 3.1108 3.06073 3.08136 
12 1 3.83879 3.74143 3.797 
46 1 0.741264 0.716716 0.738091 
47 1 2.26757 2.26467 2.25357 
48 1 1.56576 1.54021 1.55196 
19 1 4.45484 4.56758 6.1866 
20 1 2.95409 3.02797 7.7247 
21 1 3.64255 3.74432 6.99849 
31 1 0.709063 0.652024 10.12 
32 1 2.17052 2.19174 8.57435 
33 1 1.48498 1.47161 9.30285 
16 1 4.52007 6.24734 4.53971 
17 1 3.00775 7.76498 3.01571 
18 1 3.71239 7.04329 3.72503 
25 1 0.668771 10.117 0.711517 
26 1 2.18539 8.586 2.20185 
27 1 1.48295 9.29951 1.48205 
4 1 4.55526 6.2288 6.05488 
5 1 3.07501 7.69743 7.66941 
6 1 3.7555 7.01974 6.90237 
37 1 0.718919 10.0443 10.0319 
38 1 2.25718 8.50098 8.51554 
39 1 1.55953 9.22902 9.21763 
13 1 6.20052 4.57135 4.51768 
14 1 7.7264 3.04656 3.00875 
15 1 7.0158 3.76607 3.71425 
28 1 10.0701 0.693235 0.687114 
29 1 8.55606 2.20991 2.20172 
30 1 9.26925 1.51377 1.47539 
1 1 6.07251 4.70808 6.53742 
2 1 7.82084 2.91146 7.46431 
3 1 7.06021 3.68594 6.90781 
40 1 10.0536 0.728767 10.1076 
41 1 8.61407 2.12932 8.3752 
42 1 9.27398 1.48934 9.18826 
49 2 5.91799 4.87426 7.65398 
50 2 6.88136 4.9932 9.11252 
51 3 5.97975 4.95223 9.44722 
7 1 6.26103 6.09279 4.63117 
8 1 7.70596 7.66849 3.06923 
9 1 7.04104 6.92296 3.78354 
43 1 10.0578 10.0462 0.74355 
44 1 8.51099 8.5069 2.24615 
45 1 9.22687 9.21629 1.54706 
22 1 6.20771 6.33628 6.17698 
23 1 7.74814 7.84074 7.70906 
24 1 7.03402 7.15711 6.98159 
34 1 10.1323 10.0634 10.118 
35 1 8.58466 8.61728 8.56579 
36 1 9.3148 9.29074 9.29487 
ITEM: TIMESTEP
150
ITEM: NUMBER OF ATOMS
51
ITEM: BOX BOUNDS pp pp pp
0.0000000000000000e+00 1.1000000000000000e+01
0.0000000000000000e+00 1.1002000000000001e+01
0.0000000000000000e+00 1.1000000000000000e+01
ITEM: ATOMS id type x y z 
10 1 4.68591 4.51285 4.63782 
11 1 3.10997 3.06429 3.07899 
12 1 3.84258 3.73492 3.80061 
46 1 0.744369 0.713585 0.738167 
47 1 2.27133 2.26023 2.25411 
48 1 1.56215 1.54445 1.55198 
19 1 4.45466 4.56788 6.18768 
20 1 2.95241 3.02831 7.72352 
21 1 3.64167 3.74491 6.99837 
31 1 0.709216 0.653716 10.121 
32 1 2.16948 2.19266 8.57506 
33 1 1.48452 1.46966 9.30071 
16 1 4.52028 6.24422 4.53694 
17 1 3.00448 7.7616 3.01395 
18 1 3.71525 7.0496 3.72739 
25 1 0.668694 10.116 0.710151 
26 1 2.19048 8.58433 2.19657 
27 1 1.47653 9.3029 1.49332 
4 1 4.55336 6.23048 6.05285 
5 1 3.06998 7.69935 7.66423 
6 1 3.75922 7.01771 6.90799 
37 1 0.723119 10.0488 10.031 
38 1 2.26274 8.50563 8.51472 
39 1 1.55276 9.2214 9.21627 
13 1 6.20495 4.57446 4.51937 
14 1 7.72787 3.04723 3.0093 
15 1 7.01374 3.76238 3.71488 
28 1 10.0685 0.697706 0.679523 
29 1 8.55598 2.21769 2.19555 
30 1 9.26609 1.50402 1.48401 
1 1 6.07179 4.709 6.53976 
2 1 7.82172 2.91041 7.46191 
3 1 7.06113 3.68472 6.90735 
40 1 10.0534 0.730231 10.1074 
41 1 8.61637 2.12754 8.37169 
42 1 9.2736 1.48853 9.18406 
49 2 5.91718 4.87377 7.65626 
50 2 6.88194 4.99505 9.11966 
51 3 5.98023 4.95274 9.45021 
7 1 6.26203 6.08885 4.63167 
8 1 7.70807 7.66318 3.06717 
9 1 7.03996 6.92725 3.7876 
43 1 10.0581 10.0453 0.743213 
44 1 8.51157 8.5053 2.24499 
45 1 9.22789 9.22063 1.54888 
22 1 6.20849 6.33592 6.17676 
23 1 7.74759 7.84254 7.70752 
24 1 7.03098 7.15557 6.98013 
34 1 10.1333 10.0607 10.1191 
35 1 8.58645 8.61615 8.56503 
36 1 9.31202 9.29467 9.29461 
ITEM: TIMESTEP
160
ITEM: NUMBER OF ATOMS
51
ITEM: BOX BOUNDS pp pp pp
0.0000000000000000e+00 1.1000000000000000e+01
0.0000000000000000e+00 1.1002000000000001e+01
0.0000000000000000e+00 1.1000000000000000e+01
ITEM: ATOMS id type x y z 
10 1 4.68694 4.51222 4.63843 
11 1 3.1117 3.06305 3.0784 
12 1 3.84165 3.73476 3.80171 
46 1 0.744235 0.713375 0.738299 
47 1 2.27152 2.25966 2.25425 
48 1 1.56338 1.54358 1.55124 
19 1 4.45437 4.56835 6.18761 
20 1 2.95136 3.0289 7.72271 
21 1 3.64098 3.74548 6.99794 
31 1 0.70991 0.653242 10.1216 
32 1 2.16901 2.19265 8.57393 
33 1 1.48429 1.47051 9.30077 
16 1 4.52022 6.24421 4.53647 
17 1 3.00534 7.76106 3.01296 
18 1 3.71535 7.04983 3.72801 
25 1 0.668479 10.1166 0.711902 
26 1 2.19053 8.58369 2.19524 
27 1 1.47442 9.3052 1.49703 
4 1 4.5532 6.23111 6.05201 
5 1 3.06923 7.70073 7.66146 
6 1 3.76038 7.01625 6.90984 
37 1 0.72305 10.049 10.0304 
38 1 2.26302 8.50709 8.51391 
39 1 1.55044 9.22008 9.21575 
13 1 6.20462 4.57298 4.52087 
14 1 7.72746 3.04791 3.00887 
15 1 7.01389 3.76188 3.71618 
28 1 10.0669 0.698103 0.678388 
29 1 8.55587 2.21768 2.19513 
30 1 9.26536 1.50437 1.48252 
1 1 6.0715 4.7092 6.54147 
2 1 7.82218 2.90984 7.45915 
3 1 7.06095 3.68473 6.90667 
40 1 10.053 0.7307 10.1074 
41 1 8.61745 2.12619 8.36817 
42 1 9.2749 1.48736 9.18213 
49 2 5.91665 4.87322 7.65801 
50 2 6.8829 4.99659 9.12538 
51 3 5.98016 4.95315 9.4529 
7 1 6.26334 6.0887 4.63208 
8 1 7.70936 7.66098 3.06596 
9 1 7.04023 6.92893 3.78942 
43 1 10.0581 10.0462 0.742401 
44 1 8.51205 8.50532 2.24522 
45 1 9.2284 9.21954 1.5487 
22 1 6.20735 6.33534 6.17677 
23 1 7.74737 7.84363 7.70666 
24 1 7.0305 7.15614 6.98038 
34 1 10.1339 10.0602 10.1198 
35 1 8.58602 8.61736 8.56437 
36 1 9.31259 9.2942 9.29407 
ITEM: TIMESTEP
170
ITEM: NUMBER OF ATOMS
51
ITEM: BOX BOUNDS pp pp pp
0.0000000000000000e+00 1.1000000000000000e+01
0.0000000000000000e+00 1.1002000000000001e+01
0.0000000000000000e+00 1.1000000000000000e+01
ITEM: ATOMS id type x y z 
10 1 4.68692 4.51173 4.63923 
11 1 3.11295 3.06156 3.07867 
12 1 3.84266 3.73399 3.80159 
46 1 0.744787 0.713171 0.737911 
47 1 2.27275 2.25889 2.25409 
48 1 1.56475 1.54249 1.55117 
19 1 4.45411 4.56872 6.18811 
20 1 2.94962 3.02963 7.72161 
21 1 3.63953 3.74607 6.99749 
31 1 0.710529 0.653085 10.122 
32 1 2.16762 2.19317 8.57316 