ITEM: TIMESTEP
0
ITEM: NUMBER OF ATOMS
145
ITEM: BOX BOUNDS pp pp pp
0.0000000000000000e+00 2.1884000000000000e+01
0.0000000000000000e+00 2.1885999999999999e+01
0.0000000000000000e+00 2.1885000000000002e+01
ITEM: ATOMS id type x y z 
9 1 8.524 12.547 12.547 
10 1 1.604 19.466 19.466 
11 1 1.605 19.466 12.547 
12 1 8.524 12.547 19.466 
13 1 1.605 12.547 19.466 
14 1 8.524 19.467 12.547 
15 1 8.524 19.467 19.466 
16 1 1.605 12.547 12.547 
25 1 10.105 10.965 10.965 
26 1 0.023 21.047 21.049 
27 1 0.023 21.047 10.964 
28 1 10.106 10.965 21.047 
29 1 0.023 10.966 21.048 
30 1 10.106 21.049 10.966 
31 1 10.106 21.048 21.049 
32 1 0.024 10.965 10.965 
57 1 5.811 12.218 12.218 
58 1 4.317 19.796 19.795 
59 1 4.318 19.795 12.218 
60 1 5.811 12.219 19.795 
61 1 4.318 12.218 19.795 
62 1 5.811 19.795 12.218 
63 1 5.811 19.796 19.795 
64 1 4.318 12.218 12.218 
65 1 8.853 15.26 12.218 
66 1 1.276 16.754 19.795 
67 1 8.853 16.754 19.795 
68 1 1.276 15.26 12.218 
69 1 1.276 16.754 12.218 
70 1 8.853 15.26 19.796 
71 1 1.276 15.26 19.795 
72 1 8.853 16.753 12.218 
73 1 8.853 12.219 15.26 
74 1 1.276 19.795 16.753 
75 1 1.276 12.218 16.754 
76 1 8.853 19.796 15.26 
77 1 8.853 19.796 16.753 
78 1 1.276 12.218 15.26 
79 1 1.276 19.795 15.26 
80 1 8.853 12.219 16.754 
105 1 7.01 12.317 12.317 
106 1 3.118 19.696 19.696 
107 1 3.119 19.696 12.317 
108 1 7.011 12.317 19.696 
109 1 3.119 12.317 19.696 
110 1 7.01 19.696 12.317 
111 1 7.01 19.697 19.696 
112 1 3.118 12.317 12.317 
113 1 8.754 14.061 12.317 
114 1 1.375 17.953 19.696 
115 1 8.754 17.953 19.696 
116 1 1.375 14.061 12.317 
117 1 1.375 17.953 12.317 
118 1 8.754 14.061 19.696 
119 1 1.375 14.061 19.696 
120 1 8.754 17.953 12.317 
121 1 8.754 12.317 14.061 
122 1 1.375 19.696 17.952 
123 1 1.375 12.317 17.953 
124 1 8.754 19.697 14.061 
125 1 8.754 19.697 17.952 
126 1 1.375 12.317 14.061 
127 1 1.375 19.696 14.061 
128 1 8.754 12.318 17.953 
137 1 9.407 11.664 11.664 
138 1 0.721 20.349 20.35 
139 1 0.721 20.349 11.663 
140 1 9.408 11.664 20.349 
141 1 0.721 11.664 20.35 
142 1 9.407 20.35 11.664 
143 1 9.407 20.35 20.35 
144 1 0.722 11.664 11.663 
1 1 19.466 1.604 1.604 
2 1 12.547 8.524 8.524 
3 1 12.546 8.524 1.604 
4 1 19.466 1.605 8.524 
5 1 12.547 1.604 8.524 
6 1 19.466 8.524 1.605 
7 1 19.466 8.524 8.524 
8 1 12.547 1.604 1.605 
17 1 21.048 0.023 0.022 
18 1 10.965 10.106 10.106 
19 1 10.965 10.106 0.024 
20 1 21.048 0.024 10.107 
21 1 10.965 0.022 10.105 
22 1 21.048 10.105 0.023 
23 1 21.047 10.106 10.106 
24 1 10.965 0.023 0.022 
33 1 16.753 1.275 1.276 
34 1 15.26 8.853 8.853 
35 1 15.26 8.852 1.276 
36 1 16.753 1.275 8.853 
37 1 15.26 1.275 8.853 
38 1 16.753 8.852 1.276 
39 1 16.753 8.853 8.853 
40 1 15.26 1.275 1.276 
41 1 19.795 4.317 1.276 
42 1 12.218 5.811 8.853 
43 1 19.795 5.811 8.853 
44 1 12.218 4.317 1.276 
45 1 12.218 5.811 1.275 
46 1 19.795 4.317 8.853 
47 1 12.218 4.317 8.853 
48 1 19.795 5.811 1.276 
49 1 19.795 1.275 4.317 
50 1 12.218 8.852 5.811 
51 1 12.218 1.276 5.811 
52 1 19.795 8.853 4.318 
53 1 19.795 8.853 5.811 
54 1 12.218 1.275 4.318 
55 1 12.218 8.852 4.317 
56 1 19.795 1.275 5.811 
81 1 17.952 1.374 1.375 
82 1 14.061 8.754 8.754 
83 1 14.06 8.753 1.375 
84 1 17.952 1.374 8.754 
85 1 14.06 1.374 8.754 
86 1 17.952 8.754 1.375 
87 1 17.952 8.754 8.754 
88 1 14.061 1.374 1.375 
89 1 19.696 3.118 1.375 
90 1 12.317 7.01 8.754 
91 1 19.696 7.01 8.754 
92 1 12.317 3.118 1.375 
93 1 12.317 7.01 1.374 
94 1 19.695 3.118 8.754 
95 1 12.317 3.118 8.754 
96 1 19.696 7.01 1.375 
97 1 19.696 1.374 3.118 
98 1 12.317 8.754 7.01 
99 1 12.317 1.375 7.01 
100 1 19.696 8.754 3.118 
101 1 19.696 8.754 7.01 
102 1 12.317 1.374 3.119 
103 1 12.317 8.753 3.118 
104 1 19.696 1.374 7.01 
129 1 20.35 0.722 0.721 
130 1 11.664 9.407 9.407 
131 1 11.663 9.407 0.722 
132 1 20.35 0.722 9.408 
133 1 11.663 0.72 9.407 
134 1 20.35 9.407 0.721 
135 1 20.349 9.407 9.407 
136 1 11.664 0.721 0.721 
145 2 21.721 1.055 21.352 
ITEM: TIMESTEP
10
ITEM: NUMBER OF ATOMS
145
ITEM: BOX BOUNDS pp pp pp
0.0000000000000000e+00 2.1884000000000000e+01
0.0000000000000000e+00 2.1885999999999999e+01
0.0000000000000000e+00 2.1885000000000002e+01
ITEM: ATOMS id type x y z 
9 1 8.51693 12.5542 12.5543 
10 1 1.60401 19.4663 19.4655 
11 1 1.61196 19.459 12.5537 
12 1 8.51739 12.5543 19.4589 
13 1 1.61191 12.554 19.4591 
14 1 8.51705 19.4598 12.5539 
15 1 8.51707 19.4599 19.4589 
16 1 1.61188 12.5541 12.554 
25 1 10.1066 10.9638 10.9638 
26 1 0.0537226 20.9892 21.0175 
27 1 0.0215062 21.0485 10.9629 
28 1 10.1076 10.9639 21.0487 
29 1 0.0214928 10.9646 21.0495 
30 1 10.107 21.0499 10.9646 
31 1 10.1071 21.0494 21.0502 
32 1 0.0225284 10.9639 10.9635 
57 1 5.81937 12.2191 12.2191 
58 1 4.30844 19.7947 19.7939 
59 1 4.30925 19.7939 12.2191 
60 1 5.81956 12.2199 19.7938 
61 1 4.30964 12.2192 19.794 
62 1 5.81841 19.794 12.219 
63 1 5.81975 19.795 19.7939 
64 1 4.30924 12.2191 12.2191 
65 1 8.85195 15.2514 12.2191 
66 1 1.27717 16.7623 19.7939 
67 1 8.85187 16.7621 19.794 
68 1 1.2771 15.2518 12.2191 
69 1 1.27709 16.7621 12.2191 
70 1 8.85199 15.2519 19.7947 
71 1 1.27704 15.2513 19.7939 
72 1 8.85202 16.7605 12.219 
73 1 8.85185 12.22 15.2518 
74 1 1.27712 19.7939 16.7617 
75 1 1.27708 12.2191 16.7621 
76 1 8.85202 19.795 15.2526 
77 1 8.85192 19.7949 16.7618 
78 1 1.27711 12.2191 15.2518 
79 1 1.27701 19.794 15.251 
80 1 8.85194 12.2201 16.7621 
105 1 7.00765 12.316 12.316 
106 1 3.12114 19.6978 19.6976 
107 1 3.12158 19.697 12.316 
108 1 7.0077 12.316 19.6972 
109 1 3.12155 12.3159 19.697 
110 1 7.00873 19.6971 12.3161 
111 1 7.0077 19.698 19.697 
112 1 3.12122 12.3158 12.3159 
113 1 8.75499 14.0632 12.3161 
114 1 1.37324 17.95 19.6976 
115 1 8.75499 17.9504 19.697 
116 1 1.37383 14.0638 12.316 
117 1 1.37398 17.9501 12.316 
118 1 8.75514 14.0639 19.6971 
119 1 1.37392 14.0636 19.697 
120 1 8.75498 17.9515 12.316 
121 1 8.75504 12.3162 14.0635 
122 1 1.37324 19.6975 17.9493 
123 1 1.37396 12.316 17.9502 
124 1 8.75489 19.698 14.0623 
125 1 8.75496 19.698 17.9497 
126 1 1.37391 12.316 14.0637 
127 1 1.37396 19.697 14.0631 
128 1 8.75509 12.317 17.9502 
137 1 9.41025 11.6603 11.6602 
138 1 0.758299 20.3077 20.3137 
139 1 0.717799 20.3526 11.6595 
140 1 9.41128 11.66 20.3525 
141 1 0.717855 11.6603 20.3533 
142 1 9.41063 20.3539 11.6607 
143 1 9.41071 20.3535 20.3533 
144 1 0.718459 11.6602 11.66 
1 1 19.4469 1.61469 1.62277 
2 1 12.5542 8.51687 8.51683 
3 1 12.5533 8.51685 1.61088 
4 1 19.459 1.61195 8.51773 
5 1 12.5538 1.61116 8.51689 
6 1 19.4594 8.51778 1.61207 
7 1 19.4589 8.51672 8.51677 
8 1 12.5534 1.61116 1.61187 
17 1 21.0251 -0.0272582 0.0377314 
18 1 10.9638 10.1071 10.1071 
19 1 10.9635 10.1074 0.0224315 
20 1 21.0496 0.0224948 10.108 
21 1 10.9636 0.0204946 10.1064 
22 1 21.0495 10.1064 0.0214704 
23 1 21.0486 10.1071 10.1072 
24 1 10.9639 0.0215213 0.0207133 
33 1 16.7517 1.27454 1.27557 
34 1 15.2514 8.85192 8.85193 
35 1 15.2512 8.85088 1.27711 
36 1 16.7611 1.27599 8.85192 
37 1 15.2511 1.27612 8.8519 
38 1 16.7605 8.85109 1.27702 
39 1 16.7614 8.85194 8.85195 
40 1 15.2479 1.27573 1.2767 
41 1 19.7954 4.31814 1.27569 
42 1 12.2191 5.81935 8.85189 
43 1 19.7939 5.8191 8.85189 
44 1 12.2191 4.30907 1.27699 
45 1 12.2191 5.81891 1.27614 
46 1 19.7938 4.30922 8.85197 
47 1 12.2191 4.30851 8.85187 
48 1 19.7942 5.82215 1.27673 
49 1 19.7954 1.27465 4.31807 
50 1 12.2192 8.851 5.81948 
51 1 12.2191 1.27707 5.81962 
52 1 19.794 8.85192 4.30959 
53 1 19.7939 8.85194 5.81947 
54 1 12.219 1.27608 4.30988 
55 1 12.219 8.85091 4.30952 
56 1 19.7942 1.27573 5.82292 
81 1 17.9396 1.36988 1.37327 
82 1 14.0634 8.75499 8.75497 
83 1 14.0631 8.75416 1.37375 
84 1 17.9496 1.37303 8.75506 
85 1 14.0634 1.37289 8.75519 
86 1 17.9498 8.75488 1.37378 
87 1 17.9498 8.75497 8.75498 
88 1 14.0597 1.37326 1.37423 
89 1 19.6992 3.13084 1.37199 
90 1 12.316 7.00726 8.75499 
91 1 19.697 7.00732 8.75497 
92 1 12.316 3.12068 1.37396 
93 1 12.3158 7.00729 1.37292 
94 1 19.6963 3.12084 8.75488 
95 1 12.3159 3.12089 8.75504 
96 1 19.6968 7.01077 1.37409 
97 1 19.6977 1.37008 3.13074 
98 1 12.3159 8.75488 7.00722 
99 1 12.3158 1.37392 7.00731 
100 1 19.6972 8.75506 3.1208 
101 1 19.697 8.75495 7.00772 
102 1 12.316 1.3729 3.12138 
103 1 12.3157 8.7541 3.12069 
104 1 19.6969 1.37332 7.01085 
129 1 20.3369 0.773074 0.737036 
130 1 11.6603 9.41071 9.41068 
131 1 11.6595 9.41048 0.718254 
132 1 20.3531 0.718371 9.41162 
133 1 11.6597 0.71703 9.41053 
134 1 20.3531 9.41062 0.717766 
135 1 20.3524 9.4108 9.41078 
136 1 11.6601 0.71747 0.717657 
145 2 21.7304 1.12421 21.348 
ITEM: TIMESTEP
20
ITEM: NUMBER OF ATOMS
145
ITEM: BOX BOUNDS pp pp pp
0.0000000000000000e+00 2.1884000000000000e+01
0.0000000000000000e+00 2.1885999999999999e+01
0.0000000000000000e+00 2.1885000000000002e+01
ITEM: ATOMS id type x y z 
9 1 8.51076 12.5604 12.5606 
10 1 1.6535 19.4187 19.418 
11 1 1.61824 19.4534 12.5591 
12 1 8.51128 12.5606 19.453 
13 1 1.6178 12.5587 19.4529 
14 1 8.51116 19.453 12.5601 
15 1 8.51162 19.4536 19.4528 
16 1 1.61823 12.5606 12.5605 
25 1 10.106 10.9645 10.9646 
26 1 0.0694105 20.9588 21.0015 
27 1 0.0223879 21.0481 10.9639 
28 1 10.1072 10.9643 21.0484 
29 1 0.0222113 10.9652 21.0486 
30 1 10.1073 21.0503 10.9639 
31 1 10.1064 21.0489 21.0494 
32 1 0.0233699 10.965 10.9645 
57 1 5.81709 12.2204 12.2204 
58 1 4.32483 19.7968 19.7963 
59 1 4.31032 19.7926 12.2204 
60 1 5.81771 12.2209 19.7925 
61 1 4.3128 12.2204 19.7928 
62 1 5.8166 19.7927 12.2202 
63 1 5.82661 19.7946 19.7936 
64 1 4.31052 12.2204 12.2205 
65 1 8.85073 15.2517 12.2203 
66 1 1.27487 16.7463 19.7961 
67 1 8.85055 16.7602 19.7928 
68 1 1.27836 15.2534 12.2204 
69 1 1.27831 16.7598 12.2204 
70 1 8.8508 15.2543 19.7932 
71 1 1.27717 15.2468 19.7938 
72 1 8.85096 16.7585 12.22 
73 1 8.85055 12.2211 15.2538 
74 1 1.27468 19.7961 16.7458 
75 1 1.27828 12.2204 16.7599 
76 1 8.85069 19.7937 15.2542 
77 1 8.85052 19.7936 16.7606 
78 1 1.27851 12.2205 15.252 
79 1 1.27737 19.7937 15.2435 
80 1 8.85069 12.2214 16.7598 
105 1 7.00778 12.3178 12.3178 
106 1 3.1341 19.6999 19.6991 
107 1 3.1237 19.6957 12.3171 
108 1 7.00805 12.318 19.6954 
109 1 3.12194 12.3174 19.6955 
110 1 7.00925 19.6959 12.3181 
111 1 7.01689 19.6957 19.6947 
112 1 3.12178 12.3177 12.3177 
113 1 8.75311 14.0622 12.3179 
114 1 1.37186 17.9375 19.6989 
115 1 8.75349 17.9493 19.6954 
116 1 1.37576 14.0631 12.3178 
117 1 1.37527 17.9484 12.3171 
118 1 8.75325 14.0631 19.6955 
119 1 1.37633 14.0526 19.6947 
120 1 8.75327 17.9537 12.3178 
121 1 8.75318 12.3181 14.063 
122 1 1.37169 19.6996 17.9367 
123 1 1.37544 12.3173 17.9487 
124 1 8.753 19.6967 14.0626 
125 1 8.75368 19.6965 17.9475 
126 1 1.37568 12.3177 14.0644 
127 1 1.37606 19.6949 14.054 
128 1 8.75336 12.3186 17.9502 
137 1 9.40984 11.6608 11.6607 
138 1 0.760928 20.2931 20.3077 
139 1 0.718177 20.3521 11.6598 
140 1 9.41027 11.6609 20.3519 
141 1 0.718531 11.6606 20.353 
142 1 9.40877 20.3523 11.6625 
143 1 9.41008 20.3527 20.3525 
144 1 0.718642 11.6605 11.6604 
1 1 19.4248 1.62946 1.64375 
2 1 12.5603 8.51049 8.51041 
3 1 12.5603 8.51063 1.61791 
4 1 19.4531 1.61765 8.51687 
5 1 12.56 1.61756 8.51059 
6 1 19.4536 8.51832 1.61815 
7 1 19.4527 8.51029 8.51026 
8 1 12.5549 1.61752 1.61834 
17 1 20.9965 -0.0668921 0.0629739 
18 1 10.964 10.1069 10.1067 
19 1 10.9645 10.1063 0.0231153 
20 1 21.0496 0.0222467 10.1076 
21 1 10.965 0.0218513 10.1052 
22 1 21.0496 10.1064 0.021445 
23 1 21.0487 10.1069 10.1068 
24 1 10.964 0.0211614 0.0206606 
33 1 16.7403 1.27257 1.27446 
34 1 15.253 8.85062 8.85062 
35 1 15.2502 8.84951 1.27852 
36 1 16.7565 1.27684 8.85082 
37 1 15.2523 1.27731 8.85073 
38 1 16.7553 8.85009 1.27782 
39 1 16.7606 8.85057 8.85057 
40 1 15.2433 1.27579 1.27651 
41 1 19.796 4.32016 1.27538 
42 1 12.2205 5.81774 8.8505 
43 1 19.7926 5.81895 8.85065 
44 1 12.2202 4.31277 1.27771 
45 1 12.2202 5.81797 1.27741 
46 1 19.7929 4.31402 8.85091 
47 1 12.2206 4.30948 8.85046 
48 1 19.7943 5.82321 1.27669 
49 1 19.7965 1.27296 4.32861 
50 1 12.2205 8.84976 5.8182 
51 1 12.2204 1.27833 5.81965 
52 1 19.7933 8.85093 4.31527 
53 1 19.7926 8.85067 5.81973 
54 1 12.2203 1.27722 4.31182 
55 1 12.2205 8.8494 4.30938 
56 1 19.7946 1.27559 5.82406 
81 1 17.9307 1.36747 1.37509 
82 1 14.0632 8.75325 8.75328 
83 1 14.0639 8.75257 1.37542 
84 1 17.9492 1.37426 8.75402 
85 1 14.0623 1.37479 8.75332 
86 1 17.9493 8.7538 1.37491 
87 1 17.949 8.75318 8.75322 
88 1 14.0533 1.37487 1.37583 
89 1 19.6962 3.13981 1.37518 
90 1 12.3177 7.00694 8.75319 
91 1 19.6951 7.00783 8.75309 
92 1 12.3172 3.12058 1.37543 
93 1 12.3175 7.00868 1.37472 
94 1 19.6953 3.12118 8.75383 
95 1 12.3175 3.12224 8.75344 
96 1 19.6958 7.01492 1.37503 
97 1 19.6955 1.36813 3.14018 
98 1 12.3176 8.75295 7.00694 
99 1 12.3176 1.37558 7.00701 
100 1 19.6959 8.75408 3.12 
101 1 19.6951 8.75309 7.00806 
102 1 12.317 1.37406 3.12367 
103 1 12.3174 8.75252 3.12249 
104 1 19.6952 1.37501 7.01911 
129 1 20.4066 0.893051 0.679613 
130 1 11.6613 9.40944 9.40979 
131 1 11.6597 9.41051 0.718147 
132 1 20.3527 0.718328 9.41206 
133 1 11.6597 0.717015 9.41071 
134 1 20.3528 9.41073 0.718093 
135 1 20.3514 9.40993 9.41002 
136 1 11.6599 0.717811 0.718097 
145 2 21.6466 1.14146 21.4272 
ITEM: TIMESTEP
30
ITEM: NUMBER OF ATOMS
145
ITEM: BOX BOUNDS pp pp pp
0.0000000000000000e+00 2.1884000000000000e+01
0.0000000000000000e+00 2.1885999999999999e+01
0.0000000000000000e+00 2.1885000000000002e+01
ITEM: ATOMS id type x y z 
9 1 8.51004 12.5593 12.5606 
10 1 1.66153 19.4099 19.409 
11 1 1.61841 19.4528 12.5551 
12 1 8.51066 12.5607 19.4528 
13 1 1.61873 12.5551 19.4522 
14 1 8.51122 19.4538 12.5602 
15 1 8.51549 19.4534 19.4519 
16 1 1.61841 12.5606 12.5602 
25 1 10.1051 10.9656 10.9655 
26 1 0.0543953 20.9193 21.0101 
27 1 0.0228833 21.0477 10.9645 
28 1 10.1058 10.9656 21.0473 
29 1 0.0226899 10.9655 21.0485 
30 1 10.1052 21.0483 10.9658 
31 1 10.1055 21.0481 21.0483 
32 1 0.0239728 10.9656 10.9652 
57 1 5.81461 12.2212 12.2212 
58 1 4.33769 19.7993 19.7987 
59 1 4.31663 19.7922 12.2208 
60 1 5.81563 12.2215 19.7918 
61 1 4.31605 12.2211 19.7922 
62 1 5.81479 19.7922 12.2211 
63 1 5.82616 19.7949 19.794 
64 1 4.31441 12.2211 12.2211 
65 1 8.8499 15.2567 12.2211 
66 1 1.27242 16.7336 19.7985 
67 1 8.85002 16.7552 19.7924 
68 1 1.27903 15.2558 12.221 
69 1 1.27866 16.7546 12.2209 
70 1 8.85005 15.2565 19.7924 
71 1 1.27703 15.2452 19.794 
72 1 8.84999 16.7557 12.221 
73 1 8.84979 12.2219 15.2567 
74 1 1.27229 19.7986 16.7332 
75 1 1.2787 12.2209 16.7553 
76 1 8.84989 19.7932 15.2564 
77 1 8.85009 19.7932 16.7556 
78 1 1.27907 12.221 15.2557 
79 1 1.27685 19.794 15.245 
80 1 8.84989 12.2221 16.7567 
105 1 7.00312 12.3185 12.3186 
106 1 3.14755 19.6992 19.6983 
107 1 3.12756 19.6954 12.3173 
108 1 7.00477 12.3188 19.6946 
109 1 3.12758 12.3177 19.6952 
110 1 7.00423 19.6952 12.3184 
111 1 7.01602 19.6952 19.6943 
112 1 3.12563 12.3184 12.3183 
113 1 8.75276 14.0685 12.3182 
114 1 1.37298 17.9238 19.6979 
115 1 8.75331 17.9437 19.6952 
116 1 1.37644 14.0669 12.3185 
117 1 1.37554 17.9437 12.3173 
118 1 8.75263 14.0674 19.695 
119 1 1.3767 14.0555 19.6944 
120 1 8.75306 17.9449 12.318 
121 1 8.7526 12.3186 14.0682 
122 1 1.37257 19.6988 17.9232 
123 1 1.37588 12.3176 17.9443 
124 1 8.75261 19.6959 14.0665 
125 1 8.75346 19.6961 17.9437 
126 1 1.37638 12.3185 14.0671 
127 1 1.37658 19.6944 14.0541 
128 1 8.75276 12.3192 17.9455 
137 1 9.41073 11.6598 11.6599 
138 1 0.770669 20.2844 20.3006 
139 1 0.717738 20.3531 11.659 
140 1 9.41117 11.6601 20.3529 
141 1 0.717673 11.6596 20.3535 
142 1 9.41077 20.3542 11.6605 
143 1 9.41135 20.3538 20.3535 
144 1 0.718138 11.6601 11.66 
1 1 19.4269 1.64007 1.64249 
2 1 12.5603 8.5102 8.51059 
3 1 12.5594 8.51186 1.61802 
4 1 19.4518 1.61849 8.5169 
5 1 12.5586 1.61791 8.51109 
6 1 19.4522 8.51762 1.61895 
7 1 19.4524 8.51088 8.5113 
8 1 12.5544 1.61774 1.61909 
17 1 21.008 -0.120737 0.0497024 
18 1 10.9655 10.1053 10.1052 
19 1 10.965 10.1059 0.0233343 
20 1 21.0488 0.0226709 10.1066 
21 1 10.9653 0.0221151 10.1051 
22 1 21.0486 10.1054 0.0222495 
23 1 21.0474 10.1056 10.1055 
24 1 10.965 0.0219349 0.0216897 
33 1 16.7388 1.27146 1.27418 
34 1 15.2563 8.84989 8.84989 
35 1 15.256 8.84919 1.27886 
36 1 16.7542 1.27736 8.84994 
37 1 15.2565 1.27783 8.85021 
38 1 16.7546 8.84903 1.27834 
39 1 16.7566 8.84988 8.84988 
40 1 15.2425 1.27554 1.27629 
41 1 19.7964 4.31912 1.27528 
42 1 12.2212 5.81462 8.84978 
43 1 19.792 5.8157 8.85007 
44 1 12.2211 4.31627 1.27821 
45 1 12.2208 5.81366 1.27802 
46 1 19.7923 4.31618 8.84998 
47 1 12.2211 4.31475 8.84991 
48 1 19.7942 5.82661 1.27666 
49 1 19.7969 1.27191 4.33049 
50 1 12.2212 8.84909 5.8146 
51 1 12.2208 1.27875 5.81507 
52 1 19.7927 8.8498 4.31637 
53 1 19.792 8.85008 5.81552 
54 1 12.2211 1.27754 4.31579 
55 1 12.221 8.84891 4.31534 
56 1 19.7947 1.27564 5.82759 
81 1 17.9291 1.36834 1.37576 
82 1 14.0675 8.75253 8.7526 
83 1 14.0655 8.75201 1.37622 
84 1 17.9438 1.37486 8.75418 
85 1 14.0665 1.37513 8.75299 
86 1 17.9438 8.75396 1.37553 
87 1 17.9446 8.75257 8.75261 
88 1 14.0522 1.37582 1.3766 
89 1 19.6883 3.13264 1.38283 
90 1 12.3185 7.00312 8.75245 
91 1 19.6946 7.00367 8.75262 
92 1 12.317 3.1271 1.37576 
93 1 12.3178 7.00333 1.37499 
94 1 19.6948 3.127 8.75406 
95 1 12.318 3.12494 8.75267 
96 1 19.695 7.01566 1.37598 
97 1 19.6943 1.36929 3.1403 
98 1 12.3183 8.75222 7.00307 
99 1 12.3181 1.37637 7.00488 
100 1 19.6955 8.75433 3.12693 
101 1 19.6946 8.75269 7.00361 
102 1 12.3171 1.37473 3.12742 
103 1 12.3181 8.75207 3.12526 
104 1 19.6946 1.37575 7.01815 
129 1 20.4481 0.970105 0.646354 
130 1 11.66 9.41085 9.41104 
131 1 11.6593 9.41093 0.717776 
132 1 20.3531 0.717896 9.41333 
133 1 11.6595 0.716879 9.41105 
134 1 20.3532 9.41214 0.717727 
135 1 20.3527 9.41118 9.41124 
136 1 11.6582 0.716859 0.717143 
145 2 21.5768 1.19508 21.4958 
ITEM: TIMESTEP
40
ITEM: NUMBER OF ATOMS
145
ITEM: BOX BOUNDS pp pp pp
0.0000000000000000e+00 2.1884000000000000e+01
0.0000000000000000e+00 2.1885999999999999e+01
0.0000000000000000e+00 2.1885000000000002e+01
ITEM: ATOMS id type x y z 
9 1 8.50924 12.561 12.5617 
10 1 1.66528 19.4081 19.4057 
11 1 1.62028 19.4508 12.5523 
12 1 8.51028 12.5616 19.4518 
13 1 1.62085 12.553 19.4519 
14 1 8.51009 19.4523 12.5611 
15 1 8.51807 19.4508 19.4523 
16 1 1.61947 12.5611 12.5611 
25 1 10.1048 10.9658 10.9658 
26 1 0.0259935 20.888 21.0348 
27 1 0.0227302 21.0482 10.9646 
28 1 10.1056 10.9657 21.0473 
29 1 0.0225617 10.9654 21.0486 
30 1 10.1048 21.0481 10.9662 
31 1 10.1054 21.0484 21.0483 
32 1 0.0239124 10.9659 10.9655 
57 1 5.81534 12.2216 12.2216 
58 1 4.33854 19.8012 19.8005 
59 1 4.31648 19.7923 12.2212 
60 1 5.81694 12.2217 19.7916 
61 1 4.31562 12.2216 19.7921 
62 1 5.81696 19.7918 12.2214 
63 1 5.83084 19.7958 19.7949 
64 1 4.31389 12.2215 12.2216 
65 1 8.84949 15.2556 12.2215 
66 1 1.27066 16.7334 19.8003 
67 1 8.8495 16.7573 19.7922 
68 1 1.27932 15.2543 12.2213 
69 1 1.27867 16.7548 12.2212 
70 1 8.84974 15.2544 19.7921 
71 1 1.27617 15.2403 19.7948 
72 1 8.84958 16.7568 12.2214 
73 1 8.84937 12.2223 15.2558 
74 1 1.27045 19.8005 16.7324 
75 1 1.27858 12.2211 16.753 
76 1 8.84956 19.7929 15.2546 
77 1 8.85007 19.7936 16.751 
78 1 1.27933 12.2213 15.2549 
79 1 1.27599 19.7949 15.2403 
80 1 8.84949 12.2225 16.7571 
105 1 7.0045 12.3196 12.3198 
106 1 3.14944 19.6964 19.6955 
107 1 3.12687 19.6943 12.3177 
108 1 7.00631 12.3199 19.6934 
109 1 3.12758 12.318 19.6943 
110 1 7.00619 19.6939 12.3195 
111 1 7.02016 19.6945 19.6935 
112 1 3.12475 12.3195 12.3195 
113 1 8.75136 14.0661 12.3196 
114 1 1.37601 17.9216 19.6949 
115 1 8.75313 17.9427 19.6946 
116 1 1.37763 14.065 12.3196 
117 1 1.3766 17.9443 12.3177 
118 1 8.75148 14.0654 19.6938 
119 1 1.37758 14.0505 19.6936 
120 1 8.75185 17.9466 12.3192 
121 1 8.75128 12.3199 14.0666 
122 1 1.37541 19.6961 17.9213 
123 1 1.37665 12.3177 17.9455 
124 1 8.75149 19.6947 14.0647 
125 1 8.75317 19.6954 17.9463 
126 1 1.37765 12.3196 14.0647 
127 1 1.37735 19.6936 14.0497 
128 1 8.75161 12.3203 17.9465 
137 1 9.41128 11.6595 11.6596 
138 1 0.766401 20.2828 20.3038 
139 1 0.71757 20.3532 11.658 
140 1 9.41161 11.6598 20.3531 
141 1 0.717258 11.6585 20.3538 
142 1 9.41161 20.3545 11.6596 
143 1 9.41262 20.3542 20.3539 
144 1 0.71793 11.6595 11.6593 
1 1 19.4365 1.63988 1.63374 
2 1 12.5615 8.50933 8.50971 
3 1 12.5601 8.5097 1.61823 
4 1 19.4507 1.61987 8.51732 
5 1 12.5609 1.61908 8.5114 
6 1 19.4504 8.51667 1.62053 
7 1 19.4512 8.51058 8.51026 
8 1 12.5535 1.61957 1.61983 
17 1 21.0283 -0.151254 0.0287675 
18 1 10.9658 10.105 10.1051 
19 1 10.9651 10.1057 0.0232458 
20 1 21.0483 0.022846 10.1059 
21 1 10.9653 0.0221832 10.105 
22 1 21.048 10.1048 0.0227258 
23 1 21.0472 10.1053 10.1054 
24 1 10.9656 0.0221825 0.0222557 
33 1 16.7456 1.27166 1.27523 
34 1 15.2554 8.84946 8.84946 
35 1 15.2552 8.84877 1.27919 
36 1 16.7553 1.27754 8.84965 
37 1 15.2516 1.27831 8.84952 
38 1 16.756 8.84861 1.27865 
39 1 16.7571 8.84945 8.84946 
40 1 15.2436 1.27548 1.27638 
41 1 19.7945 4.31916 1.27705 
42 1 12.2216 5.81506 8.84936 
43 1 19.7919 5.81439 8.84986 
44 1 12.2215 4.31458 1.27838 
45 1 12.2213 5.81758 1.27846 
46 1 19.7922 4.31618 8.84969 
47 1 12.2215 4.31406 8.8494 
48 1 19.794 5.82233 1.27701 
49 1 19.7957 1.27215 4.32432 
50 1 12.2216 8.84869 5.815 
51 1 12.221 1.27887 5.81406 
52 1 19.7924 8.8494 4.31497 
53 1 19.7917 8.84958 5.81681 
54 1 12.2213 1.27761 4.31708 
55 1 12.2214 8.84863 4.31613 
56 1 19.7945 1.2757 5.82715 
81 1 17.9346 1.37159 1.37584 
82 1 14.066 8.75127 8.75139 
83 1 14.0642 8.75111 1.37718 
84 1 17.9445 1.37589 8.75367 
85 1 14.067 1.37635 8.752 
86 1 17.9447 8.75324 1.37684 
87 1 17.9455 8.75174 8.75166 
88 1 14.0538 1.37641 1.37687 
89 1 19.6805 3.13148 1.39063 
90 1 12.3197 7.00445 8.75128 
91 1 19.6935 7.00741 8.75167 
92 1 12.3175 3.12657 1.37665 
93 1 12.3188 7.00398 1.37615 
94 1 19.6937 3.12549 8.75347 
95 1 12.319 3.12411 8.75173 
96 1 19.6944 7.01259 1.37656 
97 1 19.6939 1.37284 3.13475 
98 1 12.3195 8.75098 7.00484 
99 1 12.319 1.37746 7.00767 
100 1 19.6942 8.75362 3.12573 
101 1 19.6935 8.75182 7.00489 
102 1 12.3174 1.37552 3.12598 
103 1 12.3189 8.75121 3.12375 
104 1 19.6942 1.37635 7.01615 
129 1 20.4787 0.987519 0.619285 
130 1 11.6594 9.41134 9.41126 
131 1 11.6593 9.41154 0.717764 
132 1 20.353 0.718148 9.41398 
133 1 11.6587 0.716765 9.41144 
134 1 20.3529 9.41263 0.718117 
135 1 20.3532 9.41153 9.41139 
136 1 11.6574 0.716886 0.717237 
145 2 21.5245 1.26387 21.5492 
ITEM: TIMESTEP
50
ITEM: NUMBER OF ATOMS
145
ITEM: BOX BOUNDS pp pp pp
0.0000000000000000e+00 2.1884000000000000e+01
0.0000000000000000e+00 2.1885999999999999e+01
0.0000000000000000e+00 2.1885000000000002e+01
ITEM: ATOMS id type x y z 
9 1 8.50891 12.562 12.5622 
10 1 1.66193 19.4112 19.4092 
11 1 1.62145 19.4497 12.5519 
12 1 8.50991 12.5614 19.4509 
13 1 1.62086 12.5518 19.4493 
14 1 8.5103 19.451 12.5614 
15 1 8.51871 19.4504 19.4494 
16 1 1.62037 12.5613 12.5612 
25 1 10.1056 10.9653 10.9652 
26 1 0.0102382 20.8649 21.0479 
27 1 0.0220372 21.0492 10.9642 
28 1 10.1061 10.9651 21.0478 
29 1 0.0216884 10.9647 21.0494 
30 1 10.1056 21.0491 10.9653 
31 1 10.1063 21.0496 21.0493 
32 1 0.0234224 10.9652 10.9648 
57 1 5.81601 12.2221 12.2221 
58 1 4.33723 19.8025 19.8019 
59 1 4.31659 19.7923 12.2216 
60 1 5.81776 12.2221 19.7913 
61 1 4.31709 12.2219 19.7922 
62 1 5.81766 19.7916 12.2217 
63 1 5.83578 19.7967 19.7957 
64 1 4.31371 12.222 12.2219 
65 1 8.849 15.2547 12.222 
66 1 1.26949 16.7357 19.8014 
67 1 8.84922 16.755 19.7924 
68 1 1.27959 15.2533 12.2217 
69 1 1.27866 16.7547 12.2217 
70 1 8.8494 15.2538 19.7918 
71 1 1.27527 15.2351 19.7957 
72 1 8.84913 16.7575 12.2219 
73 1 8.84891 12.2228 15.2551 
74 1 1.26911 19.8018 16.7336 
75 1 1.27868 12.2216 16.7549 
76 1 8.84934 19.7927 15.2527 
77 1 8.84941 19.7934 16.7547 
78 1 1.27959 12.2217 15.2531 
79 1 1.27513 19.7958 15.2349 
80 1 8.84908 12.2229 16.7574 
105 1 7.00548 12.3206 12.3208 
106 1 3.14937 19.6936 19.6926 
107 1 3.12668 19.6934 12.3177 
108 1 7.00744 12.3208 19.6924 
109 1 3.12715 12.3178 19.6937 
110 1 7.00723 19.6931 12.3202 
111 1 7.02639 19.6934 19.6927 
112 1 3.12416 12.3204 12.3204 
113 1 8.75031 14.0653 12.3206 
114 1 1.37966 17.9228 19.6912 
115 1 8.7531 17.9446 19.6938 
116 1 1.37863 14.0636 12.3205 
117 1 1.37757 17.9446 12.3178 
118 1 8.7507 14.0643 19.6929 
119 1 1.37846 14.0451 19.6927 
120 1 8.75099 17.9471 12.3202 
121 1 8.75025 12.3209 14.0655 
122 1 1.37829 19.6932 17.9214 
123 1 1.37757 12.3179 17.9455 
124 1 8.75067 19.6936 14.0625 
125 1 8.75313 19.6944 17.9455 
126 1 1.37865 12.3205 14.0633 
127 1 1.37845 19.6925 14.044 
128 1 8.75074 12.3212 17.947 
137 1 9.40998 11.6602 11.6605 
138 1 0.757831 20.2808 20.3115 
139 1 0.718085 20.3526 11.6574 
140 1 9.41111 11.6605 20.3528 
141 1 0.718146 11.6581 20.3534 
142 1 9.41057 20.353 11.6607 
143 1 9.41258 20.3528 20.3533 
144 1 0.718438 11.6603 11.6604 
1 1 19.4412 1.63897 1.62949 
2 1 12.5619 8.50872 8.50894 
3 1 12.5604 8.50931 1.62063 
4 1 19.4495 1.6213 8.51723 
5 1 12.5609 1.61947 8.50938 
6 1 19.4497 8.51365 1.62112 
7 1 19.4504 8.50944 8.50932 
8 1 12.5533 1.62095 1.62167 
17 1 21.0372 -0.15414 0.0203845 
18 1 10.965 10.1058 10.1055 
19 1 10.965 10.1061 0.0230531 
20 1 21.0483 0.0226682 10.1059 
21 1 10.9646 0.021864 10.1055 
22 1 21.048 10.1048 0.0228228 
23 1 21.0478 10.1059 10.1057 
24 1 10.9653 0.0217786 0.0219609 
33 1 16.7494 1.27258 1.27654 
34 1 15.2546 8.84898 8.84901 
35 1 15.2542 8.84819 1.27958 
36 1 16.7557 1.27786 8.84927 
37 1 15.2533 1.27845 8.84925 
38 1 16.7561 8.84837 1.27913 
39 1 16.7574 8.84907 8.84901 
40 1 15.247 1.27584 1.27696 
41 1 19.792 4.32013 1.27953 
42 1 12.2221 5.81566 8.84887 
43 1 19.7914 5.81747 8.84924 
44 1 12.2218 4.31445 1.27859 
45 1 12.2217 5.81721 1.27866 
46 1 19.7918 4.31501 8.8493 
47 1 12.222 4.31349 8.84893 
48 1 19.7935 5.81972 1.2776 
49 1 19.7941 1.27326 4.31983 
50 1 12.222 8.84829 5.81629 
51 1 12.2216 1.2793 5.81809 
52 1 19.792 8.84912 4.31436 
53 1 19.7914 8.84913 5.81697 
54 1 12.2217 1.27792 4.31478 
55 1 12.2219 8.84811 4.31303 
56 1 19.7939 1.27606 5.8234 
81 1 17.9406 1.37411 1.37604 
82 1 14.0653 8.75028 8.75039 
83 1 14.0645 8.75038 1.37788 
84 1 17.9452 1.37696 8.75315 
85 1 14.0639 1.37749 8.75096 
86 1 17.9457 8.75234 1.37791 
87 1 17.9469 8.75068 8.75064 
88 1 14.0581 1.37667 1.37698 
89 1 19.6746 3.13163 1.39661 
90 1 12.3207 7.00518 8.75031 
91 1 19.6925 7.00717 8.75075 
92 1 12.3181 3.12491 1.37778 
93 1 12.3198 7.00683 1.37733 
94 1 19.6927 3.12504 8.75295 
95 1 12.3198 3.12412 8.75116 
96 1 19.6936 7.00877 1.37733 
97 1 19.6936 1.37546 3.13071 
98 1 12.3206 8.74992 7.00628 
99 1 12.32 1.37835 7.00815 
100 1 19.6931 8.75273 3.12495 
101 1 19.6924 8.75077 7.00655 
102 1 12.3179 1.37668 3.1249 
103 1 12.3198 8.75012 3.12325 
104 1 19.6941 1.37664 7.01158 
129 1 20.5006 0.979316 0.598488 
130 1 11.6605 9.41022 9.41056 
131 1 11.6597 9.41061 0.718085 
132 1 20.3517 0.719349 9.41329 
133 1 11.6602 0.717743 9.4107 
134 1 20.3514 9.41205 0.719365 
135 1 20.3521 9.41071 9.41087 
136 1 11.6584 0.718514 0.718822 
145 2 21.4928 1.31332 21.582 
ITEM: TIMESTEP
60
ITEM: NUMBER OF ATOMS
145
ITEM: BOX BOUNDS pp pp pp
0.0000000000000000e+00 2.1884000000000000e+01
0.0000000000000000e+00 2.1885999999999999e+01
0.0000000000000000e+00 2.1885000000000002e+01
ITEM: ATOMS id type x y z 
9 1 8.50935 12.5609 12.5611 
10 1 1.64866 19.4268 19.4222 
11 1 1.62367 19.447 12.5386 
12 1 8.51204 12.5605 19.4512 
13 1 1.62542 12.5392 19.4485 
14 1 8.51088 19.4507 12.5593 
15 1 8.53187 19.4466 19.4479 
16 1 1.6201 12.5597 12.5601 
25 1 10.1045 10.9652 10.9657 
26 1 -0.0223931 20.8347 21.0761 
27 1 0.0209965 21.0504 10.9636 
28 1 10.1057 10.9658 21.0485 
29 1 0.0211802 10.964 21.0507 
30 1 10.1058 21.0489 10.9658 
31 1 10.1067 21.05 21.0503 
32 1 0.0228238 10.9654 10.9654 
57 1 5.81448 12.2235 12.2236 
58 1 4.33783 19.8027 19.8021 
59 1 4.3197 19.7919 12.2227 
60 1 5.81823 12.2233 19.7905 
61 1 4.3195 12.2231 19.792 
62 1 5.81814 19.791 12.223 
63 1 5.83508 19.7987 19.798 
64 1 4.31648 12.2234 12.2234 
65 1 8.84736 15.2565 12.2235 
66 1 1.27018 16.7365 19.8007 
67 1 8.84809 16.752 19.7923 
68 1 1.28035 15.2541 12.223 
69 1 1.27907 16.7511 12.2227 
70 1 8.84808 15.2538 19.791 
71 1 1.27349 15.2374 19.7977 
72 1 8.84776 16.7548 12.2234 
73 1 8.84735 12.2242 15.2568 
74 1 1.26882 19.8019 16.7333 
75 1 1.27907 12.2229 16.7502 
76 1 8.84794 19.7918 15.2547 
77 1 8.84816 19.7931 16.7496 
78 1 1.28054 12.2231 15.2544 
79 1 1.27304 19.7979 15.2355 
80 1 8.84768 12.2243 16.7545 
105 1 7.0043 12.3228 12.3229 
106 1 3.15354 19.6845 19.6833 
107 1 3.13078 19.6915 12.3163 
108 1 7.00701 12.3221 19.6906 
109 1 3.12874 12.3168 19.6913 
110 1 7.0081 19.6906 12.322 
111 1 7.02178 19.6943 19.6936 
112 1 3.12692 12.322 12.3219 
113 1 8.74827 14.067 12.3227 
114 1 1.39106 17.9181 19.6799 
115 1 8.75427 17.9418 19.6915 
116 1 1.38064 14.0638 12.3218 
117 1 1.37945 17.9402 12.3163 
118 1 8.74924 14.0638 19.6908 
119 1 1.37731 14.0509 19.6937 
120 1 8.74924 17.9439 12.3219 
121 1 8.74828 12.323 14.0668 
122 1 1.38794 19.6838 17.9178 
123 1 1.37921 12.3162 17.94 
124 1 8.74927 19.6915 14.0648 
125 1 8.75484 19.6926 17.9394 
126 1 1.38047 12.3218 14.0651 
127 1 1.37739 19.6936 14.049 
128 1 8.74927 12.3227 17.9442 
137 1 9.41154 11.6605 11.6599 
138 1 0.738546 20.2558 20.3276 
139 1 0.717558 20.3536 11.6538 
140 1 9.41194 11.6591 20.3521 
141 1 0.716848 11.6543 20.3536 
142 1 9.41112 20.3538 11.6587 
143 1 9.41639 20.3544 20.3535 
144 1 0.718923 11.6592 11.6587 
1 1 19.4483 1.63404 1.62341 
2 1 12.5615 8.50892 8.51004 
3 1 12.5615 8.50997 1.61849 
4 1 19.4483 1.6221 8.50793 
5 1 12.5605 1.62041 8.5123 
6 1 19.4496 8.50471 1.62151 
7 1 19.4505 8.51087 8.51097 
8 1 12.5632 1.62117 1.62145 
17 1 21.0572 -0.163101 0.00158519 
18 1 10.9657 10.1049 10.1057 
19 1 10.9658 10.1047 0.0231236 
20 1 21.0453 0.0257725 10.1049 
21 1 10.966 0.0226131 10.105 
22 1 21.0447 10.1043 0.0259152 
23 1 21.0466 10.1048 10.1054 
24 1 10.9675 0.0244881 0.0248486 
33 1 16.7589 1.27707 1.28047 
34 1 15.2565 8.84736 8.84733 