
     Program PWSCF v.7.1 starts on 24May2025 at 12:52:57 

     This program is part of the open-source Quantum ESPRESSO suite
     for quantum simulation of materials; please cite
         "P. Giannozzi et al., J. Phys.:Condens. Matter 21 395502 (2009);
         "P. Giannozzi et al., J. Phys.:Condens. Matter 29 465901 (2017);
         "P. Giannozzi et al., J. Chem. Phys. 152 154105 (2020);
          URL http://www.quantum-espresso.org", 
     in publications or presentations arising from this work. More details at
     http://www.quantum-espresso.org/quote

     Parallel version (MPI), running on    16 processors

     MPI processes distributed on     1 nodes
     235940 MiB available memory on the printing compute node when the environment starts

     Reading input from input.pwi
Warning: card &CELL ignored
Warning: card / ignored
Warning: card &FCP ignored
Warning: card / ignored
Warning: card &RISM ignored
Warning: card / ignored

     Current dimensions of program PWSCF are:
     Max number of different atomic species (ntypx) = 10
     Max number of k-points (npk) =  40000
     Max angular momentum in pseudopotentials (lmaxx) =  4

     File ./pwscf.update deleted, as requested

     File ./pwscf.bfgs deleted, as requested
     file C.pbe-n-kjpaw_psl.1.0.0.UPF: wavefunction(s)  2S 2P renormalized
     file O.pbe-n-kjpaw_psl.0.1.UPF: wavefunction(s)  2P renormalized

     IMPORTANT: XC functional enforced from input :
     Exchange-correlation= PBE
                           (   1   4   3   4   0   0   0)
     Any further DFT definition will be discarded
     Please, verify this is what you really want


     gamma-point specific algorithms are used
     Message from routine  set_nelup_neldw :
     BEWARE: non-integer number of up and down electrons!

     R & G space division:  proc/nbgrp/npool/nimage =      16
     Subspace diagonalization in iterative solution of the eigenvalue problem:
     one sub-group per band group will be used
     custom distributed-memory algorithm (size of sub-group:  2*  2 procs)


     Parallelization info
     --------------------
     sticks:   dense  smooth     PW     G-vecs:    dense   smooth      PW
     Min        1939     970    242               257184    90894   11370
     Max        1942     972    244               257194    90900   11376
     Sum       31061   15541   3885              4115019  1454361  181955

     Using Slab Decomposition



     bravais-lattice index     =            0
     lattice parameter (alat)  =      31.2277  a.u.
     unit-cell volume          =   30456.0493 (a.u.)^3
     number of atoms/cell      =           98
     number of atomic types    =            3
     number of electrons       =       391.00 (up: 195.50, down: 195.50)
     number of Kohn-Sham states=          235
     kinetic-energy cutoff     =      50.0000  Ry
     charge density cutoff     =     400.0000  Ry
     scf convergence threshold =      1.0E-06
     mixing beta               =       0.3000
     number of iterations used =            8  plain     mixing
     energy convergence thresh.=      1.0E-04
     force convergence thresh. =      1.0E-03
     Exchange-correlation= PBE
                           (   1   4   3   4   0   0   0)
     nstep                     =         1000


     celldm(1)=  31.227724  celldm(2)=   0.000000  celldm(3)=   0.000000
     celldm(4)=   0.000000  celldm(5)=   0.000000  celldm(6)=   0.000000

     crystal axes: (cart. coord. in units of alat)
               a(1) = (   1.000000   0.000000   0.000000 )  
               a(2) = (   0.000000   1.000061   0.000000 )  
               a(3) = (   0.000000   0.000000   1.000061 )  

     reciprocal axes: (cart. coord. in units 2 pi/alat)
               b(1) = (  1.000000  0.000000  0.000000 )  
               b(2) = (  0.000000  0.999939  0.000000 )  
               b(3) = (  0.000000  0.000000  0.999939 )  


     PseudoPot. # 1 for C  read from file:
     /home/ana.bisette/espresso/pseudo/C.pbe-n-kjpaw_psl.1.0.0.UPF
     MD5 check sum: 5d2aebdfa2cae82b50a7e79e9516da0f
     Pseudo is Projector augmented-wave + core cor, Zval =  4.0
     Generated using "atomic" code by A. Dal Corso  v.5.1
     Shape of augmentation charge: PSQ
     Using radial grid of 1073 points,  4 beta functions with: 
                l(1) =   0
                l(2) =   0
                l(3) =   1
                l(4) =   1
     Q(r) pseudized with 0 coefficients 


     PseudoPot. # 2 for O  read from file:
     /home/ana.bisette/espresso/pseudo/O.pbe-n-kjpaw_psl.0.1.UPF
     MD5 check sum: 0234752ac141de4415c5fc33072bef88
     Pseudo is Projector augmented-wave + core cor, Zval =  6.0
     Generated using "atomic" code by A. Dal Corso  v.5.0.99 svn rev. 10869
     Shape of augmentation charge: BESSEL
     Using radial grid of 1095 points,  4 beta functions with: 
                l(1) =   0
                l(2) =   0
                l(3) =   1
                l(4) =   1
     Q(r) pseudized with 0 coefficients 


     PseudoPot. # 3 for H  read from file:
     /home/ana.bisette/espresso/pseudo/H.pbe-rrkjus_psl.1.0.0.UPF
     MD5 check sum: f52b6d4d1c606e5624b1dc7b2218f220
     Pseudo is Ultrasoft, Zval =  1.0
     Generated using "atomic" code by A. Dal Corso  v.5.1
     Using radial grid of  929 points,  2 beta functions with: 
                l(1) =   0
                l(2) =   0
     Q(r) pseudized with 0 coefficients 


     atomic species   valence    mass     pseudopotential
        C              4.00    12.01100     C ( 1.00)
        O              6.00    15.99900     O ( 1.00)
        H              1.00     1.00800     H ( 1.00)

     Starting magnetic structure 
     atomic species   magnetization
        C            0.000
        O            0.000
        H            0.000

     No symmetry found



   Cartesian axes

     site n.     atom                  positions (alat units)
         1           C   tau(   1) = (   0.1097126   0.1097126   0.1097126  )
         2           C   tau(   2) = (   0.8522844   0.8522844   0.8522844  )
         3           C   tau(   3) = (   0.8522844   0.8522844   0.1097126  )
         4           C   tau(   4) = (   0.1097126   0.1097126   0.8522844  )
         5           C   tau(   5) = (   0.8522844   0.1097126   0.8522844  )
         6           C   tau(   6) = (   0.1097126   0.8522844   0.1097126  )
         7           C   tau(   7) = (   0.1097126   0.8522844   0.8522844  )
         8           C   tau(   8) = (   0.8522844   0.1097126   0.1097126  )
         9           C   tau(   9) = (   0.6097428   0.6097428   0.6097428  )
        10           C   tau(  10) = (   0.3522542   0.3522542   0.3522542  )
        11           C   tau(  11) = (   0.3522542   0.3522542   0.6097428  )
        12           C   tau(  12) = (   0.6097428   0.6097428   0.3522542  )
        13           C   tau(  13) = (   0.3522542   0.6097428   0.3522542  )
        14           C   tau(  14) = (   0.6097428   0.3522542   0.6097428  )
        15           C   tau(  15) = (   0.6097428   0.3522542   0.3522542  )
        16           C   tau(  16) = (   0.3522542   0.6097428   0.6097428  )
        17           C   tau(  17) = (   0.2050227   0.2050227   0.2050227  )
        18           C   tau(  18) = (   0.7569743   0.7569743   0.7569743  )
        19           C   tau(  19) = (   0.7569743   0.7569743   0.2050227  )
        20           C   tau(  20) = (   0.2050227   0.2050227   0.7569743  )
        21           C   tau(  21) = (   0.7569743   0.2050227   0.7569743  )
        22           C   tau(  22) = (   0.2050227   0.7569743   0.2050227  )
        23           C   tau(  23) = (   0.2050227   0.7569743   0.7569743  )
        24           C   tau(  24) = (   0.7569743   0.2050227   0.2050227  )
        25           C   tau(  25) = (   0.7050530   0.7050530   0.7050530  )
        26           C   tau(  26) = (   0.2569440   0.2569440   0.2569440  )
        27           C   tau(  27) = (   0.2569440   0.2569440   0.7050530  )
        28           C   tau(  28) = (   0.7050530   0.7050530   0.2569440  )
        29           C   tau(  29) = (   0.2569440   0.7050530   0.2569440  )
        30           C   tau(  30) = (   0.7050530   0.2569440   0.7050530  )
        31           C   tau(  31) = (   0.7050530   0.2569440   0.2569440  )
        32           C   tau(  32) = (   0.2569440   0.7050530   0.7050530  )
        33           C   tau(  33) = (   0.0171861   0.1210287   0.1210287  )
        34           C   tau(  34) = (   0.9448109   0.8409682   0.8409682  )
        35           C   tau(  35) = (   0.9448109   0.8409682   0.1210287  )
        36           C   tau(  36) = (   0.0171861   0.1210287   0.8409682  )
        37           C   tau(  37) = (   0.9448109   0.1210287   0.8409682  )
        38           C   tau(  38) = (   0.0171861   0.8409682   0.1210287  )
        39           C   tau(  39) = (   0.0171861   0.8409682   0.8409682  )
        40           C   tau(  40) = (   0.9448109   0.1210287   0.1210287  )
        41           C   tau(  41) = (   0.1210287   0.0171861   0.1210287  )
        42           C   tau(  42) = (   0.8409682   0.9448714   0.8409682  )
        43           C   tau(  43) = (   0.1210287   0.9448714   0.8409682  )
        44           C   tau(  44) = (   0.8409682   0.0171861   0.1210287  )
        45           C   tau(  45) = (   0.8409682   0.9448714   0.1210287  )
        46           C   tau(  46) = (   0.1210287   0.0171861   0.8409682  )
        47           C   tau(  47) = (   0.8409682   0.0171861   0.8409682  )
        48           C   tau(  48) = (   0.1210287   0.9448714   0.1210287  )
        49           C   tau(  49) = (   0.1210287   0.1210287   0.0171256  )
        50           C   tau(  50) = (   0.8409682   0.8409682   0.9448714  )
        51           C   tau(  51) = (   0.8409682   0.1210287   0.9448714  )
        52           C   tau(  52) = (   0.1210287   0.8409682   0.0171256  )
        53           C   tau(  53) = (   0.1210287   0.8409682   0.9448714  )
        54           C   tau(  54) = (   0.8409682   0.1210287   0.0171256  )
        55           C   tau(  55) = (   0.8409682   0.8409682   0.0171256  )
        56           C   tau(  56) = (   0.1210287   0.1210287   0.9448714  )
        57           C   tau(  57) = (   0.5171558   0.6210590   0.6210590  )
        58           C   tau(  58) = (   0.4448411   0.3409380   0.3409380  )
        59           C   tau(  59) = (   0.4448411   0.3409380   0.6210590  )
        60           C   tau(  60) = (   0.5172163   0.6210590   0.3409380  )
        61           C   tau(  61) = (   0.4448411   0.6210590   0.3409380  )
        62           C   tau(  62) = (   0.5171558   0.3409380   0.6210590  )
        63           C   tau(  63) = (   0.5172163   0.3409380   0.3409380  )
        64           C   tau(  64) = (   0.4448411   0.6210590   0.6210590  )
        65           C   tau(  65) = (   0.6210590   0.5171558   0.6210590  )
        66           C   tau(  66) = (   0.3409380   0.4448411   0.3409380  )
        67           C   tau(  67) = (   0.6210590   0.4448411   0.3409380  )
        68           C   tau(  68) = (   0.3409380   0.5172163   0.6210590  )
        69           C   tau(  69) = (   0.3409380   0.4448411   0.6210590  )
        70           C   tau(  70) = (   0.6210590   0.5172163   0.3409380  )
        71           C   tau(  71) = (   0.3409380   0.5171558   0.3409380  )
        72           C   tau(  72) = (   0.6210590   0.4448411   0.6210590  )
        73           C   tau(  73) = (   0.6210590   0.6210590   0.5172163  )
        74           C   tau(  74) = (   0.3409380   0.3409380   0.4448411  )
        75           C   tau(  75) = (   0.3409380   0.6210590   0.4448411  )
        76           C   tau(  76) = (   0.6210590   0.3409380   0.5171558  )
        77           C   tau(  77) = (   0.6210590   0.3409380   0.4448411  )
        78           C   tau(  78) = (   0.3409380   0.6210590   0.5171558  )
        79           C   tau(  79) = (   0.3409380   0.3409380   0.5171558  )
        80           C   tau(  80) = (   0.6210590   0.6210590   0.4448411  )
        81           C   tau(  81) = (   0.1627231   0.1627231   0.1627231  )
        82           C   tau(  82) = (   0.7992738   0.7992738   0.7992738  )
        83           C   tau(  83) = (   0.7992738   0.7992738   0.1627231  )
        84           C   tau(  84) = (   0.1627231   0.1627231   0.7992738  )
        85           C   tau(  85) = (   0.7992738   0.1627231   0.7992738  )
        86           C   tau(  86) = (   0.1627231   0.7992738   0.1627231  )
        87           C   tau(  87) = (   0.1627231   0.7992738   0.7992738  )
        88           C   tau(  88) = (   0.7992738   0.1627231   0.1627231  )
        89           C   tau(  89) = (   0.6627534   0.6627534   0.6627534  )
        90           C   tau(  90) = (   0.2992436   0.2992436   0.2992436  )
        91           C   tau(  91) = (   0.2992436   0.2992436   0.6627534  )
        92           C   tau(  92) = (   0.6627534   0.6627534   0.2992436  )
        93           C   tau(  93) = (   0.2992436   0.6627534   0.2992436  )
        94           C   tau(  94) = (   0.6627534   0.2992436   0.6627534  )
        95           C   tau(  95) = (   0.6627534   0.2992436   0.2992436  )
        96           C   tau(  96) = (   0.2992436   0.6627534   0.6627534  )
        97           O   tau(  97) = (   0.8228744   0.1390015   0.2370953  )
        98           H   tau(  98) = (   0.8228744   0.1390015   0.2961573  )

     number of k points=     1  Gaussian smearing, width (Ry)=  0.0001
                       cart. coord. in units 2pi/alat
        k(    1) = (   0.0000000   0.0000000   0.0000000), wk =   1.0000000

     Dense  grid:  2057510 G-vectors     FFT dimensions: ( 200, 200, 200)

     Smooth grid:   727181 G-vectors     FFT dimensions: ( 144, 144, 144)

     Estimated max dynamical RAM per process >     933.10 MB

     Estimated total dynamical RAM >      14.58 GB

     Check: negative core charge=   -0.000003
     Generating pointlists ...
     new r_m :   0.0298 (alat units)  0.9315 (a.u.) for type    1
     new r_m :   0.0244 (alat units)  0.7608 (a.u.) for type    2
     new r_m :   0.0244 (alat units)  0.7608 (a.u.) for type    3

     Initial potential from superposition of free atoms

     starting charge     390.9960, renormalised to     391.0000

     negative rho (up, down):  6.070E-04 6.070E-04
     Starting wfcs are  389 randomized atomic wfcs
     Checking if some PAW data can be deallocated... 

     total cpu time spent up to now is       14.8 secs

     Self-consistent Calculation

     iteration #  1     ecut=    50.00 Ry     beta= 0.30
     Davidson diagonalization with overlap
     ethr =  1.00E-02,  avg # of iterations =  2.0

     negative rho (up, down):  6.680E-04 6.687E-04

     total cpu time spent up to now is       35.7 secs

     total energy              =   -1805.24935057 Ry
     estimated scf accuracy    <      13.61461703 Ry

     total magnetization       =     0.00 Bohr mag/cell
     absolute magnetization    =     0.10 Bohr mag/cell

     iteration #  2     ecut=    50.00 Ry     beta= 0.30
     Davidson diagonalization with overlap
     ethr =  3.48E-03,  avg # of iterations =  2.0

     negative rho (up, down):  1.192E-03 1.192E-03

     total cpu time spent up to now is       51.7 secs

     total energy              =   -1803.21445159 Ry
     estimated scf accuracy    <       4.16178923 Ry

     total magnetization       =     0.00 Bohr mag/cell
     absolute magnetization    =     0.08 Bohr mag/cell

     iteration #  3     ecut=    50.00 Ry     beta= 0.30
     Davidson diagonalization with overlap
     ethr =  1.06E-03,  avg # of iterations =  2.0

     negative rho (up, down):  1.038E-03 1.038E-03

     total cpu time spent up to now is       71.2 secs

     total energy              =   -1804.17668414 Ry
     estimated scf accuracy    <       0.33527690 Ry

     total magnetization       =     0.00 Bohr mag/cell
     absolute magnetization    =     0.05 Bohr mag/cell

     iteration #  4     ecut=    50.00 Ry     beta= 0.30
     Davidson diagonalization with overlap
     c_bands:  1 eigenvalues not converged
     ethr =  8.57E-05,  avg # of iterations = 18.5

     negative rho (up, down):  1.067E-03 1.067E-03

     total cpu time spent up to now is       92.8 secs

     total energy              =   -1804.14798227 Ry
     estimated scf accuracy    <       0.12530446 Ry

     total magnetization       =    -0.00 Bohr mag/cell
     absolute magnetization    =     0.05 Bohr mag/cell

     iteration #  5     ecut=    50.00 Ry     beta= 0.30
     Davidson diagonalization with overlap
     ethr =  3.20E-05,  avg # of iterations = 13.5

     negative rho (up, down):  1.060E-03 1.059E-03

     total cpu time spent up to now is      117.0 secs

     total energy              =   -1804.17232951 Ry
     estimated scf accuracy    <       0.09821141 Ry

     total magnetization       =    -0.00 Bohr mag/cell
     absolute magnetization    =     0.04 Bohr mag/cell

     iteration #  6     ecut=    50.00 Ry     beta= 0.30
     Davidson diagonalization with overlap
     ethr =  2.51E-05,  avg # of iterations =  5.0

     negative rho (up, down):  1.063E-03 1.062E-03

     total cpu time spent up to now is      133.6 secs

     total energy              =   -1804.17623358 Ry
     estimated scf accuracy    <       0.01670864 Ry

     total magnetization       =     0.00 Bohr mag/cell
     absolute magnetization    =     0.03 Bohr mag/cell

     iteration #  7     ecut=    50.00 Ry     beta= 0.30
     Davidson diagonalization with overlap
     ethr =  4.27E-06,  avg # of iterations = 11.0

     negative rho (up, down):  1.074E-03 1.074E-03

     total cpu time spent up to now is      157.6 secs

     total energy              =   -1804.18055855 Ry
     estimated scf accuracy    <       0.00517995 Ry

     total magnetization       =     0.00 Bohr mag/cell
     absolute magnetization    =     0.03 Bohr mag/cell

     iteration #  8     ecut=    50.00 Ry     beta= 0.30
     Davidson diagonalization with overlap
     ethr =  1.32E-06,  avg # of iterations =  2.0

     negative rho (up, down):  1.067E-03 1.067E-03

     total cpu time spent up to now is      173.1 secs

     total energy              =   -1804.18057080 Ry
     estimated scf accuracy    <       0.00088186 Ry

     total magnetization       =     0.00 Bohr mag/cell
     absolute magnetization    =     0.02 Bohr mag/cell

     iteration #  9     ecut=    50.00 Ry     beta= 0.30
     Davidson diagonalization with overlap
     ethr =  2.26E-07,  avg # of iterations =  3.0

     negative rho (up, down):  1.062E-03 1.062E-03

     total cpu time spent up to now is      192.5 secs

     total energy              =   -1804.18077670 Ry
     estimated scf accuracy    <       0.00008733 Ry

     total magnetization       =     0.00 Bohr mag/cell
     absolute magnetization    =     0.02 Bohr mag/cell

     iteration # 10     ecut=    50.00 Ry     beta= 0.30
     Davidson diagonalization with overlap
     ethr =  2.23E-08,  avg # of iterations =  4.0

     negative rho (up, down):  1.058E-03 1.058E-03

     total cpu time spent up to now is      212.2 secs

     total energy              =   -1804.18079263 Ry
     estimated scf accuracy    <       0.00001323 Ry

     total magnetization       =    -0.00 Bohr mag/cell
     absolute magnetization    =     0.01 Bohr mag/cell

     iteration # 11     ecut=    50.00 Ry     beta= 0.30
     Davidson diagonalization with overlap
     ethr =  3.38E-09,  avg # of iterations =  4.0

     negative rho (up, down):  1.056E-03 1.056E-03

     total cpu time spent up to now is      230.1 secs

     total energy              =   -1804.18079365 Ry
     estimated scf accuracy    <       0.00000294 Ry

     total magnetization       =     0.00 Bohr mag/cell
     absolute magnetization    =     0.01 Bohr mag/cell

     iteration # 12     ecut=    50.00 Ry     beta= 0.30
     Davidson diagonalization with overlap
     ethr =  7.53E-10,  avg # of iterations =  4.0

     negative rho (up, down):  1.052E-03 1.052E-03

     Magnetic moment per site  (integrated on atomic sphere of radius R)
     atom   1 (R=0.030)  charge=  1.0012  magn= -0.0000
     atom   2 (R=0.030)  charge=  1.0030  magn=  0.0000
     atom   3 (R=0.030)  charge=  1.0027  magn= -0.0000
     atom   4 (R=0.030)  charge=  1.0022  magn=  0.0000
     atom   5 (R=0.030)  charge=  1.0031  magn=  0.0000
     atom   6 (R=0.030)  charge=  1.0020  magn=  0.0000
     atom   7 (R=0.030)  charge=  1.0029  magn= -0.0000
     atom   8 (R=0.030)  charge=  1.0100  magn= -0.0000
     atom   9 (R=0.030)  charge=  1.0012  magn=  0.0000
     atom  10 (R=0.030)  charge=  1.0029  magn= -0.0000
     atom  11 (R=0.030)  charge=  1.0028  magn=  0.0000
     atom  12 (R=0.030)  charge=  1.0022  magn=  0.0000
     atom  13 (R=0.030)  charge=  1.0028  magn=  0.0000
     atom  14 (R=0.030)  charge=  1.0019  magn= -0.0000
     atom  15 (R=0.030)  charge=  1.0012  magn=  0.0000
     atom  16 (R=0.030)  charge=  1.0021  magn=  0.0000
     atom  17 (R=0.030)  charge=  1.0861  magn=  0.0000
     atom  18 (R=0.030)  charge=  1.0884  magn=  0.0000
     atom  19 (R=0.030)  charge=  1.0879  magn= -0.0000
     atom  20 (R=0.030)  charge=  1.0869  magn=  0.0000
     atom  21 (R=0.030)  charge=  1.0879  magn= -0.0000
     atom  22 (R=0.030)  charge=  1.0869  magn=  0.0000
     atom  23 (R=0.030)  charge=  1.0879  magn= -0.0000
     atom  24 (R=0.030)  charge=  1.1057  magn=  0.0000
     atom  25 (R=0.030)  charge=  1.0862  magn=  0.0000
     atom  26 (R=0.030)  charge=  1.0886  magn= -0.0000
     atom  27 (R=0.030)  charge=  1.0880  magn= -0.0000
     atom  28 (R=0.030)  charge=  1.0871  magn=  0.0000
     atom  29 (R=0.030)  charge=  1.0880  magn=  0.0001
     atom  30 (R=0.030)  charge=  1.0872  magn=  0.0000
     atom  31 (R=0.030)  charge=  1.0888  magn= -0.0000
     atom  32 (R=0.030)  charge=  1.0869  magn=  0.0000
     atom  33 (R=0.030)  charge=  1.1052  magn= -0.0000
     atom  34 (R=0.030)  charge=  1.1035  magn= -0.0000
     atom  35 (R=0.030)  charge=  1.1036  magn= -0.0000
     atom  36 (R=0.030)  charge=  1.1054  magn= -0.0001
     atom  37 (R=0.030)  charge=  1.1037  magn=  0.0000
     atom  38 (R=0.030)  charge=  1.1054  magn=  0.0000
     atom  39 (R=0.030)  charge=  1.1054  magn=  0.0000
     atom  40 (R=0.030)  charge=  1.1032  magn=  0.0000
     atom  41 (R=0.030)  charge=  1.1054  magn=  0.0001
     atom  42 (R=0.030)  charge=  1.1034  magn=  0.0000
     atom  43 (R=0.030)  charge=  1.1035  magn=  0.0000
     atom  44 (R=0.030)  charge=  1.1049  magn=  0.0000
     atom  45 (R=0.030)  charge=  1.1033  magn= -0.0000
     atom  46 (R=0.030)  charge=  1.1053  magn= -0.0000
     atom  47 (R=0.030)  charge=  1.1055  magn= -0.0000
     atom  48 (R=0.030)  charge=  1.1035  magn= -0.0001
     atom  49 (R=0.030)  charge=  1.1059  magn=  0.0000
     atom  50 (R=0.030)  charge=  1.1042  magn= -0.0001
     atom  51 (R=0.030)  charge=  1.1041  magn= -0.0000
     atom  52 (R=0.030)  charge=  1.1058  magn= -0.0000
     atom  53 (R=0.030)  charge=  1.1041  magn=  0.0000
     atom  54 (R=0.030)  charge=  1.1076  magn=  0.0000
     atom  55 (R=0.030)  charge=  1.1059  magn=  0.0001
     atom  56 (R=0.030)  charge=  1.1043  magn= -0.0000
     atom  57 (R=0.030)  charge=  1.1058  magn=  0.0000
     atom  58 (R=0.030)  charge=  1.1041  magn= -0.0000
     atom  59 (R=0.030)  charge=  1.1043  magn= -0.0000
     atom  60 (R=0.030)  charge=  1.1053  magn=  0.0000
     atom  61 (R=0.030)  charge=  1.1035  magn= -0.0000
     atom  62 (R=0.030)  charge=  1.1057  magn=  0.0000
     atom  63 (R=0.030)  charge=  1.1048  magn=  0.0000
     atom  64 (R=0.030)  charge=  1.1042  magn= -0.0000
     atom  65 (R=0.030)  charge=  1.1060  magn=  0.0000
     atom  66 (R=0.030)  charge=  1.1040  magn=  0.0000
     atom  67 (R=0.030)  charge=  1.1029  magn= -0.0000
     atom  68 (R=0.030)  charge=  1.1054  magn= -0.0000
     atom  69 (R=0.030)  charge=  1.1034  magn=  0.0000
     atom  70 (R=0.030)  charge=  1.1062  magn= -0.0000
     atom  71 (R=0.030)  charge=  1.1059  magn= -0.0000
     atom  72 (R=0.030)  charge=  1.1040  magn= -0.0000
     atom  73 (R=0.030)  charge=  1.1055  magn= -0.0000
     atom  74 (R=0.030)  charge=  1.1040  magn= -0.0000
     atom  75 (R=0.030)  charge=  1.1041  magn= -0.0001
     atom  76 (R=0.030)  charge=  1.1071  magn=  0.0000
     atom  77 (R=0.030)  charge=  1.1047  magn= -0.0000
     atom  78 (R=0.030)  charge=  1.1059  magn=  0.0001
     atom  79 (R=0.030)  charge=  1.1059  magn=  0.0000
     atom  80 (R=0.030)  charge=  1.1034  magn=  0.0000
     atom  81 (R=0.030)  charge=  1.0992  magn= -0.0000
     atom  82 (R=0.030)  charge=  1.0979  magn= -0.0000
     atom  83 (R=0.030)  charge=  1.0989  magn=  0.0001
     atom  84 (R=0.030)  charge=  1.0995  magn= -0.0000
     atom  85 (R=0.030)  charge=  1.0989  magn=  0.0000
     atom  86 (R=0.030)  charge=  1.0995  magn= -0.0000
     atom  87 (R=0.030)  charge=  1.0988  magn=  0.0000
     atom  88 (R=0.030)  charge=  1.1247  magn= -0.0000
     atom  89 (R=0.030)  charge=  1.0990  magn= -0.0000
     atom  90 (R=0.030)  charge=  1.0977  magn=  0.0000
     atom  91 (R=0.030)  charge=  1.0987  magn=  0.0000
     atom  92 (R=0.030)  charge=  1.0993  magn= -0.0000
     atom  93 (R=0.030)  charge=  1.0987  magn= -0.0001
     atom  94 (R=0.030)  charge=  1.0993  magn=  0.0000
     atom  95 (R=0.030)  charge=  1.1023  magn=  0.0000
     atom  96 (R=0.030)  charge=  1.0994  magn= -0.0000
     atom  97 (R=0.024)  charge=  1.9742  magn=  0.0000
     atom  98 (R=0.024)  charge=  0.3589  magn=  0.0000

     total cpu time spent up to now is      248.7 secs

     End of self-consistent calculation

 ------ SPIN UP ------------


          k = 0.0000 0.0000 0.0000 ( 90978 PWs)   bands (ev):

   -27.4184 -20.2783 -20.2140 -20.0982 -20.0419 -20.0407 -20.0061 -20.0021
   -19.9640 -19.8441 -19.8004 -19.7988 -19.7545 -19.7494 -19.6913 -19.5289
   -19.4242 -18.8190 -18.1633 -18.1344 -18.1321 -18.0998 -18.0689 -18.0656
   -17.9158 -17.5105 -17.3021 -17.2921 -17.2896 -17.2783 -17.2744 -17.2676
   -17.2566 -17.2451 -17.2315 -17.2284 -17.2210 -17.2200 -17.2163 -17.1999
   -17.1537 -17.1451 -16.8907 -16.7002 -16.6113 -16.6087 -16.4026 -16.2978
   -16.2965 -16.2456 -16.1753 -16.1726 -15.9083 -15.8400 -15.8380 -15.8039
   -15.3932 -14.7712 -13.6011 -13.5614 -13.5590 -13.5113 -13.4686 -13.4645
   -13.2708 -12.9160 -12.6185 -12.2969 -12.2395 -12.2291 -12.2196 -12.1774
   -12.1767 -12.1360 -12.1325 -12.1090 -12.0927 -12.0893 -12.0846 -12.0627
   -11.9798 -11.9712 -11.9331 -11.8589 -11.8037 -11.7844 -11.7139 -11.5577
   -11.5392 -11.5046 -11.4290 -11.3468 -11.3423 -11.2963 -11.2593 -11.1252
   -11.1229 -11.0970 -10.9696 -10.8396 -10.7997 -10.7961 -10.7550 -10.7541
   -10.7530 -10.7251 -10.7245 -10.7111 -10.6710 -10.6212 -10.5918 -10.5506
   -10.5364 -10.5051  -9.6742  -8.5168  -7.0900  -7.0896  -7.0618  -7.0490
    -7.0457  -7.0147  -7.0092  -7.0068  -6.9974  -6.9944  -6.9883  -6.9882
    -6.9851  -6.9848  -6.5895  -6.5766  -6.4627  -6.4575  -6.4374  -6.3518
    -6.3420  -6.3154  -6.3146  -6.3115  -6.2909  -6.2182  -6.2024  -5.9638
    -5.9582  -5.9321  -5.9097  -5.8960  -5.8435  -5.8432  -5.7870  -5.7700
    -5.7662  -5.7594  -5.7550  -5.7534  -5.7513  -5.7489  -5.7477  -5.7344
    -5.7286  -5.7258  -5.7023  -5.6922  -5.6882  -5.6821  -5.6686  -5.5427
    -5.2319  -5.2302  -5.2080  -5.1784  -5.1747  -5.1451  -5.1425  -5.1323
    -5.0640  -5.0635  -5.0209  -5.0036  -5.0011  -4.9920  -4.9585  -4.9515
    -4.8493  -4.8422  -4.8363  -4.8044  -4.8000  -4.7720  -4.7679  -4.7601
    -4.6848  -4.6299  -4.3708  -1.0170  -0.7844  -0.6207  -0.5603  -0.5182
    -0.5142  -0.4969  -0.4575  -0.4467  -0.4133  -0.3541  -0.3338  -0.3188
    -0.2779  -0.2619  -0.2568  -0.2193  -0.2169  -0.2042  -0.1803  -0.1375
    -0.0710  -0.0636  -0.0601  -0.0430  -0.0309   0.0410   0.0483   0.4399
     0.8408   1.0844   1.1731   1.1788   1.2197   1.2662   1.2820   1.2930
     1.3001   1.4661   1.4849

 ------ SPIN DOWN ----------


          k = 0.0000 0.0000 0.0000 ( 90978 PWs)   bands (ev):

   -27.4184 -20.2783 -20.2140 -20.0982 -20.0419 -20.0407 -20.0060 -20.0021
   -19.9641 -19.8441 -19.8004 -19.7988 -19.7545 -19.7494 -19.6913 -19.5289
   -19.4242 -18.8189 -18.1633 -18.1344 -18.1321 -18.0998 -18.0689 -18.0655
   -17.9157 -17.5105 -17.3021 -17.2922 -17.2896 -17.2783 -17.2744 -17.2676
   -17.2566 -17.2451 -17.2316 -17.2284 -17.2211 -17.2200 -17.2163 -17.1999
   -17.1537 -17.1451 -16.8907 -16.7002 -16.6113 -16.6086 -16.4026 -16.2978
   -16.2964 -16.2457 -16.1753 -16.1726 -15.9083 -15.8400 -15.8380 -15.8039
   -15.3932 -14.7712 -13.6011 -13.5614 -13.5590 -13.5113 -13.4686 -13.4645
   -13.2708 -12.9160 -12.6185 -12.2969 -12.2396 -12.2291 -12.2196 -12.1774
   -12.1767 -12.1361 -12.1325 -12.1090 -12.0927 -12.0893 -12.0846 -12.0627
   -11.9798 -11.9712 -11.9331 -11.8589 -11.8037 -11.7844 -11.7139 -11.5577
   -11.5392 -11.5046 -11.4290 -11.3468 -11.3423 -11.2963 -11.2593 -11.1252
   -11.1229 -11.0970 -10.9696 -10.8396 -10.7997 -10.7961 -10.7550 -10.7541
   -10.7529 -10.7252 -10.7245 -10.7111 -10.6710 -10.6212 -10.5918 -10.5506
   -10.5364 -10.5051  -9.6742  -8.5168  -7.0900  -7.0896  -7.0618  -7.0490
    -7.0457  -7.0147  -7.0092  -7.0068  -6.9974  -6.9943  -6.9882  -6.9882
    -6.9851  -6.9848  -6.5895  -6.5766  -6.4628  -6.4575  -6.4374  -6.3518
    -6.3420  -6.3154  -6.3146  -6.3115  -6.2909  -6.2182  -6.2024  -5.9638
    -5.9583  -5.9321  -5.9097  -5.8960  -5.8434  -5.8433  -5.7870  -5.7700
    -5.7663  -5.7594  -5.7550  -5.7534  -5.7513  -5.7489  -5.7477  -5.7345
    -5.7286  -5.7258  -5.7023  -5.6922  -5.6883  -5.6821  -5.6686  -5.5428
    -5.2319  -5.2302  -5.2081  -5.1784  -5.1748  -5.1451  -5.1425  -5.1324
    -5.0640  -5.0635  -5.0210  -5.0036  -5.0011  -4.9920  -4.9586  -4.9515
    -4.8493  -4.8422  -4.8363  -4.8044  -4.8000  -4.7720  -4.7680  -4.7601
    -4.6848  -4.6299  -4.3708  -1.0169  -0.7844  -0.6208  -0.5604  -0.5183
    -0.5142  -0.4970  -0.4575  -0.4467  -0.4133  -0.3541  -0.3338  -0.3188
    -0.2779  -0.2619  -0.2567  -0.2193  -0.2169  -0.2042  -0.1803  -0.1375
    -0.0710  -0.0637  -0.0602  -0.0430  -0.0309   0.0410   0.0483   0.4399
     0.8408   1.0843   1.1732   1.1788   1.2196   1.2663   1.2827   1.2933
     1.2999   1.4686   1.4845

     the spin up/dw Fermi energies are    -1.0170   -1.0169 ev

!    total energy              =   -1804.18079439 Ry
     estimated scf accuracy    <       0.00000030 Ry
     smearing contrib. (-TS)   =      -0.00005642 Ry
     internal energy E=F+TS    =   -1804.18073797 Ry

     The total energy is F=E-TS. E is the sum of the following terms:
     one-electron contribution =   -3803.78262966 Ry
     hartree contribution      =    1970.68886942 Ry
     xc contribution           =    -442.19450855 Ry
     ewald contribution        =    1072.72500451 Ry
     one-center paw contrib.   =    -601.61747370 Ry

     total magnetization       =    -0.00 Bohr mag/cell
     absolute magnetization    =     0.01 Bohr mag/cell

     convergence has been achieved in  12 iterations

     negative rho (up, down):  1.052E-03 1.052E-03

     Forces acting on atoms (cartesian axes, Ry/au):

     atom    1 type  1   force =    -0.03659791   -0.03609469   -0.03763092
     atom    2 type  1   force =     0.03549021    0.03621370    0.03650194
     atom    3 type  1   force =     0.03605490    0.03710165   -0.03759638
     atom    4 type  1   force =    -0.03570371   -0.03553071    0.03653027
     atom    5 type  1   force =     0.03585262   -0.03585481    0.03619766
     atom    6 type  1   force =    -0.03553835    0.03608050   -0.03619213
     atom    7 type  1   force =    -0.03546659    0.03601567    0.03605343
     atom    8 type  1   force =     0.04971416   -0.04959888   -0.14925829
     atom    9 type  1   force =    -0.03600185   -0.03646006   -0.03567395
     atom   10 type  1   force =     0.03739435    0.03599748    0.03589165
     atom   11 type  1   force =     0.03641386    0.03594448   -0.03620666
     atom   12 type  1   force =    -0.03549482   -0.03692084    0.03594684
     atom   13 type  1   force =     0.03628259   -0.03630985    0.03590903
     atom   14 type  1   force =    -0.03548834    0.03549144   -0.03716637
     atom   15 type  1   force =    -0.02418790    0.02472845    0.02404818
     atom   16 type  1   force =     0.03612259   -0.03554799   -0.03603903
     atom   17 type  1   force =     0.09978296    0.09978213    0.09978179
     atom   18 type  1   force =    -0.09950452   -0.09951017   -0.09951098
     atom   19 type  1   force =    -0.09971105   -0.09971039    0.09979734
     atom   20 type  1   force =     0.09959642    0.09958819   -0.09950850
     atom   21 type  1   force =    -0.10007444    0.10016549   -0.10011643
     atom   22 type  1   force =     0.09958024   -0.09949608    0.09958180
     atom   23 type  1   force =     0.09955661   -0.09946625   -0.09946359
     atom   24 type  1   force =    -0.44671201    0.44718087    0.10938182
     atom   25 type  1   force =     0.09954142    0.09953029    0.09954705
     atom   26 type  1   force =    -0.09947690   -0.09946760   -0.09947450
     atom   27 type  1   force =    -0.09946315   -0.09946247    0.09956842
     atom   28 type  1   force =     0.09955815    0.09955686   -0.09947579
     atom   29 type  1   force =    -0.09945736    0.09954618   -0.09945141
     atom   30 type  1   force =     0.10041471   -0.10032602    0.10034457
     atom   31 type  1   force =     0.15751213   -0.15739100   -0.18199621
     atom   32 type  1   force =    -0.09944241    0.09952055    0.09952378
     atom   33 type  1   force =     0.12842908    0.00313807    0.00318158
     atom   34 type  1   force =    -0.12156046   -0.00305367   -0.00305353
     atom   35 type  1   force =    -0.12243951   -0.00272564    0.00307765
     atom   36 type  1   force =     0.12211197    0.00331996   -0.00342409
     atom   37 type  1   force =    -0.12240729    0.00315432   -0.00325131
     atom   38 type  1   force =     0.12204200   -0.00324992    0.00336465
     atom   39 type  1   force =     0.12132402   -0.00312684   -0.00315566
     atom   40 type  1   force =    -0.13803663    0.00705094    0.01115080
     atom   41 type  1   force =     0.00289130    0.12217351    0.00306711
     atom   42 type  1   force =    -0.00313406   -0.12304334   -0.00336966
     atom   43 type  1   force =     0.00324452   -0.12219432   -0.00309535
     atom   44 type  1   force =    -0.00694261    0.13783060    0.01116818
     atom   45 type  1   force =    -0.00294980   -0.12935468    0.00311568
     atom   46 type  1   force =     0.00322193    0.12129565   -0.00303288
     atom   47 type  1   force =    -0.00301707    0.12220100   -0.00323277
     atom   48 type  1   force =     0.00336777   -0.12291119    0.00329320
     atom   49 type  1   force =     0.00367882    0.00316494    0.12742460
     atom   50 type  1   force =    -0.00305528   -0.00341051   -0.12800675
     atom   51 type  1   force =    -0.00309473    0.00321421   -0.13059159
     atom   52 type  1   force =     0.00319010   -0.00300181    0.12614690
     atom   53 type  1   force =     0.00321403   -0.00303523   -0.12630410
     atom   54 type  1   force =    -0.00169984    0.00184828    0.12718915
     atom   55 type  1   force =    -0.00303841   -0.00349680    0.12748877
     atom   56 type  1   force =     0.00358036    0.00316887   -0.12794367
     atom   57 type  1   force =     0.12592547    0.00320223    0.00322350
     atom   58 type  1   force =    -0.12364944   -0.00340244   -0.00344778
     atom   59 type  1   force =    -0.12645285   -0.00306012    0.00339400
     atom   60 type  1   force =     0.12100247    0.00350835   -0.00305515
     atom   61 type  1   force =    -0.12213677    0.00338249   -0.00306644
     atom   62 type  1   force =     0.12603301   -0.00306715    0.00335358
     atom   63 type  1   force =     0.12046222   -0.00241062   -0.00195368
     atom   64 type  1   force =    -0.12617970    0.00326483    0.00317990
     atom   65 type  1   force =     0.00318714    0.12618943    0.00345424
     atom   66 type  1   force =    -0.00325798   -0.12618174   -0.00300289
     atom   67 type  1   force =     0.00252713   -0.12131186   -0.00189447
     atom   68 type  1   force =    -0.00316047    0.12111174    0.00325550
     atom   69 type  1   force =    -0.00310445   -0.12199180    0.00318398
     atom   70 type  1   force =     0.00362829    0.12268106   -0.00348395
     atom   71 type  1   force =    -0.00323759    0.12611695   -0.00304525
     atom   72 type  1   force =     0.00318502   -0.12623487    0.00334496
     atom   73 type  1   force =     0.00324634    0.00348146    0.12127638
     atom   74 type  1   force =    -0.00333462   -0.00303061   -0.12625287
     atom   75 type  1   force =    -0.00307554    0.00319941   -0.12621418
     atom   76 type  1   force =     0.00411765   -0.00399633    0.13147091
     atom   77 type  1   force =    -0.00095745    0.00115228   -0.12216008
     atom   78 type  1   force =    -0.00308527    0.00326400    0.12598557
     atom   79 type  1   force =    -0.00329254   -0.00304829    0.12619212
     atom   80 type  1   force =     0.00321561    0.00352791   -0.12194553
     atom   81 type  1   force =    -0.04400504   -0.04388094   -0.04385014
     atom   82 type  1   force =     0.04384973    0.04395008    0.04387460
     atom   83 type  1   force =     0.04380078    0.04399504   -0.04387665
     atom   84 type  1   force =    -0.04395560   -0.04392333    0.04384035
     atom   85 type  1   force =     0.04419888   -0.04430328    0.04444903
     atom   86 type  1   force =    -0.04393888    0.04389874   -0.04399445
     atom   87 type  1   force =    -0.04392997    0.04389318    0.04388276
     atom   88 type  1   force =     0.12691316   -0.12683546   -0.15328979
     atom   89 type  1   force =    -0.04404514   -0.04395600   -0.04394895
     atom   90 type  1   force =     0.04360715    0.04396552    0.04399610
     atom   91 type  1   force =     0.04387717    0.04396177   -0.04404765
     atom   92 type  1   force =    -0.04395884   -0.04358556    0.04394416
     atom   93 type  1   force =     0.04388838   -0.04399149    0.04394807
     atom   94 type  1   force =    -0.04496022    0.04483907   -0.04404926
     atom   95 type  1   force =    -0.08803877    0.08796060    0.08663284
     atom   96 type  1   force =     0.04387170   -0.04391353   -0.04400583
     atom   97 type  2   force =     0.25730067   -0.25831983    0.26352472
     atom   98 type  3   force =    -0.01554767    0.01564656   -0.01987367

     Total force =     1.453212     Total SCF correction =     0.000619

     BFGS Geometry Optimization
     Energy error            =      0.0E+00 Ry
     Gradient error          =      4.5E-01 Ry/Bohr

     number of scf cycles    =   1
     number of bfgs steps    =   0

     energy             new  =   -1804.1807943903 Ry

     new trust radius        =       0.5000000000 bohr
     new conv_thr            =       0.0000010000 Ry


ATOMIC_POSITIONS (angstrom)
C             1.7979044301        1.7981119945        1.7974783434
C            14.0986386749       14.0989370957       14.0990559832
C            14.0988715931       14.0993033485        1.7974925893
C             1.7982732636        1.7983446191       14.0990676703
C            14.0987881591        1.7982109358       14.0989304791
C             1.7983414663       14.0988821544        1.7980718019
C             1.7983710683       14.0988554125       14.0988709883
C            14.1045056390        1.7925419103        1.7514353107
C            10.0611502862       10.0609612904       10.0612855379
C             5.8364240766        5.8358479078        5.8358042574
C             5.8360196563        5.8358260481       10.0610658113
C            10.0613594230       10.0607712331        5.8358270220
C             5.8359655105       10.0610232462        5.8358114274
C            10.0613620952        5.8356391825       10.0606699559
C            10.0660231961        5.8311997645        5.8309191722
C             5.8358995154       10.0613374909       10.0611349517
C             3.4291575561        3.4291572149        3.4291570750
C            12.4679572887       12.4679549602       12.4679546269
C            12.4678721035       12.4678723770        3.4291634886
C             3.4290806140        3.4290772214       12.4679556494
C            12.4677222143        3.4293153395       12.4677048971
C             3.4290739405       12.4679607701        3.4290745846
C             3.4290641935       12.4679730773       12.4679741729
C            12.3247443353        3.5724490551        3.4331168069
C            11.6920579303       11.6920533374       11.6920602501
C             4.2049686813        4.2049725176        4.2049696724
C             4.2049743529        4.2049746341       11.6920690662
C            11.6920648316       11.6920643001        4.2049691408
C             4.2049767426       11.6920598951        4.2049791987
C            11.6924181351        4.2046184474       11.6923892047
C            11.7159691540        4.1810808052        4.1709318764
C             4.2049829097       11.6920493223       11.6920506549
C             0.3369732463        2.0012943621        2.0013123102
C            15.5628598575       13.8957404507       13.8957405081
C            15.5624972780       13.8958757515        2.0012694427
C             0.3343676232        2.0013693884       13.8955876648
C            15.5625105675        2.0013010669       13.8956589279
C             0.3343387631       13.8956595009        2.0013878214
C             0.3340426170       13.8957102702       13.8956983833
C            15.5560639198        2.0029083079        2.0045993804
C             2.0011925757        0.3343930078        2.0012650922
C            13.8957072905       15.5632482157       13.8956101150
C             2.0013382701       15.5635984111       13.8957232601
C            13.8941363781        0.3408510993        2.0046065502
C            13.8957832949       15.5606449717        2.0012851255
C             2.0013289529        0.3340309129       13.8957490260
C            13.8957555480        0.3344043470       13.8956665782
C             2.0013891078       15.5633027216        2.0013583489
C             2.0015174065        2.0013054450        0.3355589287
C            13.8957397866       13.8955932632       15.5612009528
C            13.8957235158        2.0013257681       15.5601347814
C             2.0013158244       13.8957618403        0.3350319141
C             2.0013256918       13.8957480554       15.5619032478
C            13.8962988650        2.0007623611        0.3354618114
C            13.8957467431       13.8955576701        0.3355853958
C             2.0014767958        2.0013070680       15.5612269727
C             8.5979405818       10.2643208271       10.2643296005
C             7.2999982143        5.6325965945        5.6325778929
C             7.2988418926        5.6327377890       10.2643999273
C             8.5969099869       10.2644470924        5.6327398416
C             7.3006221497       10.2643951797        5.6327351839
C             8.5979849383        5.6327348901       10.2643832525
C             8.5966871505        5.6330056882        5.6331941657
C             7.2989545572       10.2643466489       10.2643116171
C            10.2643146036        8.5980494571       10.2644247749
C             5.6326561793        7.2989537146        5.6327613947
C            10.2640423655        7.3009623979        5.6332185852
C             5.6326963996        8.5969550563       10.2643427999
C             5.6327195032        7.3006819423       10.2643133003
C            10.2644965640        8.5976023541        5.6325629740
C             5.6326645878        8.5980195593        5.6327439242
C            10.2643137298        7.2989318022       10.2643796970
C            10.2643390195       10.2644360003        8.5970229667
C             5.6326245681        5.6327499631        7.2989243766
C             5.6327314310       10.2643196639        7.2989403346
C            10.2646984096        5.6323516320        8.6002279118
C            10.2626050791        5.6344752799        7.3006125345
C             5.6327274156       10.2643463067        8.5979653701
C             5.6326419215        5.6327426708        8.5980505641
C            10.2643263458       10.2644551584        7.3007010296
C             2.6708492072        2.6709003949        2.6709130985
C            13.2260867332       13.2261281259       13.2260969903
C            13.2260665414       13.2261466678        2.6709021615
C             2.6708695978        2.6708829102       13.2260828642
C            13.2262307495        2.6707261915       13.2263339283
C             2.6708764950       13.2261069493        2.6708535724
C             2.6708801697       13.2261046560       13.2261003579
C            13.2603479755        2.6366840747        2.6257724373
C            10.9338326672       10.9338694316       10.9338723421
C             4.9629866773        4.9631344942        4.9631471075
C             4.9630980516        4.9631329457       10.9338316298
C            10.9338682624       10.9340222274        4.9631256812
C             4.9631026743       10.9338547954        4.9631272949
C            10.9334552228        4.9634948068       10.9338309666
C            10.9156865776        4.9812811783        4.9807335174
C             4.9630957936       10.9338869520       10.9338488777
O            13.7041290156        2.1904506125        4.0266962557
H            13.5915870379        2.3034537511        4.8858026896



     Writing config-only to output data dir ./pwscf.save/
     NEW-OLD atomic charge density approx. for the potential

     Check: negative core charge=   -0.000003

     negative rho (up, down):  9.478E-04 9.480E-04
     Generating pointlists ...
     new r_m :   0.0283 (alat units)  0.8838 (a.u.) for type    1
     new r_m :   0.0218 (alat units)  0.6811 (a.u.) for type    2
     new r_m :   0.0218 (alat units)  0.6811 (a.u.) for type    3

     total cpu time spent up to now is      270.4 secs

     Self-consistent Calculation

     iteration #  1     ecut=    50.00 Ry     beta= 0.30
     Davidson diagonalization with overlap
     c_bands:  4 eigenvalues not converged
     c_bands:  4 eigenvalues not converged
     ethr =  1.00E-06,  avg # of iterations = 20.0

     negative rho (up, down):  9.244E-04 9.246E-04

     total cpu time spent up to now is      337.8 secs

     total energy              =   -1803.53107956 Ry
     estimated scf accuracy    <       1.62838467 Ry

     total magnetization       =     0.00 Bohr mag/cell
     absolute magnetization    =     0.01 Bohr mag/cell

     iteration #  2     ecut=    50.00 Ry     beta= 0.30
     Davidson diagonalization with overlap
     ethr =  4.16E-04,  avg # of iterations =  4.0

     negative rho (up, down):  9.320E-04 9.321E-04

     total cpu time spent up to now is      354.8 secs

     total energy              =   -1803.59404223 Ry
     estimated scf accuracy    <       0.56543736 Ry

     total magnetization       =     0.00 Bohr mag/cell
     absolute magnetization    =     0.01 Bohr mag/cell

     iteration #  3     ecut=    50.00 Ry     beta= 0.30
     Davidson diagonalization with overlap
     ethr =  1.45E-04,  avg # of iterations =  5.0

     negative rho (up, down):  9.452E-04 9.452E-04

     total cpu time spent up to now is      371.7 secs

     total energy              =   -1803.61873433 Ry
     estimated scf accuracy    <       0.66775910 Ry

     total magnetization       =    -0.00 Bohr mag/cell
     absolute magnetization    =     0.01 Bohr mag/cell

     iteration #  4     ecut=    50.00 Ry     beta= 0.30
     Davidson diagonalization with overlap
     ethr =  1.45E-04,  avg # of iterations =  3.0

     negative rho (up, down):  9.426E-04 9.427E-04

     total cpu time spent up to now is      387.7 secs

     total energy              =   -1803.66396377 Ry
     estimated scf accuracy    <       0.03813279 Ry

     total magnetization       =     0.00 Bohr mag/cell
     absolute magnetization    =     0.01 Bohr mag/cell

     iteration #  5     ecut=    50.00 Ry     beta= 0.30
     Davidson diagonalization with overlap
     c_bands:  2 eigenvalues not converged
     ethr =  9.75E-06,  avg # of iterations = 19.0

     negative rho (up, down):  9.564E-04 9.565E-04

     total cpu time spent up to now is      411.0 secs

     total energy              =   -1803.66678350 Ry
     estimated scf accuracy    <       0.00989584 Ry

     total magnetization       =     0.00 Bohr mag/cell
     absolute magnetization    =     0.01 Bohr mag/cell

     iteration #  6     ecut=    50.00 Ry     beta= 0.30
     Davidson diagonalization with overlap
     c_bands:  2 eigenvalues not converged
     c_bands:  1 eigenvalues not converged
     ethr =  2.53E-06,  avg # of iterations = 20.0

     negative rho (up, down):  9.802E-04 9.803E-04

     total cpu time spent up to now is      431.0 secs

     total energy              =   -1803.66684896 Ry
     estimated scf accuracy    <       0.00456266 Ry

     total magnetization       =    -0.00 Bohr mag/cell
     absolute magnetization    =     0.01 Bohr mag/cell

     iteration #  7     ecut=    50.00 Ry     beta= 0.30
     Davidson diagonalization with overlap
     ethr =  1.17E-06,  avg # of iterations = 10.0

     negative rho (up, down):  9.828E-04 9.828E-04

     total cpu time spent up to now is      450.0 secs

     total energy              =   -1803.66745136 Ry
     estimated scf accuracy    <       0.00059417 Ry

     total magnetization       =     0.00 Bohr mag/cell
     absolute magnetization    =     0.01 Bohr mag/cell

     iteration #  8     ecut=    50.00 Ry     beta= 0.30
     Davidson diagonalization with overlap
     ethr =  1.52E-07,  avg # of iterations =  4.0

     negative rho (up, down):  9.855E-04 9.856E-04

     total cpu time spent up to now is      467.8 secs

     total energy              =   -1803.66752095 Ry
     estimated scf accuracy    <       0.00018695 Ry

     total magnetization       =    -0.00 Bohr mag/cell
     absolute magnetization    =     0.01 Bohr mag/cell

     iteration #  9     ecut=    50.00 Ry     beta= 0.30
     Davidson diagonalization with overlap
     ethr =  4.78E-08,  avg # of iterations =  2.0

     negative rho (up, down):  9.914E-04 9.914E-04

     total cpu time spent up to now is      483.7 secs

     total energy              =   -1803.66751649 Ry
     estimated scf accuracy    <       0.00007703 Ry

     total magnetization       =    -0.00 Bohr mag/cell
     absolute magnetization    =     0.01 Bohr mag/cell

     iteration # 10     ecut=    50.00 Ry     beta= 0.30
     Davidson diagonalization with overlap
     ethr =  1.97E-08,  avg # of iterations =  2.0

     negative rho (up, down):  9.931E-04 9.932E-04

     total cpu time spent up to now is      499.6 secs

     total energy              =   -1803.66752524 Ry
     estimated scf accuracy    <       0.00001566 Ry

     total magnetization       =    -0.00 Bohr mag/cell
     absolute magnetization    =     0.00 Bohr mag/cell

     iteration # 11     ecut=    50.00 Ry     beta= 0.30
     Davidson diagonalization with overlap
     ethr =  4.00E-09,  avg # of iterations =  4.0

     negative rho (up, down):  9.925E-04 9.925E-04

     total cpu time spent up to now is      516.3 secs

     total energy              =   -1803.66752651 Ry
     estimated scf accuracy    <       0.00000218 Ry

     total magnetization       =     0.00 Bohr mag/cell
     absolute magnetization    =     0.00 Bohr mag/cell

     iteration # 12     ecut=    50.00 Ry     beta= 0.30
     Davidson diagonalization with overlap
     ethr =  5.58E-10,  avg # of iterations =  4.0

     negative rho (up, down):  9.924E-04 9.924E-04

     Magnetic moment per site  (integrated on atomic sphere of radius R)
     atom   1 (R=0.028)  charge=  0.8986  magn=  0.0000
     atom   2 (R=0.028)  charge=  0.8990  magn=  0.0000
     atom   3 (R=0.028)  charge=  0.8989  magn=  0.0000
     atom   4 (R=0.028)  charge=  0.8982  magn=  0.0000
     atom   5 (R=0.028)  charge=  0.8989  magn= -0.0000
     atom   6 (R=0.028)  charge=  0.8980  magn= -0.0000
     atom   7 (R=0.028)  charge=  0.8983  magn= -0.0000
     atom   8 (R=0.028)  charge=  0.9188  magn= -0.0000
     atom   9 (R=0.028)  charge=  0.8983  magn=  0.0000
     atom  10 (R=0.028)  charge=  0.8991  magn= -0.0000
     atom  11 (R=0.028)  charge=  0.8985  magn=  0.0000
     atom  12 (R=0.028)  charge=  0.8978  magn=  0.0000
     atom  13 (R=0.028)  charge=  0.8985  magn=  0.0000
     atom  14 (R=0.028)  charge=  0.8988  magn=  0.0000
     atom  15 (R=0.028)  charge=  0.9006  magn= -0.0000
     atom  16 (R=0.028)  charge=  0.8982  magn=  0.0000
     atom  17 (R=0.028)  charge=  0.9321  magn= -0.0000
     atom  18 (R=0.028)  charge=  0.9313  magn= -0.0000
     atom  19 (R=0.028)  charge=  0.9306  magn= -0.0000
     atom  20 (R=0.028)  charge=  0.9305  magn=  0.0000
     atom  21 (R=0.028)  charge=  0.9305  magn=  0.0000
     atom  22 (R=0.028)  charge=  0.9305  magn=  0.0000
     atom  23 (R=0.028)  charge=  0.9306  magn= -0.0000
     atom  24 (R=0.028)  charge=  0.9867  magn=  0.0000
     atom  25 (R=0.028)  charge=  0.9323  magn=  0.0000
     atom  26 (R=0.028)  charge=  0.9316  magn=  0.0000
     atom  27 (R=0.028)  charge=  0.9308  magn= -0.0000
     atom  28 (R=0.028)  charge=  0.9308  magn=  0.0000
     atom  29 (R=0.028)  charge=  0.9307  magn=  0.0000
     atom  30 (R=0.028)  charge=  0.9308  magn=  0.0000
     atom  31 (R=0.028)  charge=  1.0119  magn=  0.0000
     atom  32 (R=0.028)  charge=  0.9306  magn=  0.0000
     atom  33 (R=0.028)  charge=  0.9171  magn= -0.0000
     atom  34 (R=0.028)  charge=  0.9197  magn= -0.0000
     atom  35 (R=0.028)  charge=  0.9193  magn= -0.0000
     atom  36 (R=0.028)  charge=  0.9200  magn= -0.0000
     atom  37 (R=0.028)  charge=  0.9196  magn=  0.0000
     atom  38 (R=0.028)  charge=  0.9202  magn=  0.0000
     atom  39 (R=0.028)  charge=  0.9204  magn=  0.0000
     atom  40 (R=0.028)  charge=  0.9158  magn=  0.0000
     atom  41 (R=0.028)  charge=  0.9200  magn= -0.0000
     atom  42 (R=0.028)  charge=  0.9190  magn= -0.0000
     atom  43 (R=0.028)  charge=  0.9193  magn=  0.0000
     atom  44 (R=0.028)  charge=  0.9165  magn=  0.0000
     atom  45 (R=0.028)  charge=  0.9161  magn= -0.0000
     atom  46 (R=0.028)  charge=  0.9204  magn= -0.0000
     atom  47 (R=0.028)  charge=  0.9203  magn=  0.0000
     atom  48 (R=0.028)  charge=  0.9190  magn=  0.0000
     atom  49 (R=0.028)  charge=  0.9190  magn=  0.0000
     atom  50 (R=0.028)  charge=  0.9184  magn= -0.0000
     atom  51 (R=0.028)  charge=  0.9173  magn=  0.0000
     atom  52 (R=0.028)  charge=  0.9194  magn= -0.0000
     atom  53 (R=0.028)  charge=  0.9185  magn=  0.0000
     atom  54 (R=0.028)  charge=  0.9286  magn= -0.0000
     atom  55 (R=0.028)  charge=  0.9191  magn=  0.0000
     atom  56 (R=0.028)  charge=  0.9182  magn= -0.0000
     atom  57 (R=0.028)  charge=  0.9193  magn=  0.0000
     atom  58 (R=0.028)  charge=  0.9202  magn=  0.0000
     atom  59 (R=0.028)  charge=  0.9186  magn= -0.0000
     atom  60 (R=0.028)  charge=  0.9202  magn=  0.0000
     atom  61 (R=0.028)  charge=  0.9195  magn= -0.0000
     atom  62 (R=0.028)  charge=  0.9193  magn=  0.0000
     atom  63 (R=0.028)  charge=  0.9192  magn=  0.0000
     atom  64 (R=0.028)  charge=  0.9185  magn= -0.0000
     atom  65 (R=0.028)  charge=  0.9195  magn=  0.0000
     atom  66 (R=0.028)  charge=  0.9186  magn=  0.0000
     atom  67 (R=0.028)  charge=  0.9182  magn= -0.0000
     atom  68 (R=0.028)  charge=  0.9204  magn= -0.0000
     atom  69 (R=0.028)  charge=  0.9193  magn=  0.0000
     atom  70 (R=0.028)  charge=  0.9211  magn= -0.0000
     atom  71 (R=0.028)  charge=  0.9196  magn= -0.0000
     atom  72 (R=0.028)  charge=  0.9182  magn= -0.0000
     atom  73 (R=0.028)  charge=  0.9204  magn= -0.0000
     atom  74 (R=0.028)  charge=  0.9185  magn=  0.0000
     atom  75 (R=0.028)  charge=  0.9185  magn= -0.0000
     atom  76 (R=0.028)  charge=  0.9207  magn=  0.0000
     atom  77 (R=0.028)  charge=  0.9175  magn= -0.0000
     atom  78 (R=0.028)  charge=  0.9195  magn=  0.0000
     atom  79 (R=0.028)  charge=  0.9196  magn= -0.0000
     atom  80 (R=0.028)  charge=  0.9191  magn=  0.0000
     atom  81 (R=0.028)  charge=  0.9090  magn=  0.0000
     atom  82 (R=0.028)  charge=  0.9100  magn=  0.0000
     atom  83 (R=0.028)  charge=  0.9099  magn=  0.0000
     atom  84 (R=0.028)  charge=  0.9096  magn= -0.0000
     atom  85 (R=0.028)  charge=  0.9101  magn= -0.0000
     atom  86 (R=0.028)  charge=  0.9096  magn= -0.0000
     atom  87 (R=0.028)  charge=  0.9100  magn=  0.0000
     atom  88 (R=0.028)  charge=  0.8524  magn= -0.0000
     atom  89 (R=0.028)  charge=  0.9089  magn= -0.0000
     atom  90 (R=0.028)  charge=  0.9097  magn= -0.0000
     atom  91 (R=0.028)  charge=  0.9099  magn=  0.0000
     atom  92 (R=0.028)  charge=  0.9094  magn= -0.0000
     atom  93 (R=0.028)  charge=  0.9099  magn= -0.0000
     atom  94 (R=0.028)  charge=  0.9090  magn= -0.0000
     atom  95 (R=0.028)  charge=  0.9001  magn=  0.0000
     atom  96 (R=0.028)  charge=  0.9095  magn= -0.0000
     atom  97 (R=0.022)  charge=  1.5083  magn= -0.0000
     atom  98 (R=0.022)  charge=  0.3756  magn=  0.0000

     total cpu time spent up to now is      535.8 secs

     End of self-consistent calculation

 ------ SPIN UP ------------


          k = 0.0000 0.0000 0.0000 ( 90978 PWs)   bands (ev):

   -24.4451 -21.0383 -20.8936 -20.8585 -20.7648 -20.7523 -20.7170 -20.7130
   -20.6931 -20.6175 -20.5600 -20.5507 -20.5146 -20.5084 -20.4868 -20.3476
   -20.2747 -18.6465 -18.2652 -18.2484 -18.2442 -18.2296 -18.2174 -18.2103
   -18.1718 -17.0333 -16.9677 -16.9402 -16.9347 -16.9219 -16.9198 -16.9088
   -16.8998 -16.8896 -16.8787 -16.8706 -16.8312 -16.8266 -16.8181 -16.8158
   -16.8011 -16.7979 -16.5178 -16.4788 -16.4719 -16.3622 -16.2014 -16.1173
   -16.1015 -15.9962 -15.9911 -15.9446 -15.8020 -15.5573 -15.5440 -15.4889
   -14.9731 -14.7684 -14.3789 -14.3317 -14.3243 -14.2381 -14.1955 -14.1837
   -13.7613 -13.3058 -13.0972 -13.0561 -13.0151 -13.0019 -12.9989 -12.9916
   -12.9800 -12.9067 -12.9059 -12.7865 -12.7787 -12.7590 -12.5772 -12.5436
   -12.5236 -12.4261 -12.4023 -12.3796 -12.3710 -12.0632 -12.0061 -11.9365
   -11.9141 -11.8113 -11.7610 -11.7472 -11.6640 -11.5856 -11.5348 -11.4460
   -11.4135 -11.4083 -11.3702 -11.3555 -11.3221 -11.2954 -11.2364 -11.2333
   -11.2314 -11.2247 -11.2213 -11.1954 -11.1748 -11.1586 -11.1195 -11.0932
   -11.0879 -10.5573  -7.9059  -7.7663  -7.1321  -7.1267  -7.1062  -7.1031
    -7.0913  -7.0786  -7.0778  -7.0726  -7.0688  -7.0647  -7.0626  -7.0593
    -7.0564  -7.0554  -6.6180  -6.4770  -6.4089  -6.3261  -6.3227  -6.2839
    -6.2736  -6.2272  -6.2263  -6.2194  -6.1961  -6.1044  -6.0445  -5.8265
    -5.8061  -5.7729  -5.7505  -5.7249  -5.6992  -5.6561  -5.6318  -5.6255
    -5.6063  -5.6012  -5.5984  -5.5953  -5.5905  -5.5860  -5.5830  -5.5792
    -5.5719  -5.5691  -5.5559  -5.5485  -5.5451  -5.5422  -5.5020  -5.3991
    -4.9080  -4.9041  -4.7784  -4.7710  -4.7600  -4.7173  -4.7169  -4.7079
    -4.7070  -4.6684  -4.6625  -4.6587  -4.6545  -4.5650  -4.5645  -4.5359
    -4.5316  -4.5286  -4.5125  -4.3487  -4.3425  -4.2850  -4.2761  -4.2679
    -4.2635  -4.2409  -3.5219  -2.5151  -2.0753  -1.5233  -1.4312  -1.3477
    -1.3360  -1.3335  -1.3030  -1.2922  -1.2914  -1.2773  -1.2683  -1.2589
    -1.1746  -1.1692  -1.1521  -1.0933  -1.0607  -1.0167  -1.0046  -0.9966
    -0.9505  -0.9499  -0.9340  -0.9091  -0.8375  -0.8245  -0.8216   0.0053
     0.4213   0.4448   0.4751   0.5067   0.5407   0.5925   0.6553   0.6706
     0.6995   0.7219   0.7255

 ------ SPIN DOWN ----------


          k = 0.0000 0.0000 0.0000 ( 90978 PWs)   bands (ev):

   -24.4452 -21.0383 -20.8936 -20.8585 -20.7648 -20.7523 -20.7170 -20.7130
   -20.6931 -20.6175 -20.5600 -20.5508 -20.5146 -20.5084 -20.4868 -20.3476
   -20.2747 -18.6465 -18.2652 -18.2484 -18.2442 -18.2295 -18.2174 -18.2103
   -18.1718 -17.0333 -16.9677 -16.9402 -16.9347 -16.9219 -16.9198 -16.9088
   -16.8998 -16.8896 -16.8787 -16.8706 -16.8312 -16.8266 -16.8181 -16.8158
   -16.8011 -16.7979 -16.5178 -16.4788 -16.4719 -16.3622 -16.2015 -16.1173
   -16.1015 -15.9962 -15.9911 -15.9446 -15.8020 -15.5573 -15.5440 -15.4889
   -14.9731 -14.7684 -14.3789 -14.3317 -14.3243 -14.2381 -14.1955 -14.1837
   -13.7613 -13.3058 -13.0972 -13.0561 -13.0151 -13.0019 -12.9989 -12.9916
   -12.9800 -12.9067 -12.9059 -12.7865 -12.7788 -12.7590 -12.5772 -12.5436
   -12.5236 -12.4261 -12.4023 -12.3796 -12.3710 -12.0632 -12.0061 -11.9365
   -11.9141 -11.8113 -11.7610 -11.7472 -11.6640 -11.5856 -11.5348 -11.4460
   -11.4135 -11.4083 -11.3702 -11.3555 -11.3221 -11.2954 -11.2364 -11.2333
   -11.2314 -11.2248 -11.2213 -11.1954 -11.1748 -11.1586 -11.1195 -11.0931
   -11.0879 -10.5573  -7.9059  -7.7663  -7.1320  -7.1266  -7.1061  -7.1031
    -7.0913  -7.0786  -7.0778  -7.0726  -7.0688  -7.0647  -7.0625  -7.0593
    -7.0564  -7.0554  -6.6180  -6.4770  -6.4089  -6.3261  -6.3227  -6.2838
    -6.2736  -6.2272  -6.2263  -6.2194  -6.1961  -6.1044  -6.0445  -5.8265
    -5.8061  -5.7729  -5.7505  -5.7249  -5.6992  -5.6561  -5.6318  -5.6255
    -5.6063  -5.6012  -5.5984  -5.5953  -5.5905  -5.5860  -5.5830  -5.5792
    -5.5719  -5.5691  -5.5559  -5.5485  -5.5451  -5.5423  -5.5020  -5.3991
    -4.9080  -4.9041  -4.7784  -4.7710  -4.7601  -4.7173  -4.7169  -4.7079
    -4.7070  -4.6684  -4.6625  -4.6587  -4.6545  -4.5650  -4.5645  -4.5359
    -4.5316  -4.5286  -4.5125  -4.3487  -4.3425  -4.2850  -4.2761  -4.2679
    -4.2635  -4.2409  -3.5219  -2.5151  -2.0753  -1.5234  -1.4313  -1.3477
    -1.3360  -1.3335  -1.3030  -1.2922  -1.2914  -1.2773  -1.2683  -1.2589
    -1.1746  -1.1692  -1.1521  -1.0933  -1.0607  -1.0167  -1.0046  -0.9966
    -0.9505  -0.9499  -0.9340  -0.9091  -0.8375  -0.8245  -0.8216   0.0053
     0.4213   0.4448   0.4751   0.5067   0.5407   0.5926   0.6553   0.6705
     0.6995   0.7217   0.7252

     the spin up/dw Fermi energies are    -2.5151   -2.5151 ev

!    total energy              =   -1803.66752694 Ry
     estimated scf accuracy    <       0.00000048 Ry
     smearing contrib. (-TS)   =      -0.00005642 Ry
     internal energy E=F+TS    =   -1803.66747053 Ry

     The total energy is F=E-TS. E is the sum of the following terms:
     one-electron contribution =   -3782.98834166 Ry
     hartree contribution      =    1957.32017017 Ry
     xc contribution           =    -439.00313215 Ry
     ewald contribution        =    1062.38161696 Ry
     one-center paw contrib.   =    -601.37778385 Ry

     total magnetization       =     0.00 Bohr mag/cell
     absolute magnetization    =     0.00 Bohr mag/cell

     convergence has been achieved in  12 iterations

     negative rho (up, down):  9.924E-04 9.924E-04

     Forces acting on atoms (cartesian axes, Ry/au):

     atom    1 type  1   force =     0.00570857    0.00328459    0.00544074
     atom    2 type  1   force =    -0.00314041   -0.00366749   -0.00508703
     atom    3 type  1   force =    -0.00365108   -0.00576838    0.00549367
     atom    4 type  1   force =     0.00358845    0.00278081   -0.00502958
     atom    5 type  1   force =    -0.00375016    0.00343741   -0.00727514
     atom    6 type  1   force =     0.00310155   -0.00311971    0.00428450
     atom    7 type  1   force =     0.00300118   -0.00302303   -0.00431985
     atom    8 type  1   force =     0.01397567   -0.01436188   -0.02038361
     atom    9 type  1   force =     0.00367798    0.00369301    0.00227782
     atom   10 type  1   force =    -0.00281257   -0.00423026   -0.00419080
     atom   11 type  1   force =    -0.00407076   -0.00248452    0.00356837
     atom   12 type  1   force =     0.00288798    0.00303599   -0.00286421
     atom   13 type  1   force =    -0.00251235    0.00374204   -0.00418841
     atom   14 type  1   force =     0.00312302   -0.00345011    0.00450398
     atom   15 type  1   force =    -0.00485548    0.00494508    0.00627083
     atom   16 type  1   force =    -0.00405857    0.00249004    0.00364238
     atom   17 type  1   force =    -0.14173302   -0.14172782   -0.14176389
     atom   18 type  1   force =     0.14123926    0.14126082    0.14124423
     atom   19 type  1   force =     0.14149992    0.14150078   -0.14174248
     atom   20 type  1   force =    -0.14150392   -0.14149628    0.14128927
     atom   21 type  1   force =     0.14220607   -0.14240707    0.14228918
     atom   22 type  1   force =    -0.14151798    0.14131218   -0.14153407
     atom   23 type  1   force =    -0.14140033    0.14121008    0.14120483
     atom   24 type  1   force =     0.40597173   -0.40566280   -0.59063302
     atom   25 type  1   force =    -0.14155166   -0.14155857   -0.14151859
     atom   26 type  1   force =     0.14120854    0.14122620    0.14123491
     atom   27 type  1   force =     0.14131983    0.14130749   -0.14150659
     atom   28 type  1   force =    -0.14146507   -0.14145114    0.14127057
     atom   29 type  1   force =     0.14125755   -0.14147133    0.14126744
     atom   30 type  1   force =    -0.14260552    0.14238407   -0.14283558
     atom   31 type  1   force =    -0.44511880    0.44477336    0.48029329
     atom   32 type  1   force =     0.14125970   -0.14145812   -0.14146200
     atom   33 type  1   force =    -0.27366841    0.00844103    0.00736697
     atom   34 type  1   force =     0.25100455   -0.00756796   -0.00776042
     atom   35 type  1   force =     0.25310942   -0.00773882    0.00780418
     atom   36 type  1   force =    -0.25283547    0.00778662   -0.00744540
     atom   37 type  1   force =     0.25283528    0.00792265   -0.00759926
     atom   38 type  1   force =    -0.25258337   -0.00759851    0.00774953
     atom   39 type  1   force =    -0.25084622   -0.00750065   -0.00770959
     atom   40 type  1   force =     0.28047266    0.00779264    0.00314826
     atom   41 type  1   force =     0.00791547   -0.25356443    0.00776805
     atom   42 type  1   force =    -0.00762658    0.25317502   -0.00740593
     atom   43 type  1   force =     0.00766543    0.25108949   -0.00766309
     atom   44 type  1   force =    -0.00766479   -0.28090789    0.00312851
     atom   45 type  1   force =    -0.00827582    0.27396348    0.00733517
     atom   46 type  1   force =     0.00774589   -0.25146500   -0.00774095
     atom   47 type  1   force =    -0.00777594   -0.25338331   -0.00758597
     atom   48 type  1   force =     0.00775712    0.25282780    0.00771252
     atom   49 type  1   force =     0.00812305    0.00801273   -0.26235555
     atom   50 type  1   force =    -0.00795051   -0.00788679    0.26189155
     atom   51 type  1   force =    -0.00714967    0.00728580    0.26707711
     atom   52 type  1   force =     0.00795179   -0.00775456   -0.25875807
     atom   53 type  1   force =     0.00798992   -0.00778147    0.25875869
     atom   54 type  1   force =    -0.01008773    0.01021687   -0.31355935
     atom   55 type  1   force =    -0.00790206   -0.00793765   -0.26245455
     atom   56 type  1   force =     0.00808497    0.00807533    0.26179747
     atom   57 type  1   force =    -0.25819001    0.00799966    0.00798557
     atom   58 type  1   force =     0.24925551   -0.00851799   -0.00841207
     atom   59 type  1   force =     0.25860070   -0.00785839    0.00830672
     atom   60 type  1   force =    -0.25084095    0.00782366   -0.00756158
     atom   61 type  1   force =     0.25066527    0.00800706   -0.00767359
     atom   62 type  1   force =    -0.25848834   -0.00788007    0.00816348
     atom   63 type  1   force =    -0.25094507   -0.00579840   -0.00693895
     atom   64 type  1   force =     0.25836658    0.00802062    0.00806334
     atom   65 type  1   force =     0.00805028   -0.25841032    0.00826149
     atom   66 type  1   force =    -0.00782034    0.25851181   -0.00783320
     atom   67 type  1   force =     0.00596169    0.25059260   -0.00689595
     atom   68 type  1   force =    -0.00773392   -0.25096004    0.00787492
     atom   69 type  1   force =    -0.00767110    0.25057917    0.00782489
     atom   70 type  1   force =     0.00865722   -0.24936652   -0.00835174
     atom   71 type  1   force =    -0.00798702   -0.25835146   -0.00788633
     atom   72 type  1   force =     0.00801815    0.25856037    0.00817893
     atom   73 type  1   force =     0.00786717    0.00807710   -0.25105114
     atom   74 type  1   force =    -0.00788448   -0.00783992    0.25865957
     atom   75 type  1   force =    -0.00777578    0.00800449    0.25841663
     atom   76 type  1   force =     0.00920288   -0.00906413   -0.25509313
     atom   77 type  1   force =     0.00525928   -0.00505444    0.25820885
     atom   78 type  1   force =    -0.00791345    0.00802360   -0.25826716
     atom   79 type  1   force =    -0.00812690   -0.00783944   -0.25845901
     atom   80 type  1   force =     0.00773240    0.00785365    0.25058961
     atom   81 type  1   force =     0.12064376    0.12051561    0.12056114
     atom   82 type  1   force =    -0.12032080   -0.12019215   -0.12042689
     atom   83 type  1   force =    -0.12029844   -0.12034948    0.12047793
     atom   84 type  1   force =     0.12048603    0.12053461   -0.12049707
     atom   85 type  1   force =    -0.12076739    0.12090273   -0.12070448
     atom   86 type  1   force =     0.12058763   -0.12036704    0.12057790
     atom   87 type  1   force =     0.12048987   -0.12027734   -0.12042913
     atom   88 type  1   force =    -0.15516362    0.15482383    0.38112116
     atom   89 type  1   force =     0.12070036    0.12070599    0.12069146
     atom   90 type  1   force =    -0.12032376   -0.12016889   -0.12014755
     atom   91 type  1   force =    -0.12048850   -0.12036175    0.12064719
     atom   92 type  1   force =     0.12024804    0.12051989   -0.12000827
     atom   93 type  1   force =    -0.12034282    0.12059332   -0.12043263
     atom   94 type  1   force =     0.12136998   -0.12122323    0.12206238
     atom   95 type  1   force =     0.11302577   -0.11285166   -0.11057680
     atom   96 type  1   force =    -0.12048693    0.12058769    0.12064495
     atom   97 type  2   force =     0.14170533   -0.14223279   -0.32710162
     atom   98 type  3   force =    -0.07289255    0.07318014    0.23468914

     Total force =     2.533660     Total SCF correction =     0.001178
     Energy error            =      5.1E-01 Ry
     Gradient error          =      5.9E-01 Ry/Bohr

     number of scf cycles    =   2
     number of bfgs steps    =   1

     energy             old  =   -1804.1807943903 Ry
     energy             new  =   -1803.6675269443 Ry

     CASE: energy            _new > energy            _old

     new trust radius        =       0.1905759995 bohr
     new conv_thr            =       0.0000010000 Ry


ATOMIC_POSITIONS (angstrom)
C             1.8072462934        1.8073254069        1.8070838896
C            14.0895795602       14.0896933039       14.0897386181
C            14.0896683374       14.0898329019        1.8070893194
C             1.8073868750        1.8074140723       14.0897430727
C            14.0896365364        1.8073631186       14.0896907820
C             1.8074128706       14.0896723629        1.8073100875
C             1.8074241534       14.0896621702       14.0896681069
C            14.0918157653        1.8052023582        1.7895344956
C            10.0703400019       10.0702679658       10.0703915534
C             5.8268789176        5.8266593097        5.8266426723
C             5.8267247720        5.8266509779       10.0703078041
C            10.0704197148       10.0701955251        5.8266513491
C             5.8267041342       10.0702915803        5.8266454052
C            10.0704207333        5.8265797537       10.0701569230
C            10.0721973212        5.8248876606        5.8247807123
C             5.8266789801       10.0704113554       10.0703341571
C             3.4036872848        3.4036871547        3.4036871014
C            12.4933564885       12.4933556010       12.4933554740
C            12.4933240200       12.4933241243        3.4036895460
C             3.4036579581        3.4036566650       12.4933558637
C            12.4932668895        3.4037474242       12.4932602890
C             3.4036554145       12.4933578155        3.4036556600
C             3.4036516994       12.4933625064       12.4933629240
C            12.4387705851        3.4583031261        3.4051963611
C            11.6666493122       11.6666475616       11.6666501964
C             4.2303608308        4.2303622931        4.2303612086
C             4.2303629926        4.2303630998       11.6666535567
C            11.6666519427       11.6666517401        4.2303610060
C             4.2303639034       11.6666500611        4.2303648396
C            11.6667866050        4.2302273385       11.6667755781
C            11.6757631229        4.2212559191        4.2173876346
C             4.2303662541       11.6666460313       11.6666465392
C             0.3041908587        2.0004933487        2.0005001896
C            15.5938889844       13.8965199203       13.8965199422
C            15.5937507866       13.8965714904        2.0004838506
C             0.3031977203        2.0005219451       13.8964616856
C            15.5937558519        2.0004959042       13.8964888477
C             0.3031867202       13.8964890661        2.0005289709
C             0.3030738435       13.8965084169       13.8965038862
C            15.5912986992        2.0011085074        2.0017530630
C             2.0004545526        0.3032073956        2.0004821924
C            13.8965072812       15.5946558559       13.8964702426
C             2.0005100843       15.5947893336       13.8965133680
C            13.8959085248        0.3056689102        2.0017557958
C            13.8965362504       15.5936636243        2.0004898281
C             2.0005065331        0.3030693824       13.8965231888
C            13.8965256746        0.3032117176       13.8964917636
C             2.0005294612       15.5946766310        2.0005177374
C             2.0005783625        2.0004975730        0.3030329407
C            13.8965196672       13.8964638194       15.5938755376
C            13.8965134655        2.0005053192       15.5934691642
C             2.0005015291       13.8965280729        0.3028320681
C             2.0005052901       13.8965228188       15.5941432188
C            13.8967327610        2.0002905755        0.3029959243
C            13.8965223186       13.8964502531        0.3030430287
C             2.0005628837        2.0004981916       15.5938854552
C             8.5657972566       10.2635034359       10.2635067799
C             7.3315605674        5.6334650892        5.6334579610
C             7.3311198331        5.6335189057       10.2635335851
C             8.5660232913       10.2635515621        5.6335196881
C             7.3317983817       10.2635317755        5.6335179128
C             8.5658141631        5.6335178008       10.2635272295
C             8.5659383568        5.6336210161        5.6336928547
C             7.3311627754       10.2635132779       10.2634999255
C            10.2635010638        8.5658387546       10.2635430558
C             5.6334878001        7.3311624543        5.6335279031
C            10.2633972997        7.3319280679        5.6337021622
C             5.6335031301        8.5660404696       10.2635118109
C             5.6335119361        7.3318211717       10.2635005670
C            10.2635704183        8.5662871884        5.6334522747
C             5.6334910050        8.5658273590        5.6335212442
C            10.2635007307        7.3311541023       10.2635258743
C            10.2635103700       10.2635473344        8.5660663538
C             5.6334757514        5.6335235459        7.3311512720
C             5.6335164824       10.2635029925        7.3311573545
C            10.2636473522        5.6333717213        8.5666690770
C            10.2628494751        5.6341811539        7.3317947168
C             5.6335149519       10.2635131475        8.5658067047
C             5.6334823657        5.6335207665        8.5658391766
C            10.2635055393       10.2635546365        7.3318284469
C             2.6820817891        2.6821012994        2.6821061413
C            13.2148937945       13.2149095714       13.2148977040
C            13.2148860984       13.2149166387        2.6821019727
C             2.6820895610        2.6820946350       13.2148923198
C            13.2149486866        2.6820349014       13.2149880134
C             2.6820921898       13.2149014999        2.6820834528
C             2.6820935905       13.2149006258       13.2148989876
C            13.2279525355        2.6690596805        2.6649006881
C            10.9450754848       10.9450894976       10.9450906069
C             4.9518556580        4.9519119987        4.9519168063
C             4.9518981086        4.9519114085       10.9450750894
C            10.9450890520       10.9451477361        4.9519086396
C             4.9518998705       10.9450839190        4.9519092547
C            10.9449316211        4.9520493326       10.9450748366
C            10.9381590665        4.9588286436        4.9586199016
C             4.9518972479       10.9450961755       10.9450816635
O            13.6384512864        2.2563884880        3.9594297952
H            13.5955556867        2.2994598601        4.8908755788



     Writing config-only to output data dir ./pwscf.save/
     NEW-OLD atomic charge density approx. for the potential

     Check: negative core charge=   -0.000003

     negative rho (up, down):  1.062E-03 1.062E-03
     Generating pointlists ...

     total cpu time spent up to now is      558.1 secs

     Self-consistent Calculation

     iteration #  1     ecut=    50.00 Ry     beta= 0.30
     Davidson diagonalization with overlap
     c_bands:  2 eigenvalues not converged
     c_bands:  2 eigenvalues not converged
     ethr =  1.00E-06,  avg # of iterations = 20.0

     negative rho (up, down):  1.076E-03 1.076E-03

     total cpu time spent up to now is      618.3 secs

     total energy              =   -1804.42567635 Ry
     estimated scf accuracy    <       0.58620868 Ry

     total magnetization       =     0.00 Bohr mag/cell
     absolute magnetization    =     0.00 Bohr mag/cell

     iteration #  2     ecut=    50.00 Ry     beta= 0.30
     Davidson diagonalization with overlap
     ethr =  1.50E-04,  avg # of iterations =  4.0

     negative rho (up, down):  1.084E-03 1.084E-03

     total cpu time spent up to now is      635.1 secs

     total energy              =   -1804.46243443 Ry
     estimated scf accuracy    <       0.10608716 Ry

     total magnetization       =     0.00 Bohr mag/cell
     absolute magnetization    =     0.00 Bohr mag/cell

     iteration #  3     ecut=    50.00 Ry     beta= 0.30
     Davidson diagonalization with overlap
     ethr =  2.71E-05,  avg # of iterations =  5.0

     negative rho (up, down):  1.096E-03 1.096E-03

     total cpu time spent up to now is      652.6 secs

     total energy              =   -1804.46323702 Ry
     estimated scf accuracy    <       0.02859914 Ry

     total magnetization       =    -0.00 Bohr mag/cell
     absolute magnetization    =     0.00 Bohr mag/cell

     iteration #  4     ecut=    50.00 Ry     beta= 0.30
     Davidson diagonalization with overlap
     ethr =  7.31E-06,  avg # of iterations = 14.0

     negative rho (up, down):  1.089E-03 1.089E-03

     total cpu time spent up to now is      673.3 secs

     total energy              =   -1804.46626256 Ry
     estimated scf accuracy    <       0.00882625 Ry

[...]
   -20.1350 -19.9880 -19.9864 -19.9799 -19.9434 -19.9390 -19.8207 -19.6801
   -19.5358 -18.2213 -18.2004 -18.1960 -18.1932 -18.1594 -18.1513 -18.1468
   -18.0421 -17.2550 -17.2499 -17.2362 -17.2360 -17.2292 -17.2238 -17.2139
   -17.1998 -17.1909 -17.1505 -17.1051 -17.0990 -17.0978 -17.0828 -17.0717
   -17.0695 -16.9605 -16.6458 -16.6411 -16.6331 -16.6195 -16.2556 -16.2491
   -16.2282 -16.1892 -16.1767 -16.1594 -15.8006 -15.7891 -15.7714 -15.7275
   -15.2476 -14.3188 -13.8899 -13.8579 -13.8556 -13.8082 -13.7744 -13.7714
   -13.5585 -13.0286 -12.5097 -12.5040 -12.5023 -12.4733 -12.4580 -12.4372
   -12.4089 -12.4077 -12.3569 -12.3321 -12.3088 -12.2752 -12.2218 -12.0980
   -12.0902 -12.0463 -12.0182 -11.9930 -11.9548 -11.8262 -11.6920 -11.5990
   -11.5769 -11.5292 -11.4436 -11.4361 -11.3906 -11.3200 -11.2399 -11.1635
   -11.1627 -11.0640 -11.0402 -11.0322 -11.0059 -11.0052 -10.9839 -10.9627
   -10.9503 -10.9258 -10.9092 -10.8671 -10.8636 -10.8630 -10.8300 -10.7990
   -10.6044 -10.2647  -8.3431  -8.3157  -7.1383  -7.1334  -7.1037  -7.0998
    -7.0888  -7.0711  -7.0694  -7.0636  -7.0587  -7.0564  -7.0547  -7.0528
    -7.0491  -7.0470  -6.7280  -6.6886  -6.5481  -6.5182  -6.4164  -6.3840
    -6.3736  -6.3633  -6.3530  -6.3176  -6.2998  -6.2924  -6.1983  -6.1060
    -5.9669  -5.9475  -5.9334  -5.8739  -5.8595  -5.8381  -5.7884  -5.7826
    -5.7781  -5.7741  -5.7732  -5.7726  -5.7642  -5.7638  -5.7570  -5.7530
    -5.7453  -5.7397  -5.7386  -5.7270  -5.7190  -5.6862  -5.6713  -5.6078
    -5.1579  -5.1528  -5.0193  -5.0113  -5.0111  -5.0058  -4.9986  -4.9745
    -4.9585  -4.9485  -4.9408  -4.9396  -4.9088  -4.8636  -4.8590  -4.8510
    -4.8390  -4.8343  -4.7969  -4.6920  -4.6761  -4.6660  -4.6393  -4.6240
    -4.6226  -4.6067  -4.0586  -3.2096  -1.0089  -0.9655  -0.7521  -0.7402
    -0.7258  -0.7183  -0.7057  -0.6876  -0.6782  -0.6715  -0.6657  -0.6550
    -0.6378  -0.6063  -0.6023  -0.5563  -0.4888  -0.4887  -0.4146  -0.3950
    -0.3939  -0.3553  -0.3391  -0.3024  -0.2945  -0.2769  -0.2768   0.8022
     0.8350   0.8518   0.8524   0.9162   0.9499   0.9663   0.9711   1.0833
     1.1061   1.1322   1.1428

     the spin up/dw Fermi energies are    -3.2096   -3.2096 ev

!    total energy              =   -1804.75551685 Ry
     estimated scf accuracy    <          4.5E-09 Ry
     smearing contrib. (-TS)   =      -0.00005642 Ry
     internal energy E=F+TS    =   -1804.75546043 Ry

     The total energy is F=E-TS. E is the sum of the following terms:
     one-electron contribution =   -3771.79231628 Ry
     hartree contribution      =    1953.53763501 Ry
     xc contribution           =    -440.87764103 Ry
     ewald contribution        =    1055.91286796 Ry
     one-center paw contrib.   =    -601.53600610 Ry

     total magnetization       =    -0.00 Bohr mag/cell
     absolute magnetization    =     0.00 Bohr mag/cell

     convergence has been achieved in  15 iterations

     negative rho (up, down):  1.104E-03 1.104E-03

     Forces acting on atoms (cartesian axes, Ry/au):

     atom    1 type  1   force =    -0.00005060   -0.00002544   -0.00001102
     atom    2 type  1   force =     0.00002150    0.00007338    0.00000956
     atom    3 type  1   force =     0.00001379    0.00007070   -0.00006994
     atom    4 type  1   force =    -0.00008949   -0.00001391   -0.00002648
     atom    5 type  1   force =     0.00008609   -0.00008954    0.00003670
     atom    6 type  1   force =    -0.00002270    0.00001458   -0.00019606
     atom    7 type  1   force =    -0.00002601    0.00002190   -0.00001782
     atom    8 type  1   force =     0.00012333   -0.00011890   -0.00004273
     atom    9 type  1   force =    -0.00011963    0.00002344    0.00011960
     atom   10 type  1   force =     0.00007394   -0.00001153    0.00012746
     atom   11 type  1   force =    -0.00003238    0.00012343    0.00012247
     atom   12 type  1   force =     0.00001829   -0.00007455    0.00013307
     atom   13 type  1   force =     0.00018399   -0.00018616   -0.00011136
     atom   14 type  1   force =     0.00007474   -0.00008263    0.00006947
     atom   15 type  1   force =     0.00006923   -0.00007922    0.00011051
     atom   16 type  1   force =    -0.00009516    0.00008138   -0.00027632
     atom   17 type  1   force =     0.00021945    0.00006435    0.00003940
     atom   18 type  1   force =     0.00001845    0.00004457   -0.00015736
     atom   19 type  1   force =    -0.00002430   -0.00016961   -0.00004903
     atom   20 type  1   force =    -0.00018859   -0.00011522   -0.00006160
     atom   21 type  1   force =    -0.00021059    0.00023316    0.00030019
     atom   22 type  1   force =    -0.00001236   -0.00000594    0.00011342
     atom   23 type  1   force =    -0.00006977    0.00006726    0.00016634
     atom   24 type  1   force =     0.00012277   -0.00014957    0.00001059
     atom   25 type  1   force =     0.00029540    0.00030341    0.00013533
     atom   26 type  1   force =     0.00016054    0.00004623   -0.00004483
     atom   27 type  1   force =    -0.00039153   -0.00034988    0.00016698
     atom   28 type  1   force =    -0.00019074   -0.00026035    0.00008605
     atom   29 type  1   force =     0.00053371   -0.00054585    0.00039322
     atom   30 type  1   force =    -0.00022133    0.00026342    0.00030362
     atom   31 type  1   force =     0.00009820   -0.00008155    0.00024140
     atom   32 type  1   force =    -0.00009552    0.00009729   -0.00003942
     atom   33 type  1   force =     0.00023764    0.00027108   -0.00005861
     atom   34 type  1   force =     0.00002206    0.00012845   -0.00011065
     atom   35 type  1   force =    -0.00034198    0.00003500    0.00001075
     atom   36 type  1   force =    -0.00004452    0.00008729    0.00015232
     atom   37 type  1   force =     0.00014913   -0.00014606    0.00025668
     atom   38 type  1   force =     0.00029723    0.00010945   -0.00017293
     atom   39 type  1   force =     0.00002112    0.00010353    0.00000233
     atom   40 type  1   force =    -0.00017179   -0.00014082   -0.00002532
     atom   41 type  1   force =    -0.00006615    0.00025150    0.00003304
     atom   42 type  1   force =    -0.00008337   -0.00012027    0.00018324
     atom   43 type  1   force =    -0.00014489    0.00008154    0.00000301
     atom   44 type  1   force =     0.00014584    0.00045227   -0.00006496
     atom   45 type  1   force =    -0.00027690   -0.00047755   -0.00006249
     atom   46 type  1   force =    -0.00017298   -0.00011144   -0.00009988
     atom   47 type  1   force =     0.00010568    0.00001423    0.00027300
     atom   48 type  1   force =    -0.00009498   -0.00022413   -0.00015089
     atom   49 type  1   force =     0.00011404   -0.00021374   -0.00035819
     atom   50 type  1   force =     0.00002328    0.00022142   -0.00027537
     atom   51 type  1   force =    -0.00015867    0.00022075    0.00004570
     atom   52 type  1   force =     0.00016796   -0.00017883    0.00027259
     atom   53 type  1   force =    -0.00004853    0.00006179   -0.00056867
     atom   54 type  1   force =     0.00005220   -0.00007386   -0.00014299
     atom   55 type  1   force =     0.00019533   -0.00011498    0.00019606
     atom   56 type  1   force =    -0.00024561   -0.00000123    0.00029438
     atom   57 type  1   force =    -0.00027888   -0.00003496    0.00000361
     atom   58 type  1   force =     0.00018948    0.00003232    0.00015635
     atom   59 type  1   force =     0.00013234    0.00027648    0.00023435
     atom   60 type  1   force =    -0.00003561   -0.00017633    0.00005346
     atom   61 type  1   force =     0.00027195   -0.00017639    0.00008262
     atom   62 type  1   force =    -0.00006127   -0.00012079    0.00007402
     atom   63 type  1   force =     0.00006735   -0.00034191   -0.00014030
     atom   64 type  1   force =     0.00006620    0.00007001   -0.00014591
     atom   65 type  1   force =    -0.00025433   -0.00021520    0.00018170
     atom   66 type  1   force =     0.00020161   -0.00001945    0.00004842
     atom   67 type  1   force =     0.00034579   -0.00001503   -0.00011818
     atom   68 type  1   force =    -0.00009516    0.00005727   -0.00015675
     atom   69 type  1   force =    -0.00000536    0.00014663    0.00000320
     atom   70 type  1   force =     0.00000585   -0.00024765    0.00017892
     atom   71 type  1   force =     0.00018530   -0.00020317    0.00008616
     atom   72 type  1   force =     0.00013691    0.00013570    0.00004409
     atom   73 type  1   force =    -0.00016882    0.00028836   -0.00019204
     atom   74 type  1   force =    -0.00039777    0.00005305    0.00022507
     atom   75 type  1   force =     0.00006106   -0.00005007   -0.00026289
     atom   76 type  1   force =     0.00016727   -0.00019793    0.00002487
     atom   77 type  1   force =    -0.00021164    0.00023607    0.00033990
     atom   78 type  1   force =    -0.00005074    0.00006962   -0.00027631
     atom   79 type  1   force =    -0.00027544    0.00017472   -0.00000124
     atom   80 type  1   force =    -0.00004899    0.00040799    0.00041168
     atom   81 type  1   force =    -0.00004044   -0.00022864   -0.00016954
     atom   82 type  1   force =    -0.00014439    0.00013453   -0.00007566
     atom   83 type  1   force =     0.00018403   -0.00000565   -0.00017180
     atom   84 type  1   force =    -0.00001602    0.00028032   -0.00018726
     atom   85 type  1   force =     0.00027234   -0.00023953   -0.00001728
     atom   86 type  1   force =    -0.00021146    0.00019101    0.00005207
     atom   87 type  1   force =     0.00011818   -0.00010980   -0.00001049
     atom   88 type  1   force =     0.00018102   -0.00011756   -0.00001159
     atom   89 type  1   force =    -0.00041297   -0.00027045   -0.00016973
     atom   90 type  1   force =    -0.00001659   -0.00002223   -0.00003820
     atom   91 type  1   force =     0.00033169    0.00048971   -0.00026355
     atom   92 type  1   force =     0.00014149    0.00016425   -0.00011983
     atom   93 type  1   force =    -0.00027139    0.00026751   -0.00064423
     atom   94 type  1   force =     0.00019646   -0.00018595    0.00007740
     atom   95 type  1   force =     0.00008944   -0.00012229    0.00009001
     atom   96 type  1   force =    -0.00004574    0.00004914   -0.00030942
     atom   97 type  2   force =     0.00001091   -0.00002991    0.00004212
     atom   98 type  3   force =    -0.00026755    0.00020214   -0.00014138

     Total force =     0.003152     Total SCF correction =     0.000038
     Energy error            =      1.8E-05 Ry
     Gradient error          =      6.4E-04 Ry/Bohr

     bfgs converged in  51 scf cycles and  47 bfgs steps
     (criteria: energy <  1.0E-04 Ry, force <  1.0E-03 Ry/Bohr)

     End of BFGS Geometry Optimization

     Final energy             =   -1804.7555168488 Ry

     File ./pwscf.bfgs deleted, as requested
Begin final coordinates

ATOMIC_POSITIONS (angstrom)
C             1.8214211902        1.7867583784        1.7759492963
C            14.0909053700       14.1200148939       14.0889969183
C            14.1103548102       14.0739009410        1.7754152840
C             1.7777213975        1.8061123819       14.0896454207
C            14.0714793634        1.8245563055       14.1553818997
C             1.8036783474       14.0940437669        1.7771394529
C             1.7874199037       14.1112006694       14.0821575016
C            14.1315940720        1.7626047441        1.8182382520
C            10.0624310230       10.0598661181       10.0513305427
C             5.8163735928        5.8524654270        5.8305730553
C             5.8368792047        5.8351657485       10.0513792198
C            10.0449846845       10.0798981335        5.8305593234
C             5.8247973642       10.0722194817        5.8462442869
C            10.0602535889        5.8365505497       10.0373630517
C            10.0366126748        5.8603429024        5.8082165357
C             5.8407713459       10.0570688833       10.0672719048
C             3.4126380888        3.4119368380        3.3984105074
C            12.4814881207       12.5042855912       12.4717059891
C            12.4876839602       12.4815211276        3.3988301955
C             3.3948448490        3.4155515323       12.4733547666
C            12.4710470204        3.4241227493       12.5062807371
C             3.4105630662       12.4879898628        3.4012922965
C             3.4067821795       12.4936834240       12.4778107107
C            12.4228377405        3.4744817299        3.3526493311
C            11.6718260671       11.6828637466       11.6613505067
C             4.2149714735        4.2322267069        4.2148747511
C             4.2153527524        4.2257810274       11.6627226376
C            11.6676393419       11.6792310980        4.2153400464
C             4.2178049223       11.6801953738        4.2246620784
C            11.6659440125        4.2299729860       11.6734474502
C            11.6440459930        4.2533819041        4.1531534867
C             4.2243693688       11.6756434268       11.6728441696
C             0.3249703087        1.9880919121        1.9799718716
C            15.5894526898       13.9129723006       13.8701892218
C            15.6091200494       13.8625376950        1.9867324616
C             0.2719400288        2.0230783836       13.9086515635
C            15.5732713672        2.0305682625       13.9368122956
C             0.3067913863       13.8752593370        1.9886691152
C             0.2874912183       13.9043254097       13.8706472754
C            15.6276117522        1.9678298066        1.9726701963
C             2.0329281378        0.2878983873        1.9871209817
C            13.8730091646       15.6255152993       13.9085203168
C             1.9955353984       15.6108491310       13.8709359920
C            13.9268373362        0.2664888351        1.9726777999
C            13.9083627841       15.5701786033        1.9796512651
C             1.9862617655        0.3078674396       13.8711525630
C            13.8653021485        0.3230765252       13.9363471455
C             2.0209602110       15.5911657477        1.9892543246
C             2.0320025101        2.0046646896        0.2795174713
C            13.8870691681       13.8808072432       15.5824216622
C            13.8496113812        2.0448326213       15.6579444160
C             2.0105217263       13.8886103097        0.2765240665
C             2.0026745000       13.8965530280       15.5797352443
C            13.8381979259        2.0559407523        0.3578889117
C            13.8936104785       13.8631976730        0.2787416431
C             2.0159322949        2.0110455917       15.5830318471
C             8.5637840902       10.2682895101       10.2690016386
C             7.3131897272        5.6470713457        5.6129853166
C             7.3376233964        5.6216752817       10.2547862816
C             8.5453323618       10.2930705000        5.6263974115
C             7.3224400331       10.2864190253        5.6317411377
C             8.5608706989        5.6252345649       10.2489721457
C             8.5358660056        5.6532518394        5.6118773609
C             7.3406847623       10.2680868096       10.2750634645
C            10.2756195496        8.5590610366       10.2556327324
C             5.6027728117        7.3519338055        5.6263451718
C            10.2437238188        7.3607544684        5.6113071893
C             5.6310051174        8.5570048368       10.2754197531
C             5.6302042383        7.3339391378       10.2696410050
C            10.2503657330        8.5833660509        5.6128123980
C             5.6096083406        8.5747743072        5.6319731247
C            10.2723681732        7.3357604001       10.2500886583
C            10.2683378553       10.2761722710        8.5526096238
C             5.6137847728        5.6355535939        7.3297271214
C             5.6188183381       10.2789038909        7.3468729762
C            10.2698858927        5.6284177126        8.5340880696
C            10.2621947840        5.6360180750        7.3095604662
C             5.6259117761       10.2720863777        8.5697718133
C             5.6202175498        5.6304674679        8.5526431732
C            10.2630362891       10.2824999791        7.3296208739
C             2.7074152924        2.6879890800        2.6780370190
C            13.1947658612       13.2281517876       13.1849836623
C            13.2104285826       13.1868919365        2.6774888257
C             2.6706923782        2.7017750122       13.1859903380
C            13.1788145189        2.7164541958       13.2422456843
C             2.6989428623       13.1988436860        2.6745519263
C             2.6855333325       13.2136934697       13.1867609742
C            13.3563122900        2.5375818778        3.1034169049
C            10.9592558575       10.9592046856       10.9472867503
C             4.9231616919        4.9546341013        4.9339240825
C             4.9379379043        4.9382539235       10.9476068800
C            10.9439858874       10.9715998546        4.9337757547
C             4.9292769619       10.9676134552        4.9502881100
C            10.9554912692        4.9402038610       10.9423503751
C            10.9174991372        4.9801636235        4.8947453532
C             4.9438002608       10.9544413036       10.9633870797
O            13.9824616758        1.9089085055        4.1657126280
H            13.6235954985        2.2707899183        4.9971074862
End final coordinates



     Writing all to output data dir ./pwscf.save/

     init_run     :     14.10s CPU     14.65s WALL (       1 calls)
     electrons    :   7785.88s CPU   8153.19s WALL (      52 calls)
     update_pot   :    285.80s CPU    290.53s WALL (      50 calls)
     forces       :    578.72s CPU    602.67s WALL (      52 calls)

     Called by init_run:
     wfcinit      :      7.00s CPU      7.26s WALL (       1 calls)
     potinit      :      6.45s CPU      6.62s WALL (       2 calls)
     hinit0       :      2.60s CPU      2.64s WALL (       1 calls)

     Called by electrons:
     c_bands      :   5740.63s CPU   5897.51s WALL (     443 calls)
     sum_band     :   1118.47s CPU   1193.95s WALL (     443 calls)
     v_of_rho     :    380.71s CPU    409.29s WALL (     464 calls)
     newd         :    289.48s CPU    347.13s WALL (     464 calls)
     PAW_pot      :    282.67s CPU    284.25s WALL (     514 calls)
     mix_rho      :     56.96s CPU     61.27s WALL (     443 calls)

     Called by c_bands:
     init_us_2    :     66.99s CPU     67.76s WALL (    1978 calls)
     init_us_2:cp :     66.96s CPU     67.76s WALL (    1978 calls)
     regterg      :   5644.33s CPU   5799.83s WALL (     886 calls)

     Called by *egterg:
     rdiaghg      :    130.67s CPU    132.65s WALL (    4113 calls)
     h_psi        :   3131.57s CPU   3228.50s WALL (    4279 calls)
     s_psi        :    630.66s CPU    634.30s WALL (    4279 calls)
     g_psi        :      9.68s CPU      9.80s WALL (    3391 calls)

     Called by h_psi:
     h_psi:calbec :    638.80s CPU    643.74s WALL (    4279 calls)
     vloc_psi     :   1835.80s CPU   1923.96s WALL (    4279 calls)
     add_vuspsi   :    630.65s CPU    634.24s WALL (    4279 calls)

     General routines
     calbec       :   1028.65s CPU   1036.57s WALL (    5681 calls)
     fft          :    291.16s CPU    321.46s WALL (   10270 calls)
     ffts         :     10.61s CPU     12.27s WALL (    1814 calls)
     fftw         :   1533.39s CPU   1621.31s WALL (  620612 calls)
     interpolate  :     32.90s CPU     36.42s WALL (     928 calls)

     Parallel routines

     PWSCF        :      2h26m CPU      2h33m WALL


   This run was terminated on:  15:26:56  24May2025            

=------------------------------------------------------------------------------=
   JOB DONE.
=------------------------------------------------------------------------------=
