
     Program PWSCF v.7.1 starts on  6May2025 at 21: 6: 1 

     This program is part of the open-source Quantum ESPRESSO suite
     for quantum simulation of materials; please cite
         "P. Giannozzi et al., J. Phys.:Condens. Matter 21 395502 (2009);
         "P. Giannozzi et al., J. Phys.:Condens. Matter 29 465901 (2017);
         "P. Giannozzi et al., J. Chem. Phys. 152 154105 (2020);
          URL http://www.quantum-espresso.org", 
     in publications or presentations arising from this work. More details at
     http://www.quantum-espresso.org/quote

     Parallel version (MPI), running on    16 processors

     MPI processes distributed on     1 nodes
     247852 MiB available memory on the printing compute node when the environment starts

     Reading input from input.pwi
Warning: card &CELL ignored
Warning: card / ignored
Warning: card &FCP ignored
Warning: card / ignored
Warning: card &RISM ignored
Warning: card / ignored

     Current dimensions of program PWSCF are:
     Max number of different atomic species (ntypx) = 10
     Max number of k-points (npk) =  40000
     Max angular momentum in pseudopotentials (lmaxx) =  4
     file C.pbe-n-kjpaw_psl.1.0.0.UPF: wavefunction(s)  2S 2P renormalized
     file O.pbe-n-kjpaw_psl.0.1.UPF: wavefunction(s)  2P renormalized

     IMPORTANT: XC functional enforced from input :
     Exchange-correlation= PBE
                           (   1   4   3   4   0   0   0)
     Any further DFT definition will be discarded
     Please, verify this is what you really want


     gamma-point specific algorithms are used

     R & G space division:  proc/nbgrp/npool/nimage =      16
     Subspace diagonalization in iterative solution of the eigenvalue problem:
     a serial algorithm will be used


     Parallelization info
     --------------------
     sticks:   dense  smooth     PW     G-vecs:    dense   smooth      PW
     Min         356     177     43                70548    24945    3112
     Max         358     180     46                70590    24972    3130
     Sum        5721    2869    717              1129231   399349   49901

     Using Slab Decomposition



     bravais-lattice index     =            0
     lattice parameter (alat)  =      13.4114  a.u.
     unit-cell volume          =    8357.3659 (a.u.)^3
     number of atoms/cell      =           33
     number of atomic types    =            2
     number of electrons       =       134.00 (up:  67.00, down:  67.00)
     number of Kohn-Sham states=           80
     kinetic-energy cutoff     =      50.0000  Ry
     charge density cutoff     =     400.0000  Ry
     scf convergence threshold =      1.0E-06
     mixing beta               =       0.3000
     number of iterations used =            8  plain     mixing
     energy convergence thresh.=      1.0E-04
     force convergence thresh. =      1.0E-03
     Exchange-correlation= PBE
                           (   1   4   3   4   0   0   0)
     nstep                     =         1000


     celldm(1)=  13.411386  celldm(2)=   0.000000  celldm(3)=   0.000000
     celldm(4)=   0.000000  celldm(5)=   0.000000  celldm(6)=   0.000000

     crystal axes: (cart. coord. in units of alat)
               a(1) = (   1.000000   0.000000   0.000000 )  
               a(2) = (   0.000000   1.000000   0.000000 )  
               a(3) = (   0.000000   0.000000   3.464562 )  

     reciprocal axes: (cart. coord. in units 2 pi/alat)
               b(1) = (  1.000000  0.000000  0.000000 )  
               b(2) = (  0.000000  1.000000  0.000000 )  
               b(3) = (  0.000000  0.000000  0.288637 )  


     PseudoPot. # 1 for C  read from file:
     /home/ana.bisette/espresso/pseudo/C.pbe-n-kjpaw_psl.1.0.0.UPF
     MD5 check sum: 5d2aebdfa2cae82b50a7e79e9516da0f
     Pseudo is Projector augmented-wave + core cor, Zval =  4.0
     Generated using "atomic" code by A. Dal Corso  v.5.1
     Shape of augmentation charge: PSQ
     Using radial grid of 1073 points,  4 beta functions with: 
                l(1) =   0
                l(2) =   0
                l(3) =   1
                l(4) =   1
     Q(r) pseudized with 0 coefficients 


     PseudoPot. # 2 for O  read from file:
     /home/ana.bisette/espresso/pseudo/O.pbe-n-kjpaw_psl.0.1.UPF
     MD5 check sum: 0234752ac141de4415c5fc33072bef88
     Pseudo is Projector augmented-wave + core cor, Zval =  6.0
     Generated using "atomic" code by A. Dal Corso  v.5.0.99 svn rev. 10869
     Shape of augmentation charge: BESSEL
     Using radial grid of 1095 points,  4 beta functions with: 
                l(1) =   0
                l(2) =   0
                l(3) =   1
                l(4) =   1
     Q(r) pseudized with 0 coefficients 


     atomic species   valence    mass     pseudopotential
        C              4.00    12.01100     C ( 1.00)
        O              6.00    15.99900     O ( 1.00)

     Starting magnetic structure 
     atomic species   magnetization
        C            0.000
        O            0.000

     No symmetry found



   Cartesian axes

     site n.     atom                  positions (alat units)
         1           C   tau(   1) = (   0.6547837   0.7372129   0.9093983  )
         2           C   tau(   2) = (   0.4704805   0.2299563   1.8767085  )
         3           C   tau(   3) = (   0.4773848   0.7342539   1.2126251  )
         4           C   tau(   4) = (   0.3047767   0.7372129   0.9093983  )
         5           C   tau(   5) = (   0.6553473   0.2227702   2.5550232  )
         6           C   tau(   6) = (   0.4703396   0.7301677   1.5878540  )
         7           C   tau(   7) = (   0.4778075   0.2257292   2.2517965  )
         8           C   tau(   8) = (   0.3051994   0.2227702   2.5551642  )
         9           C   tau(   9) = (   0.4703396   0.5550232   1.6888826  )
        10           C   tau(  10) = (   0.9798506   0.7372129   0.7217134  )
        11           C   tau(  11) = (   0.4741440   0.7318585   1.3856559  )
        12           C   tau(  12) = (   0.4703396   0.9050303   1.6890235  )
        13           C   tau(  13) = (  -0.0104269   0.5548823   0.0432577  )
        14           C   tau(  14) = (   0.4796393   0.7372129   1.0104269  )
        15           C   tau(  15) = (  -0.0145132   0.7318585   0.3464844  )
        16           C   tau(  16) = (  -0.0104269   0.9050303   0.0432577  )
        17           C   tau(  17) = (  -0.0104269   0.4051007   3.4211639  )
        18           C   tau(  18) = (   0.4802029   0.2227702   2.4539946  )
        19           C   tau(  19) = (  -0.0140905   0.2281246   3.1180781  )
        20           C   tau(  20) = (  -0.0104269   0.0549528   3.4213048  )
        21           C   tau(  21) = (   0.4703396   0.4051007   1.7756799  )
        22           C   tau(  22) = (  -0.0197266   0.2227702   2.7428491  )
        23           C   tau(  23) = (   0.4744258   0.2281246   2.0787657  )
        24           C   tau(  24) = (   0.4703396   0.0549528   1.7755390  )
        25           C   tau(  25) = (   0.8051289   0.2227702   2.6416796  )
        26           C   tau(  26) = (  -0.0105678   0.7300268   0.1444272  )
        27           C   tau(  27) = (  -0.0173313   0.2257292   2.9449063  )
        28           C   tau(  28) = (   0.1552769   0.2227702   2.6416796  )
        29           C   tau(  29) = (   0.8047062   0.7372129   0.8227420  )
        30           C   tau(  30) = (  -0.0102860   0.2298154   3.3201353  )
        31           C   tau(  31) = (  -0.0178949   0.7342539   0.5196562  )
        32           C   tau(  32) = (   0.1547133   0.7372129   0.8228829  )
        33           O   tau(  33) = (   0.4476539   0.5905312   1.8758630  )

     number of k points=     1  Gaussian smearing, width (Ry)=  0.0001
                       cart. coord. in units 2pi/alat
        k(    1) = (   0.0000000   0.0000000   0.0000000), wk =   1.0000000

     Dense  grid:   564616 G-vectors     FFT dimensions: (  90,  90, 300)

     Smooth grid:   199675 G-vectors     FFT dimensions: (  64,  64, 216)

     Estimated max dynamical RAM per process >     130.06 MB

     Estimated total dynamical RAM >       2.03 GB

     Check: negative core charge=   -0.000003
     Generating pointlists ...
     new r_m :   0.0714 (alat units)  0.9573 (a.u.) for type    1
     new r_m :   0.0791 (alat units)  1.0604 (a.u.) for type    2

     Initial potential from superposition of free atoms

     starting charge     133.9987, renormalised to     134.0000

     negative rho (up, down):  5.382E-08 5.382E-08
     Starting wfcs are  132 randomized atomic wfcs
     Checking if some PAW data can be deallocated... 

     total cpu time spent up to now is       11.7 secs

     Self-consistent Calculation

     iteration #  1     ecut=    50.00 Ry     beta= 0.30
     Davidson diagonalization with overlap
     ethr =  1.00E-02,  avg # of iterations =  2.0

     negative rho (up, down):  2.937E-07 2.997E-07

     total cpu time spent up to now is       20.7 secs

     total energy              =    -629.97016170 Ry
     estimated scf accuracy    <       3.76853433 Ry

     total magnetization       =    -0.00 Bohr mag/cell
     absolute magnetization    =     0.04 Bohr mag/cell

     iteration #  2     ecut=    50.00 Ry     beta= 0.30
     Davidson diagonalization with overlap
     ethr =  2.81E-03,  avg # of iterations =  1.0

     negative rho (up, down):  1.241E-05 1.246E-05

     total cpu time spent up to now is       27.9 secs

     total energy              =    -629.35221673 Ry
     estimated scf accuracy    <       1.23013867 Ry

     total magnetization       =     0.00 Bohr mag/cell
     absolute magnetization    =     0.03 Bohr mag/cell

     iteration #  3     ecut=    50.00 Ry     beta= 0.30
     Davidson diagonalization with overlap
     ethr =  9.18E-04,  avg # of iterations =  2.0

     negative rho (up, down):  1.150E-05 1.155E-05

     total cpu time spent up to now is       36.0 secs

     total energy              =    -629.60245243 Ry
     estimated scf accuracy    <       0.05915733 Ry

     total magnetization       =     0.00 Bohr mag/cell
     absolute magnetization    =     0.02 Bohr mag/cell

     iteration #  4     ecut=    50.00 Ry     beta= 0.30
     Davidson diagonalization with overlap
     c_bands:  2 eigenvalues not converged
     c_bands:  2 eigenvalues not converged
     ethr =  4.41E-05,  avg # of iterations = 20.0

     negative rho (up, down):  2.097E-05 2.098E-05

     total cpu time spent up to now is       46.4 secs

     total energy              =    -629.60258208 Ry
     estimated scf accuracy    <       0.01913634 Ry

     total magnetization       =     0.00 Bohr mag/cell
     absolute magnetization    =     0.01 Bohr mag/cell

     iteration #  5     ecut=    50.00 Ry     beta= 0.30
     Davidson diagonalization with overlap
     ethr =  1.43E-05,  avg # of iterations =  6.0

     negative rho (up, down):  2.763E-05 2.762E-05

     total cpu time spent up to now is       55.0 secs

     total energy              =    -629.60517360 Ry
     estimated scf accuracy    <       0.00605650 Ry

     total magnetization       =    -0.00 Bohr mag/cell
     absolute magnetization    =     0.01 Bohr mag/cell

     iteration #  6     ecut=    50.00 Ry     beta= 0.30
     Davidson diagonalization with overlap
     ethr =  4.52E-06,  avg # of iterations =  2.0

     negative rho (up, down):  4.587E-05 4.585E-05

     total cpu time spent up to now is       62.2 secs

     total energy              =    -629.60515977 Ry
     estimated scf accuracy    <       0.00152274 Ry

     total magnetization       =     0.00 Bohr mag/cell
     absolute magnetization    =     0.01 Bohr mag/cell

     iteration #  7     ecut=    50.00 Ry     beta= 0.30
     Davidson diagonalization with overlap
     ethr =  1.14E-06,  avg # of iterations =  3.0

     negative rho (up, down):  5.311E-05 5.308E-05

     total cpu time spent up to now is       70.7 secs

     total energy              =    -629.60527376 Ry
     estimated scf accuracy    <       0.00107320 Ry

     total magnetization       =    -0.00 Bohr mag/cell
     absolute magnetization    =     0.01 Bohr mag/cell

     iteration #  8     ecut=    50.00 Ry     beta= 0.30
     Davidson diagonalization with overlap
     ethr =  8.01E-07,  avg # of iterations =  2.0

     negative rho (up, down):  5.438E-05 5.437E-05

     total cpu time spent up to now is       78.7 secs

     total energy              =    -629.60543570 Ry
     estimated scf accuracy    <       0.00003366 Ry

     total magnetization       =     0.00 Bohr mag/cell
     absolute magnetization    =     0.01 Bohr mag/cell

     iteration #  9     ecut=    50.00 Ry     beta= 0.30
     Davidson diagonalization with overlap
     ethr =  2.51E-08,  avg # of iterations =  5.0

     negative rho (up, down):  5.469E-05 5.468E-05

     total cpu time spent up to now is       88.5 secs

     total energy              =    -629.60544965 Ry
     estimated scf accuracy    <       0.00005241 Ry

     total magnetization       =     0.00 Bohr mag/cell
     absolute magnetization    =     0.00 Bohr mag/cell

     iteration # 10     ecut=    50.00 Ry     beta= 0.30
     Davidson diagonalization with overlap
     ethr =  2.51E-08,  avg # of iterations =  4.0

     negative rho (up, down):  5.528E-05 5.528E-05

     total cpu time spent up to now is       96.8 secs

     total energy              =    -629.60545672 Ry
     estimated scf accuracy    <       0.00000271 Ry

     total magnetization       =     0.00 Bohr mag/cell
     absolute magnetization    =     0.00 Bohr mag/cell

     iteration # 11     ecut=    50.00 Ry     beta= 0.30
     Davidson diagonalization with overlap
     ethr =  2.02E-09,  avg # of iterations =  4.0

     negative rho (up, down):  5.560E-05 5.560E-05

     Magnetic moment per site  (integrated on atomic sphere of radius R)
     atom   1 (R=0.071)  charge=  1.1824  magn= -0.0000
     atom   2 (R=0.071)  charge=  1.1348  magn=  0.0000
     atom   3 (R=0.071)  charge=  1.1872  magn= -0.0000
     atom   4 (R=0.071)  charge=  1.1819  magn= -0.0000
     atom   5 (R=0.071)  charge=  1.1838  magn= -0.0001
     atom   6 (R=0.071)  charge=  1.1427  magn= -0.0000
     atom   7 (R=0.071)  charge=  1.1828  magn=  0.0000
     atom   8 (R=0.071)  charge=  1.1818  magn= -0.0001
     atom   9 (R=0.071)  charge=  1.2180  magn=  0.0000
     atom  10 (R=0.071)  charge=  1.1318  magn= -0.0000
     atom  11 (R=0.071)  charge=  1.1856  magn=  0.0000
     atom  12 (R=0.071)  charge=  1.1786  magn=  0.0000
     atom  13 (R=0.071)  charge=  1.1835  magn=  0.0000
     atom  14 (R=0.071)  charge=  1.1313  magn=  0.0000
     atom  15 (R=0.071)  charge=  1.1840  magn=  0.0000
     atom  16 (R=0.071)  charge=  1.1819  magn= -0.0000
     atom  17 (R=0.071)  charge=  1.1816  magn= -0.0001
     atom  18 (R=0.071)  charge=  1.1320  magn=  0.0000
     atom  19 (R=0.071)  charge=  1.1827  magn= -0.0000
     atom  20 (R=0.071)  charge=  1.1840  magn=  0.0000
     atom  21 (R=0.071)  charge=  1.1882  magn= -0.0000
     atom  22 (R=0.071)  charge=  1.1316  magn= -0.0000
     atom  23 (R=0.071)  charge=  1.1839  magn= -0.0000
     atom  24 (R=0.071)  charge=  1.1833  magn= -0.0000
     atom  25 (R=0.071)  charge=  1.1817  magn=  0.0001
     atom  26 (R=0.071)  charge=  1.1312  magn=  0.0000
     atom  27 (R=0.071)  charge=  1.1830  magn=  0.0000
     atom  28 (R=0.071)  charge=  1.1839  magn=  0.0001
     atom  29 (R=0.071)  charge=  1.1815  magn=  0.0000
     atom  30 (R=0.071)  charge=  1.1315  magn=  0.0000
     atom  31 (R=0.071)  charge=  1.1833  magn= -0.0000
     atom  32 (R=0.071)  charge=  1.1829  magn=  0.0000
     atom  33 (R=0.079)  charge=  3.5623  magn=  0.0000

     total cpu time spent up to now is      105.1 secs

     End of self-consistent calculation

 ------ SPIN UP ------------


          k = 0.0000 0.0000 0.0000 ( 24951 PWs)   bands (ev):

   -26.3797 -19.2208 -19.1454 -19.0547 -18.8885 -18.6775 -18.4659 -18.3208
   -18.1226 -16.9656 -16.9413 -16.9024 -16.8586 -16.5950 -16.4871 -16.1435
   -15.8135 -15.3325 -14.8736 -14.6759 -14.3382 -13.1132 -12.3356 -12.3040
   -12.2852 -12.2516 -12.1053 -11.9180 -11.5917 -11.0762 -10.9851 -10.6846
   -10.5893 -10.4884 -10.4633 -10.4255 -10.4013  -9.6225  -8.3486  -7.8369
    -7.8134  -7.7813  -7.1287  -6.9257  -6.6341  -6.6237  -6.5902  -6.5252
    -5.5851  -5.5245  -5.5103  -5.4543  -5.3871  -5.3099  -5.2883  -5.2532
    -5.1997  -5.1552  -5.1163  -4.9484  -4.7092  -4.6033  -4.0924  -3.9474
    -3.8356  -3.8258  -3.3013  -1.0540  -1.0318  -0.9529  -0.9149   0.6954
     0.7891   0.8765   1.1519   1.2801   1.3409   1.5280   1.5533   1.6210

 ------ SPIN DOWN ----------


          k = 0.0000 0.0000 0.0000 ( 24951 PWs)   bands (ev):

   -26.3797 -19.2208 -19.1454 -19.0548 -18.8885 -18.6775 -18.4659 -18.3208
   -18.1226 -16.9656 -16.9414 -16.9024 -16.8586 -16.5950 -16.4872 -16.1435
   -15.8135 -15.3325 -14.8735 -14.6759 -14.3382 -13.1132 -12.3356 -12.3040
   -12.2852 -12.2517 -12.1053 -11.9180 -11.5917 -11.0762 -10.9851 -10.6846
   -10.5893 -10.4883 -10.4634 -10.4256 -10.4013  -9.6225  -8.3485  -7.8368
    -7.8135  -7.7814  -7.1287  -6.9257  -6.6341  -6.6237  -6.5902  -6.5252
    -5.5851  -5.5245  -5.5103  -5.4543  -5.3871  -5.3099  -5.2884  -5.2532
    -5.1997  -5.1552  -5.1163  -4.9484  -4.7093  -4.6033  -4.0924  -3.9474
    -3.8356  -3.8257  -3.3014  -1.0541  -1.0318  -0.9528  -0.9149   0.6954
     0.7891   0.8764   1.1519   1.2801   1.3409   1.5280   1.5533   1.6206

     the spin up/dw Fermi energies are    -1.8689   -1.8689 ev

!    total energy              =    -629.60545748 Ry
     total all-electron energy =     -2586.903480 Ry
     estimated scf accuracy    <       0.00000019 Ry
     smearing contrib. (-TS)   =      -0.00000000 Ry
     internal energy E=F+TS    =    -629.60545748 Ry

     The total energy is F=E-TS. E is the sum of the following terms:
     one-electron contribution =    -786.64638880 Ry
     hartree contribution      =     419.54697887 Ry
     xc contribution           =    -152.49078423 Ry
     ewald contribution        =      96.90822731 Ry
     one-center paw contrib.   =    -206.92349063 Ry

     total magnetization       =     0.00 Bohr mag/cell
     absolute magnetization    =     0.00 Bohr mag/cell

     convergence has been achieved in  11 iterations

     negative rho (up, down):  5.560E-05 5.560E-05

     Forces acting on atoms (cartesian axes, Ry/au):

     atom    1 type  1   force =    -0.08419920    0.00036995    0.05055977
     atom    2 type  1   force =     0.00588212   -0.01820913   -0.08123036
     atom    3 type  1   force =     0.00123947    0.00166372    0.00149142
     atom    4 type  1   force =     0.08212774    0.00026642    0.04675531
     atom    5 type  1   force =    -0.08669172   -0.00028120   -0.05352735
     atom    6 type  1   force =     0.01310078   -0.02108242   -0.05777746
     atom    7 type  1   force =     0.00118652   -0.00136242   -0.00883958
     atom    8 type  1   force =     0.08554122   -0.00037390   -0.05050228
     atom    9 type  1   force =    -0.00737982    0.39610514   -0.21028090
     atom   10 type  1   force =     0.00067349   -0.00237238    0.07120689
     atom   11 type  1   force =     0.00338285    0.00502368   -0.00675799
     atom   12 type  1   force =    -0.00564813   -0.09249211   -0.02662071
     atom   13 type  1   force =     0.00023762    0.08700138    0.05291641
     atom   14 type  1   force =    -0.00063822   -0.00277227   -0.06781938
     atom   15 type  1   force =     0.00128767   -0.00115440    0.01011934
     atom   16 type  1   force =     0.00026447   -0.08577470    0.05023949
     atom   17 type  1   force =     0.00057474   -0.08727049   -0.05303247
     atom   18 type  1   force =    -0.00120041    0.00192282    0.07068031
     atom   19 type  1   force =     0.00139572    0.00083719   -0.01033915
     atom   20 type  1   force =     0.00061123    0.08487971   -0.05007519
     atom   21 type  1   force =    -0.00957024   -0.32406350    0.23260330
     atom   22 type  1   force =     0.00124765    0.00239974   -0.07105507
     atom   23 type  1   force =    -0.00485710    0.00746035    0.00477244
     atom   24 type  1   force =     0.00328043    0.07573200    0.04127552
     atom   25 type  1   force =     0.08715614   -0.00034164    0.05342120
     atom   26 type  1   force =    -0.00282310    0.00087018   -0.07086096
     atom   27 type  1   force =    -0.00139879   -0.00110490    0.01009606
     atom   28 type  1   force =    -0.08570882   -0.00030639    0.04976844
     atom   29 type  1   force =     0.08389481    0.00012618   -0.05176201
     atom   30 type  1   force =    -0.00334635    0.00061116    0.07104975
     atom   31 type  1   force =    -0.00097749    0.00116486   -0.01066495
     atom   32 type  1   force =    -0.08244721    0.00047409   -0.04860891
     atom   33 type  2   force =     0.00380194   -0.02794669    0.11279906

     Total force =     0.741941     Total SCF correction =     0.000415

     BFGS Geometry Optimization
     Energy error            =      0.0E+00 Ry
     Gradient error          =      4.0E-01 Ry/Bohr

     number of scf cycles    =   1
     number of bfgs steps    =   0

     energy             new  =    -629.6054574805 Ry

     new trust radius        =       0.4485217951 bohr
     new conv_thr            =       0.0000010000 Ry


ATOMIC_POSITIONS (angstrom)
C             4.6024437008        5.2321957710        6.4807550798
C             3.3421126824        1.6223641442       13.2760147466
C             3.3886559011        5.2118804038        8.6067892250
C             2.2064601295        5.2321409822        6.4787418459
C             4.6051247187        1.5808511948       18.1046745481
C             3.3449326369        5.1708436628       11.2384254854
C             3.3916278808        1.6012790371       15.9763222976
C             2.2112664617        1.5808021416       18.1072753420
C             3.3340947679        4.1486098120       11.8747241374
C             6.9543563954        5.2307445883        5.1596810621
C             3.3667901278        5.1966584152        9.8304238232
C             3.3350111374        6.3740552810       11.9729129263
C            -0.0738742553        3.9840391488        0.3350021594
C             3.4036622661        5.2305329775        7.1351115313
C            -0.1023185969        5.1933891155        2.4643549245
C            -0.0738600468        6.3776099817        0.3335855952
C            -0.0736958631        2.8288184431       24.2519364276
C             3.4073647722        1.5820175144       17.4534024098
C            -0.0992614166        1.6194430231       22.1235287563
C            -0.0736765525        0.4349164065       24.2545013503
C             3.3329356470        2.7035129812       12.7250883638
C            -0.1393397719        1.5822698851       19.4283992756
C             3.3644297339        1.6229478477       14.7555254656
C             3.3397359309        0.4300756469       12.6228420667
C             5.7601210407        1.5808192138       18.7762692812
C            -0.0764939208        5.1814604781        0.9875019946
C            -0.1237402089        1.6014153131       20.9053426064
C             1.0566448436        1.5808378645       18.7743363251
C             5.7553952197        5.2320667722        5.8116087264
C            -0.0747708125        1.6313234098       23.6005979068
C            -0.1275172664        5.2116164169        3.6823563538
C             1.0543708148        5.2322508774        5.8142772702
O             3.1790119025        4.1762112486       13.3726906900



     Writing config-only to output data dir ./pwscf.save/
     NEW-OLD atomic charge density approx. for the potential

     Check: negative core charge=   -0.000003

     negative rho (up, down):  6.458E-05 6.458E-05
     Generating pointlists ...
     new r_m :   0.0700 (alat units)  0.9386 (a.u.) for type    1

     total cpu time spent up to now is      119.9 secs

     Self-consistent Calculation

     iteration #  1     ecut=    50.00 Ry     beta= 0.30
     Davidson diagonalization with overlap
     c_bands:  2 eigenvalues not converged
     c_bands:  3 eigenvalues not converged
     ethr =  1.00E-06,  avg # of iterations = 20.0

     negative rho (up, down):  5.337E-05 5.337E-05

     total cpu time spent up to now is      141.3 secs

     total energy              =    -629.28989497 Ry
     estimated scf accuracy    <       0.37327126 Ry

     total magnetization       =    -0.00 Bohr mag/cell
     absolute magnetization    =     0.00 Bohr mag/cell

     iteration #  2     ecut=    50.00 Ry     beta= 0.30
     Davidson diagonalization with overlap
     ethr =  2.79E-04,  avg # of iterations =  2.0

     negative rho (up, down):  4.963E-05 4.973E-05

     total cpu time spent up to now is      148.7 secs

     total energy              =    -629.29597199 Ry
     estimated scf accuracy    <       0.07089548 Ry

     total magnetization       =    -0.00 Bohr mag/cell
     absolute magnetization    =     0.00 Bohr mag/cell

     iteration #  3     ecut=    50.00 Ry     beta= 0.30
     Davidson diagonalization with overlap
     ethr =  5.29E-05,  avg # of iterations =  2.0

     negative rho (up, down):  5.083E-05 5.089E-05

     total cpu time spent up to now is      156.3 secs

     total energy              =    -629.30033231 Ry
     estimated scf accuracy    <       0.01369493 Ry

     total magnetization       =     0.00 Bohr mag/cell
     absolute magnetization    =     0.00 Bohr mag/cell

     iteration #  4     ecut=    50.00 Ry     beta= 0.30
     Davidson diagonalization with overlap
     c_bands:  1 eigenvalues not converged
     ethr =  1.02E-05,  avg # of iterations = 11.0

     negative rho (up, down):  5.324E-05 5.328E-05

     total cpu time spent up to now is      165.1 secs

     total energy              =    -629.30088766 Ry
     estimated scf accuracy    <       0.00351575 Ry

     total magnetization       =     0.00 Bohr mag/cell
     absolute magnetization    =     0.01 Bohr mag/cell

     iteration #  5     ecut=    50.00 Ry     beta= 0.30
     Davidson diagonalization with overlap
     c_bands:  1 eigenvalues not converged
     c_bands:  1 eigenvalues not converged
     ethr =  2.62E-06,  avg # of iterations = 20.0

     negative rho (up, down):  5.232E-05 5.239E-05

     total cpu time spent up to now is      175.0 secs

     total energy              =    -629.30125351 Ry
     estimated scf accuracy    <       0.00046960 Ry

     total magnetization       =     0.00 Bohr mag/cell
     absolute magnetization    =     0.00 Bohr mag/cell

     iteration #  6     ecut=    50.00 Ry     beta= 0.30
     Davidson diagonalization with overlap
     c_bands:  1 eigenvalues not converged
     ethr =  3.50E-07,  avg # of iterations = 14.0

     negative rho (up, down):  5.123E-05 5.130E-05

     total cpu time spent up to now is      184.3 secs

     total energy              =    -629.30130199 Ry
     estimated scf accuracy    <       0.00010318 Ry

     total magnetization       =    -0.00 Bohr mag/cell
     absolute magnetization    =     0.00 Bohr mag/cell

     iteration #  7     ecut=    50.00 Ry     beta= 0.30
     Davidson diagonalization with overlap
     ethr =  7.70E-08,  avg # of iterations =  5.0

     negative rho (up, down):  5.056E-05 5.062E-05

     total cpu time spent up to now is      192.6 secs

     total energy              =    -629.30131523 Ry
     estimated scf accuracy    <       0.00002030 Ry

     total magnetization       =    -0.00 Bohr mag/cell
     absolute magnetization    =     0.00 Bohr mag/cell

     iteration #  8     ecut=    50.00 Ry     beta= 0.30
     Davidson diagonalization with overlap
     ethr =  1.52E-08,  avg # of iterations =  4.0

     negative rho (up, down):  4.984E-05 4.988E-05

     total cpu time spent up to now is      200.4 secs

     total energy              =    -629.30131822 Ry
     estimated scf accuracy    <       0.00000178 Ry

     total magnetization       =    -0.00 Bohr mag/cell
     absolute magnetization    =     0.00 Bohr mag/cell

     iteration #  9     ecut=    50.00 Ry     beta= 0.30
     Davidson diagonalization with overlap
     ethr =  1.33E-09,  avg # of iterations =  4.0

     negative rho (up, down):  4.914E-05 4.914E-05

     Magnetic moment per site  (integrated on atomic sphere of radius R)
     atom   1 (R=0.070)  charge=  1.0900  magn= -0.0000
     atom   2 (R=0.070)  charge=  1.1894  magn=  0.0000
     atom   3 (R=0.070)  charge=  1.1189  magn=  0.0000
     atom   4 (R=0.070)  charge=  1.0923  magn= -0.0000
     atom   5 (R=0.070)  charge=  1.0894  magn= -0.0000
     atom   6 (R=0.070)  charge=  1.2032  magn=  0.0000
     atom   7 (R=0.070)  charge=  1.1175  magn= -0.0000
     atom   8 (R=0.070)  charge=  1.0912  magn= -0.0000
     atom   9 (R=0.070)  charge=  1.1001  magn= -0.0000
     atom  10 (R=0.070)  charge=  1.1075  magn=  0.0000
     atom  11 (R=0.070)  charge=  1.1372  magn= -0.0000
     atom  12 (R=0.070)  charge=  1.0784  magn= -0.0000
     atom  13 (R=0.070)  charge=  1.0895  magn= -0.0000
     atom  14 (R=0.070)  charge=  1.1083  magn=  0.0000
     atom  15 (R=0.070)  charge=  1.1204  magn= -0.0000
     atom  16 (R=0.070)  charge=  1.0917  magn= -0.0000
     atom  17 (R=0.070)  charge=  1.0904  magn=  0.0000
     atom  18 (R=0.070)  charge=  1.1086  magn=  0.0000
     atom  19 (R=0.070)  charge=  1.1207  magn= -0.0000
     atom  20 (R=0.070)  charge=  1.0909  magn=  0.0000
     atom  21 (R=0.070)  charge=  1.0834  magn=  0.0000
     atom  22 (R=0.070)  charge=  1.1085  magn=  0.0000
     atom  23 (R=0.070)  charge=  1.1198  magn=  0.0000
     atom  24 (R=0.070)  charge=  1.0972  magn=  0.0000
     atom  25 (R=0.070)  charge=  1.0900  magn=  0.0000
     atom  26 (R=0.070)  charge=  1.1086  magn=  0.0000
     atom  27 (R=0.070)  charge=  1.1203  magn=  0.0000
     atom  28 (R=0.070)  charge=  1.0910  magn=  0.0000
     atom  29 (R=0.070)  charge=  1.0910  magn= -0.0000
     atom  30 (R=0.070)  charge=  1.1085  magn=  0.0000
     atom  31 (R=0.070)  charge=  1.1209  magn=  0.0000
     atom  32 (R=0.070)  charge=  1.0922  magn= -0.0000
     atom  33 (R=0.079)  charge=  3.4818  magn= -0.0000

     total cpu time spent up to now is      208.1 secs

     End of self-consistent calculation

 ------ SPIN UP ------------


          k = 0.0000 0.0000 0.0000 ( 24951 PWs)   bands (ev):

   -23.6520 -20.0197 -19.7346 -19.5057 -19.4344 -19.3515 -18.9256 -18.7945
   -18.6769 -16.6953 -16.5914 -16.5444 -16.5302 -16.4766 -16.4716 -16.2435
   -16.0994 -14.5533 -14.3353 -14.0544 -13.9324 -13.2201 -13.1389 -13.1111
   -13.0612 -12.7349 -12.1874 -11.9854 -11.6342 -11.2005 -11.0873 -10.8739
   -10.8538 -10.8125 -10.7627 -10.6198 -10.4237  -8.9719  -8.0321  -7.9837
    -7.9306  -7.7646  -7.4302  -6.8366  -6.7964  -6.7471  -6.2334  -6.1255
    -5.3213  -5.2875  -5.2439  -5.1562  -5.0838  -5.0765  -5.0616  -4.9936
    -4.9502  -4.9345  -4.9311  -4.8739  -4.4695  -4.4642  -4.2889  -4.2393
    -3.9495  -3.9249  -3.4040  -0.6160  -0.5059  -0.4542  -0.2705  -0.1033
     0.0048   0.1348   0.1842   0.2418   1.0732   1.2001   1.2756   1.3346

 ------ SPIN DOWN ----------


          k = 0.0000 0.0000 0.0000 ( 24951 PWs)   bands (ev):

   -23.6522 -20.0197 -19.7346 -19.5056 -19.4343 -19.3515 -18.9255 -18.7945
   -18.6768 -16.6953 -16.5915 -16.5444 -16.5302 -16.4767 -16.4716 -16.2434
   -16.0994 -14.5533 -14.3353 -14.0544 -13.9324 -13.2201 -13.1390 -13.1111
   -13.0612 -12.7349 -12.1874 -11.9854 -11.6341 -11.2006 -11.0873 -10.8739
   -10.8537 -10.8125 -10.7627 -10.6197 -10.4236  -8.9719  -8.0320  -7.9837
    -7.9306  -7.7646  -7.4302  -6.8365  -6.7964  -6.7470  -6.2334  -6.1255
    -5.3213  -5.2875  -5.2439  -5.1563  -5.0838  -5.0765  -5.0617  -4.9937
    -4.9502  -4.9345  -4.9311  -4.8741  -4.4695  -4.4642  -4.2888  -4.2394
    -3.9494  -3.9250  -3.4040  -0.6160  -0.5059  -0.4541  -0.2704  -0.1034
     0.0048   0.1347   0.1842   0.2418   1.0733   1.2001   1.2742   1.3347

     the spin up/dw Fermi energies are    -1.7785   -1.7785 ev

!    total energy              =    -629.30131859 Ry
     total all-electron energy =     -2586.599341 Ry
     estimated scf accuracy    <       0.00000078 Ry
     smearing contrib. (-TS)   =      -0.00000000 Ry
     internal energy E=F+TS    =    -629.30131859 Ry

     The total energy is F=E-TS. E is the sum of the following terms:
     one-electron contribution =    -783.99425764 Ry
     hartree contribution      =     418.05058356 Ry
     xc contribution           =    -152.18118828 Ry
     ewald contribution        =      95.75047734 Ry
     one-center paw contrib.   =    -206.92693357 Ry

     total magnetization       =     0.00 Bohr mag/cell
     absolute magnetization    =     0.00 Bohr mag/cell

     convergence has been achieved in   9 iterations

     negative rho (up, down):  4.914E-05 4.914E-05

     Forces acting on atoms (cartesian axes, Ry/au):

     atom    1 type  1   force =     0.23484932    0.00011738   -0.13369369
     atom    2 type  1   force =     0.00547685   -0.29382779    0.24469547
     atom    3 type  1   force =     0.00107979    0.00221551   -0.01222997
     atom    4 type  1   force =    -0.23141097    0.00013750   -0.13309355
     atom    5 type  1   force =     0.24260518   -0.00015228    0.13801820
     atom    6 type  1   force =     0.00896135    0.33599699   -0.25546047
     atom    7 type  1   force =     0.00071709   -0.00072667    0.01731169
     atom    8 type  1   force =    -0.23965931   -0.00020476    0.13739658
     atom    9 type  1   force =    -0.02643285   -0.55099905    0.47956811
     atom   10 type  1   force =     0.00039004   -0.00208828   -0.05450613
     atom   11 type  1   force =     0.00627405    0.00733073   -0.07923375
     atom   12 type  1   force =    -0.00341064    0.26819816    0.15007698
     atom   13 type  1   force =     0.00013827   -0.24210719   -0.13760349
     atom   14 type  1   force =    -0.00083219   -0.00194436    0.04791837
     atom   15 type  1   force =     0.00168588   -0.00107467   -0.03564408
     atom   16 type  1   force =     0.00016237    0.23928348   -0.13693545
     atom   17 type  1   force =     0.00019544    0.24250149    0.13854054
     atom   18 type  1   force =    -0.00048106    0.00213745   -0.05491800
     atom   19 type  1   force =     0.00168365    0.00098295    0.03520498
     atom   20 type  1   force =     0.00021032   -0.23869349    0.13710173
     atom   21 type  1   force =    -0.02050992    0.66675684   -0.25345460
     atom   22 type  1   force =     0.00059264    0.00211860    0.05459932
     atom   23 type  1   force =    -0.00468138   -0.00765019   -0.00297598
     atom   24 type  1   force =     0.00280185   -0.32922689   -0.17924272
     atom   25 type  1   force =    -0.24243238   -0.00016573   -0.13771815
     atom   26 type  1   force =    -0.00268693    0.00001117    0.05453696
     atom   27 type  1   force =    -0.00133214   -0.00133966   -0.03488488
     atom   28 type  1   force =     0.23995944   -0.00010905   -0.13747876
     atom   29 type  1   force =    -0.23558244    0.00008551    0.13415457
     atom   30 type  1   force =    -0.00285070   -0.00114029   -0.05604012
     atom   31 type  1   force =    -0.00115267    0.00139470    0.03663756
     atom   32 type  1   force =     0.23217142    0.00022037    0.13323890
     atom   33 type  2   force =     0.03350061   -0.09803849   -0.10388616

     Total force =     1.599729     Total SCF correction =     0.001446
     Energy error            =      3.0E-01 Ry
     Gradient error          =      6.7E-01 Ry/Bohr

     number of scf cycles    =   2
     number of bfgs steps    =   1

     energy             old  =    -629.6054574805 Ry
     energy             new  =    -629.3013185872 Ry

     CASE: energy            _new > energy            _old

     new trust radius        =       0.1444513355 bohr
     new conv_thr            =       0.0000010000 Ry


ATOMIC_POSITIONS (angstrom)
C             4.6326501579        5.2320630502        6.4626167652
C             3.3400024733        1.6288966676       13.3051561304
C             3.3882112401        5.2112835437        8.6062541785
C             2.1769968086        5.2320454048        6.4619683813
C             4.6362253654        1.5809520757       18.1238774793
C             3.3402327313        5.1784069799       11.2591531441
C             3.3912022159        1.6017678060       15.9794934949
C             2.1805785576        1.5809362775       18.1253930324
C             3.3367422774        4.0065071258       11.9501623949
C             6.9541147810        5.2315956810        5.1341355970
C             3.3655765302        5.1948561716        9.8328482533
C             3.3370374042        6.4072368195       11.9824631043
C            -0.0739595026        3.9528274100        0.3160184008
C             3.4038912291        5.2315275294        7.1594417273
C            -0.1027805467        5.1938032580        2.4607246118
C            -0.0739549265        6.4083816496        0.3155621809
C            -0.0739020494        2.8601267260       24.2709618205
C             3.4077954180        1.5813277016       17.4280458540
C            -0.0997621312        1.6191426804       22.1272379263
C            -0.0738958302        0.4044658186       24.2724658209
C             3.3363689699        2.8197707354       12.6416419499
C            -0.1397873663        1.5814089804       19.4538902767
C             3.3661722178        1.6202714474       14.7538133537
C             3.3385590755        0.4029067991       12.6080344758
C             5.7288537841        1.5809417758       18.7571044303
C            -0.0754811335        5.1811483020        1.0129233584
C            -0.1232383923        1.6018116952       20.9017206446
C             1.0873928773        1.5809477825       18.7564819007
C             5.7252979646        5.2320215047        5.8301783416
C            -0.0735703095        1.6311041577       23.5751088159
C            -0.1271665913        5.2111985238        3.6861824022
C             1.0839487451        5.2320807978        5.8317157143
O             3.1776479551        4.1862371213       13.3322240377



     Writing config-only to output data dir ./pwscf.save/
     NEW-OLD atomic charge density approx. for the potential

     Check: negative core charge=   -0.000003

     negative rho (up, down):  4.906E-05 4.906E-05
     Generating pointlists ...

     total cpu time spent up to now is      223.1 secs

     Self-consistent Calculation

     iteration #  1     ecut=    50.00 Ry     beta= 0.30
     Davidson diagonalization with overlap
     c_bands:  2 eigenvalues not converged
     c_bands:  2 eigenvalues not converged
     ethr =  1.00E-06,  avg # of iterations = 20.0

     negative rho (up, down):  5.061E-05 5.060E-05

     total cpu time spent up to now is      242.4 secs

     total energy              =    -629.66558158 Ry
     estimated scf accuracy    <       0.18781096 Ry

     total magnetization       =     0.00 Bohr mag/cell
     absolute magnetization    =     0.00 Bohr mag/cell

     iteration #  2     ecut=    50.00 Ry     beta= 0.30
     Davidson diagonalization with overlap
     ethr =  1.40E-04,  avg # of iterations =  2.0

     negative rho (up, down):  5.245E-05 5.245E-05

     total cpu time spent up to now is      249.9 secs

     total energy              =    -629.67555991 Ry
     estimated scf accuracy    <       0.03129538 Ry

     total magnetization       =    -0.00 Bohr mag/cell
     absolute magnetization    =     0.00 Bohr mag/cell

     iteration #  3     ecut=    50.00 Ry     beta= 0.30
     Davidson diagonalization with overlap
     ethr =  2.34E-05,  avg # of iterations =  7.5

     negative rho (up, down):  5.441E-05 5.439E-05

     total cpu time spent up to now is      258.2 secs

     total energy              =    -629.67704379 Ry
     estimated scf accuracy    <       0.00788878 Ry

     total magnetization       =    -0.00 Bohr mag/cell
     absolute magnetization    =     0.00 Bohr mag/cell

     iteration #  4     ecut=    50.00 Ry     beta= 0.30
     Davidson diagonalization with overlap
     ethr =  5.89E-06,  avg # of iterations = 16.0

     negative rho (up, down):  5.752E-05 5.747E-05

     total cpu time spent up to now is      267.9 secs

     total energy              =    -629.67734625 Ry
     estimated scf accuracy    <       0.00197818 Ry

     total magnetization       =     0.00 Bohr mag/cell
     absolute magnetization    =     0.00 Bohr mag/cell

     iteration #  5     ecut=    50.00 Ry     beta= 0.30
     Davidson diagonalization with overlap
     ethr =  1.48E-06,  avg # of iterations =  2.0

     negative rho (up, down):  5.629E-05 5.624E-05

     total cpu time spent up to now is      275.6 secs

     total energy              =    -629.67757062 Ry
     estimated scf accuracy    <       0.00016457 Ry

     total magnetization       =     0.00 Bohr mag/cell
     absolute magnetization    =     0.00 Bohr mag/cell

     iteration #  6     ecut=    50.00 Ry     beta= 0.30
     Davidson diagonalization with overlap
     ethr =  1.23E-07,  avg # of iterations =  4.0

     negative rho (up, down):  5.501E-05 5.499E-05

     total cpu time spent up to now is      284.1 secs

     total energy              =    -629.67759228 Ry
     estimated scf accuracy    <       0.00004709 Ry

     total magnetization       =    -0.00 Bohr mag/cell
     absolute magnetization    =     0.00 Bohr mag/cell

     iteration #  7     ecut=    50.00 Ry     beta= 0.30
     Davidson diagonalization with overlap
     ethr =  3.51E-08,  avg # of iterations =  2.0

     negative rho (up, down):  5.410E-05 5.409E-05

     total cpu time spent up to now is      291.7 secs

     total energy              =    -629.67759824 Ry
     estimated scf accuracy    <       0.00000801 Ry

     total magnetization       =    -0.00 Bohr mag/cell
     absolute magnetization    =     0.00 Bohr mag/cell

     iteration #  8     ecut=    50.00 Ry     beta= 0.30
     Davidson diagonalization with overlap
     ethr =  5.98E-09,  avg # of iterations =  2.0

     negative rho (up, down):  5.268E-05 5.268E-05

     Magnetic moment per site  (integrated on atomic sphere of radius R)
     atom   1 (R=0.070)  charge=  1.1092  magn=  0.0000
     atom   2 (R=0.070)  charge=  1.1042  magn= -0.0000
     atom   3 (R=0.070)  charge=  1.1235  magn=  0.0000
     atom   4 (R=0.070)  charge=  1.1099  magn=  0.0000
     atom   5 (R=0.070)  charge=  1.1095  magn= -0.0000
     atom   6 (R=0.070)  charge=  1.1139  magn=  0.0000
     atom   7 (R=0.070)  charge=  1.1208  magn=  0.0000
     atom   8 (R=0.070)  charge=  1.1097  magn=  0.0000
     atom   9 (R=0.070)  charge=  1.1025  magn= -0.0000
     atom  10 (R=0.070)  charge=  1.0842  magn=  0.0000
     atom  11 (R=0.070)  charge=  1.1292  magn= -0.0000
     atom  12 (R=0.070)  charge=  1.1050  magn= -0.0000
     atom  13 (R=0.070)  charge=  1.1097  magn= -0.0000
     atom  14 (R=0.070)  charge=  1.0844  magn= -0.0000
     atom  15 (R=0.070)  charge=  1.1224  magn= -0.0000
     atom  16 (R=0.070)  charge=  1.1102  magn= -0.0000
     atom  17 (R=0.070)  charge=  1.1094  magn= -0.0000
     atom  18 (R=0.070)  charge=  1.0852  magn= -0.0000
     atom  19 (R=0.070)  charge=  1.1225  magn= -0.0000
     atom  20 (R=0.070)  charge=  1.1106  magn=  0.0000
     atom  21 (R=0.070)  charge=  1.0809  magn=  0.0000
     atom  22 (R=0.070)  charge=  1.0849  magn=  0.0000
     atom  23 (R=0.070)  charge=  1.1232  magn= -0.0000
     atom  24 (R=0.070)  charge=  1.1130  magn=  0.0000
     atom  25 (R=0.070)  charge=  1.1091  magn=  0.0000
     atom  26 (R=0.070)  charge=  1.0844  magn=  0.0000
     atom  27 (R=0.070)  charge=  1.1225  magn= -0.0000
     atom  28 (R=0.070)  charge=  1.1103  magn= -0.0000
     atom  29 (R=0.070)  charge=  1.1092  magn= -0.0000
     atom  30 (R=0.070)  charge=  1.0844  magn=  0.0000
     atom  31 (R=0.070)  charge=  1.1225  magn=  0.0000
     atom  32 (R=0.070)  charge=  1.1104  magn= -0.0000
     atom  33 (R=0.079)  charge=  3.5354  magn= -0.0001

     total cpu time spent up to now is      298.6 secs

     End of self-consistent calculation

 ------ SPIN UP ------------


          k = 0.0000 0.0000 0.0000 ( 24951 PWs)   bands (ev):

   -25.4817 -19.3039 -19.2541 -19.1781 -19.0913 -18.9332 -18.6179 -18.4518
   -18.2954 -16.8004 -16.7952 -16.7839 -16.7725 -16.5369 -16.4774 -16.1105
   -15.8971 -14.9726 -14.6405 -14.4815 -14.2039 -13.4178 -12.5567 -12.5489
   -12.5273 -12.3730 -12.2022 -11.9869 -11.6471 -11.1607 -11.0301 -10.7691
   -10.6063 -10.5857 -10.5840 -10.5603 -10.4166  -9.2579  -7.8613  -7.8535
    -7.8445  -7.7793  -7.3057  -6.9190  -6.6760  -6.6598  -6.6430  -6.6052
    -5.4625  -5.4265  -5.3987  -5.3420  -5.3383  -5.1655  -5.1633  -5.1541
    -5.1196  -5.1169  -5.0897  -4.8980  -4.6074  -4.4770  -4.2279  -4.0489
    -3.8989  -3.8949  -3.3389  -0.8885  -0.8467  -0.8008  -0.5767   0.4205
     0.5222   0.6081   0.6874   0.9746   1.3409   1.4234   1.4546   1.5592

 ------ SPIN DOWN ----------


          k = 0.0000 0.0000 0.0000 ( 24951 PWs)   bands (ev):

   -25.4819 -19.3039 -19.2541 -19.1780 -19.0913 -18.9332 -18.6179 -18.4518
   -18.2954 -16.8004 -16.7952 -16.7839 -16.7725 -16.5369 -16.4774 -16.1105
   -15.8971 -14.9726 -14.6405 -14.4815 -14.2039 -13.4178 -12.5567 -12.5489
   -12.5273 -12.3730 -12.2022 -11.9869 -11.6471 -11.1607 -11.0301 -10.7691
   -10.6063 -10.5857 -10.5840 -10.5603 -10.4166  -9.2579  -7.8613  -7.8534
    -7.8445  -7.7794  -7.3058  -6.9190  -6.6760  -6.6598  -6.6430  -6.6051
    -5.4625  -5.4265  -5.3988  -5.3420  -5.3383  -5.1655  -5.1634  -5.1541
    -5.1196  -5.1169  -5.0897  -4.8980  -4.6074  -4.4770  -4.2279  -4.0489
    -3.8990  -3.8949  -3.3389  -0.8885  -0.8467  -0.8009  -0.5767   0.4205
     0.5222   0.6080   0.6874   0.9746   1.3409   1.4234   1.4546   1.5599

     the spin up/dw Fermi energies are    -1.8101   -1.8101 ev

!    total energy              =    -629.67759954 Ry
     total all-electron energy =     -2586.975622 Ry
     estimated scf accuracy    <       0.00000095 Ry
     smearing contrib. (-TS)   =      -0.00000000 Ry
     internal energy E=F+TS    =    -629.67759954 Ry

     The total energy is F=E-TS. E is the sum of the following terms:
     one-electron contribution =    -784.74501909 Ry
     hartree contribution      =     418.49662015 Ry
     xc contribution           =    -152.27969333 Ry
     ewald contribution        =      95.76017183 Ry
     one-center paw contrib.   =    -206.90967909 Ry

     total magnetization       =    -0.00 Bohr mag/cell
     absolute magnetization    =     0.00 Bohr mag/cell

     convergence has been achieved in   8 iterations

     negative rho (up, down):  5.268E-05 5.268E-05

     Forces acting on atoms (cartesian axes, Ry/au):

     atom    1 type  1   force =     0.03001402    0.00027202   -0.01664301
     atom    2 type  1   force =     0.00507178   -0.04997990   -0.00372010
     atom    3 type  1   force =     0.00120416    0.00204905   -0.00222912
     atom    4 type  1   force =    -0.02949766    0.00019128   -0.01848723
     atom    5 type  1   force =     0.03164335   -0.00022475    0.01652063
     atom    6 type  1   force =     0.01047953    0.03215627   -0.07957975
     atom    7 type  1   force =     0.00101592   -0.00142541   -0.00170094
     atom    8 type  1   force =    -0.03072711   -0.00031830    0.01783175
     atom    9 type  1   force =    -0.01461593    0.00761168    0.07291487
     atom   10 type  1   force =     0.00054903   -0.00229210    0.03316447
     atom   11 type  1   force =     0.00453451    0.00483445   -0.03067071
     atom   12 type  1   force =    -0.00532511    0.03775147    0.03862496
     atom   13 type  1   force =     0.00019966   -0.03122039   -0.01679943
     atom   14 type  1   force =    -0.00059625   -0.00247904   -0.03316095
     atom   15 type  1   force =     0.00144073   -0.00112234   -0.00421965
     atom   16 type  1   force =     0.00022593    0.03036484   -0.01783293
     atom   17 type  1   force =     0.00045750    0.03124799    0.01696301
     atom   18 type  1   force =    -0.00092384    0.00199616    0.03301897
     atom   19 type  1   force =     0.00151463    0.00086615    0.00386626
     atom   20 type  1   force =     0.00048662   -0.03078465    0.01807025
     atom   21 type  1   force =    -0.01332792    0.08881555    0.01720607
     atom   22 type  1   force =     0.00102545    0.00229360   -0.03321955
     atom   23 type  1   force =    -0.00510263    0.00274185    0.00320145
     atom   24 type  1   force =     0.00353229   -0.06433870   -0.03795258
     atom   25 type  1   force =    -0.03138484   -0.00028068   -0.01650513
     atom   26 type  1   force =    -0.00275512    0.00057764   -0.03311994
     atom   27 type  1   force =    -0.00133891   -0.00119561   -0.00394762
     atom   28 type  1   force =     0.03058340   -0.00022583   -0.01839212
     atom   29 type  1   force =    -0.03052907    0.00008218    0.01586100
     atom   30 type  1   force =    -0.00316868    0.00026651    0.03274533
     atom   31 type  1   force =    -0.00099660    0.00123657    0.00414625
     atom   32 type  1   force =     0.02936127    0.00037399    0.01714164
     atom   33 type  2   force =     0.01694994   -0.05984153    0.02690387

     Total force =     0.244241     Total SCF correction =     0.001155
     Energy error            =      7.2E-02 Ry
     Gradient error          =      8.9E-02 Ry/Bohr

     number of scf cycles    =   3
     number of bfgs steps    =   1

     energy             old  =    -629.6054574805 Ry
     energy             new  =    -629.6775995363 Ry

     CASE: energy            _new < energy            _old

     new trust radius        =       0.0844265607 bohr
     new conv_thr            =       0.0000008882 Ry


ATOMIC_POSITIONS (angstrom)
C             4.6402850974        5.2322205515        6.4586847871
C             3.3428598980        1.6038365213       13.2970658457
C             3.3888774206        5.2123824271        8.6053160125
C             2.1694446743        5.2321566437        6.4568675732
C             4.6444367421        1.5808238500       18.1275202917
C             3.3462106618        5.1919741931       11.2170082188
C             3.3917752278        1.6009873938       15.9780000259
C             2.1727109094        1.5807565810       18.1298917762
C             3.3292536432        4.0409777477       11.9682637927
C             6.9544269639        5.2303266015        5.1553722127
C             3.3679850411        5.1975344351        9.8178139968
C             3.3340783866        6.4178853526       11.9986584550
C            -0.0738465441        3.9448402341        0.3121960974
C             3.4035594583        5.2301388614        7.1384707800
C            -0.1019987119        5.1931824101        2.4595173176
C            -0.0738274487        6.4160597426        0.3110423997
C            -0.0736408563        2.8681059855       24.2748524522
C             3.4072648777        1.5824217592       17.4491726058
C            -0.0989369220        1.6196176248       22.1282609309
C            -0.0736180202        0.3965194008       24.2771106638
C             3.3293188688        2.8365257469       12.6679084019
C            -0.1392050824        1.5826808984       19.4326394416
C             3.3633800833        1.6221497909       14.7556996106
C             3.3404855431        0.3783760309       12.5932992824
C             5.7208008782        1.5807823879       18.7534606760
C            -0.0770043525        5.1814893476        0.9917347650
C            -0.1239807246        1.6011600481       20.9006402106
C             1.0951794849        1.5808170831       18.7516609026
C             5.7173956772        5.2320702128        5.8336467213
C            -0.0753299272        1.6312778497       23.5961349276
C            -0.1277141745        5.2118742149        3.6873124567
C             1.0914114646        5.2322946451        5.8360355854
O             3.1859617619        4.1557534270       13.3537407825



     Writing config-only to output data dir ./pwscf.save/
     NEW-OLD atomic charge density approx. for the potential

     Check: negative core charge=   -0.000003

     negative rho (up, down):  5.469E-05 5.469E-05
     Generating pointlists ...

     total cpu time spent up to now is      313.6 secs

     Self-consistent Calculation

     iteration #  1     ecut=    50.00 Ry     beta= 0.30
     Davidson diagonalization with overlap
     ethr =  1.00E-06,  avg # of iterations = 14.0

     negative rho (up, down):  5.576E-05 5.576E-05

     total cpu time spent up to now is      328.7 secs

     total energy              =    -629.69559878 Ry
     estimated scf accuracy    <       0.01657614 Ry

     total magnetization       =     0.00 Bohr mag/cell
     absolute magnetization    =     0.00 Bohr mag/cell

     iteration #  2     ecut=    50.00 Ry     beta= 0.30
     Davidson diagonalization with overlap
     ethr =  1.24E-05,  avg # of iterations =  3.0

     negative rho (up, down):  5.641E-05 5.640E-05

     total cpu time spent up to now is      336.2 secs

     total energy              =    -629.69714207 Ry
     estimated scf accuracy    <       0.00252676 Ry

     total magnetization       =    -0.00 Bohr mag/cell
     absolute magnetization    =     0.00 Bohr mag/cell

     iteration #  3     ecut=    50.00 Ry     beta= 0.30
     Davidson diagonalization with overlap
     ethr =  1.89E-06,  avg # of iterations =  7.0

     negative rho (up, down):  5.688E-05 5.688E-05

     total cpu time spent up to now is      344.6 secs

     total energy              =    -629.69728077 Ry
     estimated scf accuracy    <       0.00078353 Ry

     total magnetization       =    -0.00 Bohr mag/cell
     absolute magnetization    =     0.00 Bohr mag/cell

     iteration #  4     ecut=    50.00 Ry     beta= 0.30
     Davidson diagonalization with overlap
     ethr =  5.85E-07,  avg # of iterations =  2.0

     negative rho (up, down):  5.776E-05 5.776E-05

     total cpu time spent up to now is      352.1 secs

     total energy              =    -629.69729482 Ry
     estimated scf accuracy    <       0.00019885 Ry

     total magnetization       =     0.00 Bohr mag/cell
     absolute magnetization    =     0.00 Bohr mag/cell

     iteration #  5     ecut=    50.00 Ry     beta= 0.30
     Davidson diagonalization with overlap
     ethr =  1.48E-07,  avg # of iterations =  2.0

     negative rho (up, down):  5.772E-05 5.772E-05

     total cpu time spent up to now is      359.6 secs

     total energy              =    -629.69731191 Ry
     estimated scf accuracy    <       0.00001923 Ry

     total magnetization       =     0.00 Bohr mag/cell
     absolute magnetization    =     0.00 Bohr mag/cell

     iteration #  6     ecut=    50.00 Ry     beta= 0.30
     Davidson diagonalization with overlap
     ethr =  1.43E-08,  avg # of iterations =  4.5

     negative rho (up, down):  5.737E-05 5.737E-05

     total cpu time spent up to now is      367.9 secs

     total energy              =    -629.69731475 Ry
     estimated scf accuracy    <       0.00000376 Ry

     total magnetization       =     0.00 Bohr mag/cell
     absolute magnetization    =     0.00 Bohr mag/cell

     iteration #  7     ecut=    50.00 Ry     beta= 0.30
     Davidson diagonalization with overlap
     ethr =  2.81E-09,  avg # of iterations =  3.0

     negative rho (up, down):  5.685E-05 5.685E-05

     Magnetic moment per site  (integrated on atomic sphere of radius R)
     atom   1 (R=0.070)  charge=  1.1195  magn= -0.0000
     atom   2 (R=0.070)  charge=  1.0948  magn=  0.0000
     atom   3 (R=0.070)  charge=  1.1277  magn=  0.0000
     atom   4 (R=0.070)  charge=  1.1196  magn=  0.0000
     atom   5 (R=0.070)  charge=  1.1200  magn=  0.0000
     atom   6 (R=0.070)  charge=  1.1099  magn=  0.0000
     atom   7 (R=0.070)  charge=  1.1179  magn= -0.0000
     atom   8 (R=0.070)  charge=  1.1202  magn=  0.0000
     atom   9 (R=0.070)  charge=  1.0919  magn= -0.0000
     atom  10 (R=0.070)  charge=  1.0798  magn=  0.0000
     atom  11 (R=0.070)  charge=  1.1460  magn= -0.0000
     atom  12 (R=0.070)  charge=  1.1266  magn= -0.0000
     atom  13 (R=0.070)  charge=  1.1205  magn= -0.0000
     atom  14 (R=0.070)  charge=  1.0800  magn= -0.0000
     atom  15 (R=0.070)  charge=  1.1157  magn=  0.0000
     atom  16 (R=0.070)  charge=  1.1206  magn= -0.0000
     atom  17 (R=0.070)  charge=  1.1194  magn=  0.0000
     atom  18 (R=0.070)  charge=  1.0793  magn= -0.0000
     atom  19 (R=0.070)  charge=  1.1162  magn= -0.0000
     atom  20 (R=0.070)  charge=  1.1217  magn=  0.0000
     atom  21 (R=0.070)  charge=  1.0741  magn= -0.0000
     atom  22 (R=0.070)  charge=  1.0797  magn= -0.0000
     atom  23 (R=0.070)  charge=  1.1224  magn=  0.0000
     atom  24 (R=0.070)  charge=  1.1404  magn=  0.0000
     atom  25 (R=0.070)  charge=  1.1191  magn=  0.0000
     atom  26 (R=0.070)  charge=  1.0798  magn= -0.0000
     atom  27 (R=0.070)  charge=  1.1160  magn=  0.0000
     atom  28 (R=0.070)  charge=  1.1216  magn=  0.0000
     atom  29 (R=0.070)  charge=  1.1188  magn= -0.0000
     atom  30 (R=0.070)  charge=  1.0797  magn=  0.0000
     atom  31 (R=0.070)  charge=  1.1161  magn= -0.0000
     atom  32 (R=0.070)  charge=  1.1214  magn=  0.0000
     atom  33 (R=0.079)  charge=  3.5429  magn= -0.0000

     total cpu time spent up to now is      375.4 secs

     End of self-consistent calculation

 ------ SPIN UP ------------


          k = 0.0000 0.0000 0.0000 ( 24951 PWs)   bands (ev):

   -25.8557 -19.2660 -19.2079 -19.1410 -18.9702 -18.8994 -18.5252 -18.3720
   -18.2156 -16.9412 -16.9251 -16.8985 -16.8396 -16.5453 -16.4560 -16.0423
   -15.9386 -14.9701 -14.6520 -14.4525 -14.1849 -13.2797 -12.5766 -12.5659
   -12.5389 -12.3350 -12.0661 -11.8727 -11.5262 -11.0127 -10.9362 -10.6718
   -10.6584 -10.6491 -10.6237 -10.4740 -10.2889  -9.2994  -7.9941  -7.8820
    -7.8685  -7.8398  -7.4015  -6.8711  -6.7859  -6.5931  -6.5699  -6.5358
    -5.5131  -5.4745  -5.4387  -5.3899  -5.3708  -5.2874  -5.2683  -5.2397
    -5.2068  -5.1438  -5.0892  -4.9835  -4.7006  -4.5753  -4.1734  -4.0614
    -3.9302  -3.9013  -3.3429  -0.8616  -0.8260  -0.7767  -0.5321   0.4873
     0.5989   0.6949   0.7445   1.2487   1.3308   1.5281   1.5659   1.5855

 ------ SPIN DOWN ----------


          k = 0.0000 0.0000 0.0000 ( 24951 PWs)   bands (ev):

   -25.8557 -19.2660 -19.2079 -19.1410 -18.9702 -18.8993 -18.5252 -18.3720
   -18.2156 -16.9412 -16.9251 -16.8985 -16.8396 -16.5453 -16.4560 -16.0423
   -15.9386 -14.9701 -14.6520 -14.4525 -14.1849 -13.2797 -12.5766 -12.5659
   -12.5389 -12.3350 -12.0661 -11.8727 -11.5262 -11.0127 -10.9362 -10.6718
   -10.6584 -10.6491 -10.6237 -10.4740 -10.2889  -9.2994  -7.9941  -7.8820
    -7.8685  -7.8398  -7.4015  -6.8711  -6.7859  -6.5932  -6.5699  -6.5358
    -5.5131  -5.4745  -5.4387  -5.3899  -5.3708  -5.2874  -5.2683  -5.2397
    -5.2068  -5.1438  -5.0892  -4.9835  -4.7006  -4.5753  -4.1734  -4.0614
    -3.9302  -3.9013  -3.3429  -0.8616  -0.8260  -0.7768  -0.5321   0.4873
     0.5989   0.6949   0.7445   1.2487   1.3308   1.5281   1.5658   1.5854

     the spin up/dw Fermi energies are    -1.8345   -1.8345 ev

!    total energy              =    -629.69731533 Ry
     total all-electron energy =     -2586.995338 Ry
     estimated scf accuracy    <       0.00000071 Ry
     smearing contrib. (-TS)   =      -0.00000000 Ry
     internal energy E=F+TS    =    -629.69731533 Ry

     The total energy is F=E-TS. E is the sum of the following terms:
     one-electron contribution =    -785.16899744 Ry
     hartree contribution      =     418.75053791 Ry
     xc contribution           =    -152.40813505 Ry
     ewald contribution        =      96.04623603 Ry
     one-center paw contrib.   =    -206.91695678 Ry

     total magnetization       =     0.00 Bohr mag/cell
     absolute magnetization    =     0.00 Bohr mag/cell

     convergence has been achieved in   7 iterations

     negative rho (up, down):  5.685E-05 5.685E-05

     Forces acting on atoms (cartesian axes, Ry/au):

     atom    1 type  1   force =    -0.02048239   -0.00007005    0.00596954
     atom    2 type  1   force =     0.00217824   -0.00530073   -0.00186212
     atom    3 type  1   force =     0.00212113    0.00260650   -0.07542426
     atom    4 type  1   force =     0.02248462   -0.00011118    0.00564567
     atom    5 type  1   force =    -0.02111147    0.00000790   -0.00674799
     atom    6 type  1   force =     0.00312805    0.02293856    0.02388807
     atom    7 type  1   force =     0.00082505   -0.00100057    0.03275795
     atom    8 type  1   force =     0.02270869   -0.00005570   -0.00646585
     atom    9 type  1   force =    -0.00929617   -0.00755253    0.04083988
     atom   10 type  1   force =    -0.00017639   -0.00168742    0.00430378
     atom   11 type  1   force =     0.00438437    0.00411185   -0.00666733
     atom   12 type  1   force =    -0.00288116   -0.09764259   -0.06249616
     atom   13 type  1   force =    -0.00011668    0.02058768    0.00643131
     atom   14 type  1   force =    -0.00031836   -0.00183259   -0.00597520
     atom   15 type  1   force =     0.00101730   -0.00070879   -0.01441547
     atom   16 type  1   force =    -0.00009604   -0.02197881    0.00616858
     atom   17 type  1   force =     0.00005143   -0.02035978   -0.00593948
     atom   18 type  1   force =    -0.00000387    0.00202577    0.00253846
     atom   19 type  1   force =     0.00102005    0.00060727    0.01515196
     atom   20 type  1   force =     0.00007811    0.02263003   -0.00621731
     atom   21 type  1   force =    -0.01026869    0.05610963    0.00930305
     atom   22 type  1   force =     0.00011690    0.00166827   -0.00528381
     atom   23 type  1   force =    -0.00396816   -0.00679977   -0.01962629
     atom   24 type  1   force =     0.00383245    0.06752201    0.03830258
     atom   25 type  1   force =     0.02085017   -0.00001481    0.00676006
     atom   26 type  1   force =    -0.00206523   -0.00029232   -0.00516716
     atom   27 type  1   force =    -0.00079570   -0.00089647   -0.01515766
     atom   28 type  1   force =    -0.02240718    0.00004179    0.00610730
     atom   29 type  1   force =     0.01999900   -0.00013684   -0.00614294
     atom   30 type  1   force =    -0.00231126   -0.00039410    0.00459510
     atom   31 type  1   force =    -0.00059725    0.00084923    0.01450114
     atom   32 type  1   force =    -0.02210950    0.00005033   -0.00600703
     atom   33 type  2   force =     0.01420992   -0.03492179    0.02633162

     Total force =     0.205558     Total SCF correction =     0.001115
     Energy error            =      2.0E-02 Ry
     Gradient error          =      9.8E-02 Ry/Bohr

     number of scf cycles    =   4
     number of bfgs steps    =   2

     energy             old  =    -629.6775995363 Ry
     energy             new  =    -629.6973153252 Ry

     CASE: energy            _new < energy            _old

     new trust radius        =       0.0954135523 bohr
     new conv_thr            =       0.0000009764 Ry


ATOMIC_POSITIONS (angstrom)
C             4.6378989491        5.2323035425        6.4576324936
C             3.3460089741        1.5821969921       13.2912372713
C             3.3903761324        5.2144391043        8.5689215264
C             2.1728749887        5.2321860125        6.4548179590
C             4.6422409246        1.5807327430       18.1280288910
C             3.3521105000        5.2136778403       11.1965599899
C             3.3925900779        1.5999316495       15.9924663332
C             2.1759468041        1.5805970207       18.1311480648
C             3.3191743000        4.0576780728       12.0050278467
C             6.9545746897        5.2285838343        5.1727116767
C             3.3718693195        5.2014723395        9.8031159666
C             3.3305145481        6.3815080957       11.9821169647
C            -0.0738179717        3.9469573270        0.3114086311
C             3.4031621681        5.2282412862        7.1204922245
C            -0.1009327378        5.1923848843        2.4516039602
C            -0.0737783023        6.4130255918        0.3096336073
C            -0.0734233983        2.8660948426       24.2759272110
C             3.4068712452        1.5841960386       17.4656012448
C            -0.0978377813        1.6202592142       22.1363830155
C            -0.0733756632        0.3996678328       24.2785907215
C             3.3191557044        2.8813171081       12.6888786799
C            -0.1387186839        1.5844163704       19.4148233504
C             3.3594190708        1.6202712774       14.7478097235
C             3.3437369017        0.3900284869       12.5993010151
C             5.7229885231        1.5806573704       18.7529587808
C            -0.0791153644        5.1816014638        0.9740188932
C            -0.1249095365        1.6002491435       20.8924748661
C             1.0920259691        1.5807404847       18.7499972722
C             5.7193510593        5.2320412596        5.8342772057
C            -0.0777319759        1.6312163252       23.6134513969
C            -0.1284050678        5.2127804639        3.6952153019
C             1.0880942958        5.2324765149        5.8373391243
O             3.1990613373        4.1160694665       13.3810287898



     Writing config-only to output data dir ./pwscf.save/
     NEW-OLD atomic charge density approx. for the potential

     Check: negative core charge=   -0.000003

     negative rho (up, down):  5.735E-05 5.736E-05
     Generating pointlists ...

     total cpu time spent up to now is      390.4 secs

     Self-consistent Calculation

     iteration #  1     ecut=    50.00 Ry     beta= 0.30
     Davidson diagonalization with overlap
     ethr =  1.00E-06,  avg # of iterations = 14.0

     negative rho (up, down):  5.654E-05 5.654E-05

     total cpu time spent up to now is      405.4 secs

     total energy              =    -629.69780717 Ry
     estimated scf accuracy    <       0.01890145 Ry

     total magnetization       =    -0.00 Bohr mag/cell
     absolute magnetization    =     0.00 Bohr mag/cell

     iteration #  2     ecut=    50.00 Ry     beta= 0.30
     Davidson diagonalization with overlap
     ethr =  1.41E-05,  avg # of iterations =  2.0

     negative rho (up, down):  5.626E-05 5.627E-05

     total cpu time spent up to now is      413.1 secs

     total energy              =    -629.69824679 Ry
     estimated scf accuracy    <       0.00439911 Ry

     total magnetization       =     0.00 Bohr mag/cell
     absolute magnetization    =     0.00 Bohr mag/cell

     iteration #  3     ecut=    50.00 Ry     beta= 0.30
     Davidson diagonalization with overlap
     ethr =  3.28E-06,  avg # of iterations =  2.0

     negative rho (up, down):  5.688E-05 5.688E-05

     total cpu time spent up to now is      420.6 secs

     total energy              =    -629.69819044 Ry
     estimated scf accuracy    <       0.00112776 Ry

     total magnetization       =    -0.00 Bohr mag/cell
     absolute magnetization    =     0.00 Bohr mag/cell

     iteration #  4     ecut=    50.00 Ry     beta= 0.30
     Davidson diagonalization with overlap
     ethr =  8.42E-07,  avg # of iterations =  3.0

     negative rho (up, down):  5.699E-05 5.699E-05

     total cpu time spent up to now is      428.1 secs

     total energy              =    -629.69828875 Ry
     estimated scf accuracy    <       0.00016955 Ry

     total magnetization       =     0.00 Bohr mag/cell
     absolute magnetization    =     0.00 Bohr mag/cell

     iteration #  5     ecut=    50.00 Ry     beta= 0.30
     Davidson diagonalization with overlap
     ethr =  1.27E-07,  avg # of iterations =  4.0

     negative rho (up, down):  5.706E-05 5.706E-05

     total cpu time spent up to now is      435.8 secs

     total energy              =    -629.69830281 Ry
     estimated scf accuracy    <       0.00003472 Ry

     total magnetization       =    -0.00 Bohr mag/cell
     absolute magnetization    =     0.00 Bohr mag/cell

     iteration #  6     ecut=    50.00 Ry     beta= 0.30
     Davidson diagonalization with overlap
     ethr =  2.59E-08,  avg # of iterations =  2.0

     negative rho (up, down):  5.693E-05 5.693E-05

     total cpu time spent up to now is      443.5 secs

     total energy              =    -629.69830673 Ry
     estimated scf accuracy    <       0.00000607 Ry

     total magnetization       =     0.00 Bohr mag/cell
     absolute magnetization    =     0.00 Bohr mag/cell

     iteration #  7     ecut=    50.00 Ry     beta= 0.30
     Davidson diagonalization with overlap
     ethr =  4.53E-09,  avg # of iterations =  2.0

     negative rho (up, down):  5.681E-05 5.681E-05

     total cpu time spent up to now is      451.0 secs

     total energy              =    -629.69830735 Ry
     estimated scf accuracy    <       0.00000108 Ry

     total magnetization       =     0.00 Bohr mag/cell
     absolute magnetization    =     0.00 Bohr mag/cell

     iteration #  8     ecut=    50.00 Ry     beta= 0.30
     Davidson diagonalization with overlap
     ethr =  8.07E-10,  avg # of iterations =  4.0

     negative rho (up, down):  5.648E-05 5.648E-05

     Magnetic moment per site  (integrated on atomic sphere of radius R)
     atom   1 (R=0.070)  charge=  1.1210  magn=  0.0000
     atom   2 (R=0.070)  charge=  1.0925  magn=  0.0000
     atom   3 (R=0.070)  charge=  1.1202  magn=  0.0000
     atom   4 (R=0.070)  charge=  1.1209  magn= -0.0000
     atom   5 (R=0.070)  charge=  1.1210  magn=  0.0000
     atom   6 (R=0.070)  charge=  1.1110  magn=  0.0000
     atom   7 (R=0.070)  charge=  1.1038  magn=  0.0000
     atom   8 (R=0.070)  charge=  1.1212  magn=  0.0000
     atom   9 (R=0.070)  charge=  1.0953  magn= -0.0000
     atom  10 (R=0.070)  charge=  1.0836  magn=  0.0000
     atom  11 (R=0.070)  charge=  1.1344  magn= -0.0000
     atom  12 (R=0.070)  charge=  1.1093  magn= -0.0000
     atom  13 (R=0.070)  charge=  1.1220  magn= -0.0000
     atom  14 (R=0.070)  charge=  1.0915  magn= -0.0000
     atom  15 (R=0.070)  charge=  1.1034  magn=  0.0000
     atom  16 (R=0.070)  charge=  1.1217  magn= -0.0000
     atom  17 (R=0.070)  charge=  1.1209  magn=  0.0000
     atom  18 (R=0.070)  charge=  1.0846  magn= -0.0000
     atom  19 (R=0.070)  charge=  1.1039  magn= -0.0000
     atom  20 (R=0.070)  charge=  1.1227  magn=  0.0000
     atom  21 (R=0.070)  charge=  1.0816  magn= -0.0000
     atom  22 (R=0.070)  charge=  1.0837  magn= -0.0000
     atom  23 (R=0.070)  charge=  1.1087  magn= -0.0000
     atom  24 (R=0.070)  charge=  1.1183  magn=  0.0000
     atom  25 (R=0.070)  charge=  1.1203  magn=  0.0000
     atom  26 (R=0.070)  charge=  1.0837  magn= -0.0000
     atom  27 (R=0.070)  charge=  1.1033  magn=  0.0000
     atom  28 (R=0.070)  charge=  1.1226  magn= -0.0000
     atom  29 (R=0.070)  charge=  1.1201  magn= -0.0000
     atom  30 (R=0.070)  charge=  1.0833  magn= -0.0000
     atom  31 (R=0.070)  charge=  1.1040  magn= -0.0000
     atom  32 (R=0.070)  charge=  1.1221  magn=  0.0000
     atom  33 (R=0.079)  charge=  3.5714  magn=  0.0000

     total cpu time spent up to now is      458.4 secs

     End of self-consistent calculation

 ------ SPIN UP ------------


          k = 0.0000 0.0000 0.0000 ( 24951 PWs)   bands (ev):

   -26.6810 -19.3515 -19.2562 -19.1760 -19.0292 -18.8361 -18.5778 -18.4401
   -18.2740 -16.9857 -16.9430 -16.8861 -16.7152 -16.4336 -16.3458 -15.9377
   -15.7465 -14.9505 -14.6316 -14.4528 -14.1476 -13.3891 -12.7423 -12.6862
   -12.6349 -12.5239 -12.0424 -11.8557 -11.4832 -11.0443 -10.9748 -10.7936
   -10.7384 -10.6866 -10.6284 -10.4358 -10.2351  -9.5727  -8.4313  -7.9725
    -7.9059  -7.8535  -7.4799  -6.9524  -6.7811  -6.6395  -6.5520  -6.5006
    -5.4962  -5.4139  -5.3621  -5.3438  -5.3237  -5.3181  -5.2777  -5.2199
    -5.1143  -5.0383  -5.0070  -5.0022  -4.6479  -4.5283  -4.0991  -4.0515
    -3.8928  -3.8531  -3.1850  -0.8739  -0.7921  -0.7286  -0.5224   0.4204
     0.5570   0.6395   0.6838   1.0376   1.3258   1.4042   1.5691   1.6428

 ------ SPIN DOWN ----------


          k = 0.0000 0.0000 0.0000 ( 24951 PWs)   bands (ev):

   -26.6810 -19.3515 -19.2562 -19.1760 -19.0292 -18.8361 -18.5778 -18.4401
   -18.2740 -16.9857 -16.9430 -16.8861 -16.7152 -16.4336 -16.3458 -15.9377
   -15.7465 -14.9505 -14.6316 -14.4528 -14.1476 -13.3891 -12.7423 -12.6862
   -12.6349 -12.5239 -12.0424 -11.8557 -11.4832 -11.0443 -10.9748 -10.7936
   -10.7384 -10.6866 -10.6284 -10.4358 -10.2351  -9.5727  -8.4313  -7.9725
    -7.9059  -7.8535  -7.4799  -6.9524  -6.7810  -6.6395  -6.5520  -6.5006
    -5.4962  -5.4139  -5.3621  -5.3438  -5.3237  -5.3181  -5.2777  -5.2199
    -5.1143  -5.0383  -5.0070  -5.0022  -4.6479  -4.5283  -4.0991  -4.0515
    -3.8928  -3.8531  -3.1850  -0.8739  -0.7921  -0.7286  -0.5224   0.4204
     0.5570   0.6395   0.6838   1.0376   1.3257   1.4042   1.5691   1.6430

     the spin up/dw Fermi energies are    -1.8873   -1.8873 ev

!    total energy              =    -629.69830758 Ry
     total all-electron energy =     -2586.996330 Ry
     estimated scf accuracy    <       0.00000013 Ry
     smearing contrib. (-TS)   =      -0.00000000 Ry
     internal energy E=F+TS    =    -629.69830758 Ry

     The total energy is F=E-TS. E is the sum of the following terms:
     one-electron contribution =    -785.87206579 Ry
     hartree contribution      =     418.97076585 Ry
     xc contribution           =    -152.36452664 Ry
     ewald contribution        =      96.47290324 Ry
     one-center paw contrib.   =    -206.90538424 Ry

     total magnetization       =    -0.00 Bohr mag/cell
     absolute magnetization    =     0.00 Bohr mag/cell

     convergence has been achieved in   8 iterations

     negative rho (up, down):  5.648E-05 5.648E-05

     Forces acting on atoms (cartesian axes, Ry/au):

     atom    1 type  1   force =     0.00001617   -0.00043619   -0.01065379
     atom    2 type  1   force =    -0.00174795    0.07316221    0.00227988
     atom    3 type  1   force =     0.00066692    0.00103957    0.02591258
     atom    4 type  1   force =    -0.00254143   -0.00040803   -0.01257414
     atom    5 type  1   force =    -0.00233336    0.00032471    0.00767575
     atom    6 type  1   force =    -0.00326612   -0.04788517    0.06265828
     atom    7 type  1   force =    -0.00172678    0.00056144   -0.04205826
     atom    8 type  1   force =     0.00054520    0.00031328    0.00909777
     atom    9 type  1   force =     0.00086331    0.03230416   -0.06019234
     atom   10 type  1   force =    -0.00141977   -0.00072586   -0.02060306
     atom   11 type  1   force =     0.00477018    0.00136677   -0.08673184
     atom   12 type  1   force =     0.00134007    0.09444831    0.03380476
     atom   13 type  1   force =    -0.00045437    0.00361677   -0.00633837
     atom   14 type  1   force =     0.00142908   -0.00058779   -0.00628221
     atom   15 type  1   force =    -0.00070065    0.00051751    0.03306721
     atom   16 type  1   force =    -0.00043266   -0.00095942   -0.00825327
     atom   17 type  1   force =    -0.00042856   -0.00382937    0.00664037
     atom   18 type  1   force =     0.00143177    0.00143173   -0.01580837
     atom   19 type  1   force =    -0.00081174   -0.00052053   -0.03425181
     atom   20 type  1   force =    -0.00040505    0.00189090    0.00822295
     atom   21 type  1   force =    -0.00181982   -0.07166542    0.01502321
     atom   22 type  1   force =    -0.00137558    0.00070379    0.01939157
     atom   23 type  1   force =     0.00040980   -0.01273818    0.05731151
     atom   24 type  1   force =     0.00106762   -0.10089431   -0.05892737
     atom   25 type  1   force =     0.00197617    0.00032334   -0.00727321
     atom   26 type  1   force =    -0.00095177   -0.00110101    0.01929231
     atom   27 type  1   force =     0.00088701    0.00044690    0.03405154
     atom   28 type  1   force =    -0.00025900    0.00034320   -0.00881807
     atom   29 type  1   force =     0.00194356   -0.00038771    0.00744484
     atom   30 type  1   force =    -0.00096664    0.00056068   -0.01937183
     atom   31 type  1   force =     0.00086059   -0.00053474   -0.03295785
     atom   32 type  1   force =     0.00043122   -0.00031266    0.00937775
     atom   33 type  2   force =     0.00300260    0.02963111    0.07984354

     Total force =     0.270873     Total SCF correction =     0.000592
     Energy error            =      9.9E-04 Ry
     Gradient error          =      1.0E-01 Ry/Bohr

     number of scf cycles    =   5
     number of bfgs steps    =   3

     energy             old  =    -629.6973153252 Ry
     energy             new  =    -629.6983075800 Ry

     CASE: energy            _new < energy            _old

     new trust radius        =       0.0495018804 bohr
     new conv_thr            =       0.0000000992 Ry


ATOMIC_POSITIONS (angstrom)
C             4.6354409610        5.2321575322        6.4550624643
C             3.3456619961        1.6029758676       13.2932991639
C             3.3908690806        5.2150894977        8.5631994006
C             2.1750097255        5.2320447173        6.4517839208
C             4.6390416724        1.5808345107       18.1297090124
C             3.3512348867        5.2040931284       11.2209230482
C             3.3922074562        1.5999762046       15.9866927033
C             2.1789286461        1.5806888279       18.1331760050
C             3.3183120853        4.0569900693       11.9980520078
C             6.9541268790        5.2281970042        5.1655456197
C             3.3737589223        5.2023369975        9.7789220104
C             3.3306300978        6.3918838660       11.9804141223
C            -0.0739725762        3.9504046772        0.3100618904
C             3.4035283978        5.2278802109        7.1198947691
C            -0.1010116121        5.1924559309        2.4581431477
C            -0.0739245561        6.4100674085        0.3077930154
C            -0.0735550270        2.8626327220       24.2774397946
C             3.4073110063        1.5848512042       17.4594690193
C            -0.0979507171        1.6201823984       22.1296558448
C            -0.0734976728        0.4030219497       24.2804058003
C             3.3174032948        2.8757557941       12.6894406021
C            -0.1391269615        1.5847932527       19.4214863238
C             3.3590712606        1.6153835691       14.7600784201
C             3.3445371306        0.3736872691       12.5896325425
C             5.7260292395        1.5807574075       18.7513934640
C            -0.0796090770        5.1812169967        0.9806681664
C            -0.1247415212        1.6002693465       20.8991527344
C             1.0891812396        1.5808536772       18.7480131111
C             5.7222845961        5.2319065696        5.8359760236
C            -0.0782515589        1.6312848391       23.6066872480
C            -0.1282269542        5.2127258155        3.6887337620
C             1.0854518412        5.2323806244        5.8394996379
O             3.2018478183        4.1202201132       13.4045952039



     Writing config-only to output data dir ./pwscf.save/
     NEW-OLD atomic charge density approx. for the potential

     Check: negative core charge=   -0.000003

     negative rho (up, down):  5.757E-05 5.757E-05
     Generating pointlists ...

     total cpu time spent up to now is      473.5 secs

     Self-consistent Calculation

     iteration #  1     ecut=    50.00 Ry     beta= 0.30
     Davidson diagonalization with overlap
     ethr =  1.00E-06,  avg # of iterations = 10.0

     negative rho (up, down):  5.777E-05 5.777E-05

     total cpu time spent up to now is      487.1 secs

[...]
C            -0.1296947218        0.4193038105       24.2772894901
C             3.3851502126        2.9809499302       12.8123386812
C            -0.1511118792        1.5823138536       19.4307312511
C             3.3900379439        1.5838911758       14.7763673283
C             3.3809375292        0.4892467307       12.5325188723
C             5.7167384387        1.5736637435       18.7552631769
C            -0.1302606364        5.1922656452        0.9632801579
C            -0.1452551117        1.6044752592       20.8965835197
C             1.0755921976        1.5734720024       18.7512707758
C             5.7233425063        5.1545227355        5.8072110855
C            -0.1311576067        1.6435415524       23.5928900538
C            -0.1415873030        5.1705203864        3.6609628926
C             1.0801812873        5.1544490269        5.8077487696
O             3.3841515004        4.2267458511       13.5400033790
End final coordinates



     Writing config-only to output data dir ./pwscf.save/

     lsda relaxation :  a final configuration with zero
                        absolute magnetization has been found

     the program is checking if it is really the minimum energy structure
     by performing a new scf iteration without any "electronic" history

     Initial potential from superposition of free atoms

     starting charge     133.9987, renormalised to     134.0000

     negative rho (up, down):  1.601E-07 1.601E-07

     total cpu time spent up to now is     3360.5 secs

     Self-consistent Calculation

     iteration #  1     ecut=    50.00 Ry     beta= 0.30
     Davidson diagonalization with overlap
     c_bands:  1 eigenvalues not converged
     c_bands:  1 eigenvalues not converged
     ethr =  1.00E-06,  avg # of iterations = 20.0

     negative rho (up, down):  6.456E-07 6.455E-07

     total cpu time spent up to now is     3378.8 secs

     total energy              =    -629.98444950 Ry
     estimated scf accuracy    <       4.01297261 Ry

     total magnetization       =     0.00 Bohr mag/cell
     absolute magnetization    =     0.02 Bohr mag/cell

     iteration #  2     ecut=    50.00 Ry     beta= 0.30
     Davidson diagonalization with overlap
     ethr =  2.99E-03,  avg # of iterations =  1.0

     negative rho (up, down):  8.771E-06 8.769E-06

     total cpu time spent up to now is     3385.9 secs

     total energy              =    -629.55846856 Ry
     estimated scf accuracy    <       1.08879908 Ry

     total magnetization       =     0.00 Bohr mag/cell
     absolute magnetization    =     0.02 Bohr mag/cell

     iteration #  3     ecut=    50.00 Ry     beta= 0.30
     Davidson diagonalization with overlap
     ethr =  8.13E-04,  avg # of iterations =  2.0

     negative rho (up, down):  1.235E-05 1.235E-05

     total cpu time spent up to now is     3394.0 secs

     total energy              =    -629.72307167 Ry
     estimated scf accuracy    <       0.06126758 Ry

     total magnetization       =     0.00 Bohr mag/cell
     absolute magnetization    =     0.01 Bohr mag/cell

     iteration #  4     ecut=    50.00 Ry     beta= 0.30
     Davidson diagonalization with overlap
     c_bands:  1 eigenvalues not converged
     c_bands:  1 eigenvalues not converged
     ethr =  4.57E-05,  avg # of iterations = 20.0

     negative rho (up, down):  2.063E-05 2.062E-05

     total cpu time spent up to now is     3404.4 secs

     total energy              =    -629.72402028 Ry
     estimated scf accuracy    <       0.01767065 Ry

     total magnetization       =    -0.00 Bohr mag/cell
     absolute magnetization    =     0.01 Bohr mag/cell

     iteration #  5     ecut=    50.00 Ry     beta= 0.30
     Davidson diagonalization with overlap
     ethr =  1.32E-05,  avg # of iterations =  2.0

     negative rho (up, down):  2.756E-05 2.755E-05

     total cpu time spent up to now is     3411.5 secs

     total energy              =    -629.72497748 Ry
     estimated scf accuracy    <       0.00367266 Ry

     total magnetization       =    -0.00 Bohr mag/cell
     absolute magnetization    =     0.01 Bohr mag/cell

     iteration #  6     ecut=    50.00 Ry     beta= 0.30
     Davidson diagonalization with overlap
     ethr =  2.74E-06,  avg # of iterations =  4.0

     negative rho (up, down):  5.276E-05 5.275E-05

     total cpu time spent up to now is     3418.7 secs

     total energy              =    -629.72421788 Ry
     estimated scf accuracy    <       0.00108148 Ry

     total magnetization       =     0.00 Bohr mag/cell
     absolute magnetization    =     0.01 Bohr mag/cell

     iteration #  7     ecut=    50.00 Ry     beta= 0.30
     Davidson diagonalization with overlap
     ethr =  8.07E-07,  avg # of iterations =  2.0

     negative rho (up, down):  5.613E-05 5.612E-05

     total cpu time spent up to now is     3425.7 secs

     total energy              =    -629.72421732 Ry
     estimated scf accuracy    <       0.00005348 Ry

     total magnetization       =     0.00 Bohr mag/cell
     absolute magnetization    =     0.00 Bohr mag/cell

     iteration #  8     ecut=    50.00 Ry     beta= 0.30
     Davidson diagonalization with overlap
     ethr =  3.99E-08,  avg # of iterations =  5.0

     negative rho (up, down):  5.754E-05 5.753E-05

     total cpu time spent up to now is     3433.8 secs

     total energy              =    -629.72419084 Ry
     estimated scf accuracy    <       0.00000944 Ry

     total magnetization       =     0.00 Bohr mag/cell
     absolute magnetization    =     0.00 Bohr mag/cell

     iteration #  9     ecut=    50.00 Ry     beta= 0.30
     Davidson diagonalization with overlap
     ethr =  7.05E-09,  avg # of iterations =  4.0

     negative rho (up, down):  5.849E-05 5.849E-05

     total cpu time spent up to now is     3442.3 secs

     total energy              =    -629.72417111 Ry
     estimated scf accuracy    <       0.00000321 Ry

     total magnetization       =     0.00 Bohr mag/cell
     absolute magnetization    =     0.00 Bohr mag/cell

     iteration # 10     ecut=    50.00 Ry     beta= 0.30
     Davidson diagonalization with overlap
     ethr =  2.39E-09,  avg # of iterations =  2.0

     negative rho (up, down):  5.838E-05 5.838E-05

     total cpu time spent up to now is     3450.3 secs

     total energy              =    -629.72416794 Ry
     estimated scf accuracy    <       0.00000031 Ry

     total magnetization       =    -0.00 Bohr mag/cell
     absolute magnetization    =     0.00 Bohr mag/cell

     iteration # 11     ecut=    50.00 Ry     beta= 0.30
     Davidson diagonalization with overlap
     ethr =  2.34E-10,  avg # of iterations =  4.0

     negative rho (up, down):  5.841E-05 5.840E-05

     total cpu time spent up to now is     3459.1 secs

     total energy              =    -629.72416539 Ry
     estimated scf accuracy    <       0.00000010 Ry

     total magnetization       =    -0.00 Bohr mag/cell
     absolute magnetization    =     0.00 Bohr mag/cell

     iteration # 12     ecut=    50.00 Ry     beta= 0.30
     Davidson diagonalization with overlap
     ethr =  7.11E-11,  avg # of iterations =  3.5

     negative rho (up, down):  5.845E-05 5.845E-05

     total cpu time spent up to now is     3467.1 secs

     total energy              =    -629.72416364 Ry
     estimated scf accuracy    <       0.00000002 Ry

     total magnetization       =     0.00 Bohr mag/cell
     absolute magnetization    =     0.00 Bohr mag/cell

     iteration # 13     ecut=    50.00 Ry     beta= 0.30
     Davidson diagonalization with overlap
     ethr =  1.55E-11,  avg # of iterations =  2.0

     negative rho (up, down):  5.841E-05 5.841E-05

     Magnetic moment per site  (integrated on atomic sphere of radius R)
     atom   1 (R=0.070)  charge=  1.1207  magn= -0.0000
     atom   2 (R=0.070)  charge=  1.0895  magn= -0.0000
     atom   3 (R=0.070)  charge=  1.1156  magn= -0.0000
     atom   4 (R=0.070)  charge=  1.1204  magn= -0.0000
     atom   5 (R=0.070)  charge=  1.1209  magn= -0.0000
     atom   6 (R=0.070)  charge=  1.0903  magn=  0.0000
     atom   7 (R=0.070)  charge=  1.1159  magn= -0.0000
     atom   8 (R=0.070)  charge=  1.1205  magn= -0.0000
     atom   9 (R=0.070)  charge=  1.0852  magn= -0.0000
     atom  10 (R=0.070)  charge=  1.0850  magn= -0.0000
     atom  11 (R=0.070)  charge=  1.1176  magn=  0.0000
     atom  12 (R=0.070)  charge=  1.1146  magn= -0.0000
     atom  13 (R=0.070)  charge=  1.1209  magn=  0.0000
     atom  14 (R=0.070)  charge=  1.0864  magn=  0.0000
     atom  15 (R=0.070)  charge=  1.1146  magn= -0.0000
     atom  16 (R=0.070)  charge=  1.1202  magn= -0.0000
     atom  17 (R=0.070)  charge=  1.1204  magn= -0.0000
     atom  18 (R=0.070)  charge=  1.0857  magn=  0.0000
     atom  19 (R=0.070)  charge=  1.1151  magn= -0.0000
     atom  20 (R=0.070)  charge=  1.1206  magn=  0.0000
     atom  21 (R=0.070)  charge=  1.0821  magn=  0.0000
     atom  22 (R=0.070)  charge=  1.0856  magn= -0.0000
     atom  23 (R=0.070)  charge=  1.1176  magn=  0.0000
     atom  24 (R=0.070)  charge=  1.1187  magn=  0.0000
     atom  25 (R=0.070)  charge=  1.1206  magn=  0.0000
     atom  26 (R=0.070)  charge=  1.0854  magn= -0.0000
     atom  27 (R=0.070)  charge=  1.1143  magn=  0.0000
     atom  28 (R=0.070)  charge=  1.1209  magn=  0.0000
     atom  29 (R=0.070)  charge=  1.1202  magn=  0.0000
     atom  30 (R=0.070)  charge=  1.0853  magn=  0.0000
     atom  31 (R=0.070)  charge=  1.1150  magn=  0.0000
     atom  32 (R=0.070)  charge=  1.1210  magn=  0.0000
     atom  33 (R=0.079)  charge=  3.5396  magn=  0.0000

     total cpu time spent up to now is     3474.5 secs

     End of self-consistent calculation

 ------ SPIN UP ------------


          k = 0.0000 0.0000 0.0000 ( 24951 PWs)   bands (ev):

   -25.9706 -19.3374 -19.2528 -19.1653 -18.9172 -18.7768 -18.5670 -18.4378
   -18.2704 -16.9804 -16.9248 -16.8570 -16.7622 -16.4913 -16.4082 -15.9996
   -15.9324 -14.9664 -14.6286 -14.4516 -14.1398 -13.2289 -12.6736 -12.6245
   -12.5559 -12.3593 -12.0611 -11.8709 -11.5154 -11.0316 -10.9516 -10.7194
   -10.6705 -10.6380 -10.6011 -10.5043 -10.3198  -9.2984  -8.2785  -7.9646
    -7.9106  -7.8434  -7.3612  -6.8177  -6.7130  -6.6513  -6.5992  -6.5315
    -5.5136  -5.4259  -5.4067  -5.3694  -5.3352  -5.3177  -5.2603  -5.1905
    -5.1622  -5.1021  -5.0620  -4.9761  -4.6693  -4.5413  -4.1574  -4.0910
    -3.9136  -3.8926  -3.3871  -0.8790  -0.8006  -0.7240  -0.5006   0.4481
     0.5826   0.6998   0.7276   1.1040   1.3252   1.4686   1.5571   1.6121

 ------ SPIN DOWN ----------


          k = 0.0000 0.0000 0.0000 ( 24951 PWs)   bands (ev):

   -25.9706 -19.3374 -19.2528 -19.1653 -18.9172 -18.7768 -18.5670 -18.4378
   -18.2704 -16.9804 -16.9248 -16.8570 -16.7622 -16.4913 -16.4081 -15.9996
   -15.9324 -14.9664 -14.6286 -14.4516 -14.1398 -13.2289 -12.6736 -12.6245
   -12.5559 -12.3593 -12.0611 -11.8709 -11.5154 -11.0316 -10.9516 -10.7194
   -10.6705 -10.6380 -10.6011 -10.5043 -10.3198  -9.2984  -8.2784  -7.9646
    -7.9106  -7.8434  -7.3612  -6.8176  -6.7130  -6.6514  -6.5992  -6.5315
    -5.5136  -5.4259  -5.4067  -5.3694  -5.3352  -5.3177  -5.2603  -5.1905
    -5.1622  -5.1021  -5.0620  -4.9761  -4.6693  -4.5413  -4.1574  -4.0910
    -3.9135  -3.8926  -3.3871  -0.8790  -0.8006  -0.7239  -0.5006   0.4481
     0.5826   0.6998   0.7276   1.1040   1.3252   1.4686   1.5571   1.6121

     the spin up/dw Fermi energies are    -1.8256   -1.8256 ev

!    total energy              =    -629.72416261 Ry
     total all-electron energy =     -2587.022185 Ry
     estimated scf accuracy    <          4.7E-09 Ry
     smearing contrib. (-TS)   =      -0.00000000 Ry
     internal energy E=F+TS    =    -629.72416261 Ry

     The total energy is F=E-TS. E is the sum of the following terms:
     one-electron contribution =    -780.85557945 Ry
     hartree contribution      =     416.52401051 Ry
     xc contribution           =    -152.31901929 Ry
     ewald contribution        =      93.83564244 Ry
     one-center paw contrib.   =    -206.90921682 Ry

     total magnetization       =    -0.00 Bohr mag/cell
     absolute magnetization    =     0.00 Bohr mag/cell

     convergence has been achieved in  13 iterations

     negative rho (up, down):  5.841E-05 5.841E-05

     Forces acting on atoms (cartesian axes, Ry/au):

     atom    1 type  1   force =    -0.00037621    0.00025186   -0.00057575
     atom    2 type  1   force =    -0.00015736    0.00005765    0.00054427
     atom    3 type  1   force =     0.00038520   -0.00037338   -0.00016055
     atom    4 type  1   force =    -0.00024373    0.00028841    0.00000228
     atom    5 type  1   force =     0.00054343    0.00023300   -0.00025949
     atom    6 type  1   force =     0.00040994    0.00031785    0.00010527
     atom    7 type  1   force =     0.00012638   -0.00013735    0.00054815
     atom    8 type  1   force =    -0.00005692    0.00026264   -0.00042093
     atom    9 type  1   force =     0.00020861    0.00006547    0.00017278
     atom   10 type  1   force =    -0.00027367   -0.00003166    0.00003176
     atom   11 type  1   force =    -0.00004107    0.00033655   -0.00017020
     atom   12 type  1   force =     0.00038403    0.00033955    0.00067163
     atom   13 type  1   force =     0.00002986    0.00010288   -0.00062517
     atom   14 type  1   force =    -0.00016869   -0.00003740   -0.00030156
     atom   15 type  1   force =    -0.00036541   -0.00026157    0.00018847
     atom   16 type  1   force =     0.00002982   -0.00068236   -0.00012046
     atom   17 type  1   force =    -0.00013476   -0.00028003    0.00020535
     atom   18 type  1   force =    -0.00009213    0.00022532    0.00016972
     atom   19 type  1   force =    -0.00003635   -0.00020008    0.00000007
     atom   20 type  1   force =    -0.00014406   -0.00021781    0.00051878
     atom   21 type  1   force =    -0.00031548   -0.00023743   -0.00043860
     atom   22 type  1   force =     0.00002173    0.00019268   -0.00010362
     atom   23 type  1   force =     0.00004798   -0.00010849    0.00052413
     atom   24 type  1   force =     0.00025983    0.00014531    0.00048572
     atom   25 type  1   force =    -0.00005598    0.00006781   -0.00046488
     atom   26 type  1   force =    -0.00014001   -0.00028549    0.00011824
     atom   27 type  1   force =    -0.00008199    0.00021473    0.00007566
     atom   28 type  1   force =    -0.00022069    0.00006911   -0.00006395
     atom   29 type  1   force =     0.00037434   -0.00006048   -0.00057778
     atom   30 type  1   force =    -0.00024033   -0.00034105    0.00014505
     atom   31 type  1   force =    -0.00009289    0.00027589    0.00029684
     atom   32 type  1   force =     0.00042347   -0.00007582   -0.00032031
     atom   33 type  2   force =    -0.00000686   -0.00011630   -0.00020094

     Total force =     0.002848     Total SCF correction =     0.000069
     Energy error            =      1.7E-05 Ry
     Gradient error          =      6.8E-04 Ry/Bohr

     bfgs converged in  44 scf cycles and  41 bfgs steps
     (criteria: energy <  1.0E-04 Ry, force <  1.0E-03 Ry/Bohr)

     End of BFGS Geometry Optimization

     Final energy             =    -629.7241626148 Ry

     File ./pwscf.bfgs deleted, as requested
Begin final coordinates

ATOMIC_POSITIONS (angstrom)
C             4.6312512065        5.1497347847        6.4106089683
C             3.3855532197        1.6745475652       13.3144438385
C             3.3941323275        5.1518172117        8.5519826117
C             2.1756434107        5.1495898316        6.4048823351
C             4.6233690571        1.5664915384       18.1540830043
C             3.3802876150        5.2472178303       11.2338845695
C             3.3947035648        1.5685483441       16.0067297567
C             2.1703166084        1.5662506389       18.1531974101
C             3.3816631524        4.1630893796       12.1057982323
C             6.9508019313        5.1593164065        5.1273176920
C             3.3864674230        5.1558354106        9.7830562499
C             3.3785854194        6.5130237221       11.9086762884
C            -0.1299572092        3.9660777736        0.2821516518
C             3.4017968307        5.1477596459        7.0863066085
C            -0.1336333659        5.1839580539        2.4297716590
C            -0.1299188478        6.4224675845        0.2893232248
C            -0.1297703021        2.8735540741       24.2674367014
C             3.3970146553        1.5626008295       17.4734688172
C            -0.1373710541        1.6287576714       22.1274209470
C            -0.1296947218        0.4193038105       24.2772894901
C             3.3851502126        2.9809499302       12.8123386812
C            -0.1511118792        1.5823138536       19.4307312511
C             3.3900379439        1.5838911758       14.7763673283
C             3.3809375292        0.4892467307       12.5325188723
C             5.7167384387        1.5736637435       18.7552631769
C            -0.1302606364        5.1922656452        0.9632801579
C            -0.1452551117        1.6044752592       20.8965835197
C             1.0755921976        1.5734720024       18.7512707758
C             5.7233425063        5.1545227355        5.8072110855
C            -0.1311576067        1.6435415524       23.5928900538
C            -0.1415873030        5.1705203864        3.6609628926
C             1.0801812873        5.1544490269        5.8077487696
O             3.3841515004        4.2267458511       13.5400033790
End final coordinates



     Writing all to output data dir ./pwscf.save/

     init_run     :      9.95s CPU     11.15s WALL (       1 calls)
     electrons    :   2770.69s CPU   2803.72s WALL (      45 calls)
     update_pot   :    291.13s CPU    292.11s WALL (      43 calls)
     forces       :    271.54s CPU    275.27s WALL (      45 calls)

     Called by init_run:
     wfcinit      :      2.18s CPU      2.21s WALL (       1 calls)
     potinit      :      7.63s CPU      8.02s WALL (       2 calls)
     hinit0       :      3.14s CPU      3.88s WALL (       1 calls)

     Called by electrons:
     c_bands      :   1357.04s CPU   1372.03s WALL (     354 calls)
     sum_band     :    508.17s CPU    513.05s WALL (     354 calls)
     v_of_rho     :    413.36s CPU    416.14s WALL (     383 calls)
     newd         :    150.57s CPU    151.61s WALL (     383 calls)
     PAW_pot      :    368.02s CPU    368.94s WALL (     426 calls)
     mix_rho      :     61.23s CPU     61.75s WALL (     354 calls)

     Called by c_bands:
     init_us_2    :     15.56s CPU     15.83s WALL (    1594 calls)
     init_us_2:cp :     15.51s CPU     15.80s WALL (    1594 calls)
     regterg      :   1325.49s CPU   1339.80s WALL (     708 calls)

     Called by *egterg:
     rdiaghg      :     48.46s CPU     48.71s WALL (    3006 calls)
     h_psi        :   1046.63s CPU   1059.28s WALL (    3128 calls)
     s_psi        :     51.44s CPU     51.69s WALL (    3128 calls)
     g_psi        :      2.44s CPU      2.48s WALL (    2418 calls)

     Called by h_psi:
     h_psi:calbec :     53.70s CPU     54.02s WALL (    3128 calls)
     vloc_psi     :    929.44s CPU    941.38s WALL (    3128 calls)
     add_vuspsi   :     55.26s CPU     55.57s WALL (    3128 calls)

     General routines
     calbec       :     81.12s CPU     81.59s WALL (    4282 calls)
     fft          :    305.28s CPU    308.29s WALL (    8476 calls)
     ffts         :     15.89s CPU     16.35s WALL (    1474 calls)
     fftw         :    897.19s CPU    906.73s WALL (  174916 calls)
     interpolate  :     40.65s CPU     41.33s WALL (     766 calls)

     Parallel routines

     PWSCF        :  57m16.39s CPU  58m 1.68s WALL


   This run was terminated on:  22: 4: 2   6May2025            

=------------------------------------------------------------------------------=
   JOB DONE.
=------------------------------------------------------------------------------=
