ITEM: TIMESTEP
0
ITEM: NUMBER OF ATOMS
50
ITEM: BOX BOUNDS pp pp pp
0.0000000000000000e+00 1.1000000000000000e+01
0.0000000000000000e+00 1.1002000000000001e+01
0.0000000000000000e+00 1.1000000000000000e+01
ITEM: ATOMS id type x y z 
10 1 4.603 4.603 4.603 
11 1 3.085 3.085 3.085 
12 1 3.796 3.796 3.796 
46 1 0.726 0.725 0.725 
47 1 2.26 2.259 2.26 
48 1 1.551 1.55 1.55 
19 1 4.546 4.545 6.226 
20 1 3.013 3.013 7.764 
21 1 3.721 3.721 7.053 
31 1 0.668 0.667 10.103 
32 1 2.187 2.187 8.589 
33 1 1.476 1.475 9.298 
16 1 4.546 6.225 4.546 
17 1 3.013 7.765 3.013 
18 1 3.721 7.053 3.722 
25 1 0.668 10.103 0.668 
26 1 2.188 8.589 2.188 
27 1 1.476 9.298 1.476 
4 1 4.608 6.169 6.169 
5 1 3.086 7.684 7.684 
6 1 3.799 6.974 6.974 
37 1 0.729 10.046 10.046 
38 1 2.259 8.509 8.508 
39 1 1.552 9.219 9.219 
13 1 6.225 4.546 4.546 
14 1 7.764 3.013 3.013 
15 1 7.053 3.721 3.722 
28 1 10.102 0.667 0.668 
29 1 8.589 2.187 2.188 
30 1 9.298 1.475 1.476 
49 2 8.048 2.352 4.161 
50 3 8.048 1.376 4.161 
1 1 6.168 4.608 6.169 
2 1 7.684 3.086 7.684 
3 1 6.974 3.799 6.974 
40 1 10.045 0.728 10.046 
41 1 8.508 2.259 8.508 
42 1 9.218 1.551 9.218 
7 1 6.169 6.169 4.608 
8 1 7.684 7.684 3.086 
9 1 6.974 6.974 3.799 
43 1 10.046 10.047 0.729 
44 1 8.508 8.509 2.259 
45 1 9.219 9.219 1.552 
22 1 6.229 6.229 6.229 
23 1 7.764 7.765 7.765 
24 1 7.055 7.056 7.055 
34 1 10.108 10.108 10.107 
35 1 8.59 8.59 8.59 
36 1 9.301 9.301 9.3 
ITEM: TIMESTEP
10
ITEM: NUMBER OF ATOMS
50
ITEM: BOX BOUNDS pp pp pp
0.0000000000000000e+00 1.1000000000000000e+01
0.0000000000000000e+00 1.1002000000000001e+01
0.0000000000000000e+00 1.1000000000000000e+01
ITEM: ATOMS id type x y z 
10 1 4.58219 4.60159 4.60163 
11 1 3.0818 3.07939 3.0794 
12 1 3.78464 3.78991 3.79009 
46 1 0.739532 0.731657 0.732082 
47 1 2.27253 2.27272 2.27336 
48 1 1.56848 1.56533 1.5659 
19 1 4.54092 4.5399 6.23105 
20 1 3.00247 3.00232 7.774 
21 1 3.70799 3.70826 7.06698 
31 1 0.67454 0.670718 10.0953 
32 1 2.19218 2.19361 8.58348 
33 1 1.48571 1.4819 9.28882 
16 1 4.54094 6.23076 4.54055 
17 1 3.00291 7.77443 3.00351 
18 1 3.70867 7.06644 3.70857 
25 1 0.674636 10.096 0.671999 
26 1 2.19281 8.58404 2.19421 
27 1 1.48551 9.28886 1.48278 
4 1 4.60439 6.17201 6.1727 
5 1 3.08115 7.68934 7.68978 
6 1 3.78946 6.98253 6.98151 
37 1 0.735445 10.0394 10.0392 
38 1 2.26935 8.4982 8.49761 
39 1 1.56573 9.20626 9.20567 
13 1 6.25776 4.50507 4.51447 
14 1 7.71629 3.12843 2.95157 
15 1 7.04237 3.74831 3.71788 
28 1 10.1175 0.652565 0.651317 
29 1 8.59106 2.16791 2.19536 
30 1 9.29483 1.47276 1.48031 
49 2 8.06872 2.30625 4.22245 
50 3 8.06337 1.33247 4.17806 
1 1 6.16964 4.60582 6.18923 
2 1 7.69002 3.08002 7.68749 
3 1 6.97987 3.79262 6.98526 
40 1 10.038 0.73449 10.0319 
41 1 8.49506 2.27131 8.49619 
42 1 9.20425 1.56621 9.20186 
7 1 6.16963 6.1888 4.60637 
8 1 7.68999 7.68795 3.07997 
9 1 6.98021 6.98522 3.79257 
43 1 10.0391 10.0333 0.73601 
44 1 8.49539 8.4974 2.27203 
45 1 9.2043 9.20248 1.56637 
22 1 6.23464 6.23445 6.2336 
23 1 7.77347 7.775 7.77437 
24 1 7.06808 7.06795 7.06813 
34 1 10.104 10.101 10.0992 
35 1 8.58379 8.5849 8.58352 
36 1 9.29268 9.29069 9.29216 
ITEM: TIMESTEP
20
ITEM: NUMBER OF ATOMS
50
ITEM: BOX BOUNDS pp pp pp
0.0000000000000000e+00 1.1000000000000000e+01
0.0000000000000000e+00 1.1002000000000001e+01
0.0000000000000000e+00 1.1000000000000000e+01
ITEM: ATOMS id type x y z 
10 1 4.58584 4.60061 4.60191 
11 1 3.08183 3.08118 3.08122 
12 1 3.78559 3.79104 3.7912 
46 1 0.738174 0.730264 0.73015 
47 1 2.27251 2.27157 2.272 
48 1 1.56706 1.56417 1.56513 
19 1 4.53166 4.53784 6.23875 
20 1 3.00011 3.00166 7.77723 
21 1 3.70678 3.70467 7.06641 
31 1 0.674901 0.670287 10.0957 
32 1 2.19156 2.18874 8.58412 
33 1 1.48142 1.48483 9.29297 
16 1 4.53662 6.23635 4.53555 
17 1 3.00073 7.77621 3.00153 
18 1 3.70746 7.06859 3.70711 
25 1 0.67506 10.0959 0.672066 
26 1 2.19165 8.58427 2.18955 
27 1 1.482 9.29379 1.48578 
4 1 4.60125 6.17482 6.17378 
5 1 3.08149 7.68932 7.68679 
6 1 3.7919 6.97924 6.98355 
37 1 0.737806 10.0381 10.0372 
38 1 2.27185 8.49655 8.49596 
39 1 1.567 9.2039 9.20363 
13 1 6.22948 4.53407 4.55476 
14 1 7.71908 3.19261 2.77231 
15 1 7.06425 3.73996 3.65722 
28 1 10.1045 0.667223 0.666994 
29 1 8.57291 2.1833 2.20682 
30 1 9.28465 1.47364 1.49596 
49 2 8.10725 2.20782 4.36952 
50 3 8.07774 1.31425 4.17579 
1 1 6.1709 4.60375 6.18823 
2 1 7.68928 3.08056 7.68824 
3 1 6.97999 3.79225 6.98581 
40 1 10.0407 0.733912 10.0342 
41 1 8.49767 2.271 8.49805 
42 1 9.20498 1.56193 9.20185 
7 1 6.17043 6.1836 4.60567 
8 1 7.68794 7.68757 3.08193 
9 1 6.97911 6.98425 3.79343 
43 1 10.0404 10.035 0.733867 
44 1 8.49644 8.49764 2.27125 
45 1 9.20506 9.20338 1.56586 
22 1 6.23885 6.24177 6.23866 
23 1 7.77489 7.77549 7.77635 
24 1 7.06887 7.07052 7.06746 
34 1 10.1016 10.099 10.1015 
35 1 8.58602 8.5838 8.58682 
36 1 9.29263 9.29674 9.2902 
ITEM: TIMESTEP
30
ITEM: NUMBER OF ATOMS
50
ITEM: BOX BOUNDS pp pp pp
0.0000000000000000e+00 1.1000000000000000e+01
0.0000000000000000e+00 1.1002000000000001e+01
0.0000000000000000e+00 1.1000000000000000e+01
ITEM: ATOMS id type x y z 
10 1 4.60515 4.59761 4.60081 
11 1 3.07951 3.08288 3.08302 
12 1 3.79404 3.78961 3.7899 
46 1 0.730378 0.733314 0.73468 
47 1 2.27289 2.26968 2.26953 
48 1 1.56362 1.56603 1.56762 
19 1 4.5355 4.54116 6.23626 
20 1 3.00023 2.99849 7.77616 
21 1 3.7045 3.71016 7.06942 
31 1 0.667155 0.67178 10.0986 
32 1 2.18637 2.188 8.58511 
33 1 1.4852 1.47918 9.29715 
16 1 4.53828 6.23534 4.53945 
17 1 3.00085 7.77783 3.00179 
18 1 3.70629 7.06677 3.70508 
25 1 0.67001 10.0988 0.671779 
26 1 2.18776 8.58397 2.18933 
27 1 1.48496 9.29831 1.48218 
4 1 4.60351 6.17309 6.17142 
5 1 3.08284 7.68885 7.68643 
6 1 3.7919 6.97871 6.98123 
37 1 0.73718 10.0363 10.0376 
38 1 2.27218 8.4947 8.496 
39 1 1.56652 9.20673 9.20444 
13 1 6.23757 4.52985 4.54151 
14 1 7.71703 3.19444 2.77811 
15 1 7.04409 3.80034 3.58975 
28 1 10.0922 0.681741 0.694126 
29 1 8.56199 2.19227 2.20346 
30 1 9.26531 1.4799 1.49569 
49 2 8.12853 2.1613 4.44018 
50 3 8.10358 1.2896 4.14949 
1 1 6.17405 4.59918 6.17009 
2 1 7.68887 3.08067 7.69161 
3 1 6.98335 3.78876 6.98004 
40 1 10.0376 0.736381 10.0459 
41 1 8.50069 2.26807 8.49984 
42 1 9.20652 1.56125 9.20633 
7 1 6.17363 6.16569 4.60266 
8 1 7.68616 7.69005 3.08358 
9 1 6.98105 6.97604 3.79129 
43 1 10.0371 10.0436 0.739223 
44 1 8.49734 8.49875 2.27234 
45 1 9.20477 9.20402 1.5636 
22 1 6.23319 6.23845 6.23795 
23 1 7.77451 7.77658 7.77594 
24 1 7.06888 7.06976 7.06746 
34 1 10.1031 10.1045 10.1037 
35 1 8.58666 8.5845 8.58617 
36 1 9.29334 9.29595 9.29309 
ITEM: TIMESTEP
40
ITEM: NUMBER OF ATOMS
50
ITEM: BOX BOUNDS pp pp pp
0.0000000000000000e+00 1.1000000000000000e+01
0.0000000000000000e+00 1.1002000000000001e+01
0.0000000000000000e+00 1.1000000000000000e+01
ITEM: ATOMS id type x y z 
10 1 4.6031 4.5973 4.60005 
11 1 3.083 3.08469 3.08436 
12 1 3.79254 3.79074 3.79194 
46 1 0.730992 0.734899 0.736805 
47 1 2.2721 2.26984 2.27 
48 1 1.56289 1.56384 1.56484 
19 1 4.53534 4.53987 6.23684 
20 1 3.00108 3.00151 7.7749 
21 1 3.70669 3.70869 7.06757 
31 1 0.669559 0.671434 10.1007 
32 1 2.18849 2.18676 8.58795 
33 1 1.47931 1.47945 9.29397 
16 1 4.53805 6.23449 4.5367 
17 1 3.00197 7.77534 3.00249 
18 1 3.70847 7.06669 3.70803 
25 1 0.671948 10.1012 0.672466 
26 1 2.18885 8.58793 2.18867 
27 1 1.48016 9.294 1.48068 
4 1 4.60231 6.17289 6.17287 
5 1 3.0839 7.68626 7.68603 
6 1 3.79315 6.9802 6.97868 
37 1 0.737487 10.0367 10.0367 
38 1 2.27003 8.49824 8.49819 
39 1 1.56503 9.2059 9.20596 
13 1 6.23776 4.53082 4.54022 
14 1 7.71863 3.19613 2.77421 
15 1 7.03921 3.80761 3.58575 
28 1 10.0888 0.679212 0.692699 
29 1 8.55555 2.19003 2.2038 
30 1 9.27416 1.48134 1.49645 
49 2 8.13105 2.15538 4.44901 
50 3 8.1072 1.28723 4.14505 
1 1 6.17541 4.59812 6.17181 
2 1 7.68813 3.08177 7.68875 
3 1 6.98116 3.79038 6.98128 
40 1 10.0363 0.736209 10.0443 
41 1 8.50165 2.26605 8.49972 
42 1 9.20781 1.56184 9.20995 
7 1 6.17368 6.16758 4.60244 
8 1 7.68487 7.68697 3.08473 
9 1 6.97959 6.97766 3.79319 
43 1 10.0359 10.0414 0.739144 
44 1 8.49863 8.49902 2.26991 
45 1 9.20572 9.20713 1.5647 
22 1 6.23587 6.23792 6.23743 
23 1 7.77338 7.77502 7.77376 
24 1 7.0666 7.06811 7.06703 
34 1 10.1019 10.1048 10.103 
35 1 8.58804 8.58693 8.58732 
36 1 9.29455 9.29554 9.29489 
ITEM: TIMESTEP
50
ITEM: NUMBER OF ATOMS
50
ITEM: BOX BOUNDS pp pp pp
0.0000000000000000e+00 1.1000000000000000e+01
0.0000000000000000e+00 1.1002000000000001e+01
0.0000000000000000e+00 1.1000000000000000e+01
ITEM: ATOMS id type x y z 
10 1 4.59558 4.59771 4.60401 
11 1 3.08057 3.0879 3.08898 
12 1 3.80444 3.78826 3.78761 
46 1 0.731363 0.736732 0.740258 
47 1 2.27411 2.2702 2.26941 
48 1 1.55954 1.56572 1.56812 
19 1 4.54197 4.53287 6.23623 
20 1 2.99998 3.00421 7.77488 
21 1 3.71032 3.70458 7.06613 
31 1 0.671588 0.672592 10.1064 
32 1 2.19252 2.18351 8.59223 
33 1 1.46735 1.48342 9.28911 
16 1 4.53736 6.23368 4.53242 
17 1 3.00164 7.77518 3.00377 
18 1 3.71027 7.0653 3.70539 
25 1 0.669112 10.1004 0.673144 
26 1 2.18612 8.58638 2.18547 
27 1 1.48097 9.30151 1.48358 
4 1 4.6008 6.1724 6.17513 
5 1 3.08434 7.68443 7.68662 
6 1 3.7941 6.98168 6.97556 
37 1 0.734496 10.0398 10.0404 
38 1 2.2679 8.50033 8.5014 
39 1 1.56276 9.20942 9.20689 
13 1 6.23096 4.54813 4.5223 
14 1 7.71242 3.22291 2.7537 
15 1 7.02926 3.83588 3.5571 
28 1 10.0858 0.682331 0.692111 
29 1 8.54193 2.17982 2.20992 
30 1 9.26996 1.476 1.50608 
49 2 8.1497 2.107 4.52031 
50 3 8.14067 1.27308 4.09853 
1 1 6.17964 4.59401 6.16891 
2 1 7.68899 3.08085 7.68551 
3 1 6.9795 3.79122 6.98238 
40 1 10.0316 0.739025 10.0515 
41 1 8.50032 2.2667 8.50362 
42 1 9.21184 1.56025 9.20661 
7 1 6.17289 6.17396 4.60549 
8 1 7.68323 7.68632 3.08648 
9 1 6.98 6.97419 3.79287 
43 1 10.034 10.0421 0.743531 
44 1 8.4984 8.50099 2.27144 
45 1 9.20589 9.20495 1.56309 
22 1 6.24071 6.23039 6.23763 
23 1 7.76994 7.77508 7.7737 
24 1 7.07069 7.06404 7.06418 
34 1 10.0958 10.1057 10.1054 
35 1 8.58736 8.58812 8.5897 
36 1 9.2972 9.29773 9.2928 
ITEM: TIMESTEP
60
ITEM: NUMBER OF ATOMS
50
ITEM: BOX BOUNDS pp pp pp
0.0000000000000000e+00 1.1000000000000000e+01
0.0000000000000000e+00 1.1002000000000001e+01
0.0000000000000000e+00 1.1000000000000000e+01
ITEM: ATOMS id type x y z 
10 1 4.60148 4.59757 4.60155 
11 1 3.08499 3.08448 3.08446 
12 1 3.79377 3.79072 3.79245 
46 1 0.729067 0.7376 0.741421 
47 1 2.27168 2.27145 2.27149 
48 1 1.56387 1.56463 1.56577 
19 1 4.54316 4.53447 6.23746 
20 1 3.00081 3.00216 7.77425 
21 1 3.70961 3.70651 7.06822 
31 1 0.666064 0.673334 10.1041 
32 1 2.18714 2.18613 8.58852 
33 1 1.47687 1.48065 9.29506 
16 1 4.53451 6.23584 4.53728 
17 1 3.00195 7.77537 3.00057 
18 1 3.707 7.06724 3.70808 
25 1 0.669582 10.1047 0.674529 
26 1 2.18861 8.59018 2.18846 
27 1 1.47761 9.29316 1.47989 
4 1 4.60258 6.17161 6.17176 
5 1 3.08392 7.68709 7.68522 
6 1 3.79295 6.97863 6.98022 
37 1 0.733767 10.0402 10.0392 
38 1 2.26785 8.50043 8.50067 
39 1 1.56371 9.20864 9.20759 
13 1 6.23167 4.54595 4.5224 
14 1 7.71376 3.22375 2.74886 
15 1 7.03292 3.83798 3.55276 
28 1 10.0838 0.684368 0.697846 
29 1 8.53826 2.17031 2.22748 
30 1 9.26353 1.47685 1.50562 
49 2 8.15022 2.0951 4.52648 
50 3 8.15317 1.28 4.07849 
1 1 6.17848 4.59464 6.16584 
2 1 7.68826 3.08115 7.68727 
3 1 6.98191 3.78882 6.97844 
40 1 10.0337 0.737915 10.048 
41 1 8.50217 2.26651 8.49958 
42 1 9.20701 1.5631 9.21257 
7 1 6.17271 6.17379 4.60416 
8 1 7.68602 7.68565 3.08392 
9 1 6.97883 6.98048 3.79398 
43 1 10.0347 10.0411 0.740694 
44 1 8.49862 8.49886 2.26993 
45 1 9.20578 9.20884 1.56598 
22 1 6.23926 6.22988 6.23996 
23 1 7.77288 7.77504 7.77265 
24 1 7.06784 7.06483 7.06806 
34 1 10.0985 10.1063 10.1063 
35 1 8.58774 8.58804 8.58756 
36 1 9.29365 9.29704 9.29487 
ITEM: TIMESTEP
70
ITEM: NUMBER OF ATOMS
50
ITEM: BOX BOUNDS pp pp pp
0.0000000000000000e+00 1.1000000000000000e+01
0.0000000000000000e+00 1.1002000000000001e+01
0.0000000000000000e+00 1.1000000000000000e+01
ITEM: ATOMS id type x y z 
10 1 4.60205 4.59515 4.60439 
11 1 3.08488 3.07573 3.09145 
12 1 3.79336 3.8049 3.77668 
46 1 0.729148 0.7344 0.734625 
47 1 2.27627 2.26453 2.26351 
48 1 1.54522 1.56763 1.57285 
19 1 4.54356 4.53163 6.23916 
20 1 3.00035 3.00031 7.77522 
21 1 3.70907 3.70382 7.07025 
31 1 0.66988 0.676954 10.1114 
32 1 2.18374 2.18586 8.58751 
33 1 1.47811 1.48128 9.3003 
16 1 4.53117 6.23786 4.54449 
17 1 3.00311 7.7723 2.99584 
18 1 3.70278 7.0719 3.71628 
25 1 0.661512 10.0991 0.66808 
26 1 2.17999 8.57389 2.17629 
27 1 1.49123 9.32824 1.50013 
4 1 4.60153 6.17101 6.17752 
5 1 3.08157 7.68466 7.6882 
6 1 3.79485 6.98515 6.97836 
37 1 0.734325 10.0409 10.0375 
38 1 2.26837 8.50127 8.50102 
39 1 1.56254 9.20873 9.2075 
13 1 6.22904 4.55403 4.52009 
14 1 7.71029 3.25398 2.72767 
15 1 7.03481 3.85265 3.53937 
28 1 10.0752 0.708868 0.691725 
29 1 8.51918 2.11221 2.29647 
30 1 9.26037 1.44405 1.5602 
49 2 8.1527 2.04835 4.55127 
50 3 8.21472 1.30753 3.97187 
1 1 6.17457 4.59185 6.16001 
2 1 7.67628 3.07919 7.69433 
3 1 7.00752 3.79015 6.95337 
40 1 10.0295 0.742277 10.0489 
41 1 8.5005 2.2676 8.49969 
42 1 9.20471 1.56578 9.21301 
7 1 6.1674 6.17787 4.60723 
8 1 7.68728 7.68787 3.08341 
9 1 6.97842 6.982 3.79368 
43 1 10.035 10.0449 0.739798 
44 1 8.50167 8.49945 2.26797 
45 1 9.2068 9.21413 1.56444 
22 1 6.23755 6.22898 6.24202 
23 1 7.77409 7.77312 7.77152 
24 1 7.06526 7.06339 7.0689 
34 1 10.0979 10.1064 10.1073 
35 1 8.58822 8.59097 8.5848 
36 1 9.29038 9.29421 9.3004 
ITEM: TIMESTEP
80
ITEM: NUMBER OF ATOMS
50
ITEM: BOX BOUNDS pp pp pp
0.0000000000000000e+00 1.1000000000000000e+01
0.0000000000000000e+00 1.1002000000000001e+01
0.0000000000000000e+00 1.1000000000000000e+01
ITEM: ATOMS id type x y z 
10 1 4.6026 4.60305 4.60037 
11 1 3.08614 3.08374 3.08207 
12 1 3.79328 3.79053 3.79065 
46 1 0.725323 0.74033 0.741256 
47 1 2.27244 2.26841 2.27142 
48 1 1.55727 1.56585 1.56864 
19 1 4.54452 4.53152 6.23738 
20 1 3.00183 3.00151 7.77413 
21 1 3.71111 3.70515 7.06783 
31 1 0.663595 0.675672 10.1076 
32 1 2.18497 2.18715 8.58917 
33 1 1.47669 1.48081 9.29655 
16 1 4.52842 6.24072 4.54701 
17 1 3.00042 7.77262 2.99815 
18 1 3.70404 7.06759 3.71068 
25 1 0.663291 10.1092 0.673473 
26 1 2.18645 8.5854 2.18385 
27 1 1.48293 9.30845 1.48898 
4 1 4.60224 6.17061 6.17633 
5 1 3.08387 7.69093 7.68587 
6 1 3.78947 6.97494 6.98532 
37 1 0.731954 10.0428 10.0379 
38 1 2.26884 8.50347 8.50218 
39 1 1.55855 9.20743 9.20774 
13 1 6.2267 4.55642 4.52031 
14 1 7.71177 3.26266 2.71699 
15 1 7.03888 3.85503 3.52623 
28 1 10.0705 0.706519 0.703713 
29 1 8.52106 2.07131 2.35781 
30 1 9.24268 1.46101 1.5368 
49 2 8.15292 2.03158 4.54916 
50 3 8.23094 1.32285 3.94524 
1 1 6.18099 4.5918 6.14991 
2 1 7.68755 3.08031 7.68568 
3 1 6.99147 3.78578 6.96548 
40 1 10.031 0.741512 10.0498 
41 1 8.49994 2.26815 8.50459 
42 1 9.20699 1.56054 9.21107 
7 1 6.17116 6.1787 4.60691 
8 1 7.69018 7.68798 3.08608 
9 1 6.9737 6.98449 3.78776 
43 1 10.0331 10.0464 0.738904 
44 1 8.50117 8.50255 2.26944 
45 1 9.20871 9.20909 1.5614 
22 1 6.23791 6.22972 6.24316 
23 1 7.77481 7.77421 7.77277 
24 1 7.06767 7.06399 7.07017 
34 1 10.0963 10.1089 10.1123 
35 1 8.58719 8.58736 8.58993 
36 1 9.29244 9.30228 9.2919 
ITEM: TIMESTEP
90
ITEM: NUMBER OF ATOMS
50
ITEM: BOX BOUNDS pp pp pp
0.0000000000000000e+00 1.1000000000000000e+01
0.0000000000000000e+00 1.1002000000000001e+01
0.0000000000000000e+00 1.1000000000000000e+01
ITEM: ATOMS id type x y z 
10 1 4.61067 4.59802 4.59903 
11 1 3.08658 3.08608 3.08675 
12 1 3.79871 3.79129 3.78937 
46 1 0.72119 0.744429 0.743948 
47 1 2.26859 2.26522 2.26885 
48 1 1.55646 1.56432 1.56305 
19 1 4.54967 4.53089 6.2338 
20 1 3.00505 3.00365 7.77131 
21 1 3.71255 3.70381 7.0667 
31 1 0.662835 0.677321 10.1116 
32 1 2.18517 2.18765 8.58894 
33 1 1.477 1.48375 9.29719 
16 1 4.52673 6.24092 4.54793 
17 1 3.00009 7.77376 2.9984 
18 1 3.70379 7.06735 3.71186 
25 1 0.662463 10.1141 0.677813 
26 1 2.18593 8.59094 2.18385 
27 1 1.47646 9.30355 1.48361 
4 1 4.60257 6.16428 6.18138 
5 1 3.08161 7.68879 7.68963 
6 1 3.79124 6.98145 6.98452 
37 1 0.729493 10.0462 10.0415 
38 1 2.26491 8.5036 8.50354 
39 1 1.56001 9.21254 9.21012 
13 1 6.22774 4.56238 4.51441 
14 1 7.71974 3.26616 2.70211 
15 1 7.04425 3.86738 3.49485 
28 1 10.0559 0.724711 0.704887 
29 1 8.51481 2.00029 2.44703 
30 1 9.22568 1.48075 1.54759 
49 2 8.14924 2.00353 4.55879 
50 3 8.2628 1.34066 3.89963 
1 1 6.18293 4.58955 6.13716 
2 1 7.68834 3.08146 7.68078 
3 1 6.98758 3.78367 6.96218 
40 1 10.0294 0.744518 10.0522 
41 1 8.49935 2.26851 8.50094 
42 1 9.2054 1.56542 9.21298 
7 1 6.16945 6.1724 4.60341 
8 1 7.68669 7.69045 3.08285 
9 1 6.98128 6.98434 3.79319 
43 1 10.0333 10.0534 0.739966 
44 1 8.50287 8.50281 2.26729 
45 1 9.21041 9.21289 1.56168 
22 1 6.23793 6.22659 6.2412 
23 1 7.7732 7.77157 7.77086 
24 1 7.06679 7.06149 7.06834 
34 1 10.095 10.1104 10.1125 
35 1 8.5878 8.59074 8.58808 
36 1 9.29026 9.29898 9.29844 
ITEM: TIMESTEP
100
ITEM: NUMBER OF ATOMS
50
ITEM: BOX BOUNDS pp pp pp
0.0000000000000000e+00 1.1000000000000000e+01
0.0000000000000000e+00 1.1002000000000001e+01
0.0000000000000000e+00 1.1000000000000000e+01
ITEM: ATOMS id type x y z 
10 1 4.61585 4.59995 4.59662 
11 1 3.08494 3.08357 3.08414 
12 1 3.79714 3.78915 3.78775 
46 1 0.716816 0.743796 0.739875 
47 1 2.27221 2.26807 2.26852 
48 1 1.5542 1.56514 1.56905 
19 1 4.54968 4.53053 6.23345 
20 1 3.00407 3.00217 7.77243 
21 1 3.7145 3.7048 7.065 
31 1 0.663666 0.678694 10.1126 
32 1 2.18536 2.18767 8.58848 
33 1 1.47665 1.4848 9.29834 
16 1 4.52807 6.24019 4.54985 
17 1 3.00059 7.77328 2.99889 
18 1 3.70288 7.06852 3.71195 
25 1 0.659928 10.1171 0.679497 
26 1 2.18711 8.59175 2.18475 
27 1 1.47515 9.30042 1.484 
4 1 4.60327 6.16594 6.18013 
5 1 3.08214 7.68931 7.68913 
6 1 3.79066 6.97902 6.98637 
37 1 0.729446 10.0468 10.042 
38 1 2.26382 8.50526 8.50473 
39 1 1.55882 9.21358 9.21116 
13 1 6.22898 4.56254 4.50735 
14 1 7.71975 3.26462 2.69607 
15 1 7.04919 3.87494 3.48499 
28 1 10.0491 0.730309 0.702528 
29 1 8.51202 1.98682 2.46262 
30 1 9.22527 1.48369 1.55273 
49 2 8.1471 1.99295 4.56912 
50 3 8.27133 1.33676 3.9022 
1 1 6.18714 4.58783 6.13297 
2 1 7.68751 3.08203 7.67908 
3 1 6.9879 3.78352 6.95834 
40 1 10.0291 0.746084 10.0518 
41 1 8.50017 2.26803 8.49841 
42 1 9.20282 1.56808 9.21622 
7 1 6.16881 6.17089 4.60325 
8 1 7.68747 7.69159 3.08342 
9 1 6.9811 6.98427 3.79061 
43 1 10.0335 10.0556 0.740652 
44 1 8.50602 8.50292 2.2645 
45 1 9.20949 9.2184 1.56268 
22 1 6.2368 6.22609 6.24011 
23 1 7.77319 7.77141 7.77134 
24 1 7.06728 7.06105 7.06792 
34 1 10.0943 10.1109 10.115 
35 1 8.5869 8.58998 8.58697 
36 1 9.28872 9.29817 9.29847 
ITEM: TIMESTEP
110
ITEM: NUMBER OF ATOMS
50
ITEM: BOX BOUNDS pp pp pp
0.0000000000000000e+00 1.1000000000000000e+01
0.0000000000000000e+00 1.1002000000000001e+01
0.0000000000000000e+00 1.1000000000000000e+01
ITEM: ATOMS id type x y z 
10 1 4.61739 4.59921 4.59526 
11 1 3.08579 3.08416 3.08452 
12 1 3.79829 3.78926 3.78816 
46 1 0.715575 0.745086 0.742026 
47 1 2.27105 2.26676 2.26919 
48 1 1.55362 1.56606 1.56615 
19 1 4.55118 4.53034 6.23205 
20 1 3.00504 3.0028 7.77165 
21 1 3.71503 3.7047 7.06441 
31 1 0.663537 0.679031 10.1128 
32 1 2.18567 2.18816 8.58832 
33 1 1.47692 1.48537 9.2981 
16 1 4.52798 6.2401 4.54984 
17 1 3.00096 7.77313 2.99918 
18 1 3.70304 7.06808 3.71295 
25 1 0.659106 10.1169 0.680105 
26 1 2.18652 8.59161 2.18426 
27 1 1.47499 9.30161 1.48442 
4 1 4.60331 6.16507 6.18093 
5 1 3.08203 7.68926 7.69019 
6 1 3.78983 6.97952 6.9862 
37 1 0.728124 10.0477 10.043 
38 1 2.26356 8.50568 8.50531 
39 1 1.55841 9.21417 9.21109 
13 1 6.23008 4.56372 4.50507 
14 1 7.7217 3.26363 2.69414 
15 1 7.04901 3.87728 3.47837 
28 1 10.0468 0.73394 0.7019 
29 1 8.51177 1.98207 2.47006 
30 1 9.22241 1.48369 1.55489 
49 2 8.14584 1.9865 4.57538 
50 3 8.27552 1.33396 3.90579 
1 1 6.18745 4.58746 6.1295 
2 1 7.68736 3.08217 7.67821 
3 1 6.9884 3.78291 6.95623 
40 1 10.0283 0.746879 10.0523 
41 1 8.49956 2.26875 8.4985 
42 1 9.20289 1.56816 9.21491 
7 1 6.16923 6.1705 4.60208 
8 1 7.68765 7.69212 3.0833 
9 1 6.98157 6.98414 3.78998 
43 1 10.0328 10.0578 0.740662 
44 1 8.50654 8.50342 2.26424 
45 1 9.2095 9.21955 1.56248 
22 1 6.23725 6.22513 6.23998 
23 1 7.77293 7.7706 7.77117 
24 1 7.06694 7.06107 7.06733 
34 1 10.0941 10.1111 10.1156 
35 1 8.58702 8.58991 8.58741 
36 1 9.28846 9.29878 9.29845 
ITEM: TIMESTEP
120
ITEM: NUMBER OF ATOMS
50
ITEM: BOX BOUNDS pp pp pp
0.0000000000000000e+00 1.1000000000000000e+01
0.0000000000000000e+00 1.1002000000000001e+01
0.0000000000000000e+00 1.1000000000000000e+01
ITEM: ATOMS id type x y z 
10 1 4.63097 4.59743 4.58484 
11 1 3.08647 3.08226 3.08356 
12 1 3.80482 3.78593 3.78229 
46 1 0.702743 0.753187 0.742996 
47 1 2.26788 2.26601 2.26934 
48 1 1.54867 1.56853 1.56487 
19 1 4.56106 4.52707 6.22085 
20 1 3.01128 3.00501 7.76659 
21 1 3.7216 3.70402 7.05733 
31 1 0.662306 0.683985 10.1155 
32 1 2.18893 2.19188 8.58692 
33 1 1.47823 1.49273 9.29821 
16 1 4.52849 6.23863 4.55299 
17 1 3.00117 7.77345 3.00144 
18 1 3.70281 7.06777 3.71518 
25 1 0.653272 10.1247 0.685563 
26 1 2.18459 8.5922 2.18378 
27 1 1.47224 9.30426 1.48758 
4 1 4.60428 6.16158 6.18187 
5 1 3.07919 7.68965 7.6939 
6 1 3.78858 6.97926 6.99265 
37 1 0.722366 10.0538 10.0498 
38 1 2.2599 8.51109 8.50935 
39 1 1.55514 9.21817 9.21542 
13 1 6.23821 4.57009 4.47726 
14 1 7.73092 3.24493 2.68637 
15 1 7.05532 3.89788 3.43201 
28 1 10.0277 0.760144 0.698758 
29 1 8.50445 1.95316 2.52677 
30 1 9.20729 1.48155 1.5768 
49 2 8.13464 1.93019 4.63222 
50 3 8.3098 1.31086 3.93962 
1 1 6.19509 4.58423 6.10229 
2 1 7.68675 3.08285 7.66632 
3 1 6.99256 3.78064 6.93705 
40 1 10.0238 0.754784 10.0537 
41 1 8.49577 2.27244 8.49532 
42 1 9.19981 1.57263 9.21264 
7 1 6.17108 6.16842 4.59565 
8 1 7.69098 7.69624 3.08109 
9 1 6.98206 6.9876 3.78401 
43 1 10.0272 10.074 0.741254 
44 1 8.51154 8.50785 2.26168 
45 1 9.21023 9.23 1.56267 
22 1 6.23764 6.21966 6.23403 
23 1 7.7704 7.76734 7.76945 
24 1 7.06728 7.05553 7.06495 
34 1 10.0902 10.1151 10.1172 
35 1 8.58475 8.58799 8.58896 
36 1 9.28543 9.30028 9.29706 
ITEM: TIMESTEP
130
ITEM: NUMBER OF ATOMS
50
ITEM: BOX BOUNDS pp pp pp
0.0000000000000000e+00 1.1000000000000000e+01
0.0000000000000000e+00 1.1002000000000001e+01
0.0000000000000000e+00 1.1000000000000000e+01
ITEM: ATOMS id type x y z 
10 1 4.63199 4.59654 4.58243 
11 1 3.0876 3.08097 3.083 
12 1 3.8059 3.78633 3.7803 
46 1 0.708608 0.755229 0.739549 
47 1 2.27062 2.26525 2.26722 
48 1 1.5406 1.5718 1.56966 
19 1 4.56382 4.5264 6.21834 
20 1 3.01301 3.00587 7.76497 
21 1 3.72446 3.70342 7.05532 
31 1 0.661275 0.687799 10.1138 
32 1 2.18912 2.19309 8.58757 
33 1 1.47879 1.49254 9.29732 
16 1 4.5273 6.24029 4.55392 
17 1 3.00026 7.77385 3.00137 
18 1 3.70217 7.06847 3.71461 
25 1 0.653466 10.129 0.685518 
26 1 2.19053 8.59604 2.18177 
27 1 1.45992 9.29843 1.49468 
4 1 4.60447 6.16139 6.18474 
5 1 3.08051 7.68786 7.69407 
6 1 3.78926 6.97805 6.99173 
37 1 0.721709 10.0538 10.0498 
38 1 2.25925 8.50828 8.51233 
39 1 1.55541 9.22469 9.21187 
13 1 6.2414 4.57143 4.46924 
14 1 7.73211 3.23546 2.69028 
15 1 7.05388 3.89951 3.43118 
28 1 10.0245 0.759385 0.700939 
29 1 8.47963 1.96852 2.5695 
30 1 9.22384 1.46599 1.55904 
49 2 8.13193 1.91637 4.64769 
50 3 8.31631 1.30807 3.9455 
1 1 6.19771 4.58383 6.09664 
2 1 7.68727 3.08215 7.66213 
3 1 6.99324 3.78033 6.93338 
40 1 10.0247 0.75562 10.0464 
41 1 8.49426 2.2742 8.4937 
42 1 9.19885 1.57417 9.20941 
7 1 6.16605 6.1735 4.5924 
8 1 7.68594 7.70154 3.07599 
9 1 6.99708 6.98283 3.78803 
43 1 10.0275 10.0744 0.73872 
44 1 8.51271 8.51213 2.26187 
45 1 9.21029 9.2315 1.55948 
22 1 6.23865 6.2151 6.23254 
23 1 7.77193 7.76205 7.7697 
24 1 7.06276 7.06039 7.06165 
34 1 10.0897 10.1234 10.1144 
35 1 8.5855 8.59355 8.58098 
36 1 9.28022 9.28813 9.3113 
ITEM: TIMESTEP
140
ITEM: NUMBER OF ATOMS
50
ITEM: BOX BOUNDS pp pp pp
0.0000000000000000e+00 1.1000000000000000e+01
0.0000000000000000e+00 1.1002000000000001e+01
0.0000000000000000e+00 1.1000000000000000e+01
ITEM: ATOMS id type x y z 
10 1 4.62921 4.59822 4.58174 
11 1 3.08887 3.08007 3.08222 
12 1 3.80569 3.78677 3.78002 
46 1 0.711261 0.754247 0.73853 
47 1 2.26579 2.26763 2.27075 
48 1 1.54869 1.56975 1.56429 
19 1 4.56442 4.52538 6.21637 
20 1 3.01373 3.00553 7.76474 
21 1 3.72528 3.70274 7.05461 
31 1 0.660311 0.687179 10.1143 
32 1 2.19036 2.19447 8.58657 
33 1 1.47972 1.49414 9.29618 
16 1 4.52746 6.23988 4.55419 
17 1 3.00104 7.77355 3.00168 
18 1 3.70263 7.06858 3.71514 
25 1 0.650198 10.1273 0.686803 
26 1 2.18234 8.59295 2.1853 
27 1 1.47154 9.30637 1.48892 
4 1 4.60437 6.16035 6.18293 
5 1 3.07952 7.68853 7.69553 
6 1 3.78829 6.97796 6.99389 
37 1 0.721835 10.0581 10.0481 
38 1 2.25926 8.51133 8.51083 
39 1 1.55462 9.22094 9.21558 
13 1 6.24225 4.57197 4.46614 
14 1 7.72991 3.24046 2.68679 
15 1 7.05118 3.90199 3.43204 
28 1 10.0302 0.760943 0.691816 
29 1 8.47366 1.9673 2.5844 
30 1 9.21888 1.46597 1.56926 
49 2 8.12993 1.90857 4.6602 
50 3 8.32003 1.30427 3.95161 
1 1 6.19852 4.58275 6.09705 
2 1 7.68749 3.08176 7.65967 
3 1 6.99324 3.78097 6.93117 
40 1 10.0272 0.755014 10.0368 
41 1 8.49258 2.27562 8.49354 
42 1 9.20012 1.57359 9.20537 
7 1 6.17102 6.17491 4.59407 
8 1 7.69311 7.69827 3.07893 
9 1 6.98493 6.98924 3.78287 
43 1 10.0283 10.0681 0.737839 
44 1 8.50969 8.51248 2.26364 
45 1 9.20989 9.22961 1.56007 
22 1 6.23738 6.21829 6.23091 
23 1 7.77023 7.76509 7.76833 
24 1 7.06678 7.05552 7.06259 
34 1 10.0888 10.1187 10.1164 
35 1 8.58336 8.58687 8.58902 
36 1 9.28291 9.29886 9.29827 
ITEM: TIMESTEP
150
ITEM: NUMBER OF ATOMS
50
ITEM: BOX BOUNDS pp pp pp
0.0000000000000000e+00 1.1000000000000000e+01
0.0000000000000000e+00 1.1002000000000001e+01
0.0000000000000000e+00 1.1000000000000000e+01
ITEM: ATOMS id type x y z 
10 1 4.62903 4.59872 4.58122 
11 1 3.08902 3.08003 3.08221 
12 1 3.80573 3.78687 3.77986 
46 1 0.711177 0.754057 0.738233 
47 1 2.26542 2.26751 2.27062 
48 1 1.54875 1.56959 1.56399 
19 1 4.56472 4.52504 6.21619 
20 1 3.01408 3.00557 7.76461 
21 1 3.72548 3.70265 7.0542 
31 1 0.660588 0.687705 10.1136 
32 1 2.19047 2.19449 8.58661 
33 1 1.47962 1.49438 9.29611 
16 1 4.52753 6.23993 4.55422 
17 1 3.00095 7.7735 3.00177 
18 1 3.70238 7.06882 3.71509 
25 1 0.650762 10.1277 0.686755 
26 1 2.18251 8.59336 2.18533 
27 1 1.47095 9.30601 1.48908 
4 1 4.60418 6.16054 6.18333 
5 1 3.07976 7.6881 7.696 
6 1 3.78805 6.97832 6.99322 
37 1 0.721979 10.0579 10.048 
38 1 2.25922 8.51172 8.511 
39 1 1.55427 9.22073 9.21583 
13 1 6.24199 4.57253 4.46623 
14 1 7.72995 3.2399 2.68666 
15 1 7.05118 3.90209 3.43142 
28 1 10.0294 0.761784 0.692051 
29 1 8.4727 1.96733 2.58668 
30 1 9.21953 1.46444 1.56979 
49 2 8.12948 1.90625 4.66331 
50 3 8.32081 1.30399 3.95307 
1 1 6.19853 4.58291 6.09636 
2 1 7.68741 3.08159 7.65906 
3 1 6.99357 3.78123 6.93077 
40 1 10.0275 0.754218 10.0367 
41 1 8.49245 2.27546 8.4932 
42 1 9.2004 1.57396 9.20501 
7 1 6.1706 6.17552 4.59351 
8 1 7.69291 7.69802 3.07887 
9 1 6.9848 6.98981 3.78343 
43 1 10.0286 10.0684 0.737051 
44 1 8.50997 8.51289 2.26342 
45 1 9.21016 9.23011 1.55966 
22 1 6.23765 6.21834 6.23078 
23 1 7.77021 7.76501 7.7683 
24 1 7.06677 7.05508 7.06258 
34 1 10.0886 10.119 10.1156 
35 1 8.58341 8.58704 8.58905 
36 1 9.28281 9.29884 9.29846 
ITEM: TIMESTEP
160
ITEM: NUMBER OF ATOMS
50
ITEM: BOX BOUNDS pp pp pp
0.0000000000000000e+00 1.1000000000000000e+01
0.0000000000000000e+00 1.1002000000000001e+01
0.0000000000000000e+00 1.1000000000000000e+01
ITEM: ATOMS id type x y z 
10 1 4.62806 4.60382 4.57495 
11 1 3.08999 3.07801 3.08087 
12 1 3.80592 3.78811 3.77534 
46 1 0.714051 0.750632 0.731951 
47 1 2.26256 2.26389 2.26865 
48 1 1.54438 1.57021 1.55914 
19 1 4.56893 4.52085 6.20994 
20 1 3.01942 3.00539 7.75959 
21 1 3.73187 3.70356 7.05136 
31 1 0.663362 0.69528 10.1073 
32 1 2.19428 2.19989 8.58727 
33 1 1.48045 1.49491 9.28917 
16 1 4.52601 6.24336 4.55433 
17 1 2.99707 7.77559 3.00076 
18 1 3.6979 7.0722 3.71489 
25 1 0.65384 10.1298 0.683808 
26 1 2.17949 8.59288 2.18498 
27 1 1.4715 9.31374 1.49368 
4 1 4.60118 6.16362 6.18578 
5 1 3.07994 7.68763 7.69882 
6 1 3.78686 6.97581 6.99578 
37 1 0.723195 10.0543 10.047 
38 1 2.25862 8.51322 8.51293 
39 1 1.55298 9.22139 9.21794 
13 1 6.24041 4.58025 4.46184 
14 1 7.72692 3.23387 2.68727 
15 1 7.04832 3.9061 3.42418 
28 1 10.0204 0.772289 0.692785 
29 1 8.46503 1.96017 2.6185 
30 1 9.21761 1.44595 1.59648 
49 2 8.12139 1.86323 4.71977 
50 3 8.33499 1.29927 3.97968 
1 1 6.19852 4.58889 6.08809 
2 1 7.6869 3.08434 7.65295 
3 1 6.99766 3.77543 6.91341 
40 1 10.0332 0.751768 10.0292 
41 1 8.49602 2.27829 8.489 
42 1 9.19667 1.56733 9.19663 
7 1 6.16621 6.18477 4.58874 
8 1 7.69387 7.7004 3.07781 
9 1 6.98281 6.99716 3.78378 
43 1 10.0324 10.0726 0.726512 
44 1 8.51419 8.52113 2.26023 
45 1 9.21466 9.23543 1.55265 
22 1 6.24062 6.21825 6.22946 
23 1 7.77039 7.7618 7.76916 
24 1 7.06748 7.05234 7.06188 
34 1 10.0869 10.1249 10.1047 
35 1 8.58094 8.58783 8.58839 
36 1 9.28167 9.29715 9.29865 
ITEM: TIMESTEP
170
ITEM: NUMBER OF ATOMS
50
ITEM: BOX BOUNDS pp pp pp
0.0000000000000000e+00 1.1000000000000000e+01
0.0000000000000000e+00 1.1002000000000001e+01
0.0000000000000000e+00 1.1000000000000000e+01
ITEM: ATOMS id type x y z 
10 1 4.62702 4.60985 4.55894 
11 1 3.08767 3.07252 3.07308 
12 1 3.80327 3.78716 3.76449 
46 1 0.696487 0.766351 0.717756 
47 1 2.25719 2.26189 2.26397 
48 1 1.5437 1.56654 1.55174 
19 1 4.57507 4.52491 6.1943 
20 1 3.03428 3.00599 7.75276 
21 1 3.74156 3.70129 7.03763 
31 1 0.657916 0.695988 10.0956 
32 1 2.20305 2.20694 8.57953 
33 1 1.48723 1.50746 9.28505 
16 1 4.51988 6.25408 4.55677 
17 1 2.98818 7.77841 3.00153 
18 1 3.69158 7.07816 3.71769 
25 1 0.655801 10.1423 0.677935 
26 1 2.17161 8.60362 2.18999 
27 1 1.46765 9.3177 1.48842 
4 1 4.60208 6.15996 6.18827 
5 1 3.07883 7.68314 7.70588 
6 1 3.78753 6.97358 7.00098 
37 1 0.725754 10.0631 10.0414 
38 1 2.26166 8.51009 8.51569 
39 1 1.55465 9.22111 9.21603 
13 1 6.2382 4.60203 4.43358 
14 1 7.72296 3.20153 2.70521 
15 1 7.04276 3.91062 3.40522 