LAMMPS (3 Mar 2020)
# Alpha
clear
units		real
dimension 3
boundary        p p p
atom_style	charge
newton on
read_data       O_12.lmp
  triclinic box = (0 0 0) to (13.552 11.7355 22.15) with tilt (-6.7755 0 0)
  2 by 2 by 2 MPI processor grid
  reading atoms ...
  161 atoms
  read_data CPU = 0.00925669 secs

timestep 0.25

# ---------- Define Interatomic Potential ---------------------
pair_style      reax/c NULL checkqeq no
pair_coeff      * * ffield.reax C O
fix             2 all qeq/reax 1 0.0 10.0 1.0e-6 reax/c

#------------ Equilibration of the system -------------------------
reset_timestep 0

dump 1 all custom 10 min.lammpstrj id type x y z

minimize 1.0e-8 1.0e-8 100000 100000
WARNING: Using 'neigh_modify every 1 delay 0 check yes' setting during minimization (../min.cpp:190)
WARNING: Total cutoff < 2*bond cutoff. May need to use an increased neighbor list skin. (../pair_reaxc.cpp:413)
Neighbor list info ...
  update every 1 steps, delay 0 steps, check yes
  max neighbors/atom: 2000, page size: 100000
  master list distance cutoff = 9.5
  ghost atom cutoff = 9.5
  binsize = 4.75, bins = 5 3 5
  2 neighbor lists, perpetual/occasional/extra = 2 0 0
  (1) pair reax/c, perpetual
      attributes: half, newton off, ghost
      pair build: half/bin/newtoff/ghost
      stencil: half/ghost/bin/3d/newtoff
      bin: standard
  (2) fix qeq/reax, perpetual, copy from (1)
      attributes: half, newton off, ghost
      pair build: copy
      stencil: none
      bin: none
Per MPI rank memory allocation (min/avg/max) = 22.39 | 23.35 | 24.31 Mbytes
Step Temp E_pair E_mol TotEng Press 
       0            0   -25257.697            0   -25257.697    79064.919 
     322            0   -29230.366            0   -29230.366    40632.105 
Loop time of 17.0594 on 8 procs for 322 steps with 161 atoms

99.3% CPU use with 8 MPI tasks x no OpenMP threads

Minimization stats:
  Stopping criterion = energy tolerance
  Energy initial, next-to-last, final = 
        -25257.6969561     -29230.3652474     -29230.3655026
  Force two-norm initial, final = 5012.26 145.69
  Force max component initial, final = 1117.27 42.7753
  Final line search alpha, max atom move = 0.00053947 0.023076
  Iterations, force evaluations = 322 2131

MPI task timing breakdown:
Section |  min time  |  avg time  |  max time  |%varavg| %total
---------------------------------------------------------------
Pair    | 13.032     | 13.647     | 14.119     |  11.7 | 79.99
Neigh   | 0          | 0          | 0          |   0.0 |  0.00
Comm    | 0.15536    | 0.62649    | 1.2402     |  54.4 |  3.67
Output  | 0.0013923  | 0.0016973  | 0.0024615  |   0.8 |  0.01
Modify  | 2.7588     | 2.7596     | 2.7605     |   0.0 | 16.18
Other   |            | 0.025      |            |       |  0.15

Nlocal:    20.125 ave 32 max 4 min
Histogram: 2 0 1 0 1 0 0 0 1 3
Nghost:    839.125 ave 883 max 789 min
Histogram: 2 2 0 0 0 0 0 0 0 4
Neighs:    2751.12 ave 4289 max 591 min
Histogram: 2 0 0 1 1 0 0 0 1 3

Total # of neighbors = 22009
Ave neighs/atom = 136.702
Neighbor list builds = 0
Dangerous builds = 0

###
min_style cg
minimize 1.0e-8 1.0e-8 100000 100000
WARNING: Using 'neigh_modify every 1 delay 0 check yes' setting during minimization (../min.cpp:190)
WARNING: Total cutoff < 2*bond cutoff. May need to use an increased neighbor list skin. (../pair_reaxc.cpp:413)
Per MPI rank memory allocation (min/avg/max) = 22.39 | 23.35 | 24.31 Mbytes
Step Temp E_pair E_mol TotEng Press 
     322            0   -29230.366            0   -29230.366    40632.105 
     374            0   -29233.587            0   -29233.587    28720.172 
Loop time of 3.35518 on 8 procs for 52 steps with 161 atoms

99.2% CPU use with 8 MPI tasks x no OpenMP threads

Minimization stats:
  Stopping criterion = energy tolerance
  Energy initial, next-to-last, final = 
        -29230.3655026     -29233.5866528     -29233.5866954
  Force two-norm initial, final = 145.69 298.917
  Force max component initial, final = 42.7753 73.7641
  Final line search alpha, max atom move = 7.90852e-05 0.00583365
  Iterations, force evaluations = 52 412

MPI task timing breakdown:
Section |  min time  |  avg time  |  max time  |%varavg| %total
---------------------------------------------------------------
Pair    | 2.5589     | 2.705      | 2.8075     |   5.7 | 80.62
Neigh   | 0          | 0          | 0          |   0.0 |  0.00
Comm    | 0.024973   | 0.1275     | 0.27355    |  26.3 |  3.80
Output  | 0.00022384 | 0.00026565 | 0.00038278 |   0.0 |  0.01
Modify  | 0.51707    | 0.51727    | 0.51756    |   0.0 | 15.42
Other   |            | 0.005154   |            |       |  0.15

Nlocal:    20.125 ave 32 max 4 min
Histogram: 2 0 1 1 0 0 0 0 1 3
Nghost:    874.125 ave 920 max 824 min
Histogram: 3 1 0 0 0 0 0 0 0 4
Neighs:    2725.62 ave 4276 max 586 min
Histogram: 2 0 0 2 0 0 0 0 1 3

Total # of neighbors = 21805
Ave neighs/atom = 135.435
Neighbor list builds = 0
Dangerous builds = 0

###
fix 1 all box/relax aniso 0.0
min_style cg
minimize 1.0e-8 1.0e-8 100000 100000
WARNING: Using 'neigh_modify every 1 delay 0 check yes' setting during minimization (../min.cpp:190)
WARNING: Total cutoff < 2*bond cutoff. May need to use an increased neighbor list skin. (../pair_reaxc.cpp:413)
Per MPI rank memory allocation (min/avg/max) = 22.39 | 23.35 | 24.31 Mbytes
Step Temp E_pair E_mol TotEng Press Volume 
     374            0   -29233.587            0   -29233.587    28720.172    3522.7279 
     449            0   -29249.528            0   -29249.528    7501.2493    3527.8172 
Loop time of 0.9462 on 8 procs for 75 steps with 161 atoms

99.2% CPU use with 8 MPI tasks x no OpenMP threads

Minimization stats:
  Stopping criterion = linesearch alpha is zero
  Energy initial, next-to-last, final = 
        -29233.5866954     -29249.5283619     -29249.5283619
  Force two-norm initial, final = 3695.31 835.144
  Force max component initial, final = 3327.53 534.97
  Final line search alpha, max atom move = 1.22106e-14 6.53231e-12
  Iterations, force evaluations = 75 124

MPI task timing breakdown:
Section |  min time  |  avg time  |  max time  |%varavg| %total
---------------------------------------------------------------
Pair    | 0.77898    | 0.81737    | 0.85158    |   3.2 | 86.38
Neigh   | 0          | 0          | 0          |   0.0 |  0.00
Comm    | 0.0054634  | 0.039469   | 0.077791   |  14.6 |  4.17
Output  | 0.00027789 | 0.00032737 | 0.00047358 |   0.0 |  0.03
Modify  | 0.085019   | 0.085098   | 0.085183   |   0.0 |  8.99
Other   |            | 0.003938   |            |       |  0.42

Nlocal:    20.125 ave 32 max 4 min
Histogram: 2 0 1 1 0 0 0 0 0 4
Nghost:    875.125 ave 921 max 826 min
Histogram: 3 1 0 0 0 0 0 0 0 4
Neighs:    2725.12 ave 4212 max 588 min
Histogram: 2 0 0 2 0 0 0 0 0 4

Total # of neighbors = 21801
Ave neighs/atom = 135.41
Neighbor list builds = 0
Dangerous builds = 0

unfix 1
###
min_style cg
minimize 1.0e-8 1.0e-8 100000 100000
WARNING: Using 'neigh_modify every 1 delay 0 check yes' setting during minimization (../min.cpp:190)
WARNING: Total cutoff < 2*bond cutoff. May need to use an increased neighbor list skin. (../pair_reaxc.cpp:413)
Per MPI rank memory allocation (min/avg/max) = 22.39 | 23.35 | 24.31 Mbytes
Step Temp E_pair E_mol TotEng Press 
     449            0   -29249.528            0   -29249.528    7501.2493 
     572            0   -29256.946            0   -29256.946    36845.964 
Loop time of 8.19138 on 8 procs for 123 steps with 161 atoms

99.2% CPU use with 8 MPI tasks x no OpenMP threads

Minimization stats:
  Stopping criterion = energy tolerance
  Energy initial, next-to-last, final = 
        -29249.5283619     -29256.9456336     -29256.9457459
  Force two-norm initial, final = 462.998 72.1823
  Force max component initial, final = 56.9173 18.8584
  Final line search alpha, max atom move = 0.0150151 0.283161
  Iterations, force evaluations = 123 1000

MPI task timing breakdown:
Section |  min time  |  avg time  |  max time  |%varavg| %total
---------------------------------------------------------------
Pair    | 6.1325     | 6.5442     | 6.8716     |  10.1 | 79.89
Neigh   | 0          | 0          | 0          |   0.0 |  0.00
Comm    | 0.055278   | 0.38171    | 0.79289    |  41.7 |  4.66
Output  | 0.00055457 | 0.00065284 | 0.00094439 |   0.0 |  0.01
Modify  | 1.2528     | 1.2532     | 1.2537     |   0.0 | 15.30
Other   |            | 0.01169    |            |       |  0.14

Nlocal:    20.125 ave 32 max 4 min
Histogram: 2 0 1 1 0 0 0 0 0 4
Nghost:    869.875 ave 922 max 810 min
Histogram: 1 3 0 0 0 0 0 0 1 3
Neighs:    2717.75 ave 4201 max 585 min
Histogram: 2 0 0 2 0 0 0 0 0 4

Total # of neighbors = 21742
Ave neighs/atom = 135.043
Neighbor list builds = 0
Dangerous builds = 0

###
fix 1 all box/relax aniso 0.0
min_style cg
minimize 1.0e-8 1.0e-8 100000 100000
WARNING: Using 'neigh_modify every 1 delay 0 check yes' setting during minimization (../min.cpp:190)
WARNING: Total cutoff < 2*bond cutoff. May need to use an increased neighbor list skin. (../pair_reaxc.cpp:413)
Per MPI rank memory allocation (min/avg/max) = 22.39 | 23.35 | 24.31 Mbytes
Step Temp E_pair E_mol TotEng Press Volume 
     572            0   -29256.946            0   -29256.946    36845.964    3527.8172 
     627            0   -29266.593            0   -29266.593   -2758.2101    3531.8029 
Loop time of 0.723369 on 8 procs for 55 steps with 161 atoms

99.2% CPU use with 8 MPI tasks x no OpenMP threads

Minimization stats:
  Stopping criterion = energy tolerance
  Energy initial, next-to-last, final = 
        -29256.9457459     -29266.5934285     -29266.5934285
  Force two-norm initial, final = 4126.95 582.393
  Force max component initial, final = 3614.45 288.246
  Final line search alpha, max atom move = 9.90917e-14 2.85628e-11
  Iterations, force evaluations = 55 95

MPI task timing breakdown:
Section |  min time  |  avg time  |  max time  |%varavg| %total
---------------------------------------------------------------
Pair    | 0.58032    | 0.62021    | 0.65269    |   3.2 | 85.74
Neigh   | 0          | 0          | 0          |   0.0 |  0.00
Comm    | 0.0037744  | 0.036114   | 0.075925   |  13.1 |  4.99
Output  | 0.0002009  | 0.00023592 | 0.00034234 |   0.0 |  0.03
Modify  | 0.063724   | 0.063768   | 0.063819   |   0.0 |  8.82
Other   |            | 0.003039   |            |       |  0.42

Nlocal:    20.125 ave 32 max 4 min
Histogram: 2 0 1 1 0 0 0 0 0 4
Nghost:    868.625 ave 923 max 808 min
Histogram: 1 2 1 0 0 0 0 0 2 2
Neighs:    2719.12 ave 4267 max 584 min
Histogram: 2 0 0 2 0 0 0 0 0 4

Total # of neighbors = 21753
Ave neighs/atom = 135.112
Neighbor list builds = 0
Dangerous builds = 0

unfix 1
###
min_style cg
minimize 1.0e-8 1.0e-8 100000 100000
WARNING: Using 'neigh_modify every 1 delay 0 check yes' setting during minimization (../min.cpp:190)
WARNING: Total cutoff < 2*bond cutoff. May need to use an increased neighbor list skin. (../pair_reaxc.cpp:413)
Per MPI rank memory allocation (min/avg/max) = 22.39 | 23.35 | 24.31 Mbytes
Step Temp E_pair E_mol TotEng Press 
     627            0   -29266.593            0   -29266.593   -2758.2101 
     671            0   -29271.098            0   -29271.098    33699.074 
Loop time of 2.94563 on 8 procs for 44 steps with 161 atoms

99.2% CPU use with 8 MPI tasks x no OpenMP threads

Minimization stats:
  Stopping criterion = energy tolerance
  Energy initial, next-to-last, final = 
        -29266.5934285     -29271.0981762     -29271.0982345
  Force two-norm initial, final = 468.597 19.9692
  Force max component initial, final = 56.4472 3.26553
  Final line search alpha, max atom move = 0.000475687 0.00155337
  Iterations, force evaluations = 44 362

MPI task timing breakdown:
Section |  min time  |  avg time  |  max time  |%varavg| %total
---------------------------------------------------------------
Pair    | 2.2126     | 2.362      | 2.4674     |   5.9 | 80.19
Neigh   | 0          | 0          | 0          |   0.0 |  0.00
Comm    | 0.019534   | 0.12479    | 0.27417    |  25.6 |  4.24
Output  | 0.00020743 | 0.00024388 | 0.00035466 |   0.0 |  0.01
Modify  | 0.45397    | 0.45413    | 0.4543     |   0.0 | 15.42
Other   |            | 0.004458   |            |       |  0.15

Nlocal:    20.125 ave 32 max 4 min
Histogram: 2 0 1 1 0 0 0 0 0 4
Nghost:    866.125 ave 919 max 808 min
Histogram: 2 1 1 0 0 0 0 0 2 2
Neighs:    2714.38 ave 4248 max 583 min
Histogram: 2 0 0 2 0 0 0 0 0 4

Total # of neighbors = 21715
Ave neighs/atom = 134.876
Neighbor list builds = 0
Dangerous builds = 0

undump 1
#############
#----------- Thermo ------------
reset_timestep 0
thermo  200

thermo_style    custom step temp etotal ke pe press
velocity all create 300 12345 mom yes rot yes
fix 1 all npt temp 300 300 25.0 iso 0.0 0.0 250.0

variable vpe equal pe
variable vtemp equal temp
variable vstep equal step

fix output all print 2500 "${vstep} ${vtemp} ${vpe}" file temp-tpdh-Pt.dat screen no

dump 1 all custom 2500 thermo-tpdh-Pt.lammpstrj id type x y z

run 1000000
WARNING: Total cutoff < 2*bond cutoff. May need to use an increased neighbor list skin. (../pair_reaxc.cpp:413)
Per MPI rank memory allocation (min/avg/max) = 21.28 | 22.24 | 23.2 Mbytes
Step Temp TotEng KinEng PotEng Press 
       0          300   -29128.019    143.07888   -29271.098     35550.95 
     200    327.79163   -29189.754    156.33353   -29346.087    12790.433 
     400    355.58085   -29235.034    169.58704   -29404.621    -35700.42 
     600    270.29603   -29273.624    128.91218   -29402.536   -1406.6508 
     800     319.7094   -29258.785    152.47888   -29411.263   -31585.281 
    1000    334.44468   -29273.251    159.50657   -29432.757    31493.003 
    1200    263.63882   -29301.313    125.73716   -29427.051   -7141.1451 
    1400    300.89827   -29265.987    143.50729   -29409.494   -12109.852 
    1600     309.0928   -29284.313    147.41551   -29431.728   -72.284538 
    1800    262.29388   -29274.359    125.09572   -29399.454   -19211.836 
    2000    333.24988   -29246.752    158.93673   -29405.688     7584.904 
    2200    281.42007   -29252.588    134.21757   -29386.806   -1143.6338 
    2400    322.33688   -29242.266      153.732   -29395.998   -16590.999 
    2600    315.94097   -29259.567     150.6816   -29410.248   -3326.3662 
    2800    298.92408   -29292.934    142.56574     -29435.5    9826.1827 
    3000    309.13171   -29278.708    147.43407   -29426.142     12999.51 
    3200    297.43516   -29294.164    141.85564    -29436.02    17058.419 
    3400    279.04808   -29293.161    133.08629   -29426.247    8712.7459 
    3600    307.67416   -29268.593    146.73891   -29415.332   -21831.887 
    3800    256.59346   -29288.679    122.37702   -29411.056   -27268.947 
    4000    336.14103   -29249.536    160.31561   -29409.852   -12597.621 
    4200    289.59357   -29291.128    138.11575   -29429.244   -40559.677 
    4400    323.96814   -29280.019       154.51   -29434.529   -7894.5057 
    4600    302.11405   -29304.901    144.08713   -29448.989   -15627.564 
    4800    298.53156   -29305.175    142.37854   -29447.553    19956.755 
    5000    277.46623   -29318.119    132.33186   -29450.451   -14050.335 
    5200    296.91268   -29309.979    141.60645   -29451.586   -13387.966 
    5400    292.47319   -29292.338    139.48912   -29431.827   -17562.428 
    5600    317.99022   -29271.722    151.65895   -29423.381    6479.9641 
    5800    278.51033   -29296.522    132.82982   -29429.351     281.3678 
    6000    276.69003   -29277.592    131.96167   -29409.554    24065.885 
    6200    288.91872   -29266.947    137.79389   -29404.741    37372.276 
    6400    305.26819   -29260.576    145.59144   -29406.167    28019.226 
    6600    302.14052   -29277.991    144.09976   -29422.091    36203.102 
    6800    272.35876    -29299.54    129.89596   -29429.436   -27559.409 
    7000    309.50081    -29266.83     147.6101    -29414.44   -511.34584 
    7200     284.1741   -29262.765    135.53104   -29398.296   -12955.936 
    7400    305.53418   -29238.901     145.7183   -29384.619    12296.744 
    7600    299.17761   -29236.368    142.68666   -29379.055    41167.263 
    7800    307.60883   -29244.963    146.70776    -29391.67   -66329.513 
    8000    299.61233   -29243.672    142.89399   -29386.566    47701.158 
    8200    278.50411   -29276.989    132.82686   -29409.816   -10258.808 
    8400    321.85523   -29263.413    153.50229   -29416.916   -24486.769 
    8600    300.25262   -29249.669    143.19936   -29392.868    32704.358 
    8800    297.02541   -29235.994    141.66021   -29377.655   -23415.322 
    9000    299.63155   -29237.019    142.90316   -29379.922   -1397.0925 
    9200    318.85992   -29212.242    152.07374   -29364.316   -21696.764 
    9400    315.48327   -29194.701    150.46331   -29345.164    6110.4498 
    9600    300.62313   -29217.284    143.37607    -29360.66    27598.417 
    9800    292.94983   -29222.353    139.71645    -29362.07   -40492.177 
   10000    329.90734   -29197.917    157.34258    -29355.26   -3297.4639 
   10200    303.17317   -29219.092    144.59226   -29363.684     3600.364 
   10400    283.81461   -29255.246    135.35959   -29390.606   -22106.215 
   10600    295.25656   -29259.512    140.81659   -29400.328     17576.07 
   10800    284.56912   -29278.539    135.71944   -29414.259    7555.0075 
   11000    337.97385    -29249.08    161.18973    -29410.27   -39901.578 
   11200    256.04738   -29252.358    122.11658   -29374.474     2682.255 
   11400     322.8294   -29219.452     153.9669   -29373.419    37529.981 
   11600    264.63628   -29240.012    126.21288   -29366.225    36845.611 
   11800    321.88107   -29228.141    153.51461   -29381.656    12947.278 
   12000    265.94066   -29263.671    126.83497   -29390.506    19407.531 
   12200    304.05157   -29259.403    145.01119   -29404.414    10230.026 
   12400    297.16304   -29269.542    141.72585   -29411.268     32211.49 
   12600    302.45028   -29275.984    144.24749   -29420.232    7031.5229 
   12800    291.23453    -29251.14    138.89837   -29390.038   -24422.068 
   13000    307.95804   -29242.914    146.87431   -29389.788   -12693.039 
   13200    342.14466   -29218.679    163.17892   -29381.858    2749.2454 
   13400    282.13283   -29251.327     134.5575   -29385.885   -15418.067 
   13600    271.64839   -29221.038    129.55716   -29350.595   -60237.661 
   13800    316.33805   -29218.468    150.87098   -29369.339   -961.01338 
   14000     294.5857   -29248.807    140.49664   -29389.304    62208.378 
   14200    314.09764   -29245.914    149.80246   -29395.717    10958.598 
   14400    320.29382   -29246.461    152.75761   -29399.218     2828.286 
   14600     278.2277   -29263.649    132.69503   -29396.344   -30428.116 
   14800    309.31321   -29234.294    147.52063   -29381.815    18611.528 
   15000    303.20922   -29228.792    144.60945   -29373.401    22232.926 
   15200    356.71808   -29199.467    170.12942   -29369.596   -2268.1357 
   15400    332.73317    -29240.68     158.6903    -29399.37    -24616.62 
   15600     292.1492   -29271.877     139.3346   -29411.211   -1649.9673 
   15800    314.54021   -29252.848    150.01354   -29402.861    2100.0395 
   16000    291.39749   -29274.968    138.97609   -29413.944    1217.9681 
   16200    318.47143   -29270.442    151.88845   -29422.331   -18788.564 
   16400    293.40683   -29251.452    139.93441   -29391.387    7291.5783 
   16600    323.62549   -29240.895    154.34658   -29395.241   -10715.946 
   16800    288.77074   -29264.016    137.72332   -29401.739    21688.699 
   17000    312.26511   -29253.964    148.92847   -29402.893    6453.2315 
   17200    309.09979   -29242.427    147.41884   -29389.846   -14369.814 
   17400    299.13655   -29277.352    142.66708   -29420.019    3778.7042 
   17600    317.40458   -29265.792    151.37964   -29417.171    6835.5234 
   17800     326.3375   -29256.711    155.64002   -29412.351    219.78684 
   18000    296.66216    -29286.59    141.48697   -29428.077   -1542.1454 
   18200    301.69861   -29297.811      143.889     -29441.7    11599.194 
   18400    282.99338   -29288.199    134.96792   -29423.167    11072.939 
   18600    290.21719   -29267.789    138.41317   -29406.202    9233.7573 
   18800    282.16836   -29285.875    134.57445    -29420.45   -8553.8922 
   19000     273.0127   -29279.729    130.20784   -29409.937    2876.2143 
   19200    310.88452   -29269.835    148.27003   -29418.105    20542.119 
   19400    286.55858   -29293.685    136.66827   -29430.354    15275.524 
   19600     308.4789   -29296.313    147.12272   -29443.436    11803.418 
   19800    255.45142   -29319.745    121.83235   -29441.577     6822.261 
   20000    318.71886   -29290.003    152.00646   -29442.009   -20860.198 
   20200     286.4331   -29297.626    136.60842   -29434.235   -17309.992 
   20400    321.81918   -29265.171    153.48509   -29418.656   -9903.9099 
   20600    311.68389   -29287.826    148.65128   -29436.477    15912.351 
   20800    314.38959    -29282.57     149.9417   -29432.511    34052.694 
   21000    324.54819   -29262.726    154.78664   -29417.512   -6990.0336 
   21200    332.45833   -29259.105    158.55922   -29417.665    20535.445 
   21400    293.67899   -29287.647    140.06421   -29427.711   -20437.574 
   21600    305.96215   -29286.697    145.92241    -29432.62    20209.449 
   21800    318.65474   -29266.432    151.97588   -29418.408    -13316.29 
   22000    277.55664   -29292.443    132.37498   -29424.818   -4992.5093 
   22200    297.32338   -29277.585    141.80232   -29419.387     13292.82 
   22400    294.45745   -29260.731    140.43548   -29401.166   -8728.0158 
   22600    305.28596   -29240.936    145.59991   -29386.535   -6221.3589 
   22800    319.62562   -29251.135    152.43892   -29403.574    13639.957 
   23000    289.99261   -29266.639    138.30606   -29404.945     6132.193 
   23200    296.72476   -29238.367    141.51682   -29379.884   -8174.9444 
   23400    312.26153   -29265.875    148.92677   -29414.802   -16604.172 
   23600    319.02021   -29261.385    152.15018   -29413.535    22805.887 
   23800    308.51621   -29246.989    147.14052    -29394.13    7531.0471 
   24000    287.89162   -29273.083    137.30404   -29410.387   -15936.726 
   24200    314.01534   -29243.372    149.76321   -29393.135   -18658.821 
   24400    334.00088   -29241.184    159.29491   -29400.479   -3525.0761 
   24600    271.36766   -29270.108    129.42327   -29399.532   -20387.593 
   24800    308.97057    -29249.61    147.35721   -29396.967     11042.64 
   25000    321.84448   -29256.594    153.49716   -29410.091   -15667.048 
   25200    278.29677   -29278.889    132.72797   -29411.617    27283.234 
   25400    334.91732   -29250.808    159.73198    -29410.54    3381.9389 
   25600    303.62463   -29272.573    144.80758   -29417.381    7367.3842 
   25800    305.34425   -29277.657    145.62771   -29423.285    4680.4137 
   26000    330.76289   -29251.957    157.75062   -29409.707    23210.899 
   26200    299.27873   -29286.225    142.73489    -29428.96   -7314.7431 
   26400    291.50164   -29279.099    139.02576   -29418.125    24012.058 
   26600    353.28385   -29262.612    168.49153   -29431.104   -5777.5036 
   26800    292.83774   -29290.627    139.66299    -29430.29    33044.306 
   27000    296.64586   -29264.412    141.47919   -29405.891    18552.665 
   27200    263.12219   -29266.602    125.49076   -29392.092   -24056.364 
   27400    305.85113   -29265.002    145.86946   -29410.872   -3201.9808 
   27600    328.26413   -29240.505    156.55888   -29397.064   -434.51427 
   27800     263.2817   -29266.283    125.56684   -29391.849   -18371.392 
   28000    285.05722   -29253.022    135.95223   -29388.974    -6351.522 
   28200    292.18707   -29247.579    139.35267   -29386.932   -13402.236 
   28400    276.47449   -29248.758    131.85887   -29380.617    12216.241 
   28600    318.71356    -29225.88    152.00393   -29377.884   -6588.4552 
   28800    278.31445   -29259.478     132.7364   -29392.214    18790.556 
   29000    292.34314   -29244.521     139.4271   -29383.948   -21367.542 
   29200     328.9542   -29208.048      156.888   -29364.936    -9726.675 
   29400    279.14316    -29231.35    133.13164   -29364.481    6329.4775 
   29600    283.57677   -29234.317    135.24616   -29369.563    22663.359 
   29800     289.2597    -29247.31    137.95651   -29385.267    2059.8934 
   30000    301.84789    -29264.36     143.9602   -29408.321   -16754.158 
   30200    340.61917   -29228.985    162.45136   -29391.436   -7716.2031 
   30400    297.43876   -29249.323    141.85735    -29391.18    39385.367 
   30600    313.96722   -29257.874    149.74026   -29407.614   -7074.6946 
   30800    293.51976   -29250.515    139.98827   -29390.503    30463.868 
   31000    324.65598     -29230.3    154.83805   -29385.138    5301.1679 
   31200    273.50371   -29263.977    130.44202   -29394.419   -40533.986 
   31400    285.83611   -29247.396     136.3237    -29383.72    14228.588 
   31600    293.70519    -29254.44     140.0767   -29394.516    13581.589 
   31800    317.00946    -29266.49     151.1912   -29417.681     1857.102 
   32000     301.3348    -29285.11    143.71549   -29428.826    35606.034 
   32200    275.62594   -29305.113    131.45417   -29436.567   -232.01278 
   32400    325.18842   -29272.331    155.09199   -29427.423   -10656.476 
   32600    278.41404   -29293.942     132.7839   -29426.726   -8523.0422 
   32800    311.38291   -29282.737    148.50773   -29431.245   -2627.7105 
   33000    326.77054   -29267.705    155.84655   -29423.552    15597.595 
   33200    293.04435   -29276.765    139.76153   -29416.527    13025.435 
   33400    316.87691   -29246.847    151.12798   -29397.975   -22183.611 
   33600    281.87837   -29272.052    134.43614   -29406.488   -15791.137 
   33800    278.39163   -29269.477    132.77321    -29402.25    10669.179 
   34000     295.0986   -29251.029    140.74126   -29391.771    85.870366 
   34200     332.0048   -29233.331    158.34292   -29391.674    758.36485 
   34400    294.80304   -29256.676     140.6003   -29397.276   -23234.426 
   34600    287.93255   -29258.715    137.32356   -29396.039    9526.2688 
   34800    294.64118   -29241.135     140.5231   -29381.658    25944.576 
   35000    312.60722   -29236.613    149.09164   -29385.705   -13568.328 
   35200    281.50339     -29258.3     134.2573   -29392.558   -18615.505 
   35400    335.87174   -29246.957    160.18718   -29407.144     31574.45 
   35600    311.47149   -29243.054    148.54998   -29391.604   -12039.599 
   35800    309.37134    -29243.65    147.54835   -29391.198    31357.383 
   36000    302.82298   -29251.332    144.42525   -29395.758    21689.251 
   36200    291.69483   -29269.997     139.1179   -29409.115    4559.0393 
   36400    314.78148   -29254.164    150.12861   -29404.293     5654.166 
   36600    273.27093   -29290.902      130.331   -29421.233    19406.903 
   36800     277.1278   -29264.284    132.17045   -29396.455    -23484.59 
   37000     309.6065   -29261.333    147.66051   -29408.994    28277.792 
   37200    277.81397   -29294.217    132.49771   -29426.715   -8289.0027 
   37400    290.37065   -29274.904    138.48636    -29413.39    18325.542 
   37600     313.6323   -29271.111    149.58053   -29420.691    28354.067 
   37800    269.70219   -29298.635    128.62896   -29427.264    546.13065 
   38000    314.02024   -29272.437    149.76555   -29422.202   -12417.349 
   38200     279.2783   -29285.978    133.19609   -29419.174   -30051.762 
   38400    285.98214   -29292.315    136.39335   -29428.709    25719.094 
   38600    319.82867   -29262.569    152.53576   -29415.105    37763.258 
   38800    293.46593   -29284.923    139.96259   -29424.885    19515.661 
   39000    320.26731    -29270.48    152.74496   -29423.225    35899.233 
   39200    327.24603    -29258.72    156.07332   -29414.793    205.20157 
   39400    298.90217   -29268.758    142.55529   -29411.313    5544.2423 
   39600    286.11179   -29263.495    136.45518    -29399.95   -24735.285 
   39800    324.49122   -29242.138    154.75947   -29396.898   -25512.063 
   40000    282.67487   -29266.912    134.81601   -29401.728    15064.396 
   40200    305.55479   -29244.771    145.72813   -29390.499     3327.613 
   40400    316.99153   -29250.321    151.18265   -29401.504    23510.816 
   40600    303.11035   -29267.306     144.5623   -29411.868    22396.485 
   40800     290.1708   -29289.149    138.39104    -29427.54   -14952.183 
   41000    318.80993    -29273.34     152.0499    -29425.39   -11516.373 
   41200    296.66984   -29285.991    141.49063   -29427.481    39175.987 
   41400    300.64565   -29290.972    143.38681   -29434.359    4315.6679 
   41600    314.58055   -29271.277    150.03278    -29421.31    55498.163 
   41800    280.20009   -29303.474    133.63572   -29437.109    7784.2533 
   42000    300.70157   -29282.561    143.41348   -29425.974   -47763.795 
   42200    292.33115   -29273.727    139.42138   -29413.148    22842.795 
   42400    304.71138   -29273.798    145.32588   -29419.123   -22106.529 
   42600    317.98151   -29268.819     151.6548   -29420.474    48536.086 
   42800    298.27603   -29275.303    142.25667    -29417.56    48333.369 
   43000    295.01175   -29283.335    140.69984   -29424.035    11056.434 
   43200    331.83604   -29260.467    158.26243   -29418.729    1700.2653 
   43400    293.27341    -29281.58    139.87077   -29421.451   -4609.2983 
   43600    320.28001   -29252.511    152.75102   -29405.262   -9974.5842 
   43800    326.84502    -29267.89    155.88207   -29423.772   -11543.294 
   44000    275.54818    -29282.12    131.41709   -29413.537   -3301.8076 
   44200     338.7193   -29249.421    161.54526   -29410.966   -2312.3604 
   44400    307.94346   -29262.105    146.86735   -29408.972    28692.862 
   44600    281.34009   -29273.708    134.17942   -29407.887   -5909.5009 
   44800    357.52372   -29242.351    170.51365   -29412.865    -9725.715 
   45000    291.76298   -29279.043    139.15041   -29418.194    8147.4558 
   45200    299.90423   -29268.531    143.03321   -29411.564    -11677.48 
   45400    307.12627   -29288.173    146.47761    -29434.65   -136.37333 
   45600    286.01997   -29286.061    136.41139   -29422.472     17049.82 
   45800    300.09583   -29281.711    143.12458   -29424.835   -7685.8197 
   46000    263.52947   -29312.544    125.68501   -29438.229   -1404.8565 
   46200    314.00594   -29287.236    149.75873   -29436.995    5496.5303 
   46400     287.9274   -29292.848     137.3211   -29430.169    4664.1899 
   46600    286.40157   -29311.201    136.59339   -29447.794    6572.3394 
   46800    324.99775   -29282.447    155.00105   -29437.448   -45791.684 
   47000    289.01582   -29291.005     137.8402   -29428.845   -40194.105 
   47200    349.54041   -29256.031    166.70617   -29422.737    7186.8114 
   47400    276.60498   -29276.066     131.9211   -29407.987     24039.44 
   47600    299.10811   -29268.351    142.65351   -29411.005    38535.253 
   47800      325.534   -29259.189     155.2568   -29414.445   -30847.821 
   48000    311.16959   -29290.637    148.40599   -29439.043   -16448.957 
   48200    290.33813   -29306.764    138.47085   -29445.234   -15531.462 
   48400    299.10055   -29276.686    142.64991   -29419.336   -5841.7207 
   48600     301.4375   -29284.071    143.76447   -29427.835    20310.015 
   48800     238.3037   -29306.365    113.65409   -29420.019   -6888.2459 
   49000    315.29515   -29269.464    150.37359   -29419.838   -6616.4016 
   49200    301.90788   -29292.396    143.98881   -29436.385     9147.047 
   49400    326.10956   -29283.006    155.53131   -29438.537    22876.808 
   49600    297.59125     -29274.5    141.93008    -29416.43    16489.818 
   49800    275.07325   -29297.774    131.19058   -29428.964    -21676.03 
   50000    335.94879   -29268.679    160.22392   -29428.902    4814.5151 
   50200     292.6783   -29288.995    139.58695   -29428.582    23879.709 
   50400    263.98654   -29294.449      125.903   -29420.352    3839.6192 
   50600    283.02504   -29268.195    134.98302   -29403.178      46774.8 
   50800    325.07957    -29246.81    155.04007    -29401.85   -2887.2215 
   51000    299.71331   -29273.631    142.94215   -29416.574   -938.77643 
   51200    294.61094   -29262.711    140.50868    -29403.22   -21063.801 
   51400    302.04768   -29249.847    144.05548   -29393.903    30132.178 
   51600    255.28471   -29278.992    121.75284   -29400.745   -4749.9683 
   51800    290.16267   -29251.859    138.38717   -29390.246    15601.513 
   52000    315.27807   -29260.675    150.36545    -29411.04   -62.927839 
   52200    254.69032   -29288.254    121.46936   -29409.724   -30383.583 
   52400    284.31432    -29295.42    135.59792   -29431.018    3632.3362 
   52600    265.19677   -29253.198    126.48019   -29379.678   -25316.362 
   52800    301.37429   -29233.614    143.73432   -29377.349   -1152.9782 
   53000    301.96041   -29263.608    144.01386   -29407.622    16876.999 
   53200    285.76958   -29273.408    136.29198     -29409.7   -8015.2813 
   53400    275.10215   -29270.945    131.20436   -29402.149   -13468.668 
   53600    304.69488   -29247.988    145.31801   -29393.306    3546.5307 
   53800     275.9394   -29278.283    131.60367   -29409.887    8228.7789 
   54000    320.27422   -29252.713    152.74826   -29405.461    5601.0025 
   54200    295.08085   -29254.546     140.7328   -29395.278   -8553.3709 
   54400    297.95498   -29262.896    142.10355       -29405    7529.6028 
   54600    298.80311   -29278.919    142.50805   -29421.427    8319.9065 
   54800    272.07073   -29289.474    129.75859   -29419.232   -8681.5345 
   55000    341.54006   -29264.476    162.89057   -29427.366   -5598.4493 
   55200    272.48806   -29274.631    129.95762   -29404.588    26960.996 
   55400    335.07348   -29239.133    159.80646   -29398.939   -9830.7687 
   55600    316.29921   -29258.903    150.85246   -29409.755    14969.106 
   55800    289.83494   -29284.232    138.23086   -29422.463   -19991.212 
   56000    273.28255   -29290.601    130.33654   -29420.937   -8066.2319 
   56200    314.05021   -29255.672    149.77984   -29405.451   -11123.952 
   56400    312.01189     -29263.1    148.80771   -29411.908    15964.873 
   56600    296.69441   -29287.191    141.50235   -29428.694   -12488.839 
   56800    286.40183   -29265.096    136.59351   -29401.689    20618.877 
   57000    296.95891   -29248.558     141.6285   -29390.186   -12464.892 
   57200    298.02623   -29246.191    142.13753   -29388.329   -19086.951 
   57400    273.26677   -29277.794    130.32901   -29408.123   -19963.421 
   57600    292.17798   -29255.835    139.34833   -29395.183    36526.428 
   57800    295.40995   -29249.743    140.88975   -29390.633    1370.2871 
   58000    320.67033   -29235.151    152.93718   -29388.088    4419.9472 
   58200    300.35826   -29218.203    143.24975   -29361.453    19017.306 
   58400    314.58834   -29254.421    150.03649   -29404.457   -32994.074 
   58600    285.99284   -29270.141    136.39845   -29406.539   -20424.791 
   58800    274.76268   -29278.775    131.04246   -29409.818   -39726.152 
   59000    312.38745   -29247.699    148.98683   -29396.686    14284.025 
   59200    279.10207    -29273.82    133.11204   -29406.932    23263.455 
   59400    309.75768   -29285.735    147.73261   -29433.467    18030.542 
   59600    266.37479   -29284.117    127.04203   -29411.159   -19716.785 
   59800    282.24001   -29270.365    134.60862   -29404.974     3372.615 
   60000    326.54491   -29246.192    155.73894   -29401.931    28210.221 
   60200    289.17707   -29275.758    137.91711   -29413.675    13456.592 
   60400    286.88358   -29274.764    136.82327   -29411.587   -46037.163 
   60600    352.43689   -29246.533    168.08759    -29414.62   -22239.995 
   60800     305.1913   -29245.795    145.55477   -29391.349   -25649.402 
   61000    255.87366   -29269.954    122.03372   -29391.987    19453.357 
   61200    306.19423   -29249.688     146.0331   -29395.721    -22882.44 
   61400    305.30662   -29276.824    145.60977   -29422.434   -20718.075 
   61600    308.08228   -29261.182    146.93356   -29408.115   -38933.462 
   61800    296.01097   -29236.571     141.1764   -29377.747   -30472.508 
   62000    295.01111   -29264.677    140.69953   -29405.377   -8324.1253 
   62200    298.42563   -29271.609    142.32802   -29413.937    4208.8192 
   62400    321.40378   -29257.691    153.28698   -29410.978    -22085.35 
   62600    308.06613   -29270.182    146.92586   -29417.108   -13704.523 
   62800    301.00621   -29274.914    143.55877   -29418.473   -5526.2677 
   63000    324.37763   -29252.684     154.7053   -29407.389    15179.822 
   63200    284.32672   -29273.977    135.60383    -29409.58   -7898.1944 
   63400    302.06839   -29247.708    144.06536   -29391.773   -53215.826 
   63600    318.75577   -29249.344    152.02406   -29401.368     -998.349 
   63800    312.32048   -29276.717    148.95488   -29425.672   -20384.691 
   64000    303.22764   -29284.114    144.61824   -29428.732   -23239.213 
   64200    295.63449   -29285.639    140.99684   -29426.636    2650.0846 
   64400     340.5122   -29243.878    162.40035   -29406.278   -8571.5791 
   64600    286.26562   -29264.678    136.52855   -29401.206    29763.889 
   64800     297.7703   -29275.938    142.01547   -29417.954   -52396.405 
   65000    326.05446   -29243.613    155.50503   -29399.119   -27873.096 
   65200    323.49749   -29257.425    154.28553   -29411.711    37028.393 
   65400    291.09258   -29264.464    138.83067   -29403.294    3335.1079 
   65600    281.38727   -29289.447    134.20192   -29423.649    27180.383 
   65800    294.73511    -29290.62     140.5679   -29431.188    1900.7312 
   66000    289.35239   -29283.695    138.00072   -29421.696   -188.89854 
   66200    293.41093    -29294.53    139.93636   -29434.466    51870.991 
   66400    295.03226   -29281.918    140.70962   -29422.628    25689.223 
   66600    309.25976    -29271.28    147.49513   -29418.775    19435.944 
   66800    267.90016   -29300.342    127.76952   -29428.112   -17887.971 
   67000    288.39831   -29285.408    137.54569   -29422.954    41067.145 
   67200    302.46832   -29257.638     144.2561   -29401.895    4705.3055 
   67400    294.13731   -29260.983    140.28279   -29401.266   -21894.558 
   67600    289.05476   -29285.444    137.85877   -29423.302   -10706.974 
   67800    287.67689   -29265.239    137.20163    -29402.44    23426.031 
   68000    272.76055    -29274.33    130.08758   -29404.418    15902.721 
   68200    277.02047   -29292.281    132.11927     -29424.4   -24816.205 
   68400    309.03448   -29267.253    147.38769   -29414.641   -19935.301 
   68600    298.35239   -29284.993    142.29309   -29427.286    39995.562 
   68800    276.98452   -29295.035    132.10212   -29427.137    23158.372 
   69000    312.96446   -29265.413    149.26201   -29414.675    32841.622 
   69200    304.30143   -29266.239    145.13036   -29411.369    11658.143 
   69400    283.30339   -29293.322    135.11578   -29428.437     41249.01 
   69600    304.64692    -29276.53    145.29513   -29421.825   -40207.188 
   69800    318.04722   -29276.633    151.68614    -29428.32    2327.6905 
   70000    275.06871   -29295.468    131.18841   -29426.657   -37881.654 
   70200    314.93162   -29267.937    150.20021   -29418.138   -11985.919 
   70400    290.31971   -29271.644    138.46206   -29410.106    37604.467 
   70600    332.73638   -29256.139    158.69183   -29414.831   -27092.013 
   70800    323.83741    -29248.09    154.44765   -29402.537    18456.473 
   71000     286.1398   -29272.554    136.46854   -29409.022    29977.453 
   71200    309.50336   -29258.154    147.61132   -29405.766   -37050.861 
   71400    323.90016   -29232.501    154.47758   -29386.978   -13365.671 
   71600      327.352   -29273.409    156.12386   -29429.533   -11000.764 
   71800    283.57202   -29281.212    135.24389   -29416.456   -21896.068 
   72000    342.43456   -29254.235    163.31718   -29417.552     17711.96 
   72200    294.74729    -29270.44    140.57371   -29411.014    17965.921 
   72400     295.0355    -29279.24    140.71117   -29419.951   -26903.603 
   72600    324.01545   -29255.651    154.53256   -29410.183    21369.732 
   72800    327.67381    -29252.76    156.27734   -29409.038    14062.461 
   73000    291.77255   -29257.629    139.15497   -29396.784    26670.511 
   73200    280.21831   -29270.237    133.64441   -29403.882   -40022.165 
   73400    292.28459   -29273.577    139.39918   -29412.976     -13707.1 
   73600    332.93991   -29250.514     158.7889   -29409.303   -5637.7553 
   73800    285.05675     -29271.1    135.95201   -29407.052    6091.9136 
   74000    292.27653   -29276.103    139.39533   -29415.499   -8785.3972 
   74200     287.2308   -29298.791    136.98887    -29435.78    -32878.86 
   74400    320.13468    -29282.48    152.68171   -29435.161   -40825.529 
   74600    286.22076   -29272.287    136.50716   -29408.795    -12373.63 
   74800    334.17013   -29253.612    159.37563   -29412.987   -20236.863 
   75000    278.81734   -29282.582    132.97624   -29415.558   -10532.674 
   75200    290.76081   -29279.761    138.67244   -29418.434    18907.351 
   75400    322.48349   -29252.331    153.80193   -29406.133    26624.824 
   75600    303.44348   -29272.021    144.72118   -29416.742   -8721.1166 
   75800    288.38518   -29281.191    137.53943    -29418.73   -23239.619 
   76000    329.78522   -29252.852    157.28434   -29410.137   -11960.302 
   76200    294.32019   -29280.995    140.37001   -29421.365    4782.1033 
   76400    281.74336   -29276.056    134.37175   -29410.428    15847.799 
   76600     302.4237   -29247.202    144.23482   -29391.437    42118.209 
   76800    284.50204    -29257.97    135.68744   -29393.657   -9564.1715 
   77000    268.20797   -29271.241    127.91632   -29399.157   -14822.507 
   77200    313.80871   -29238.262    149.66467   -29387.926    35361.116 
   77400    296.41092    -29262.61    141.36714   -29403.977    1508.9401 
   77600    296.50332   -29265.529    141.41121    -29406.94   -6803.1116 
   77800     298.9744   -29265.254    142.58974   -29407.843   -8082.3065 
   78000    282.04258   -29287.217    134.51446   -29421.732    2119.2314 
   78200    308.08483   -29281.854    146.93478   -29428.789    6666.8778 
   78400    264.97821   -29306.118    126.37595   -29432.494    2856.8788 
   78600    310.81325   -29275.493    148.23604   -29423.729    13553.655 
   78800    294.60402   -29276.471    140.50538   -29416.977   -26563.933 
   79000    274.28168   -29296.466    130.81305   -29427.279    1488.5374 
   79200    317.17556   -29262.373    151.27042   -29413.643    10519.464 
   79400    284.46574   -29268.561    135.67013   -29404.231    25842.785 
   79600    287.56222   -29291.024    137.14694   -29428.171   -20649.756 
   79800     326.5393   -29255.886    155.73626   -29411.622    203.20795 
   80000    309.34282   -29277.461    147.53475   -29424.996    16899.647 
   80200    285.66137    -29275.58    136.24036    -29411.82    21285.926 
   80400    320.24257   -29258.244    152.73316   -29410.977   -32739.143 
   80600     296.2025   -29275.656    141.26774   -29416.924   -3812.5327 
   80800    286.56477   -29274.741    136.67122   -29411.412   -8487.0351 
   81000    289.29493   -29296.786    137.97332    -29434.76     17378.35 
   81200    304.88497   -29268.655    145.40867   -29414.064   -1991.3101 
   81400    298.40404   -29265.059    142.31772   -29407.377    24760.632 
   81600    299.92733    -29285.45    143.04423   -29428.495   -340.99625 
   81800    274.43242   -29279.524    130.88495   -29410.409    10332.679 
   82000    302.25452   -29260.491    144.15413   -29404.646   -35027.373 
   82200    264.57936   -29284.327    126.18573   -29410.512    6261.8852 
   82400    299.81211   -29270.479    142.98927   -29413.468   -7423.3624 
   82600    348.02271   -29254.917    165.98234   -29420.899   -2124.5182 
   82800    302.22805   -29278.053    144.14151   -29422.195    46718.818 
   83000    298.76672   -29272.203    142.49069   -29414.693   -24894.976 
   83200    298.20277   -29248.797    142.22173   -29391.018    22369.106 
   83400    292.47829   -29271.588    139.49155    -29411.08     6252.847 
   83600    283.73282   -29268.116    135.32058   -29403.436   -36989.697 
   83800    310.09639   -29251.736    147.89415    -29399.63   -43482.674 
   84000    296.57057   -29278.705    141.44329   -29420.148   -11062.085 
   84200    300.64586   -29266.003    143.38691   -29409.389    17325.506 
   84400    343.30381   -29257.729    163.73175   -29421.461      7960.87 
   84600    279.67817   -29294.541     133.3868   -29427.927   -24468.547 
   84800    315.82524   -29272.134    150.62641   -29422.761   -7663.3337 
   85000    311.78006   -29291.061    148.69714   -29439.758    10229.174 
   85200    302.50381   -29288.408    144.27302   -29432.681    14721.827 
   85400    296.61598   -29266.836    141.46494   -29408.301   -52666.474 
   85600    266.16666   -29296.288    126.94276   -29423.231   -19811.377 
   85800    290.86211   -29283.721    138.72075   -29422.442   -7575.9818 
   86000    295.33576   -29261.898    140.85437   -29402.753    8736.4696 
   86200    284.55046   -29279.491    135.71054   -29415.201   -28750.529 
   86400    275.73938   -29283.807    131.50828   -29415.315   -6599.1876 
   86600    304.49419   -29270.525    145.22229   -29415.747   -12938.263 
   86800    308.09438   -29276.352    146.93933   -29423.292   -31680.653 
   87000     268.3478   -29288.329    127.98301   -29416.312   -5304.6477 
   87200    325.10064   -29259.946    155.05012   -29414.996    -4142.993 
   87400    260.51647   -29282.163    124.24802   -29406.411    5047.7001 
   87600    276.45264   -29299.762    131.84845    -29431.61   -18124.919 
   87800    291.20471   -29265.825    138.88415   -29404.709    14029.827 
   88000    314.76784   -29250.651     150.1221   -29400.773    43855.496 
   88200    290.99041       -29279    138.78194   -29417.782    19788.653 
   88400    292.12439   -29269.302    139.32277   -29408.624    35497.042 
   88600    307.99709    -29255.09    146.89293   -29401.982   -14821.834 
   88800    286.98157   -29262.575    136.87001   -29399.445    23771.723 
   89000    265.04677    -29273.97    126.40865   -29400.379   -7836.6738 
   89200    286.15284    -29245.47    136.47476   -29381.945    33188.544 
   89400    300.44055   -29249.337    143.28899   -29392.626   -24134.613 
   89600     270.2389   -29277.725    128.88493   -29406.609   -16627.995 
   89800    305.82858   -29258.634    145.85871   -29404.493   -15044.127 
   90000    322.11314   -29267.499    153.62529   -29421.125    18251.378 
   90200    301.58707   -29282.028     143.8358   -29425.864   -34536.537 
   90400    278.68793   -29300.787    132.91453   -29433.702    56764.273 
   90600    308.43852   -29266.031    147.10346   -29413.135   -39668.499 
   90800    293.06834   -29282.396    139.77297   -29422.169   -31326.847 
   91000    281.07788   -29290.597    134.05437   -29424.651    61.194231 
   91200    326.28152   -29257.037    155.61332   -29412.651    19974.241 
   91400    287.59512   -29270.079    137.16263   -29407.241    -6796.929 
   91600    277.54172   -29277.726    132.36786   -29410.094    -24987.36 
   91800    287.50762   -29248.552     137.1209   -29385.673   -148.09896 
   92000    314.53016   -29226.111    150.00875    -29376.12   -3760.1223 
   92200     295.0649   -29256.927    140.72519   -29397.652    30362.234 
   92400    289.93011   -29250.481    138.27625   -29388.758   -14065.232 
   92600    302.05136   -29240.504    144.05724   -29384.561   -554.51465 
   92800    279.51696   -29270.764    133.30992   -29404.073   -4292.7936 
   93000    304.41419   -29253.074    145.18414   -29398.258    53110.258 
   93200    326.97923   -29241.703    155.94608   -29397.649    2726.6033 
   93400    291.95075   -29273.798    139.23996   -29413.038   -27834.051 
   93600    315.37804   -29255.345    150.41312   -29405.758    -35483.26 
   93800    280.07559   -29281.795    133.57634   -29415.371    25781.413 
   94000    297.04589   -29268.178    141.66998   -29409.848    7541.7089 
   94200     294.7429   -29253.727    140.57162   -29394.299    33741.047 
   94400    325.55159    -29233.66    155.26519   -29388.926    803.83643 
   94600    292.99808   -29237.784    139.73946   -29377.523   -2821.2994 
   94800    278.05616   -29265.276    132.61322    -29397.89   -37690.131 
   95000    305.38928   -29259.204    145.64919   -29404.853   -26931.289 
   95200    323.04261   -29237.782    154.06858    -29391.85   -45198.466 
   95400    307.78906   -29268.397    146.79372    -29415.19      21472.2 
   95600     299.0996   -29286.246    142.64946   -29428.895   -15425.225 
   95800    285.86712   -29285.519     136.3385   -29421.858   -4303.9552 
   96000    309.64374   -29266.722    147.67827     -29414.4    51195.001 
   96200    276.13197   -29288.166    131.69551   -29419.861    9853.8202 
   96400    339.98025   -29255.078    162.14665   -29417.224   -33426.801 
   96600    296.26691   -29273.425    141.29846   -29414.723   -34431.608 
   96800    273.01505   -29283.859    130.20896   -29414.068   -9401.3941 
   97000    350.05999   -29250.317    166.95397   -29417.271    14584.553 
   97200     284.8146   -29280.489    135.83652   -29416.326    26461.891 
   97400    315.20464   -29255.466    150.33042   -29405.797    26323.134 
   97600    306.17037   -29262.287    146.02172   -29408.309   -6164.4142 
   97800    274.77914   -29266.014    131.05031   -29397.064   -4896.1991 
   98000    345.46006   -29237.008    164.76013   -29401.768   -20973.195 
   98200    317.18415   -29270.337    151.27451   -29421.611   -8636.4608 
   98400    281.78772   -29280.054     134.3929   -29414.447    10881.095 
   98600    322.09911   -29256.436     153.6186   -29410.054    41238.474 
   98800    282.27571   -29284.326    134.62564   -29418.951    33329.959 
   99000    295.61725    -29275.62    140.98862   -29416.608    27064.838 
   99200    298.38208    -29246.86    142.30725   -29389.168     19266.22 
   99400    291.03935   -29252.949    138.80528   -29391.755   -12166.783 
   99600    314.19905   -29269.028    149.85083   -29418.879    31599.672 
   99800    281.69566   -29296.841      134.349    -29431.19    1458.4089 
  100000    307.14873   -29270.568    146.48832   -29417.057    15016.897 
  100200    297.48017   -29265.528     141.8771   -29407.405   -18917.043 
  100400    272.22919   -29282.119    129.83416   -29411.953    -19112.87 
  100600    281.19201   -29274.904    134.10879   -29409.013    3525.3168 
  100800    318.91614   -29255.983    152.10055   -29408.084   -3297.4054 
  101000    302.89234   -29280.242    144.45832     -29424.7   -4070.0237 
  101200    297.55544   -29265.799      141.913   -29407.712    39772.843 
  101400    303.99157   -29254.555    144.98258   -29399.538   -4683.1679 
  101600    277.58365   -29280.341    132.38786   -29412.729   -24999.005 
  101800    280.83348   -29272.879     133.9378   -29406.817   -19626.941 
  102000    282.59131   -29259.942    134.77616   -29394.718   -30657.471 
  102200    311.77959   -29279.935    148.69692   -29428.632    -45062.17 
  102400    240.79913   -29307.392    114.84423   -29422.236    39187.682 
  102600    288.76757   -29278.246    137.72181   -29415.968   -16636.802 
  102800    299.81465   -29267.601    142.99049   -29410.591   -10089.755 
  103000    268.01455   -29293.206    127.82407    -29421.03    10549.279 
  103200    303.83079   -29266.171     144.9059   -29411.077   -3463.7739 
  103400     294.6585    -29266.54    140.53136   -29407.071    5054.9755 
  103600    268.44392   -29293.266    128.02885   -29421.295   -42264.581 
  103800    309.09402    -29277.19    147.41609   -29424.606    5299.2691 
  104000    320.16081   -29260.318    152.69417   -29413.012    15355.311 
  104200     306.7166   -29292.433    146.28223   -29438.715     8076.382 
  104400    291.35526   -29287.286    138.95595   -29426.242    3817.3909 
  104600    289.17572   -29278.986    137.91646   -29416.902    34434.521 
  104800    342.62953   -29255.469    163.41017   -29418.879    785.34556 
  105000    278.55064   -29267.997    132.84905   -29400.847    2494.8667 
  105200    298.62925   -29277.933    142.42513   -29420.358     1208.683 
  105400      302.503   -29253.053    144.27264   -29397.326   -34285.706 
  105600    286.11735   -29271.162    136.45784    -29407.62    47907.335 
  105800    283.30219   -29269.141     135.1152   -29404.256   -43093.666 
  106000    324.38307   -29245.843    154.70789   -29400.551    12487.342 
  106200    277.55806   -29257.945    132.37566   -29390.321    2040.5272 
  106400    282.31365   -29273.302    134.64374   -29407.946   -9480.9057 
  106600    286.28705    -29243.21    136.53877   -29379.749    28652.271 
  106800    307.91664   -29255.594    146.85456   -29402.448    15230.621 
  107000    291.76276   -29275.855     139.1503   -29415.005   -17025.389 
  107200    308.87396   -29245.989    147.31114     -29393.3   -29006.069 
  107400    266.51159   -29272.534    127.10727   -29399.642     21889.54 
  107600    307.80531   -29246.109    146.80146    -29392.91    24414.613 
  107800    320.41608       -29250    152.81591   -29402.816    1808.6097 
  108000    312.34555   -29270.942    148.96684   -29419.909    14018.295 
  108200    325.72295   -29251.695    155.34692   -29407.042    6215.1738 
  108400    298.74335   -29259.385    142.47955   -29401.865   -16286.852 
  108600     311.3706   -29268.718    148.50186   -29417.219    20501.097 
  108800    272.64732   -29277.231    130.03358   -29407.264    17844.761 
  109000    263.67383   -29294.394    125.75386   -29420.148   -11800.917 
  109200    313.66834   -29261.609    149.59772   -29411.207   -7734.7147 
  109400     294.5831   -29271.468     140.4954   -29411.964   -4857.6587 
  109600     284.0842   -29295.468    135.48817   -29430.956    33072.266 
  109800    299.47512   -29257.289    142.82855   -29400.118   -2783.7284 
  110000    299.15812   -29261.064    142.67737   -29403.741   -19747.897 
  110200    290.10939   -29276.453    138.36176   -29414.815    8587.7946 
  110400    310.97409   -29253.464    148.31275   -29401.777    39575.712 
  110600    310.80062   -29252.315    148.23002   -29400.545    27187.365 
  110800    293.60118     -29276.1    140.02709   -29416.127    39486.187 
  111000    360.84042   -29235.012    172.09548   -29407.107    7265.2776 
  111200    307.77532   -29266.015    146.78716   -29412.802    37945.648 
  111400     291.7773   -29270.539    139.15723   -29409.696   -3300.3926 
  111600    331.39016   -29232.538    158.04978   -29390.588     51647.07 
  111800    320.79062   -29252.726    152.99455   -29405.721    -30665.62 
  112000    293.90597   -29261.958    140.17246    -29402.13   -41052.992 
  112200    325.36641   -29225.246    155.17688   -29380.423   -2178.6507 
  112400    298.36505    -29249.25    142.29913   -29391.549     20852.01 
  112600    295.23964   -29263.793    140.80853   -29404.602    11439.369 
  112800    275.41477   -29283.499    131.35346   -29414.852    6987.6678 
  113000    298.82524   -29262.425     142.5186   -29404.944   -9611.6423 
  113200    298.15457   -29267.071    142.19874   -29409.269    10955.504 
  113400    302.89792   -29277.394    144.46099   -29421.855   -33719.384 
  113600    338.83887   -29244.018    161.60229    -29405.62     2648.307 
  113800    286.07532   -29277.488    136.43779   -29413.925   -6179.0739 
  114000    288.18164   -29290.841    137.44236   -29428.283   -30618.624 
  114200    301.40752   -29279.484    143.75017   -29423.234   -24531.461 
  114400     326.7287     -29261.7    155.82659   -29417.527   -19975.428 
  114600    283.83296   -29287.967    135.36834   -29423.336   -39959.204 
  114800    319.17067   -29251.618    152.22194    -29403.84   -22559.595 
  115000    292.45998   -29269.289    139.48282   -29408.772   -3489.5267 
  115200    281.38215   -29278.124    134.19948   -29412.324   -31150.809 
  115400    324.08654   -29258.294    154.56647   -29412.861   -2479.2569 
  115600    293.99959   -29261.734    140.21711   -29401.951   -11172.018 
  115800    284.69393   -29255.007    135.77896   -29390.786      291.892 
  116000    295.05414   -29242.395    140.72006   -29383.115   -13983.126 
  116200    310.40971   -29255.062    148.04358   -29403.106    9408.9583 
  116400    290.24766   -29276.178     138.4277   -29414.606    8917.2602 
  116600    281.19274   -29245.379    134.10914   -29379.488   -15074.628 
  116800    301.97568   -29253.061    144.02114   -29397.082    6491.9059 
  117000    278.32801   -29270.895    132.74287   -29403.638    11833.554 
  117200    326.99072   -29257.965    155.95156   -29413.917   -4153.2868 
  117400    302.33838   -29264.406    144.19413     -29408.6   -7340.5489 
  117600    297.38312   -29280.611    141.83081   -29422.442     39039.74 
  117800    302.71852   -29284.431    144.37543   -29428.806    21829.053 
  118000    317.24726   -29258.767    151.30461   -29410.071   -1259.1736 
  118200    290.39651   -29286.624    138.49869   -29425.122   -10110.595 
  118400    296.30657   -29279.318    141.31738   -29420.636    399.40278 
  118600    307.48892   -29272.828    146.65057   -29419.478   -3162.8556 
  118800    321.74927   -29274.201    153.45175   -29427.653    7343.9647 
  119000     287.2817    -29275.96    137.01315   -29412.973   -7649.2359 
  119200    335.89006   -29255.045    160.19592   -29415.241    21132.025 
  119400    280.60371   -29286.767    133.82822   -29420.596   -34801.761 
  119600    292.01048   -29273.871    139.26844    -29413.14    23672.342 
  119800     290.6929   -29269.037    138.64005   -29407.677   -18252.177 
  120000    274.12121   -29298.131    130.73652   -29428.868     9848.595 
  120200    305.53859   -29269.857     145.7204   -29415.577    21979.938 
  120400    286.78662   -29277.501    136.77703   -29414.278   -6759.3901 
  120600    285.35532    -29298.08     136.0944   -29434.174    43081.723 
  120800      283.968   -29268.995    135.43275   -29404.428     4942.094 
  121000    312.12059   -29255.124    148.85955   -29403.984   -34.967462 
  121200    306.02796   -29260.801     145.9538   -29406.755   -6451.0182 
  121400     297.5309   -29280.032     141.9013   -29421.933    -39561.96 
  121600    317.12557   -29243.774    151.24657   -29395.021    50553.889 
  121800    315.44164   -29257.053    150.44346   -29407.496    49594.022 
  122000    292.80634   -29276.828    139.64801   -29416.476    35986.623 
  122200    262.74164   -29286.623    125.30927   -29411.932    28379.994 
  122400    313.84961   -29257.201    149.68417   -29406.885    32147.127 
  122600     295.5816   -29269.395    140.97162   -29410.366    13883.217 
  122800    300.62484   -29282.558    143.37689   -29425.935   -14070.144 
  123000    322.70589   -29249.413    153.90799   -29403.321   -45196.449 
  123200    272.07939   -29276.194    129.76272   -29405.957   -20151.111 
  123400    311.39532   -29280.642    148.51365   -29429.155   -22223.907 
  123600     324.3628   -29260.155    154.69822   -29414.853   -6372.1039 
  123800    275.84291   -29289.829    131.55765   -29421.387   -11028.066 
  124000    289.84099   -29284.136    138.23375    -29422.37   -18548.667 
  124200    295.68318   -29274.453    141.02006   -29415.473   -12659.684 
  124400    284.89434   -29299.227    135.87454   -29435.101   -7863.0598 
  124600    268.79522   -29263.585     128.1964   -29391.781    43036.908 
  124800     319.8509   -29261.232    152.54637   -29413.778    -11967.95 
  125000    280.64958   -29282.563    133.85009   -29416.413    4710.9632 
  125200    306.45498   -29266.159    146.15745   -29412.317   -7252.0217 
  125400    307.90507   -29264.024    146.84905   -29410.873    14586.056 
  125600    310.77674    -29231.96    148.21863   -29380.179    19626.508 
  125800    302.17612   -29250.855    144.11674   -29394.971    -49850.39 
  126000    305.19766   -29259.798     145.5578   -29405.356    19785.982 
  126200    288.28365   -29266.235    137.49101   -29403.726   -37797.385 
  126400    282.77209   -29288.338    134.86238     -29423.2   -29391.507 
  126600    333.02049   -29258.186    158.82733   -29417.014    -19041.72 
  126800    294.80544   -29274.538    140.60144   -29415.139    26112.075 
  127000     299.4692    -29273.82    142.82573   -29416.646    76.020506 
  127200    361.32034    -29240.83    172.32437   -29413.154    22943.818 
  127400    289.92996   -29264.345    138.27618   -29402.621    -28952.46 
  127600    326.05142   -29268.533    155.50358   -29424.036    -20143.92 
  127800    259.93097   -29290.089    123.96878   -29414.058    44788.783 
  128000    284.32818   -29277.692    135.60453   -29413.297   -31254.889 
  128200    312.92849   -29263.642    149.24486   -29412.887    4967.7553 
  128400    300.33149   -29259.697    143.23698   -29402.934   -17613.781 
  128600     319.5027   -29239.705     152.3803   -29392.085    -47905.31 
  128800     282.7743   -29275.074    134.86343   -29409.938    36931.841 
  129000    304.59549   -29270.644    145.27061   -29415.914    35801.476 
  129200    326.87003   -29259.161      155.894   -29415.055    -9038.792 
  129400    281.45692   -29275.583    134.23514   -29409.819    8195.9114 
  129600    295.79838    -29274.42    141.07501   -29415.495    42587.744 
  129800    300.82362   -29246.988    143.47169    -29390.46    7598.2147 
  130000    290.76351   -29276.581    138.67373   -29415.255   -10135.592 
  130200    299.48022   -29275.616    142.83099   -29418.447    20530.248 
  130400    313.57997   -29265.541    149.55557   -29415.097    3950.6291 
  130600    297.34382   -29271.699    141.81207   -29413.511     30959.15 
  130800     274.5103   -29276.323    130.92209   -29407.245    39479.179 
  131000    321.27188   -29251.645    153.22407   -29404.869   -34427.854 
  131200    281.30976   -29260.867    134.16495   -29395.032   -75633.244 
  131400    292.74093   -29276.982    139.61682   -29416.599    33016.503 
  131600     280.6719   -29267.018    133.86074   -29400.878    19214.963 
  131800    285.03843   -29274.349    135.94327   -29410.293    11778.438 
  132000    282.54261   -29256.251    134.75294   -29391.004   -10337.401 
  132200    319.21717   -29249.884    152.24412   -29402.128   -54959.848 
  132400    293.46321    -29278.46    139.96129   -29418.421    23076.326 
  132600    308.60018   -29262.094    147.18056   -29409.275    12879.397 
  132800    286.30586   -29287.424    136.54774   -29423.971   -9814.0537 
  133000     290.2759   -29289.939    138.44117    -29428.38    -9335.721 
  133200    323.89939   -29267.014    154.47721   -29421.492   -43159.627 
  133400    295.74229   -29288.521    141.04826   -29429.569    16466.245 
  133600    262.43008   -29306.285    125.16068   -29431.445   -25714.035 
  133800    324.33537   -29267.685    154.68514    -29422.37    54775.652 
  134000     297.6763   -29276.504    141.97064   -29418.474    64306.374 
  134200    286.03418   -29295.148    136.41817   -29431.566   -41962.618 
  134400    316.19266   -29278.753    150.80164   -29429.555   -16835.142 
  134600    320.49935   -29244.049    152.85563   -29396.904   -17728.685 
  134800    313.94392   -29279.553    149.72915   -29429.282    -38715.17 
  135000    294.74401   -29271.707    140.57214   -29412.279   -45912.467 
  135200    314.91163   -29252.511    150.19068   -29402.702   -22629.188 
  135400    284.52772     -29272.6    135.69969     -29408.3   -14766.556 
  135600    324.00267   -29268.718    154.52647   -29423.244    16479.472 
  135800    344.17105   -29234.705    164.14536   -29398.851    44020.732 
  136000    299.30878   -29263.424    142.74922   -29406.173   -34286.558 
  136200    298.40165   -29263.352    142.31658   -29405.668    4783.4059 
  136400    331.64761   -29232.487    158.17256    -29390.66    21106.025 
  136600    294.09816   -29260.925    140.26412   -29401.189    25559.417 
  136800    315.01214    -29266.01    150.23862   -29416.249    47543.518 
  137000    309.36199   -29253.759    147.54389   -29401.303    -53162.67 
  137200    293.82126   -29261.387    140.13206   -29401.519   -22677.062 
  137400    286.05915   -29277.685    136.43008   -29414.116   -19867.835 
  137600    332.29249   -29236.652    158.48013   -29395.133   -14070.748 
  137800     288.5023   -29265.964    137.59529   -29403.559    239.60709 
  138000    280.63278   -29278.486    133.84208   -29412.328   -33773.798 
  138200    342.99129   -29241.401     163.5827   -29404.984   -15695.565 
  138400    283.73332   -29266.146    135.32082   -29401.466   -813.89245 
  138600    312.00937   -29270.529     148.8065   -29419.336    7833.8818 
  138800    309.44911   -29248.498    147.58544   -29396.083   -1583.0069 
  139000    273.35781   -29257.127    130.37243     -29387.5   -40781.472 
  139200    282.49338   -29270.662    134.72946   -29405.391   -44339.383 
  139400    307.22273   -29250.344    146.52362   -29396.868    52380.796 
  139600    302.34591   -29256.023    144.19772   -29400.221    7548.0962 
  139800    295.01888   -29280.196    140.70324   -29420.899    33074.124 
  140000    323.32625   -29259.776    154.20386    -29413.98    42568.635 
  140200    279.34307   -29294.321    133.22698   -29427.548   -10803.492 
  140400     296.6997    -29271.69    141.50487   -29413.194   -23484.093 
  140600    314.03019   -29260.428     149.7703   -29410.198   -9494.7489 
  140800    275.55699   -29290.509    131.42129    -29421.93    11151.567 
  141000    253.54857   -29278.809    120.92482   -29399.734   -33683.664 
  141200    301.62361   -29254.625    143.85323   -29398.479    19253.105 
  141400    295.45437   -29242.207    140.91094   -29383.118     15590.71 
  141600     266.0177   -29275.482    126.87172   -29402.354   -34992.636 
  141800    284.50445   -29253.124     135.6886   -29388.812   -17197.574 
  142000    314.48719   -29244.517    149.98825   -29394.505    31140.918 
  142200    294.59661   -29279.827    140.50185   -29420.329   -43558.224 
  142400    284.07564   -29258.981    135.48408   -29394.465   -22727.358 
  142600    342.03817   -29251.543    163.12813   -29414.671    51516.498 
  142800     297.8802   -29264.823    142.06789   -29406.891   -29438.425 
  143000    283.59319   -29274.763    135.25399   -29410.017    12625.417 
  143200    276.11436   -29292.674    131.68711   -29424.361    -13495.65 
  143400    318.27569   -29263.984     151.7951   -29415.779    12124.771 
  143600     280.4314   -29269.765    133.74604   -29403.511   -8384.9656 
  143800    294.86695   -29285.877    140.63078   -29426.507    18618.856 
  144000    312.36454   -29272.064     148.9759    -29421.04    3166.6506 
  144200    307.47447   -29254.124    146.64368   -29400.768   -7732.5101 
  144400    291.91071   -29280.665    139.22086   -29419.886    15351.956 
  144600    291.33633   -29266.284    138.94692   -29405.231   -31381.697 
  144800     306.2419   -29259.335    146.05583   -29405.391    9228.0426 
  145000    289.98261   -29266.295    138.30129   -29404.597    4016.8807 
  145200    281.32174   -29288.008    134.17067   -29422.179    51237.539 
  145400    323.63689   -29259.977    154.35201   -29414.329    43696.762 
  145600    296.82839   -29272.632    141.56625   -29414.198    20599.588 
  145800    275.47784   -29277.104    131.38354   -29408.488   -2841.1207 
  146000    299.85753   -29271.112    143.01093   -29414.123    -31399.46 
  146200    317.70339    -29282.64    151.52215   -29434.162   -47599.492 
  146400    292.27896    -29263.35    139.39649   -29402.746    24894.652 
  146600    308.31828   -29259.496    147.04612   -29406.543    -13897.09 
  146800    290.82007   -29290.893     138.7007   -29429.593   -7842.5596 
  147000    295.31695   -29266.484     140.8454   -29407.329   -21805.901 
  147200    303.96109   -29250.122    144.96804   -29395.091   -22993.037 
  147400    336.04107   -29225.499    160.26794   -29385.767   -10725.092 
  147600    311.63646   -29258.982    148.62866   -29407.611    2725.5487 
  147800    299.83153   -29267.563    142.99853   -29410.562   -13236.998 
  148000    287.52264   -29238.989    137.12806   -29376.117    7968.4654 
  148200    297.65515    -29249.58    141.96055    -29391.54     65.02983 
  148400    278.11585   -29267.768    132.64168    -29400.41   -19508.741 
  148600    322.07525    -29247.08    153.60722   -29400.687   -172.55386 
  148800    312.19951   -29251.256    148.89719   -29400.154    1590.2375 
  149000    274.13507   -29270.904    130.74313   -29401.648    34028.616 
  149200    334.73098   -29243.999    159.64312   -29403.642    8948.7302 
  149400    278.17596   -29279.543    132.67035   -29412.213    6914.8841 
  149600    306.54854   -29262.266    146.20208   -29408.468   -9915.0611 
  149800    327.06461   -29247.074    155.98679   -29403.061   -7710.6146 
  150000    283.41427   -29280.631    135.16866     -29415.8    -16409.44 
  150200    301.63593   -29270.585     143.8591   -29414.444    3095.5835 
  150400    308.57875   -29250.264    147.17034   -29397.435    33533.089 
  150600    306.06044   -29268.831    145.96929     -29414.8   -16348.498 
  150800    263.11568     -29276.4    125.48766   -29401.887   -5767.5206 
  151000    289.00531     -29261.6    137.83519   -29399.435    -31713.72 
  151200    294.49579    -29248.24    140.45376   -29388.694   -35293.196 
  151400    302.28225   -29262.335    144.16735   -29406.502     -46889.9 
  151600    265.29967   -29273.532    126.52927   -29400.062   -43440.694 
  151800    309.86097    -29246.05    147.78187   -29393.831   -17493.642 
  152000    308.78772   -29263.694       147.27   -29410.964   -31613.144 
  152200    287.37768   -29270.863    137.05893   -29407.922    14589.347 
  152400    296.70294   -29267.926    141.50642   -29409.433   -20490.341 
  152600    321.20719    -29270.08    153.19322   -29423.274   -34257.032 
  152800    270.24374   -29285.948    128.88724   -29414.835   -11870.953 
  153000    332.43762   -29260.335    158.54934   -29418.884    20111.164 
  153200    294.00884   -29273.121    140.22152   -29413.343   -5233.0532 
  153400    272.48035   -29286.171    129.95395   -29416.125    16882.293 
  153600    320.28386   -29261.314    152.75286   -29414.067    22260.843 
  153800    293.19151   -29270.249    139.83171   -29410.081    17501.976 
  154000    281.63889   -29291.957    134.32192   -29426.279    24566.506 
  154200     305.8361   -29263.454    145.86229   -29409.316    14236.102 
  154400    323.44137   -29260.466    154.25877   -29414.725    4470.4319 
  154600    267.74252    -29285.47    127.69433   -29413.164   -9931.4358 
  154800    301.52413   -29253.974    143.80579    -29397.78   -19926.003 
  155000    310.32434   -29258.647    148.00286    -29406.65   -989.17315 
  155200    265.96899   -29290.856    126.84849   -29417.704    11109.715 
  155400    292.58338   -29268.332    139.54168   -29407.874    17096.233 
  155600     290.8595    -29255.03    138.71951   -29393.749    1013.8916 
  155800    312.38387   -29268.939    148.98512   -29417.924    26219.253 
  156000    284.36291   -29275.704    135.62109   -29411.325    17483.778 
  156200    309.49349   -29251.023    147.60661   -29398.629   -29572.346 
  156400    297.67453   -29274.985     141.9698   -29416.955   -25362.713 
  156600    327.99243   -29248.706     156.4293   -29405.135    18267.295 
  156800     335.6782   -29252.645    160.09487    -29412.74     32496.51 
  157000    310.78759   -29271.109     148.2238   -29419.333   -6889.1015 
  157200    293.81566   -29276.491    140.12939    -29416.62    17979.529 
  157400    319.16734   -29258.191    152.22035   -29410.411   -29390.237 
  157600    307.90955    -29265.31    146.85118   -29412.161    25554.457 
  157800    289.32872   -29279.901    137.98943   -29417.891    8629.7829 
  158000    322.45539       -29259    153.78852   -29412.789   -8309.6693 
  158200     276.7924   -29277.529    132.01049    -29409.54    18713.326 
  158400    285.03545   -29297.083    135.94184   -29433.025   -35751.257 
  158600    311.23569   -29263.234    148.43751   -29411.672     2192.248 
  158800    305.07802   -29253.697    145.50074   -29399.197   -12724.477 
  159000    252.17694   -29283.524    120.27065   -29403.795   -14888.226 
  159200    317.33972   -29255.897    151.34871   -29407.245    3597.7019 
  159400    317.01167   -29254.774    151.19225   -29405.966    12717.943 
  159600    265.56379   -29275.909    126.65523   -29402.564    27162.963 
  159800    291.46962   -29251.797    139.01049   -29390.807   -8297.0737 
  160000    300.95028   -29253.444     143.5321   -29396.976    -33121.75 
  160200    267.81497   -29272.988    127.72889   -29400.717   -55895.577 
  160400    292.65653   -29265.422    139.57657   -29404.999    31333.022 
  160600    307.68552   -29274.855    146.74434   -29421.599   -12373.506 
  160800    276.10984   -29295.868    131.68496   -29427.553   -3183.0818 
  161000    305.03012   -29278.246     145.4779   -29423.724   -9830.3376 
  161200    296.92221   -29268.063    141.61099   -29409.674     26241.72 
  161400    298.50463   -29267.872     142.3657   -29410.238   -8595.9121 
  161600    262.00084   -29289.352    124.95596   -29414.308    3547.1588 
  161800    329.83226   -29257.718    157.30677   -29415.025    -47413.43 
  162000    271.96772   -29268.062    129.70946   -29397.771   -41878.605 
  162200    284.45183   -29268.541     135.6635   -29404.204    28448.324 
  162400    320.34347   -29239.448    152.78129    -29392.23   -33526.674 
  162600    290.13159   -29266.655    138.37234   -29405.027    26218.035 
  162800    290.85082   -29259.233    138.71537   -29397.948    4735.1353 
  163000    287.06101   -29247.636    136.90789   -29384.544   -11460.413 
  163200    342.30067   -29241.998    163.25332   -29405.251   -14767.571 
  163400    285.19679   -29263.076     136.0188   -29399.095    7938.0559 
  163600    276.02262   -29252.223    131.64336   -29383.867    1817.5556 
  163800    306.19945   -29241.083    146.03559   -29387.118     13402.46 
  164000    298.46939   -29262.153    142.34889   -29404.502     259.9765 
  164200    334.57103   -29230.098    159.56683   -29389.665   -39865.931 
  164400    320.86236   -29245.813    153.02876   -29398.842   -7313.1059 
  164600    270.55984   -29264.154      129.038   -29393.192    15391.343 
  164800    303.54218   -29255.432    144.76825     -29400.2    15891.847 
  165000    296.04283   -29240.397    141.19159   -29381.588   -575.30854 
  165200    312.49415   -29269.183    149.03771   -29418.221    8104.9436 
  165400    293.37816   -29254.165    139.92073   -29394.085    24460.751 
  165600    327.72673    -29246.52    156.30258   -29402.823    16681.876 
  165800    315.22406   -29276.896    150.33969   -29427.235   -17705.546 
  166000    300.90848   -29266.822    143.51216   -29410.334   -8416.3521 
  166200    301.04969   -29270.135    143.57951   -29413.715   -19083.807 
  166400    320.04003   -29292.547    152.63656   -29445.183    2932.1565 
  166600    334.49544   -29264.473    159.53078   -29424.004   -30211.558 
  166800    295.84791   -29276.141    141.09863    -29417.24   -6066.6817 
  167000    302.71388   -29281.946    144.37321   -29426.319    9513.4324 
  167200    320.29847   -29256.797    152.75982   -29409.557    -26493.72 
  167400     270.9241    -29278.95    129.21172   -29408.162     16578.86 
  167600    309.00754   -29286.152    147.37484   -29433.527   -16962.302 
  167800    305.75933   -29262.449    145.82568   -29408.275   -25656.728 
  168000    279.56358   -29286.449    133.33215   -29419.781   -809.57529 
  168200    274.03381   -29287.003    130.69484   -29417.698    5966.4507 
  168400    318.40504   -29261.694    151.85679   -29413.551    -21166.43 
  168600    310.73956   -29263.482     148.2009   -29411.683   -24631.108 
  168800    284.92442   -29278.728    135.88889   -29414.617   -7354.0143 
  169000    312.55303   -29250.173    149.06579   -29399.238    4927.9874 
  169200    300.45469   -29260.909    143.29574   -29404.205   -51803.837 
  169400     287.7429   -29277.664    137.23311   -29414.897    29623.057 
  169600    305.24538    -29252.85    145.58056   -29398.431    4308.2308 
  169800    316.33138    -29271.54     150.8678   -29422.407   -36867.421 
  170000    272.59332   -29278.914    130.00783   -29408.922   -28105.317 
  170200    312.79381   -29256.702    149.18063   -29405.883   -33137.653 
  170400     284.4145   -29262.688    135.64569   -29398.334   -15709.666 
  170600    266.12021   -29291.134    126.92061   -29418.054    11487.228 
  170800    284.12559   -29265.433    135.50791   -29400.941   -16428.395 
  171000    297.34122   -29258.679    141.81083    -29400.49    2594.6588 
  171200    299.71342   -29281.178     142.9422    -29424.12    31747.245 
  171400    283.35943   -29280.154     135.1425   -29415.297   -32688.972 
  171600    328.44189   -29257.433    156.64366   -29414.077    12819.613 
  171800    275.33917   -29277.637     131.3174   -29408.954    50260.374 
  172000     297.2734   -29267.176    141.77849   -29408.955    33169.552 
  172200    294.54183   -29254.943    140.47572   -29395.419   -29278.549 
  172400    284.59495   -29279.267    135.73176   -29414.998     11744.43 
  172600    306.60269   -29262.652     146.2279    -29408.88    28308.273 
  172800    302.22816   -29262.742    144.14156   -29406.883    1094.2641 
  173000    314.36937   -29282.359    149.93206   -29432.291   -19559.941 
  173200    294.12509   -29266.784    140.27697   -29407.061     31103.74 
  173400    304.14564   -29253.222    145.05606   -29398.278   -31884.411 
  173600    278.75382   -29276.104    132.94595    -29409.05     -23353.2 
  173800    316.13806   -29267.447     150.7756   -29418.223    18117.743 
  174000    322.40488   -29237.746    153.76443   -29391.511   -1090.3825 
  174200    278.10854   -29270.216     132.6382   -29402.855    6928.1292 
  174400    296.30163   -29265.228    141.31502   -29406.543   -18763.144 
  174600    303.06292   -29244.188    144.53968   -29388.727    23372.281 
  174800    338.22404   -29259.875    161.30906   -29421.184    1011.5964 
  175000    296.77397   -29273.577    141.54029   -29415.117    407.61726 
  175200    326.39315   -29251.977    155.66656   -29407.644   -14745.072 
  175400    310.90663    -29256.83    148.28058   -29405.111   -13724.614 
  175600    283.38204   -29279.537    135.15329    -29414.69    4328.8795 
  175800    339.41945   -29247.727    161.87918   -29409.606   -8207.1104 
  176000    295.03937   -29260.668    140.71301   -29401.381   -13253.809 
  176200     332.2271   -29264.285    158.44894   -29422.734   -26376.644 
  176400    298.17274   -29267.584    142.20741   -29409.791    18950.581 
  176600    281.24918   -29273.399    134.13606   -29407.535    44394.337 
  176800    316.18198   -29244.417    150.79655   -29395.213    41907.995 
  177000    300.31459    -29272.64    143.22892   -29415.869   -28609.979 
  177200     283.9523   -29266.753    135.42526   -29402.178   -1579.0273 
  177400    309.95824   -29249.539    147.82826   -29397.368   -7774.9693 
  177600    309.31553   -29258.419    147.52173   -29405.941   -14386.429 
  177800    318.02278   -29277.261    151.67448   -29428.936   -9372.7506 
[...]
  950000    251.30061    -29305.66     119.8527   -29425.512    34345.848 
  950200    320.31714   -29272.648    152.76873   -29425.416    1128.4238 
  950400    295.18222   -29264.739    140.78114    -29405.52   -10382.864 
  950600    308.65859   -29286.025    147.20842   -29433.233    2111.1222 
  950800     316.7361   -29271.148    151.06083   -29422.208    15705.416 
  951000    303.87963    -29263.57    144.92919   -29408.499    12362.395 
  951200    273.63735   -29288.569    130.50575   -29419.075     45009.34 
  951400    302.67789   -29277.982    144.35605   -29422.338   -36258.273 
  951600    310.38566   -29259.674    148.03211   -29407.706   -7966.3258 
  951800    331.03217   -29269.384    157.87904   -29427.263   -33567.302 
  952000    277.79518    -29285.16    132.48875   -29417.649   -30220.813 
  952200     314.3614   -29263.979    149.92826   -29413.907    14462.437 
  952400    272.30632   -29295.771    129.87095   -29425.642   -3621.5965 
  952600    300.63196   -29277.769    143.38028   -29421.149    29788.004 
  952800    324.17245   -29259.636    154.60744   -29414.243   -29469.081 
  953000    273.04787   -29283.617    130.22461   -29413.842    8229.6198 
  953200    313.36397   -29278.904    149.45256   -29428.356   -40248.961 
  953400     306.1094   -29265.554    145.99264   -29411.547    20054.723 
  953600    287.80254   -29279.973    137.26155   -29417.235    9664.7419 
  953800    279.75135   -29300.877     133.4217   -29434.299    7655.0775 
  954000    305.62462   -29265.903    145.76143   -29411.665    36301.921 
  954200    283.29107   -29276.649     135.1099   -29411.759    23635.258 
  954400    262.04662   -29292.523    124.97779   -29417.501    49599.428 
  954600    315.56514   -29258.143    150.50236   -29408.646   -46765.514 
  954800    300.92904   -29269.616    143.52197   -29413.138   -46488.164 
  955000    277.56432   -29284.072    132.37864    -29416.45   -22882.502 
  955200    320.91542   -29269.049    153.05406   -29422.103   -583.79514 
  955400    316.99043   -29260.331    151.18212   -29411.513   -74.809239 
  955600    285.29602   -29289.439    136.06612   -29425.505   -26744.192 
  955800    286.09573   -29269.868    136.44753   -29406.316    30646.086 
  956000    334.62932   -29258.015    159.59463    -29417.61   -64605.591 
  956200    291.30765   -29278.073    138.93325   -29417.006   -17411.646 
  956400    333.69668   -29258.851    159.14983   -29418.001    4967.7287 
  956600    306.97171   -29249.455     146.4039   -29395.859   -21125.992 
  956800    283.57086   -29275.539    135.24334   -29410.782    3261.4296 
  957000    340.39014   -29268.359    162.34214   -29430.701    -22296.08 
  957200    291.28892   -29250.148    138.92431   -29389.072   -24234.484 
  957400    317.17054   -29267.523    151.26802   -29418.791   -67699.228 
  957600     283.3408   -29281.394    135.13362   -29416.528     49049.89 
  957800    331.17969   -29248.128     157.9494   -29406.078    38387.094 
  958000    287.85531   -29266.318    137.28672   -29403.605    50741.526 
  958200    292.28196   -29273.862    139.39792    -29413.26   -35072.881 
  958400    300.67963   -29263.112    143.40302   -29406.515   -64007.059 
  958600    322.11069   -29261.298    153.62413   -29414.922     36241.16 
  958800    289.50556   -29286.742    138.07377   -29424.816    15917.269 
  959000    299.80338   -29263.082    142.98511   -29406.067    23538.936 
  959200    300.17604   -29266.764    143.16284   -29409.927     25568.54 
  959400    307.33832   -29286.518    146.57874   -29433.096   -39905.721 
  959600    296.65309   -29254.908    141.48264    -29396.39    8991.1401 
  959800    295.90038   -29268.782    141.12365   -29409.906   -40826.919 
  960000    263.56631   -29282.529    125.70258   -29408.231   -2333.5503 
  960200    303.27158   -29271.709     144.6392   -29416.348    44303.308 
  960400    314.91382   -29250.666    150.19172   -29400.858   -33315.782 
  960600    263.00126   -29257.797    125.43309    -29383.23   -7841.9505 
  960800    291.91163   -29278.201     139.2213   -29417.422    3905.8717 
  961000    342.72148   -29252.255    163.45402    -29415.71    8266.6373 
  961200    293.92563   -29260.198    140.18184   -29400.379   -39771.454 
  961400    292.15021   -29280.429    139.33509   -29419.764   -11842.002 
  961600    318.82621   -29253.796    152.05766   -29405.854   -17091.541 
  961800    306.25854   -29270.298    146.06377   -29416.362   -591.70222 
  962000    287.92852   -29277.245    137.32164   -29414.566    2488.1054 
  962200    313.34716   -29252.577    149.44454   -29402.021    7748.1772 
  962400    273.87537   -29287.044    130.61927   -29417.663    4397.7287 
  962600    302.05226   -29275.683    144.05767   -29419.741   -43072.222 
  962800    305.47671   -29263.033    145.69089   -29408.724   -14558.259 
  963000    279.15683   -29297.851    133.13816   -29430.989    21622.096 
  963200    283.41584   -29274.571    135.16941    -29409.74    17285.502 
  963400     302.6557   -29262.987    144.34546   -29407.333   -13939.704 
  963600    337.89471   -29241.203    161.15199   -29402.355    6255.6396 
  963800    301.96434   -29272.133    144.01574   -29416.148   -14176.558 
  964000    287.90123   -29270.771    137.30862    -29408.08    7809.2309 
  964200    315.94488   -29243.933    150.68347   -29394.617    57058.412 
  964400    294.23006    -29283.08    140.32703   -29423.407    6801.9887 
  964600    296.09566   -29266.299    141.21679   -29407.516    25577.778 
  964800    329.16724   -29260.146     156.9896   -29417.136    51400.536 
  965000    291.45929   -29290.692    139.00557   -29429.697    55587.676 
  965200    288.45158   -29266.923     137.5711   -29404.494   -7873.6396 
  965400    321.49049   -29265.069    153.32833   -29418.397   -48275.033 
  965600     296.9491   -29270.876    141.62382     -29412.5    15830.899 
  965800    275.34113   -29281.318    131.31834   -29412.636   -22759.334 
  966000    291.26694   -29252.119    138.91383   -29391.033   -38403.176 
  966200    323.59954   -29273.155     154.3342   -29427.489    42505.256 
  966400    291.96283   -29280.444    139.24572   -29419.689   -53772.598 
  966600    309.98101   -29260.984    147.83912   -29408.823    20768.086 
  966800    301.00168   -29283.448    143.55662   -29427.005    5674.5528 
  967000    286.12555   -29281.553    136.46175   -29418.015   -8912.6694 
  967200    299.76657   -29263.733    142.96755   -29406.701    31017.432 
  967400    293.97521   -29269.315    140.20548    -29409.52   -32330.528 
  967600    273.73436   -29295.551    130.55202   -29426.103   -17640.345 
  967800    269.56482   -29270.382    128.56344   -29398.945   -10910.193 
  968000    289.17359   -29259.449    137.91545   -29397.365   -37260.469 
  968200    306.79354   -29280.621    146.31892    -29426.94     25349.22 
  968400    290.55647   -29280.951    138.57498   -29419.526    21855.884 
  968600    292.87239   -29258.386    139.67951   -29398.065   -20395.565 
  968800    275.57118   -29284.043    131.42805   -29415.471    34398.941 
  969000    313.70661   -29260.243    149.61597   -29409.859   -39136.041 
  969200    302.98933   -29258.874    144.50458   -29403.378     8103.052 
  969400    277.85478   -29281.774    132.51717   -29414.291   -38078.885 
  969600    292.43311   -29246.378    139.47001   -29385.848    -591.5263 
  969800    314.29307   -29260.794    149.89567    -29410.69    59826.992 
  970000    302.88713   -29280.007    144.45584   -29424.463    65666.063 
  970200    315.82908   -29254.633    150.62824   -29405.262    32986.024 
  970400    323.00696   -29258.973    154.05158   -29413.024   -6687.6943 
  970600    289.29137   -29277.091    137.97162   -29415.063    18734.219 
  970800    327.57952   -29258.988    156.23237    -29415.22   -11484.835 
  971000    326.44671   -29245.594     155.6921   -29401.286    16675.338 
  971200    275.07805   -29272.009    131.19286   -29403.202   -44836.967 
  971400    290.13769   -29280.747    138.37526   -29419.122     13822.56 
  971600    302.04855     -29248.1     144.0559   -29392.155   -17414.345 
  971800    300.52834   -29274.137    143.33086   -29417.468    -349.7212 
  972000    299.01055   -29277.799    142.60699   -29420.406    71027.739 
  972200    302.70689   -29253.867    144.36988   -29398.237   -15997.544 
  972400    314.79119   -29280.543    150.13324   -29430.676    18972.498 
  972600    310.67354   -29285.189    148.16941   -29433.359    11769.547 
  972800    290.19538   -29257.373    138.40277   -29395.776    110934.52 
  973000    308.50914   -29278.213    147.13715    -29425.35   -5201.2785 
  973200    293.30148   -29281.114    139.88416   -29420.998    3429.7989 
  973400    313.26725   -29269.296    149.40643   -29418.702   -1239.7969 
  973600    314.49665   -29257.956    149.99276   -29407.949    21091.966 
  973800    320.92567   -29251.117    153.05895   -29404.176    29209.399 
  974000    298.76485   -29278.878     142.4898   -29421.368   -33758.992 
  974200    310.22047   -29254.423    147.95333   -29402.376    39558.524 
  974400     326.6223    -29253.77    155.77585   -29409.546     41486.08 
  974600    293.70731   -29273.095    140.07771   -29413.173   -18661.119 
  974800    284.15704   -29267.471     135.5229   -29402.994    30149.374 
  975000    330.90968   -29248.584    157.82062   -29406.405    27354.438 
  975200    283.92947   -29270.327    135.41437   -29405.742   -44637.396 
  975400    309.29495   -29265.955    147.51192   -29413.467    43005.926 
  975600    318.97881   -29244.289    152.13044   -29396.419   -15074.465 
  975800    300.96248   -29259.547    143.53792   -29403.084   -19630.465 
  976000    312.30123   -29275.394     148.9457    -29424.34    991.86095 
  976200    308.33855   -29263.416    147.05578   -29410.472     33575.44 
  976400    310.51124   -29252.039    148.09201   -29400.131    11425.513 
  976600    288.21211   -29281.729    137.45689   -29419.185   -1042.4431 
  976800    310.14689   -29261.458    147.91824   -29409.376   -8081.4376 
  977000    286.06556   -29267.819    136.43314   -29404.252   -11222.024 
  977200       282.98    -29286.31    134.96154   -29421.272   -29520.824 
  977400    306.38536   -29257.967    146.12425   -29404.091    6413.2613 
  977600    301.00771   -29266.775    143.55949   -29410.335   -13160.259 
  977800    339.09064   -29272.062    161.72237   -29433.784    15146.348 
  978000    292.77107   -29271.388    139.63119   -29411.019    14897.964 
  978200    319.04539   -29249.704    152.16219   -29401.866    46784.831 
  978400      313.914   -29276.446    149.71488   -29426.161    7515.8844 
  978600    310.14223   -29272.232    147.91601   -29420.148   -5484.3769 
  978800    284.02241   -29264.837     135.4587   -29400.296    51196.252 
  979000    307.39057   -29269.876    146.60367   -29416.479   -7961.0032 
  979200    295.26042   -29268.359    140.81844   -29409.177    16433.055 
  979400    330.37889   -29255.347    157.56748   -29412.915    33860.874 
  979600    271.83371   -29282.539    129.64554   -29412.184   -42893.886 
  979800    287.78176   -29274.904    137.25164   -29412.156   -28276.156 
  980000    300.61539    -29256.76    143.37238   -29400.132    11455.083 
  980200     282.2282   -29281.754    134.60299   -29416.357    116668.59 
  980400    289.52829    -29263.04    138.08461   -29401.124    4877.8245 
  980600    329.95354   -29258.924    157.36461   -29416.288    -5647.912 
  980800    290.26103   -29276.955    138.43408   -29415.389   -2547.6994 
  981000    296.43846   -29265.107    141.38028   -29406.488   -38526.331 
  981200    287.01431   -29266.159    136.88562   -29403.044   -19349.396 
  981400    266.61355   -29271.111     127.1559   -29398.267   -14259.165 
  981600    314.78178   -29264.266    150.12875   -29414.395   -44008.296 
  981800    297.35232   -29270.171    141.81613   -29411.987   -10889.756 
  982000    302.52736   -29284.232    144.28425   -29428.516   -29367.529 
  982200     300.3072   -29253.238    143.22539   -29396.463    41809.038 
  982400    294.43977   -29276.948    140.42704   -29417.375   -5402.9096 
  982600    324.50142   -29263.971    154.76433   -29418.735   -16823.333 
  982800     345.6498    -29234.46    164.85063    -29399.31    27400.907 
  983000    307.24463   -29266.677    146.53406   -29413.211   -24199.147 
  983200    281.27848   -29276.139    134.15004   -29410.289    88071.358 
  983400    303.62645   -29280.512    144.80844    -29425.32   -46083.908 
  983600     294.3171   -29256.524    140.36854   -29396.892    28580.161 
  983800    300.68857   -29260.906    143.40728   -29404.313   -39990.797 
  984000    298.83591   -29281.091    142.52369   -29423.614   -5793.7912 
  984200    299.39639   -29255.116      142.791   -29397.907   -13456.343 
  984400    322.71594   -29250.107    153.91279    -29404.02    67998.211 
  984600    272.13865   -29281.638    129.79098   -29411.429    36589.601 
  984800    303.53963   -29267.899    144.76704   -29412.666     2329.643 
  985000    314.66402   -29250.061    150.07259   -29400.133     16716.53 
  985200    286.16628   -29276.972    136.48117   -29413.454   -22390.783 
  985400    296.35223     -29272.2    141.33915   -29413.539    46565.096 
  985600    307.27045   -29267.377    146.54638   -29413.924    30272.903 
  985800     302.6573   -29249.047    144.34623   -29393.393   -22909.636 
  986000    299.87776   -29277.493    143.02058   -29420.514    -66999.05 
  986200    297.28668   -29276.043    141.78482   -29417.828   -24801.714 
  986400    317.81732   -29249.396    151.57649   -29400.973   -21522.446 
  986600    327.28493   -29264.121    156.09187   -29420.212   -30644.192 
  986800    301.45205   -29277.376    143.77141   -29421.147    12972.099 
  987000    324.56598   -29239.349    154.79512   -29394.145   -39371.289 
  987200    322.78704   -29267.697     153.9467   -29421.643   -47418.077 
  987400    298.61935   -29278.592    142.42041   -29421.013   -35421.921 
  987600    310.00535   -29247.036    147.85073   -29394.887    32859.653 
  987800    287.82267   -29265.311    137.27115   -29402.582    45547.669 
  988000    309.20394   -29279.508    147.46851   -29426.976    -49426.18 
  988200    307.77099   -29250.058     146.7851   -29396.843   -25650.685 
  988400    320.24879    -29249.91    152.73613   -29402.646    3014.3171 
  988600    306.21911    -29267.89    146.04496   -29413.934    45441.713 
  988800    311.72459   -29282.548    148.67069   -29431.218    26167.291 
  989000    291.21996   -29273.714    138.89142   -29412.605    19964.014 
  989200    306.50666   -29258.264     146.1821   -29404.446    5281.5679 
  989400     268.3922   -29287.778    128.00419   -29415.782    5325.1503 
  989600    332.36439   -29273.359    158.51442   -29431.873    45511.379 
  989800     339.5327   -29264.559     161.9332   -29426.492    23336.977 
  990000    320.25857   -29233.322    152.74079   -29386.063    39586.057 
  990200    282.79144   -29270.282    134.87161   -29405.154   -19730.049 
  990400     307.5157   -29273.659    146.66334   -29420.322    20870.221 
  990600    337.68725   -29242.465    161.05305   -29403.518     46690.92 
  990800    290.96815   -29269.707    138.77133   -29408.478   -23084.334 
  991000    276.60133   -29273.658    131.91936   -29405.578   -32687.407 
  991200      325.511   -29249.918    155.24583   -29405.163   -10878.773 
  991400    303.47339   -29257.499    144.73544   -29402.234   -20736.427 
  991600     299.0668   -29278.353    142.63381   -29420.987     -53831.1 
  991800    331.83537   -29256.138    158.26211     -29414.4    48917.575 
  992000    294.93628   -29262.269    140.66385   -29402.933   -54569.426 
  992200    298.64761   -29280.777    142.43389   -29423.211   -15126.751 
  992400    303.14934   -29256.229     144.5809   -29400.809   -16865.824 
  992600    309.09807   -29280.572    147.41802    -29427.99    2500.9431 
  992800    290.50945   -29281.431    138.55256   -29419.983   -1861.3897 
  993000    302.10315   -29256.964    144.08194   -29401.046    19272.385 
  993200    317.81032   -29263.927    151.57315     -29415.5    28321.814 
  993400    311.59669   -29270.314    148.60969   -29418.924    6400.2159 
  993600    286.09679   -29262.168    136.44803   -29398.616    65192.104 
  993800     336.2134   -29235.029    160.35013   -29395.379    49684.011 
  994000    276.15822   -29275.733    131.70803   -29407.442    67262.576 
  994200    284.37148   -29266.609    135.62518   -29402.235   -23222.633 
  994400    324.49602   -29249.295    154.76176   -29404.057   -2500.2808 
  994600    266.52769   -29287.905    127.11495    -29415.02   -25024.277 
  994800    295.94708   -29271.358    141.14592   -29412.504    52513.334 
  995000    325.41403   -29262.511    155.19959   -29417.711    13441.006 
  995200    315.07689   -29277.591     150.2695    -29427.86    70446.666 
  995400    308.43237   -29271.124    147.10053   -29418.225   -50054.524 
  995600    298.54874   -29253.102    142.38673   -29395.489   -24331.098 
  995800    286.67448   -29258.661    136.72355   -29395.385    19730.605 
  996000    269.22029    -29279.31    128.39913   -29407.709    15675.757 
  996200    316.38768   -29253.419    150.89465   -29404.314    3933.0257 
  996400    315.62222   -29255.698    150.52958   -29406.228   -8613.3291 
  996600    294.92332   -29269.188    140.65766   -29409.845    2573.5939 
  996800     288.4035    -29264.97    137.54817   -29402.519     4741.722 
  997000    336.69901   -29249.607    160.58173   -29410.189   -13296.574 
  997200     289.6978   -29280.514    138.16546    -29418.68    36819.297 
  997400    325.41198   -29263.484    155.19861   -29418.683   -46920.738 
  997600    351.57434   -29236.452    167.67621   -29404.128   -1774.1652 
  997800    295.82476   -29283.082    141.08759    -29424.17    30956.809 
  998000    320.49747   -29267.182    152.85473   -29420.037    7119.3992 
  998200    334.41455    -29255.33     159.4922   -29414.822    18507.624 
  998400    291.40059   -29287.585    138.97757   -29426.562   -28423.696 
  998600    308.05354   -29268.812    146.91986   -29415.732   -10841.903 
  998800    284.87855   -29265.956    135.86701   -29401.823    55029.831 
  999000    329.97083   -29276.516    157.37286   -29433.889    23631.413 
  999200    263.42886   -29295.938    125.63702   -29421.575    47752.806 
  999400    311.22889   -29262.771    148.43427   -29411.205    16112.886 
  999600     296.9705   -29274.143    141.63402   -29415.777   -61099.551 
  999800    241.70359   -29297.267     115.2756   -29412.543    36512.603 
 1000000    285.14906   -29260.893    135.99603   -29396.889   -31288.721 
Loop time of 7048.47 on 8 procs for 1000000 steps with 161 atoms

Performance: 3.064 ns/day, 7.832 hours/ns, 141.875 timesteps/s
99.2% CPU use with 8 MPI tasks x no OpenMP threads

MPI task timing breakdown:
Section |  min time  |  avg time  |  max time  |%varavg| %total
---------------------------------------------------------------
Pair    | 5876.8     | 5996.2     | 6123       | 122.1 | 85.07
Neigh   | 1.1567     | 1.1843     | 1.2187     |   2.0 |  0.02
Comm    | 152.33     | 278.56     | 397.85     | 563.9 |  3.95
Output  | 0.13545    | 0.14715    | 0.22186    |   7.4 |  0.00
Modify  | 765.94     | 767.04     | 769.02     |   3.3 | 10.88
Other   |            | 5.315      |            |       |  0.08

Nlocal:    20.125 ave 36 max 7 min
Histogram: 1 1 2 0 0 2 0 0 0 2
Nghost:    924.625 ave 955 max 875 min
Histogram: 1 0 0 1 0 1 2 0 0 3
Neighs:    2860.62 ave 4860 max 1028 min
Histogram: 1 1 1 1 0 2 0 0 0 2

Total # of neighbors = 22885
Ave neighs/atom = 142.143
Neighbor list builds = 977
Dangerous builds = 0

unfix 1
unfix output
undump 1

Please see the log.cite file for references relevant to this simulation

Total wall time: 1:58:01
