
     Program PWSCF v.7.1 starts on 24May2025 at 22:15: 5 

     This program is part of the open-source Quantum ESPRESSO suite
     for quantum simulation of materials; please cite
         "P. Giannozzi et al., J. Phys.:Condens. Matter 21 395502 (2009);
         "P. Giannozzi et al., J. Phys.:Condens. Matter 29 465901 (2017);
         "P. Giannozzi et al., J. Chem. Phys. 152 154105 (2020);
          URL http://www.quantum-espresso.org", 
     in publications or presentations arising from this work. More details at
     http://www.quantum-espresso.org/quote

     Parallel version (MPI), running on    16 processors

     MPI processes distributed on     1 nodes
     246407 MiB available memory on the printing compute node when the environment starts

     Reading input from input.pwi
Warning: card &CELL ignored
Warning: card / ignored
Warning: card &FCP ignored
Warning: card / ignored
Warning: card &RISM ignored
Warning: card / ignored

     Current dimensions of program PWSCF are:
     Max number of different atomic species (ntypx) = 10
     Max number of k-points (npk) =  40000
     Max angular momentum in pseudopotentials (lmaxx) =  4
     file C.pbe-n-kjpaw_psl.1.0.0.UPF: wavefunction(s)  2S 2P renormalized
     file O.pbe-n-kjpaw_psl.0.1.UPF: wavefunction(s)  2P renormalized

     IMPORTANT: XC functional enforced from input :
     Exchange-correlation= PBE
                           (   1   4   3   4   0   0   0)
     Any further DFT definition will be discarded
     Please, verify this is what you really want


     gamma-point specific algorithms are used
     Message from routine  set_nelup_neldw :
     BEWARE: non-integer number of up and down electrons!

     R & G space division:  proc/nbgrp/npool/nimage =      16
     Subspace diagonalization in iterative solution of the eigenvalue problem:
     a serial algorithm will be used


     Parallelization info
     --------------------
     sticks:   dense  smooth     PW     G-vecs:    dense   smooth      PW
     Min         858     428    106                75870    26832    3354
     Max         860     430    108                75880    26846    3360
     Sum       13753    6869   1725              1214029   429409   53715

     Using Slab Decomposition



     bravais-lattice index     =            0
     lattice parameter (alat)  =      20.7870  a.u.
     unit-cell volume          =    8983.6663 (a.u.)^3
     number of atoms/cell      =           51
     number of atomic types    =            3
     number of electrons       =       205.00 (up: 102.50, down: 102.50)
     number of Kohn-Sham states=          123
     kinetic-energy cutoff     =      50.0000  Ry
     charge density cutoff     =     400.0000  Ry
     scf convergence threshold =      1.0E-06
     mixing beta               =       0.3000
     number of iterations used =            8  plain     mixing
     energy convergence thresh.=      1.0E-04
     force convergence thresh. =      1.0E-03
     Exchange-correlation= PBE
                           (   1   4   3   4   0   0   0)
     nstep                     =         1000


     celldm(1)=  20.786987  celldm(2)=   0.000000  celldm(3)=   0.000000
     celldm(4)=   0.000000  celldm(5)=   0.000000  celldm(6)=   0.000000

     crystal axes: (cart. coord. in units of alat)
               a(1) = (   1.000000   0.000000   0.000000 )  
               a(2) = (   0.000000   1.000182   0.000000 )  
               a(3) = (   0.000000   0.000000   1.000000 )  

     reciprocal axes: (cart. coord. in units 2 pi/alat)
               b(1) = (  1.000000  0.000000  0.000000 )  
               b(2) = (  0.000000  0.999818  0.000000 )  
               b(3) = (  0.000000  0.000000  1.000000 )  


     PseudoPot. # 1 for C  read from file:
     /home/ana.bisette/espresso/pseudo/C.pbe-n-kjpaw_psl.1.0.0.UPF
     MD5 check sum: 5d2aebdfa2cae82b50a7e79e9516da0f
     Pseudo is Projector augmented-wave + core cor, Zval =  4.0
     Generated using "atomic" code by A. Dal Corso  v.5.1
     Shape of augmentation charge: PSQ
     Using radial grid of 1073 points,  4 beta functions with: 
                l(1) =   0
                l(2) =   0
                l(3) =   1
                l(4) =   1
     Q(r) pseudized with 0 coefficients 


     PseudoPot. # 2 for O  read from file:
     /home/ana.bisette/espresso/pseudo/O.pbe-n-kjpaw_psl.0.1.UPF
     MD5 check sum: 0234752ac141de4415c5fc33072bef88
     Pseudo is Projector augmented-wave + core cor, Zval =  6.0
     Generated using "atomic" code by A. Dal Corso  v.5.0.99 svn rev. 10869
     Shape of augmentation charge: BESSEL
     Using radial grid of 1095 points,  4 beta functions with: 
                l(1) =   0
                l(2) =   0
                l(3) =   1
                l(4) =   1
     Q(r) pseudized with 0 coefficients 


     PseudoPot. # 3 for H  read from file:
     /home/ana.bisette/espresso/pseudo/H.pbe-rrkjus_psl.1.0.0.UPF
     MD5 check sum: f52b6d4d1c606e5624b1dc7b2218f220
     Pseudo is Ultrasoft, Zval =  1.0
     Generated using "atomic" code by A. Dal Corso  v.5.1
     Using radial grid of  929 points,  2 beta functions with: 
                l(1) =   0
                l(2) =   0
     Q(r) pseudized with 0 coefficients 


     atomic species   valence    mass     pseudopotential
        C              4.00    12.01100     C ( 1.00)
        O              6.00    15.99900     O ( 1.00)
        H              1.00     1.00800     H ( 1.00)

     Starting magnetic structure 
     atomic species   magnetization
        C            0.000
        O            0.000
        H            0.000

     No symmetry found



   Cartesian axes

     site n.     atom                  positions (alat units)
         1           C   tau(   1) = (   0.5607273   0.4189091   0.5608182  )
         2           C   tau(   2) = (   0.6985455   0.2805455   0.6985455  )
         3           C   tau(   3) = (   0.6340000   0.3453636   0.6340000  )
         4           C   tau(   4) = (   0.4189091   0.5608182   0.5608182  )
         5           C   tau(   5) = (   0.2805455   0.6985455   0.6985455  )
         6           C   tau(   6) = (   0.3453636   0.6340000   0.6340000  )
         7           C   tau(   7) = (   0.5608182   0.5608182   0.4189091  )
         8           C   tau(   8) = (   0.6985455   0.6985455   0.2805455  )
         9           C   tau(   9) = (   0.6340000   0.6340000   0.3453636  )
        10           C   tau(  10) = (   0.4184545   0.4184545   0.4184545  )
        11           C   tau(  11) = (   0.2804545   0.2804545   0.2804545  )
        12           C   tau(  12) = (   0.3450909   0.3450909   0.3450909  )
        13           C   tau(  13) = (   0.5659091   0.4132727   0.4132727  )
        14           C   tau(  14) = (   0.7058182   0.2739091   0.2739091  )
        15           C   tau(  15) = (   0.6411818   0.3382727   0.3383636  )
        16           C   tau(  16) = (   0.4132727   0.5659091   0.4132727  )
        17           C   tau(  17) = (   0.2739091   0.7059091   0.2739091  )
        18           C   tau(  18) = (   0.3382727   0.6411818   0.3383636  )
        19           C   tau(  19) = (   0.4132727   0.4131818   0.5660000  )
        20           C   tau(  20) = (   0.2739091   0.2739091   0.7058182  )
        21           C   tau(  21) = (   0.3382727   0.3382727   0.6411818  )
        22           C   tau(  22) = (   0.5662727   0.5662727   0.5662727  )
        23           C   tau(  23) = (   0.7058182   0.7059091   0.7059091  )
        24           C   tau(  24) = (   0.6413636   0.6414545   0.6413636  )
        25           C   tau(  25) = (   0.0607273   0.9184545   0.0607273  )
        26           C   tau(  26) = (   0.1989091   0.7808182   0.1989091  )
        27           C   tau(  27) = (   0.1341818   0.8452727   0.1341818  )
        28           C   tau(  28) = (   0.9183636   0.0606364   0.0607273  )
        29           C   tau(  29) = (   0.7808182   0.1988182   0.1989091  )
        30           C   tau(  30) = (   0.8452727   0.1340909   0.1341818  )
        31           C   tau(  31) = (   0.0607273   0.0606364   0.9184545  )
        32           C   tau(  32) = (   0.1988182   0.1988182   0.7808182  )
        33           C   tau(  33) = (   0.1341818   0.1340909   0.8452727  )
        34           C   tau(  34) = (   0.9189091   0.9189091   0.9188182  )
        35           C   tau(  35) = (   0.7809091   0.7809091   0.7809091  )
        36           C   tau(  36) = (   0.8455455   0.8455455   0.8454545  )
        37           C   tau(  37) = (   0.0662727   0.9132727   0.9132727  )
        38           C   tau(  38) = (   0.2053636   0.7735455   0.7734545  )
        39           C   tau(  39) = (   0.1410909   0.8380909   0.8380909  )
        40           C   tau(  40) = (   0.9131818   0.0661818   0.9132727  )
        41           C   tau(  41) = (   0.7734545   0.2053636   0.7734545  )
        42           C   tau(  42) = (   0.8380000   0.1410000   0.8380000  )
        43           C   tau(  43) = (   0.9132727   0.9133636   0.0662727  )
        44           C   tau(  44) = (   0.7734545   0.7735455   0.2053636  )
        45           C   tau(  45) = (   0.8380909   0.8380909   0.1410909  )
        46           C   tau(  46) = (   0.0660000   0.0659091   0.0659091  )
        47           C   tau(  47) = (   0.2054545   0.2053636   0.2054545  )
        48           C   tau(  48) = (   0.1410000   0.1409091   0.1409091  )
        49           O   tau(  49) = (   0.5743636   0.3950909   0.7297273  )
        50           O   tau(  50) = (   0.4970000   0.3396364   0.8274545  )
        51           H   tau(  51) = (   0.5505455   0.3076364   0.8922727  )

     number of k points=     1  Gaussian smearing, width (Ry)=  0.0001
                       cart. coord. in units 2pi/alat
        k(    1) = (   0.0000000   0.0000000   0.0000000), wk =   1.0000000

     Dense  grid:   607015 G-vectors     FFT dimensions: ( 135, 135, 135)

     Smooth grid:   214705 G-vectors     FFT dimensions: (  96,  96,  96)

     Estimated max dynamical RAM per process >     175.85 MB

     Estimated total dynamical RAM >       2.75 GB

     Check: negative core charge=   -0.000004
     Generating pointlists ...
     new r_m :   0.0461 (alat units)  0.9573 (a.u.) for type    1
     new r_m :   0.0371 (alat units)  0.7714 (a.u.) for type    2
     new r_m :   0.0371 (alat units)  0.7714 (a.u.) for type    3

     Initial potential from superposition of free atoms

     starting charge     204.9980, renormalised to     205.0000
     Starting wfcs are  201 randomized atomic wfcs
     Checking if some PAW data can be deallocated... 

     total cpu time spent up to now is        3.2 secs

     Self-consistent Calculation

     iteration #  1     ecut=    50.00 Ry     beta= 0.30
     Davidson diagonalization with overlap
     ethr =  1.00E-02,  avg # of iterations =  2.0

     total cpu time spent up to now is        5.7 secs

     total energy              =    -966.13290080 Ry
     estimated scf accuracy    <       5.40817454 Ry

     total magnetization       =     0.00 Bohr mag/cell
     absolute magnetization    =     0.07 Bohr mag/cell

     iteration #  2     ecut=    50.00 Ry     beta= 0.30
     Davidson diagonalization with overlap
     ethr =  2.64E-03,  avg # of iterations =  1.0

     negative rho (up, down):  1.790E-06 1.783E-06

     total cpu time spent up to now is        7.7 secs

     total energy              =    -965.18308675 Ry
     estimated scf accuracy    <       1.81980361 Ry

     total magnetization       =     0.00 Bohr mag/cell
     absolute magnetization    =     0.05 Bohr mag/cell

     iteration #  3     ecut=    50.00 Ry     beta= 0.30
     Davidson diagonalization with overlap
     ethr =  8.88E-04,  avg # of iterations =  2.0

     negative rho (up, down):  7.573E-07 7.530E-07

     total cpu time spent up to now is       10.1 secs

     total energy              =    -965.58639865 Ry
     estimated scf accuracy    <       0.15112071 Ry

     total magnetization       =    -0.00 Bohr mag/cell
     absolute magnetization    =     0.03 Bohr mag/cell

     iteration #  4     ecut=    50.00 Ry     beta= 0.30
     Davidson diagonalization with overlap
     ethr =  7.37E-05,  avg # of iterations = 13.0

     negative rho (up, down):  4.990E-07 4.949E-07

     total cpu time spent up to now is       12.7 secs

     total energy              =    -965.58145926 Ry
     estimated scf accuracy    <       0.06256873 Ry

     total magnetization       =     0.00 Bohr mag/cell
     absolute magnetization    =     0.02 Bohr mag/cell

     iteration #  5     ecut=    50.00 Ry     beta= 0.30
     Davidson diagonalization with overlap
     ethr =  3.05E-05,  avg # of iterations =  2.0

     negative rho (up, down):  8.522E-07 8.474E-07

     total cpu time spent up to now is       14.9 secs

     total energy              =    -965.58806946 Ry
     estimated scf accuracy    <       0.02352323 Ry

     total magnetization       =     0.00 Bohr mag/cell
     absolute magnetization    =     0.02 Bohr mag/cell

     iteration #  6     ecut=    50.00 Ry     beta= 0.30
     Davidson diagonalization with overlap
     ethr =  1.15E-05,  avg # of iterations =  2.0

     negative rho (up, down):  1.173E-06 1.169E-06

     total cpu time spent up to now is       17.2 secs

     total energy              =    -965.58583310 Ry
     estimated scf accuracy    <       0.01032628 Ry

     total magnetization       =    -0.00 Bohr mag/cell
     absolute magnetization    =     0.01 Bohr mag/cell

     iteration #  7     ecut=    50.00 Ry     beta= 0.30
     Davidson diagonalization with overlap
     ethr =  5.04E-06,  avg # of iterations =  2.0

     negative rho (up, down):  1.179E-06 1.177E-06

     total cpu time spent up to now is       19.6 secs

     total energy              =    -965.58803101 Ry
     estimated scf accuracy    <       0.00116186 Ry

     total magnetization       =    -0.00 Bohr mag/cell
     absolute magnetization    =     0.01 Bohr mag/cell

     iteration #  8     ecut=    50.00 Ry     beta= 0.30
     Davidson diagonalization with overlap
     ethr =  5.67E-07,  avg # of iterations =  2.0

     negative rho (up, down):  1.163E-06 1.161E-06

     total cpu time spent up to now is       21.8 secs

     total energy              =    -965.58805860 Ry
     estimated scf accuracy    <       0.00023170 Ry

     total magnetization       =    -0.00 Bohr mag/cell
     absolute magnetization    =     0.01 Bohr mag/cell

     iteration #  9     ecut=    50.00 Ry     beta= 0.30
     Davidson diagonalization with overlap
     ethr =  1.13E-07,  avg # of iterations =  4.0

     negative rho (up, down):  1.176E-06 1.176E-06

     total cpu time spent up to now is       24.3 secs

     total energy              =    -965.58809348 Ry
     estimated scf accuracy    <       0.00003823 Ry

     total magnetization       =     0.00 Bohr mag/cell
     absolute magnetization    =     0.01 Bohr mag/cell

     iteration # 10     ecut=    50.00 Ry     beta= 0.30
     Davidson diagonalization with overlap
     ethr =  1.87E-08,  avg # of iterations =  2.0

     negative rho (up, down):  1.175E-06 1.175E-06

     total cpu time spent up to now is       26.6 secs

     total energy              =    -965.58809887 Ry
     estimated scf accuracy    <       0.00000517 Ry

     total magnetization       =     0.00 Bohr mag/cell
     absolute magnetization    =     0.01 Bohr mag/cell

     iteration # 11     ecut=    50.00 Ry     beta= 0.30
     Davidson diagonalization with overlap
     ethr =  2.52E-09,  avg # of iterations =  4.0

     negative rho (up, down):  1.167E-06 1.167E-06

     Magnetic moment per site  (integrated on atomic sphere of radius R)
     atom   1 (R=0.046)  charge=  1.1338  magn= -0.0000
     atom   2 (R=0.046)  charge=  1.1863  magn= -0.0000
     atom   3 (R=0.046)  charge=  1.2380  magn= -0.0000
     atom   4 (R=0.046)  charge=  1.1275  magn=  0.0000
     atom   5 (R=0.046)  charge=  1.1714  magn=  0.0001
     atom   6 (R=0.046)  charge=  1.1951  magn= -0.0001
     atom   7 (R=0.046)  charge=  1.1278  magn= -0.0000
     atom   8 (R=0.046)  charge=  1.1716  magn= -0.0000
     atom   9 (R=0.046)  charge=  1.1953  magn=  0.0000
     atom  10 (R=0.046)  charge=  1.1277  magn=  0.0000
     atom  11 (R=0.046)  charge=  1.1720  magn=  0.0000
     atom  12 (R=0.046)  charge=  1.1946  magn= -0.0000
     atom  13 (R=0.046)  charge=  1.1231  magn=  0.0000
     atom  14 (R=0.046)  charge=  1.1728  magn= -0.0001
     atom  15 (R=0.046)  charge=  1.1836  magn=  0.0001
     atom  16 (R=0.046)  charge=  1.1186  magn= -0.0000
     atom  17 (R=0.046)  charge=  1.1718  magn= -0.0001
     atom  18 (R=0.046)  charge=  1.1837  magn=  0.0001
     atom  19 (R=0.046)  charge=  1.1177  magn=  0.0000
     atom  20 (R=0.046)  charge=  1.1725  magn=  0.0000
     atom  21 (R=0.046)  charge=  1.1857  magn= -0.0000
     atom  22 (R=0.046)  charge=  1.1167  magn=  0.0000
     atom  23 (R=0.046)  charge=  1.1708  magn= -0.0000
     atom  24 (R=0.046)  charge=  1.1835  magn=  0.0000
     atom  25 (R=0.046)  charge=  1.1277  magn=  0.0000
     atom  26 (R=0.046)  charge=  1.1724  magn=  0.0000
     atom  27 (R=0.046)  charge=  1.1963  magn= -0.0000
     atom  28 (R=0.046)  charge=  1.1290  magn=  0.0000
     atom  29 (R=0.046)  charge=  1.1723  magn=  0.0000
     atom  30 (R=0.046)  charge=  1.1966  magn= -0.0000
     atom  31 (R=0.046)  charge=  1.1280  magn= -0.0000
     atom  32 (R=0.046)  charge=  1.1720  magn=  0.0000
     atom  33 (R=0.046)  charge=  1.1971  magn= -0.0000
     atom  34 (R=0.046)  charge=  1.1282  magn= -0.0000
     atom  35 (R=0.046)  charge=  1.1713  magn= -0.0000
     atom  36 (R=0.046)  charge=  1.1963  magn=  0.0000
     atom  37 (R=0.046)  charge=  1.1190  magn=  0.0000
     atom  38 (R=0.046)  charge=  1.1706  magn= -0.0000
     atom  39 (R=0.046)  charge=  1.1851  magn=  0.0000
     atom  40 (R=0.046)  charge=  1.1173  magn= -0.0000
     atom  41 (R=0.046)  charge=  1.1691  magn=  0.0000
     atom  42 (R=0.046)  charge=  1.1863  magn= -0.0000
     atom  43 (R=0.046)  charge=  1.1189  magn= -0.0000
     atom  44 (R=0.046)  charge=  1.1707  magn=  0.0000
     atom  45 (R=0.046)  charge=  1.1849  magn=  0.0000
     atom  46 (R=0.046)  charge=  1.1193  magn= -0.0000
     atom  47 (R=0.046)  charge=  1.1713  magn= -0.0000
     atom  48 (R=0.046)  charge=  1.1855  magn=  0.0000
     atom  49 (R=0.037)  charge=  1.9907  magn=  0.0000
     atom  50 (R=0.037)  charge=  1.9628  magn= -0.0001
     atom  51 (R=0.037)  charge=  0.4034  magn=  0.0000

     total cpu time spent up to now is       28.8 secs

     End of self-consistent calculation

 ------ SPIN UP ------------


          k = 0.0000 0.0000 0.0000 ( 26858 PWs)   bands (ev):

   -25.5233 -21.7133 -21.4380 -21.1471 -17.4875 -17.4735 -17.4104 -17.3217
   -17.3099 -17.1869 -16.7106 -16.6872 -16.6352 -16.5561 -16.5253 -16.0837
   -15.9328 -15.9028 -15.8257 -15.7949 -15.7383 -15.5612 -15.4660 -14.8301
   -14.5394 -14.5140 -14.1788 -14.0095 -13.9872 -13.4956 -13.1595 -12.9792
   -12.8174 -12.7939 -12.2538 -11.9840 -11.7558 -11.7290 -11.6110 -11.0224
   -10.8194 -10.7364 -10.6924 -10.5255 -10.2212  -9.9282  -9.8738  -9.8521
    -9.5811  -9.4629  -9.3797  -9.3775  -9.3692  -9.3541  -9.3339  -8.3106
    -7.4346  -6.8270  -6.7474  -6.7244  -6.5253  -6.4692  -6.3795  -6.2529
    -6.1405  -6.0610  -5.9110  -5.8353  -5.7732  -5.5929  -5.4431  -5.3859
    -5.3442  -5.3157  -5.2759  -5.2377  -5.1769  -5.0993  -4.8593  -4.7239
    -4.6417  -4.5640  -4.4397  -4.2468  -4.1743  -4.0394  -3.9254  -3.7408
    -3.6411  -3.6206  -3.4556  -3.3604  -3.3369  -3.2013  -3.0294  -2.9254
    -2.8935  -2.8403  -2.7119  -2.1065  -1.9908  -1.9440  -0.6719  -0.3037
    -0.1264   0.0143   0.3307   0.6922   0.7383   0.9657   1.3015   1.3252
     1.3676   1.4482   1.6426   1.7665   2.2948   2.3272   2.3670   2.4937
     2.6216   2.6836   2.6943

 ------ SPIN DOWN ----------


          k = 0.0000 0.0000 0.0000 ( 26858 PWs)   bands (ev):

   -25.5232 -21.7135 -21.4380 -21.1472 -17.4875 -17.4735 -17.4104 -17.3217
   -17.3099 -17.1868 -16.7106 -16.6872 -16.6352 -16.5561 -16.5252 -16.0838
   -15.9329 -15.9028 -15.8257 -15.7949 -15.7383 -15.5612 -15.4660 -14.8301
   -14.5394 -14.5140 -14.1789 -14.0095 -13.9871 -13.4956 -13.1594 -12.9792
   -12.8174 -12.7939 -12.2538 -11.9840 -11.7558 -11.7290 -11.6110 -11.0224
   -10.8194 -10.7364 -10.6924 -10.5255 -10.2212  -9.9282  -9.8738  -9.8521
    -9.5812  -9.4628  -9.3797  -9.3775  -9.3692  -9.3541  -9.3339  -8.3105
    -7.4348  -6.8270  -6.7474  -6.7244  -6.5253  -6.4692  -6.3795  -6.2529
    -6.1405  -6.0610  -5.9109  -5.8353  -5.7731  -5.5928  -5.4431  -5.3859
    -5.3442  -5.3157  -5.2760  -5.2377  -5.1769  -5.0993  -4.8593  -4.7239
    -4.6417  -4.5640  -4.4397  -4.2468  -4.1742  -4.0394  -3.9254  -3.7408
    -3.6411  -3.6206  -3.4556  -3.3603  -3.3369  -3.2013  -3.0294  -2.9254
    -2.8936  -2.8403  -2.7120  -2.1065  -1.9908  -1.9440  -0.6720  -0.3038
    -0.1264   0.0143   0.3306   0.6922   0.7383   0.9657   1.3015   1.3252
     1.3676   1.4482   1.6425   1.7665   2.2948   2.3272   2.3670   2.4937
     2.6215   2.6836   2.6943

     the spin up/dw Fermi energies are    -0.6719   -0.6720 ev

!    total energy              =    -965.58809952 Ry
     estimated scf accuracy    <       0.00000088 Ry
     smearing contrib. (-TS)   =      -0.00005642 Ry
     internal energy E=F+TS    =    -965.58804310 Ry

     The total energy is F=E-TS. E is the sum of the following terms:
     one-electron contribution =   -1346.20920481 Ry
     hartree contribution      =     722.32570443 Ry
     xc contribution           =    -233.79093914 Ry
     ewald contribution        =     207.20177768 Ry
     one-center paw contrib.   =    -315.11538126 Ry

     total magnetization       =     0.00 Bohr mag/cell
     absolute magnetization    =     0.00 Bohr mag/cell

     convergence has been achieved in  11 iterations

     negative rho (up, down):  1.167E-06 1.167E-06

     Forces acting on atoms (cartesian axes, Ry/au):

     atom    1 type  1   force =     0.00388222   -0.00541626   -0.17175270
     atom    2 type  1   force =     0.33763736   -0.31647663    0.11808519
     atom    3 type  1   force =    -0.08014765   -0.00746035   -0.03189685
     atom    4 type  1   force =    -0.01619003    0.01315555    0.01866312
     atom    5 type  1   force =    -0.04655259    0.04650397    0.04608831
     atom    6 type  1   force =    -0.04007442    0.04007600    0.04094692
     atom    7 type  1   force =     0.01586737    0.01530554   -0.02236156
     atom    8 type  1   force =     0.04654716    0.04654392   -0.04685864
     atom    9 type  1   force =     0.04013575    0.04132601   -0.04022651
     atom   10 type  1   force =    -0.01265608   -0.01513847   -0.01846887
     atom   11 type  1   force =    -0.04633542   -0.04670855   -0.04657337
     atom   12 type  1   force =    -0.03955207   -0.03964725   -0.03945832
     atom   13 type  1   force =    -0.05234481    0.06125407    0.03738470
     atom   14 type  1   force =     0.05331082   -0.05372244   -0.05372526
     atom   15 type  1   force =    -0.00929595    0.00959991    0.00698512
     atom   16 type  1   force =     0.05358381   -0.05171248    0.05234072
     atom   17 type  1   force =    -0.04792734    0.04744165   -0.04777692
     atom   18 type  1   force =     0.00311603   -0.00266691    0.00273935
     atom   19 type  1   force =     0.05842932    0.04523519   -0.05358527
     atom   20 type  1   force =    -0.05824459   -0.05109499    0.04403526
     atom   21 type  1   force =    -0.00688415    0.00203138   -0.01213339
     atom   22 type  1   force =    -0.04845922   -0.05076761   -0.05264339
     atom   23 type  1   force =     0.05011033    0.05009964    0.04902620
     atom   24 type  1   force =    -0.00497368   -0.00380944   -0.00568647
     atom   25 type  1   force =     0.01756870   -0.01416154    0.01911264
     atom   26 type  1   force =     0.04506440   -0.04505168    0.04505811
     atom   27 type  1   force =     0.04003999   -0.03978313    0.03998773
     atom   28 type  1   force =    -0.01343643    0.01658192    0.03385777
     atom   29 type  1   force =    -0.04929297    0.04950020    0.04828485
     atom   30 type  1   force =    -0.03483411    0.03460844    0.03859641
     atom   31 type  1   force =     0.02524343    0.02067197   -0.01581000
     atom   32 type  1   force =     0.05044902    0.05055126   -0.05007314
     atom   33 type  1   force =     0.03704913    0.03550756   -0.03594833
     atom   34 type  1   force =    -0.02296353   -0.02054013   -0.01958820
     atom   35 type  1   force =    -0.04788581   -0.04786561   -0.04760464
     atom   36 type  1   force =    -0.03837166   -0.03775796   -0.03832345
     atom   37 type  1   force =    -0.05410668    0.05472432    0.05174553
     atom   38 type  1   force =     0.05058988   -0.05002442   -0.04984743
     atom   39 type  1   force =    -0.00514565    0.00482897    0.00438374
     atom   40 type  1   force =     0.03566327   -0.03944923    0.02696693
     atom   41 type  1   force =    -0.11676910    0.12377207   -0.13412112
     atom   42 type  1   force =     0.04984514   -0.05364308    0.05197107
     atom   43 type  1   force =     0.05190538    0.05255968   -0.05333553
     atom   44 type  1   force =    -0.04971348   -0.04995183    0.05045964
     atom   45 type  1   force =     0.00506382    0.00519311   -0.00525464
     atom   46 type  1   force =    -0.05349799   -0.05322604   -0.05157274
     atom   47 type  1   force =     0.05022398    0.05040690    0.05010640
     atom   48 type  1   force =    -0.00412686   -0.00429463   -0.00397200
     atom   49 type  2   force =    -0.12650256    0.20731885    0.29188281
     atom   50 type  2   force =    -0.01552478   -0.03739312    0.00120057
     atom   51 type  3   force =     0.02048327    0.01296571   -0.02131036

     Total force =     0.817651     Total SCF correction =     0.001595

     BFGS Geometry Optimization
     Energy error            =      0.0E+00 Ry
     Gradient error          =      3.4E-01 Ry/Bohr

     number of scf cycles    =   1
     number of bfgs steps    =   0

     energy             new  =    -965.5880995152 Ry

     new trust radius        =       0.4775987428 bohr
     new conv_thr            =       0.0000010000 Ry


ATOMIC_POSITIONS (angstrom)
C             6.1700543837        4.6051338392        6.0781123840
C             7.8626699957        2.9185277772        7.7464879936
C             6.9315876879        3.7950521546        6.9571209119
C             4.5994326067        6.1759616158        6.1788760964
C             3.0613654289        7.7086088391        7.7083888848
C             3.7777935310        6.9952073036        6.9956681783
C             6.1773966503        6.1770993442        4.5961667735
C             7.7086316947        7.7086299838        3.0612034750
C             6.9952389268        6.9958687802        3.7777130459
C             4.5963026932        4.5949890647        4.5932266960
C             3.0604803516        3.0602828972        3.0603544316
C             3.7750699481        3.7750195791        3.7751195547
C             6.1973003220        4.5784142563        4.5657831320
C             7.7922108707        2.9845713093        2.9845698183
C             7.0480807930        3.7260800550        3.7256963638
C             4.5743553309        6.1976349348        4.5736975156
C             2.9876379429        7.7901050387        2.9877175445
C             3.7226489334        7.0515887314        3.7234496018
C             4.5769194630        4.5689374337        6.1976438953
C             2.9821782879        2.9859616980        7.7873024558
C             3.7173570658        3.7220749610        7.0465792884
C             6.2033564863        6.2021349401        6.2011423202
C             7.7905172434        7.7915115886        7.7909435477
C             7.0523680418        7.0539841296        7.0519908491
C             0.6772969576       10.0955060369        0.6781139762
C             2.2118470554        8.5651596761        2.2118437266
C             1.4971882515        9.2769476768        1.4971605977
C            10.0948897475        0.6757747760        0.6859167585
C             8.5629152835        2.2131943803        2.2135512411
C             9.2795665819        1.4933139985        1.4964243413
C             0.6813582485        0.6779391370       10.0946337096
C             2.2136964733        2.2137505729        8.5625024348
C             1.4956055552        1.4937897897        9.2789769627
C            10.0958482255       10.0971306289       10.0966343730
C             8.5646599204        8.5646706077        8.5648087106
C             9.2806945919        9.2810193478        9.2797201032
C             0.7003679785       10.0749588633       10.0733825551
C             2.2857710139        8.4825282154        8.4816218772
C             1.5492770388        9.2215553805        9.2213197751
C            10.0638721907        0.7071243662       10.0602702837
C             8.4462084559        2.3244973572        8.4370261623
C             9.2443769135        1.5226133068        9.2455019033
C            10.0734671436       10.0748133849        0.7007760525
C             8.4816927589        8.4825666288        2.2857020896
C             9.2216796561        9.2217480743        1.5492193643
C             0.6976900838        0.6968339945        0.6977088833
C             2.2865773861        2.2856741814        2.2865151625
C             1.5488161584        1.5477273811        1.5478981056
O             6.2510577282        4.4557084082        8.1814577329
O             5.4587846427        3.7162124144        9.1026353141
H             6.0668392792        3.3908611591        9.8037230450



     Writing config-only to output data dir ./pwscf.save/
     NEW-OLD atomic charge density approx. for the potential

     Check: negative core charge=   -0.000004

     negative rho (up, down):  1.318E-06 1.315E-06
     Generating pointlists ...
     new r_m :   0.0406 (alat units)  0.8433 (a.u.) for type    1

     total cpu time spent up to now is       33.4 secs

     Self-consistent Calculation

     iteration #  1     ecut=    50.00 Ry     beta= 0.30
     Davidson diagonalization with overlap
     ethr =  1.00E-06,  avg # of iterations = 14.0

     negative rho (up, down):  1.254E-06 1.253E-06

     total cpu time spent up to now is       39.1 secs

     total energy              =    -965.44697533 Ry
     estimated scf accuracy    <       0.78680580 Ry

     total magnetization       =    -0.00 Bohr mag/cell
     absolute magnetization    =     0.00 Bohr mag/cell

     iteration #  2     ecut=    50.00 Ry     beta= 0.30
     Davidson diagonalization with overlap
     ethr =  3.84E-04,  avg # of iterations =  3.0

     negative rho (up, down):  1.291E-06 1.291E-06

     total cpu time spent up to now is       41.0 secs

     total energy              =    -965.54416897 Ry
     estimated scf accuracy    <       0.13342806 Ry

     total magnetization       =     0.00 Bohr mag/cell
     absolute magnetization    =     0.00 Bohr mag/cell

     iteration #  3     ecut=    50.00 Ry     beta= 0.30
     Davidson diagonalization with overlap
     ethr =  6.51E-05,  avg # of iterations =  2.0

     negative rho (up, down):  1.332E-06 1.332E-06

     total cpu time spent up to now is       42.8 secs

     total energy              =    -965.54060749 Ry
     estimated scf accuracy    <       0.06200534 Ry

     total magnetization       =    -0.00 Bohr mag/cell
     absolute magnetization    =     0.00 Bohr mag/cell

     iteration #  4     ecut=    50.00 Ry     beta= 0.30
     Davidson diagonalization with overlap
     ethr =  3.02E-05,  avg # of iterations =  2.0

     negative rho (up, down):  1.315E-06 1.315E-06

     total cpu time spent up to now is       44.6 secs

     total energy              =    -965.53636021 Ry
     estimated scf accuracy    <       0.10753993 Ry

     total magnetization       =     0.00 Bohr mag/cell
     absolute magnetization    =     0.00 Bohr mag/cell

     iteration #  5     ecut=    50.00 Ry     beta= 0.30
     Davidson diagonalization with overlap
     ethr =  3.02E-05,  avg # of iterations =  2.0

     negative rho (up, down):  1.337E-06 1.337E-06

     total cpu time spent up to now is       46.5 secs

     total energy              =    -965.54218363 Ry
     estimated scf accuracy    <       0.00587407 Ry

     total magnetization       =     0.00 Bohr mag/cell
     absolute magnetization    =     0.00 Bohr mag/cell

     iteration #  6     ecut=    50.00 Ry     beta= 0.30
     Davidson diagonalization with overlap
     ethr =  2.87E-06,  avg # of iterations =  6.0

     negative rho (up, down):  1.322E-06 1.322E-06

     total cpu time spent up to now is       48.6 secs

     total energy              =    -965.54271441 Ry
     estimated scf accuracy    <       0.00103660 Ry

     total magnetization       =    -0.00 Bohr mag/cell
     absolute magnetization    =     0.00 Bohr mag/cell

     iteration #  7     ecut=    50.00 Ry     beta= 0.30
     Davidson diagonalization with overlap
     ethr =  5.06E-07,  avg # of iterations =  2.0

     negative rho (up, down):  1.325E-06 1.325E-06

     total cpu time spent up to now is       50.5 secs

     total energy              =    -965.54272199 Ry
     estimated scf accuracy    <       0.00036830 Ry

     total magnetization       =    -0.00 Bohr mag/cell
     absolute magnetization    =     0.00 Bohr mag/cell

     iteration #  8     ecut=    50.00 Ry     beta= 0.30
     Davidson diagonalization with overlap
     ethr =  1.80E-07,  avg # of iterations =  2.0

     negative rho (up, down):  1.330E-06 1.330E-06

     total cpu time spent up to now is       52.3 secs

     total energy              =    -965.54271672 Ry
     estimated scf accuracy    <       0.00008057 Ry

     total magnetization       =    -0.00 Bohr mag/cell
     absolute magnetization    =     0.00 Bohr mag/cell

     iteration #  9     ecut=    50.00 Ry     beta= 0.30
     Davidson diagonalization with overlap
     ethr =  3.93E-08,  avg # of iterations =  4.0

     negative rho (up, down):  1.327E-06 1.327E-06

     total cpu time spent up to now is       54.3 secs

     total energy              =    -965.54272115 Ry
     estimated scf accuracy    <       0.00001600 Ry

     total magnetization       =     0.00 Bohr mag/cell
     absolute magnetization    =     0.00 Bohr mag/cell

     iteration # 10     ecut=    50.00 Ry     beta= 0.30
     Davidson diagonalization with overlap
     ethr =  7.81E-09,  avg # of iterations =  3.0

     negative rho (up, down):  1.324E-06 1.324E-06

     total cpu time spent up to now is       56.2 secs

     total energy              =    -965.54272279 Ry
     estimated scf accuracy    <       0.00000374 Ry

     total magnetization       =     0.00 Bohr mag/cell
     absolute magnetization    =     0.00 Bohr mag/cell

     iteration # 11     ecut=    50.00 Ry     beta= 0.30
     Davidson diagonalization with overlap
     ethr =  1.82E-09,  avg # of iterations =  2.0

     negative rho (up, down):  1.323E-06 1.323E-06

     Magnetic moment per site  (integrated on atomic sphere of radius R)
     atom   1 (R=0.041)  charge=  0.8160  magn= -0.0000
     atom   2 (R=0.041)  charge=  0.9128  magn= -0.0000
     atom   3 (R=0.041)  charge=  0.7763  magn=  0.0000
     atom   4 (R=0.041)  charge=  0.8029  magn=  0.0000
     atom   5 (R=0.041)  charge=  0.8489  magn=  0.0000
     atom   6 (R=0.041)  charge=  0.8432  magn= -0.0000
     atom   7 (R=0.041)  charge=  0.8052  magn=  0.0000
     atom   8 (R=0.041)  charge=  0.8489  magn= -0.0000
     atom   9 (R=0.041)  charge=  0.8440  magn=  0.0000
     atom  10 (R=0.041)  charge=  0.8025  magn=  0.0000
     atom  11 (R=0.041)  charge=  0.8481  magn=  0.0000
     atom  12 (R=0.041)  charge=  0.8422  magn= -0.0000
     atom  13 (R=0.041)  charge=  0.8078  magn= -0.0000
     atom  14 (R=0.041)  charge=  0.8305  magn= -0.0000
     atom  15 (R=0.041)  charge=  0.8122  magn=  0.0000
     atom  16 (R=0.041)  charge=  0.7919  magn= -0.0000
     atom  17 (R=0.041)  charge=  0.8325  magn= -0.0000
     atom  18 (R=0.041)  charge=  0.8141  magn=  0.0000
     atom  19 (R=0.041)  charge=  0.7928  magn=  0.0000
     atom  20 (R=0.041)  charge=  0.8333  magn=  0.0000
     atom  21 (R=0.041)  charge=  0.8126  magn= -0.0000
     atom  22 (R=0.041)  charge=  0.7929  magn=  0.0000
     atom  23 (R=0.041)  charge=  0.8317  magn= -0.0000
     atom  24 (R=0.041)  charge=  0.8103  magn=  0.0000
     atom  25 (R=0.041)  charge=  0.8032  magn=  0.0000
     atom  26 (R=0.041)  charge=  0.8501  magn=  0.0000
     atom  27 (R=0.041)  charge=  0.8434  magn= -0.0000
     atom  28 (R=0.041)  charge=  0.8039  magn=  0.0000
     atom  29 (R=0.041)  charge=  0.8495  magn=  0.0000
     atom  30 (R=0.041)  charge=  0.8422  magn= -0.0000
     atom  31 (R=0.041)  charge=  0.8032  magn= -0.0000
     atom  32 (R=0.041)  charge=  0.8480  magn= -0.0000
     atom  33 (R=0.041)  charge=  0.8423  magn=  0.0000
     atom  34 (R=0.041)  charge=  0.8026  magn= -0.0000
     atom  35 (R=0.041)  charge=  0.8493  magn= -0.0000
     atom  36 (R=0.041)  charge=  0.8421  magn=  0.0000
     atom  37 (R=0.041)  charge=  0.7901  magn= -0.0000
     atom  38 (R=0.041)  charge=  0.8321  magn= -0.0000
     atom  39 (R=0.041)  charge=  0.8129  magn=  0.0000
     atom  40 (R=0.041)  charge=  0.7945  magn=  0.0000
     atom  41 (R=0.041)  charge=  0.9242  magn=  0.0000
     atom  42 (R=0.041)  charge=  0.7950  magn= -0.0000
     atom  43 (R=0.041)  charge=  0.7906  magn= -0.0000
     atom  44 (R=0.041)  charge=  0.8324  magn=  0.0000
     atom  45 (R=0.041)  charge=  0.8128  magn= -0.0000
     atom  46 (R=0.041)  charge=  0.7898  magn= -0.0000
     atom  47 (R=0.041)  charge=  0.8329  magn= -0.0000
     atom  48 (R=0.041)  charge=  0.8145  magn=  0.0000
     atom  49 (R=0.037)  charge=  1.9594  magn=  0.0000
     atom  50 (R=0.037)  charge=  1.9702  magn= -0.0000
     atom  51 (R=0.037)  charge=  0.4117  magn=  0.0000

     total cpu time spent up to now is       58.1 secs

     End of self-consistent calculation

 ------ SPIN UP ------------


          k = 0.0000 0.0000 0.0000 ( 26858 PWs)   bands (ev):

   -24.8485 -22.0537 -21.7669 -19.5841 -17.5813 -17.5189 -17.5032 -17.3938
   -17.3346 -17.2549 -17.0556 -16.8309 -16.7766 -16.7574 -16.7078 -16.3397
   -16.1532 -16.1162 -15.6869 -15.6408 -15.5802 -15.3921 -15.1339 -14.4636
   -14.4432 -14.4195 -14.1612 -14.1067 -14.0767 -13.7630 -13.2258 -12.6683
   -12.6075 -12.4640 -12.3233 -12.1807 -12.1402 -12.0402 -11.2430 -11.0844
   -11.0585 -10.9884 -10.6928 -10.3314 -10.2234  -9.8910  -9.8643  -9.8099
    -9.6790  -9.5475  -9.5447  -9.4615  -9.4032  -9.3685  -9.3000  -7.8192
    -7.1950  -6.8405  -6.7980  -6.7296  -6.5108  -6.4166  -6.4019  -6.2254
    -6.2117  -6.1411  -5.9429  -5.8475  -5.8053  -5.7719  -5.5751  -5.5321
    -5.5226  -5.4626  -5.4453  -5.4052  -5.3763  -5.3428  -5.3014  -4.9610
    -4.9196  -4.8096  -4.5972  -4.5433  -4.4566  -3.6816  -3.6184  -3.4828
    -3.3966  -3.3077  -3.2144  -3.1492  -3.0984  -2.9803  -2.8894  -2.8325
    -2.7858  -2.6800  -2.4242  -2.1438  -1.8851  -1.5890  -1.1284  -0.8500
    -0.3183  -0.0391   0.1496   0.5130   0.6972   0.8012   1.0290   1.0824
     1.1055   1.2181   1.2621   1.7169   2.0724   2.2176   2.2462   2.4862
     2.5786   2.6482   2.8540

 ------ SPIN DOWN ----------


          k = 0.0000 0.0000 0.0000 ( 26858 PWs)   bands (ev):

   -24.8485 -22.0537 -21.7669 -19.5841 -17.5813 -17.5189 -17.5032 -17.3938
   -17.3346 -17.2549 -17.0556 -16.8309 -16.7766 -16.7574 -16.7078 -16.3397
   -16.1532 -16.1162 -15.6869 -15.6408 -15.5802 -15.3921 -15.1339 -14.4636
   -14.4432 -14.4195 -14.1611 -14.1067 -14.0767 -13.7630 -13.2258 -12.6683
   -12.6075 -12.4640 -12.3233 -12.1807 -12.1402 -12.0402 -11.2430 -11.0844
   -11.0585 -10.9884 -10.6928 -10.3314 -10.2235  -9.8910  -9.8643  -9.8099
    -9.6790  -9.5475  -9.5447  -9.4615  -9.4032  -9.3685  -9.3000  -7.8192
    -7.1950  -6.8405  -6.7980  -6.7296  -6.5108  -6.4166  -6.4019  -6.2254
    -6.2117  -6.1411  -5.9429  -5.8475  -5.8053  -5.7719  -5.5751  -5.5321
    -5.5226  -5.4626  -5.4453  -5.4052  -5.3763  -5.3428  -5.3014  -4.9610
    -4.9196  -4.8096  -4.5972  -4.5433  -4.4566  -3.6816  -3.6184  -3.4828
    -3.3966  -3.3077  -3.2144  -3.1492  -3.0984  -2.9803  -2.8894  -2.8325
    -2.7858  -2.6800  -2.4242  -2.1438  -1.8851  -1.5890  -1.1284  -0.8500
    -0.3183  -0.0391   0.1496   0.5130   0.6972   0.8012   1.0290   1.0824
     1.1055   1.2181   1.2621   1.7169   2.0724   2.2176   2.2462   2.4862
     2.5786   2.6482   2.8540

     the spin up/dw Fermi energies are    -1.1284   -1.1284 ev

!    total energy              =    -965.54272328 Ry
     estimated scf accuracy    <       0.00000072 Ry
     smearing contrib. (-TS)   =      -0.00005642 Ry
     internal energy E=F+TS    =    -965.54266686 Ry

     The total energy is F=E-TS. E is the sum of the following terms:
     one-electron contribution =   -1333.20718244 Ry
     hartree contribution      =     715.71442858 Ry
     xc contribution           =    -233.57842377 Ry
     ewald contribution        =     200.63492872 Ry
     one-center paw contrib.   =    -315.10641795 Ry

     total magnetization       =     0.00 Bohr mag/cell
     absolute magnetization    =     0.00 Bohr mag/cell

     convergence has been achieved in  11 iterations

     negative rho (up, down):  1.323E-06 1.323E-06

     Forces acting on atoms (cartesian axes, Ry/au):

     atom    1 type  1   force =     0.03645504   -0.05019047    0.01617736
     atom    2 type  1   force =    -0.61383077    0.62049912   -0.76997758
     atom    3 type  1   force =     0.08657621   -0.12579047    0.29816000
     atom    4 type  1   force =    -0.01701409    0.01618971    0.02367472
     atom    5 type  1   force =     0.03001276   -0.03004120   -0.02997876
     atom    6 type  1   force =    -0.01890869    0.01857327    0.01963011
     atom    7 type  1   force =     0.01725658    0.03490777   -0.03478915
     atom    8 type  1   force =    -0.02989954   -0.02993585    0.03011388
     atom    9 type  1   force =     0.01947917    0.02151805   -0.02198367
     atom   10 type  1   force =    -0.03420484   -0.01777404   -0.03465793
     atom   11 type  1   force =     0.03175943    0.03138127    0.03162456
     atom   12 type  1   force =    -0.02010078   -0.01893961   -0.02187941
     atom   13 type  1   force =     0.00796005   -0.00490546   -0.06033448
     atom   14 type  1   force =    -0.11794844    0.11718666    0.11567308
     atom   15 type  1   force =     0.06404771   -0.06204758   -0.06508493
     atom   16 type  1   force =    -0.01357427    0.01501641   -0.01403666
     atom   17 type  1   force =     0.09854122   -0.09939232    0.09868838
     atom   18 type  1   force =    -0.04549649    0.04611635   -0.04605959
     atom   19 type  1   force =    -0.01960749   -0.00585013   -0.00364312
     atom   20 type  1   force =     0.09867104    0.10560863   -0.11263377
     atom   21 type  1   force =    -0.05022920   -0.05275782    0.04047401
     atom   22 type  1   force =     0.00632549    0.02470042   -0.00170222
     atom   23 type  1   force =    -0.10534218   -0.10529603   -0.10655532
     atom   24 type  1   force =     0.05227176    0.04655753    0.04909818
     atom   25 type  1   force =     0.01629509   -0.01568732    0.02022392
     atom   26 type  1   force =    -0.02713988    0.02710837   -0.02712875
     atom   27 type  1   force =     0.01917622   -0.01882262    0.01937987
     atom   28 type  1   force =    -0.00929298    0.01005229    0.04382050
     atom   29 type  1   force =     0.04076239   -0.04102628   -0.04281238
     atom   30 type  1   force =    -0.02508352    0.02567693    0.03398466
     atom   31 type  1   force =     0.02583470    0.01819988   -0.01232517
     atom   32 type  1   force =    -0.04278123   -0.04094319    0.04183951
     atom   33 type  1   force =     0.03351528    0.03155177   -0.03188717
     atom   34 type  1   force =    -0.01837359   -0.02388683   -0.01404376
     atom   35 type  1   force =     0.03371200    0.03447656    0.03472023
     atom   36 type  1   force =    -0.02733984   -0.02634802   -0.02688904
     atom   37 type  1   force =     0.00909040   -0.00920193   -0.01638667
     atom   38 type  1   force =    -0.10480031    0.10542921    0.10516651
     atom   39 type  1   force =     0.04944387   -0.04968584   -0.05091693
     atom   40 type  1   force =    -0.01819434    0.01656187   -0.03509220
     atom   41 type  1   force =     0.61459296   -0.62312987    0.68884217
     atom   42 type  1   force =    -0.06649699    0.06362405   -0.07071049
     atom   43 type  1   force =    -0.01360059   -0.01191060    0.01133841
     atom   44 type  1   force =     0.10635199    0.10628225   -0.10515689
     atom   45 type  1   force =    -0.05174158   -0.05123710    0.05105579
     atom   46 type  1   force =     0.01186336    0.01422188    0.01450848
     atom   47 type  1   force =    -0.10464461   -0.10460676   -0.10454867
     atom   48 type  1   force =     0.05020665    0.05058406    0.05079677
     atom   49 type  2   force =     0.03059846    0.04517356    0.01782952
     atom   50 type  2   force =    -0.00926379   -0.03630374    0.01276834
     atom   51 type  3   force =     0.01411022    0.00851323   -0.00837423

     Total force =     1.755197     Total SCF correction =     0.000926
     Energy error            =      4.5E-02 Ry
     Gradient error          =      7.7E-01 Ry/Bohr

     number of scf cycles    =   2
     number of bfgs steps    =   1

     energy             old  =    -965.5880995152 Ry
     energy             new  =    -965.5427232805 Ry

     CASE: energy            _new > energy            _old

     new trust radius        =       0.2236216437 bohr
     new conv_thr            =       0.0000010000 Ry


ATOMIC_POSITIONS (angstrom)
C             6.1689619051        4.6066580040        6.1264445319
C             7.7676570002        3.0075860295        7.7132581755
C             6.9541416752        3.7971515368        6.9660968606
C             4.6039885686        6.1722595730        6.1736241933
C             3.0744655825        7.6955223692        7.6954193821
C             3.7890706911        6.9839296997        6.9841454908
C             6.1729314859        6.1727922811        4.6024594378
C             7.6955330707        7.6955322696        3.0743897524
C             6.9839445063        6.9842394167        3.7890330063
C             4.5998641820        4.5992491138        4.5984239362
C             3.0735193917        3.0734269395        3.0734604334
C             3.7862001153        3.7861765315        3.7862233421
C             6.2120304359        4.5611770276        4.5552628730
C             7.7772089152        2.9996890970        2.9996883989
C             7.0506967252        3.7233785872        3.7237307143
C             4.5592765544        6.2121871085        4.5589685517
C             3.0011249585        7.7767547002        3.0011622296
C             3.7217720648        7.0523392148        3.7226787336
C             4.5604771343        4.5562080033        6.2127230833
C             2.9985686347        3.0003401058        7.7749106934
C             3.7192943026        3.7215033191        7.0499936895
C             6.2169931747        6.2164212214        6.2159564562
C             7.7764159237        7.7774132760        7.7771473075
C             7.0537676625        7.0550561277        7.0535910531
C             0.6723530285       10.0994911709        0.6727355735
C             2.1991656863        8.5778374655        2.1991641276
C             1.4859207791        9.2881428653        1.4859078310
C            10.0986708322        0.6711085322        0.6763889982
C             8.5767865944        2.1992647525        2.1999636214
C             9.2893690911        1.4835749942        1.4855631005
C             0.6742546092        0.6721219310       10.0990827292
C             2.1994998429        2.1995251734        8.5765932900
C             1.4851797278        1.4837977695        9.2890930191
C            10.1023102870       10.1029107349       10.1021465983
C             8.5781352488        8.5781402528        8.5782049155
C             9.2914925865        9.2916446439        9.2905045314
C             0.7155938933       10.0595591408       10.0588210806
C             2.2715347443        8.4966053610        8.4956492155
C             1.5507250530        9.2201964822        9.2200861669
C            10.0538363514        0.7182255950       10.0526816430
C             8.4790679166        2.2896672220        8.4747685762
C             9.2303502183        1.5377087611        9.2308769619
C            10.0588606867       10.0600228041        0.7157849620
C             8.4956824037        8.4966233470        2.2715024725
C             9.2202546706        9.2202867054        1.5506980486
C             0.7127447097        0.7118120916        0.7122217327
C             2.2724440838        2.2714894053        2.2724149494
C             1.5499774801        1.5489359127        1.5490158494
O             6.2866562390        4.3973677537        8.0993203163
O             5.4631533992        3.7267350417        9.1022974673
H             6.0610751755        3.3872125371        9.8097198956



     Writing config-only to output data dir ./pwscf.save/
     NEW-OLD atomic charge density approx. for the potential

     Check: negative core charge=   -0.000004

     negative rho (up, down):  1.272E-06 1.272E-06
     Generating pointlists ...

     total cpu time spent up to now is       62.6 secs

     Self-consistent Calculation

     iteration #  1     ecut=    50.00 Ry     beta= 0.30
     Davidson diagonalization with overlap
     ethr =  1.00E-06,  avg # of iterations = 15.0

     negative rho (up, down):  1.235E-06 1.235E-06

     total cpu time spent up to now is       68.5 secs

     total energy              =    -965.71434845 Ry
     estimated scf accuracy    <       0.24747061 Ry

     total magnetization       =    -0.00 Bohr mag/cell
     absolute magnetization    =     0.00 Bohr mag/cell

     iteration #  2     ecut=    50.00 Ry     beta= 0.30
     Davidson diagonalization with overlap
     ethr =  1.21E-04,  avg # of iterations =  3.0

     negative rho (up, down):  1.204E-06 1.204E-06

     total cpu time spent up to now is       70.7 secs

     total energy              =    -965.75026377 Ry
     estimated scf accuracy    <       0.05028104 Ry

     total magnetization       =    -0.00 Bohr mag/cell
     absolute magnetization    =     0.00 Bohr mag/cell

     iteration #  3     ecut=    50.00 Ry     beta= 0.30
     Davidson diagonalization with overlap
     ethr =  2.45E-05,  avg # of iterations =  4.0

     negative rho (up, down):  1.204E-06 1.204E-06

     total cpu time spent up to now is       72.9 secs

     total energy              =    -965.75074989 Ry
     estimated scf accuracy    <       0.01286824 Ry

     total magnetization       =    -0.00 Bohr mag/cell
     absolute magnetization    =     0.00 Bohr mag/cell

     iteration #  4     ecut=    50.00 Ry     beta= 0.30
     Davidson diagonalization with overlap
     ethr =  6.28E-06,  avg # of iterations =  2.0

     negative rho (up, down):  1.212E-06 1.212E-06

     total cpu time spent up to now is       75.0 secs

     total energy              =    -965.75023255 Ry
     estimated scf accuracy    <       0.00959472 Ry

     total magnetization       =     0.00 Bohr mag/cell
     absolute magnetization    =     0.00 Bohr mag/cell

     iteration #  5     ecut=    50.00 Ry     beta= 0.30
     Davidson diagonalization with overlap
     ethr =  4.68E-06,  avg # of iterations =  3.0

     negative rho (up, down):  1.257E-06 1.257E-06

     total cpu time spent up to now is       77.1 secs

     total energy              =    -965.75116227 Ry
     estimated scf accuracy    <       0.00199195 Ry

     total magnetization       =     0.00 Bohr mag/cell
     absolute magnetization    =     0.00 Bohr mag/cell

     iteration #  6     ecut=    50.00 Ry     beta= 0.30
     Davidson diagonalization with overlap
     ethr =  9.72E-07,  avg # of iterations =  2.0

     negative rho (up, down):  1.255E-06 1.255E-06

     total cpu time spent up to now is       79.2 secs

     total energy              =    -965.75137777 Ry
     estimated scf accuracy    <       0.00012523 Ry

     total magnetization       =    -0.00 Bohr mag/cell
     absolute magnetization    =     0.00 Bohr mag/cell

     iteration #  7     ecut=    50.00 Ry     beta= 0.30
     Davidson diagonalization with overlap
     ethr =  6.11E-08,  avg # of iterations =  4.0

     negative rho (up, down):  1.253E-06 1.253E-06

     total cpu time spent up to now is       81.6 secs

     total energy              =    -965.75139174 Ry
     estimated scf accuracy    <       0.00004524 Ry

     total magnetization       =     0.00 Bohr mag/cell
     absolute magnetization    =     0.00 Bohr mag/cell

     iteration #  8     ecut=    50.00 Ry     beta= 0.30
     Davidson diagonalization with overlap
     ethr =  2.21E-08,  avg # of iterations =  2.0

     negative rho (up, down):  1.253E-06 1.253E-06

     total cpu time spent up to now is       83.8 secs

     total energy              =    -965.75139557 Ry
     estimated scf accuracy    <       0.00001111 Ry

     total magnetization       =     0.00 Bohr mag/cell
     absolute magnetization    =     0.00 Bohr mag/cell

     iteration #  9     ecut=    50.00 Ry     beta= 0.30
     Davidson diagonalization with overlap
     ethr =  5.42E-09,  avg # of iterations =  2.0

     negative rho (up, down):  1.247E-06 1.247E-06

     total cpu time spent up to now is       85.9 secs

     total energy              =    -965.75139681 Ry
     estimated scf accuracy    <       0.00000159 Ry

     total magnetization       =     0.00 Bohr mag/cell
     absolute magnetization    =     0.00 Bohr mag/cell

     iteration # 10     ecut=    50.00 Ry     beta= 0.30
     Davidson diagonalization with overlap
     ethr =  7.76E-10,  avg # of iterations =  4.0

     negative rho (up, down):  1.230E-06 1.230E-06

     Magnetic moment per site  (integrated on atomic sphere of radius R)
     atom   1 (R=0.041)  charge=  0.8103  magn= -0.0000
     atom   2 (R=0.041)  charge=  0.8425  magn= -0.0000
     atom   3 (R=0.041)  charge=  0.8153  magn=  0.0000
     atom   4 (R=0.041)  charge=  0.8018  magn=  0.0000
     atom   5 (R=0.041)  charge=  0.8398  magn=  0.0000
     atom   6 (R=0.041)  charge=  0.8459  magn= -0.0000
     atom   7 (R=0.041)  charge=  0.8030  magn=  0.0000
     atom   8 (R=0.041)  charge=  0.8398  magn= -0.0000
     atom   9 (R=0.041)  charge=  0.8465  magn=  0.0000
     atom  10 (R=0.041)  charge=  0.7998  magn=  0.0000
     atom  11 (R=0.041)  charge=  0.8410  magn=  0.0000
     atom  12 (R=0.041)  charge=  0.8426  magn= -0.0000
     atom  13 (R=0.041)  charge=  0.8019  magn= -0.0000
     atom  14 (R=0.041)  charge=  0.8317  magn= -0.0000
     atom  15 (R=0.041)  charge=  0.8268  magn=  0.0000
     atom  16 (R=0.041)  charge=  0.7935  magn= -0.0000
     atom  17 (R=0.041)  charge=  0.8326  magn= -0.0000
     atom  18 (R=0.041)  charge=  0.8278  magn=  0.0000
     atom  19 (R=0.041)  charge=  0.7936  magn=  0.0000
     atom  20 (R=0.041)  charge=  0.8333  magn=  0.0000
     atom  21 (R=0.041)  charge=  0.8277  magn= -0.0000
     atom  22 (R=0.041)  charge=  0.7941  magn=  0.0000
     atom  23 (R=0.041)  charge=  0.8287  magn=  0.0000
     atom  24 (R=0.041)  charge=  0.8253  magn= -0.0000
     atom  25 (R=0.041)  charge=  0.8021  magn=  0.0000
     atom  26 (R=0.041)  charge=  0.8402  magn=  0.0000
     atom  27 (R=0.041)  charge=  0.8470  magn= -0.0000
     atom  28 (R=0.041)  charge=  0.8031  magn=  0.0000
     atom  29 (R=0.041)  charge=  0.8397  magn=  0.0000
     atom  30 (R=0.041)  charge=  0.8461  magn= -0.0000
     atom  31 (R=0.041)  charge=  0.8023  magn= -0.0000
     atom  32 (R=0.041)  charge=  0.8389  magn= -0.0000
     atom  33 (R=0.041)  charge=  0.8464  magn=  0.0000
     atom  34 (R=0.041)  charge=  0.8024  magn= -0.0000
     atom  35 (R=0.041)  charge=  0.8407  magn= -0.0000
     atom  36 (R=0.041)  charge=  0.8468  magn=  0.0000
     atom  37 (R=0.041)  charge=  0.7931  magn= -0.0000
     atom  38 (R=0.041)  charge=  0.8316  magn= -0.0000
     atom  39 (R=0.041)  charge=  0.8273  magn=  0.0000
     atom  40 (R=0.041)  charge=  0.7953  magn=  0.0000
     atom  41 (R=0.041)  charge=  0.8474  magn=  0.0000
     atom  42 (R=0.041)  charge=  0.8172  magn= -0.0000
     atom  43 (R=0.041)  charge=  0.7933  magn= -0.0000
     atom  44 (R=0.041)  charge=  0.8318  magn= -0.0000
     atom  45 (R=0.041)  charge=  0.8272  magn=  0.0000
     atom  46 (R=0.041)  charge=  0.7943  magn= -0.0000
     atom  47 (R=0.041)  charge=  0.8308  magn= -0.0000
     atom  48 (R=0.041)  charge=  0.8288  magn=  0.0000
     atom  49 (R=0.037)  charge=  1.9719  magn=  0.0000
     atom  50 (R=0.037)  charge=  1.9661  magn=  0.0000
     atom  51 (R=0.037)  charge=  0.4074  magn=  0.0000

     total cpu time spent up to now is       88.2 secs

     End of self-consistent calculation

 ------ SPIN UP ------------


          k = 0.0000 0.0000 0.0000 ( 26858 PWs)   bands (ev):

   -24.9629 -21.7797 -21.5899 -20.5432 -17.5151 -17.4875 -17.4437 -17.3423
   -17.3186 -17.1586 -16.7632 -16.7371 -16.7161 -16.6496 -16.6153 -16.1474
   -15.9820 -15.9478 -15.8002 -15.7689 -15.6791 -15.4793 -15.2794 -14.5117
   -14.4899 -14.4740 -14.2954 -14.0775 -14.0490 -13.6234 -13.1405 -12.8897
   -12.7433 -12.7109 -12.2325 -12.1793 -11.9654 -11.9322 -11.4666 -11.1330
   -10.9245 -10.8707 -10.6385 -10.5694 -10.2470  -9.8813  -9.8675  -9.8537
    -9.6134  -9.4702  -9.4591  -9.4515  -9.3876  -9.3795  -9.3339  -7.9886
    -7.3301  -6.8313  -6.7638  -6.7250  -6.5148  -6.4073  -6.3670  -6.2177
    -6.1486  -6.1038  -5.8807  -5.8179  -5.7897  -5.6343  -5.5047  -5.4467
    -5.4103  -5.3735  -5.3405  -5.3093  -5.2525  -5.1975  -5.0292  -4.7835
    -4.7704  -4.6910  -4.4879  -4.3735  -4.3019  -3.8943  -3.7835  -3.6246
    -3.5404  -3.5075  -3.3456  -3.2684  -3.2332  -3.1037  -2.9650  -2.8887
    -2.8491  -2.7722  -2.5639  -2.1316  -1.9219  -1.8353  -0.9748  -0.5241
    -0.2169   0.0016   0.3049   0.6093   0.7514   0.9299   1.1911   1.2111
     1.2382   1.3753   1.4649   1.6032   2.1857   2.4040   2.4358   2.4582
     2.4814   2.5364   2.7084

 ------ SPIN DOWN ----------


          k = 0.0000 0.0000 0.0000 ( 26858 PWs)   bands (ev):

   -24.9629 -21.7797 -21.5899 -20.5432 -17.5151 -17.4875 -17.4437 -17.3423
   -17.3186 -17.1586 -16.7632 -16.7371 -16.7161 -16.6496 -16.6153 -16.1474
   -15.9820 -15.9478 -15.8002 -15.7689 -15.6791 -15.4793 -15.2794 -14.5117
   -14.4899 -14.4740 -14.2954 -14.0775 -14.0490 -13.6234 -13.1405 -12.8897
   -12.7433 -12.7109 -12.2325 -12.1793 -11.9654 -11.9322 -11.4666 -11.1330
   -10.9245 -10.8707 -10.6385 -10.5694 -10.2470  -9.8813  -9.8675  -9.8537
    -9.6134  -9.4702  -9.4591  -9.4515  -9.3876  -9.3795  -9.3339  -7.9886
    -7.3301  -6.8313  -6.7638  -6.7250  -6.5148  -6.4073  -6.3670  -6.2177
    -6.1486  -6.1038  -5.8807  -5.8179  -5.7897  -5.6343  -5.5047  -5.4467
    -5.4103  -5.3735  -5.3405  -5.3093  -5.2525  -5.1975  -5.0292  -4.7835
    -4.7704  -4.6910  -4.4879  -4.3735  -4.3019  -3.8943  -3.7835  -3.6246
    -3.5404  -3.5075  -3.3456  -3.2684  -3.2332  -3.1037  -2.9650  -2.8887
    -2.8491  -2.7722  -2.5639  -2.1316  -1.9219  -1.8353  -0.9748  -0.5241
    -0.2169   0.0016   0.3049   0.6093   0.7514   0.9299   1.1911   1.2111
     1.2382   1.3753   1.4649   1.6032   2.1857   2.4040   2.4358   2.4582
     2.4814   2.5364   2.7084

     the spin up/dw Fermi energies are    -0.9748   -0.9748 ev

!    total energy              =    -965.75139711 Ry
     estimated scf accuracy    <       0.00000030 Ry
     smearing contrib. (-TS)   =      -0.00005642 Ry
     internal energy E=F+TS    =    -965.75134070 Ry

     The total energy is F=E-TS. E is the sum of the following terms:
     one-electron contribution =   -1338.88988668 Ry
     hartree contribution      =     718.56176219 Ry
     xc contribution           =    -233.57198998 Ry
     ewald contribution        =     203.24394518 Ry
     one-center paw contrib.   =    -315.09517141 Ry

     total magnetization       =    -0.00 Bohr mag/cell
     absolute magnetization    =     0.00 Bohr mag/cell

     convergence has been achieved in  10 iterations

     negative rho (up, down):  1.230E-06 1.230E-06

     Forces acting on atoms (cartesian axes, Ry/au):

     atom    1 type  1   force =     0.02014800   -0.03016924   -0.08977404
     atom    2 type  1   force =    -0.03456628    0.04574199   -0.18332864
     atom    3 type  1   force =     0.03774008   -0.10593168    0.20870766
     atom    4 type  1   force =    -0.01690005    0.01470770    0.02086487
     atom    5 type  1   force =    -0.01491365    0.01483336    0.01463543
     atom    6 type  1   force =    -0.03049088    0.03031636    0.03128728
     atom    7 type  1   force =     0.01635960    0.02437622   -0.02805109
     atom    8 type  1   force =     0.01482728    0.01482107   -0.01496480
     atom    9 type  1   force =     0.03093414    0.03250315   -0.03212236
     atom   10 type  1   force =    -0.02277536   -0.01616911   -0.02594866
     atom   11 type  1   force =    -0.01393698   -0.01429601   -0.01413906
     atom   12 type  1   force =    -0.03085708   -0.03035021   -0.03160240
     atom   13 type  1   force =    -0.02402038    0.03029981   -0.00064462
     atom   14 type  1   force =    -0.02646126    0.02575244    0.02505100
     atom   15 type  1   force =     0.02930545   -0.02816163   -0.03064875
     atom   16 type  1   force =     0.02147033   -0.01989011    0.02062921
     atom   17 type  1   force =     0.01949754   -0.02022202    0.01966288
     atom   18 type  1   force =    -0.02182778    0.02235834   -0.02228879
     atom   19 type  1   force =     0.02153504    0.02060585   -0.02962251
     atom   20 type  1   force =     0.01368981    0.02074025   -0.02774405
     atom   21 type  1   force =    -0.02990357   -0.02601946    0.01483345
     atom   22 type  1   force =    -0.02202540   -0.01525748   -0.02821405
     atom   23 type  1   force =    -0.02165590   -0.02155909   -0.02276923
     atom   24 type  1   force =     0.02459308    0.02263266    0.02271863
     atom   25 type  1   force =     0.01704750   -0.01475259    0.01950320
     atom   26 type  1   force =     0.01506521   -0.01502853    0.01506179
     atom   27 type  1   force =     0.03068763   -0.03038267    0.03072160
     atom   28 type  1   force =    -0.01102682    0.01322977    0.03853246
     atom   29 type  1   force =    -0.01163090    0.01168312    0.01011595
     atom   30 type  1   force =    -0.03106008    0.03123989    0.03716527
     atom   31 type  1   force =     0.02507666    0.01949232   -0.01379233
     atom   32 type  1   force =     0.01110021    0.01206996   -0.01147402
     atom   33 type  1   force =     0.03619067    0.03451973   -0.03486896
     atom   34 type  1   force =    -0.02091702   -0.02143001   -0.01689755
     atom   35 type  1   force =    -0.01371887   -0.01340352   -0.01314896
     atom   36 type  1   force =    -0.03387961   -0.03297810   -0.03365692
     atom   37 type  1   force =    -0.02397973    0.02420290    0.01940822
     atom   38 type  1   force =    -0.02115539    0.02179580    0.02178716
     atom   39 type  1   force =     0.02303241   -0.02332914   -0.02419386
     atom   40 type  1   force =     0.01115386   -0.01425064   -0.00162692
     atom   41 type  1   force =     0.11375780   -0.11209637    0.10616880
     atom   42 type  1   force =    -0.03201207    0.02867182   -0.03443595
     atom   43 type  1   force =     0.02083645    0.02196983   -0.02259887
     atom   44 type  1   force =     0.02243616    0.02227238   -0.02145048
     atom   45 type  1   force =    -0.02430341   -0.02398346    0.02382217
     atom   46 type  1   force =    -0.02243225   -0.02132270   -0.02012303
     atom   47 type  1   force =    -0.02121698   -0.02110581   -0.02125937
     atom   48 type  1   force =     0.02393100    0.02398719    0.02426494
     atom   49 type  2   force =    -0.03261671    0.11051281    0.14092561
     atom   50 type  2   force =    -0.00833510   -0.03479179    0.00095034
     atom   51 type  3   force =     0.01820361    0.01154464   -0.01542762

     Total force =     0.495902     Total SCF correction =     0.000811
     Energy error            =      1.6E-01 Ry
     Gradient error          =      2.1E-01 Ry/Bohr

     number of scf cycles    =   3
     number of bfgs steps    =   1

     energy             old  =    -965.5880995152 Ry
     energy             new  =    -965.7513971148 Ry

     CASE: energy            _new < energy            _old

     new trust radius        =       0.3323755019 bohr
     new conv_thr            =       0.0000010000 Ry


ATOMIC_POSITIONS (angstrom)
C             6.1809032849        4.5888561965        6.0424967275
C             7.8156938456        2.9699557621        7.6351347155
C             6.9591109360        3.7369452063        7.0754423671
C             4.5913980854        6.1830308288        6.1889047182
C             3.0569333340        7.7130004320        7.7127050023
C             3.7641927658        7.0087111979        7.0096385348
C             6.1851581655        6.1893510256        4.5824592673
C             7.7130163600        7.7130114760        3.0567682386
C             7.0090803524        7.0104819093        3.7632204250
C             4.5847201569        4.5872730974        4.5803639548
C             3.0565717659        3.0562060284        3.0563534285
C             3.7612231564        3.7614616044        3.7608518819
C             6.1882972249        4.5901643060        4.5623460106
C             7.7731506991        3.0032724662        3.0028823763
C             7.0650916111        3.7096782542        3.7081312782
C             4.5818427818        6.1908692950        4.5808211088
C             3.0023943917        7.7749869978        3.0025532555
C             3.7102923529        7.0642024240        3.7108684976
C             4.5840436038        4.5766334423        6.1856375367
C             2.9945652584        3.0016679787        7.7682953154
C             3.7013476198        3.7074841423        7.0558015341
C             6.1951391732        6.1978594841        6.1898391239
C             7.7743845021        7.7754333931        7.7742829638
C             7.0664105603        7.0668440101        7.0650530168
C             0.6852996417       10.0884948142        0.6873507475
C             2.2164857682        8.5605402519        2.2164810586
C             1.5109009151        9.2633828985        1.5108963984
C            10.0898841130        0.6817424514        0.7044873787
C             8.5605286787        2.2155928585        2.2151811042
C             9.2652185901        1.5077802570        1.5138467076
C             0.6931795189        0.6870414141       10.0882905946
C             2.2156936615        2.2162769016        8.5602670661
C             1.5126151325        1.5100001052        9.2626093663
C            10.0861449656       10.0869433593       10.0888811787
C             8.5609999628        8.5611837936        8.5614415089
C             9.2650750649        9.2658489989        9.2642200469
C             0.6915325554       10.0838671139       10.0798783487
C             2.2698762166        8.4987314285        8.4978057186
C             1.5624685886        9.2082254315        9.2075471594
C            10.0671171781        0.7024746164       10.0571468632
C             8.5188878236        2.2521620630        8.5069281641
C             9.2225252429        1.5429262397        9.2221314601
C            10.0807414843       10.0826620932        0.6926425609
C             8.4982253307        8.4990280457        2.2696544432
C             9.2077902882        9.2080254154        1.5628576840
C             0.6896623397        0.6893989097        0.6908026131
C             2.2706785908        2.2698219443        2.2706025582
C             1.5624219004        1.5613780941        1.5616762056
O             6.2433985777        4.4998902977        8.2355320127
O             5.4554431564        3.7000066237        9.1030632174
H             6.0752427261        3.3961926207        9.7969265554



     Writing config-only to output data dir ./pwscf.save/
     NEW-OLD atomic charge density approx. for the potential

     Check: negative core charge=   -0.000004

     negative rho (up, down):  1.194E-06 1.194E-06
     Generating pointlists ...
     new r_m :   0.0367 (alat units)  0.7629 (a.u.) for type    2
     new r_m :   0.0367 (alat units)  0.7629 (a.u.) for type    3

     total cpu time spent up to now is       93.0 secs

     Self-consistent Calculation

     iteration #  1     ecut=    50.00 Ry     beta= 0.30
     Davidson diagonalization with overlap
     ethr =  1.00E-06,  avg # of iterations = 14.0

     negative rho (up, down):  1.416E-06 1.416E-06

     total cpu time spent up to now is       99.1 secs

     total energy              =    -965.83975923 Ry
     estimated scf accuracy    <       0.14926586 Ry

     total magnetization       =    -0.00 Bohr mag/cell
     absolute magnetization    =     0.00 Bohr mag/cell

     iteration #  2     ecut=    50.00 Ry     beta= 0.30
     Davidson diagonalization with overlap
     ethr =  7.28E-05,  avg # of iterations =  2.0

     negative rho (up, down):  1.556E-06 1.556E-06

     total cpu time spent up to now is      101.2 secs

     total energy              =    -965.85379418 Ry
     estimated scf accuracy    <       0.03686304 Ry

     total magnetization       =     0.00 Bohr mag/cell
     absolute magnetization    =     0.00 Bohr mag/cell

     iteration #  3     ecut=    50.00 Ry     beta= 0.30
     Davidson diagonalization with overlap
     ethr =  1.80E-05,  avg # of iterations =  2.0

     negative rho (up, down):  1.701E-06 1.701E-06

     total cpu time spent up to now is      103.3 secs

     total energy              =    -965.84927258 Ry
     estimated scf accuracy    <       0.01072923 Ry

     total magnetization       =     0.00 Bohr mag/cell
     absolute magnetization    =     0.00 Bohr mag/cell

     iteration #  4     ecut=    50.00 Ry     beta= 0.30
     Davidson diagonalization with overlap
     ethr =  5.23E-06,  avg # of iterations =  5.0

     negative rho (up, down):  1.757E-06 1.757E-06

     total cpu time spent up to now is      105.7 secs

     total energy              =    -965.84853751 Ry
     estimated scf accuracy    <       0.00707354 Ry

     total magnetization       =     0.00 Bohr mag/cell
     absolute magnetization    =     0.00 Bohr mag/cell

     iteration #  5     ecut=    50.00 Ry     beta= 0.30
     Davidson diagonalization with overlap
     ethr =  3.45E-06,  avg # of iterations =  2.0

     negative rho (up, down):  1.795E-06 1.795E-06

     total cpu time spent up to now is      107.8 secs

     total energy              =    -965.84881370 Ry
     estimated scf accuracy    <       0.00103411 Ry

     total magnetization       =     0.00 Bohr mag/cell
     absolute magnetization    =     0.00 Bohr mag/cell

     iteration #  6     ecut=    50.00 Ry     beta= 0.30
     Davidson diagonalization with overlap
     ethr =  5.04E-07,  avg # of iterations =  2.0

     negative rho (up, down):  1.774E-06 1.774E-06

     total cpu time spent up to now is      109.9 secs

     total energy              =    -965.84885135 Ry
     estimated scf accuracy    <       0.00016775 Ry

     total magnetization       =    -0.00 Bohr mag/cell
     absolute magnetization    =     0.00 Bohr mag/cell

     iteration #  7     ecut=    50.00 Ry     beta= 0.30
     Davidson diagonalization with overlap
     ethr =  8.18E-08,  avg # of iterations =  3.0

     negative rho (up, down):  1.728E-06 1.728E-06

     total cpu time spent up to now is      112.3 secs

     total energy              =    -965.84885363 Ry
     estimated scf accuracy    <       0.00005692 Ry

     total magnetization       =    -0.00 Bohr mag/cell
     absolute magnetization    =     0.00 Bohr mag/cell

     iteration #  8     ecut=    50.00 Ry     beta= 0.30
     Davidson diagonalization with overlap
     ethr =  2.78E-08,  avg # of iterations =  2.0

     negative rho (up, down):  1.697E-06 1.697E-06

     total cpu time spent up to now is      114.4 secs

     total energy              =    -965.84885747 Ry
     estimated scf accuracy    <       0.00000747 Ry

     total magnetization       =     0.00 Bohr mag/cell
     absolute magnetization    =     0.00 Bohr mag/cell

     iteration #  9     ecut=    50.00 Ry     beta= 0.30
     Davidson diagonalization with overlap
     ethr =  3.64E-09,  avg # of iterations =  5.0

     negative rho (up, down):  1.682E-06 1.682E-06

     total cpu time spent up to now is      117.0 secs

     total energy              =    -965.84885856 Ry
     estimated scf accuracy    <       0.00000487 Ry

     total magnetization       =    -0.00 Bohr mag/cell
     absolute magnetization    =     0.00 Bohr mag/cell

     iteration # 10     ecut=    50.00 Ry     beta= 0.30
     Davidson diagonalization with overlap
     ethr =  2.38E-09,  avg # of iterations =  2.0

     negative rho (up, down):  1.670E-06 1.670E-06

     Magnetic moment per site  (integrated on atomic sphere of radius R)
     atom   1 (R=0.041)  charge=  0.8004  magn= -0.0000
     atom   2 (R=0.041)  charge=  0.8474  magn= -0.0000
     atom   3 (R=0.041)  charge=  0.8059  magn=  0.0000
     atom   4 (R=0.041)  charge=  0.8006  magn=  0.0000
     atom   5 (R=0.041)  charge=  0.8520  magn=  0.0000
     atom   6 (R=0.041)  charge=  0.8470  magn= -0.0000
     atom   7 (R=0.041)  charge=  0.8029  magn=  0.0000
     atom   8 (R=0.041)  charge=  0.8525  magn=  0.0000
     atom   9 (R=0.041)  charge=  0.8491  magn= -0.0000
     atom  10 (R=0.041)  charge=  0.8030  magn=  0.0000
     atom  11 (R=0.041)  charge=  0.8498  magn=  0.0000
     atom  12 (R=0.041)  charge=  0.8483  magn= -0.0000
     atom  13 (R=0.041)  charge=  0.8065  magn= -0.0000
     atom  14 (R=0.041)  charge=  0.8521  magn= -0.0000
     atom  15 (R=0.041)  charge=  0.8302  magn=  0.0000
     atom  16 (R=0.041)  charge=  0.7866  magn= -0.0000
     atom  17 (R=0.041)  charge=  0.8506  magn= -0.0000
     atom  18 (R=0.041)  charge=  0.8275  magn=  0.0000
     atom  19 (R=0.041)  charge=  0.7862  magn=  0.0000
     atom  20 (R=0.041)  charge=  0.8516  magn=  0.0000
     atom  21 (R=0.041)  charge=  0.8264  magn= -0.0000
     atom  22 (R=0.041)  charge=  0.7855  magn=  0.0000
     atom  23 (R=0.041)  charge=  0.8475  magn=  0.0000
     atom  24 (R=0.041)  charge=  0.8294  magn= -0.0000
     atom  25 (R=0.041)  charge=  0.8005  magn=  0.0000
     atom  26 (R=0.041)  charge=  0.8532  magn=  0.0000
     atom  27 (R=0.041)  charge=  0.8460  magn= -0.0000
     atom  28 (R=0.041)  charge=  0.7993  magn=  0.0000
     atom  29 (R=0.041)  charge=  0.8524  magn=  0.0000
     atom  30 (R=0.041)  charge=  0.8483  magn= -0.0000
     atom  31 (R=0.041)  charge=  0.7984  magn= -0.0000
     atom  32 (R=0.041)  charge=  0.8533  magn= -0.0000
     atom  33 (R=0.041)  charge=  0.8483  magn=  0.0000
     atom  34 (R=0.041)  charge=  0.8000  magn= -0.0000
     atom  35 (R=0.041)  charge=  0.8534  magn= -0.0000
     atom  36 (R=0.041)  charge=  0.8503  magn=  0.0000
     atom  37 (R=0.041)  charge=  0.7853  magn= -0.0000
     atom  38 (R=0.041)  charge=  0.8498  magn= -0.0000
     atom  39 (R=0.041)  charge=  0.8289  magn=  0.0000
     atom  40 (R=0.041)  charge=  0.7856  magn=  0.0000
     atom  41 (R=0.041)  charge=  0.8538  magn=  0.0000
     atom  42 (R=0.041)  charge=  0.8391  magn= -0.0000
     atom  43 (R=0.041)  charge=  0.7862  magn= -0.0000
     atom  44 (R=0.041)  charge=  0.8503  magn= -0.0000
     atom  45 (R=0.041)  charge=  0.8293  magn=  0.0000
     atom  46 (R=0.041)  charge=  0.7837  magn= -0.0000
     atom  47 (R=0.041)  charge=  0.8493  magn= -0.0000
     atom  48 (R=0.041)  charge=  0.8301  magn=  0.0000
     atom  49 (R=0.037)  charge=  1.9119  magn= -0.0000
     atom  50 (R=0.037)  charge=  1.9240  magn=  0.0000
     atom  51 (R=0.037)  charge=  0.4063  magn= -0.0000

     total cpu time spent up to now is      119.0 secs

     End of self-consistent calculation

 ------ SPIN UP ------------


          k = 0.0000 0.0000 0.0000 ( 26858 PWs)   bands (ev):

   -24.9553 -21.9702 -21.6567 -19.3735 -17.4985 -17.4367 -17.4045 -17.2828
   -17.2304 -17.0431 -16.8475 -16.8243 -16.7794 -16.7132 -16.7041 -16.1762
   -16.0926 -16.0676 -15.7270 -15.6800 -15.6608 -15.5224 -15.3856 -14.7191
   -14.6490 -14.6126 -13.8972 -13.8763 -13.8422 -13.4673 -12.9541 -12.6724
   -12.6098 -12.5878 -12.1623 -12.0618 -12.0285 -11.9919 -11.1512 -11.0648
   -11.0174 -10.9681 -10.6607 -10.3801 -10.1436  -9.7707  -9.7463  -9.6665
    -9.5639  -9.4628  -9.4524  -9.4142  -9.3116  -9.2594  -9.1331  -7.9075
    -7.2533  -6.7987  -6.7364  -6.6872  -6.4374  -6.4038  -6.3198  -6.1804
    -6.1492  -6.1044  -5.8653  -5.7286  -5.6885  -5.6672  -5.5777  -5.5540
    -5.5091  -5.4936  -5.4559  -5.4316  -5.3776  -5.3389  -5.2118  -4.8791
    -4.8707  -4.7607  -4.4996  -4.4451  -4.3968  -3.8968  -3.7155  -3.5866
    -3.5329  -3.4295  -3.3204  -3.2589  -3.2129  -3.1193  -3.0547  -2.9791
    -2.9477  -2.8582  -2.7469  -2.2493  -2.0881  -2.0292  -1.2635  -0.1403
    -0.0626   0.1744   0.7061   0.8375   0.9850   1.1744   1.3111   1.3581
     1.3858   1.4968   1.5326   1.9805   2.2452   2.4143   2.4356   2.4828
     2.4975   2.6506   2.6982

 ------ SPIN DOWN ----------


          k = 0.0000 0.0000 0.0000 ( 26858 PWs)   bands (ev):

   -24.9553 -21.9702 -21.6567 -19.3735 -17.4985 -17.4367 -17.4045 -17.2828
   -17.2304 -17.0431 -16.8475 -16.8243 -16.7794 -16.7132 -16.7041 -16.1762
   -16.0926 -16.0676 -15.7270 -15.6800 -15.6608 -15.5224 -15.3856 -14.7191
   -14.6490 -14.6126 -13.8972 -13.8763 -13.8422 -13.4673 -12.9541 -12.6724
   -12.6098 -12.5878 -12.1623 -12.0618 -12.0285 -11.9919 -11.1512 -11.0648
   -11.0174 -10.9681 -10.6607 -10.3801 -10.1436  -9.7707  -9.7463  -9.6665
    -9.5639  -9.4628  -9.4524  -9.4142  -9.3116  -9.2594  -9.1331  -7.9075
    -7.2533  -6.7987  -6.7364  -6.6872  -6.4374  -6.4038  -6.3198  -6.1804
    -6.1492  -6.1044  -5.8653  -5.7286  -5.6885  -5.6672  -5.5777  -5.5540
    -5.5091  -5.4936  -5.4559  -5.4316  -5.3776  -5.3389  -5.2118  -4.8791
    -4.8707  -4.7607  -4.4996  -4.4451  -4.3968  -3.8968  -3.7155  -3.5866
    -3.5329  -3.4295  -3.3204  -3.2589  -3.2129  -3.1193  -3.0547  -2.9791
    -2.9477  -2.8582  -2.7469  -2.2493  -2.0881  -2.0292  -1.2635  -0.1403
    -0.0626   0.1744   0.7061   0.8375   0.9850   1.1744   1.3111   1.3581
     1.3858   1.4968   1.5326   1.9805   2.2452   2.4143   2.4356   2.4828
     2.4975   2.6506   2.6982

     the spin up/dw Fermi energies are    -1.2635   -1.2635 ev

!    total energy              =    -965.84885957 Ry
     estimated scf accuracy    <       0.00000035 Ry
     smearing contrib. (-TS)   =      -0.00005642 Ry
     internal energy E=F+TS    =    -965.84880315 Ry

     The total energy is F=E-TS. E is the sum of the following terms:
     one-electron contribution =   -1324.89913043 Ry
     hartree contribution      =     711.84954985 Ry
     xc contribution           =    -233.84979348 Ry
     ewald contribution        =     196.17797615 Ry
     one-center paw contrib.   =    -315.12740525 Ry

     total magnetization       =     0.00 Bohr mag/cell
     absolute magnetization    =     0.00 Bohr mag/cell

     convergence has been achieved in  10 iterations

[...]

     total energy              =    -965.98630931 Ry
     estimated scf accuracy    <       0.00049898 Ry

     total magnetization       =    -0.00 Bohr mag/cell
     absolute magnetization    =     0.01 Bohr mag/cell

     iteration #  8     ecut=    50.00 Ry     beta= 0.30
     Davidson diagonalization with overlap
     ethr =  2.43E-07,  avg # of iterations =  4.0

     negative rho (up, down):  1.335E-06 1.336E-06

     total cpu time spent up to now is     2162.9 secs

     total energy              =    -965.98655094 Ry
     estimated scf accuracy    <       0.00013711 Ry

     total magnetization       =    -0.00 Bohr mag/cell
     absolute magnetization    =     0.01 Bohr mag/cell

     iteration #  9     ecut=    50.00 Ry     beta= 0.30
     Davidson diagonalization with overlap
     ethr =  6.69E-08,  avg # of iterations =  2.0

     negative rho (up, down):  1.329E-06 1.329E-06

     total cpu time spent up to now is     2165.1 secs

     total energy              =    -965.98665643 Ry
     estimated scf accuracy    <       0.00002791 Ry

     total magnetization       =    -0.00 Bohr mag/cell
     absolute magnetization    =     0.01 Bohr mag/cell

     iteration # 10     ecut=    50.00 Ry     beta= 0.30
     Davidson diagonalization with overlap
     ethr =  1.36E-08,  avg # of iterations =  2.0

     negative rho (up, down):  1.320E-06 1.321E-06

     total cpu time spent up to now is     2167.2 secs

     total energy              =    -965.98669739 Ry
     estimated scf accuracy    <       0.00000256 Ry

     total magnetization       =    -0.00 Bohr mag/cell
     absolute magnetization    =     0.00 Bohr mag/cell

     iteration # 11     ecut=    50.00 Ry     beta= 0.30
     Davidson diagonalization with overlap
     ethr =  1.25E-09,  avg # of iterations =  4.0

     negative rho (up, down):  1.312E-06 1.312E-06

     total cpu time spent up to now is     2169.6 secs

     total energy              =    -965.98671127 Ry
     estimated scf accuracy    <       0.00000055 Ry

     total magnetization       =     0.00 Bohr mag/cell
     absolute magnetization    =     0.00 Bohr mag/cell

     iteration # 12     ecut=    50.00 Ry     beta= 0.30
     Davidson diagonalization with overlap
     ethr =  2.67E-10,  avg # of iterations =  2.0

     negative rho (up, down):  1.309E-06 1.309E-06

     total cpu time spent up to now is     2171.8 secs

     total energy              =    -965.98672015 Ry
     estimated scf accuracy    <       0.00000013 Ry

     total magnetization       =     0.00 Bohr mag/cell
     absolute magnetization    =     0.00 Bohr mag/cell

     iteration # 13     ecut=    50.00 Ry     beta= 0.30
     Davidson diagonalization with overlap
     ethr =  6.52E-11,  avg # of iterations =  3.0

     negative rho (up, down):  1.306E-06 1.306E-06

     total cpu time spent up to now is     2174.1 secs

     total energy              =    -965.98672275 Ry
     estimated scf accuracy    <       0.00000002 Ry

     total magnetization       =    -0.00 Bohr mag/cell
     absolute magnetization    =     0.00 Bohr mag/cell

     iteration # 14     ecut=    50.00 Ry     beta= 0.30
     Davidson diagonalization with overlap
     ethr =  8.41E-12,  avg # of iterations =  4.0

     negative rho (up, down):  1.297E-06 1.297E-06

     Magnetic moment per site  (integrated on atomic sphere of radius R)
     atom   1 (R=0.041)  charge=  0.7885  magn=  0.0000
     atom   2 (R=0.041)  charge=  0.8347  magn= -0.0000
     atom   3 (R=0.041)  charge=  0.8031  magn= -0.0000
     atom   4 (R=0.041)  charge=  0.7937  magn=  0.0000
     atom   5 (R=0.041)  charge=  0.8446  magn=  0.0000
     atom   6 (R=0.041)  charge=  0.8400  magn= -0.0000
     atom   7 (R=0.041)  charge=  0.7923  magn= -0.0000
     atom   8 (R=0.041)  charge=  0.8421  magn= -0.0000
     atom   9 (R=0.041)  charge=  0.8379  magn=  0.0000
     atom  10 (R=0.041)  charge=  0.7931  magn=  0.0000
     atom  11 (R=0.041)  charge=  0.8425  magn= -0.0000
     atom  12 (R=0.041)  charge=  0.8390  magn=  0.0000
     atom  13 (R=0.041)  charge=  0.7889  magn=  0.0000
     atom  14 (R=0.041)  charge=  0.8444  magn=  0.0000
     atom  15 (R=0.041)  charge=  0.8396  magn= -0.0000
     atom  16 (R=0.041)  charge=  0.7922  magn=  0.0000
     atom  17 (R=0.041)  charge=  0.8428  magn=  0.0000
     atom  18 (R=0.041)  charge=  0.8381  magn= -0.0000
     atom  19 (R=0.041)  charge=  0.7960  magn= -0.0000
     atom  20 (R=0.041)  charge=  0.8451  magn= -0.0000
     atom  21 (R=0.041)  charge=  0.8403  magn=  0.0000
     atom  22 (R=0.041)  charge=  0.7951  magn= -0.0000
     atom  23 (R=0.041)  charge=  0.8455  magn=  0.0000
     atom  24 (R=0.041)  charge=  0.8395  magn=  0.0000
     atom  25 (R=0.041)  charge=  0.7921  magn= -0.0000
     atom  26 (R=0.041)  charge=  0.8421  magn=  0.0000
     atom  27 (R=0.041)  charge=  0.8389  magn= -0.0000
     atom  28 (R=0.041)  charge=  0.7895  magn=  0.0000
     atom  29 (R=0.041)  charge=  0.8440  magn= -0.0000
     atom  30 (R=0.041)  charge=  0.8409  magn=  0.0000
     atom  31 (R=0.041)  charge=  0.7941  magn=  0.0000
     atom  32 (R=0.041)  charge=  0.8441  magn=  0.0000
     atom  33 (R=0.041)  charge=  0.8413  magn= -0.0000
     atom  34 (R=0.041)  charge=  0.7944  magn=  0.0000
     atom  35 (R=0.041)  charge=  0.8441  magn= -0.0000
     atom  36 (R=0.041)  charge=  0.8392  magn=  0.0000
     atom  37 (R=0.041)  charge=  0.7944  magn=  0.0000
     atom  38 (R=0.041)  charge=  0.8440  magn= -0.0000
     atom  39 (R=0.041)  charge=  0.8399  magn= -0.0000
     atom  40 (R=0.041)  charge=  0.7891  magn= -0.0000
     atom  41 (R=0.041)  charge=  0.8376  magn= -0.0000
     atom  42 (R=0.041)  charge=  0.8356  magn=  0.0000
     atom  43 (R=0.041)  charge=  0.7930  magn=  0.0000
     atom  44 (R=0.041)  charge=  0.8429  magn= -0.0000
     atom  45 (R=0.041)  charge=  0.8385  magn=  0.0000
     atom  46 (R=0.041)  charge=  0.7929  magn= -0.0000
     atom  47 (R=0.041)  charge=  0.8437  magn=  0.0000
     atom  48 (R=0.041)  charge=  0.8379  magn= -0.0000
     atom  49 (R=0.037)  charge=  1.9149  magn=  0.0000
     atom  50 (R=0.037)  charge=  1.9198  magn= -0.0000
     atom  51 (R=0.037)  charge=  0.4037  magn=  0.0000

     total cpu time spent up to now is     2176.6 secs

     End of self-consistent calculation

 ------ SPIN UP ------------


          k = 0.0000 0.0000 0.0000 ( 26858 PWs)   bands (ev):

   -25.3395 -21.4590 -21.3123 -20.1112 -17.4606 -17.4268 -17.3293 -17.2016
   -17.1978 -17.0481 -16.8446 -16.8065 -16.7683 -16.7109 -16.5909 -16.0230
   -15.9810 -15.9414 -15.8220 -15.7859 -15.6922 -15.5110 -15.3388 -14.5463
   -14.5183 -14.4256 -14.0781 -14.0107 -13.9516 -13.4875 -13.0575 -12.7495
   -12.6940 -12.6010 -12.0956 -12.0053 -11.9840 -11.9668 -11.3784 -10.9863
   -10.9510 -10.8868 -10.7371 -10.6018 -10.2110  -9.7884  -9.7263  -9.5866
    -9.4017  -9.3604  -9.3326  -9.3043  -9.2597  -9.2363  -9.0485  -8.5885
    -7.2601  -6.8465  -6.8444  -6.6768  -6.5451  -6.4853  -6.3287  -6.2614
    -6.1922  -6.1015  -5.8730  -5.8074  -5.6744  -5.6081  -5.5971  -5.5477
    -5.4826  -5.4590  -5.4306  -5.4173  -5.3314  -5.2962  -4.9946  -4.8411
    -4.8112  -4.6811  -4.4491  -4.3821  -4.3481  -4.2114  -3.7875  -3.6825
    -3.6341  -3.5994  -3.3790  -3.3139  -3.2853  -3.1050  -3.0752  -2.9525
    -2.9222  -2.8641  -2.5051  -2.2531  -1.9976  -1.8018  -1.2858  -0.1989
    -0.1542  -0.0322   0.6557   0.6713   0.7627   1.1937   1.2110   1.2214
     1.2545   1.4437   1.5208   1.6916   2.0494   2.4005   2.4222   2.4360
     2.4382   2.5287   2.6468

 ------ SPIN DOWN ----------


          k = 0.0000 0.0000 0.0000 ( 26858 PWs)   bands (ev):

   -25.3395 -21.4590 -21.3123 -20.1112 -17.4606 -17.4268 -17.3293 -17.2016
   -17.1978 -17.0481 -16.8446 -16.8065 -16.7683 -16.7109 -16.5909 -16.0230
   -15.9810 -15.9414 -15.8220 -15.7859 -15.6922 -15.5110 -15.3388 -14.5463
   -14.5183 -14.4256 -14.0781 -14.0107 -13.9517 -13.4875 -13.0575 -12.7494
   -12.6940 -12.6010 -12.0956 -12.0053 -11.9840 -11.9668 -11.3784 -10.9863
   -10.9510 -10.8868 -10.7371 -10.6018 -10.2110  -9.7884  -9.7263  -9.5866
    -9.4017  -9.3604  -9.3326  -9.3043  -9.2597  -9.2363  -9.0485  -8.5885
    -7.2601  -6.8465  -6.8444  -6.6768  -6.5452  -6.4853  -6.3287  -6.2614
    -6.1922  -6.1015  -5.8730  -5.8074  -5.6744  -5.6081  -5.5971  -5.5477
    -5.4826  -5.4590  -5.4306  -5.4173  -5.3314  -5.2962  -4.9946  -4.8411
    -4.8112  -4.6811  -4.4491  -4.3821  -4.3481  -4.2114  -3.7875  -3.6825
    -3.6341  -3.5994  -3.3790  -3.3139  -3.2853  -3.1050  -3.0752  -2.9525
    -2.9222  -2.8641  -2.5051  -2.2531  -1.9976  -1.8018  -1.2858  -0.1989
    -0.1542  -0.0322   0.6557   0.6713   0.7627   1.1937   1.2110   1.2214
     1.2545   1.4437   1.5208   1.6916   2.0493   2.4005   2.4222   2.4360
     2.4382   2.5287   2.6468

     the spin up/dw Fermi energies are    -1.2858   -1.2858 ev

!    total energy              =    -965.98672356 Ry
     estimated scf accuracy    <          4.3E-09 Ry
     smearing contrib. (-TS)   =      -0.00005642 Ry
     internal energy E=F+TS    =    -965.98666714 Ry

     The total energy is F=E-TS. E is the sum of the following terms:
     one-electron contribution =   -1296.90585195 Ry
     hartree contribution      =     697.57650370 Ry
     xc contribution           =    -233.45274883 Ry
     ewald contribution        =     181.89372282 Ry
     one-center paw contrib.   =    -315.09829288 Ry

     total magnetization       =     0.00 Bohr mag/cell
     absolute magnetization    =     0.00 Bohr mag/cell

     convergence has been achieved in  14 iterations

     negative rho (up, down):  1.297E-06 1.297E-06

     Forces acting on atoms (cartesian axes, Ry/au):

     atom    1 type  1   force =     0.00017117    0.00008717    0.00024803
     atom    2 type  1   force =     0.00037978    0.00044405   -0.00016135
     atom    3 type  1   force =     0.00003629   -0.00050406    0.00058023
     atom    4 type  1   force =    -0.00014221   -0.00015842   -0.00023891
     atom    5 type  1   force =    -0.00015179   -0.00005825   -0.00059989
     atom    6 type  1   force =     0.00029468    0.00039780   -0.00029242
     atom    7 type  1   force =    -0.00036148    0.00024172   -0.00009716
     atom    8 type  1   force =    -0.00024372    0.00024411   -0.00049364
     atom    9 type  1   force =    -0.00011425   -0.00004929    0.00061718
     atom   10 type  1   force =    -0.00005052    0.00009673    0.00017260
     atom   11 type  1   force =    -0.00010330    0.00024288   -0.00003694
     atom   12 type  1   force =     0.00015977    0.00054549    0.00018113
     atom   13 type  1   force =    -0.00004888    0.00019896   -0.00018136
     atom   14 type  1   force =    -0.00010339    0.00025249   -0.00013201
     atom   15 type  1   force =     0.00043966    0.00030422    0.00018875
     atom   16 type  1   force =    -0.00035341    0.00026893   -0.00015167
     atom   17 type  1   force =    -0.00065658    0.00024741   -0.00068925
     atom   18 type  1   force =     0.00052616   -0.00027104    0.00021916
     atom   19 type  1   force =    -0.00011467    0.00001204    0.00011797
     atom   20 type  1   force =    -0.00031791   -0.00011344   -0.00000304
     atom   21 type  1   force =    -0.00049568    0.00068248   -0.00035029
     atom   22 type  1   force =    -0.00007935   -0.00003729    0.00009724
     atom   23 type  1   force =    -0.00014064   -0.00010002   -0.00020308
     atom   24 type  1   force =    -0.00001970    0.00008726   -0.00009715
     atom   25 type  1   force =    -0.00016977   -0.00010075   -0.00001863
     atom   26 type  1   force =    -0.00028623    0.00038987   -0.00045778
     atom   27 type  1   force =     0.00037959   -0.00030107    0.00027566
     atom   28 type  1   force =    -0.00008728   -0.00037764    0.00021151
     atom   29 type  1   force =     0.00027734   -0.00031293    0.00007189
     atom   30 type  1   force =    -0.00060397   -0.00033984    0.00026349
     atom   31 type  1   force =    -0.00002852   -0.00007398    0.00003785
     atom   32 type  1   force =     0.00068996    0.00007499    0.00025325
     atom   33 type  1   force =     0.00011799   -0.00029329    0.00006600
     atom   34 type  1   force =    -0.00022213    0.00003818   -0.00012142
     atom   35 type  1   force =    -0.00008384    0.00003779   -0.00007613
     atom   36 type  1   force =    -0.00013256    0.00013239   -0.00011603
     atom   37 type  1   force =    -0.00010290   -0.00020304   -0.00006571
     atom   38 type  1   force =     0.00008041   -0.00020645   -0.00020053
     atom   39 type  1   force =     0.00003601   -0.00043008    0.00009162
     atom   40 type  1   force =    -0.00014144    0.00009317    0.00006694
     atom   41 type  1   force =     0.00007632   -0.00037355   -0.00014568
     atom   42 type  1   force =    -0.00000498    0.00023079    0.00065687
     atom   43 type  1   force =    -0.00008347   -0.00022754   -0.00009438
     atom   44 type  1   force =     0.00064897    0.00008562   -0.00018206
     atom   45 type  1   force =    -0.00035095   -0.00071210    0.00021660
     atom   46 type  1   force =     0.00003537   -0.00006200    0.00028260
     atom   47 type  1   force =     0.00033435   -0.00021763    0.00047347
     atom   48 type  1   force =     0.00000326    0.00030542    0.00011980
     atom   49 type  2   force =     0.00083048   -0.00054725    0.00029790
     atom   50 type  2   force =     0.00038365   -0.00005453   -0.00090492
     atom   51 type  3   force =    -0.00010567    0.00038354    0.00030364

     Total force =     0.003751     Total SCF correction =     0.000082
     Energy error            =      2.9E-05 Ry
     Gradient error          =      9.0E-04 Ry/Bohr

     bfgs converged in  86 scf cycles and  81 bfgs steps
     (criteria: energy <  1.0E-04 Ry, force <  1.0E-03 Ry/Bohr)

     End of BFGS Geometry Optimization

     Final energy             =    -965.9867235573 Ry

     File ./pwscf.bfgs deleted, as requested
Begin final coordinates

ATOMIC_POSITIONS (angstrom)
C             6.1183038078        4.5763968465        6.2452972146
C             7.7286274270        2.9542065891        7.6301206811
C             6.7958940036        3.8813335498        7.4215844881
C             4.5086925640        6.1947448029        6.1270089370
C             2.9585158123        7.7438274322        7.6539604210
C             3.6637031149        7.0367353964        6.9296444818
C             6.1900144458        6.1380310399        4.5621450984
C             7.7404034187        7.6810232749        3.0166255829
C             7.0378855675        6.9577164966        3.7293451305
C             4.5691463089        4.5220445612        4.5532598498
C             3.0359965481        2.9785223759        2.9925962141
C             3.7534997463        3.6780773295        3.7135483540
C             6.2009734305        4.5061196818        4.6276579811
C             7.7413493344        2.9678345104        3.0766779521
C             7.0400716785        3.6671771696        3.8145002295
C             4.5698233641        6.1424117858        4.5019838189
C             3.0350972194        7.6888802566        2.9465949786
C             3.7534304369        6.9655006996        3.6430862867
C             4.5067590071        4.5757903379        6.1652261603
C             2.9426351689        3.0329547874        7.6849131004
C             3.6516742476        3.7509049175        6.9768924987
C             6.1273242607        6.1922469600        6.1745283409
C             7.6704518405        7.7441326295        7.7083704342
C             6.9507099666        7.0410542913        6.9951065707
C             0.6663507081       10.0520348349        0.6560935002
C             2.2317501079        8.4922265321        2.1689721778
C             1.5092403473        9.2140038557        1.4744628370
C            10.0498181023        0.6632469005        0.7031284549
C             8.5255583934        2.1873543051        2.2682272653
C             9.2417333384        1.4769468803        1.5528540880
C             0.6490313116        0.6761017219       10.0350569960
C             2.1631582837        2.2330538455        8.4817602689
C             1.4740539993        1.5075850852        9.2026302374
C            10.0282354409       10.0494987291       10.0489696754
C             8.4707757549        8.5198935370        8.5093907169
C             9.1954338553        9.2122521628        9.2285975217
C             0.6474603285       10.0585636639       10.0322966353
C             2.1716208575        8.5305140851        8.4576882496
C             1.4680675464        9.2357298795        9.1853066958
C            10.0273364506        0.6687744396        9.9801381597
C             8.4894834646        2.1860163459        8.4034935112
C             9.2320080464        1.4518341577        9.1201237905
C            10.0420141180       10.0551407754        0.6667613903
C             8.5194779343        8.4894334256        2.2196534185
C             9.2176919025        9.2151320218        1.5049084376
C             0.6586713934        0.6737735489        0.6530475883
C             2.2298170018        2.2005338724        2.1933671010
C             1.5028935721        1.5019392723        1.4813093114
O             6.1448743653        4.5361382716        8.5029922679
O             6.3837488193        3.9037193547        9.7797580654
H             7.1617118363        4.4078907736       10.0983368323
End final coordinates



     Writing all to output data dir ./pwscf.save/

     init_run     :      2.95s CPU      3.06s WALL (       1 calls)
     electrons    :   1713.22s CPU   1789.32s WALL (      87 calls)
     update_pot   :    154.56s CPU    156.56s WALL (      85 calls)
     forces       :    149.97s CPU    155.59s WALL (      87 calls)

     Called by init_run:
     wfcinit      :      0.70s CPU      0.74s WALL (       1 calls)
     potinit      :      2.33s CPU      2.38s WALL (       2 calls)
     hinit0       :      0.75s CPU      0.76s WALL (       1 calls)

     Called by electrons:
     c_bands      :    946.16s CPU    974.57s WALL (     776 calls)
     sum_band     :    240.22s CPU    248.06s WALL (     776 calls)
     v_of_rho     :    194.74s CPU    200.92s WALL (     850 calls)
     newd         :     91.70s CPU     93.64s WALL (     850 calls)
     PAW_pot      :    284.25s CPU    286.01s WALL (     935 calls)
     mix_rho      :     19.10s CPU     20.53s WALL (     776 calls)

     Called by c_bands:
     init_us_2    :     14.23s CPU     14.50s WALL (    3450 calls)
     init_us_2:cp :     14.20s CPU     14.50s WALL (    3450 calls)
     regterg      :    922.67s CPU    950.47s WALL (    1552 calls)

     Called by *egterg:
     rdiaghg      :     60.06s CPU     60.45s WALL (    5544 calls)
     h_psi        :    516.60s CPU    540.85s WALL (    5744 calls)
     s_psi        :     86.87s CPU     87.46s WALL (    5744 calls)
     g_psi        :      1.76s CPU      1.79s WALL (    4190 calls)

     Called by h_psi:
     h_psi:calbec :     89.11s CPU     90.52s WALL (    5744 calls)
     vloc_psi     :    335.12s CPU    357.30s WALL (    5744 calls)
     add_vuspsi   :     87.48s CPU     88.10s WALL (    5744 calls)

     General routines
     calbec       :    143.77s CPU    146.04s WALL (    8162 calls)
     fft          :     83.37s CPU     92.78s WALL (   18655 calls)
     ffts         :      3.82s CPU      4.38s WALL (    3252 calls)
     fftw         :    349.49s CPU    372.73s WALL (  560560 calls)
     interpolate  :     11.06s CPU     12.13s WALL (    1700 calls)

     Parallel routines

     PWSCF        :  34m43.61s CPU  36m20.28s WALL


   This run was terminated on:  22:51:25  24May2025            

=------------------------------------------------------------------------------=
   JOB DONE.
=------------------------------------------------------------------------------=
