ITEM: TIMESTEP
0
ITEM: NUMBER OF ATOMS
161
ITEM: BOX BOUNDS xy xz yz pp pp pp
-6.7755000000000001e+00 1.3552000000000000e+01 -6.7755000000000001e+00
0.0000000000000000e+00 1.1735510246683001e+01 0.0000000000000000e+00
0.0000000000000000e+00 2.2149999999999999e+01 0.0000000000000000e+00
ITEM: ATOMS id type x y z 
8 1 -2.486 5.297 9.849 
87 1 3.001 4.231 10.696 
90 1 2.733 5.481 9.824 
109 1 -2.486 5.297 0.765 
158 1 2.733 5.481 0.79 
11 1 4.24 4.139 20.131 
14 1 3.031 4.094 19.728 
18 1 1.299 5.827 18.554 
33 1 2.266 4.151 20.924 
43 1 4.343 3.96 21.647 
47 1 3.32 5.732 17.88 
52 1 4.24 4.139 12.633 
76 1 2.552 4.924 14.209 
85 1 4.343 3.96 11.117 
89 1 3.32 5.732 14.883 
91 1 1.036 5.037 11.84 
102 1 3.031 4.094 13.035 
105 1 1.299 5.827 14.209 
114 1 2.266 4.151 11.84 
150 1 2.552 4.924 18.554 
156 1 3.001 4.231 22.068 
159 1 1.036 5.037 20.924 
5 1 -5.049 10.63 8.653 
9 1 -3.317 8.897 7.479 
19 1 -1.707 7.414 10.572 
21 1 -2.66 8.795 10.993 
23 1 -3.31 7.532 6.805 
25 1 -4.284 10.573 9.849 
32 1 1.503 6.367 0.79 
36 1 -1.869 7.426 9.056 
38 1 -2.209 6.086 8.653 
54 1 0.3 8.576 10.696 
57 1 1.291 8.001 9.824 
60 1 -1.707 7.414 0.042 
65 1 -3.31 7.532 3.808 
78 1 -1.869 7.426 1.558 
80 1 -2.566 8.842 1.961 
84 1 -4.57 9.799 3.135 
99 1 -3.054 9.687 0.765 
100 1 -2.96 6.142 3.135 
107 1 -5.049 10.63 1.961 
110 1 -3.317 8.897 3.135 
111 1 0.642 5.929 10.696 
113 1 1.503 6.367 9.824 
119 1 -4.284 10.573 0.765 
127 1 -2.209 6.086 1.961 
131 1 -2.318 6.148 10.993 
138 1 1.291 8.001 0.79 
142 1 -2.566 8.842 8.653 
145 1 -4.57 9.799 7.479 
151 1 -5.019 10.493 10.993 
154 1 -3.054 9.687 9.849 
155 1 -2.96 6.142 7.479 
12 1 2.53 7.1 17.202 
17 1 0.468 9.427 20.924 
24 1 -3.52 8.357 11.865 
27 1 -0.31 7.31 21.647 
29 1 0.642 5.929 22.068 
31 1 1.292 7.192 17.88 
44 1 -0.148 7.298 20.131 
46 1 0.191 8.638 19.728 
51 1 -0.31 7.31 11.117 
53 1 2.53 7.1 15.561 
56 1 1.292 7.192 14.883 
63 1 -2.318 6.148 21.771 
66 1 -3.309 6.723 20.899 
70 1 -0.148 7.298 12.633 
72 1 0.548 5.882 13.035 
92 1 0.942 8.582 14.209 
95 1 -5.019 10.493 21.771 
98 1 -4.751 9.243 20.899 
104 1 0.468 9.427 11.84 
116 1 -2.66 8.795 21.771 
118 1 -3.52 8.357 20.899 
122 1 0.191 8.638 13.035 
133 1 -3.309 6.723 11.865 
136 1 0.3 8.576 22.068 
147 1 0.548 5.882 19.728 
153 1 -4.751 9.243 11.865 
160 1 0.942 8.582 18.554 
1 1 7.976 4.694 10.572 
4 1 9.274 4.77 10.993 
20 1 8.034 4.861 9.056 
42 1 9.55 5.41 7.479 
67 1 10.043 4.578 0.765 
77 1 7.976 4.694 0.042 
94 1 8.035 4.861 1.558 
96 1 9.278 4.635 1.961 
121 1 4.688 5.417 10.696 
130 1 9.55 5.41 3.135 
134 1 10.043 4.578 9.849 
152 1 9.278 4.635 8.653 
161 2 9.767 4.724 6.65 
45 1 4.688 5.417 22.068 
55 1 4.788 5.329 13.035 
106 1 9.274 4.77 21.771 
137 1 4.788 5.329 19.728 
2 1 7.294 10.585 9.056 
3 1 9.004 7.624 6.127 
6 1 8.556 6.347 6.805 
16 1 2.314 8.72 0.79 
22 1 7.166 6.156 8.653 
26 1 7.226 8.565 7.479 
35 1 7.191 10.764 10.572 
37 1 6.846 9.307 10.993 
39 1 8.214 8.992 6.805 
41 1 6.677 7.002 9.849 
48 1 3.775 6.213 0.79 
61 1 7.294 10.585 1.558 
62 1 9.004 7.624 4.487 
64 1 6.747 9.395 1.961 
68 1 7.437 6.931 3.135 
71 1 4.29 8.493 10.696 
74 1 3.567 7.818 9.824 
81 1 8.556 6.347 3.808 
83 1 6.47 8.606 0.765 
93 1 7.191 10.764 0.042 
97 1 8.214 8.992 3.808 
101 1 2.261 9.954 10.696 
103 1 2.314 8.72 9.824 
117 1 7.166 6.156 1.961 
120 1 7.226 8.565 3.135 
123 1 3.775 6.213 9.824 
129 1 6.677 7.002 0.765 
132 1 6.747 9.395 8.653 
135 1 7.437 6.931 7.479 
141 1 7.244 6.231 10.993 
144 1 6.47 8.606 9.849 
148 1 3.567 7.818 0.79 
7 1 9.22 6.004 11.865 
10 1 3.558 10.029 21.647 
13 1 2.261 9.954 22.068 
15 1 2.978 8.376 17.88 
28 1 3.5 9.862 20.131 
30 1 4.369 8.568 19.728 
34 1 4.308 6.159 18.554 
40 1 7.76 8.511 11.865 
49 1 4.857 7.722 20.924 
50 1 1.984 9.314 18.554 
58 1 1.491 10.146 11.84 
59 1 4.097 7.793 14.209 
69 1 3.558 10.029 11.117 
73 1 2.978 8.376 14.883 
75 1 5.064 6.118 11.84 
79 1 7.244 6.231 21.771 
82 1 7.967 6.906 20.899 
86 1 3.5 9.862 12.633 
88 1 2.256 10.089 13.035 
108 1 9.22 6.004 20.899 
112 1 4.369 8.568 13.035 
115 1 4.308 6.159 14.209 
124 1 4.857 7.722 11.84 
125 1 1.984 9.314 14.209 
126 1 6.846 9.307 21.771 
128 1 7.76 8.511 20.899 
139 1 1.491 10.146 20.924 
140 1 4.097 7.793 18.554 
143 1 7.967 6.906 11.865 
146 1 4.29 8.493 22.068 
149 1 5.064 6.118 20.924 
157 1 2.256 10.089 19.728 
ITEM: TIMESTEP
10
ITEM: NUMBER OF ATOMS
161
ITEM: BOX BOUNDS xy xz yz pp pp pp
-6.7755000000000001e+00 1.3552000000000000e+01 -6.7755000000000001e+00
0.0000000000000000e+00 1.1735510246683001e+01 0.0000000000000000e+00
0.0000000000000000e+00 2.2149999999999999e+01 0.0000000000000000e+00
ITEM: ATOMS id type x y z 
8 1 -2.40235 5.3818 9.87032 
87 1 2.95723 4.26274 10.6519 
90 1 2.67053 5.45344 9.77335 
109 1 -2.40346 5.35209 0.778805 
158 1 2.67153 5.45037 0.840834 
11 1 4.29862 4.19512 20.1483 
14 1 2.90304 4.10995 19.6987 
18 1 1.31811 5.85113 18.597 
33 1 2.11794 4.25543 20.9187 
43 1 4.31257 4.13452 21.5713 
47 1 3.24857 5.79595 17.8415 
52 1 4.28647 4.19309 12.6237 
76 1 2.43052 4.89859 14.1796 
85 1 4.31043 4.13156 11.1901 
89 1 3.26182 5.79755 14.9246 
91 1 0.978815 5.10107 11.8631 
102 1 2.90827 4.12043 13.0592 
105 1 1.31423 5.85644 14.1636 
114 1 2.12358 4.25034 11.8572 
150 1 2.43214 4.90344 18.571 
156 1 2.95737 4.26298 22.1096 
159 1 0.981692 5.09794 20.8999 
5 1 -4.92434 10.5972 8.61303 
9 1 -3.35505 8.88018 7.51723 
19 1 -1.74799 7.48901 10.5604 
21 1 -2.62028 8.75848 10.8723 
23 1 -3.34783 7.52188 6.8456 
25 1 -4.16309 10.5081 9.83159 
32 1 1.58567 6.34316 0.783398 
36 1 -1.88635 7.52074 9.08242 
38 1 -2.14061 6.20991 8.6372 
54 1 0.305878 8.51675 10.6873 
57 1 1.35246 8.00265 9.78743 
60 1 -1.75849 7.51993 0.0659893 
65 1 -3.31252 7.52903 3.7801 
78 1 -1.90528 7.55089 1.55213 
80 1 -2.56223 8.78161 1.88337 
84 1 -4.45599 9.81378 3.11882 
99 1 -2.99262 9.62284 0.79494 
100 1 -2.92586 6.25816 3.17829 
107 1 -4.91892 10.6106 2.00204 
110 1 -3.33788 8.86927 3.0938 
111 1 0.600095 5.96117 10.765 
113 1 1.58192 6.34451 9.83243 
119 1 -4.12675 10.4734 0.769313 
127 1 -2.15296 6.22246 1.98098 
131 1 -2.32021 6.1958 11.0099 
138 1 1.35411 8.00523 0.827987 
142 1 -2.55624 8.80357 8.76082 
145 1 -4.44393 9.7928 7.50136 
151 1 -4.98713 10.458 11.0529 
154 1 -3.00485 9.67377 9.846 
155 1 -2.88968 6.30626 7.44884 
12 1 2.57047 7.06964 17.1164 
17 1 0.387997 9.35409 20.9254 
24 1 -3.60958 8.37468 11.8361 
27 1 -0.252821 7.21444 21.632 
29 1 0.596542 5.96487 21.9988 
31 1 1.294 7.19465 17.898 
44 1 -0.108253 7.17397 20.1363 
46 1 0.132759 8.50918 19.7221 
51 1 -0.24655 7.21496 11.1342 
53 1 2.57362 7.07515 15.6413 
56 1 1.29675 7.19337 14.8595 
63 1 -2.31079 6.21683 21.7316 
66 1 -3.39133 6.74582 20.8563 
70 1 -0.105402 7.18 12.6292 
72 1 0.548847 5.93847 12.9692 
92 1 0.893836 8.46647 14.2527 
95 1 -4.98223 10.4454 21.7157 
98 1 -4.6872 9.22522 20.8582 
104 1 0.393799 9.3422 11.8394 
116 1 -2.61682 8.75168 21.8238 
118 1 -3.55875 8.3877 20.9203 
122 1 0.133945 8.51039 13.0327 
133 1 -3.38035 6.75087 11.9011 
136 1 0.299713 8.50934 22.0854 
147 1 0.546398 5.93818 19.7981 
153 1 -4.65961 9.25811 11.9053 
160 1 0.896301 8.4696 18.5093 
1 1 7.84001 4.93298 10.537 
4 1 9.17651 4.75458 11.0703 
20 1 7.87127 4.92999 9.06593 
42 1 9.4999 5.35342 7.36827 
67 1 9.9633 4.5426 0.760899 
77 1 7.88624 4.94361 0.0964205 
94 1 7.87987 4.94584 1.54556 
96 1 9.18273 4.65349 1.98889 
121 1 4.68809 5.43239 10.6944 
130 1 9.46215 5.42505 3.17435 
134 1 10.0105 4.53247 9.84439 
152 1 9.16682 4.62136 8.66423 
161 2 9.78328 4.63839 6.56693 
45 1 4.69011 5.44104 22.0535 
55 1 4.81926 5.47919 13.0887 
106 1 9.17762 4.78985 21.7313 
137 1 4.82832 5.48288 19.6959 
2 1 7.23786 10.5473 9.05047 
3 1 8.93176 7.65854 6.06931 
6 1 8.51573 6.5019 6.80319 
16 1 2.3437 8.68543 0.846832 
22 1 7.15631 6.18015 8.72369 
26 1 7.19448 8.43649 7.54662 
35 1 7.22385 10.5766 10.5203 
37 1 6.84578 9.28842 10.9652 
39 1 8.2806 8.92338 6.76996 
41 1 6.71524 7.02479 9.84081 
48 1 3.71188 6.37353 0.841226 
61 1 7.22577 10.5289 1.54489 
62 1 8.9707 7.64775 4.58328 
64 1 6.71165 9.22842 1.99035 
68 1 7.40243 6.96809 3.0527 
71 1 4.29587 8.54256 10.7701 
74 1 3.62449 7.77767 9.83956 
81 1 8.53233 6.40686 3.77661 
83 1 6.5479 8.44836 0.793719 
93 1 7.22922 10.5744 0.109211 
97 1 8.2707 8.93035 3.82902 
101 1 2.35304 9.95896 10.6546 
103 1 2.34454 8.67997 9.76397 
117 1 7.15171 6.17925 1.89732 
120 1 7.18213 8.42612 3.06362 
123 1 3.71429 6.37353 9.77239 
129 1 6.7285 7.0177 0.779959 
132 1 6.70708 9.23441 8.62 
135 1 7.40889 6.96967 7.54547 
141 1 7.25477 6.1757 10.9216 
144 1 6.53669 8.46502 9.83201 
148 1 3.62368 7.77989 0.777724 
7 1 9.1917 6.06145 11.935 
10 1 3.65365 9.78674 21.6178 
13 1 2.35602 9.95443 22.1113 
15 1 2.99131 8.31523 17.8928 
28 1 3.68417 9.79565 20.1347 
30 1 4.40317 8.53184 19.7917 
34 1 4.35421 6.2928 18.6193 
40 1 7.81346 8.34907 11.9175 
49 1 4.80555 7.70205 20.9122 
50 1 2.0681 9.30601 18.5009 
58 1 1.54556 10.1717 11.8418 
59 1 4.13605 7.7534 14.1382 
69 1 3.65502 9.78712 11.1632 
73 1 2.98498 8.30588 14.8647 
75 1 5.00278 6.29972 11.8614 
79 1 7.2501 6.17914 21.8424 
82 1 7.89834 6.97462 20.9123 
86 1 3.66194 9.78616 12.6209 
88 1 2.34349 10.08 13.0611 
108 1 9.1955 6.03075 20.856 
112 1 4.39776 8.54077 12.9678 
115 1 4.35154 6.29526 14.1392 
124 1 4.7978 7.72165 11.8488 
125 1 2.07973 9.31049 14.2589 
126 1 6.85501 9.2713 21.7722 
128 1 7.76934 8.35992 20.8753 
139 1 1.54417 10.1783 20.9349 
140 1 4.14242 7.75975 18.6308 
143 1 7.90943 6.93194 11.85 
146 1 4.29535 8.54552 21.9989 
149 1 4.99096 6.28529 20.9044 
157 1 2.32584 10.0904 19.6883 
ITEM: TIMESTEP
20
ITEM: NUMBER OF ATOMS
161
ITEM: BOX BOUNDS xy xz yz pp pp pp
-6.7755000000000001e+00 1.3552000000000000e+01 -6.7755000000000001e+00
0.0000000000000000e+00 1.1735510246683001e+01 0.0000000000000000e+00
0.0000000000000000e+00 2.2149999999999999e+01 0.0000000000000000e+00
ITEM: ATOMS id type x y z 
8 1 -2.43405 5.3981 9.83906 
87 1 2.95523 4.27544 10.6565 
90 1 2.65982 5.44483 9.77119 
109 1 -2.42486 5.39316 0.774411 
158 1 2.66044 5.44637 0.84052 
11 1 4.27448 4.22406 20.1161 
14 1 2.88923 4.1555 19.6868 
18 1 1.29197 5.84595 18.5787 
33 1 2.09192 4.26848 20.9086 
43 1 4.28872 4.19638 21.5672 
47 1 3.2613 5.77716 17.8348 
52 1 4.27279 4.2209 12.6418 
76 1 2.45062 4.93178 14.1803 
85 1 4.29141 4.19436 11.1987 
89 1 3.26472 5.78456 14.93 
91 1 0.964336 5.11857 11.8422 
102 1 2.88961 4.15081 13.0666 
105 1 1.28783 5.84997 14.1854 
114 1 2.09312 4.26725 11.8578 
150 1 2.4481 4.93655 18.5888 
156 1 2.95644 4.27784 22.1101 
159 1 0.96286 5.12299 20.9201 
5 1 -4.91694 10.5785 8.61718 
9 1 -3.33809 8.86666 7.52579 
19 1 -1.74581 7.49182 10.5517 
21 1 -2.63167 8.76044 10.8836 
23 1 -3.31974 7.55289 6.83315 
25 1 -4.13726 10.5053 9.8386 
32 1 1.61203 6.36736 0.771422 
36 1 -1.85694 7.54924 9.08274 
38 1 -2.15564 6.22125 8.63898 
54 1 0.319138 8.49632 10.6695 
57 1 1.368 7.98603 9.7947 
60 1 -1.75336 7.50713 0.0636944 
65 1 -3.30843 7.54639 3.78636 
78 1 -1.88091 7.56406 1.54807 
80 1 -2.55257 8.79842 1.88961 
84 1 -4.46722 9.78767 3.10741 
99 1 -2.98333 9.60061 0.778064 
100 1 -2.93997 6.28261 3.17322 
107 1 -4.91186 10.5743 1.99437 
110 1 -3.30779 8.87073 3.10487 
111 1 0.617699 5.96406 10.728 
113 1 1.61538 6.3671 9.84228 
119 1 -4.10123 10.4503 0.776367 
127 1 -2.15919 6.2385 1.98527 
131 1 -2.33648 6.21526 11.025 
138 1 1.36557 7.98507 0.817439 
142 1 -2.54261 8.79745 8.78313 
145 1 -4.44646 9.78896 7.51297 
151 1 -4.98269 10.452 11.047 
154 1 -2.99517 9.68124 9.84613 
155 1 -2.91537 6.30257 7.46698 
12 1 2.55766 7.07777 17.1575 
17 1 0.415119 9.32441 20.9102 
24 1 -3.62867 8.33859 11.8188 
27 1 -0.249557 7.19383 21.6341 
29 1 0.617242 5.96333 22.0361 
31 1 1.28154 7.18362 17.9026 
44 1 -0.134683 7.16132 20.1406 
46 1 0.144778 8.49411 19.7144 
51 1 -0.24326 7.19107 11.1301 
53 1 2.56001 7.07045 15.6064 
56 1 1.27899 7.18362 14.8631 
63 1 -2.3384 6.23713 21.7397 
66 1 -3.3945 6.78098 20.873 
70 1 -0.13438 7.15922 12.6238 
72 1 0.525558 5.93048 12.9663 
92 1 0.914878 8.44926 14.246 
95 1 -4.96329 10.4074 21.7227 
98 1 -4.66679 9.21151 20.8595 
104 1 0.415114 9.32695 11.8538 
116 1 -2.60689 8.78782 21.8018 
118 1 -3.55226 8.35056 20.9176 
122 1 0.142255 8.49527 13.0516 
133 1 -3.39888 6.76562 11.8893 
136 1 0.318799 8.49585 22.0937 
147 1 0.528363 5.92948 19.7977 
153 1 -4.66945 9.26363 11.9066 
160 1 0.916879 8.44618 18.5175 
1 1 7.84006 4.91437 10.5435 
4 1 9.14611 4.81101 11.0302 
20 1 7.85967 4.93445 9.07672 
42 1 9.49625 5.34481 7.36623 
67 1 9.95934 4.5719 0.76886 
77 1 7.85495 4.93927 0.0913025 
94 1 7.83896 4.94912 1.54489 
96 1 9.17218 4.67563 1.99145 
121 1 4.65171 5.49675 10.6907 
130 1 9.45277 5.45793 3.17192 
134 1 9.96648 4.56685 9.84749 
152 1 9.16987 4.66287 8.67104 
161 2 9.78063 4.6269 6.56001 
45 1 4.65061 5.49382 22.0779 
55 1 4.82144 5.51072 13.0584 
106 1 9.15861 4.818 21.7473 
137 1 4.81661 5.50525 19.6987 
2 1 7.25157 10.51 9.04341 
3 1 8.95701 7.65304 6.09954 
6 1 8.4855 6.48869 6.77742 
16 1 2.36277 8.69146 0.855184 
22 1 7.11779 6.19395 8.71056 
26 1 7.20103 8.4277 7.54476 
35 1 7.24558 10.522 10.4905 
37 1 6.87975 9.22507 10.9984 
39 1 8.27867 8.93151 6.74096 
41 1 6.71719 6.99861 9.84422 
48 1 3.69221 6.34671 0.82095 
61 1 7.26438 10.4985 1.56302 
62 1 8.97938 7.64544 4.57698 
64 1 6.71495 9.21789 1.98628 
68 1 7.39675 6.95873 3.05724 
71 1 4.31364 8.52236 10.7508 
74 1 3.58832 7.79334 9.81423 
81 1 8.51226 6.39766 3.79296 
83 1 6.53973 8.42456 0.803059 
93 1 7.26226 10.5313 0.118063 
97 1 8.27568 8.92723 3.84925 
101 1 2.37409 9.91523 10.676 
103 1 2.36501 8.69395 9.76127 
117 1 7.11902 6.1777 1.90859 
120 1 7.19418 8.42 3.07523 
123 1 3.68913 6.34853 9.7923 
129 1 6.71547 6.99036 0.781309 
132 1 6.71465 9.21328 8.6255 
135 1 7.39535 6.9734 7.55334 
141 1 7.22311 6.20786 10.9342 
144 1 6.54136 8.4302 9.82629 
148 1 3.58837 7.79322 0.799773 
7 1 9.1768 6.04606 11.9327 
10 1 3.68277 9.79142 21.5994 
13 1 2.37411 9.91983 22.0879 
15 1 3.02361 8.33202 17.8978 
28 1 3.69288 9.7847 20.1374 
30 1 4.42325 8.53765 19.7852 
34 1 4.33918 6.30155 18.6187 
40 1 7.84648 8.37686 11.893 
49 1 4.81417 7.73608 20.9124 
50 1 2.07958 9.27375 18.5181 
58 1 1.56347 10.1483 11.8447 
59 1 4.13593 7.76441 14.1369 
69 1 3.68095 9.7931 11.1643 
73 1 3.03055 8.3338 14.8672 
75 1 4.99168 6.29941 11.8608 
79 1 7.23027 6.20579 21.82 
82 1 7.93135 6.9483 20.8948 
86 1 3.69892 9.78048 12.6219 
88 1 2.35858 10.054 13.0636 
108 1 9.1711 6.05234 20.8463 
112 1 4.42443 8.53838 12.9784 
115 1 4.33491 6.30421 14.1524 
124 1 4.81467 7.7292 11.8526 
125 1 2.07528 9.27323 14.2516 
126 1 6.85299 9.21679 21.7404 
128 1 7.74087 8.38953 20.8821 
139 1 1.56583 10.1467 20.91 
140 1 4.13622 7.76649 18.626 
143 1 7.94081 6.92736 11.8752 
146 1 4.31378 8.52139 22.0129 
149 1 4.99232 6.29583 20.9018 
157 1 2.35656 10.0471 19.7026 
ITEM: TIMESTEP
30
ITEM: NUMBER OF ATOMS
161
ITEM: BOX BOUNDS xy xz yz pp pp pp
-6.7755000000000001e+00 1.3552000000000000e+01 -6.7755000000000001e+00
0.0000000000000000e+00 1.1735510246683001e+01 0.0000000000000000e+00
0.0000000000000000e+00 2.2149999999999999e+01 0.0000000000000000e+00
ITEM: ATOMS id type x y z 
8 1 -2.44079 5.41034 9.8446 
87 1 2.95062 4.28459 10.6532 
90 1 2.64909 5.43961 9.76239 
109 1 -2.43693 5.42028 0.780552 
158 1 2.64842 5.44106 0.852069 
11 1 4.26965 4.23606 20.114 
14 1 2.87642 4.15507 19.7111 
18 1 1.29428 5.84982 18.5679 
33 1 2.0868 4.2756 20.9016 
43 1 4.2839 4.2187 21.5534 
47 1 3.2402 5.80254 17.8285 
52 1 4.26987 4.23772 12.6483 
76 1 2.43474 4.92871 14.1833 
85 1 4.28375 4.21831 11.2092 
89 1 3.24278 5.79978 14.9356 
91 1 0.951807 5.1271 11.8416 
102 1 2.87704 4.15718 13.0546 
105 1 1.29458 5.84965 14.1947 
114 1 2.08565 4.27382 11.8609 
150 1 2.4334 4.92863 18.5798 
156 1 2.95249 4.28514 22.1118 
159 1 0.951624 5.12859 20.9233 
5 1 -4.90942 10.5745 8.62729 
9 1 -3.33513 8.86974 7.53435 
19 1 -1.74051 7.49981 10.5531 
21 1 -2.61709 8.76537 10.8786 
23 1 -3.30629 7.54829 6.82844 
25 1 -4.13059 10.5115 9.83385 
32 1 1.60018 6.37553 0.787263 
36 1 -1.8395 7.55444 9.07707 
38 1 -2.15528 6.23779 8.63361 
54 1 0.323266 8.48949 10.6748 
57 1 1.37127 7.98303 9.7918 
60 1 -1.75514 7.52311 0.0555688 
65 1 -3.3051 7.54998 3.79819 
78 1 -1.86866 7.57095 1.55173 
80 1 -2.53467 8.79781 1.8981 
84 1 -4.45818 9.78824 3.10959 
99 1 -2.96667 9.60215 0.77154 
100 1 -2.94183 6.29148 3.17063 
107 1 -4.89262 10.5639 1.98128 
110 1 -3.30977 8.87496 3.11851 
111 1 0.60429 5.9592 10.7229 
113 1 1.60067 6.37467 9.82643 
119 1 -4.10506 10.4458 0.781581 
127 1 -2.16009 6.24701 1.9745 
131 1 -2.34161 6.21884 11.0187 
138 1 1.37059 7.983 0.821903 
142 1 -2.53707 8.80349 8.78158 
145 1 -4.43627 9.78768 7.50929 
151 1 -4.98143 10.4456 11.0518 
154 1 -2.97965 9.68451 9.84881 
155 1 -2.92185 6.31764 7.46749 
12 1 2.56615 7.0754 17.1496 
17 1 0.418267 9.30425 20.9083 
24 1 -3.61901 8.33283 11.8266 
27 1 -0.248689 7.18138 21.639 
29 1 0.601169 5.96262 22.04 
31 1 1.27999 7.18023 17.8956 
44 1 -0.145064 7.15087 20.14 
46 1 0.138662 8.47823 19.7183 
51 1 -0.244295 7.18016 11.127 
53 1 2.5656 7.07469 15.6129 
56 1 1.28093 7.18304 14.8676 
63 1 -2.34067 6.24121 21.7532 
66 1 -3.39556 6.78449 20.8696 
70 1 -0.144065 7.15152 12.6265 
72 1 0.516357 5.92457 12.9746 
92 1 0.918129 8.4426 14.2462 
95 1 -4.96326 10.3843 21.7279 
98 1 -4.6683 9.19842 20.8467 
104 1 0.418308 9.30481 11.8562 
116 1 -2.57809 8.77841 21.7955 
118 1 -3.53185 8.34635 20.9054 
122 1 0.13774 8.47861 13.0461 
133 1 -3.39503 6.77479 11.889 
136 1 0.321059 8.48798 22.0887 
147 1 0.517029 5.92555 19.7895 
153 1 -4.65192 9.27 11.912 
160 1 0.917838 8.44229 18.5182 
1 1 7.81596 4.91531 10.5491 
4 1 9.13018 4.82231 11.0254 
20 1 7.84128 4.94844 9.06807 
42 1 9.48222 5.3441 7.34676 
67 1 9.95694 4.59125 0.772499 
77 1 7.83075 4.9403 0.0835035 
94 1 7.82288 4.94261 1.54873 
96 1 9.15532 4.6916 1.99602 
121 1 4.64366 5.50716 10.6872 
130 1 9.44291 5.46763 3.16869 
134 1 9.95472 4.57906 9.85112 
152 1 9.14996 4.67481 8.66863 
161 2 9.77855 4.62027 6.55639 
45 1 4.64324 5.50563 22.0764 
55 1 4.8167 5.52808 13.0642 
106 1 9.14377 4.83622 21.7504 
137 1 4.81819 5.5288 19.7 
2 1 7.25675 10.4947 9.03725 
3 1 8.95924 7.65258 6.10533 
6 1 8.47711 6.48166 6.77231 
16 1 2.36595 8.69947 0.864484 
22 1 7.10393 6.18532 8.70432 
26 1 7.19865 8.42229 7.53524 
35 1 7.24991 10.4988 10.4797 
37 1 6.88598 9.2147 11.0036 
39 1 8.29196 8.92341 6.7339 
41 1 6.70763 6.98547 9.8325 
48 1 3.70046 6.35409 0.836747 
61 1 7.27177 10.4844 1.56218 
62 1 8.97741 7.64127 4.58124 
64 1 6.71588 9.1963 1.9899 
68 1 7.38666 6.95852 3.06412 
71 1 4.31926 8.51992 10.7418 
74 1 3.59694 7.79954 9.80476 
81 1 8.50866 6.40121 3.80536 
83 1 6.53882 8.40511 0.805683 
93 1 7.26157 10.5096 0.123446 
97 1 8.29174 8.91207 3.85784 
101 1 2.39358 9.90921 10.6852 
103 1 2.36668 8.69839 9.74881 
117 1 7.09404 6.17604 1.91454 
120 1 7.19775 8.412 3.08009 
123 1 3.70191 6.35335 9.77788 
129 1 6.7029 6.98827 0.780231 
132 1 6.71414 9.19935 8.62461 
135 1 7.39542 6.96898 7.5486 
141 1 7.21365 6.20263 10.9463 
144 1 6.53934 8.41152 9.82302 
148 1 3.59588 7.80004 0.810051 
7 1 9.1678 6.0341 11.9417 
10 1 3.70402 9.79069 21.6006 
13 1 2.394 9.90859 22.0787 
15 1 3.02362 8.32927 17.8865 
28 1 3.71296 9.7799 20.1398 
30 1 4.44123 8.54531 19.7775 
34 1 4.3349 6.31202 18.6118 
40 1 7.83588 8.37071 11.908 
49 1 4.8271 7.73529 20.9131 
50 1 2.08653 9.26393 18.5192 
58 1 1.57431 10.1367 11.849 
59 1 4.14939 7.76407 14.137 
69 1 3.70444 9.79169 11.1622 
73 1 3.02302 8.32924 14.877 
75 1 4.99309 6.31562 11.8671 
79 1 7.21663 6.20717 21.819 
82 1 7.91997 6.95291 20.8792 
86 1 3.71237 9.77947 12.6242 
88 1 2.38003 10.0355 13.0734 
108 1 9.16234 6.05363 20.8424 
112 1 4.44293 8.54508 12.9877 
115 1 4.33516 6.31238 14.1522 
124 1 4.82772 7.73839 11.8502 
125 1 2.08692 9.26472 14.2435 
126 1 6.8581 9.21724 21.75 
128 1 7.74758 8.37684 20.8633 
139 1 1.57355 10.1362 20.9161 
140 1 4.15014 7.76453 18.6269 
143 1 7.93351 6.92311 11.8901 
146 1 4.32012 8.52009 22.0218 
149 1 4.99015 6.3143 20.8953 
157 1 2.38006 10.0363 19.6899 
ITEM: TIMESTEP
40
ITEM: NUMBER OF ATOMS
161
ITEM: BOX BOUNDS xy xz yz pp pp pp
-6.7755000000000001e+00 1.3552000000000000e+01 -6.7755000000000001e+00
0.0000000000000000e+00 1.1735510246683001e+01 0.0000000000000000e+00
0.0000000000000000e+00 2.2149999999999999e+01 0.0000000000000000e+00
ITEM: ATOMS id type x y z 
8 1 -2.46748 5.43911 9.83629 
87 1 2.93469 4.31028 10.6498 
90 1 2.63361 5.44827 9.73787 
109 1 -2.4607 5.45754 0.787074 
158 1 2.63346 5.45007 0.875898 
11 1 4.25187 4.27707 20.0989 
14 1 2.85073 4.18242 19.71 
18 1 1.27188 5.8449 18.5568 
33 1 2.06566 4.29671 20.9121 
43 1 4.25926 4.27127 21.5331 
47 1 3.23237 5.79587 17.8317 
52 1 4.25225 4.27615 12.6656 
76 1 2.41103 4.9332 14.1934 
85 1 4.25939 4.27129 11.2282 
89 1 3.23468 5.79845 14.9348 
91 1 0.926107 5.13671 11.8345 
102 1 2.85318 4.18078 13.0496 
105 1 1.27074 5.84859 14.2083 
114 1 2.06597 4.29374 11.8533 
150 1 2.41282 4.94051 18.5718 
156 1 2.93383 4.31192 22.1131 
159 1 0.926865 5.13844 20.9304 
5 1 -4.88935 10.5584 8.63297 
9 1 -3.31949 8.86958 7.53995 
19 1 -1.73365 7.51614 10.5455 
21 1 -2.595 8.77228 10.8817 
23 1 -3.2984 7.55101 6.82124 
25 1 -4.10875 10.5102 9.84042 
32 1 1.58489 6.38218 0.811688 
36 1 -1.80703 7.5757 9.06859 
38 1 -2.16039 6.26451 8.6316 
54 1 0.341556 8.46467 10.6769 
57 1 1.38628 7.97965 9.78344 
60 1 -1.74747 7.54789 0.0557295 
65 1 -3.30419 7.55239 3.81193 
78 1 -1.83895 7.5976 1.55722 
80 1 -2.50472 8.81294 1.9141 
84 1 -4.4359 9.77668 3.12105 
99 1 -2.92839 9.59133 0.763281 
100 1 -2.94708 6.30627 3.16655 
107 1 -4.8704 10.5326 1.97402 
110 1 -3.28545 8.87862 3.13241 
111 1 0.588363 5.95554 10.7021 
113 1 1.58693 6.38153 9.80246 
119 1 -4.07866 10.4177 0.772869 
127 1 -2.15486 6.28 1.97896 
131 1 -2.35858 6.2426 11.0131 
138 1 1.38623 7.97939 0.831801 
142 1 -2.50923 8.81579 8.78375 
145 1 -4.41837 9.78451 7.50896 
151 1 -4.96945 10.4238 11.0499 
154 1 -2.9538 9.69857 9.85797 
155 1 -2.9383 6.32202 7.47633 
12 1 2.5699 7.06724 17.1498 
17 1 0.441783 9.26802 20.9012 
24 1 -3.60285 8.3284 11.8307 
27 1 -0.248919 7.15767 21.6432 
29 1 0.583616 5.95786 22.0625 
31 1 1.28414 7.18422 17.8888 
44 1 -0.170717 7.12165 20.137 
46 1 0.130069 8.44577 19.7173 
51 1 -0.245711 7.15696 11.1224 
53 1 2.5721 7.06626 15.6165 
56 1 1.28293 7.18519 14.8734 
63 1 -2.35446 6.26563 21.7566 
66 1 -3.39972 6.79516 20.8623 
70 1 -0.170688 7.12179 12.6298 
72 1 0.48597 5.91102 12.9882 
92 1 0.916378 8.43337 14.2384 
95 1 -4.94989 10.3402 21.7273 
98 1 -4.65061 9.1651 20.8247 
104 1 0.441676 9.26822 11.8619 
116 1 -2.5388 8.78985 21.7749 
118 1 -3.49715 8.33889 20.8849 
122 1 0.129966 8.44698 13.0473 
133 1 -3.40708 6.7801 11.8878 
136 1 0.340041 8.46444 22.0885 
147 1 0.486369 5.91159 19.7748 
153 1 -4.63656 9.26437 11.9269 
160 1 0.916873 8.43165 18.5255 
1 1 7.75829 4.90024 10.5518 
4 1 9.09238 4.85176 11.0131 
20 1 7.80501 4.96458 9.06685 
42 1 9.46175 5.34594 7.32589 
67 1 9.92855 4.63796 0.780588 
77 1 7.77085 4.93072 0.0788368 
94 1 7.77431 4.94873 1.54951 
96 1 9.11409 4.7239 1.99412 
121 1 4.62218 5.54389 10.6841 
130 1 9.4266 5.4911 3.16448 
134 1 9.91952 4.62177 9.84151 
152 1 9.11348 4.71265 8.66141 
161 2 9.77219 4.60529 6.54918 
45 1 4.62259 5.54444 22.0787 
55 1 4.81276 5.56177 13.0709 
106 1 9.10747 4.87907 21.7611 
137 1 4.81393 5.55956 19.6935 
2 1 7.27052 10.4522 9.02286 
3 1 8.96712 7.6525 6.11839 
6 1 8.47768 6.46535 6.76126 
16 1 2.3828 8.7052 0.880064 
22 1 7.06171 6.17246 8.67543 
26 1 7.19977 8.40732 7.51258 
35 1 7.26497 10.4477 10.4624 
37 1 6.90786 9.17484 11.0064 
39 1 8.30754 8.91998 6.73171 
41 1 6.68634 6.95415 9.83171 
48 1 3.68459 6.36196 0.866374 
61 1 7.28961 10.4476 1.57507 
62 1 8.97359 7.64648 4.59677 
64 1 6.72586 9.16317 1.99539 
68 1 7.36661 6.9452 3.07918 
71 1 4.34133 8.51493 10.7253 
74 1 3.60374 7.81113 9.77775 
81 1 8.49882 6.4087 3.82 
83 1 6.52934 8.37944 0.807865 
93 1 7.28735 10.4531 0.140668 
97 1 8.30589 8.90132 3.86604 
101 1 2.42852 9.88089 10.6999 
103 1 2.38316 8.70435 9.73419 
117 1 7.04463 6.15907 1.93588 
120 1 7.20401 8.39092 3.09909 
123 1 3.68472 6.36242 9.74724 
129 1 6.6716 6.96178 0.784438 
132 1 6.71629 9.16311 8.61932 
135 1 7.38415 6.96125 7.53715 
141 1 7.18386 6.20894 10.9669 
144 1 6.53939 8.37977 9.82316 
148 1 3.60389 7.81062 0.836431 
7 1 9.15041 6.03235 11.9563 
10 1 3.75928 9.80041 21.6039 
13 1 2.42875 9.88114 22.0638 
15 1 3.03414 8.32732 17.8828 
28 1 3.76174 9.77454 20.1376 
30 1 4.49231 8.5597 19.7592 
34 1 4.32714 6.33141 18.5925 
40 1 7.85531 8.36255 11.9373 
49 1 4.85461 7.76345 20.9134 
50 1 2.09868 9.24615 18.5245 
58 1 1.60023 10.0959 11.8599 
59 1 4.16818 7.77702 14.1501 
69 1 3.76141 9.80283 11.1592 
73 1 3.03431 8.32781 14.8801 
75 1 4.99523 6.34132 11.8662 
79 1 7.18727 6.21437 21.8064 
82 1 7.89421 6.94261 20.8485 
86 1 3.7616 9.77432 12.6268 
88 1 2.42144 10.0086 13.0708 
108 1 9.13932 6.06931 20.8373 
112 1 4.49271 8.56038 13.0046 
115 1 4.33066 6.33271 14.1689 
124 1 4.85814 7.76661 11.8503 
125 1 2.09822 9.24715 14.2394 
126 1 6.86207 9.17844 21.7421 
128 1 7.74476 8.36616 20.84 
139 1 1.6005 10.0957 20.9041 
140 1 4.16826 7.77786 18.6134 
143 1 7.92256 6.91044 11.9165 
146 1 4.34114 8.51434 22.0391 
149 1 4.99231 6.34039 20.8982 
157 1 2.42063 10.0085 19.6921 
ITEM: TIMESTEP
50
ITEM: NUMBER OF ATOMS
161
ITEM: BOX BOUNDS xy xz yz pp pp pp
-6.7755000000000001e+00 1.3552000000000000e+01 -6.7755000000000001e+00
0.0000000000000000e+00 1.1735510246683001e+01 0.0000000000000000e+00
0.0000000000000000e+00 2.2149999999999999e+01 0.0000000000000000e+00
ITEM: ATOMS id type x y z 
8 1 -2.47607 5.45018 9.83654 
87 1 2.92817 4.3196 10.6462 
90 1 2.62811 5.45207 9.72824 
109 1 -2.46853 5.47135 0.789562 
158 1 2.62685 5.45214 0.885122 
11 1 4.24419 4.28906 20.0942 
14 1 2.84473 4.18778 19.7138 
18 1 1.26329 5.8508 18.5525 
33 1 2.06031 4.29965 20.913 
43 1 4.24856 4.28814 21.5335 
47 1 3.22885 5.79739 17.8318 
52 1 4.24535 4.2898 12.6676 
76 1 2.40236 4.93205 14.1951 
85 1 4.24979 4.28671 11.2315 
89 1 3.23007 5.79587 14.9317 
91 1 0.914267 5.13808 11.8314 
102 1 2.84392 4.18789 13.0525 
105 1 1.26327 5.84889 14.211 
114 1 2.06059 4.29813 11.8508 
150 1 2.40101 4.93076 18.5694 
156 1 2.92694 4.31936 22.1173 
159 1 0.913177 5.14117 20.9328 
5 1 -4.8832 10.5543 8.6348 
9 1 -3.31327 8.86795 7.54169 
19 1 -1.72995 7.52107 10.5395 
21 1 -2.58909 8.77742 10.8802 
23 1 -3.29641 7.54671 6.82637 
25 1 -4.10363 10.5102 9.84252 
32 1 1.58275 6.38418 0.820928 
36 1 -1.79928 7.57952 9.06831 
38 1 -2.1573 6.27085 8.63185 
54 1 0.349103 8.45544 10.6771 
57 1 1.39294 7.97829 9.77803 
60 1 -1.74339 7.55421 0.0594509 
65 1 -3.30223 7.55121 3.81213 
78 1 -1.82783 7.6056 1.56024 
80 1 -2.49298 8.82048 1.91694 
84 1 -4.42779 9.77808 3.12161 
99 1 -2.91238 9.59013 0.760858 
100 1 -2.94644 6.3073 3.16769 
107 1 -4.86051 10.5226 1.97356 
110 1 -3.27797 8.87593 3.1382 
111 1 0.583826 5.95382 10.6991 
113 1 1.58424 6.38269 9.79267 
119 1 -4.07401 10.4078 0.770199 
127 1 -2.15206 6.28795 1.9782 
131 1 -2.36608 6.25098 11.0115 
138 1 1.39379 7.97789 0.837542 
142 1 -2.50042 8.82566 8.78255 
145 1 -4.409 9.78586 7.5092 
151 1 -4.9646 10.4156 11.052 
154 1 -2.94053 9.70162 9.86104 
155 1 -2.94002 6.32146 7.47506 
12 1 2.57677 7.06345 17.1479 
17 1 0.450199 9.25503 20.9003 
24 1 -3.59936 8.32765 11.8325 
27 1 -0.249127 7.15248 21.6403 
29 1 0.580353 5.95598 22.0664 
31 1 1.27976 7.1876 17.893 
44 1 -0.182724 7.11505 20.1377 
46 1 0.127516 8.43808 19.7179 
51 1 -0.247194 7.15046 11.1252 
53 1 2.57519 7.06492 15.6134 
56 1 1.28048 7.18728 14.8724 
63 1 -2.35964 6.27611 21.756 
66 1 -3.40116 6.79911 20.8595 
70 1 -0.18235 7.11554 12.629 
72 1 0.476623 5.90301 12.992 
92 1 0.916933 8.43115 14.2399 
95 1 -4.94079 10.324 21.7229 
98 1 -4.64588 9.15493 20.8185 
104 1 0.449376 9.25482 11.8634 
116 1 -2.52917 8.79395 21.7709 
118 1 -3.48711 8.33542 20.8762 
122 1 0.127059 8.4386 13.0463 
133 1 -3.41577 6.7805 11.8897 
136 1 0.347857 8.45475 22.088 
147 1 0.477486 5.9028 19.772 
153 1 -4.63044 9.26025 11.9322 
160 1 0.91625 8.43079 18.5245 
1 1 7.73714 4.89594 10.5572 
4 1 9.07365 4.86031 11.013 
20 1 7.78814 4.96597 9.06712 
42 1 9.46195 5.34087 7.32052 
67 1 9.91664 4.6558 0.779812 
77 1 7.74495 4.91465 0.0759269 
94 1 7.75984 4.95475 1.54893 
96 1 9.09557 4.73211 1.99488 
121 1 4.6144 5.55697 10.6846 
130 1 9.4219 5.49593 3.16425 
134 1 9.9072 4.63611 9.83895 
152 1 9.09891 4.71965 8.6562 
161 2 9.76931 4.5997 6.54667 
45 1 4.61478 5.55635 22.0805 
55 1 4.81226 5.57175 13.0728 
106 1 9.09125 4.89419 21.7646 
137 1 4.81136 5.57044 19.6881 
2 1 7.27701 10.4392 9.02033 
3 1 8.96412 7.65865 6.11884 
6 1 8.47685 6.4676 6.76081 
16 1 2.3869 8.70561 0.883407 
22 1 7.04669 6.16783 8.67304 
26 1 7.199 8.40092 7.50756 
35 1 7.27301 10.4332 10.46 
37 1 6.91415 9.16034 11.0059 
39 1 8.30998 8.92386 6.73566 
41 1 6.67457 6.94689 9.83101 
48 1 3.67808 6.36686 0.874553 
61 1 7.2982 10.434 1.58095 
62 1 8.97223 7.6515 4.5965 
64 1 6.72737 9.15281 1.9987 
68 1 7.35842 6.93524 3.08487 
71 1 4.35151 8.51067 10.7206 
74 1 3.6115 7.81739 9.77175 
81 1 8.49497 6.40901 3.82076 
83 1 6.52592 8.37374 0.808501 
93 1 7.29547 10.4348 0.143673 
97 1 8.30783 8.90533 3.86398 
101 1 2.44086 9.87105 10.7034 
103 1 2.38766 8.70432 9.73041 
117 1 7.02953 6.15177 1.9432 
120 1 7.20523 8.38671 3.10493 
123 1 3.67809 6.36704 9.73845 
129 1 6.6588 6.95164 0.786882 
132 1 6.71719 9.15106 8.61591 
135 1 7.3794 6.95251 7.5291 
141 1 7.17694 6.20302 10.9697 
144 1 6.54035 8.37279 9.82286 
148 1 3.61075 7.81709 0.843729 
7 1 9.14496 6.0367 11.9563 
10 1 3.78388 9.81935 21.6088 
13 1 2.43888 9.87053 22.0602 
15 1 3.03651 8.3256 17.8816 
28 1 3.77484 9.77025 20.1326 
30 1 4.50752 8.56793 19.753 
34 1 4.3306 6.33588 18.5894 
40 1 7.86249 8.35757 11.9448 
49 1 4.86557 7.77431 20.9131 
50 1 2.10182 9.24218 18.5259 
58 1 1.61141 10.0819 11.8601 
59 1 4.17735 7.78714 14.1535 
69 1 3.78575 9.82078 11.1546 
73 1 3.03846 8.32646 14.8824 
75 1 4.99556 6.3492 11.8651 
79 1 7.17408 6.21579 21.8046 
82 1 7.88601 6.93638 20.8404 
86 1 3.77554 9.77063 12.6295 
88 1 2.43897 10.0013 13.0728 