LAMMPS (3 Mar 2020)
# Alpha
clear
units		real
dimension 3
boundary        p p p
atom_style	charge
newton on
read_data       OOH_3.lmp
  orthogonal box = (0 0 0) to (18.762 18.762 18.761)
  2 by 2 by 2 MPI processor grid
  reading atoms ...
  131 atoms
  read_data CPU = 0.00379252 secs

timestep 0.25

# ---------- Define Interatomic Potential ---------------------
pair_style      reax/c NULL checkqeq no
pair_coeff      * * ffield.reax C H O
WARNING: Changed valency_val to valency_boc for X (../reaxc_ffield.cpp:315)
fix             2 all qeq/reax 1 0.0 10.0 1.0e-6 reax/c

#------------ Equilibration of the system -------------------------
reset_timestep 0

dump 1 all custom 10 min.lammpstrj id type x y z

minimize 1.0e-8 1.0e-8 100000 100000
WARNING: Using 'neigh_modify every 1 delay 0 check yes' setting during minimization (../min.cpp:190)
Neighbor list info ...
  update every 1 steps, delay 0 steps, check yes
  max neighbors/atom: 2000, page size: 100000
  master list distance cutoff = 12
  ghost atom cutoff = 12
  binsize = 6, bins = 4 4 4
  2 neighbor lists, perpetual/occasional/extra = 2 0 0
  (1) pair reax/c, perpetual
      attributes: half, newton off, ghost
      pair build: half/bin/newtoff/ghost
      stencil: half/ghost/bin/3d/newtoff
      bin: standard
  (2) fix qeq/reax, perpetual, copy from (1)
      attributes: half, newton off, ghost
      pair build: copy
      stencil: none
      bin: none
Per MPI rank memory allocation (min/avg/max) = 17.82 | 17.95 | 18.13 Mbytes
Step Temp E_pair E_mol TotEng Press 
       0            0   -22894.737            0   -22894.737   -66827.241 
      43            0   -23021.396            0   -23021.396    -4992.185 
Loop time of 0.72691 on 8 procs for 43 steps with 131 atoms

99.3% CPU use with 8 MPI tasks x no OpenMP threads

Minimization stats:
  Stopping criterion = linesearch alpha is zero
  Energy initial, next-to-last, final = 
         -22894.737023     -23021.3961468     -23021.3961453
  Force two-norm initial, final = 2471.48 109.472
  Force max component initial, final = 341.806 62.8986
  Final line search alpha, max atom move = 7.40337e-13 4.65662e-11
  Iterations, force evaluations = 43 349

MPI task timing breakdown:
Section |  min time  |  avg time  |  max time  |%varavg| %total
---------------------------------------------------------------
Pair    | 0.52153    | 0.52657    | 0.53528    |   0.6 | 72.44
Neigh   | 0          | 0          | 0          |   0.0 |  0.00
Comm    | 0.011072   | 0.019811   | 0.024917   |   3.0 |  2.73
Output  | 0.0001091  | 0.00013048 | 0.0001948  |   0.0 |  0.02
Modify  | 0.17815    | 0.1783     | 0.17844    |   0.0 | 24.53
Other   |            | 0.002098   |            |       |  0.29

Nlocal:    16.375 ave 19 max 16 min
Histogram: 7 0 0 0 0 0 0 0 0 1
Nghost:    537.125 ave 548 max 527 min
Histogram: 1 1 0 0 4 0 0 0 0 2
Neighs:    2195.38 ave 2540 max 2112 min
Histogram: 4 3 0 0 0 0 0 0 0 1

Total # of neighbors = 17563
Ave neighs/atom = 134.069
Neighbor list builds = 0
Dangerous builds = 0

###
min_style cg
minimize 1.0e-8 1.0e-8 100000 100000
WARNING: Using 'neigh_modify every 1 delay 0 check yes' setting during minimization (../min.cpp:190)
Per MPI rank memory allocation (min/avg/max) = 17.82 | 17.95 | 18.13 Mbytes
Step Temp E_pair E_mol TotEng Press 
      43            0   -23021.396            0   -23021.396   -4992.1853 
      44            0   -23021.396            0   -23021.396   -4992.1854 
Loop time of 0.0933309 on 8 procs for 1 steps with 131 atoms

99.3% CPU use with 8 MPI tasks x no OpenMP threads

Minimization stats:
  Stopping criterion = linesearch alpha is zero
  Energy initial, next-to-last, final = 
         -23021.396145      -23021.396145     -23021.3961454
  Force two-norm initial, final = 109.472 109.472
  Force max component initial, final = 62.8986 62.8986
  Final line search alpha, max atom move = 7.40337e-13 4.65661e-11
  Iterations, force evaluations = 1 51

MPI task timing breakdown:
Section |  min time  |  avg time  |  max time  |%varavg| %total
---------------------------------------------------------------
Pair    | 0.075023   | 0.076064   | 0.077752   |   0.3 | 81.50
Neigh   | 0          | 0          | 0          |   0.0 |  0.00
Comm    | 0.0010444  | 0.0027275  | 0.0037747  |   1.6 |  2.92
Output  | 0          | 0          | 0          |   0.0 |  0.00
Modify  | 0.014202   | 0.014234   | 0.014258   |   0.0 | 15.25
Other   |            | 0.0003053  |            |       |  0.33

Nlocal:    16.375 ave 19 max 16 min
Histogram: 7 0 0 0 0 0 0 0 0 1
Nghost:    537.125 ave 548 max 527 min
Histogram: 1 1 0 0 4 0 0 0 0 2
Neighs:    2175.38 ave 2517 max 2087 min
Histogram: 3 4 0 0 0 0 0 0 0 1

Total # of neighbors = 17403
Ave neighs/atom = 132.847
Neighbor list builds = 0
Dangerous builds = 0

###
fix 1 all box/relax aniso 0.0
min_style cg
minimize 1.0e-8 1.0e-8 100000 100000
WARNING: Using 'neigh_modify every 1 delay 0 check yes' setting during minimization (../min.cpp:190)
Per MPI rank memory allocation (min/avg/max) = 17.82 | 17.95 | 18.13 Mbytes
Step Temp E_pair E_mol TotEng Press Volume 
      44            0   -23021.396            0   -23021.396   -4992.1846    6604.1092 
      51            0   -23021.569            0   -23021.569   -440.53108    6599.1907 
Loop time of 0.071698 on 8 procs for 7 steps with 131 atoms

99.1% CPU use with 8 MPI tasks x no OpenMP threads

Minimization stats:
  Stopping criterion = energy tolerance
  Energy initial, next-to-last, final = 
        -23021.3961445     -23021.5685092     -23021.5686445
  Force two-norm initial, final = 848.255 220.745
  Force max component initial, final = 551.211 142.312
  Final line search alpha, max atom move = 2.72697e-09 3.88082e-07
  Iterations, force evaluations = 7 37

MPI task timing breakdown:
Section |  min time  |  avg time  |  max time  |%varavg| %total
---------------------------------------------------------------
Pair    | 0.057812   | 0.05857    | 0.059413   |   0.2 | 81.69
Neigh   | 0          | 0          | 0          |   0.0 |  0.00
Comm    | 0.0019352  | 0.002784   | 0.0035417  |   0.9 |  3.88
Output  | 2.6069e-05 | 3.0958e-05 | 4.4463e-05 |   0.0 |  0.04
Modify  | 0.0094097  | 0.0096253  | 0.0096777  |   0.1 | 13.42
Other   |            | 0.0006879  |            |       |  0.96

Nlocal:    16.375 ave 19 max 16 min
Histogram: 7 0 0 0 0 0 0 0 0 1
Nghost:    537.125 ave 548 max 527 min
Histogram: 1 1 0 0 4 0 0 0 0 2
Neighs:    2175.38 ave 2517 max 2087 min
Histogram: 3 4 0 0 0 0 0 0 0 1

Total # of neighbors = 17403
Ave neighs/atom = 132.847
Neighbor list builds = 0
Dangerous builds = 0

unfix 1
###
min_style cg
minimize 1.0e-8 1.0e-8 100000 100000
WARNING: Using 'neigh_modify every 1 delay 0 check yes' setting during minimization (../min.cpp:190)
Per MPI rank memory allocation (min/avg/max) = 17.82 | 17.95 | 18.13 Mbytes
Step Temp E_pair E_mol TotEng Press 
      51            0   -23021.569            0   -23021.569   -440.52783 
      52            0   -23021.569            0   -23021.569   -440.52813 
Loop time of 0.109962 on 8 procs for 1 steps with 131 atoms

99.3% CPU use with 8 MPI tasks x no OpenMP threads

Minimization stats:
  Stopping criterion = energy tolerance
  Energy initial, next-to-last, final = 
         -23021.568641      -23021.568641     -23021.5686418
  Force two-norm initial, final = 163.231 163.231
  Force max component initial, final = 80.8065 80.8065
  Final line search alpha, max atom move = 1.15253e-12 9.31323e-11
  Iterations, force evaluations = 1 58

MPI task timing breakdown:
Section |  min time  |  avg time  |  max time  |%varavg| %total
---------------------------------------------------------------
Pair    | 0.088755   | 0.089995   | 0.091628   |   0.3 | 81.84
Neigh   | 0          | 0          | 0          |   0.0 |  0.00
Comm    | 0.0012764  | 0.002914   | 0.0041657  |   1.5 |  2.65
Output  | 0          | 0          | 0          |   0.0 |  0.00
Modify  | 0.016697   | 0.016728   | 0.016755   |   0.0 | 15.21
Other   |            | 0.0003247  |            |       |  0.30

Nlocal:    16.375 ave 19 max 16 min
Histogram: 7 0 0 0 0 0 0 0 0 1
Nghost:    537.125 ave 548 max 527 min
Histogram: 1 1 0 0 4 0 0 0 0 2
Neighs:    2189.38 ave 2525 max 2108 min
Histogram: 4 3 0 0 0 0 0 0 0 1

Total # of neighbors = 17515
Ave neighs/atom = 133.702
Neighbor list builds = 0
Dangerous builds = 0

###
fix 1 all box/relax aniso 0.0
min_style cg
minimize 1.0e-8 1.0e-8 100000 100000
WARNING: Using 'neigh_modify every 1 delay 0 check yes' setting during minimization (../min.cpp:190)
Per MPI rank memory allocation (min/avg/max) = 17.82 | 17.95 | 18.13 Mbytes
Step Temp E_pair E_mol TotEng Press Volume 
      52            0   -23021.569            0   -23021.569   -440.53122    6599.1907 
      53            0   -23021.569            0   -23021.569   -439.32708    6599.1901 
Loop time of 0.0403127 on 8 procs for 1 steps with 131 atoms

99.3% CPU use with 8 MPI tasks x no OpenMP threads

Minimization stats:
  Stopping criterion = energy tolerance
  Energy initial, next-to-last, final = 
        -23021.5686452     -23021.5686452     -23021.5686797
  Force two-norm initial, final = 220.72 220.508
  Force max component initial, final = 142.277 142.039
  Final line search alpha, max atom move = 6.86379e-10 9.74929e-08
  Iterations, force evaluations = 1 21

MPI task timing breakdown:
Section |  min time  |  avg time  |  max time  |%varavg| %total
---------------------------------------------------------------
Pair    | 0.032933   | 0.033395   | 0.034071   |   0.2 | 82.84
Neigh   | 0          | 0          | 0          |   0.0 |  0.00
Comm    | 0.00042819 | 0.001106   | 0.0015753  |   1.0 |  2.74
Output  | 0          | 0          | 0          |   0.0 |  0.00
Modify  | 0.0054732  | 0.0054823  | 0.0054904  |   0.0 | 13.60
Other   |            | 0.0003294  |            |       |  0.82

Nlocal:    16.375 ave 19 max 16 min
Histogram: 7 0 0 0 0 0 0 0 0 1
Nghost:    537.125 ave 548 max 527 min
Histogram: 1 1 0 0 4 0 0 0 0 2
Neighs:    2189.38 ave 2525 max 2108 min
Histogram: 4 3 0 0 0 0 0 0 0 1

Total # of neighbors = 17515
Ave neighs/atom = 133.702
Neighbor list builds = 0
Dangerous builds = 0

unfix 1
###
min_style cg
minimize 1.0e-8 1.0e-8 100000 100000
WARNING: Using 'neigh_modify every 1 delay 0 check yes' setting during minimization (../min.cpp:190)
Per MPI rank memory allocation (min/avg/max) = 17.82 | 17.95 | 18.13 Mbytes
Step Temp E_pair E_mol TotEng Press 
      53            0   -23021.569            0   -23021.569   -439.32201 
      54            0   -23021.569            0   -23021.569   -439.32143 
Loop time of 0.117046 on 8 procs for 1 steps with 131 atoms

99.3% CPU use with 8 MPI tasks x no OpenMP threads

Minimization stats:
  Stopping criterion = linesearch alpha is zero
  Energy initial, next-to-last, final = 
        -23021.5686745     -23021.5686745     -23021.5686748
  Force two-norm initial, final = 163.149 163.149
  Force max component initial, final = 80.7175 80.7174
  Final line search alpha, max atom move = 2.88451e-13 2.32831e-11
  Iterations, force evaluations = 1 62

MPI task timing breakdown:
Section |  min time  |  avg time  |  max time  |%varavg| %total
---------------------------------------------------------------
Pair    | 0.094201   | 0.09556    | 0.097365   |   0.3 | 81.64
Neigh   | 0          | 0          | 0          |   0.0 |  0.00
Comm    | 0.0012588  | 0.0030534  | 0.0044168  |   1.6 |  2.61
Output  | 0          | 0          | 0          |   0.0 |  0.00
Modify  | 0.018065   | 0.018103   | 0.018133   |   0.0 | 15.47
Other   |            | 0.0003288  |            |       |  0.28

Nlocal:    16.375 ave 19 max 16 min
Histogram: 7 0 0 0 0 0 0 0 0 1
Nghost:    537.125 ave 548 max 527 min
Histogram: 1 1 0 0 4 0 0 0 0 2
Neighs:    2189.38 ave 2525 max 2108 min
Histogram: 4 3 0 0 0 0 0 0 0 1

Total # of neighbors = 17515
Ave neighs/atom = 133.702
Neighbor list builds = 0
Dangerous builds = 0

undump 1
#############
#----------- Thermo ------------
reset_timestep 0
thermo  200

thermo_style    custom step temp etotal ke pe press
velocity all create 300 12345 mom yes rot yes
fix 1 all npt temp 300 300 25.0 iso 0.0 0.0 250.0

variable vpe equal pe
variable vtemp equal temp
variable vstep equal step

fix output all print 2500 "${vstep} ${vtemp} ${vpe}" file temp-tpdh-Pt.dat screen no

dump 1 all custom 2500 thermo-tpdh-Pt.lammpstrj id type x y z

run 1000000
Per MPI rank memory allocation (min/avg/max) = 16.69 | 16.82 | 17 Mbytes
Step Temp TotEng KinEng PotEng Press 
       0          300   -22905.317    116.25159   -23021.569    365.94552 
     200    227.04569   -22863.652    87.981408   -22951.633    2232.4296 
     400    308.28702   -22808.058    119.46285    -22927.52    6724.7676 
     600    306.51421   -22802.736    118.77588   -22921.512   -2689.7639 
     800    288.94378   -22831.588    111.96725   -22943.555   -2175.5782 
    1000     313.6067   -22810.022    121.52426   -22931.547    2028.3146 
    1200    333.07142   -22797.762    129.06694   -22926.829    -7154.414 
    1400    254.74949   -22823.394    98.716779   -22922.111   -3091.0122 
    1600    295.24531    -22810.97    114.40913   -22925.379    3587.7362 
    1800    292.26628    -22831.61    113.25474   -22944.865    329.43252 
    2000    324.70902   -22814.632    125.82647   -22940.458    1955.0651 
    2200     315.8864   -22827.246    122.40766   -22949.654   -6845.0359 
    2400    290.26457   -22829.254    112.47906   -22941.733   -3298.1503 
    2600    307.28397   -22807.488    119.07417   -22926.562    4246.8097 
    2800    259.35024   -22823.394     100.4996   -22923.893   -4358.2369 
    3000    283.58539   -22819.418    109.89084   -22929.309   -4247.1872 
    3200     317.3539   -22803.753    122.97632   -22926.729   -3108.2436 
    3400    311.06473   -22807.569    120.53923   -22928.108   -2988.4601 
    3600    306.84084   -22803.702    118.90245   -22922.605    5567.7401 
    3800     273.4129   -22813.527    105.94895   -22919.476    8845.0527 
    4000    300.38843   -22827.874    116.40211   -22944.276    9837.1751 
    4200     338.6549   -22813.483    131.23057   -22944.714    13538.207 
    4400    309.84179   -22823.842    120.06534   -22943.908   -2029.3631 
    4600    285.17376   -22840.632    110.50635   -22951.138   -987.80022 
    4800    296.14543    -22811.64    114.75793   -22926.398    -3292.463 
    5000    308.30747   -22807.642    119.47078   -22927.113   -3912.7122 
    5200    287.83273   -22829.688    111.53671   -22941.224    171.12018 
    5400    293.93776   -22804.756    113.90244   -22918.658   -9296.9401 
    5600    292.39514   -22809.155    113.30467    -22922.46   -11481.705 
    5800    321.01353   -22790.494    124.39445   -22914.889   -512.48355 
    6000    285.18367   -22803.887    110.51018   -22914.397    4452.5827 
    6200    298.87489   -22817.168     115.8156   -22932.984    5052.3183 
    6400    297.82385   -22828.732    115.40832    -22944.14    3358.3512 
    6600    292.01416   -22834.103    113.15704    -22947.26    13089.226 
    6800    308.83126   -22809.991    119.67375   -22929.664   -4726.6224 
    7000     277.1557   -22828.964    107.39931   -22936.364   -2747.3963 
    7200    314.31219   -22824.622    121.79764    -22946.42   -2012.8478 
    7400     322.4189   -22798.937    124.93904   -22923.876    3868.1683 
    7600    260.41675   -22819.166    100.91287   -22920.079   -2198.9296 
    7800    324.00028   -22808.116    125.55183   -22933.668    1461.9586 
    8000    314.68298   -22804.916    121.94132   -22926.857   -3057.2537 
    8200    290.31209   -22822.181    112.49748   -22934.678    1387.0928 
    8400    330.50797   -22800.496    128.07359   -22928.569   -1701.1905 
    8600    325.58841   -22818.934    126.16724   -22945.102   -1725.6523 
    8800    274.69904    -22825.86    106.44733   -22932.307    -4663.324 
    9000    299.73883   -22800.921    116.15039   -22917.071     315.0395 
    9200    291.84124   -22811.718    113.09003   -22924.808    4371.4724 
    9400    307.26738   -22803.196    119.06774   -22922.264   -2104.8244 
    9600    305.02172   -22792.785    118.19754   -22910.982    4269.4668 
    9800    283.59982   -22817.034    109.89643   -22926.931    7044.1535 
   10000    317.53096   -22797.571    123.04493   -22920.616    7517.1866 
   10200     302.0954   -22795.125    117.06357   -22912.188    4719.1379 
   10400    298.96796   -22808.898    115.85167   -22924.749   -6543.5876 
   10600    281.68698   -22829.183     109.1552   -22938.339   -1377.8392 
   10800    323.57677   -22802.399    125.38771   -22927.787   -4780.7726 
   11000     286.0414   -22827.787    110.84256   -22938.629   -282.02335 
   11200    280.38028   -22819.314    108.64885   -22927.962    750.05394 
   11400    320.62943   -22813.852     124.2456   -22938.098    1717.3243 
   11600    277.83746   -22810.389    107.66349   -22918.052    5145.3469 
   11800    333.29822   -22781.577    129.15483   -22910.732   -2919.9262 
   12000    301.43902   -22796.611    116.80922    -22913.42   -2398.3484 
   12200    282.96604   -22814.998    109.65084   -22924.649   -8843.3973 
   12400    307.17765   -22815.256    119.03297   -22934.289   -11221.664 
   12600    287.02774   -22828.613    111.22477   -22939.837    8056.6688 
   12800    286.71894   -22827.402    111.10511   -22938.507   -2169.0849 
   13000    331.82824   -22811.722     128.5852   -22940.307    6725.5281 
   13200    271.51169    -22833.48    105.21222   -22938.692    1527.8425 
   13400    300.17191   -22815.039    116.31821   -22931.357   -6606.7368 
   13600    306.66093   -22806.099    118.83274   -22924.932    7063.2087 
   13800    267.80369   -22825.315    103.77535    -22929.09   -2511.3894 
   14000    283.09823   -22790.701    109.70207   -22900.403   -5791.5488 
   14200    301.46254   -22792.344    116.81833   -22909.162   -5699.0927 
   14400    291.75787   -22818.819    113.05772   -22931.876   -1066.2286 
   14600    328.90327   -22813.791    127.45176   -22941.242   -6916.4037 
   14800    281.52912   -22811.703    109.09403   -22920.797   -4622.8611 
   15000    287.61338   -22818.704    111.45171   -22930.155   -7838.7047 
   15200    336.21185   -22795.683    130.28387   -22925.967   -11273.404 
   15400    293.35721   -22825.639    113.67748   -22939.317    1236.3394 
   15600    327.95358   -22808.287    127.08375   -22935.371   -10405.666 
   15800     292.4166   -22814.027    113.31298    -22927.34    -5673.127 
   16000    270.98785   -22827.194    105.00923   -22932.203   -8029.9854 
   16200    316.89472   -22797.461    122.79839   -22920.259    251.95125 
   16400    307.53019   -22792.514    119.16958   -22911.683     3174.946 
   16600    293.12856   -22817.284    113.58887   -22930.872    4807.0507 
   16800    271.22602   -22832.624    105.10152   -22937.726    4044.7342 
   17000    347.81352   -22801.078    134.77959   -22935.858   -4809.6043 
   17200    291.68077   -22818.154    113.02785   -22931.182    291.51618 
   17400    297.63915   -22837.275    115.33675   -22952.611    4749.7806 
   17600    294.57044   -22804.667    114.14761   -22918.815   -92.045848 
   17800    302.01997   -22808.711    117.03434   -22925.746    5799.9733 
   18000     289.7608   -22819.531    112.28385   -22931.815   -5023.8845 
   18200    311.99576   -22796.738    120.90001   -22917.638    3057.6921 
   18400    328.05417   -22784.591    127.12273   -22911.714   -6056.4914 
   18600    270.24623   -22803.328    104.72185    -22908.05    3987.5536 
   18800    295.55112   -22813.971    114.52763   -22928.498   -890.24999 
   19000     258.5834   -22841.097    100.20244     -22941.3   -3585.9736 
   19200    302.77668   -22815.395    117.32757   -22932.723   -5427.3484 
   19400    290.17021   -22813.977     112.4425   -22926.419   -4435.8861 
   19600    294.80967   -22829.829    114.24031    -22944.07   -11482.298 
   19800    306.32911   -22819.473    118.70416   -22938.178    3664.9045 
   20000    333.83265    -22803.24    129.36192   -22932.602     3961.973 
   20200    267.65139   -22824.254    103.71634    -22927.97    2885.5518 
   20400    263.08565   -22828.989    101.94708   -22930.936    1623.5675 
   20600    305.65815   -22803.727    118.44415   -22922.171   -8798.7381 
   20800    307.96683   -22796.577    119.33878   -22915.916    5542.7499 
   21000    351.33246   -22773.633    136.14319   -22909.776     5998.016 
   21200    294.16129   -22807.277    113.98906   -22921.267   -13813.602 
   21400    297.42433   -22821.581    115.25351   -22936.834    209.38734 
   21600    317.19353   -22824.974    122.91418   -22947.888   -3614.4569 
   21800    302.28496   -22798.652    117.13703   -22915.789    1390.0253 
   22000    278.24249   -22819.719    107.82044    -22927.54    893.36922 
   22200    269.52157   -22814.889    104.44104    -22919.33   -3496.2135 
   22400    317.40527   -22803.197    122.99623   -22926.193    7942.3458 
   22600    249.59534   -22832.628    96.719521   -22929.348     3706.661 
   22800    304.91033   -22821.311    118.15437   -22939.465     286.7687 
   23000    308.55733   -22799.517     119.5676   -22919.084    4466.9538 
   23200    312.29304    -22793.86    121.01521   -22914.875   -3278.5389 
   23400    272.16826   -22820.909    105.46665   -22926.376    8589.7012 
   23600    332.33812   -22799.685    128.78279   -22928.468      11576.3 
   23800    308.31183   -22815.136    119.47247   -22934.609    -8395.751 
   24000    287.01479   -22806.414    111.21975   -22917.634   -1413.9154 
   24200    322.41265   -22794.465    124.93661   -22919.402     159.6431 
   24400    303.37564   -22822.865    117.55967   -22940.424   -4211.9508 
   24600    320.92634   -22801.135    124.36066   -22925.496   -4938.2486 
   24800    317.69816   -22797.847    123.10972   -22920.956   -3405.0274 
   25000    277.75029   -22820.994    107.62971   -22928.624    1108.3709 
   25200    299.11768   -22812.161    115.90969   -22928.071   -9605.7338 
   25400    300.38829   -22799.603    116.40206   -22916.005    2514.9102 
   25600    299.11343    -22819.67    115.90804   -22935.578   -3997.4147 
   25800    267.05174    -22830.61    103.48397   -22934.094    698.72183 
   26000    297.09546   -22807.429    115.12607   -22922.555   -5067.5245 
   26200    271.49685   -22815.461    105.20647   -22920.668   -5743.3342 
   26400    278.94819   -22825.184     108.0939   -22933.278   -10196.579 
   26600    310.81755   -22805.152    120.44345   -22925.595    122.60817 
   26800    300.45183   -22815.439    116.42668   -22931.866   -1619.7668 
   27000    277.47524   -22811.395    107.52313   -22918.918   -7049.2585 
   27200    315.06528   -22796.062    122.08947   -22918.152   -2567.2149 
   27400    265.84586   -22816.432    103.01668   -22919.448    3239.5968 
   27600    320.81727    -22785.51     124.3184   -22909.829   -967.66109 
   27800    297.26088   -22800.871    115.19017   -22916.061    7355.5563 
   28000    298.60876     -22818.5    115.71248   -22934.212    10898.799 
   28200    269.31096    -22824.32    104.35943    -22928.68     17287.69 
   28400    337.39881   -22797.862    130.74383   -22928.606    6468.0426 
   28600    297.45979   -22807.025    115.26725   -22922.292    4690.2921 
   28800    268.04356   -22838.689     103.8683   -22942.557    8346.6877 
   29000    268.35786   -22815.248     103.9901   -22919.238   -3280.7971 
   29200    293.26827    -22803.87    113.64301   -22917.513   -5226.9317 
   29400    277.45661   -22800.833    107.51591   -22908.349   -3399.8298 
   29600    298.75143   -22810.222    115.76776    -22925.99    10514.616 
   29800    294.77964   -22821.954    114.22868   -22936.183   -1236.4374 
   30000    328.65006   -22794.217    127.35364   -22921.571    -2612.216 
   30200    329.90167   -22811.379    127.83865   -22939.218   -977.35777 
   30400    295.38792   -22811.473    114.46439   -22925.937    2212.6515 
   30600    263.44706    -22810.13    102.08713   -22912.217   -8162.3896 
   30800    368.43203   -22784.206    142.76937   -22926.975    10211.187 
   31000    332.35604   -22813.537    128.78973   -22942.327     1938.594 
   31200    294.16403   -22817.989    113.99012   -22931.979    3403.2958 
   31400    337.00738   -22796.757    130.59215   -22927.349   -10079.797 
   31600    311.91541   -22806.323    120.86888   -22927.192    9633.5117 
   31800    261.40105   -22823.656     101.2943   -22924.951    4771.2189 
   32000    322.78047   -22788.663    125.07914   -22913.742   -7995.8192 
   32200    278.18265   -22818.159    107.79725   -22925.956    3843.4932 
   32400    335.02432   -22811.001     129.8237   -22940.825   -5619.6376 
   32600    315.09199   -22790.939    122.09982   -22913.039   -1307.0937 
   32800    306.57829   -22796.928    118.80072   -22915.729    -929.7888 
   33000    266.41266   -22811.861    103.23632   -22915.097   -2537.6535 
   33200    333.00506   -22788.199    129.04123   -22917.241    3593.5704 
   33400    272.89397    -22806.39    105.74786   -22912.138    4261.6067 
   33600    301.37196   -22809.627    116.78323    -22926.41    4470.0509 
   33800    351.10913   -22782.742    136.05665   -22918.798     2011.741 
   34000    255.61072    -22815.76     99.05051    -22914.81   -3786.1453 
   34200     327.6198   -22805.102    126.95441   -22932.056    4481.8249 
   34400    309.19419   -22792.295    119.81439   -22912.109   -4874.0593 
   34600    304.42372    -22818.73    117.96581   -22936.696    5429.4183 
   34800    291.86671   -22798.326     113.0999   -22911.426   -4861.2376 
   35000    271.30601   -22823.298    105.13252    -22928.43    1379.9749 
   35200    284.23261   -22814.418    110.14164   -22924.559   -3266.9449 
   35400    300.91016   -22800.305    116.60428    -22916.91   -2127.2815 
   35600    272.45491   -22819.305    105.57772   -22924.882     3439.923 
   35800    288.11843    -22828.14    111.64742   -22939.788     1723.967 
   36000    318.34088   -22801.452    123.35878    -22924.81    6571.7802 
   36200    292.85953   -22796.943    113.48462   -22910.428    2313.0446 
   36400    306.85914   -22826.402    118.90954   -22945.311    4263.3079 
   36600    284.55734   -22815.979    110.26748   -22926.246   -549.80357 
   36800    308.69296   -22808.314    119.62016   -22927.934    800.35918 
   37000    294.72444   -22812.898    114.20728   -22927.105   -7942.3266 
   37200    314.24448    -22800.25     121.7714   -22922.022     10673.88 
   37400    383.73901   -22773.194     148.7009   -22921.895   -4583.8023 
   37600    321.55268   -22804.123    124.60337   -22928.726   -6303.8146 
   37800    288.90172   -22809.742    111.95095   -22921.693    8263.7637 
   38000    327.88571   -22795.319    127.05745   -22922.377   -97.866421 
   38200    320.04123    -22793.67    124.01767   -22917.688    6029.2597 
   38400     306.9668   -22818.839    118.95126   -22937.791   -142.66449 
   38600    303.29459   -22804.184    117.52826   -22921.712   -4432.5439 
   38800    324.78886   -22790.181    125.85741   -22916.038    17879.791 
   39000    294.67047   -22807.973    114.18637   -22922.159   -1478.7925 
   39200    292.12791   -22818.765    113.20112   -22931.966   -8314.8993 
   39400    304.46079   -22789.568    117.98017   -22907.548   -5589.0901 
   39600    306.71962   -22805.028    118.85548   -22923.883    12976.204 
   39800     283.0739   -22806.897    109.69264    -22916.59     164.1331 
   40000    298.23592   -22798.038      115.568   -22913.606   -1496.0814 
   40200    283.82378   -22795.152    109.98322   -22905.135   -3633.3298 
   40400    288.72948   -22818.148    111.88421   -22930.032   -5943.9762 
   40600     327.4113    -22811.22    126.87362   -22938.094    6791.9038 
   40800    342.79522   -22791.798    132.83496   -22924.633   -18929.999 
   41000    272.43111     -22813.2     105.5685   -22918.769   -854.47342 
   41200    271.28056   -22824.949    105.12266   -22930.072    7175.1661 
   41400    280.62967   -22806.364    108.74549   -22915.109    197.26875 
   41600     332.5957   -22795.898     128.8826   -22924.781    -1320.925 
   41800    277.97382   -22827.003    107.71633   -22934.719    3498.1071 
   42000     291.1549   -22807.797    112.82407   -22920.621    8501.9542 
   42200    285.47609   -22804.153     110.6235   -22914.777    3020.3528 
   42400    262.45853   -22835.426    101.70407    -22937.13    294.29822 
   42600    297.40356   -22818.146    115.24546   -22933.392   -1081.5085 
   42800    324.00992   -22803.326    125.55556   -22928.881   -11225.641 
   43000    276.89399   -22832.223    107.29789   -22939.521   -5158.8974 
   43200    298.96111   -22813.845    115.84902   -22929.694    8344.5954 
   43400    274.43658   -22812.585    106.34563   -22918.931    -2679.941 
   43600    304.67697   -22822.891    118.06394   -22940.955    1630.8447 
   43800     288.7893   -22795.551    111.90739   -22907.458   -1209.4892 
   44000    288.24287   -22810.887    111.69564   -22922.582   -6283.4734 
   44200    294.72743   -22816.555    114.20844   -22930.764   -3025.9036 
   44400    303.69692   -22800.624    117.68417   -22918.308    4036.7714 
   44600    297.40347   -22810.904    115.24542    -22926.15   -9258.1986 
   44800    268.76546   -22827.203    104.14804   -22931.351    340.31294 
   45000    332.72077   -22799.265    128.93106   -22928.196   -5693.2549 
   45200     283.6579   -22815.391    109.91894    -22925.31   -11737.659 
   45400    316.17893   -22794.818    122.52101   -22917.339    2811.6502 
   45600    340.76076    -22796.76     132.0466   -22928.806     -8435.25 
   45800     287.8314   -22810.795    111.53619   -22922.331   -4993.0547 
   46000    311.07185   -22812.122    120.54199   -22932.664    -748.7987 
   46200    281.32369   -22829.996    109.01442    -22939.01    -4760.255 
   46400    307.68197   -22802.208     119.2284   -22921.437   -1824.7804 
   46600    305.61229   -22810.032    118.42638   -22928.458   -7528.0385 
   46800    307.13422   -22807.733    119.01614   -22926.749     7127.471 
   47000    301.64692   -22796.066    116.88978   -22912.956    -5463.629 
   47200    267.76146   -22820.715    103.75899   -22924.474   -48.020063 
   47400    283.87456   -22810.665     110.0029   -22920.667   -351.61622 
   47600    306.93408   -22786.232    118.93859   -22905.171   -9.1388807 
   47800    308.84275    -22795.63     119.6782   -22915.309   -1561.8679 
   48000    295.52696   -22816.168    114.51827   -22930.687    2718.4999 
   48200    294.77317   -22802.805    114.22617   -22917.031    84.499206 
   48400    350.97719   -22794.164    136.00552   -22930.169   -3414.8035 
   48600    277.62244   -22821.545    107.58017   -22929.125   -1825.7865 
   48800    322.73504   -22805.333    125.06154   -22930.395     1675.292 
   49000    342.45008   -22792.342    132.70122   -22925.043    2713.7518 
   49200    294.79883   -22810.245    114.23611   -22924.481   -7331.7397 
   49400     296.6895   -22822.679    114.96875   -22937.648    1921.4226 
   49600    285.89274   -22798.081    110.78495   -22908.866     12058.94 
   49800    316.91471   -22809.727    122.80613   -22932.534   -4760.3168 
   50000    306.34879   -22822.236    118.71178   -22940.948    182.68155 
   50200    304.03919   -22814.297     117.8168   -22932.113    4969.1208 
   50400    297.24501   -22795.661    115.18402   -22910.845    -12601.54 
   50600    282.25767    -22823.61    109.37635   -22932.986    3103.7061 
   50800    312.20768    -22811.99    120.98213   -22932.972    347.60545 
   51000    285.91775   -22802.442    110.79465   -22913.236   -7221.9491 
   51200    316.41495   -22804.448    122.61247    -22927.06    6594.5686 
   51400    282.01177   -22823.691    109.28106   -22932.973   -1531.0448 
   51600    289.58993    -22810.75    112.21763   -22922.967    2326.6767 
   51800    315.25718   -22799.134    122.16383   -22921.298   -156.23615 
   52000    285.04001   -22821.058    110.45452   -22931.512   -927.20414 
   52200     343.5871   -22795.422    133.14183   -22928.563    1977.5432 
   52400    333.86509   -22803.825    129.37449   -22933.199    12449.345 
   52600    284.40762   -22814.938    110.20946   -22925.147   -5207.6335 
   52800    302.50352   -22808.492    117.22172   -22925.713   -3175.4399 
   53000     288.5503   -22811.024    111.81477   -22922.839    3050.8074 
   53200    346.71178   -22790.615    134.35266   -22924.967   -497.72922 
   53400    301.74573   -22813.098    116.92807   -22930.026   -1829.9719 
   53600    290.89638   -22816.007    112.72389   -22928.731   -5489.6554 
   53800    298.49043     -22811.5    115.66663   -22927.166    4179.3906 
   54000    327.21275   -22792.702    126.79668   -22919.499   -6256.0184 
   54200    293.32798   -22811.172    113.66615   -22924.838   -1863.4002 
   54400    289.34334   -22813.668    112.12208    -22925.79    3925.8567 
   54600    351.28094   -22776.616    136.12323    -22912.74    2340.6651 
   54800    329.08861   -22799.193    127.52358   -22926.717   -7688.1802 
   55000    290.40267   -22809.877    112.53258   -22922.409    8419.8613 
   55200    324.27051   -22784.485    125.65654   -22910.142    3057.3982 
   55400    313.93095   -22813.098    121.64991   -22934.748   -4422.5199 
   55600    312.05459    -22809.24    120.92281   -22930.163    5084.1496 
   55800     288.1524   -22811.872    111.66058   -22923.532    -5582.841 
   56000    287.38783    -22825.38    111.36431   -22936.745   -6311.5057 
   56200    312.52611   -22792.356    121.10553   -22913.462    1243.8652 
   56400    298.75974   -22807.037    115.77098   -22922.808   -1866.8496 
   56600     288.4937   -22821.871    111.79284   -22933.664    5240.6967 
   56800    300.74955   -22790.848    116.54205    -22907.39   -4811.8955 
   57000    310.56301   -22816.048    120.34481   -22936.392    47.329742 
   57200    291.93641   -22815.682    113.12691   -22928.809    5016.3609 
   57400      334.495   -22805.421    129.61859    -22935.04    9026.1419 
   57600    289.03638   -22812.787    112.00313    -22924.79   -2675.1307 
   57800    275.12704   -22826.862    106.61319   -22933.475    7619.0206 
   58000    290.35114   -22807.592    112.51261   -22920.105    1659.0201 
   58200    284.52654   -22800.157    110.25555   -22910.413    1428.5106 
   58400    266.17522   -22826.658    103.14431   -22929.802    9122.5586 
   58600    322.71677   -22807.764    125.05446   -22932.819    5849.0154 
   58800    273.85037   -22807.472    106.11847   -22913.591   -3112.4715 
   59000    308.35116   -22809.512    119.48771   -22928.999   -6830.4631 
   59200    297.80219   -22806.719    115.39993   -22922.119      4570.71 
   59400    323.10418   -22792.795    125.20458       -22918   -2832.6311 
   59600     315.9133   -22812.685    122.41808   -22935.103   -4193.1549 
   59800    285.11754   -22817.954    110.48456   -22928.438   -1615.3076 
   60000    313.28023   -22796.941    121.39775   -22918.338    1216.2088 
   60200    304.03613   -22822.108    117.81561   -22939.923   -1943.2341 
   60400    328.90006    -22803.73    127.45052   -22931.181   -3556.1783 
   60600     316.8655   -22805.744    122.78706   -22928.531   -3151.9477 
   60800    288.38781   -22816.414    111.75181   -22928.166    2311.0254 
   61000    289.75746   -22818.429    112.28255   -22930.712    1785.8496 
   61200    292.73195    -22821.11    113.43519   -22934.545     2250.142 
   61400    282.73034    -22825.28    109.55951    -22934.84    1769.5448 
   61600    302.76238   -22801.747    117.32203   -22919.069    615.42421 
   61800    275.86395   -22818.781    106.89874    -22925.68   -808.81928 
   62000    320.11521   -22815.046    124.04634   -22939.093    2666.9267 
   62200    301.36468   -22814.707    116.78041   -22931.488   -2077.0801 
   62400    332.15089   -22803.144    128.71023   -22931.854    2833.3136 
   62600    285.79901   -22834.293    110.74863   -22945.042   -1652.7248 
   62800    301.97586   -22842.473    117.01725    -22959.49    2033.8445 
   63000    306.35822   -22862.273    118.71543   -22980.989   -1498.0803 
   63200    340.36466   -22831.497    131.89311    -22963.39    3167.2883 
   63400    277.84127    -22848.02    107.66497   -22955.685   -3886.3751 
   63600    311.83422   -22830.718    120.83741   -22951.556    4851.4511 
   63800    331.69466   -22830.252    128.53344   -22958.786    6645.8024 
   64000    315.30689   -22839.346    122.18309   -22961.529   -8393.8101 
   64200    281.25967   -22865.326    108.98961   -22974.316    831.54286 
   64400    281.35938   -22851.105    109.02825   -22960.133   -4837.4181 
   64600    299.07449   -22840.948    115.89295   -22956.841    3138.0008 
   64800    311.84497    -22829.43    120.84158   -22950.272   -3309.6226 
   65000    330.31484    -22836.79    127.99875   -22964.789    10797.375 
   65200    296.16867   -22848.292    114.76693   -22963.059   -3212.5121 
   65400    310.59739   -22835.323    120.35814   -22955.681    7021.1003 
   65600    273.61679   -22864.438    106.02796   -22970.466    5727.8112 
   65800    315.08249   -22842.937    122.09614   -22965.033   -3052.5825 
   66000    302.64859   -22844.255    117.27794   -22961.533    6962.3454 
   66200    288.84286    -22853.35    111.92814   -22965.278   -1607.0012 
   66400    348.82705   -22827.834    135.17233   -22963.007    2405.0961 
   66600     312.7192   -22855.051    121.18035   -22976.231   -2977.3238 
   66800    289.48391    -22849.72    112.17655   -22961.897   -4904.3548 
   67000    333.87495   -22838.235    129.37832   -22967.613    2603.0014 
   67200    291.38136   -22861.099    112.91182   -22974.011    -5792.845 
   67400    328.44634   -22831.845     127.2747   -22959.119    1315.2808 
   67600     302.3196   -22839.457    117.15045   -22956.607    820.36227 
   67800    294.16724   -22841.581    113.99137   -22955.572   -3211.4663 
   68000    310.52943   -22826.879     120.3318   -22947.211    1871.6347 
   68200    312.16492   -22841.719    120.96556   -22962.685    2421.7657 
   68400    290.92552   -22855.923    112.73518   -22968.659    2282.6585 
   68600    294.46918   -22834.625    114.10837   -22948.734    -1259.724 
   68800     343.0803   -22822.928    132.94544   -22955.873    10184.315 
   69000    283.11398   -22850.111    109.70817   -22959.819    1888.5441 
   69200    296.58016   -22829.343    114.92639   -22944.269   -5230.4646 
   69400    283.99171   -22845.351     110.0483   -22955.399    227.33165 
   69600    296.00782   -22837.921     114.7046   -22952.625    3833.9141 
   69800    341.12581   -22829.725    132.18806   -22961.913    3850.3584 
   70000    308.26199   -22855.175    119.45316   -22974.628    9452.1171 
   70200    303.28461   -22833.871    117.52439   -22951.396   -4931.4295 
   70400    284.65169   -22834.866    110.30404    -22945.17    13384.972 
   70600    275.30521   -22854.755    106.68223   -22961.437    8510.6192 
   70800    302.52462   -22850.333     117.2299   -22967.563    811.96241 
   71000    284.14149   -22841.649    110.10633   -22951.756    3256.3118 
   71200    298.43809   -22837.531    115.64634   -22953.178    -5242.134 
   71400    264.16342   -22856.143    102.36473   -22958.507    347.82128 
   71600    294.01021   -22842.694    113.93052   -22956.625    7360.0832 
   71800    309.67719   -22823.722    120.00155   -22943.724   -3890.1912 
   72000    287.12617     -22842.7    111.26291   -22953.963    89.690564 
   72200    307.11212   -22844.651    119.00757   -22963.659   -2933.5424 
   72400    327.33122   -22843.275    126.84258   -22970.118    5243.2437 
   72600    298.68483   -22853.378    115.74195    -22969.12    4228.7334 
   72800    332.34556    -22826.18    128.78567   -22954.966   -5499.9517 
   73000    292.14872   -22840.731    113.20918    -22953.94   -6777.4955 
   73200    313.13914   -22840.671    121.34308   -22962.014    8725.0404 
   73400    311.06934   -22834.791    120.54102   -22955.332    917.81465 
   73600    271.76109   -22854.646    105.30887   -22959.955   -331.20703 
   73800    314.61817   -22827.157    121.91621   -22949.073   -12259.721 
   74000    293.51727   -22842.791     113.7395    -22956.53   -8001.8411 
   74200    283.44395   -22849.066    109.83604   -22958.902    6253.4535 
   74400    290.11324   -22851.288    112.42042   -22963.709   -7075.0197 
   74600    332.22216   -22827.529    128.73785   -22956.267    7650.6225 
   74800    287.84081   -22839.449    111.53984   -22950.989   -5874.7148 
   75000    301.25834   -22854.765    116.73921   -22971.504    7557.8981 
   75200    306.21797   -22826.799    118.66109    -22945.46    3335.8482 
   75400    340.94666   -22825.058    132.11864   -22957.176    9642.0913 
   75600    285.79314   -22840.509    110.74636   -22951.256   -9059.7737 
   75800    308.42834    -22836.83    119.51762   -22956.348    9755.7776 
   76000    310.69962   -22865.151    120.39775   -22985.549   -9264.2711 
   76200     285.9939    -22849.49    110.82416   -22960.314   -3673.9853 
   76400    282.58492   -22835.488    109.50316   -22944.991    9341.2442 
   76600    275.28502   -22853.679    106.67441   -22960.353    1065.7696 
   76800    302.10402   -22854.054    117.06691   -22971.121   -2558.0577 
   77000    311.45197   -22839.839    120.68929   -22960.528   -13034.943 
   77200    302.48243   -22830.093    117.21355   -22947.306   -4344.0721 
   77400    287.97333   -22849.472    111.59119   -22961.063   -7653.6856 
   77600    304.21125   -22847.595    117.88347   -22965.479    2638.0617 
   77800     309.8141   -22831.012    120.05461   -22951.066    3128.0841 
   78000    303.91145   -22841.139     117.7673   -22958.906     3766.351 
   78200     295.4136   -22854.879    114.47434   -22969.353   -2891.4262 
   78400    318.22838   -22840.295    123.31518    -22963.61    2914.6101 
   78600    304.15142   -22847.487    117.86029   -22965.347   -1097.2717 
   78800     342.8132   -22823.906    132.84193   -22956.748    4646.3487 
   79000    297.60267   -22846.477    115.32262   -22961.799    3149.9993 
   79200    305.14186   -22849.631    118.24409   -22967.875    5375.2611 
   79400    337.66808   -22816.414    130.84817   -22947.262    2800.3631 
   79600    322.36402   -22836.048    124.91777   -22960.966    880.46266 
   79800     302.8555   -22849.915    117.35811   -22967.273    8611.3986 
   80000     325.6092   -22833.898    126.17529   -22960.074   -1843.0393 
   80200    319.76091   -22823.337    123.90905   -22947.246    -5108.606 
   80400    313.69496   -22846.809    121.55846   -22968.368    5986.3808 
   80600    283.34488   -22846.945    109.79765   -22956.743     5085.373 
   80800    328.70843   -22841.178    127.37626   -22968.554   -1299.5664 
   81000    336.57339   -22825.769    130.42398   -22956.193   -1888.1349 
   81200    283.26544   -22849.336    109.76686   -22959.102   -5129.4008 
   81400    238.30137   -22849.521    92.343046   -22941.864   -3352.7818 
   81600    339.67544   -22813.381    131.62603   -22945.007    1556.6674 
   81800    290.74561   -22840.565    112.66547   -22953.231   -8601.5863 
   82000    291.99693   -22847.832    113.15036   -22960.982    -5394.482 
   82200    334.18199   -22826.342    129.49729    -22955.84    3066.3426 
   82400    281.61166    -22843.19    109.12601   -22952.316   -8522.4104 
   82600    301.35109   -22846.247    116.77515   -22963.022   -3088.0524 
   82800    311.80262   -22839.459    120.82517   -22960.284    17621.286 
   83000     282.0186   -22852.999     109.2837   -22962.283    2308.0264 
   83200    320.38188   -22824.003    124.14968   -22948.153    1748.1684 
   83400    298.43672   -22837.577    115.64581   -22953.222   -10948.645 
   83600    301.87177   -22846.254    116.97691   -22963.231    -12367.93 
   83800    283.28239    -22844.46    109.77343   -22954.233   -5221.2692 
   84000     294.5421   -22827.561    114.13663   -22941.698    8515.6288 
   84200     275.5983   -22859.269     106.7958   -22966.065    2714.4957 
   84400    306.07919   -22842.619    118.60731   -22961.226    2717.2268 
   84600    274.36706   -22841.411    106.31869   -22947.729    5149.1881 
   84800     287.9385   -22869.724     111.5777   -22981.302    1603.1083 
   85000    323.74726   -22839.066    125.45378    -22964.52    9976.1908 
   85200    286.77761   -22853.325    111.12784   -22964.452   -9173.0385 
   85400    280.74245   -22849.989    108.78919   -22958.778   -1233.2268 
   85600    311.44844   -22827.842    120.68792    -22948.53   -4169.1828 
   85800    296.33108   -22849.751    114.82986   -22964.581   -4983.4443 
   86000    284.02804   -22850.908    110.06237    -22960.97    205.98813 
   86200     359.1356    -22826.44    139.16695   -22965.607   -4891.7087 
   86400    323.24883   -22828.388    125.26064   -22953.649   -2356.3233 
   86600    304.82525   -22845.428     118.1214   -22963.549   -4880.2282 
   86800    314.53507   -22835.754    121.88401   -22957.638   -17879.478 
   87000    298.78532   -22824.673     115.7809   -22940.454    2911.0122 
   87200    273.46896   -22852.822    105.97067   -22958.793    3140.4548 
   87400    317.36629   -22836.582    122.98112   -22959.563   -17285.969 
   87600     346.2175   -22815.226    134.16112   -22949.387    6662.7116 
   87800    303.08977   -22835.359    117.44889   -22952.808    8065.7246 
   88000    299.27081   -22841.712    115.96903   -22957.681   -1854.1798 
   88200      350.742   -22821.435    135.91439   -22957.349    -9590.473 
   88400    292.86393   -22845.784    113.48633   -22959.271    9185.3173 
   88600     291.1025   -22851.967    112.80376   -22964.771   -5062.2478 
   88800    328.67479   -22823.896    127.36322   -22951.259   -6982.3282 
   89000    294.14719   -22851.303     113.9836   -22965.286   -10416.831 
   89200    321.16742   -22841.266    124.45408    -22965.72    5954.0803 
   89400    352.80016   -22814.271    136.71193   -22950.983    1955.8772 
   89600    279.91906   -22842.697    108.47012   -22951.167   -1547.9513 
   89800    269.96758   -22852.041    104.61387   -22956.655    11448.997 
   90000     313.8488   -22827.631    121.61808   -22949.249    4445.2904 
   90200    295.50135   -22837.611    114.50834   -22952.119   -4199.9197 
   90400    289.98076   -22851.657    112.36908   -22964.026    5382.6156 
   90600    316.13249   -22832.543    122.50302   -22955.046    10161.108 
   90800    278.14891    -22859.22    107.78418   -22967.005   -268.21229 
   91000    304.23623   -22838.149    117.89315   -22956.042    236.12684 
   91200    311.02125   -22834.413    120.52238   -22954.935   -741.35133 
   91400    251.73797   -22870.639    97.549797   -22968.189     4811.683 
   91600    301.04683   -22853.909    116.65725   -22970.566   -10251.148 
   91800    272.60357   -22836.505    105.63533    -22942.14   -8082.4473 
   92000    304.85435   -22853.357    118.13268    -22971.49   -5679.2755 
   92200    272.90836   -22851.691    105.75344   -22957.445    -7475.548 
   92400    312.45917   -22836.573    121.07959   -22957.652    8126.0294 
   92600    306.52735   -22836.025    118.78097   -22954.806   -4648.3891 
   92800    306.75705   -22837.781    118.86999   -22956.651    7501.2564 
   93000    297.54793   -22852.291     115.3014   -22967.592    -8089.247 
   93200    289.09086   -22871.991    112.02424   -22984.015    1516.0008 
   93400    288.24418    -22842.95    111.69615   -22954.646    -3066.935 
   93600    299.83281   -22839.762     116.1868   -22955.949    8166.6711 
   93800    308.14838    -22842.96    119.40913    -22962.37    9771.6143 
   94000    262.98239   -22829.313    101.90707    -22931.22   -2205.4855 
   94200    282.32357   -22854.494    109.40188   -22963.896    9592.0124 
   94400    283.70352   -22851.296    109.93662   -22961.233    2676.4179 
   94600    288.45316   -22835.414    111.77713   -22947.191    11127.123 
   94800    280.81494    -22837.22    108.81728   -22946.037    4338.3722 
   95000    307.53089   -22825.106    119.16985   -22944.275    7042.4813 
   95200    281.90257   -22859.036    109.23874   -22968.275   -2313.6162 
   95400    320.23295   -22842.474    124.09197   -22966.566    12120.098 
   95600    316.80629   -22839.734    122.76412   -22962.498   -1899.4259 
   95800    275.35668   -22849.129    106.70218   -22955.831     4671.703 
   96000    317.05403   -22834.223    122.86012   -22957.083   -659.95872 
   96200    311.70571   -22830.049    120.78762   -22950.837    3022.9691 
   96400    284.78973   -22851.428    110.35753   -22961.786    7083.6419 
   96600    290.16841   -22853.275     112.4418   -22965.717     3386.086 
   96800    326.08672    -22836.76    126.36033    -22963.12   -5928.2701 
   97000    255.09221    -22860.64    98.849583    -22959.49   -5645.7112 
   97200    261.08732   -22850.355    101.17272   -22951.528    6774.0009 
   97400    341.10442   -22825.134    132.17977   -22957.314    1806.3184 
   97600    303.47612   -22837.917    117.59861   -22955.516    233.09965 
   97800    298.31796   -22851.775    115.59979   -22967.375    5013.0726 
   98000    300.51658   -22856.265    116.45177   -22972.717    1942.1506 
   98200    307.75793    -22830.36    119.25783   -22949.618   -1792.3587 
   98400    289.51856   -22840.106    112.18998   -22952.296    4295.4523 
   98600    316.12683   -22839.449    122.50082    -22961.95   -4144.4997 
   98800    323.25692    -22832.06    125.26377   -22957.324    9864.7297 
   99000    299.27472   -22860.211    115.97054   -22976.182    2302.7317 
   99200    281.98772   -22848.218    109.27174    -22957.49    4015.6574 
   99400    325.66144   -22821.275    126.19554    -22947.47    13978.082 
   99600    304.58805   -22834.928    118.02948   -22952.958   -2636.7752 
   99800    284.30873   -22850.135    110.17114   -22960.306    4257.2004 
  100000     253.6023     -22869.6    98.272237   -22967.872   -7252.4027 
  100200    306.13184   -22836.561    118.62771   -22955.188   -3031.7817 
  100400    281.59592   -22851.378    109.11991   -22960.498   -7396.2329 
  100600    287.75671    -22850.66    111.50725   -22962.167    2525.5236 
  100800    327.35409   -22821.868    126.85145    -22948.72   -6169.4325 
  101000    295.75032   -22841.851    114.60482   -22956.456    3913.7376 
  101200    283.43237   -22864.937    109.83155   -22974.769     -13117.4 
  101400    253.95405   -22873.977    98.408543   -22972.386   -1194.6523 
  101600    300.56202   -22848.517    116.46938   -22964.986   -11268.602 
  101800    297.54483    -22840.34     115.3002    -22955.64   -369.24139 
  102000     344.4706    -22818.25    133.48418   -22951.734   -1000.6821 
  102200    290.44761   -22842.363    112.54999   -22954.913     450.9502 
  102400    289.32628   -22841.722    112.11547   -22953.837    793.91903 
  102600    314.82845   -22839.788    121.99769   -22961.786   -5948.9962 
  102800    290.66652   -22858.171    112.63482   -22970.806    4559.0986 
  103000     301.0304   -22839.208    116.65088   -22955.859    5402.6249 
  103200    317.06397   -22823.913    122.86397   -22946.777   -11084.126 
  103400    293.71007   -22847.803    113.81421   -22961.618   -4384.7648 
  103600    281.30153   -22832.212    109.00584   -22941.218    893.18226 
  103800    334.24356   -22837.887    129.52115   -22967.409   -10720.317 
  104000    309.12863   -22845.148    119.78899   -22964.937    1127.8589 
  104200    325.47036   -22838.577    126.12149   -22964.698    9990.5203 
  104400    282.56666   -22860.096    109.49608   -22969.592    4434.9344 
  104600    318.19761    -22839.45    123.30326   -22962.753    -10761.21 
  104800    309.90303   -22835.296    120.08907   -22955.385    3369.8349 
  105000    320.12694   -22834.507    124.05089   -22958.558    1390.4623 
  105200    312.83049    -22840.63    121.22348   -22961.853    -7340.988 
  105400    276.49459   -22856.192    107.14312   -22963.335    9332.5506 
  105600    318.32554   -22824.177    123.35284   -22947.529   -7073.9705 
  105800    327.69763   -22841.744    126.98457   -22968.728    7286.8223 
  106000    280.02167   -22856.248    108.50988   -22964.758   -5196.4253 
  106200    301.24382   -22830.021    116.73358   -22946.755   -5485.7502 
  106400    297.74972   -22839.272     115.3796   -22954.651   -317.53515 
  106600    279.19198   -22862.211    108.18837   -22970.399   -2030.9488 
  106800    300.45566   -22842.672    116.42816     -22959.1    6008.8279 
  107000    321.25016   -22836.403    124.48614   -22960.889    12883.692 
  107200    273.57368   -22842.194    106.01125   -22948.205    42.324483 
  107400    301.13793   -22839.787    116.69255    -22956.48   -944.45094 
  107600    316.75081   -22844.149    122.74262   -22966.891    6976.5185 
  107800    262.80952   -22860.756    101.84008   -22962.596   -2281.7166 
  108000    328.07867   -22840.408    127.13223    -22967.54     5896.668 
  108200    290.05308   -22849.938    112.39711   -22962.335   -1932.3249 
  108400     293.8537   -22851.493    113.86987   -22965.363    327.71514 
  108600    299.65703   -22825.956    116.11869   -22942.075   -6774.6034 
  108800    306.98608    -22844.78    118.95873   -22963.739    5085.6396 
  109000    305.77454   -22841.511    118.48926       -22960    714.51417 
  109200    314.51224   -22837.656    121.87516   -22959.531    16741.152 
  109400    249.58285   -22855.986    96.714679   -22952.701    5759.8464 
  109600    302.48599   -22838.237    117.21493   -22955.452   -6533.7542 
  109800    333.74961   -22830.625    129.32974   -22959.954    8824.4738 
  110000    299.49416   -22858.694    116.05557    -22974.75    3483.3404 
  110200    303.95184   -22835.847    117.78295    -22953.63   -11646.751 
  110400    311.04143   -22832.204    120.53021   -22952.735    5927.5536 
  110600    302.18564    -22849.07    117.09854   -22966.169    9373.6193 
  110800    315.66644   -22843.767    122.32242   -22966.089   -8337.4776 
  111000    316.49034   -22830.443    122.64169   -22953.085   -2688.4057 
  111200    292.91776   -22856.503    113.50719    -22970.01     1558.654 
  111400    302.50913   -22841.051    117.22389   -22958.275    2249.4843 
  111600      322.798   -22830.643    125.08594   -22955.729    7325.4632 
  111800    271.79482   -22849.868    105.32194    -22955.19     1973.089 
  112000    336.70295   -22833.009    130.47418   -22963.483    9479.0918 
  112200     266.9634   -22844.129    103.44974   -22947.579   -11353.523 
  112400    325.07713   -22843.702    125.96911   -22969.671    2938.6934 
  112600    309.72818   -22840.277    120.02131   -22960.299    5044.6771 
  112800     317.0635   -22833.895    122.86379   -22956.759   -5179.2742 
  113000    285.48891   -22860.123    110.62847   -22970.751     6407.829 
  113200    313.31545   -22848.191     121.4114   -22969.602   -631.55926 
  113400    267.21135   -22840.942    103.54582   -22944.488   -2264.7205 
  113600    308.62731   -22830.228    119.59472   -22949.823   -1360.6294 
  113800    304.18639    -22848.81    117.87384   -22966.684    11327.582 
  114000    329.30938   -22826.834    127.60913   -22954.443   -2723.8655 
  114200     341.8148   -22823.921    132.45505   -22956.376   -15122.236 
  114400    285.74062   -22852.062    110.72601   -22962.788     3563.645 
  114600    301.73719   -22843.111    116.92476   -22960.036     500.6204 
  114800    298.55459   -22827.147    115.69149   -22942.839   -1170.9433 
  115000    268.30524   -22842.706    103.96971   -22946.676    7849.7795 
  115200    291.00768     -22847.3    112.76702   -22960.067   -3399.2506 
  115400    295.55139   -22872.623    114.52773   -22987.151   -3817.7382 
  115600    285.21683   -22844.292    110.52303   -22954.815   -2085.9341 
  115800    293.85924   -22845.578    113.87202    -22959.45    2035.1411 
  116000    327.49205   -22827.904    126.90491   -22954.809    3298.3807 
  116200    286.78527   -22833.792    111.13081   -22944.923    5180.6976 
  116400    287.19983    -22851.26    111.29146   -22962.551   -7439.9982 
  116600    304.56701   -22836.671    118.02133   -22954.692   -17655.435 
  116800    286.84719   -22830.382    111.15481   -22941.537   -4936.1308 
  117000    279.80967   -22846.586    108.42773   -22955.014   -3513.9583 
  117200    315.69896   -22836.262    122.33502   -22958.597    5845.8012 
  117400    262.43513   -22848.077      101.695   -22949.772   -1574.9078 
  117600    297.48014   -22845.044    115.27513   -22960.319    912.32043 
  117800    279.34685   -22860.625    108.24839   -22968.874    475.69278 
  118000     267.6981   -22842.327    103.73444   -22946.061    4006.6638 
  118200    307.05819   -22832.616    118.98668   -22951.602   -1318.9177 
  118400     264.0178   -22860.721     102.3083   -22963.029   -5285.9431 
  118600    294.22316   -22857.581    114.01304   -22971.594    4960.9914 
  118800     288.1313   -22852.051    111.65241   -22963.704   -459.36739 
  119000     303.1821   -22834.983    117.48467   -22952.467    274.51544 
  119200    297.55713   -22815.897    115.30497   -22931.202    4645.3486 
  119400    290.03445   -22833.915    112.38989   -22946.305    -3258.555 
  119600    302.08527   -22854.625    117.05964   -22971.685   -3829.1773 
  119800    268.71057   -22857.225    104.12677   -22961.351   -5872.8888 
  120000    328.10007   -22833.723    127.14052   -22960.864     5468.714 
  120200    268.78213   -22842.149     104.1545   -22946.303    2086.7059 
  120400    327.88665   -22824.274    127.05782   -22951.331   -264.26097 
  120600     314.4114   -22852.287    121.83609   -22974.123    1125.2844 
  120800    313.82723   -22849.119    121.60972   -22970.729    8559.3268 
  121000    289.32133   -22852.543    112.11355   -22964.656    3784.0587 
  121200    323.04234   -22825.357    125.18062   -22950.538    2203.1716 
  121400    295.77798   -22850.931    114.61554   -22965.546   -2473.4608 
  121600    285.58514   -22849.826    110.66576   -22960.492    16.837877 
  121800    278.87594   -22841.014    108.06591    -22949.08    7005.6235 
  122000    325.26271   -22838.009    126.04103    -22964.05   -1690.5166 
  122200    307.53793   -22845.836    119.17258   -22965.009    1299.2299 
  122400    300.83225   -22844.768    116.57409   -22961.342    4120.9841 
  122600    316.15629   -22828.927    122.51224   -22951.439    1792.1149 
  122800    326.45658   -22833.325    126.50366   -22959.828   -12941.589 
  123000    290.82192   -22851.104    112.69504   -22963.799    2390.2187 
  123200    346.02338   -22831.345    134.08589   -22965.431    5035.3232 
  123400    282.07401   -22854.615    109.30517    -22963.92    -10041.69 
  123600    299.22419    -22846.63    115.95096   -22962.581   -5487.6529 
  123800    314.43361   -22834.612    121.84469   -22956.457    869.82616 
  124000    274.86229   -22857.427     106.5106   -22963.937   -11245.075 
  124200    285.23612   -22863.041    110.53051   -22973.571    4915.9877 
  124400    294.18537    -22844.06    113.99839   -22958.059   -824.77079 
  124600     324.2031   -22831.453    125.63042   -22957.084   -1167.0152 
  124800    340.61754   -22810.604     131.9911   -22942.595    8493.8306 
  125000     295.2372   -22849.934    114.40598    -22964.34   -4505.0261 
  125200    302.76702   -22845.281    117.32383   -22962.605   -904.13186 
  125400     307.0433   -22829.594    118.98091   -22948.575   -11728.061 
  125600    293.34697   -22851.757    113.67351    -22965.43   -7351.4894 
  125800    302.63403    -22832.49    117.27229   -22949.762   -8220.9949 
  126000    275.88716   -22860.311    106.90774   -22967.219    619.52655 
  126200    291.79014   -22843.435    113.07023   -22956.506    3576.4031 
  126400    291.82167   -22836.574    113.08245   -22949.656    9699.7391 
  126600    258.84384   -22857.346    100.30336   -22957.649    4626.4448 
  126800    282.84376   -22854.133    109.60346   -22963.737    3227.0377 
  127000    334.87605   -22828.096    129.76625   -22957.862     135.9072 
  127200    306.48298   -22828.147    118.76378   -22946.911   -2828.0487 
  127400    255.38594   -22859.497    98.963406    -22958.46   -1786.1701 
  127600    268.17948   -22845.583    103.92097   -22949.504   -2160.0299 
  127800    305.08734   -22826.898    118.22296   -22945.121    7212.5974 
  128000     297.7265   -22838.605     115.3706   -22953.976    1918.1728 
  128200    297.94315   -22837.384    115.45455   -22952.839    2743.9006 
  128400    282.84764   -22828.062    109.60496   -22937.667   -11052.166 
  128600    302.39818   -22846.158     117.1809   -22963.339   -7011.4403 
  128800    281.49842   -22843.504    109.08213   -22952.586      4424.41 
  129000    274.68195   -22827.738    106.44071   -22934.178    6582.4485 
  129200    279.61122   -22852.523    108.35083   -22960.874   -899.58428 
  129400    294.14881   -22842.548    113.98422   -22956.532   -2009.7756 
  129600    322.06387   -22823.133    124.80146   -22947.934    2519.2526 
  129800    300.60271   -22847.547    116.48515   -22964.032   -6779.0612 
  130000    295.70405   -22850.621    114.58689   -22965.208    2872.3639 
  130200    323.12754   -22824.266    125.21364   -22949.479   -5318.1812 
  130400      265.762   -22841.719    102.98419   -22944.703   -989.85313 
  130600    295.46487   -22848.261    114.49421   -22962.755    356.61771 
  130800    315.87673   -22821.841    122.40391   -22944.245    8820.7926 
  131000    277.02546   -22844.253    107.34884   -22951.602   -6493.7186 
  131200    304.86423   -22855.087    118.13651   -22973.224    7174.1175 
  131400    280.65569   -22864.259    108.75557   -22973.014   -6879.5545 
  131600    310.61888   -22837.298    120.36646   -22957.664    3770.1197 
  131800    312.38122   -22847.012    121.04938   -22968.062    1003.8491 
  132000    282.21126   -22859.605    109.35836   -22968.963   -10966.019 
  132200    306.89948   -22835.302    118.92518   -22954.227   -7121.8531 
  132400    278.42942   -22862.307    107.89288     -22970.2    -1668.223 
  132600    295.49198   -22843.565    114.50471    -22958.07   -4551.4596 
  132800    279.47718   -22839.764    108.29889   -22948.062    1230.3823 
  133000    287.31473   -22832.632    111.33598   -22943.968   -4521.6621 
  133200    322.00588   -22841.802    124.77899   -22966.581   -8577.0016 
  133400     279.7785   -22849.494    108.41565    -22957.91    -4401.445 
  133600    334.80518   -22832.079    129.73878   -22961.818    3195.3059 
  133800     291.7812    -22845.89    113.06676   -22958.957   -4073.6859 
  134000    289.25121   -22856.747    112.08638   -22968.833   -1296.4439 
  134200    344.07387   -22828.914    133.33045   -22962.244    -1596.437 
  134400    280.17566   -22854.019    108.56956   -22962.589    7759.8176 
  134600    291.54539   -22839.752    112.97538   -22952.728     1028.625 
  134800    270.65993   -22849.649    104.88216   -22954.531    3877.6426 
  135000    254.75422   -22871.641    98.718611   -22970.359    8953.2183 
  135200    302.84213   -22844.666    117.35293   -22962.019    1419.3613 
  135400    308.55585   -22836.809    119.56703   -22956.377   -1687.9097 
  135600    285.49743   -22858.985    110.63177   -22969.616   -4337.0773 
  135800    315.84946    -22835.08    122.39334   -22957.473    263.46446 
  136000     306.5268   -22842.186    118.78076   -22960.967    6470.7203 
  136200    287.15577   -22851.867    111.27439   -22963.141    3069.0717 
  136400    277.07921   -22836.885    107.36967   -22944.255    4085.6101 
  136600    290.58843   -22839.541    112.60456   -22952.146    1971.4037 
  136800    290.84186   -22867.689    112.70276   -22980.392    1435.6138 
  137000    284.30387   -22853.015    110.16926   -22963.184   -3588.7017 
  137200    329.55591   -22829.788    127.70466   -22957.493    10180.781 
  137400    285.68334   -22851.981    110.70381   -22962.685    4243.8939 
  137600    256.15622   -22858.387    99.261896   -22957.649    6817.3563 
  137800    314.48179   -22845.534    121.86336   -22967.397   -6659.7337 
  138000     293.4736   -22851.677    113.72258   -22965.399    182.35452 
  138200    305.87108    -22822.65    118.52667   -22941.177    -357.8492 
  138400    278.75609   -22845.839    108.01947   -22953.859   -13283.717 
  138600    322.98386   -22842.176    125.15796   -22967.334    5103.2123 
  138800    295.69986   -22845.119    114.58526   -22959.704    566.81122 
  139000    296.75102   -22861.652    114.99259   -22976.645    -3594.787 
  139200    288.60482   -22839.559     111.8359   -22951.395    5397.8878 
  139400    327.34414   -22840.848    126.84759   -22967.695    7564.3134 
  139600     311.3536   -22840.679    120.65117    -22961.33    -7611.185 
  139800    334.56363   -22820.464    129.64518   -22950.109    2542.9932 
  140000    265.59517   -22847.554    102.91954   -22950.474    14714.232 
  140200    322.49479   -22839.607    124.96844   -22964.575    -7677.899 
  140400    272.25305   -22854.991     105.4995    -22960.49    294.96045 
  140600    306.34968     -22843.1    118.71213   -22961.813    1345.1268 
  140800    314.97971   -22836.192    122.05631   -22958.249   -1919.8358 
  141000    287.07264   -22858.445    111.24217   -22969.688   -7572.6781 
  141200    249.59481   -22874.736    96.719312   -22971.455   -8816.0687 
  141400    292.56082   -22847.692    113.36887   -22961.061    5678.8188 
  141600    298.82935   -22833.136    115.79796   -22948.934   -7162.9838 
  141800    279.26941   -22849.612    108.21838    -22957.83    3683.3483 
  142000    291.85496   -22848.062    113.09535   -22961.157    3220.1108 
  142200    316.10969   -22824.355    122.49418   -22946.849    -2581.969 
  142400    311.84608   -22830.537    120.84201   -22951.379    6469.3436 
  142600    282.66747   -22859.107    109.53514   -22968.642   -5472.1015 
  142800    291.84244   -22835.587     113.0905   -22948.677    2974.4143 
  143000    302.11284   -22835.698    117.07033   -22952.769    4159.7814 
  143200    273.93783   -22851.731    106.15236   -22957.883    2807.0958 
  143400    277.54456   -22869.027    107.54999   -22976.577   -2738.5851 
  143600    296.88975     -22844.3    115.04635   -22959.347   -7180.6276 
  143800    294.54139   -22842.695    114.13635   -22956.831   -813.16793 
  144000    249.11735   -22868.629    96.534296   -22965.163    -6627.159 
  144200    304.44132   -22837.896    117.97263   -22955.869    4942.8343 
  144400    286.27406   -22851.003    110.93272   -22961.936   -1639.9077 
  144600    296.46422   -22844.986    114.88146   -22959.868    2924.9291 
  144800    325.53456    -22823.62    126.14637   -22949.766    -5411.304 
  145000    285.87338   -22840.362    110.77745    -22951.14    4888.3665 
  145200     274.3644    -22871.03    106.31766   -22977.348    12151.338 
  145400    311.09525   -22855.555    120.55106   -22976.106   -893.12153 
  145600    273.21946   -22847.172    105.87399   -22953.046    7902.3057 
  145800    348.40917   -22815.721     135.0104   -22950.731    7415.8745 
  146000    307.59036   -22827.096     119.1929   -22946.289    400.97256 
  146200    294.29277   -22840.783    114.04001   -22954.823    5256.3205 
  146400    304.09019   -22840.485    117.83656   -22958.322   -163.46036 
  146600    345.31162   -22822.109    133.81008    -22955.92    2114.6555 
  146800    288.02805   -22853.659     111.6124   -22965.272    781.34275 
  147000    303.65805   -22835.188    117.66911   -22952.857   -9315.7512 
  147200     293.4784   -22828.093    113.72444   -22941.818   -13118.913 
  147400    297.67098   -22836.706    115.34909   -22952.055   -7207.8699 
  147600    279.76189   -22865.124    108.40922   -22973.533    701.66466 
  147800    265.36097   -22870.894    102.82878   -22973.723    -2817.116 
  148000     293.8763    -22851.38    113.87863   -22965.258    3757.9523 
  148200    315.84838   -22830.037    122.39292    -22952.43    3062.3319 
  148400    258.33475       -22855    100.10609   -22955.106    298.79795 
  148600    296.36645   -22843.093    114.84357   -22957.937   -6495.3069 
  148800    288.76126   -22834.224    111.89652    -22946.12    6920.3026 
  149000    269.58551    -22863.17    104.46581   -22967.635    8356.3501 
  149200    312.28463   -22837.358    121.01195    -22958.37    1512.3805 
  149400    282.58751   -22838.923    109.50416   -22948.427    -4202.821 
  149600    316.97965   -22840.211    122.83129   -22963.043    3274.6733 
  149800    325.25138   -22822.421    126.03664   -22948.458    966.76984 
  150000    284.84131   -22850.095    110.37752   -22960.472    5276.7712 
  150200    320.52004   -22835.692    124.20322   -22959.895    -631.4466 
  150400    329.41262   -22834.404    127.64914   -22962.053    2172.1259 
  150600    276.25866   -22850.636     107.0517   -22957.688   -701.14417 
  150800    287.41318   -22849.446    111.37413    -22960.82    4188.1606 
  151000    283.89549   -22833.457    110.01101   -22943.468   -886.04018 
  151200    308.69454   -22851.595    119.62077   -22971.216    6448.8913 
  151400      330.855   -22839.024    128.20807   -22967.233    10117.755 
  151600    312.69025   -22844.329    121.16913   -22965.498   -5164.9548 
  151800    305.08682   -22844.349    118.22276   -22962.572   -12287.357 
  152000     272.8786   -22857.112    105.74191   -22962.854    4164.1627 
  152200    310.97353   -22833.139    120.50389   -22953.643    7766.2492 
  152400    292.60554   -22834.013     113.3862   -22947.399   -7889.7503 
  152600    279.34939   -22866.921    108.24937   -22975.171   -3532.5522 
  152800    276.93704   -22857.796    107.31457   -22965.111   -5793.8347 
  153000    337.92828    -22839.71      130.949   -22970.659    4627.4017 
  153200    283.99272   -22848.008    110.04869   -22958.057    3326.8492 
  153400    344.70104   -22821.515    133.57348   -22955.089    5831.6699 
  153600    280.42476   -22843.622    108.66608   -22952.288   -542.12567 
  153800    301.21277   -22842.232    116.72155   -22958.954    1527.9961 
  154000    332.09532   -22827.475     128.6887   -22956.163    380.22164 
  154200    286.13771   -22852.993    110.87988   -22963.873      4377.23 
  154400    289.26281   -22849.706    112.09087   -22961.797    127.50678 
  154600    374.51139   -22819.487    145.12515   -22964.612    2355.7188 
  154800    253.98728   -22853.107    98.421418   -22951.528   -4150.9486 
  155000    324.21725   -22835.233     125.6359   -22960.869    3237.5281 
  155200    317.27395   -22817.147    122.94534   -22940.092    20123.118 
  155400    310.96737   -22849.583    120.50151   -22970.085    -1531.189 
  155600    302.17811   -22854.548    117.09562   -22971.644   -2137.5609 
  155800    333.68037   -22831.053    129.30292   -22960.356    6786.9653 
  156000    300.80791   -22833.579    116.56466   -22950.144    1491.2382 
  156200    286.59529   -22860.045    111.05719   -22971.103    6089.2888 
  156400    302.70575   -22838.496    117.30008   -22955.796   -10503.576 
  156600    295.37193   -22843.354    114.45819   -22957.812   -4785.8706 
  156800    237.88342   -22864.637    92.181087   -22956.818    4208.6971 
  157000    299.04197   -22847.457    115.88035   -22963.337    2106.7489 
  157200    322.11902   -22833.013    124.82283   -22957.836    482.61231 
  157400    317.14073   -22843.675    122.89371   -22966.568   -6650.5736 
  157600    276.32328   -22853.173    107.07674    -22960.25   -3531.2464 
  157800     328.2809   -22832.921    127.21059   -22960.131    7006.6982 
  158000    310.87143   -22843.025    120.46433   -22963.489    509.64056 
  158200    246.66991   -22877.055    95.585898   -22972.641   -1149.5449 
  158400    279.57033   -22858.944    108.33499   -22967.279    16309.228 
  158600    295.78193   -22838.487    114.61707   -22953.104    -1762.256 
  158800      310.468   -22822.503      120.308   -22942.811    2339.1353 
  159000    288.04238    -22848.53    111.61795   -22960.148   -796.10335 
  159200    279.49824   -22855.535    108.30705   -22963.842   -5440.9764 
  159400     286.7878   -22848.115    111.13179   -22959.247    4803.4325 
  159600    303.72778   -22828.212    117.69613   -22945.909   -8724.3157 
  159800    280.33164   -22857.026       108.63   -22965.656   -7439.8854 
  160000    285.74338   -22847.128    110.72708   -22957.855    11386.225 
  160200    315.45668    -22834.89    122.24114   -22957.131   -6786.0621 
  160400    319.16989    -22855.99    123.68002    -22979.67    1754.7323 
  160600    296.64966   -22845.703    114.95332   -22960.656    484.21234 
  160800    316.89226   -22832.151    122.79743   -22954.948   -2172.6909 
  161000    273.46902   -22853.803     105.9707   -22959.774    6092.9577 
  161200    322.71579   -22829.313    125.05408   -22954.367   -1620.0107 
  161400    337.89132   -22826.067    130.93468   -22957.002   -584.13578 
  161600    308.42537   -22846.402    119.51647   -22965.919    2008.7186 
  161800    285.67146   -22840.805    110.69921   -22951.504   -398.76127 
  162000    300.03914   -22825.439    116.26676   -22941.706    13.857775 
  162200    264.17984   -22854.821    102.37109   -22957.192   -4104.0894 
  162400    278.42149   -22835.094     107.8898   -22942.984    5696.8615 
  162600    299.05992   -22833.864    115.88731   -22949.751    3982.5457 
  162800    285.37848   -22859.606    110.58568   -22970.191    9786.7011 
  163000     309.5609   -22835.355    119.95649   -22955.311   -185.01399 
  163200     357.7344   -22830.279    138.62398   -22968.903    5578.7566 
  163400    273.32425   -22850.005     105.9146   -22955.919    10088.942 
  163600     318.7748   -22837.705    123.52693   -22961.232    2713.6369 
  163800     296.6757   -22840.098    114.96341   -22955.061   -11412.729 
  164000    270.51725   -22856.166    104.82687   -22960.993    1888.5047 
  164200    306.76187   -22832.704    118.87185   -22951.576    4513.9037 
  164400    293.54505   -22854.901    113.75026   -22968.651    14301.206 
  164600    289.22079   -22853.636    112.07459    -22965.71   -3836.8839 
  164800    301.86924   -22835.954    116.97593    -22952.93   -7514.1827 
  165000    327.64124   -22837.885    126.96272   -22964.847   -3722.2597 
  165200    326.66468   -22850.412     126.5843   -22976.996    1382.3066 
  165400    315.65142   -22822.206     122.3166   -22944.522     -3008.33 
  165600    306.12959   -22830.893    118.62684   -22949.519    6604.7261 
  165800    287.05031   -22841.984    111.23352   -22953.217   -9260.9297 
  166000    292.94621   -22854.801    113.51821    -22968.32    8192.1833 
  166200    352.89139   -22827.318    136.74729   -22964.065    1547.3838 
  166400    289.37432   -22845.862    112.13409   -22957.996    978.69033 
  166600    308.64122   -22841.362    119.60011   -22960.962     3548.248 
  166800    305.65547   -22824.205    118.44312   -22942.648   -3249.7547 
  167000    289.33841   -22849.201    112.12017   -22961.321   -575.85481 
  167200    325.04285   -22840.745    125.95583   -22966.701    5016.6904 
  167400     299.0715   -22838.489    115.89179    -22954.38    2479.4557 
  167600    299.13078   -22854.641    115.91477   -22970.556    4833.0872 
  167800    296.54565   -22851.131    114.91301   -22966.044     -4009.57 
  168000    303.05718   -22828.012    117.43627   -22945.448    -8302.156 
  168200    301.06941   -22857.532    116.66599   -22974.198    5011.6512 
  168400    299.39222   -22843.099    116.01608   -22959.116    4282.5876 
  168600    301.91755   -22835.508    116.99465   -22952.502     10713.98 
  168800    229.14062   -22856.559    88.793204   -22945.352    2027.4111 
  169000    313.81776   -22824.224    121.60605    -22945.83    2837.7812 
  169200    310.85693    -22839.32    120.45871   -22959.778   -939.93044 
  169400    276.25627    -22844.19    107.05077   -22951.241    10492.544 
  169600    315.03712   -22844.728    122.07856   -22966.807   -1390.1345 
  169800    290.53665   -22838.777    112.58449   -22951.362    560.94412 
  170000    294.83701     -22843.9     114.2509   -22958.151    1185.5273 
  170200    268.94847   -22861.382    104.21896   -22965.601   -2692.2807 
  170400    306.14521   -22848.012    118.63289   -22966.645    3743.1425 
  170600    314.84898   -22841.661    122.00565   -22963.667    314.39281 
  170800    334.86608   -22817.246    129.76238   -22947.008   -1697.7305 
  171000    286.06821   -22842.233    110.85295   -22953.086    1894.2936 
  171200    332.64533   -22841.444    128.90183   -22970.346    9063.8441 
  171400    303.88328   -22823.337    117.75638   -22941.094   -1771.8132 
  171600    285.36721    -22843.57    110.58131   -22954.151   -3677.4503 
  171800    293.72905   -22847.787    113.82157   -22961.609    5043.9349 
  172000    334.11765   -22821.627    129.47236   -22951.099    -4346.297 
  172200    318.68023   -22846.816    123.49028   -22970.307    2670.8451 
  172400    316.05488   -22843.995    122.47294   -22966.468   -85.590369 
  172600    357.58373   -22822.067    138.56559   -22960.632    5917.3029 
  172800    288.56098   -22852.624    111.81891   -22964.443    297.39494 
  173000    286.50254   -22844.107    111.02126   -22955.128   -1893.6165 
  173200    325.14656   -22823.614    125.99602    -22949.61    -7025.799 
  173400    287.45582   -22853.973    111.39066   -22965.363    4452.0101 
  173600     291.9759   -22837.012    113.14221   -22950.154   -5970.7055 
  173800    300.87184   -22831.559    116.58944   -22948.149    512.30946 
  174000     281.5051   -22853.361    109.08472   -22962.445    3112.3984 
  174200    310.25993   -22835.361    120.22737   -22955.588   -765.92617 
  174400    315.97201    -22822.66    122.44083     -22945.1   -3840.0032 
  174600    310.54348   -22844.047    120.33725   -22964.384   -5469.3281 
  174800     309.9561   -22854.554    120.10963   -22974.664    3229.8438 
  175000    319.46605   -22829.738    123.79479   -22953.532    6454.3763 
  175200    304.91922   -22843.571    118.15782   -22961.729   -49.886017 
  175400    289.49633   -22841.855    112.18136   -22954.037     10363.57 
  175600    322.21133   -22819.322     124.8586   -22944.181    7295.8742 
  175800    276.98347   -22847.081    107.33256   -22954.413    172.45429 
  176000     311.7195   -22841.567    120.79296    -22962.36    8903.8187 
  176200    348.07984   -22815.534    134.88278   -22950.417   -2159.6371 
  176400    281.35748   -22847.942    109.02752   -22956.969   -10940.665 
  176600    322.82315   -22831.882    125.09568   -22956.978    5989.0566 
  176800    282.91608   -22855.242    109.63148   -22964.873    761.28117 
  177000     294.0668   -22853.949    113.95244   -22967.902    7004.5659 
  177200    324.44845   -22837.147     125.7255   -22962.873   -3209.6578 
  177400    295.31255   -22839.206    114.43518   -22953.641    -3922.026 
  177600    290.92367   -22842.013    112.73446   -22954.748    5518.3736 
  177800    307.64315   -22843.417    119.21335    -22962.63   -10080.426 
  178000    306.42729   -22839.519     118.7422   -22958.261    9026.7519 
  178200    289.79203   -22847.473    112.29595   -22959.769   -1594.3412 
  178400    285.31251   -22854.283    110.56011   -22964.843    -3000.604 
  178600    325.76449   -22829.648    126.23547   -22955.884   -2174.2973 
  178800    281.61826    -22859.95    109.12857   -22969.079   -8201.6265 
  179000    297.26418   -22844.314    115.19145   -22959.505    4875.0162 
  179200    313.26892   -22829.873    121.39337   -22951.267   -7837.4569 
  179400    274.10383   -22857.831    106.21669   -22964.048    3868.3393 
  179600      288.055   -22841.585    111.62284   -22953.208   -10559.283 
[...]
  950000    284.69958   -22847.584     110.3226   -22957.907    9983.8764 
  950200    329.87131   -22834.247    127.82688   -22962.074    2699.7217 
  950400    288.39102   -22848.237    111.75305    -22959.99   -263.11591 
  950600    299.48985    -22853.97    116.05391   -22970.024    4933.2663 
  950800    320.22022   -22829.449    124.08704   -22953.536   -1304.5362 
  951000    302.00661    -22832.89    117.02916   -22949.919    219.14302 
  951200    296.99754    -22853.75    115.08812   -22968.838   -1675.5373 
  951400    302.89228   -22840.945    117.37236   -22958.317    7734.8691 
  951600    294.47468   -22866.104     114.1105   -22980.215    2468.0247 
  951800    314.00819   -22847.396    121.67984   -22969.076    851.58404 
  952000    294.30322    -22846.62    114.04406   -22960.664   -1529.1197 
  952200      305.694   -22822.707    118.45805   -22941.165   -3496.8061 
  952400    325.62693   -22827.088    126.18216    -22953.27    7382.7389 
  952600    302.69457   -22849.939    117.29575   -22967.234    5820.4642 
  952800    297.38008   -22831.773    115.23636   -22947.009   -7000.1666 
  953000    313.05228   -22825.161    121.30942   -22946.471    5541.7301 
  953200     313.2735   -22855.139    121.39514   -22976.534    1260.7157 
  953400     313.8898   -22838.677    121.63396   -22960.311    -1430.353 
  953600    285.60877   -22835.097    110.67492   -22945.772    2683.9676 
  953800    288.01077   -22839.416     111.6057   -22951.022    11101.283 
  954000    292.55219   -22838.616    113.36553   -22951.981   -5708.0674 
  954200    275.05003   -22869.024    106.58335   -22975.607   -1140.7538 
  954400    324.01449   -22838.276    125.55733   -22963.833    54.872744 
  954600    301.47589   -22833.458    116.82351   -22950.282   -8615.3465 
  954800    304.85427   -22842.751    118.13265   -22960.884    294.02045 
  955000    260.88981   -22858.473    101.09619   -22959.569    4548.2383 
  955200    318.32634   -22833.067    123.35314    -22956.42   -10423.928 
  955400    289.59417   -22857.246    112.21928   -22969.465   -5328.9297 
  955600    296.78537   -22851.859     115.0059   -22966.864   -3161.3879 
  955800    290.98923   -22843.263    112.75987   -22956.023    1103.0446 
  956000    317.70264   -22836.197    123.11146   -22959.309   -6872.1285 
  956200    280.46544    -22843.75    108.68185   -22952.432   -8611.2917 
  956400    312.20424   -22829.974     120.9808   -22950.955   -7294.1488 
  956600     301.1939   -22847.546    116.71424    -22964.26    9648.6853 
  956800    278.66064   -22848.129    107.98248   -22956.112     6961.478 
  957000    344.83694   -22826.178    133.62614   -22959.804    9296.0648 
  957200    330.13667   -22832.664    127.92971   -22960.594    11483.681 
  957400    292.43457    -22848.37    113.31995    -22961.69   -8952.6717 
  957600    282.96142   -22834.914    109.64905   -22944.563     -2066.45 
  957800    287.03222   -22825.251    111.22651   -22936.477     1536.883 
  958000    308.17393   -22849.266    119.41903   -22968.685    9546.3303 
  958200    294.51473   -22846.925    114.12602   -22961.051    2901.7351 
  958400    333.22438   -22821.694    129.12621   -22950.821    5585.4054 
  958600    280.32107   -22858.639     108.6259   -22967.265   -3495.0808 
  958800    330.72509   -22835.235    128.15773   -22963.393    8738.7191 
  959000    258.27447   -22850.176    100.08273   -22950.258    5537.7198 
  959200    295.73138   -22845.093    114.59748    -22959.69   -6359.9761 
  959400    320.70948   -22821.198    124.27663   -22945.475    7403.0997 
  959600    287.44066   -22844.508    111.38478   -22955.893    2301.9312 
  959800    309.54209   -22838.012     119.9492   -22957.961    3781.3524 
  960000    310.67537   -22837.559    120.38836   -22957.947    5474.8275 
  960200    288.74363   -22845.167    111.88969   -22957.057    2239.4925 
  960400    256.43544   -22867.307    99.370093   -22966.678    6212.9995 
  960600    293.57467   -22845.582    113.76174   -22959.344   -10982.724 
  960800    294.45016   -22845.517      114.101   -22959.618    1298.1892 
  961000    259.64399   -22865.012    100.61342   -22965.625   -2742.7315 
  961200    297.15245    -22833.47    115.14815   -22948.619     5849.717 
  961400    307.82052   -22831.856    119.28209   -22951.138   -1417.8869 
  961600    288.40758   -22849.711    111.75947   -22961.471   -6790.9783 
  961800    303.61513   -22847.558    117.65247    -22965.21   -991.48165 
  962000    298.41424   -22831.072     115.6371    -22946.71    7633.5331 
  962200    286.12452   -22838.918    110.87477   -22949.793    5999.9237 
  962400    280.30968   -22868.681    108.62149   -22977.303   -4455.0487 
  962600    275.00533   -22859.413    106.56603   -22965.979    2004.1126 
  962800    323.19148    -22843.28    125.23842   -22968.519    6042.2054 
  963000    265.08432   -22858.092    102.72158   -22960.813    6354.0187 
  963200    317.40507   -22835.331    122.99615   -22958.327   -5056.6103 
  963400    298.35769   -22830.013    115.61519   -22945.628    10592.723 
  963600    289.91972    -22855.23    112.34543   -22967.575    3549.8654 
  963800    271.23289   -22848.996    105.10418     -22954.1    6850.8981 
  964000    297.09932   -22839.631    115.12756   -22954.758   -12695.225 
  964200    269.70198   -22858.367    104.51095   -22962.877   -2749.0059 
  964400     282.0415   -22854.248    109.29258   -22963.541    183.12807 
  964600    288.22984    -22831.98    111.69059   -22943.671    4227.1269 
  964800    322.64604   -22835.342    125.02705   -22960.369    998.62861 
  965000    252.42944   -22863.642    97.817746    -22961.46     9995.504 
  965200    282.98057    -22844.38    109.65647   -22954.037    2035.0441 
  965400    304.31988   -22836.087    117.92557   -22954.013    4247.1966 
  965600    287.01411   -22862.897    111.21949   -22974.117   -1076.6085 
  965800    307.81769   -22846.167    119.28099   -22965.448   -7812.6617 
  966000    286.65432   -22836.363    111.08007   -22947.443   -4231.0359 
  966200    270.39036   -22861.893     104.7777    -22966.67     5423.973 
  966400    324.49055   -22847.011    125.74181   -22972.753    6905.6759 
  966600    332.70161   -22841.364    128.92364   -22970.288   -443.08263 
  966800    268.73126   -22860.024    104.13479   -22964.159    4596.1998 
  967000    255.36432   -22857.088     98.95503   -22956.043    4224.2007 
  967200    326.00442   -22831.515    126.32844   -22957.843    729.92092 
  967400    289.11124   -22841.603    112.03214   -22953.635     3739.586 
  967600     321.7295   -22813.883    124.67189   -22938.555   -10.303052 
  967800    291.75969   -22845.761    113.05843   -22958.819   -5002.0548 
  968000    314.65938   -22848.078    121.93218    -22970.01    137.31292 
  968200    295.33555   -22839.663    114.44409   -22954.108   -7174.0759 
  968400    332.59328   -22831.217    128.88166   -22960.099   -2497.0131 
  968600    266.08201   -22849.319    103.10819   -22952.428     3163.605 
  968800    358.16988   -22826.635    138.79273   -22965.428   -278.77184 
  969000    272.98376   -22856.263    105.78266   -22962.046   -3314.3672 
  969200    290.77404   -22843.312    112.67648   -22955.988   -1037.0759 
  969400    327.84089   -22822.354    127.04009   -22949.394   -6109.5651 
  969600    308.13427   -22845.161    119.40366   -22964.565   -4621.8977 
  969800    296.04974   -22844.044    114.72084   -22958.764     -1175.62 
  970000    335.43558   -22834.801    129.98307   -22964.784    798.40517 
  970200    266.89459   -22861.773    103.42307   -22965.196   -11578.153 
  970400    309.72554   -22834.588    120.02029   -22954.608    1515.2457 
  970600    296.67157   -22833.188    114.96181    -22948.15    -2092.559 
  970800    364.59573   -22808.411    141.28278   -22949.694   -6508.9042 
  971000    292.05591   -22843.589    113.17321   -22956.763     1167.208 
  971200    275.58887   -22839.328    106.79215    -22946.12   -7186.0911 
  971400    340.60378   -22822.119    131.98577   -22954.104     -1414.66 
  971600     282.4502   -22852.173    109.45095   -22961.623    339.90558 
  971800    306.80661   -22841.347    118.88919   -22960.236    -5176.955 
  972000    329.95041   -22817.245    127.85753   -22945.102    896.86232 
  972200    319.24641    -22850.21    123.70968   -22973.919   -1475.5124 
  972400     258.0533   -22854.342    99.997022   -22954.339   -1192.7044 
  972600    323.43318   -22827.133    125.33207   -22952.465   -1215.9392 
  972800    279.72396    -22844.56    108.39452   -22952.954   -7009.4975 
  973000    301.60544   -22855.005    116.87371   -22971.878    5054.5723 
  973200    334.47158   -22840.708    129.60951   -22970.318    7457.1738 
  973400    355.65815   -22817.836    137.81942   -22955.655   -1648.9705 
  973600    293.88124   -22829.458    113.88054   -22943.339    5987.3156 
  973800    274.10415   -22854.509    106.21681   -22960.726   -3457.3258 
  974000     317.1764    -22833.16    122.90754   -22956.067    3992.9421 
  974200    310.10478   -22837.462    120.16725   -22957.629    -2572.443 
  974400    292.53772   -22852.597    113.35992   -22965.957   -11504.077 
  974600    331.08806   -22818.609    128.29838   -22946.907    5824.2142 
  974800    289.40644    -22843.49    112.14653   -22955.637    2604.5737 
  975000    283.10968   -22844.401     109.7065   -22954.108   -5155.5976 
  975200    268.08221    -22861.75    103.88328   -22965.633    4514.7209 
  975400    257.60934    -22848.96    99.824984   -22948.785    2537.7807 
  975600    310.79727   -22834.639    120.43559   -22955.075   -489.55712 
  975800    257.27519   -22859.155    99.695502    -22958.85    2276.3331 
  976000    289.26086   -22838.666    112.09012   -22950.756    1366.7532 
  976200    281.81245   -22839.776    109.20382    -22948.98   -4565.2038 
  976400    286.49611    -22842.11    111.01876   -22953.129    8135.7829 
  976600    300.04297   -22830.679    116.26824   -22946.947   -17420.981 
  976800    278.99636   -22849.661    108.11257   -22957.774   -5735.2503 
  977000    283.36489    -22846.76     109.8054   -22956.565    6861.1256 
  977200    309.33742   -22838.818    119.86989   -22958.688    510.65139 
  977400    286.11858   -22851.053    110.87247   -22961.926    472.43313 
  977600    276.40796   -22872.397    107.10955   -22979.506    7925.1305 
  977800    303.14575   -22847.144    117.47059   -22964.615   -3650.8478 
  978000    289.52867   -22838.019     112.1939   -22950.213   -4078.0355 
  978200    317.75974   -22833.882    123.13358   -22957.015    2875.0853 
  978400    297.12042   -22845.053    115.13574   -22960.189    -16.34268 
  978600     276.1336   -22851.752    107.00323   -22958.755    6777.4202 
  978800    311.34841   -22819.981    120.64916    -22940.63   -10863.445 
  979000    294.18276   -22845.361    113.99738   -22959.358    709.44103 
  979200    285.61828   -22840.495     110.6786   -22951.174   -1092.4967 
  979400    338.81903   -22822.631    131.29417   -22953.925   -5507.3984 
  979600    295.84521   -22854.112    114.64159   -22968.754    10039.582 
  979800    305.41899   -22841.427    118.35148   -22959.778   -7657.6071 
  980000    312.97467   -22817.475    121.27935   -22938.755   -3382.8877 
  980200    320.58149   -22808.908    124.22703   -22933.135   -3199.5447 
  980400    267.88336   -22846.015    103.80622   -22949.822     -6175.18 
  980600    292.98369   -22855.506    113.53273   -22969.039    3287.9658 
  980800    317.99707   -22835.858    123.22555   -22959.083    3112.3651 
  981000    314.58546   -22834.964    121.90353   -22956.867    5385.7013 
  981200    256.70504   -22858.841    99.474564   -22958.315    2890.2327 
  981400    313.72179   -22839.414    121.56886   -22960.983    2105.9129 
  981600    279.13932   -22836.465    108.16797   -22944.633     9166.575 
  981800    255.18237   -22867.513    98.884524   -22966.397   -5893.7694 
  982000    270.53099   -22842.101     104.8322   -22946.933    7995.9559 
  982200    321.70474   -22827.611    124.66229   -22952.274    8365.0823 
  982400    309.37773   -22855.942    119.88551   -22975.828   -4584.3344 
  982600    289.69167   -22847.887    112.25706   -22960.144    2356.4791 
  982800    350.40434   -22821.195    135.78354   -22956.978   -2818.7097 
  983000    334.22771   -22829.481    129.51501   -22958.996   -5122.8895 
  983200    266.13243   -22848.103    103.12773    -22951.23    2889.2001 
  983400    285.46086   -22844.053     110.6176    -22954.67     548.4505 
  983600    299.28779   -22846.941    115.97561   -22962.916    1674.2458 
  983800    288.84898   -22851.374    111.93051   -22963.304   -1277.1472 
  984000    324.11251   -22823.935    125.59532    -22949.53     3257.496 
  984200    295.88037   -22838.036    114.65521   -22952.691    -2732.295 
  984400    308.99138   -22852.371     119.7358   -22972.106   -1466.2801 
  984600    324.78225   -22836.872    125.85485   -22962.727   -1245.9394 
  984800    285.50211   -22856.842    110.63358   -22967.475    9330.8007 
  985000    301.11377   -22852.484    116.68318   -22969.167    2176.6333 
  985200    317.06015    -22838.39    122.86249   -22961.252    3120.6494 
  985400    292.08127   -22839.174    113.18304   -22952.357   -20.216958 
  985600    331.10021   -22826.525    128.30309   -22954.829    5115.0104 
  985800    309.40625   -22840.746    119.89656   -22960.642    2016.3778 
  986000    283.89291   -22848.027    110.01001   -22958.037    7405.9072 
  986200    367.29016   -22811.539    142.32688   -22953.866    1249.9575 
  986400    295.92089    -22837.05    114.67091   -22951.721    6383.9518 
  986600    306.74695   -22836.766    118.86607   -22955.632    14879.342 
  986800    279.88784   -22864.167    108.45802   -22972.625    732.69971 
  987000    315.57487   -22843.397    122.28694   -22965.684    1778.9799 
  987200    315.40642   -22843.314    122.22166   -22965.536    7874.5816 
  987400    303.57867    -22832.09    117.63834   -22949.728   -5979.6741 
  987600    338.66028   -22824.728    131.23266    -22955.96   -12010.287 
  987800    280.29152   -22845.957    108.61445   -22954.571   -402.02133 
  988000    311.09821   -22840.559    120.55221   -22961.112    1385.0098 
  988200    238.66064   -22873.631    92.482263   -22966.113    6658.7282 
  988400    295.09652   -22860.471    114.35147   -22974.822    2120.6355 
  988600    343.08262   -22836.524    132.94633    -22969.47    1787.6658 
  988800     281.8474   -22851.019    109.21736   -22960.236   -1904.1298 
  989000    310.03976   -22865.328    120.14205    -22985.47    4642.2556 
  989200    311.02135   -22838.016    120.52242   -22958.539    -320.0839 
  989400    290.21669   -22847.985    112.46051   -22960.445    1528.7463 
  989600    351.25679   -22816.444    136.11387   -22952.558     6909.622 
  989800    290.89199    -22837.18    112.72219   -22949.902   -461.74697 
  990000    315.57097   -22848.425    122.28543    -22970.71    1604.3286 
  990200    321.95422    -22848.27    124.75897   -22973.029    2016.4293 
  990400    237.37937   -22867.937    91.985766   -22959.923   -5813.0232 
  990600    302.25886   -22840.788    117.12691   -22957.915   -5880.4903 
  990800    279.88238   -22840.495    108.45591   -22948.951   -7729.0329 
  991000     296.5849   -22830.423    114.92822   -22945.351   -11438.731 
  991200    283.14596   -22849.215    109.72056   -22958.935   -700.25665 
  991400    286.96576   -22860.777    111.20075   -22971.978    4335.8574 
  991600    303.20806   -22837.223    117.49473   -22954.718    10036.226 
  991800    276.65056   -22847.608    107.20356   -22954.812    6828.1793 
  992000    280.75517    -22841.66    108.79412   -22950.454   -4267.3209 
  992200     300.8197   -22825.173    116.56923   -22941.742    732.92261 
  992400    291.03313   -22854.445    112.77688   -22967.222    2527.8646 
  992600    303.76276   -22849.957    117.70968   -22967.667    6510.0945 
  992800    347.66887   -22820.619    134.72353   -22955.342    19.040582 
  993000    291.70579   -22837.505    113.03754   -22950.543    8304.4106 
  993200    292.63721   -22835.094    113.39847   -22948.492    3980.5606 
  993400    283.88657   -22842.011    110.00755   -22952.019    2500.2942 
  993600    271.34574   -22856.437    105.14791   -22961.584   -5516.2647 
  993800    344.81815   -22814.534    133.61886   -22948.153    6054.8077 
  994000    291.88122   -22835.548    113.10552   -22948.654    801.98053 
  994200    287.87312   -22854.183    111.55236   -22965.736   -2050.2091 
  994400    327.28445   -22824.629    126.82446   -22951.453   -1939.4553 
  994600    290.89461   -22831.758     112.7232   -22944.482   -7994.6567 
  994800     305.1645   -22839.294    118.25286   -22957.547     8238.957 
  995000    257.48067   -22871.164    99.775126   -22970.939    6357.9502 
  995200    273.66679   -22851.925    106.04733   -22957.973    5860.3786 
  995400    292.49162    -22844.77    113.34206   -22958.112    3495.7811 
  995600    300.89433   -22819.713    116.59815   -22936.311    -3638.088 
  995800    294.28363   -22837.737    114.03647   -22951.774     4495.875 
  996000    324.41574   -22845.684    125.71282   -22971.397   -101.17329 
  996200    278.67607   -22868.382    107.98846   -22976.371   -10974.476 
  996400    273.07147   -22858.328    105.81664   -22964.145    3081.0214 
  996600    318.10663    -22834.49    123.26801   -22957.758   -7821.7584 
  996800    284.90657   -22828.584    110.40281   -22938.986   -6467.7052 
  997000    292.64518   -22853.972    113.40156   -22967.374   -8318.0875 
  997200    322.43687   -22826.725      124.946   -22951.671     -2659.56 
  997400    316.46103   -22848.349    122.63033   -22970.979   -8706.1245 
  997600    265.34642   -22857.675    102.82315   -22960.498    4484.4154 
  997800    319.38499    -22826.18    123.76338   -22949.943    199.45393 
  998000    291.59825   -22840.655    112.99587   -22953.651    3645.7228 
  998200     302.8062   -22843.002    117.33901   -22960.341    2732.7648 
  998400    359.80905    -22812.39    139.42792   -22951.818    2569.1127 
  998600    284.27218   -22844.835    110.15698   -22954.992    420.14611 
  998800     291.7853   -22850.359    113.06835   -22963.428   -10069.884 
  999000    318.48815   -22824.139    123.41585   -22947.555   -2224.7071 
  999200    290.25073   -22846.151     112.4737   -22958.624    6022.4395 
  999400    313.30004   -22839.372    121.40543   -22960.777   -5360.0027 
  999600      345.029   -22821.527    133.70057   -22955.227   -1822.0909 
  999800    311.45988   -22850.852    120.69236   -22971.544    3994.8663 
 1000000    308.79289   -22838.825    119.65888   -22958.484   -7109.6399 
Loop time of 1988.56 on 8 procs for 1000000 steps with 131 atoms

Performance: 10.862 ns/day, 2.210 hours/ns, 502.875 timesteps/s
99.2% CPU use with 8 MPI tasks x no OpenMP threads

MPI task timing breakdown:
Section |  min time  |  avg time  |  max time  |%varavg| %total
---------------------------------------------------------------
Pair    | 1624.1     | 1645.7     | 1680.4     |  51.0 | 82.76
Neigh   | 1.0346     | 1.0698     | 1.0997     |   2.0 |  0.05
Comm    | 33.829     | 68.684     | 90.29      | 249.7 |  3.45
Output  | 0.11217    | 0.12269    | 0.1861     |   6.8 |  0.01
Modify  | 270.41     | 270.67     | 270.88     |   0.9 | 13.61
Other   |            | 2.34       |            |       |  0.12

Nlocal:    16.375 ave 19 max 16 min
Histogram: 7 0 0 0 0 0 0 0 0 1
Nghost:    551.75 ave 566 max 542 min
Histogram: 1 2 0 1 1 1 1 0 0 1
Neighs:    2292.88 ave 2646 max 2193 min
Histogram: 2 5 0 0 0 0 0 0 0 1

Total # of neighbors = 18343
Ave neighs/atom = 140.023
Neighbor list builds = 1597
Dangerous builds = 0

unfix 1
unfix output
undump 1

Please see the log.cite file for references relevant to this simulation

Total wall time: 0:33:09
