ITEM: TIMESTEP
0
ITEM: NUMBER OF ATOMS
131
ITEM: BOX BOUNDS pp pp pp
0.0000000000000000e+00 1.8762000000000000e+01
0.0000000000000000e+00 1.8762000000000000e+01
0.0000000000000000e+00 1.8760999999999999e+01
ITEM: ATOMS id type x y z 
1 1 3.12 3.119 3.121 
10 1 5.595 5.596 5.595 
17 1 4.011 4.011 4.012 
26 1 4.704 4.704 4.704 
33 1 0.414 3.456 3.456 
41 1 3.456 0.413 3.456 
49 1 3.456 3.456 0.414 
58 1 8.301 5.259 5.259 
66 1 5.259 8.301 5.259 
74 1 5.259 5.259 8.301 
81 1 1.612 3.354 3.354 
89 1 3.353 1.612 3.354 
97 1 3.354 3.354 1.613 
106 1 7.103 5.361 5.361 
114 1 5.362 7.103 5.361 
122 1 5.361 5.361 7.103 
4 1 3.12 3.12 14.976 
11 1 5.595 5.595 12.5 
20 1 4.011 4.011 14.084 
27 1 4.704 4.704 13.392 
36 1 0.414 3.456 14.639 
46 1 3.456 0.414 14.639 
56 1 3.456 3.456 17.682 
59 1 8.301 5.259 12.837 
69 1 5.259 8.301 12.837 
79 1 5.259 5.259 9.794 
84 1 1.612 3.354 14.742 
94 1 3.354 1.612 14.742 
104 1 3.354 3.354 16.483 
107 1 7.103 5.361 12.735 
117 1 5.361 7.103 12.735 
127 1 5.361 5.361 10.993 
6 1 3.12 14.976 3.12 
13 1 5.595 12.501 5.596 
22 1 4.011 14.085 4.011 
29 1 4.704 13.392 4.705 
38 1 0.414 14.64 3.457 
48 1 3.456 17.682 3.456 
52 1 3.456 14.64 0.414 
61 1 8.301 12.837 5.259 
71 1 5.259 9.794 5.259 
75 1 5.259 12.837 8.301 
86 1 1.612 14.742 3.354 
96 1 3.354 16.483 3.354 
100 1 3.354 14.742 1.612 
109 1 7.103 12.735 5.361 
119 1 5.361 10.993 5.361 
123 1 5.361 12.735 7.103 
7 1 3.12 14.976 14.976 
16 1 5.595 12.501 12.5 
23 1 4.011 14.085 14.084 
32 1 4.704 13.392 13.391 
39 1 0.414 14.64 14.639 
43 1 3.456 17.682 14.639 
53 1 3.456 14.64 17.682 
64 1 8.302 12.837 12.837 
68 1 5.259 9.795 12.837 
78 1 5.259 12.837 9.794 
87 1 1.612 14.742 14.741 
91 1 3.354 16.483 14.741 
101 1 3.353 14.742 16.483 
112 1 7.103 12.735 12.735 
116 1 5.361 10.993 12.735 
126 1 5.361 12.735 10.993 
8 1 14.976 3.12 3.12 
15 1 12.501 5.595 5.595 
24 1 14.084 4.011 4.011 
31 1 13.392 4.704 4.704 
40 1 17.682 3.456 3.456 
44 1 14.64 0.414 3.457 
54 1 14.64 3.456 0.414 
63 1 9.795 5.259 5.259 
67 1 12.837 8.301 5.259 
77 1 12.837 5.259 8.301 
88 1 16.483 3.354 3.354 
92 1 14.742 1.612 3.354 
102 1 14.742 3.354 1.612 
111 1 10.993 5.361 5.361 
115 1 12.735 7.103 5.361 
125 1 12.735 5.361 7.103 
5 1 14.976 3.119 14.975 
14 1 12.501 5.596 12.501 
21 1 14.085 4.011 14.084 
30 1 13.392 4.703 13.392 
37 1 17.682 3.456 14.639 
47 1 14.64 0.413 14.639 
51 1 14.64 3.456 17.682 
62 1 9.794 5.259 12.837 
72 1 12.837 8.301 12.837 
76 1 12.837 5.259 9.795 
85 1 16.483 3.354 14.741 
95 1 14.742 1.612 14.741 
99 1 14.742 3.354 16.483 
110 1 10.993 5.361 12.735 
120 1 12.734 7.103 12.735 
124 1 12.735 5.361 10.993 
3 1 14.976 14.976 3.12 
12 1 12.501 12.501 5.595 
19 1 14.085 14.085 4.011 
28 1 13.392 13.392 4.704 
35 1 17.682 14.64 3.457 
45 1 14.64 17.682 3.457 
55 1 14.64 14.64 0.414 
60 1 9.794 12.837 5.259 
70 1 12.837 9.794 5.259 
80 1 12.837 12.837 8.301 
83 1 16.484 14.742 3.354 
93 1 14.742 16.483 3.354 
103 1 14.742 14.742 1.613 
108 1 10.993 12.735 5.361 
118 1 12.734 10.993 5.361 
128 1 12.734 12.734 7.103 
2 1 14.976 14.976 14.975 
9 1 12.501 12.501 12.501 
18 1 14.084 14.085 14.084 
25 1 13.391 13.393 13.392 
34 1 17.682 14.64 14.639 
42 1 14.64 17.682 14.639 
50 1 14.64 14.64 17.682 
57 1 9.795 12.837 12.837 
65 1 12.837 9.794 12.837 
73 1 12.837 12.837 9.794 
82 1 16.483 14.742 14.741 
90 1 14.742 16.483 14.741 
98 1 14.742 14.742 16.483 
105 1 10.993 12.734 12.734 
113 1 12.735 10.993 12.735 
121 1 12.735 12.734 10.993 
129 2 9.795 14.187 12.837 
130 2 10.774 15.311 12.983 
131 3 10.017 15.889 13.201 
ITEM: TIMESTEP
10
ITEM: NUMBER OF ATOMS
131
ITEM: BOX BOUNDS pp pp pp
0.0000000000000000e+00 1.8762000000000000e+01
0.0000000000000000e+00 1.8762000000000000e+01
0.0000000000000000e+00 1.8760999999999999e+01
ITEM: ATOMS id type x y z 
1 1 3.1132 3.11263 3.11396 
10 1 5.6021 5.60265 5.60202 
17 1 4.01411 4.01407 4.01482 
26 1 4.70079 4.70084 4.70101 
33 1 0.417532 3.45501 3.45494 
41 1 3.4548 0.417322 3.45499 
49 1 3.45481 3.45486 0.419456 
58 1 8.29536 5.26014 5.26017 
66 1 5.26033 8.29501 5.26011 
74 1 5.26025 5.26021 8.29447 
81 1 1.60859 3.35448 3.35473 
89 1 3.35379 1.60783 3.3548 
97 1 3.35482 3.35482 1.60805 
106 1 7.10775 5.3604 5.36027 
114 1 5.3611 7.10835 5.36027 
122 1 5.36019 5.36025 7.10856 
4 1 3.11312 3.11313 14.9826 
11 1 5.60191 5.60205 12.4935 
20 1 4.01408 4.014 14.0814 
27 1 4.70087 4.70092 13.3947 
36 1 0.418588 3.45493 14.6402 
46 1 3.45497 0.418202 14.6402 
56 1 3.45483 3.45482 17.6764 
59 1 8.29641 5.26007 12.836 
69 1 5.26007 8.29602 12.8359 
79 1 5.26017 5.26018 9.80003 
84 1 1.60782 3.35454 14.7412 
94 1 3.35451 1.60814 14.7412 
104 1 3.35481 3.35481 16.4883 
107 1 7.10656 5.36044 12.7356 
117 1 5.36043 7.10683 12.7356 
127 1 5.36019 5.3602 10.9876 
6 1 3.11316 14.9827 3.11311 
13 1 5.60231 12.4937 5.60303 
22 1 4.01389 14.0821 4.01407 
29 1 4.70105 13.3949 4.70183 
38 1 0.41916 14.6411 3.45579 
48 1 3.45482 17.6759 3.45478 
52 1 3.45497 14.6411 0.418592 
61 1 8.29303 12.8356 5.26036 
71 1 5.26043 9.80301 5.26046 
75 1 5.26012 12.8358 8.29478 
86 1 1.60769 14.7413 3.35471 
96 1 3.35484 16.4886 3.35482 
100 1 3.35455 14.7413 1.6084 
109 1 7.10964 12.736 5.36033 
119 1 5.35988 10.9851 5.36007 
123 1 5.36048 12.7357 7.10736 
7 1 3.11311 14.9828 14.9826 
16 1 5.59096 12.4942 12.4935 
23 1 4.01372 14.0824 14.0816 
32 1 4.69993 13.3954 13.3944 
39 1 0.417967 14.6411 14.64 
43 1 3.45478 17.6764 14.6401 
53 1 3.45469 14.6411 17.676 
64 1 8.27537 12.8291 12.8313 
68 1 5.2599 9.79575 12.8364 
78 1 5.25983 12.8365 9.79482 
87 1 1.6085 14.7414 14.7405 
91 1 3.35481 16.4886 14.7402 
101 1 3.35393 14.7412 16.4882 
112 1 7.08859 12.7342 12.7356 
116 1 5.35999 10.9893 12.7361 
126 1 5.35995 12.7362 10.9894 
8 1 14.9826 3.11314 3.11317 
15 1 12.494 5.60202 5.602 
24 1 14.0814 4.01403 4.01395 
31 1 13.3948 4.70091 4.70094 
40 1 17.6759 3.45477 3.45477 
44 1 14.641 0.418005 3.45585 
54 1 14.641 3.45496 0.418514 
63 1 9.8005 5.26015 5.26016 
67 1 12.8358 8.29486 5.26021 
77 1 12.8358 5.26014 8.29551 
88 1 16.489 3.35488 3.35487 
92 1 14.7414 1.60826 3.35467 
102 1 14.7414 3.35452 1.60858 
111 1 10.9884 5.36029 5.36034 
115 1 12.7358 7.10827 5.36023 
125 1 12.7357 5.3603 7.10763 
5 1 14.9827 3.11253 14.9818 
14 1 12.4938 5.60241 12.4941 
21 1 14.0817 4.01357 14.0812 
30 1 13.3952 4.70058 13.3949 
37 1 17.678 3.45496 14.64 
47 1 14.641 0.417007 14.64 
51 1 14.6411 3.45498 17.6772 
62 1 9.80104 5.26023 12.8357 
72 1 12.8358 8.29452 12.836 
76 1 12.8359 5.26012 9.80014 
85 1 16.4871 3.35457 14.7403 
95 1 14.7414 1.60831 14.7403 
99 1 14.7413 3.35462 16.4868 
110 1 10.987 5.36015 12.7359 
120 1 12.7349 7.10691 12.7355 
124 1 12.7358 5.36048 10.9886 
3 1 14.9828 14.9827 3.11322 
12 1 12.4938 12.4939 5.60161 
19 1 14.0818 14.0817 4.01425 
28 1 13.395 13.3952 4.70078 
35 1 17.6777 14.641 3.45588 
45 1 14.6412 17.6762 3.45571 
55 1 14.6412 14.6412 0.419716 
60 1 9.80047 12.8358 5.26023 
70 1 12.8357 9.80037 5.26018 
80 1 12.8359 12.836 8.29559 
83 1 16.4876 14.7414 3.35472 
93 1 14.7412 16.4889 3.35506 
103 1 14.7412 14.7411 1.60759 
108 1 10.9875 12.7359 5.36025 
118 1 12.7351 10.9875 5.36032 
128 1 12.7346 12.7346 7.10558 
2 1 14.9831 14.9831 14.9822 
9 1 12.4673 12.4991 12.5046 
18 1 14.0814 14.0825 14.0814 
25 1 13.3951 13.3978 13.397 
34 1 17.6767 14.6411 14.6401 
42 1 14.6412 17.6758 14.6402 
50 1 14.6412 14.6412 17.6762 
57 1 9.82751 12.8769 12.8581 
65 1 12.8368 9.79403 12.8362 
73 1 12.8361 12.8355 9.80276 
82 1 16.4879 14.7413 14.7402 
90 1 14.7412 16.4887 14.7401 
98 1 14.7412 14.7412 16.4882 
105 1 11.0386 12.7196 12.7024 
113 1 12.7347 10.9897 12.7368 
121 1 12.7353 12.736 10.9847 
129 2 9.79148 14.1673 12.8445 
130 2 10.7696 15.3291 12.9878 
131 3 10.0268 15.8724 13.1934 
ITEM: TIMESTEP
20
ITEM: NUMBER OF ATOMS
131
ITEM: BOX BOUNDS pp pp pp
0.0000000000000000e+00 1.8762000000000000e+01
0.0000000000000000e+00 1.8762000000000000e+01
0.0000000000000000e+00 1.8760999999999999e+01
ITEM: ATOMS id type x y z 
1 1 3.10755 3.10736 3.10853 
10 1 5.60731 5.60758 5.60725 
17 1 4.01349 4.01327 4.01389 
26 1 4.70145 4.70136 4.70167 
33 1 0.41683 3.45424 3.45416 
41 1 3.454 0.416096 3.45434 
49 1 3.4542 3.45427 0.417198 
58 1 8.29789 5.26075 5.26076 
66 1 5.26103 8.29694 5.26065 
74 1 5.26076 5.26075 8.29722 
81 1 1.60692 3.35441 3.35473 
89 1 3.35384 1.60695 3.35465 
97 1 3.35462 3.35456 1.60815 
106 1 7.10814 5.36052 5.36035 
114 1 5.36104 7.10868 5.36042 
122 1 5.36035 5.36045 7.10812 
4 1 3.1077 3.10759 14.9879 
11 1 5.60725 5.60752 12.4883 
20 1 4.01346 4.01338 14.0823 
27 1 4.70124 4.70159 13.3942 
36 1 0.416767 3.45427 14.641 
46 1 3.45426 0.417001 14.641 
56 1 3.4542 3.4542 17.6784 
59 1 8.2973 5.26077 12.8353 
69 1 5.26049 8.29704 12.8353 
79 1 5.26077 5.26073 9.79797 
84 1 1.60693 3.3544 14.7412 
94 1 3.35441 1.60689 14.7412 
104 1 3.35464 3.35464 16.4887 
107 1 7.10812 5.36045 12.7355 
117 1 5.36058 7.10637 12.7353 
127 1 5.36038 5.36037 10.9875 
6 1 3.10784 14.9881 3.10774 
13 1 5.60708 12.489 5.60799 
22 1 4.0132 14.0827 4.01363 
29 1 4.70153 13.3943 4.70203 
38 1 0.416864 14.6417 3.45506 
48 1 3.45424 17.6783 3.45421 
52 1 3.45422 14.6418 0.41794 
61 1 8.29858 12.8353 5.26064 
71 1 5.26064 9.79688 5.26063 
75 1 5.26041 12.8354 8.29724 
86 1 1.60705 14.7415 3.35473 
96 1 3.35468 16.4887 3.35464 
100 1 3.35457 14.7414 1.60665 
109 1 7.10707 12.7357 5.36066 
119 1 5.36028 10.9887 5.36051 
123 1 5.36065 12.7354 7.10607 
7 1 3.10718 14.9888 14.9883 
16 1 5.57738 12.4868 12.4858 
23 1 4.01132 14.0848 14.0841 
32 1 4.69793 13.3956 13.3946 
39 1 0.417325 14.6419 14.6408 
43 1 3.45417 17.6787 14.6407 
53 1 3.45399 14.6416 17.6783 
64 1 8.27271 12.8215 12.824 
68 1 5.26127 9.79331 12.8367 
78 1 5.26116 12.8367 9.7926 
87 1 1.60608 14.7413 14.7405 
91 1 3.35471 16.4893 14.7403 
101 1 3.35396 14.7414 16.4886 
112 1 7.08716 12.7325 12.7377 
116 1 5.35787 10.9843 12.7371 
126 1 5.35788 12.7372 10.9843 
8 1 14.9878 3.1076 3.10769 
15 1 12.4884 5.60748 5.60741 
24 1 14.0823 4.01332 4.01342 
31 1 13.3943 4.7015 4.70153 
40 1 17.6791 3.45424 3.45422 
44 1 14.6418 0.417113 3.45501 
54 1 14.6418 3.45423 0.417445 
63 1 9.79888 5.26082 5.26084 
67 1 12.8352 8.29648 5.26083 
77 1 12.8352 5.26079 8.29742 
88 1 16.4885 3.35464 3.35463 
92 1 14.7414 1.60668 3.35474 
102 1 14.7414 3.35449 1.60694 
111 1 10.9874 5.36037 5.36044 
115 1 12.7357 7.10871 5.36036 
125 1 12.7356 5.36039 7.10839 
5 1 14.9881 3.10706 14.9873 
14 1 12.4885 5.60678 12.4887 
21 1 14.0826 4.01306 14.082 
30 1 13.3945 4.70116 13.3943 
37 1 17.6795 3.45427 14.6407 
47 1 14.6417 0.41594 14.6407 
51 1 14.6417 3.45433 17.6791 
62 1 9.79865 5.26083 12.8352 
72 1 12.8354 8.29346 12.8359 
76 1 12.8352 5.2609 9.79908 
85 1 16.4884 3.35444 14.7404 
95 1 14.7415 1.60705 14.7404 
99 1 14.7414 3.35443 16.4875 
110 1 10.9866 5.36029 12.7359 
120 1 12.7346 7.10384 12.7351 
124 1 12.7359 5.36044 10.9865 
3 1 14.9885 14.9884 3.10782 
12 1 12.4886 12.4887 5.60556 
19 1 14.0826 14.0824 4.0134 
28 1 13.3945 13.3944 4.70121 
35 1 17.678 14.6418 3.45496 
45 1 14.6418 17.6783 3.455 
55 1 14.6418 14.6418 0.41815 
60 1 9.79697 12.8354 5.26076 
70 1 12.8352 9.7967 5.26065 
80 1 12.8353 12.8356 8.29333 
83 1 16.49 14.7414 3.35487 
93 1 14.7414 16.4893 3.35499 
103 1 14.7414 14.7413 1.60694 
108 1 10.988 12.7359 5.36036 
118 1 12.7352 10.9883 5.36049 
128 1 12.7346 12.7348 7.10606 
2 1 14.9896 14.9894 14.9887 
9 1 12.4512 12.5008 12.4995 
18 1 14.0832 14.0837 14.0828 
25 1 13.3936 13.3997 13.3985 
34 1 17.6785 14.6418 14.6408 
42 1 14.6418 17.6779 14.6408 
50 1 14.6418 14.6418 17.6775 
57 1 9.85302 12.9361 12.8682 
65 1 12.8375 9.7971 12.8349 
73 1 12.8376 12.835 9.79476 
82 1 16.4894 14.7414 14.7404 
90 1 14.7414 16.4894 14.7403 
98 1 14.7414 14.7413 16.4893 
105 1 11.0545 12.6916 12.6943 
113 1 12.7332 10.9796 12.7407 
121 1 12.7334 12.7388 10.9877 
129 2 9.78288 14.1375 12.8542 
130 2 10.7727 15.3462 12.9914 
131 3 10.0309 15.8627 13.1868 
ITEM: TIMESTEP
30
ITEM: NUMBER OF ATOMS
131
ITEM: BOX BOUNDS pp pp pp
0.0000000000000000e+00 1.8762000000000000e+01
0.0000000000000000e+00 1.8762000000000000e+01
0.0000000000000000e+00 1.8760999999999999e+01
ITEM: ATOMS id type x y z 
1 1 3.10709 3.10678 3.10783 
10 1 5.60788 5.60776 5.60757 
17 1 4.01286 4.01279 4.01341 
26 1 4.70193 4.70186 4.70215 
33 1 0.416674 3.45389 3.45384 
41 1 3.45358 0.416369 3.45399 
49 1 3.45384 3.4539 0.417477 
58 1 8.2984 5.26106 5.26104 
66 1 5.26128 8.29819 5.26087 
74 1 5.26099 5.26102 8.29805 
81 1 1.60652 3.35401 3.35434 
89 1 3.35352 1.60624 3.3543 
97 1 3.35423 3.35417 1.60733 
106 1 7.10826 5.3609 5.36075 
114 1 5.36141 7.10807 5.36087 
122 1 5.36077 5.36088 7.10788 
4 1 3.10713 3.10703 14.9885 
11 1 5.60751 5.60801 12.488 
20 1 4.01268 4.01299 14.0827 
27 1 4.70179 4.70173 13.394 
36 1 0.416617 3.45394 14.6414 
46 1 3.45396 0.416824 14.6413 
56 1 3.45389 3.45391 17.6789 
59 1 8.29775 5.26098 12.835 
69 1 5.26069 8.29598 12.8351 
79 1 5.26106 5.26098 9.79745 
84 1 1.60669 3.35399 14.7415 
94 1 3.35399 1.60693 14.7416 
104 1 3.35422 3.35419 16.4888 
107 1 7.10811 5.36083 12.7351 
117 1 5.36092 7.10576 12.7347 
127 1 5.36075 5.36074 10.9871 
6 1 3.10716 14.9886 3.10735 
13 1 5.6076 12.4883 5.60821 
22 1 4.01299 14.0828 4.01324 
29 1 4.70161 13.3944 4.70219 
38 1 0.416835 14.642 3.45468 
48 1 3.45395 17.6789 3.45392 
52 1 3.45397 14.642 0.417194 
61 1 8.29775 12.835 5.26101 
71 1 5.26104 9.79786 5.26101 
75 1 5.26062 12.8351 8.29588 
86 1 1.60672 14.7419 3.35441 
96 1 3.35429 16.4889 3.35421 
100 1 3.35415 14.7418 1.60721 
109 1 7.10824 12.7353 5.36098 
119 1 5.36059 10.9872 5.36084 
123 1 5.36098 12.7348 7.10574 
7 1 3.10589 14.9901 14.9896 
16 1 5.57465 12.4836 12.4827 
23 1 4.00972 14.0866 14.0859 
32 1 4.69553 13.3958 13.3948 
39 1 0.416337 14.642 14.641 
43 1 3.45399 17.6797 14.6409 
53 1 3.45374 14.6418 17.6791 
64 1 8.27767 12.8199 12.8197 
68 1 5.26232 9.79266 12.8373 
78 1 5.26221 12.8374 9.792 
87 1 1.60635 14.7418 14.7409 
91 1 3.35432 16.4897 14.7408 
101 1 3.35367 14.7418 16.4891 
112 1 7.09604 12.7281 12.7386 
116 1 5.35594 10.984 12.7366 
126 1 5.35602 12.7368 10.9837 
8 1 14.9885 3.10708 3.10725 
15 1 12.4882 5.60773 5.60785 
24 1 14.0827 4.0129 4.01299 
31 1 13.3938 4.70186 4.70191 
40 1 17.6791 3.45391 3.45386 
44 1 14.642 0.416619 3.45466 
54 1 14.6421 3.45393 0.416873 
63 1 9.79767 5.26104 5.26108 
67 1 12.835 8.29806 5.26099 
77 1 12.8349 5.261 8.29804 
88 1 16.489 3.35424 3.35424 
92 1 14.7418 1.60664 3.35436 
102 1 14.7418 3.35405 1.60697 
111 1 10.9878 5.36081 5.36086 
115 1 12.7352 7.10778 5.36082 
125 1 12.7351 5.36081 7.10793 
5 1 14.9889 3.10658 14.9882 
14 1 12.4881 5.60482 12.4883 
21 1 14.0832 4.0122 14.0828 
30 1 13.3943 4.70115 13.394 
37 1 17.679 3.45389 14.6411 
47 1 14.6421 0.416561 14.641 
51 1 14.6422 3.45392 17.6782 
62 1 9.79661 5.26103 12.8352 
72 1 12.8358 8.29253 12.8358 
76 1 12.8352 5.26109 9.79677 
85 1 16.4892 3.35402 14.7408 
95 1 14.7418 1.60638 14.7409 
99 1 14.7418 3.35403 16.4886 
110 1 10.987 5.36056 12.7357 
120 1 12.7342 7.10255 12.7349 
124 1 12.7356 5.3607 10.9871 
3 1 14.989 14.9888 3.10747 
12 1 12.4879 12.4879 5.60485 
19 1 14.0831 14.0831 4.01275 
28 1 13.3942 13.3941 4.7012 
35 1 17.6793 14.642 3.4547 
45 1 14.642 17.6792 3.45471 
55 1 14.6421 14.642 0.417155 
60 1 9.79701 12.8352 5.26116 
70 1 12.8349 9.79692 5.26109 
80 1 12.8356 12.8355 8.29345 
83 1 16.4893 14.7419 3.35447 
93 1 14.7418 16.4892 3.35462 
103 1 14.7418 14.7417 1.6073 
108 1 10.9872 12.7356 5.36054 
118 1 12.735 10.987 5.36063 
128 1 12.7341 12.7345 7.10369 
2 1 14.9907 14.9903 14.9896 
9 1 12.4637 12.4918 12.499 
18 1 14.085 14.0855 14.0844 
25 1 13.3915 13.4005 13.399 
34 1 17.6797 14.642 14.6409 
42 1 14.6419 17.6796 14.6409 
50 1 14.642 14.642 17.6794 
57 1 9.8542 12.9577 12.8703 
65 1 12.8383 9.79171 12.8357 
73 1 12.8381 12.835 9.79406 
82 1 16.4892 14.7419 14.7409 
90 1 14.7418 16.4892 14.7408 
98 1 14.7419 14.7418 16.4889 
105 1 11.0427 12.6896 12.6939 
113 1 12.7321 10.9812 12.7419 
121 1 12.7325 12.7411 10.9827 
129 2 9.77138 14.1249 12.8615 
130 2 10.7796 15.3549 12.9926 
131 3 10.0292 15.8642 13.1844 
ITEM: TIMESTEP
40
ITEM: NUMBER OF ATOMS
131
ITEM: BOX BOUNDS pp pp pp
0.0000000000000000e+00 1.8762000000000000e+01
0.0000000000000000e+00 1.8762000000000000e+01
0.0000000000000000e+00 1.8760999999999999e+01
ITEM: ATOMS id type x y z 
1 1 3.10674 3.10663 3.1076 
10 1 5.60802 5.60795 5.60783 
17 1 4.01327 4.01308 4.01367 
26 1 4.70164 4.70142 4.7017 
33 1 0.416574 3.45354 3.45353 
41 1 3.45323 0.416365 3.45367 
49 1 3.45353 3.45358 0.417413 
58 1 8.2983 5.2614 5.26135 
66 1 5.26162 8.298 5.26119 
74 1 5.26129 5.26134 8.29779 
81 1 1.60658 3.35353 3.35387 
89 1 3.3531 1.60637 3.35382 
97 1 3.35373 3.35367 1.60742 
106 1 7.10829 5.36134 5.3612 
114 1 5.36183 7.10795 5.36132 
122 1 5.36126 5.36134 7.10778 
4 1 3.10674 3.10687 14.9887 
11 1 5.60771 5.60757 12.488 
20 1 4.01306 4.01287 14.0828 
27 1 4.70114 4.70158 13.3942 
36 1 0.416591 3.4536 14.6417 
46 1 3.45366 0.417108 14.6416 
56 1 3.45357 3.45358 17.679 
59 1 8.29791 5.26118 12.8347 
69 1 5.2611 8.29632 12.835 
79 1 5.26131 5.26123 9.79706 
84 1 1.60656 3.35354 14.742 
94 1 3.3535 1.60721 14.742 
104 1 3.35375 3.35372 16.4889 
107 1 7.10759 5.36127 12.7346 
117 1 5.36117 7.10566 12.7341 
127 1 5.36113 5.36115 10.9872 
6 1 3.10691 14.9888 3.10706 
13 1 5.60772 12.4882 5.60787 
22 1 4.01276 14.0833 4.01325 
29 1 4.70152 13.3941 4.70185 
38 1 0.416622 14.6423 3.45433 
48 1 3.45364 17.679 3.45361 
52 1 3.45369 14.6423 0.417388 
61 1 8.29832 12.8348 5.26125 
71 1 5.26126 9.79712 5.26124 
75 1 5.26098 12.8351 8.2966 
86 1 1.60664 14.7423 3.35402 
96 1 3.35383 16.4889 3.35375 
100 1 3.35366 14.7423 1.60756 
109 1 7.10785 12.7348 5.36136 
119 1 5.36099 10.9874 5.36125 
123 1 5.36126 12.7342 7.10519 
7 1 3.10487 14.9913 14.9907 
16 1 5.57555 12.4824 12.4826 
23 1 4.0101 14.0863 14.0855 
32 1 4.69361 13.3954 13.3945 
39 1 0.415919 14.6421 14.6411 
43 1 3.45385 17.6804 14.6411 
53 1 3.45355 14.642 17.6797 
64 1 8.27747 12.8182 12.8161 
68 1 5.26299 9.79169 12.8376 
78 1 5.26287 12.8378 9.79061 
87 1 1.60611 14.7422 14.7414 
91 1 3.35387 16.4902 14.7412 
101 1 3.35329 14.7423 16.4896 
112 1 7.09523 12.7215 12.7371 
116 1 5.35438 10.9841 12.7359 
126 1 5.35458 12.7362 10.9838 
8 1 14.9887 3.10685 3.10701 
15 1 12.4879 5.6079 5.60789 
24 1 14.0825 4.01316 4.01333 
31 1 13.3943 4.70148 4.70162 
40 1 17.679 3.45359 3.45352 
44 1 14.6424 0.416694 3.45427 
54 1 14.6424 3.4536 0.416815 
63 1 9.7977 5.26136 5.2614 
67 1 12.8347 8.29784 5.26127 
77 1 12.8346 5.26126 8.29775 
88 1 16.4891 3.35376 3.35376 
92 1 14.7423 1.60666 3.35394 
102 1 14.7422 3.35358 1.60696 
111 1 10.9877 5.36126 5.36132 
115 1 12.7347 7.10762 5.36129 
125 1 12.7346 5.36129 7.10756 
5 1 14.9892 3.10626 14.9885 
14 1 12.4875 5.60406 12.4877 
21 1 14.0835 4.01228 14.0827 
30 1 13.3946 4.70021 13.3946 
37 1 17.6793 3.45358 14.6414 
47 1 14.6423 0.416639 14.6413 
51 1 14.6424 3.45362 17.6787 
62 1 9.79664 5.26141 12.8351 
72 1 12.8362 8.29087 12.8356 
76 1 12.8351 5.26151 9.79661 
85 1 16.4894 3.35357 14.7412 
95 1 14.7423 1.60665 14.7414 
99 1 14.7423 3.35356 16.4885 
110 1 10.987 5.36071 12.7353 
120 1 12.7338 7.10078 12.7345 
124 1 12.7352 5.36082 10.987 
3 1 14.9893 14.9893 3.10718 
12 1 12.4876 12.4876 5.60385 
19 1 14.0832 14.0831 4.0125 
28 1 13.3944 13.3943 4.70062 
35 1 17.6794 14.6423 3.45434 
45 1 14.6423 17.6793 3.45436 
55 1 14.6423 14.6423 0.417401 
60 1 9.79655 12.8351 5.26148 
70 1 12.8348 9.79634 5.26145 
80 1 12.836 12.8351 8.2911 
83 1 16.4894 14.7424 3.35408 
93 1 14.7423 16.4893 3.3542 
103 1 14.7423 14.7422 1.60757 
108 1 10.9871 12.7352 5.36072 
118 1 12.7347 10.9869 5.3608 
128 1 12.7337 12.7341 7.10186 
2 1 14.9915 14.991 14.9905 
9 1 12.4581 12.4891 12.4972 
18 1 14.0844 14.0857 14.0839 
25 1 13.3913 13.4019 13.4011 
34 1 17.6798 14.6422 14.6411 
42 1 14.6421 17.6798 14.6411 
50 1 14.6422 14.6422 17.6795 
57 1 9.86465 12.9737 12.8705 
65 1 12.8382 9.78885 12.8369 
73 1 12.8377 12.8364 9.79331 
82 1 16.4895 14.7424 14.7414 
90 1 14.7424 16.4897 14.7413 
98 1 14.7424 14.7423 16.4894 
105 1 11.0491 12.6822 12.6942 
113 1 12.732 10.9788 12.7426 
121 1 12.7327 12.741 10.9825 
129 2 9.75851 14.1207 12.8693 
130 2 10.7859 15.3645 12.994 
131 3 10.0283 15.8663 13.182 
ITEM: TIMESTEP
43
ITEM: NUMBER OF ATOMS
131
ITEM: BOX BOUNDS pp pp pp
0.0000000000000000e+00 1.8762000000000000e+01
0.0000000000000000e+00 1.8762000000000000e+01
0.0000000000000000e+00 1.8760999999999999e+01
ITEM: ATOMS id type x y z 
1 1 3.10674 3.10663 3.1076 
10 1 5.60802 5.60795 5.60783 
17 1 4.01323 4.01304 4.01363 
26 1 4.70168 4.70146 4.70174 
33 1 0.416551 3.45354 3.45353 
41 1 3.45323 0.416345 3.45367 
49 1 3.45353 3.45357 0.41739 
58 1 8.29831 5.2614 5.26136 
66 1 5.26162 8.298 5.2612 
74 1 5.26129 5.26135 8.29779 
81 1 1.6066 3.35352 3.35386 
89 1 3.3531 1.60639 3.35382 
97 1 3.35372 3.35366 1.60743 
106 1 7.10829 5.36134 5.36121 
114 1 5.36183 7.10796 5.36132 
122 1 5.36126 5.36134 7.10778 
4 1 3.10674 3.10687 14.9887 
11 1 5.6077 5.60757 12.488 
20 1 4.01303 4.01285 14.0828 
27 1 4.70116 4.7016 13.3942 
36 1 0.416599 3.4536 14.6417 
46 1 3.45366 0.417121 14.6417 
56 1 3.45356 3.45358 17.679 
59 1 8.29791 5.26118 12.8347 
69 1 5.26111 8.29632 12.835 
79 1 5.26132 5.26123 9.79704 
84 1 1.60656 3.35354 14.742 
94 1 3.3535 1.6072 14.742 
104 1 3.35375 3.35371 16.4889 
107 1 7.10759 5.36127 12.7346 
117 1 5.36118 7.10564 12.7341 
127 1 5.36113 5.36116 10.9872 
6 1 3.10691 14.9888 3.10706 
13 1 5.60772 12.4882 5.6079 
22 1 4.01279 14.0833 4.01327 
29 1 4.7015 13.3941 4.70183 
38 1 0.416611 14.6423 3.45432 
48 1 3.45364 17.679 3.45361 
52 1 3.45368 14.6423 0.417384 
61 1 8.29827 12.8348 5.26126 
71 1 5.26127 9.79717 5.26124 
75 1 5.261 12.8351 8.29646 
86 1 1.60665 14.7423 3.35401 
96 1 3.35382 16.4889 3.35375 
100 1 3.35366 14.7423 1.60756 
109 1 7.1079 12.7348 5.36136 
119 1 5.36099 10.9874 5.36125 
123 1 5.36125 12.7342 7.1053 
7 1 3.10487 14.9913 14.9907 
16 1 5.57547 12.4824 12.4826 
23 1 4.01006 14.0863 14.0856 
32 1 4.69363 13.3954 13.3944 
39 1 0.415911 14.6421 14.6411 
43 1 3.45384 17.6804 14.6411 
53 1 3.45355 14.642 17.6797 
64 1 8.27775 12.8182 12.8161 
68 1 5.26299 9.79162 12.8376 
78 1 5.26287 12.8378 9.79057 
87 1 1.60612 14.7422 14.7414 
91 1 3.35386 16.4902 14.7412 
101 1 3.35329 14.7423 16.4896 
112 1 7.09519 12.7214 12.7371 
116 1 5.35438 10.9842 12.7359 
126 1 5.35457 12.7362 10.9838 
8 1 14.9888 3.10685 3.10701 
15 1 12.4879 5.60791 5.6079 
24 1 14.0826 4.01312 4.01329 
31 1 13.3942 4.70152 4.70165 
40 1 17.679 3.45359 3.45352 
44 1 14.6424 0.416695 3.45427 
54 1 14.6424 3.45359 0.416837 
63 1 9.79771 5.26136 5.2614 
67 1 12.8347 8.29781 5.26128 
77 1 12.8346 5.26127 8.29772 
88 1 16.4891 3.35376 3.35375 
92 1 14.7423 1.60665 3.35394 
102 1 14.7423 3.35358 1.60694 
111 1 10.9877 5.36126 5.36132 
115 1 12.7347 7.10764 5.3613 
125 1 12.7346 5.36129 7.10759 
5 1 14.9892 3.10626 14.9885 
14 1 12.4875 5.60405 12.4877 
21 1 14.0835 4.01225 14.0827 
30 1 13.3945 4.70023 13.3945 
37 1 17.6793 3.45358 14.6414 
47 1 14.6423 0.416588 14.6413 
51 1 14.6424 3.45362 17.6787 
62 1 9.79666 5.26142 12.8351 
72 1 12.8362 8.29082 12.8356 
76 1 12.8351 5.26151 9.79662 
85 1 16.4893 3.35356 14.7412 
95 1 14.7423 1.6067 14.7414 
99 1 14.7423 3.35355 16.4885 
110 1 10.987 5.3607 12.7353 
120 1 12.7338 7.10078 12.7345 
124 1 12.7352 5.36082 10.9869 
3 1 14.9894 14.9893 3.10717 
12 1 12.4875 12.4876 5.60382 
19 1 14.0833 14.0831 4.01249 
28 1 13.3944 13.3943 4.70062 
35 1 17.6794 14.6423 3.45433 
45 1 14.6423 17.6793 3.45435 
55 1 14.6423 14.6423 0.417419 
60 1 9.79657 12.8351 5.26149 
70 1 12.8348 9.79635 5.26145 
80 1 12.836 12.8351 8.29117 
83 1 16.4894 14.7424 3.35408 
93 1 14.7423 16.4893 3.3542 
103 1 14.7423 14.7422 1.60755 
108 1 10.9871 12.7352 5.36072 
118 1 12.7347 10.9868 5.3608 
128 1 12.7337 12.7341 7.10182 
2 1 14.9915 14.991 14.9905 
9 1 12.4583 12.489 12.4972 
18 1 14.0844 14.0858 14.0839 
25 1 13.3912 13.4018 13.4011 
34 1 17.6798 14.6422 14.6411 
42 1 14.6421 17.6798 14.6411 
50 1 14.6422 14.6422 17.6795 
57 1 9.86475 12.9737 12.8705 
65 1 12.8381 9.78903 12.8369 
73 1 12.8377 12.8364 9.79348 
82 1 16.4895 14.7424 14.7414 
90 1 14.7424 16.4897 14.7413 
98 1 14.7424 14.7423 16.4894 
105 1 11.0489 12.6822 12.6942 
113 1 12.732 10.9786 12.7426 
121 1 12.7327 12.741 10.9822 
129 2 9.75834 14.1207 12.8694 
130 2 10.786 15.3646 12.994 
131 3 10.0283 15.8664 13.1819 
ITEM: TIMESTEP
44
ITEM: NUMBER OF ATOMS
131
ITEM: BOX BOUNDS pp pp pp
0.0000000000000000e+00 1.8762000000000000e+01
0.0000000000000000e+00 1.8762000000000000e+01
0.0000000000000000e+00 1.8760999999999999e+01
ITEM: ATOMS id type x y z 
1 1 3.10674 3.10663 3.1076 
10 1 5.60802 5.60795 5.60783 
17 1 4.01323 4.01304 4.01363 
26 1 4.70168 4.70146 4.70174 
33 1 0.416551 3.45354 3.45353 
41 1 3.45323 0.416345 3.45367 
49 1 3.45353 3.45357 0.41739 
58 1 8.29831 5.2614 5.26136 
66 1 5.26162 8.298 5.2612 
74 1 5.26129 5.26135 8.29779 
81 1 1.6066 3.35352 3.35386 
89 1 3.3531 1.60639 3.35382 
97 1 3.35372 3.35366 1.60743 
106 1 7.10829 5.36134 5.36121 
114 1 5.36183 7.10796 5.36132 
122 1 5.36126 5.36134 7.10778 
4 1 3.10674 3.10687 14.9887 
11 1 5.6077 5.60757 12.488 
20 1 4.01303 4.01285 14.0828 
27 1 4.70116 4.7016 13.3942 
36 1 0.416599 3.4536 14.6417 
46 1 3.45366 0.417121 14.6417 
56 1 3.45356 3.45358 17.679 
59 1 8.29791 5.26118 12.8347 
69 1 5.26111 8.29632 12.835 
79 1 5.26132 5.26123 9.79704 
84 1 1.60656 3.35354 14.742 
94 1 3.3535 1.6072 14.742 
104 1 3.35375 3.35371 16.4889 
107 1 7.10759 5.36127 12.7346 
117 1 5.36118 7.10564 12.7341 
127 1 5.36113 5.36116 10.9872 
6 1 3.10691 14.9888 3.10706 
13 1 5.60772 12.4882 5.6079 
22 1 4.01279 14.0833 4.01327 
29 1 4.7015 13.3941 4.70183 
38 1 0.416611 14.6423 3.45432 
48 1 3.45364 17.679 3.45361 
52 1 3.45368 14.6423 0.417384 
61 1 8.29827 12.8348 5.26126 
71 1 5.26127 9.79717 5.26124 
75 1 5.261 12.8351 8.29646 
86 1 1.60665 14.7423 3.35401 
96 1 3.35382 16.4889 3.35375 
100 1 3.35366 14.7423 1.60756 
109 1 7.1079 12.7348 5.36136 
119 1 5.36099 10.9874 5.36125 
123 1 5.36125 12.7342 7.1053 
7 1 3.10487 14.9913 14.9907 
16 1 5.57547 12.4824 12.4826 
23 1 4.01006 14.0863 14.0856 
32 1 4.69363 13.3954 13.3944 
39 1 0.415911 14.6421 14.6411 
43 1 3.45384 17.6804 14.6411 
53 1 3.45355 14.642 17.6797 
64 1 8.27775 12.8182 12.8161 
68 1 5.26299 9.79162 12.8376 
78 1 5.26287 12.8378 9.79057 
87 1 1.60612 14.7422 14.7414 
91 1 3.35386 16.4902 14.7412 
101 1 3.35329 14.7423 16.4896 
112 1 7.09519 12.7214 12.7371 
116 1 5.35438 10.9842 12.7359 
126 1 5.35457 12.7362 10.9838 
8 1 14.9888 3.10685 3.10701 
15 1 12.4879 5.60791 5.6079 
24 1 14.0826 4.01312 4.01329 
31 1 13.3942 4.70152 4.70165 
40 1 17.679 3.45359 3.45352 
44 1 14.6424 0.416695 3.45427 
54 1 14.6424 3.45359 0.416837 
63 1 9.79771 5.26136 5.2614 
67 1 12.8347 8.29781 5.26128 
77 1 12.8346 5.26127 8.29772 
88 1 16.4891 3.35376 3.35375 
92 1 14.7423 1.60665 3.35394 
102 1 14.7423 3.35358 1.60694 
111 1 10.9877 5.36126 5.36132 
115 1 12.7347 7.10764 5.3613 
125 1 12.7346 5.36129 7.10759 
5 1 14.9892 3.10626 14.9885 
14 1 12.4875 5.60405 12.4877 
21 1 14.0835 4.01225 14.0827 
30 1 13.3945 4.70023 13.3945 
37 1 17.6793 3.45358 14.6414 
47 1 14.6423 0.416588 14.6413 
51 1 14.6424 3.45362 17.6787 
62 1 9.79666 5.26142 12.8351 
72 1 12.8362 8.29082 12.8356 
76 1 12.8351 5.26151 9.79662 
85 1 16.4893 3.35356 14.7412 
95 1 14.7423 1.6067 14.7414 
99 1 14.7423 3.35355 16.4885 
110 1 10.987 5.3607 12.7353 
120 1 12.7338 7.10078 12.7345 
124 1 12.7352 5.36082 10.9869 
3 1 14.9894 14.9893 3.10717 
12 1 12.4875 12.4876 5.60382 
19 1 14.0833 14.0831 4.01249 
28 1 13.3944 13.3943 4.70062 
35 1 17.6794 14.6423 3.45433 
45 1 14.6423 17.6793 3.45435 
55 1 14.6423 14.6423 0.417419 
60 1 9.79657 12.8351 5.26149 
70 1 12.8348 9.79635 5.26145 
80 1 12.836 12.8351 8.29117 
83 1 16.4894 14.7424 3.35408 
93 1 14.7423 16.4893 3.3542 
103 1 14.7423 14.7422 1.60755 
108 1 10.9871 12.7352 5.36072 
118 1 12.7347 10.9868 5.3608 
128 1 12.7337 12.7341 7.10182 
2 1 14.9915 14.991 14.9905 
9 1 12.4583 12.489 12.4972 
18 1 14.0844 14.0858 14.0839 
25 1 13.3912 13.4018 13.4011 
34 1 17.6798 14.6422 14.6411 
42 1 14.6421 17.6798 14.6411 
50 1 14.6422 14.6422 17.6795 
57 1 9.86475 12.9737 12.8705 
65 1 12.8381 9.78903 12.8369 
73 1 12.8377 12.8364 9.79348 
82 1 16.4895 14.7424 14.7414 
90 1 14.7424 16.4897 14.7413 
98 1 14.7424 14.7423 16.4894 
105 1 11.0489 12.6822 12.6942 
113 1 12.732 10.9786 12.7426 
121 1 12.7327 12.741 10.9822 
129 2 9.75834 14.1207 12.8694 
130 2 10.786 15.3646 12.994 
131 3 10.0283 15.8664 13.1819 
ITEM: TIMESTEP
50
ITEM: NUMBER OF ATOMS
131
ITEM: BOX BOUNDS pp pp pp
2.3086156565286136e-03 1.8759691384343473e+01
1.2394891434932465e-03 1.8760760510856503e+01
3.4367214644389112e-03 1.8757563278535560e+01
ITEM: ATOMS id type x y z 
1 1 3.10829 3.10747 3.10991 
10 1 5.60894 5.60844 5.60919 
17 1 4.01452 4.01372 4.01557 
26 1 4.70285 4.7021 4.70348 
33 1 0.418696 3.45433 3.4557 
41 1 3.45469 0.417471 3.45584 
49 1 3.45499 3.45436 0.420605 
58 1 8.29865 5.26194 5.26286 
66 1 5.26263 8.29821 5.2627 
74 1 5.2623 5.26189 8.29827 
81 1 1.60856 3.35431 3.35606 
89 1 3.35457 1.60746 3.35602 
97 1 3.3552 3.35445 1.61034 
106 1 7.1088 5.36188 5.36269 
114 1 5.36282 7.10821 5.3628 
122 1 5.36226 5.36188 7.10854 
4 1 3.1083 3.1077 14.9866 
11 1 5.60862 5.60806 12.4868 
20 1 4.01434 4.01355 14.0811 
27 1 4.70233 4.70223 13.3927 
36 1 0.418735 3.45439 14.6398 
46 1 3.45512 0.418243 14.6397 
56 1 3.45503 3.45437 17.676 
59 1 8.2982 5.26173 12.8335 
69 1 5.26212 8.2965 12.8337 
79 1 5.26233 5.26178 9.79686 
84 1 1.60853 3.35433 14.74 
94 1 3.35497 1.60828 14.7401 
104 1 3.35522 3.3545 16.4863 
107 1 7.10814 5.36181 12.7334 
117 1 5.36217 7.1059 12.7329 
127 1 5.36213 5.36169 10.9866 
6 1 3.10846 14.988 3.10938 
13 1 5.60865 12.4878 5.60928 
22 1 4.01411 14.0827 4.01524 
29 1 4.70265 13.3936 4.70354 
38 1 0.418756 14.6416 3.4565 
48 1 3.4551 17.678 3.45578 
52 1 3.45515 14.6416 0.420598 
61 1 8.29853 12.8343 5.26277 
71 1 5.26229 9.79712 5.26276 