LAMMPS (3 Mar 2020)
# Alpha
clear
units		real
dimension 3
boundary        p p p
atom_style	charge
newton on
read_data       OH_19.lmp
  orthogonal box = (0 0 0) to (11 11.002 11)
  2 by 2 by 2 MPI processor grid
  reading atoms ...
  50 atoms
  read_data CPU = 0.00307288 secs

timestep 0.25

# ---------- Define Interatomic Potential ---------------------
pair_style      reax/c NULL checkqeq no
pair_coeff      * * ffield.reax C H O
WARNING: Changed valency_val to valency_boc for X (../reaxc_ffield.cpp:315)
fix             2 all qeq/reax 1 0.0 10.0 1.0e-6 reax/c

#------------ Equilibration of the system -------------------------
reset_timestep 0

dump 1 all custom 10 min.lammpstrj id type x y z

minimize 1.0e-8 1.0e-8 100000 100000
WARNING: Using 'neigh_modify every 1 delay 0 check yes' setting during minimization (../min.cpp:190)
Neighbor list info ...
  update every 1 steps, delay 0 steps, check yes
  max neighbors/atom: 2000, page size: 100000
  master list distance cutoff = 12
  ghost atom cutoff = 12
  binsize = 6, bins = 2 2 2
  2 neighbor lists, perpetual/occasional/extra = 2 0 0
  (1) pair reax/c, perpetual
      attributes: half, newton off, ghost
      pair build: half/bin/newtoff/ghost
      stencil: half/ghost/bin/3d/newtoff
      bin: standard
  (2) fix qeq/reax, perpetual, copy from (1)
      attributes: half, newton off, ghost
      pair build: copy
      stencil: none
      bin: none
Per MPI rank memory allocation (min/avg/max) = 25.12 | 25.28 | 25.43 Mbytes
Step Temp E_pair E_mol TotEng Press 
       0            0   -8522.1922            0   -8522.1922    115181.49 
     111            0   -8840.6837            0   -8840.6837    33447.656 
Loop time of 4.12728 on 8 procs for 111 steps with 50 atoms

99.1% CPU use with 8 MPI tasks x no OpenMP threads

Minimization stats:
  Stopping criterion = energy tolerance
  Energy initial, next-to-last, final = 
        -8522.19219798     -8840.68359593     -8840.68366349
  Force two-norm initial, final = 1124.59 51.8511
  Force max component initial, final = 177.074 12.7417
  Final line search alpha, max atom move = 1.86635e-06 2.37805e-05
  Iterations, force evaluations = 111 809

MPI task timing breakdown:
Section |  min time  |  avg time  |  max time  |%varavg| %total
---------------------------------------------------------------
Pair    | 3.4075     | 3.4563     | 3.5298     |   2.3 | 83.74
Neigh   | 0          | 0          | 0          |   0.0 |  0.00
Comm    | 0.060773   | 0.13412    | 0.18271    |  11.6 |  3.25
Output  | 0.00029693 | 0.00038116 | 0.00062346 |   0.0 |  0.01
Modify  | 0.52791    | 0.52843    | 0.52903    |   0.1 | 12.80
Other   |            | 0.008086   |            |       |  0.20

Nlocal:    6.25 ave 8 max 6 min
Histogram: 7 0 0 0 0 0 0 0 0 1
Nghost:    970.75 ave 980 max 962 min
Histogram: 4 0 0 0 0 0 0 0 1 3
Neighs:    1766.88 ave 2258 max 1685 min
Histogram: 7 0 0 0 0 0 0 0 0 1

Total # of neighbors = 14135
Ave neighs/atom = 282.7
Neighbor list builds = 0
Dangerous builds = 0

###
min_style cg
minimize 1.0e-8 1.0e-8 100000 100000
WARNING: Using 'neigh_modify every 1 delay 0 check yes' setting during minimization (../min.cpp:190)
Per MPI rank memory allocation (min/avg/max) = 25.12 | 25.28 | 25.43 Mbytes
Step Temp E_pair E_mol TotEng Press 
     111            0   -8840.6837            0   -8840.6837    33447.653 
     132            0   -8840.7129            0   -8840.7129     33424.93 
Loop time of 1.57686 on 8 procs for 21 steps with 50 atoms

98.8% CPU use with 8 MPI tasks x no OpenMP threads

Minimization stats:
  Stopping criterion = energy tolerance
  Energy initial, next-to-last, final = 
        -8840.68366435     -8840.71283885     -8840.71285451
  Force two-norm initial, final = 51.8511 54.9055
  Force max component initial, final = 12.7417 13.1388
  Final line search alpha, max atom move = 2.14828e-07 2.82259e-06
  Iterations, force evaluations = 21 325

MPI task timing breakdown:
Section |  min time  |  avg time  |  max time  |%varavg| %total
---------------------------------------------------------------
Pair    | 1.3488     | 1.3672     | 1.3928     |   1.1 | 86.71
Neigh   | 0          | 0          | 0          |   0.0 |  0.00
Comm    | 0.017135   | 0.0426     | 0.061032   |   6.2 |  2.70
Output  | 6.0583e-05 | 7.7936e-05 | 0.00012955 |   0.0 |  0.00
Modify  | 0.16383    | 0.16396    | 0.16413    |   0.0 | 10.40
Other   |            | 0.002994   |            |       |  0.19

Nlocal:    6.25 ave 8 max 6 min
Histogram: 7 0 0 0 0 0 0 0 0 1
Nghost:    966.25 ave 980 max 953 min
Histogram: 2 0 0 2 0 0 2 0 0 2
Neighs:    1763.62 ave 2229 max 1684 min
Histogram: 7 0 0 0 0 0 0 0 0 1

Total # of neighbors = 14109
Ave neighs/atom = 282.18
Neighbor list builds = 0
Dangerous builds = 0

###
fix 1 all box/relax aniso 0.0
min_style cg
minimize 1.0e-8 1.0e-8 100000 100000
WARNING: Using 'neigh_modify every 1 delay 0 check yes' setting during minimization (../min.cpp:190)
Per MPI rank memory allocation (min/avg/max) = 25.12 | 25.28 | 25.43 Mbytes
Step Temp E_pair E_mol TotEng Press Volume 
     132            0   -8840.7129            0   -8840.7129    33424.927     1331.242 
     245            0   -8844.2951            0   -8844.2951    1074.5031    1344.6688 
Loop time of 0.931138 on 8 procs for 113 steps with 50 atoms

99.1% CPU use with 8 MPI tasks x no OpenMP threads

Minimization stats:
  Stopping criterion = energy tolerance
  Energy initial, next-to-last, final = 
        -8840.71285505       -8844.295091     -8844.29510105
  Force two-norm initial, final = 1125.75 61.6075
  Force max component initial, final = 673.803 21.7187
  Final line search alpha, max atom move = 9.71445e-08 2.10985e-06
  Iterations, force evaluations = 113 197

MPI task timing breakdown:
Section |  min time  |  avg time  |  max time  |%varavg| %total
---------------------------------------------------------------
Pair    | 0.81655    | 0.82568    | 0.84166    |   0.8 | 88.67
Neigh   | 0          | 0          | 0          |   0.0 |  0.00
Comm    | 0.0096202  | 0.025545   | 0.03462    |   4.6 |  2.74
Output  | 0.00024018 | 0.00030861 | 0.00051213 |   0.0 |  0.03
Modify  | 0.073942   | 0.074031   | 0.074163   |   0.0 |  7.95
Other   |            | 0.005575   |            |       |  0.60

Nlocal:    6.25 ave 8 max 6 min
Histogram: 7 0 0 0 0 0 0 0 0 1
Nghost:    966.25 ave 980 max 953 min
Histogram: 2 0 0 2 0 0 2 0 0 2
Neighs:    1763.88 ave 2230 max 1684 min
Histogram: 7 0 0 0 0 0 0 0 0 1

Total # of neighbors = 14111
Ave neighs/atom = 282.22
Neighbor list builds = 0
Dangerous builds = 0

unfix 1
###
min_style cg
minimize 1.0e-8 1.0e-8 100000 100000
WARNING: Using 'neigh_modify every 1 delay 0 check yes' setting during minimization (../min.cpp:190)
Per MPI rank memory allocation (min/avg/max) = 25.12 | 25.28 | 25.43 Mbytes
Step Temp E_pair E_mol TotEng Press 
     245            0   -8844.2951            0   -8844.2951    1074.4896 
     296            0   -8845.0415            0   -8845.0415    3970.8389 
Loop time of 3.12582 on 8 procs for 51 steps with 50 atoms

98.9% CPU use with 8 MPI tasks x no OpenMP threads

Minimization stats:
  Stopping criterion = energy tolerance
  Energy initial, next-to-last, final = 
         -8844.2951044     -8845.04141997     -8845.04150796
  Force two-norm initial, final = 49.7166 45.2155
  Force max component initial, final = 13.3702 11.8087
  Final line search alpha, max atom move = 1.02996e-07 1.21624e-06
  Iterations, force evaluations = 51 666

MPI task timing breakdown:
Section |  min time  |  avg time  |  max time  |%varavg| %total
---------------------------------------------------------------
Pair    | 2.6532     | 2.6795     | 2.7189     |   1.2 | 85.72
Neigh   | 0          | 0          | 0          |   0.0 |  0.00
Comm    | 0.03579    | 0.074552   | 0.10056    |   7.1 |  2.39
Output  | 0.00013089 | 0.00016503 | 0.00027086 |   0.0 |  0.01
Modify  | 0.36484    | 0.36521    | 0.36559    |   0.0 | 11.68
Other   |            | 0.006347   |            |       |  0.20

Nlocal:    6.25 ave 8 max 6 min
Histogram: 7 0 0 0 0 0 0 0 0 1
Nghost:    948.25 ave 962 max 935 min
Histogram: 1 0 0 3 0 1 2 0 0 1
Neighs:    1754.88 ave 2218 max 1677 min
Histogram: 7 0 0 0 0 0 0 0 0 1

Total # of neighbors = 14039
Ave neighs/atom = 280.78
Neighbor list builds = 0
Dangerous builds = 0

###
fix 1 all box/relax aniso 0.0
min_style cg
minimize 1.0e-8 1.0e-8 100000 100000
WARNING: Using 'neigh_modify every 1 delay 0 check yes' setting during minimization (../min.cpp:190)
Per MPI rank memory allocation (min/avg/max) = 25.12 | 25.28 | 25.43 Mbytes
Step Temp E_pair E_mol TotEng Press Volume 
     296            0   -8845.0415            0   -8845.0415    3970.8424    1344.6688 
     327            0    -8845.143            0    -8845.143    537.97992    1345.3231 
Loop time of 0.242032 on 8 procs for 31 steps with 50 atoms

99.0% CPU use with 8 MPI tasks x no OpenMP threads

Minimization stats:
  Stopping criterion = energy tolerance
  Energy initial, next-to-last, final = 
        -8845.04150722     -8845.14303943     -8845.14303807
  Force two-norm initial, final = 145.583 58.334
  Force max component initial, final = 103.134 19.1905
  Final line search alpha, max atom move = 3.03059e-06 5.81584e-05
  Iterations, force evaluations = 31 52

MPI task timing breakdown:
Section |  min time  |  avg time  |  max time  |%varavg| %total
---------------------------------------------------------------
Pair    | 0.21184    | 0.21542    | 0.21767    |   0.4 | 89.01
Neigh   | 0          | 0          | 0          |   0.0 |  0.00
Comm    | 0.0027195  | 0.0049725  | 0.0085673  |   2.5 |  2.05
Output  | 6.6014e-05 | 8.9058e-05 | 0.00015168 |   0.0 |  0.04
Modify  | 0.019841   | 0.01986    | 0.019882   |   0.0 |  8.21
Other   |            | 0.001688   |            |       |  0.70

Nlocal:    6.25 ave 8 max 6 min
Histogram: 7 0 0 0 0 0 0 0 0 1
Nghost:    952.75 ave 962 max 944 min
Histogram: 2 0 0 0 0 4 0 0 1 1
Neighs:    1753.62 ave 2211 max 1675 min
Histogram: 7 0 0 0 0 0 0 0 0 1

Total # of neighbors = 14029
Ave neighs/atom = 280.58
Neighbor list builds = 0
Dangerous builds = 0

unfix 1
###
min_style cg
minimize 1.0e-8 1.0e-8 100000 100000
WARNING: Using 'neigh_modify every 1 delay 0 check yes' setting during minimization (../min.cpp:190)
Per MPI rank memory allocation (min/avg/max) = 25.12 | 25.28 | 25.43 Mbytes
Step Temp E_pair E_mol TotEng Press 
     327            0    -8845.143            0    -8845.143    537.96292 
     333            0   -8845.1453            0   -8845.1453    607.65262 
Loop time of 0.506206 on 8 procs for 6 steps with 50 atoms

98.9% CPU use with 8 MPI tasks x no OpenMP threads

Minimization stats:
  Stopping criterion = energy tolerance
  Energy initial, next-to-last, final = 
        -8845.14304171     -8845.14521438     -8845.14525544
  Force two-norm initial, final = 54.3775 44.9054
  Force max component initial, final = 12.87 11.1206
  Final line search alpha, max atom move = 1.65357e-07 1.83888e-06
  Iterations, force evaluations = 6 106

MPI task timing breakdown:
Section |  min time  |  avg time  |  max time  |%varavg| %total
---------------------------------------------------------------
Pair    | 0.43444    | 0.43873    | 0.44748    |   0.6 | 86.67
Neigh   | 0          | 0          | 0          |   0.0 |  0.00
Comm    | 0.0053504  | 0.014092   | 0.018315   |   3.3 |  2.78
Output  | 2.5518e-05 | 3.3436e-05 | 6.2076e-05 |   0.0 |  0.01
Modify  | 0.052123   | 0.052369   | 0.052448   |   0.0 | 10.35
Other   |            | 0.000977   |            |       |  0.19

Nlocal:    6.25 ave 8 max 6 min
Histogram: 7 0 0 0 0 0 0 0 0 1
Nghost:    957.25 ave 962 max 953 min
Histogram: 4 0 0 0 0 0 0 1 0 3
Neighs:    1752.62 ave 2207 max 1674 min
Histogram: 7 0 0 0 0 0 0 0 0 1

Total # of neighbors = 14021
Ave neighs/atom = 280.42
Neighbor list builds = 0
Dangerous builds = 0

undump 1
#############
#----------- Thermo ------------
reset_timestep 0
thermo  200

thermo_style    custom step temp etotal ke pe press
velocity all create 300 12345 mom yes rot yes
fix 1 all npt temp 300 300 25.0 iso 0.0 0.0 250.0

variable vpe equal pe
variable vtemp equal temp
variable vstep equal step

fix output all print 2500 "${vstep} ${vtemp} ${vpe}" file temp-tpdh-Pt.dat screen no

dump 1 all custom 2500 thermo-tpdh-Pt.lammpstrj id type x y z

run 1000000
Per MPI rank memory allocation (min/avg/max) = 23.99 | 24.15 | 24.31 Mbytes
Step Temp TotEng KinEng PotEng Press 
       0          300   -8801.3274    43.817908   -8845.1453    2096.5141 
     200    197.99073   -8783.0625    28.918465   -8811.9809    18078.332 
     400     345.5072   -8754.7417    50.464675   -8805.2064    -11431.94 
     600    304.34222   -8760.4667    44.452132   -8804.9188    52971.733 
     800    266.28496   -8766.7519    38.893499   -8805.6454   -21035.455 
    1000    320.45083   -8753.1857    46.804949   -8799.9907   -831.18022 
    1200    273.23658   -8762.9754     39.90885   -8802.8843   -4839.4706 
    1400    312.97296   -8753.8922    45.712734   -8799.6049   -27790.732 
    1600    338.42087   -8752.3803    49.429648     -8801.81   -4945.1637 
    1800    296.24987   -8767.5042    43.270165   -8810.7744   -2293.2171 
    2000    362.38706   -8751.8108    52.930143   -8804.7409     18873.11 
    2200     334.6363   -8751.9998    48.876875   -8800.8767     -10225.4 
    2400    297.08472   -8760.4078    43.392103   -8803.7999     -2491.64 
    2600    302.30278   -8762.4618    44.154251    -8806.616    63671.564 
    2800    338.35675    -8746.165    49.420282   -8795.5853   -21261.819 
    3000    358.08099   -8749.9007    52.301199   -8802.2019   -41193.985 
    3200    305.50974   -8758.3575    44.622659   -8802.9801    54378.258 
    3400    331.07235    -8754.248    48.356325   -8802.6043   -11692.385 
    3600    314.47713    -8745.175    45.932433   -8791.1074   -19806.708 
    3800    359.14052   -8756.3502    52.455954   -8808.8062    813.72457 
    4000    254.62782   -8760.7014    37.190861   -8797.8923   -11601.575 
    4200    329.93312   -8747.1945     48.18993   -8795.3844   -40849.955 
    4400    301.76828    -8752.729    44.076182   -8796.8052    12223.353 
    4600    279.53545   -8761.1308    40.828862   -8801.9597     11368.61 
    4800    307.37527   -8755.3238    44.895137   -8800.2189   -14738.525 
    5000    329.72729   -8744.4507    48.159867   -8792.6106    29941.227 
    5200    260.32644    -8761.538      38.0232   -8799.5612    30619.479 
    5400    275.07799   -8757.4986    40.177807   -8797.6764    9755.8709 
    5600     364.5223   -8743.5727    53.242015   -8796.8147    -485.8689 
    5800     270.9192   -8763.7892    39.570376   -8803.3596   -21071.266 
    6000    282.51671   -8760.1674    41.264303   -8801.4317    24149.271 
    6200    359.69076     -8745.85    52.536321   -8798.3864   -5624.0874 
    6400    256.16435   -8762.4354    37.415286   -8799.8507    30706.654 
    6600    270.17841   -8761.0023    39.462175   -8800.4645    16253.704 
    6800    303.53034   -8746.5949    44.333549   -8790.9285    20893.279 
    7000    265.59649   -8764.8552    38.792942   -8803.6481   -25377.721 
    7200    289.11492   -8761.2871    42.228036   -8803.5152     1790.404 
    7400     364.7795   -8749.3695    53.279582    -8802.649   -9105.2444 
    7600    247.53392   -8768.6805    36.154728   -8804.8352    1545.5306 
    7800     315.5538   -8761.9798    46.089691   -8808.0695    29749.378 
    8000    343.06072   -8751.7872    50.107343   -8801.8945   -18859.651 
    8200    246.75577   -8769.5998    36.041072   -8805.6408   -35860.753 
    8400    266.77789   -8764.1894    38.965497   -8803.1549    3557.0713 
    8600    284.40388   -8753.8615    41.539943   -8795.4015    13934.248 
    8800    331.17503   -8747.5677    48.371323    -8795.939    100199.58 
    9000    262.83883   -8767.6593    38.390159   -8806.0495   -36979.308 
    9200    288.52489   -8753.9051    42.141856   -8796.0469    18659.916 
    9400    289.29179   -8753.9506     42.25387   -8796.2044   -3704.5444 
    9600    246.85436   -8772.9334    36.055472   -8808.9889    -26181.72 
    9800     316.4462   -8759.5493    46.220035   -8805.7693    9413.4727 
   10000    326.93795     -8753.04    47.752457   -8800.7925   -12414.979 
   10200    275.36264   -8760.5911    40.219382   -8800.8105   -5091.9716 
   10400    253.00261   -8765.9957    36.953483   -8802.9492    9838.4351 
   10600    280.44815   -8751.9231     40.96217   -8792.8852    4412.6398 
   10800    290.76449   -8759.6653    42.468972   -8802.1342   -27591.436 
   11000    211.91245   -8770.8578    30.951867   -8801.8096    44391.797 
   11200     276.8621   -8758.9327    40.438393   -8799.3711   -18134.226 
   11400    361.33006   -8751.7961    52.775757   -8804.5719    5984.8758 
   11600    267.08985   -8767.1505    39.011062   -8806.1615    21900.197 
   11800    295.03768   -8758.7149    43.093113   -8801.8081   -35923.639 
   12000    350.70716   -8752.0852     51.22418   -8803.3093   -14845.338 
   12200    280.02893   -8762.5281    40.900939   -8803.4291    13176.132 
   12400     269.1893   -8774.3814    39.317706   -8813.6991    65.983172 
   12600    299.14059   -8756.6693    43.692383   -8800.3617   -24282.981 
   12800     325.2541   -8751.0605    47.506514    -8798.567   -48262.512 
   13000    278.18792   -8767.4872    40.632043   -8808.1192    7702.6405 
   13200     315.0388   -8758.9587    46.014471   -8804.9731   -5367.0681 
   13400    293.53726    -8759.285    42.873962    -8802.159    22874.321 
   13600    348.08776   -8742.9995    50.841591   -8793.8411    5596.5058 
   13800    259.68926   -8756.6422    37.930133   -8794.5723    13782.207 
   14000    351.35163   -8759.0714     51.31831   -8810.3897     6107.512 
   14200    240.44976   -8767.4263    35.120018   -8802.5464   -13482.765 
   14400    329.46051   -8758.4466    48.120901   -8806.5675   -31445.493 
   14600    256.99772   -8754.3226    37.537008   -8791.8596    12049.516 
   14800    356.11204   -8754.3447    52.013615   -8806.3583   -36628.063 
   15000    300.48063   -8762.8059    43.888109   -8806.6941    -26810.28 
   15200    330.60147   -8746.6672    48.287549   -8794.9548    21788.041 
   15400    279.50917   -8758.3372    40.825023   -8799.1623   -2995.0872 
   15600    242.93232   -8765.7078     35.48262   -8801.1904    34491.694 
   15800    339.48258    -8747.524    49.584721   -8797.1087     12367.82 
   16000    292.21448   -8757.0594    42.680757   -8799.7402   -158.00322 
   16200    265.47303   -8760.6389    38.774909   -8799.4138    25585.076 
   16400    318.03618   -8757.0827    46.452267    -8803.535    29029.541 
   16600    362.84115   -8740.0599    52.996467   -8793.0563   -24211.813 
   16800    272.06166   -8759.3608    39.737242   -8799.0981   -11615.347 
   17000    294.09693   -8755.6341    42.955706   -8798.5898    4262.0548 
   17200    403.21312   -8734.9639    58.893185   -8793.8571       -45094 
   17400    306.45179   -8754.7149    44.760255   -8799.4751    -6763.006 
   17600    294.61338   -8759.3441     43.03114   -8802.3753   -4111.9916 
   17800    361.46406   -8752.6059     52.79533   -8805.4012    3376.4735 
   18000    380.40424   -8745.7204    55.561727   -8801.2821    17475.605 
   18200    286.02082   -8761.9779    41.776112    -8803.754    31074.085 
   18400     341.3015   -8756.9022    49.850392   -8806.7526   -17995.885 
   18600     291.8789   -8743.6723    42.631742   -8786.3041    7806.4683 
   18800    281.44029    -8759.749    41.107082   -8800.8561    34807.196 
   19000     265.9727   -8758.6423    38.847891   -8797.4902    26319.357 
   19200    314.55978   -8745.2887    45.944505   -8791.2332   -10703.932 
   19400    339.44146   -8748.4461    49.578715   -8798.0248   -42322.553 
   19600    300.55661   -8761.6235    43.899206   -8805.5227    31181.505 
   19800    337.20453   -8753.0502    49.251989   -8802.3022   -24934.597 
   20000    295.49892   -8745.6024    43.160481   -8788.7629    23138.306 
   20200    228.75935   -8764.7006     33.41252   -8798.1131   -40234.688 
   20400    312.03195   -8755.4101    45.575291   -8800.9854   -1040.0595 
   20600    309.42796   -8738.5116    45.194953   -8783.7066    44152.174 
   20800    282.56396   -8751.0266    41.271205   -8792.2978    2470.0362 
   21000    274.96843   -8761.8436    40.161804   -8802.0054    53442.114 
   21200    276.28588   -8762.3103    40.354231   -8802.6645    37711.719 
   21400    304.71162   -8746.9758    44.506086   -8791.4819    36447.639 
   21600    265.63719   -8762.0346    38.798887   -8800.8335    -20791.35 
   21800    310.81727   -8761.5066    45.397875   -8806.9045   -12023.206 
   22000    323.84936   -8742.1508    47.301337   -8789.4522    41144.352 
   22200    347.19484   -8746.2411    50.711172   -8796.9523    32030.911 
   22400    274.15888   -8761.2094    40.043561    -8801.253    30649.994 
   22600     274.2724   -8755.4463    40.060142   -8795.5065    14205.685 
   22800    329.79079   -8745.4799    48.169141    -8793.649   -59605.896 
   23000    270.23535   -8762.8466    39.470492   -8802.3171   -5913.1621 
   23200    308.62298   -8758.1907    45.077377   -8803.2681    10308.987 
   23400    341.76689   -8745.4776    49.918367    -8795.396    34688.776 
   23600    267.92878   -8760.2956    39.133595   -8799.4292   -28676.368 
   23800    313.58908   -8758.0071    45.802725   -8803.8098      8230.38 
   24000    288.17773   -8752.4441     42.09115   -8794.5353    21359.504 
   24200    413.95935   -8731.4369    60.462775   -8791.8997    13948.918 
   24400    316.86613   -8754.1787    46.281369   -8800.4601    30137.244 
   24600    316.56436   -8759.5833    46.237292   -8805.8206   -8034.4417 
   24800    337.64879   -8741.7626    49.316879   -8791.0795    51798.819 
   25000    299.66621   -8757.9721    43.769154   -8801.7412   -19991.469 
   25200    271.55554   -8755.6622    39.663319   -8795.3255   -24286.619 
   25400    361.58505   -8746.0841    52.813001   -8798.8971    -47893.29 
   25600    274.19451    -8756.987    40.048766   -8797.0357   -32565.592 
   25800    299.50753   -8759.3535    43.745978   -8803.0995    8418.8459 
   26000    342.91452   -8738.8292    50.085989   -8788.9152    26328.411 
   26200    347.44121   -8750.2491    50.747156   -8800.9963    15044.804 
   26400    253.44021   -8758.1216    37.017398    -8795.139    5287.1031 
   26600    388.21908   -8744.5286     56.70316   -8801.2318   -6940.3681 
   26800    275.95455   -8753.1499    40.305836   -8793.4558   -43869.625 
   27000    285.66336   -8755.3635    41.723902   -8797.0874     52119.06 
   27200    310.06009   -8752.5258    45.287281   -8797.8131    21261.716 
   27400     349.0276   -8745.9176    50.978864   -8796.8965   -31166.797 
   27600    303.88909   -8759.0314    44.385946   -8803.4174   -10624.535 
   27800    375.10062    -8744.879    54.787081   -8799.6661    34453.237 
   28000    277.78084   -8755.8267    40.572584   -8796.3993    25634.404 
   28200    327.14964    -8755.553    47.783376   -8803.3364   -741.52823 
   28400    274.24003   -8762.7579    40.055414   -8802.8133    26503.613 
   28600    285.78195   -8763.7027    41.741223    -8805.444    1949.5454 
   28800    320.88532   -8746.1314     46.86841   -8792.9998    30914.592 
   29000    316.92481   -8759.3474     46.28994   -8805.6374   -12543.942 
   29200    283.75596   -8763.1404    41.445309   -8804.5857    11345.961 
   29400    299.74423   -8751.3158     43.78055   -8795.0963    5772.0571 
   29600    242.16725   -8761.7243    35.370874   -8797.0951   -29243.508 
   29800    306.97479   -8766.0997    44.836643   -8810.9363   -12720.137 
   30000    355.11215   -8745.7381    51.867572   -8797.6057   -8615.9292 
   30200    316.24406   -8750.7906    46.190509   -8796.9811    705.66287 
   30400    259.74798   -8766.8692    37.938711   -8804.8079    33358.356 
   30600    309.57862   -8752.3047    45.216958   -8797.5217    52751.383 
   30800    288.98869   -8748.8774      42.2096    -8791.087   -7121.9607 
   31000    274.26049   -8769.9133    40.058403   -8809.9718   -7392.7019 
   31200    298.21581   -8755.8331    43.557309   -8799.3904    12669.265 
   31400    302.29341    -8751.191    44.152883   -8795.3439   -1880.3125 
   31600    205.37564   -8766.0781    29.997102   -8796.0752   -41740.424 
   31800    327.08668   -8755.2073    47.774179   -8802.9815    62043.066 
   32000    278.57079   -8756.0723    40.687964   -8796.7602     26393.61 
   32200    391.46337   -8745.6338    57.177019   -8802.8108   -9133.9932 
   32400    255.67236   -8762.9928    37.343426   -8800.3362    17261.025 
   32600    294.68961   -8761.9048    43.042274    -8804.947   -9800.5129 
   32800    281.29651   -8748.1186    41.086081   -8789.2047    16915.261 
   33000    340.06413     -8753.73    49.669662   -8803.3996   -10248.135 
   33200    266.32105   -8759.7488     38.89877   -8798.6476    141.77319 
   33400    280.24822   -8751.2459    40.932969   -8792.1789    7862.2381 
   33600    299.83433   -8756.1229     43.79371   -8799.9166    23293.299 
   33800    330.54833   -8761.0596    48.279787   -8809.3394     13143.78 
   34000    327.40314   -8763.6955    47.820401   -8811.5159    41029.043 
   34200    330.60682   -8750.4466    48.288331    -8798.735   -31364.888 
   34400    239.32634   -8764.5395    34.955932   -8799.4954   -36669.545 
   34600    271.50876   -8770.5746    39.656486   -8810.2311   -12540.071 
   34800    298.41806   -8758.1349     43.58685   -8801.7218    7834.7529 
   35000    331.50528   -8749.0652    48.419559   -8797.4847      15738.6 
   35200    282.30838   -8750.8308    41.233875   -8792.0646    3923.2171 
   35400    236.74226    -8762.514    34.578502   -8797.0925    20614.509 
   35600     365.8764   -8744.3805    53.439794   -8797.8203   -11860.398 
   35800    258.87951   -8755.0259    37.811862   -8792.8377    -14540.08 
   36000    320.61675   -8754.2586    46.829183   -8801.0877    51533.277 
   36200    264.37334   -8767.7791    38.614289   -8806.3934    2596.7859 
   36400    272.99524   -8758.5749      39.8736   -8798.4485     -25289.4 
   36600     359.7846   -8753.9621    52.550028   -8806.5121    22762.902 
   36800     254.7002   -8766.2697    37.201433   -8803.4711    18876.879 
   37000    354.97824   -8749.3595    51.848013   -8801.2075    -17881.91 
   37200     264.5705   -8753.2911    38.643087   -8791.9342    5909.5895 
   37400    289.56839   -8761.5632     42.29427   -8803.8574   -17482.374 
   37600    261.48088   -8766.9693    38.191816   -8805.1611    7915.6002 
   37800    285.36048   -8755.0998    41.679663   -8796.7794   -34354.429 
   38000    297.52683   -8761.1785    43.456678   -8804.6352    25698.232 
   38200    241.48921   -8769.9337     35.27184   -8805.2055    33300.886 
   38400    305.69378   -8753.2637    44.649539   -8797.9133   -11103.987 
   38600     307.2896   -8761.1267    44.882624   -8806.0093   -31581.979 
   38800    315.23303    -8757.486     46.04284   -8803.5289   -11554.557 
   39000    300.27322   -8752.1828    43.857814   -8796.0407     29994.31 
   39200    254.82934    -8762.327    37.220296   -8799.5473    13371.635 
   39400    341.96086   -8746.6205    49.946697   -8796.5672    61505.171 
   39600    284.67541   -8743.8604    41.579603     -8785.44   -2655.7637 
   39800    311.00462   -8758.6754    45.425239   -8804.1007    14304.351 
   40000    292.26963   -8758.8081    42.688812   -8801.4969    -14528.11 
   40200    373.45815   -8740.8742    54.547182   -8795.4214   -43883.304 
   40400    276.00125   -8757.9935    40.312658   -8798.3062   -39072.421 
   40600    314.06616   -8760.1758    45.872406   -8806.0482    14505.886 
   40800    315.36661   -8746.8518    46.062351   -8792.9142    17593.357 
   41000    322.32812   -8745.6489    47.079146    -8792.728   -2509.2047 
   41200    327.63453   -8753.7374    47.854199   -8801.5916   -40124.891 
   41400    262.71976   -8767.5146    38.372768   -8805.8874   -24200.966 
   41600    356.21625   -8748.5745    52.028835   -8800.6034    39353.851 
   41800    270.71572   -8752.0226    39.540655   -8791.5633    12921.977 
   42000     314.4694   -8765.6001    45.931304   -8811.5314   -6389.2693 
   42200    245.51034   -8769.7063    35.859165   -8805.5655   -22030.504 
   42400    325.90623   -8749.6755    47.601764   -8797.2773   -28281.918 
   42600    260.75151   -8758.5141    38.085285   -8796.5994    22965.002 
   42800    307.62266   -8764.4896    44.931271   -8809.4209    7893.2485 
   43000    345.06558   -8746.1583    50.400172   -8796.5585    719.52148 
   43200    297.74491   -8756.9026     43.48853   -8800.3912   -11877.218 
   43400    277.55262   -8762.3043    40.539251   -8802.8436   -23567.166 
   43600    359.46548    -8743.285    52.503417   -8795.7884    15308.097 
   43800    286.32108   -8758.6261    41.819968    -8800.446    7962.2866 
   44000     363.5175   -8751.5847    53.095254   -8804.6799   -24962.376 
   44200    300.79137   -8749.0852    43.933495   -8793.0187   -28726.263 
   44400    289.25357   -8757.1728    42.248287   -8799.4211   -2789.6856 
   44600    259.17883   -8760.5285    37.855581   -8798.3841    51201.342 
   44800    267.92554   -8765.4029    39.133122   -8804.5361    7141.8332 
   45000    306.86297   -8749.1957    44.820311    -8794.016    4097.5711 
   45200    349.52762   -8752.6869    51.051897   -8803.7388   -3449.5006 
   45400    260.13874   -8765.1643    37.995785   -8803.1601   -22821.285 
   45600     283.7481   -8753.1815    41.444161   -8794.6256    -5798.742 
   45800    366.63161   -8732.5252      53.5501   -8786.0753    4514.0808 
   46000    348.33581    -8751.446    50.877822   -8802.3239    -44368.41 
   46200    273.19842    -8761.398    39.903277   -8801.3013   -17927.021 
   46400    365.57507   -8746.6589    53.395782   -8800.0547   -2141.1561 
   46600    281.98651   -8755.0506    41.186863   -8796.2375   -5281.0993 
   46800    270.64988   -8754.1305    39.531038   -8793.6615   -18355.162 
   47000    316.16257   -8756.4467    46.178608   -8802.6253    44296.091 
   47200    290.51716   -8756.6418    42.432847   -8799.0746    -20554.93 
   47400    353.65881   -8743.7714    51.655296   -8795.4267    13901.792 
   47600    263.46432   -8760.5096    38.481518   -8798.9911    21915.255 
   47800    293.48248   -8757.8296    42.865961   -8800.6955    36679.054 
   48000    315.21809   -8738.6405    46.040658   -8784.6811   -20065.392 
   48200    284.51051   -8748.5437    41.555517   -8790.0992   -26760.629 
   48400    227.77158   -8760.8483    33.268247   -8794.1165    23057.293 
   48600    279.75285   -8757.2558    40.860615   -8798.1164   -8998.3005 
   48800    336.77945   -8745.2291    49.189904    -8794.419   -377.00881 
   49000    244.29209    -8762.002    35.681228   -8797.6833    -23300.97 
   49200    300.33082   -8761.4082    43.866228   -8805.2744    38084.071 
   49400    301.42145   -8752.3904    44.025525   -8796.4159    -17740.13 
   49600    324.76186   -8744.9572    47.434617   -8792.3918    20435.634 
   49800    290.18902   -8757.7129     42.38492   -8800.0978    18244.784 
   50000    323.23629   -8759.4279    47.211793   -8806.6396    1973.1144 
   50200    321.94869   -8740.1962    47.023727   -8787.2199    3988.2081 
   50400    307.29794   -8755.3442    44.883843   -8800.2281   -921.38711 
   50600    288.12923   -8759.5799    42.084067   -8801.6639   -23760.701 
   50800    319.90815   -8748.6442    46.725686   -8795.3699   -20230.701 
   51000    356.73125   -8745.3214    52.104056   -8797.4254   -42373.771 
   51200    266.28421   -8762.3358     38.89339   -8801.2292    10639.841 
   51400    281.90746   -8753.8338    41.175317   -8795.0091    10565.121 
   51600    340.77129   -8745.4901     49.77295   -8795.2631   -4258.6407 
   51800    282.71407    -8755.875    41.293129   -8797.1682    5344.6661 
   52000    320.39691    -8756.551    46.797074   -8803.3481    30323.674 
   52200    282.80065   -8753.1247    41.305776   -8794.4305    15875.679 
   52400    293.70697   -8758.8276     42.89875   -8801.7263   -62567.125 
   52600    326.03737   -8758.0708    47.620918   -8805.6917   -452.28632 
   52800    340.67206   -8749.4689    49.758456   -8799.2274    7321.9135 
   53000    269.19419   -8763.4505     39.31842   -8802.7689   -4288.2123 
   53200    346.36817   -8748.2273    50.590429   -8798.8177   -242.57621 
   53400    334.42175   -8752.5307    48.845537   -8801.3762   -12358.694 
   53600    291.80332   -8757.5464    42.620703   -8800.1671   -6477.5201 
   53800    288.83199   -8760.4327    42.186712   -8802.6194   -32333.093 
   54000    277.07261   -8751.6907     40.46914   -8792.1598    8134.2701 
   54200    334.89089    -8749.064     48.91406   -8797.9781     42856.75 
   54400    282.22292   -8760.7571    41.221393   -8801.9785     11908.35 
   54600    284.61314   -8754.6883    41.570508   -8796.2588   -4397.1782 
   54800     292.0539   -8750.4903    42.657303   -8793.1476   -12221.927 
   55000     266.6626   -8763.5864    38.948658   -8802.5351    -22744.58 
   55200     326.7276   -8750.0975    47.721732   -8797.8193    40968.982 
   55400     221.6163   -8768.7058    32.369209    -8801.075    29360.612 
   55600    294.59119   -8754.4286    43.027899   -8797.4565   -2963.3278 
   55800     259.5587   -8755.4008    37.911064   -8793.3119   -22742.824 
   56000    256.05416    -8771.449    37.399192   -8808.8482   -22482.385 
   56200     308.9921   -8752.6648    45.131291   -8797.7961   -37991.194 
   56400    288.18952   -8757.9393    42.092873   -8800.0322    41423.037 
   56600    361.78787   -8749.0701    52.842626   -8801.9127   -9146.2374 
   56800    279.39349   -8755.9591    40.808127   -8796.7672   -36677.089 
   57000     327.1999    -8755.402    47.790717   -8803.1927     -31349.1 
   57200    312.12018   -8758.8081    45.588177   -8804.3963   -2021.1415 
   57400    239.34448   -8764.4263    34.958581   -8799.3848   -7092.4185 
   57600    337.55936   -8755.9222    49.303816    -8805.226    10123.553 
   57800    245.85262   -8767.8329    35.909158   -8803.7421   -30227.214 
   58000    280.66652   -8754.2775    40.994066   -8795.2715   -4961.8136 
   58200     341.2226   -8757.2473    49.838867   -8807.0861    22656.975 
   58400    281.57634   -8761.1195    41.126953   -8802.2464    11054.993 
   58600    353.58482   -8747.6067    51.644491   -8799.2512   -14833.182 
   58800    297.58624    -8762.167    43.465354   -8805.6323    33040.195 
   59000    335.94387   -8746.3027    49.067859   -8795.3705   -23194.429 
   59200    272.77668   -8750.3205    39.841678   -8790.1622   -39558.232 
   59400    260.56912   -8754.0579    38.058645   -8792.1165     24078.15 
   59600    279.69467   -8771.9666    40.852118   -8812.8187   -598.36715 
   59800    253.00213   -8763.9826    36.953413    -8800.936    34881.576 
   60000    330.63116   -8751.2016    48.291885   -8799.4935    26256.949 
   60200    312.39671   -8753.0705    45.628567   -8798.6991    5528.5654 
   60400    277.86036   -8764.7787    40.584198   -8805.3629   -10901.439 
   60600    322.00824     -8756.23    47.032424   -8803.2624   -12092.169 
   60800    295.85602   -8751.5178    43.212639   -8794.7304    42751.165 
   61000     334.8232   -8754.8852    48.904174   -8803.7894   -28009.093 
   61200    288.58432   -8766.2758    42.150537   -8808.4264    24546.636 
   61400     308.3643   -8751.7435    45.039594   -8796.7831    29789.988 
   61600    316.29193   -8750.5459    46.197502   -8796.7434   -48723.993 
   61800     267.3161   -8771.3063    39.044108   -8810.3504   -39720.158 
   62000    285.95126   -8756.9005    41.765953   -8798.6664   -39439.084 
   62200    370.99511   -8748.9757    54.187432   -8803.1631   -9258.1493 
   62400    297.76612   -8757.0492    43.491628   -8800.5409   -3890.0106 
   62600     285.8836   -8764.8307    41.756071   -8806.5868   -38762.007 
   62800    308.72774   -8748.1264    45.092678   -8793.2191    32114.607 
   63000    329.98397    -8750.611    48.197357   -8798.8084   -13939.099 
   63200    296.86747   -8755.9963    43.360371   -8799.3567    12499.812 
   63400    291.98076   -8755.1957    42.646621   -8797.8423    5741.3339 
   63600    318.95314   -8754.8002    46.586198   -8801.3864   -19503.276 
   63800    293.27211   -8759.5232    42.835234   -8802.3584    26458.016 
   64000    340.09344   -8758.7604    49.673944   -8808.4343    1770.7787 
   64200    334.73014   -8751.7157    48.890582   -8800.6063   -33814.416 
   64400    275.55215   -8759.8248    40.247062   -8800.0719    37742.813 
   64600    330.10853   -8758.2223     48.21555   -8806.4378   -9498.1192 
   64800    266.64157    -8751.433    38.945586   -8790.3786    861.00605 
   65000    351.16541   -8750.9576    51.291112   -8802.2487    29077.579 
   65200    282.80287   -8758.3722      41.3061   -8799.6783    8067.8943 
   65400    265.07514   -8758.3324    38.716793   -8797.0492    6876.7844 
   65600    276.57321   -8754.0965    40.396198   -8794.4927    -35141.58 
   65800     271.9522   -8759.6938    39.721255   -8799.4151    -23181.39 
   66000    279.29829   -8761.7416    40.794222   -8802.5358   -26184.401 
   66200     335.1151    -8747.723    48.946809   -8796.6698   -16857.777 
   66400    262.29168   -8761.3134    38.310242   -8799.6237   -27537.822 
   66600    329.38375   -8755.5904     48.10969   -8803.7001   -15945.377 
   66800    327.26752   -8744.7856    47.800594   -8792.5862    4256.3938 
   67000    348.36715      -8745.2    50.882398   -8796.0824    18068.776 
   67200    255.91595    -8763.493    37.379004    -8800.872   -577.75948 
   67400    265.31702   -8754.9315    38.752122   -8793.6836   -40844.981 
   67600    314.34964   -8743.7807    45.913812   -8789.6946    8255.2415 
   67800    338.90632   -8756.1626    49.500552   -8805.6632   -9256.7388 
   68000     286.6004   -8757.9866    41.860766   -8799.8474   -12433.524 
   68200     335.5422   -8747.6757    49.009191   -8796.6849    9744.2424 
   68400    289.65769    -8748.041    42.307314   -8790.3483   -26533.463 
   68600    274.38225   -8765.5704    40.076187   -8805.6466    25897.949 
   68800    339.29012   -8763.9212    49.556611   -8813.4778    32680.791 
   69000    302.98792   -8751.2141    44.254323   -8795.4685   -958.44765 
   69200    340.72422   -8756.0993    49.766074   -8805.8654   -11011.133 
   69400     259.6707   -8766.7808    37.927423   -8804.7082   -1124.2427 
   69600    283.12708    -8755.929    41.353454   -8797.2824    23651.884 
   69800    285.03214   -8749.0259    41.631706   -8790.6576   -18891.918 
   70000    273.77258    -8761.873    39.987138   -8801.8602    8841.0325 
   70200    301.39895   -8759.4119    44.022238   -8803.4341    5992.7503 
   70400    355.83451   -8750.6609    51.973079    -8802.634   -18612.884 
   70600    312.59657   -8756.6671    45.657758   -8802.3249    9569.0547 
   70800    276.32809   -8770.3407    40.360396   -8810.7011    -24718.45 
   71000    280.13748   -8759.2058    40.916794   -8800.1226   -44627.492 
   71200    271.49137   -8751.5595    39.653946   -8791.2134    278.11933 
   71400    265.47322   -8760.4958    38.774937   -8799.2708    48624.798 
   71600    314.88353   -8758.7123    45.991791   -8804.7041    17422.333 
   71800    345.95182   -8750.5989    50.529616   -8801.1285   -15058.587 
   72000    299.14665   -8756.9774    43.693267   -8800.6706    4005.5992 
   72200    291.62408   -8754.1095    42.594523    -8796.704   -7017.4293 
   72400    298.61452   -8757.6452    43.615545   -8801.2607    21161.373 
   72600    336.57776   -8756.8105    49.160444   -8805.9709   -24022.491 
   72800    323.66883   -8743.4845    47.274969   -8790.7595    3932.0991 
   73000     249.6757   -8762.3992    36.467556   -8798.8667   -14520.245 
   73200    306.15423   -8754.7706    44.716793   -8799.4874    9003.1481 
   73400    363.47515   -8736.8911    53.089069   -8789.9802    -10098.22 
   73600    350.08378   -8752.3047    51.133129   -8803.4378   -15713.739 
   73800    283.38296   -8763.2002    41.390827    -8804.591   -15395.496 
   74000    321.96268   -8753.9235     47.02577   -8800.9493   -17049.261 
   74200    332.34019   -8748.2739    48.541506   -8796.8154    45733.644 
   74400     284.0202   -8763.0351    41.483903    -8804.519    1997.6918 
   74600     293.1007   -8757.7696    42.810198   -8800.5798   -28455.179 
   74800      325.293   -8749.1685    47.512195   -8796.6807    7669.6204 
   75000    348.37395   -8773.7917    50.883392   -8824.6751    11287.833 
   75200    285.52801   -8792.6957    41.704133   -8834.3998   -33604.535 
   75400    308.12122   -8792.8844    45.004091   -8837.8885    27852.877 
   75600    328.79014   -8782.8117    48.022987   -8830.8347    15914.443 
   75800    341.76675   -8788.3958    49.918347   -8838.3142   -31385.072 
   76000    270.00218   -8798.1133    39.436435   -8837.5497   -2573.1839 
   76200    376.28269   -8780.8365    54.959734   -8835.7963   -5466.2382 
   76400    262.44379   -8791.5747     38.33246   -8829.9072   -34163.274 
   76600    273.65325   -8791.0698    39.969709   -8831.0395   -35260.235 
   76800     315.8315   -8779.1759    46.130252   -8825.3061    12012.905 
   77000    310.14048   -8788.4925    45.299024   -8833.7915   -13264.106 
   77200     293.5117   -8794.2426    42.870229   -8837.1129   -19902.477 
   77400    304.60049   -8790.4905    44.489854   -8834.9804    9731.6873 
   77600    332.97333   -8782.8976    48.633982   -8831.5316    33326.197 
   77800     294.1915   -8796.8244    42.969521   -8839.7939    7052.4189 
   78000    316.99768   -8790.8822    46.300583   -8837.1828   -19975.212 
   78200    277.51945    -8781.165    40.534406   -8821.6994    5438.8067 
   78400    338.05542   -8783.9952    49.376271   -8833.3715   -16626.964 
   78600     279.2515   -8796.8418    40.787389   -8837.6292    -557.2976 
   78800    285.94227   -8789.0398     41.76464   -8830.8045   -5075.3821 
   79000    362.29228   -8784.3164      52.9163   -8837.2327    26001.617 
   79200    398.06089   -8784.7526    58.140651   -8842.8932   -16486.266 
   79400    281.43246   -8793.7345    41.105938   -8834.8405   -14069.262 
   79600    368.31071   -8778.6469     53.79535   -8832.4422   -28316.771 
   79800     289.2052   -8785.4737    42.241223   -8827.7149   -5129.7648 
   80000    267.21832   -8792.7758    39.029825   -8831.8056   -12230.513 
   80200    288.88178   -8788.2932    42.193984   -8830.4871    12526.433 
   80400    322.01911   -8784.4162    47.034013   -8831.4502   -38134.912 
   80600    282.42748   -8793.9986     41.25127   -8835.2499    2969.4996 
   80800        328.9   -8787.5962    48.039033   -8835.6352   -6232.4931 
   81000     295.7876   -8797.7674    43.202647   -8840.9701   -4184.0677 
   81200    266.38471   -8802.2558    38.908068   -8841.1639   -4138.7404 
   81400    305.11952    -8790.282    44.565663   -8834.8477    8260.3436 
   81600    252.61625   -8795.3198    36.897052   -8832.2168    19867.066 
   81800    241.03111   -8800.7121    35.204929    -8835.917    3968.9054 
   82000    378.47306   -8784.4104    55.279659   -8839.6901   -5825.2735 
   82200     261.2838   -8794.1616    38.163031   -8832.3246   -34002.355 
   82400    252.45909   -8805.1775    36.874097   -8842.0516     9200.528 
   82600    328.18614     -8786.62    47.934767   -8834.5548   -22089.068 
   82800    315.47243   -8787.1453    46.077806   -8833.2231   -17810.327 
   83000    263.20251   -8803.0055    38.443278   -8841.4488   -5278.8249 
   83200    291.73831   -8788.0593    42.611207   -8830.6705   -19641.145 
   83400    273.39239   -8787.6979    39.931609   -8827.6295    41663.453 
   83600    289.80828   -8795.9123    42.329308   -8838.2416   -12127.307 
   83800    258.97109   -8801.5103    37.825238   -8839.3355    38907.869 
   84000    319.21149   -8786.3185    46.623932   -8832.9424    -8284.423 
   84200    242.78555   -8795.5085    35.461183   -8830.9697    16909.742 
   84400    228.06706    -8806.956    33.311405   -8840.2674   -9105.0042 
   84600    316.39545   -8790.2337    46.212622   -8836.4464    15360.835 
   84800    343.77165   -8782.0046    50.211182   -8832.2158   -10207.122 
   85000    269.09821   -8795.7936    39.304401    -8835.098   -5728.9302 
   85200    259.51827   -8797.1697    37.905159   -8835.0749   -21685.909 
   85400     342.9683   -8783.1915    50.093844   -8833.2853    5316.0556 
   85600     279.2376   -8792.7643    40.785357   -8833.5496    32061.982 
   85800    276.60302   -8799.2757    40.400551   -8839.6763   -11018.017 
   86000    278.35028   -8793.6548    40.655756   -8834.3106   -27235.085 
   86200    275.28589   -8780.7314    40.208172   -8820.9396    46445.476 
   86400    252.23042   -8798.2786    36.840697   -8835.1193   -21880.295 
   86600    301.99291    -8793.195    44.108992    -8837.304   -1714.6088 
   86800    299.51078   -8785.3679    43.746453   -8829.1143     46422.05 
   87000    261.26077   -8801.0836    38.159668   -8839.2432    9458.1494 
   87200    288.82922   -8798.1809    42.186307   -8840.3673   -5242.1718 
   87400    332.23795   -8788.7933    48.526573   -8837.3199    22030.175 
   87600    329.81232   -8782.4569    48.172286   -8830.6292    15739.349 
   87800     322.4899    -8785.965    47.102775   -8833.0678    1990.3726 
   88000     280.4472   -8791.8993    40.962032   -8832.8614    -1435.064 
   88200    324.11549   -8776.3203    47.340208   -8823.6605    43347.032 
   88400    354.02266   -8788.0107    51.708441   -8839.7191    45525.159 
   88600    318.21496   -8790.3609    46.478379   -8836.8393   -22083.224 
   88800    379.71058   -8779.7695     55.46041   -8835.2299   -37850.164 
   89000    287.71002   -8793.5142    42.022837    -8835.537    27975.385 
   89200    316.96294   -8795.6306     46.29551   -8841.9261     8562.163 
   89400    333.44855    -8775.899    48.703392   -8824.6024    29354.536 
   89600    300.88736   -8784.3261    43.947515   -8828.2737    40086.383 
   89800    296.11483   -8795.2124    43.250441   -8838.4628   -27834.877 
   90000    268.99081   -8795.8455    39.288715   -8835.1343    15509.922 
   90200    349.26143   -8776.8995    51.013017   -8827.9125    9295.5122 
   90400    336.17625   -8791.0977      49.1018   -8840.1995    43135.982 
   90600     293.7502   -8794.2873    42.905064   -8837.1923   -26580.796 
   90800    312.36154   -8787.1812     45.62343   -8832.8047    -8804.358 
   91000    371.52989   -8774.0191    54.265541   -8828.2846    55811.528 
   91200     245.5915   -8794.6533    35.871019   -8830.5243   -54942.861 
   91400    266.35866   -8793.4539    38.904264   -8832.3582    2850.3906 
   91600    309.42458   -8784.6523     45.19446   -8829.8467    11543.205 
   91800    235.86003   -8790.4326    34.449644   -8824.8822   -12428.332 
   92000    289.26687   -8790.0033     42.25023   -8832.2535    26013.529 
   92200    192.74368    -8803.714    28.152083   -8831.8661   -40621.664 
   92400    276.15111   -8786.1954    40.334546   -8826.5299   -119.43926 
   92600    333.47845   -8788.1707     48.70776   -8836.8785    34597.099 
   92800    249.23765   -8804.2855    36.403575   -8840.6891   -16476.732 
   93000    315.05493    -8795.112    46.016826   -8841.1288    2527.6004 
   93200    306.35908   -8785.9113    44.746713    -8830.658    35886.288 
   93400     264.5133   -8795.2524    38.634732   -8833.8871   -33499.862 
   93600    273.12905   -8797.9131    39.893145   -8837.8062    53691.227 
   93800    282.99677   -8783.0509    41.334421   -8824.3853    3219.6707 
   94000    327.50978   -8786.2246    47.835978   -8834.0606   -3106.9243 
   94200    252.45185   -8799.1399     36.87304   -8836.0129     14437.58 
   94400    346.97321    -8785.931      50.6788   -8836.6098   -2412.1694 
   94600    261.41224     -8789.55    38.181791   -8827.7318    22907.619 
   94800    287.36174   -8790.2721    41.971968    -8832.244   -13417.441 
   95000    292.65689   -8790.0431    42.745375   -8832.7885    31586.657 
   95200    380.28527    -8781.722     55.54435   -8837.2664   -40609.931 
   95400    234.84463   -8798.7629    34.301335   -8833.0642    2677.7167 
   95600    359.68546   -8789.1033    52.535548   -8841.6388   -56036.377 
   95800     286.5099   -8789.4846    41.847548   -8831.3322   -19009.055 
   96000    241.99883   -8789.0699    35.346274   -8824.4161   -8943.5063 
   96200    307.68127   -8787.9027    44.939831   -8832.8425   -29160.467 
   96400    312.72882    -8785.386    45.677076   -8831.0631   -58007.017 
   96600    242.17458   -8794.9438    35.371945   -8830.3158    11959.779 
   96800    320.93784   -8795.1668    46.876083   -8842.0429    33189.044 
   97000    262.44526   -8779.7125    38.332674   -8818.0452   -31433.153 
   97200    327.15837   -8795.4975    47.784651   -8843.2822   -3956.3535 
   97400    291.01432   -8794.1776    42.505462   -8836.6831    9790.6979 
   97600    370.86807   -8780.4568    54.168876   -8834.6257    8459.6206 
   97800    325.84522   -8771.5442    47.592853   -8819.1371   -27913.262 
   98000    292.73904   -8793.2451    42.757374   -8836.0025   -17086.721 
   98200    297.55129   -8788.8391     43.46025   -8832.2994    34954.577 
   98400    339.68234   -8777.8702    49.613899   -8827.4841   -14534.903 
   98600    274.49965   -8798.5206    40.093335    -8838.614    22164.336 
   98800    316.20863   -8787.1863    46.185335   -8833.3716    11340.383 
   99000    284.34626   -8797.6889    41.531528   -8839.2204   -4277.8258 
   99200    312.96322   -8796.1542    45.711312   -8841.8655    52923.001 
   99400    291.76512   -8789.7497    42.615124   -8832.3648    18401.183 
   99600    316.13782   -8791.7805    46.174993   -8837.9555   -7052.7303 
   99800    306.82547   -8783.6208    44.814834   -8828.4356    12516.563 
  100000     331.4507   -8782.3046    48.411587   -8830.7162   -31414.726 
  100200    252.40479   -8796.5943    36.866165   -8833.4605   -7262.3375 
  100400    339.17152    -8785.932    49.539287   -8835.4713   -20969.171 
  100600    232.47776   -8797.6399     33.95563   -8831.5955    2635.4277 
  100800    264.60693   -8796.2781    38.648407   -8834.9265    31286.452 
  101000    306.49423   -8789.2879    44.766453   -8834.0543   -20618.875 
  101200    329.95222   -8775.2352     48.19272   -8823.4279   -26494.515 
  101400    317.61979   -8791.1196    46.391449    -8837.511   -21833.088 
  101600    318.05449   -8790.0811    46.454941    -8836.536   -28604.458 
  101800    381.27856   -8776.6472    55.689429   -8832.3366    21842.778 
  102000    295.31778   -8797.5784    43.134024   -8840.7124    4444.6723 
  102200    330.87601   -8783.1144    48.327649    -8831.442   -24100.251 
  102400    323.17707   -8789.3881    47.203143   -8836.5913    20336.098 
  102600    261.10536   -8803.8095    38.136969   -8841.9465    10940.136 
  102800     303.3541   -8789.3156    44.307806   -8833.6234     56064.64 
  103000    269.95346   -8788.6565    39.429319   -8828.0859   -17518.098 
  103200    239.88001   -8800.8707      35.0368   -8835.9075    23386.496 
  103400    303.62996   -8782.9199    44.348099    -8827.268   -36410.644 
  103600    324.52773   -8788.6851    47.400421   -8836.0855    20984.596 
  103800    274.84509    -8802.085    40.143789   -8842.2288    5582.7027 
  104000    354.26222   -8779.1464    51.743432   -8830.8898   -22194.836 
  104200    318.83032   -8784.9976    46.568258   -8831.5658      6690.01 
  104400    277.54586   -8800.3268    40.538262    -8840.865     15061.56 
  104600     279.9457   -8788.1482    40.888783    -8829.037     23982.35 
  104800    289.68107   -8786.0013    42.310729   -8828.3121    15393.036 
  105000    289.06507   -8800.2633    42.220755   -8842.4841    37727.523 
  105200    335.75786   -8783.4852    49.040689   -8832.5259   -20724.403 
  105400    297.66052   -8790.3147    43.476204   -8833.7909   -13553.943 
  105600    270.51988   -8797.4574    39.512051   -8836.9694    -24784.11 
  105800    329.53669   -8779.1457    48.132028   -8827.2777   -46563.564 
  106000    306.04148    -8792.123    44.700325   -8836.8233    43642.113 
  106200    243.02195   -8790.7339    35.495711   -8826.2296   -20051.578 
  106400     304.9022    -8776.353    44.533922   -8820.8869    6179.8092 
  106600    294.97629   -8793.3524    43.084147   -8836.4366    -38727.09 
  106800    281.77542   -8790.3664    41.156031   -8831.5224    21628.955 
  107000    336.61719   -8773.7559    49.166203   -8822.9221    29467.486 
  107200    287.40179   -8788.5547    41.977818   -8830.5325   -10509.925 
  107400    316.21007   -8792.5941    46.185545   -8838.7796   -8216.9446 
  107600      270.484   -8793.6937     39.50681   -8833.2005    52765.864 
  107800    345.66494   -8779.3123    50.487715      -8829.8   -24078.899 
  108000    294.36356   -8794.1504    42.994651   -8837.1451   -431.59311 
  108200    271.53534   -8794.7865    39.660369   -8834.4469    32816.072 
  108400    296.34431   -8786.5204    43.283959   -8829.8043    33862.229 
  108600    350.74211   -8767.2166    51.229285   -8818.4458    23154.628 
  108800    269.94529   -8789.3332    39.428126   -8828.7614   -3207.2325 
  109000    245.72401   -8798.8291    35.890373   -8834.7195   -24083.693 
  109200    273.63038    -8791.077    39.966369   -8831.0434   -1369.8089 
  109400    314.71474    -8788.249    45.967137   -8834.2161    17552.801 
  109600    269.42263   -8798.4548    39.351786   -8837.8065    7697.8215 
  109800    355.72753   -8778.2388    51.957453   -8830.1962   -14010.711 
  110000    321.23448    -8788.429    46.919409   -8835.3484     83851.58 
  110200    293.55996   -8791.3289    42.877277   -8834.2062   -6644.9773 
  110400    329.57211   -8773.9045    48.137202   -8822.0417    17517.619 
  110600    263.70378   -8791.0223    38.516493   -8829.5388    9035.0021 
  110800    305.41082    -8794.589    44.608211   -8839.1972    18332.182 
  111000    263.09615   -8802.5511    38.427743   -8840.9788    -6234.586 
  111200    339.94754   -8785.5663    49.652633    -8835.219    12869.265 
  111400    285.13902   -8789.4313    41.647317   -8831.0786    15622.774 
  111600    238.63451   -8804.0635    34.854883   -8838.9184   -38655.831 
  111800    331.89267    -8789.199    48.476141   -8837.6751    4675.2021 
  112000    298.51982   -8788.2766    43.601713   -8831.8783   -766.36747 
  112200    282.21968   -8804.0988     41.22092   -8845.3197   -14962.285 
  112400    372.27687    -8785.585    54.374645   -8839.9597    39635.267 
  112600    299.81597     -8783.93    43.791029    -8827.721   -26013.459 
  112800    287.30648   -8792.1758    41.963896   -8834.1397    57172.802 
  113000    243.66384   -8795.4518    35.589466   -8831.0412    10941.601 
  113200    296.02174   -8782.6061    43.236844   -8825.8429   -5415.6405 
  113400     276.6325   -8794.3263    40.404858   -8834.7312     19702.61 
  113600    216.66093   -8806.3239    31.645429   -8837.9694     38736.67 
  113800    322.45414   -8788.9671    47.097553   -8836.0647   -10360.661 
  114000    294.21379    -8791.365    42.972776   -8834.3377   -40144.134 
  114200    280.70124   -8783.1071    40.999136   -8824.1063    3371.5421 
  114400    268.30877    -8784.709    39.189097   -8823.8981    -28442.93 
  114600    299.04873   -8791.9411    43.678965   -8835.6201   -32604.345 
  114800    294.30327   -8787.4535    42.985845   -8830.4393    50956.345 
  115000    280.48878   -8785.9722    40.968105   -8826.9403    20823.989 
  115200    240.23259   -8799.1524    35.088299   -8834.2407   -35918.826 
  115400    333.63247   -8786.0308    48.730257   -8834.7611    5080.7257 
  115600    309.82055   -8792.3666    45.252295   -8837.6189    28722.306 
  115800    294.35382   -8799.4998    42.993229    -8842.493   -21997.882 
  116000    309.06346   -8784.3446    45.141714   -8829.4863     30090.89 
  116200    256.28641   -8793.8233    37.433115   -8831.2564    3550.9551 
  116400    300.42012   -8783.5217     43.87927    -8827.401    23257.218 
  116600    306.12611   -8786.0579    44.712686   -8830.7706     34959.68 
  116800    313.19266   -8792.9713    45.744824   -8838.7161    938.36147 
  117000    292.30694   -8786.4294    42.694261   -8829.1237   -14018.358 
  117200    301.76882   -8781.3259    44.076261   -8825.4022    25407.127 
  117400    292.96319   -8793.5106    42.790113   -8836.3007   -32710.042 
  117600    279.25893   -8792.8924    40.788474   -8833.6808    6897.0414 
  117800    348.98815   -8778.1167    50.973102   -8829.0898   -17902.888 
  118000    328.13601   -8784.0293    47.927444   -8831.9567    21746.713 
  118200    267.75367   -8792.0593    39.108019   -8831.1674    1897.0018 
  118400    350.19919   -8778.3094    51.149987   -8829.4594   -8686.9425 
  118600    345.59089   -8772.7987    50.476899   -8823.2756    2365.3782 
  118800    300.37839   -8789.7395    43.873175   -8833.6126     40202.74 
  119000    297.37678   -8795.4107     43.43476   -8838.8454   -9252.1586 
  119200     330.9076   -8783.6998    48.332263   -8832.0321    39270.772 
  119400    294.41525   -8796.3061    43.002201   -8839.3083   -20281.672 
  119600    278.76614   -8794.2291    40.716497   -8834.9456   -31902.836 
  119800    282.50677   -8787.8232    41.262852    -8829.086    675.41319 
  120000    348.64117   -8773.2015    50.922422   -8824.1239   -19365.509 
  120200    247.86689   -8790.0304    36.203362   -8826.2338    38804.347 
  120400    307.78012   -8786.7565     44.95427   -8831.7107   -22519.419 
  120600    298.74351   -8773.0548    43.634386   -8816.6891    10277.271 
  120800    283.12895   -8791.4753    41.353727    -8832.829    42713.108 
  121000    266.69993   -8795.3164     38.95411   -8834.2705   -5761.5363 
  121200    356.82571    -8778.925    52.117854   -8831.0429    4902.9634 
  121400     264.6772   -8789.4979     38.65867   -8828.1566    17139.833 
  121600    283.07007   -8792.7436    41.345128   -8834.0887   -15201.792 
  121800    277.80756   -8785.7875    40.576486    -8826.364   -37731.006 
  122000    362.49224     -8782.37    52.945505   -8835.3155    1193.6524 
  122200    310.76158   -8789.6253    45.389741    -8835.015    9651.3165 
  122400    384.99685   -8780.2424    56.232521   -8836.4749    5760.2807 
  122600     344.0194   -8791.6245    50.247368   -8841.8719    17512.998 
  122800     285.4298   -8791.6099    41.689788   -8833.2997   -28409.649 
  123000    324.98112   -8773.1696    47.466643   -8820.6362    9222.8404 
  123200    320.78384   -8781.2655    46.853589   -8828.1191    51475.511 
  123400    255.06659   -8795.4371    37.254947   -8832.6921   -10023.609 
  123600    263.01176   -8793.6006    38.415417    -8832.016     -10683.2 
  123800    343.21364   -8779.5971    50.129679   -8829.7268    29481.877 
  124000    324.99952    -8795.526     47.46933   -8842.9953    10898.632 
  124200    293.93871   -8791.9985    42.932597   -8834.9311   -39510.568 
  124400    310.16073   -8780.8133    45.301981   -8826.1153    9750.3574 
  124600    244.29976    -8801.916    35.682348   -8837.5983    -46629.77 
  124800     317.2287   -8788.1783    46.334326   -8834.5126   -20420.934 
  125000    309.80594   -8787.7001    45.250161   -8832.9503    -29216.75 
  125200    255.09349   -8804.2126    37.258877   -8841.4714    17771.795 
  125400    332.93737   -8791.7253    48.628731    -8840.354   -26473.772 
  125600    286.25288   -8790.2799    41.810007   -8832.0899   -13649.039 
  125800    302.06003   -8796.8379    44.118795   -8840.9567    2484.4547 
  126000    268.68419   -8793.7407     39.24393   -8832.9846   -59264.277 
  126200    329.70056   -8782.4568    48.155963   -8830.6128    3465.5915 
  126400    241.40415   -8799.2445    35.259415   -8834.5039   -6465.8309 
  126600    246.85729   -8797.5755      36.0559   -8833.6314   -366.90252 
  126800    326.20789   -8782.6164    47.645823   -8830.2622   -184.55123 
  127000    260.55726   -8793.2745    38.056913   -8831.3315    -21137.57 
  127200    264.37913    -8796.255    38.615135   -8834.8701     -2350.19 
  127400    279.03861   -8789.3981    40.756293   -8830.1544    62951.916 
  127600     264.9098   -8792.4993    38.692643    -8831.192   -9028.3086 
  127800    388.02615   -8775.3134     56.67498   -8831.9883   -13999.333 
  128000    266.79403   -8792.4787    38.967854   -8831.4466    -5894.807 
  128200    286.62309   -8788.8595     41.86408   -8830.7236     20475.66 
  128400    322.88909   -8773.1088    47.161081   -8820.2699   -11786.735 
  128600    346.59895   -8775.0836    50.624136   -8825.7078    -36230.03 
  128800     272.8537   -8794.9242    39.852928   -8834.7772    6380.0444 
  129000    272.16457   -8798.5103    39.752273   -8838.2626     4420.217 
  129200    364.85316   -8781.7166    53.290341   -8835.0069    6036.2689 
  129400     264.4509   -8798.6217    38.625617   -8837.2474    7820.4282 
  129600    296.32967   -8794.2048     43.28182   -8837.4867    3829.7978 
  129800    259.03809   -8786.6962    37.835024   -8824.5312   -17101.556 
  130000    269.85724   -8792.9493    39.415266   -8832.3646    6616.5827 
  130200    284.29843   -8797.7424    41.524541    -8839.267   -14924.174 
  130400    350.37713   -8786.5107    51.175977   -8837.6867    40407.952 
  130600    248.02563   -8799.5712    36.226547   -8835.7978    3666.6318 
  130800    349.69782   -8788.4001    51.076756   -8839.4769    -4270.395 
  131000    295.93843   -8791.8346    43.224676   -8835.0593    -18506.84 
  131200    299.32067   -8791.9655    43.718684   -8835.6842   -5262.6463 
  131400    337.89316   -8781.7035    49.352571   -8831.0561   -2086.2877 
  131600    262.43694   -8797.5075    38.331459    -8835.839   -18778.895 
  131800     309.7643    -8784.273    45.244078    -8829.517   -2648.9339 
  132000    277.63423   -8793.4906     40.55117   -8834.0418   -19513.833 
  132200    225.02445   -8808.2851    32.867001   -8841.1521   -26160.348 
  132400    310.08256    -8793.304    45.290563   -8838.5946   -3564.6854 
  132600    273.08701   -8787.7251    39.887004   -8827.6121    39862.513 
  132800    390.08937   -8773.1595    56.976334   -8830.1359    38109.218 
  133000    299.05429    -8790.666    43.679777   -8834.3458   -13159.976 
  133200    254.82701   -8791.3484    37.219955   -8828.5684   -26455.325 
  133400    343.50992   -8783.6305    50.172953   -8833.8035   -26371.933 
  133600    264.96869   -8798.1188    38.701246     -8836.82    10900.204 
  133800    313.92561   -8786.6427    45.851878   -8832.4945   -12166.421 
  134000    229.97934   -8800.2267    33.590712   -8833.8174   -17228.797 
  134200     236.4561   -8809.0709    34.536705   -8843.6076   -9746.9719 
  134400    337.30787   -8788.7792    49.267084   -8838.0463    749.72201 
  134600    306.71833    -8780.384    44.799185   -8825.1832   -11134.407 
  134800    313.84316   -8786.6309    45.839835   -8832.4708     11204.12 
  135000     306.1369   -8794.5991    44.714262   -8839.3133         2623 
  135200    313.58373   -8781.4211    45.801943    -8827.223   -22656.989 
  135400    278.54585   -8796.4958    40.684322   -8837.1801    24093.662 
  135600    313.21313    -8788.918    45.747813   -8834.6658   -19276.006 
  135800    276.19335   -8790.1104    40.340715   -8830.4511   -27859.519 
  136000    278.95711   -8795.8747    40.744389   -8836.6191   -425.61716 
  136200    300.74347   -8785.2089    43.926499   -8829.1354     2469.106 
  136400    287.50911   -8787.4942    41.993492   -8829.4877    9774.9898 
  136600    229.72069   -8799.1916    33.552934   -8832.7445   -18400.212 
  136800    244.34816   -8803.8847    35.689418   -8839.5741   -10666.144 
  137000    347.36591   -8783.8359    50.736157   -8834.5721    2515.1446 
  137200    295.11492   -8795.6313    43.104394   -8838.7357    -3655.653 
  137400    279.64896   -8795.6807    40.845441   -8836.5262     6137.514 
  137600    319.02043   -8785.1985    46.596025   -8831.7946    -47875.91 
  137800    286.34808   -8792.7436    41.823912   -8834.5675    5156.6511 
  138000    309.24416   -8787.2545    45.168107   -8832.4226    11148.549 
  138200    320.53674   -8783.7642    46.817498   -8830.5817    11435.747 
  138400    265.94627   -8797.9676    38.844031   -8836.8117    18795.952 
  138600    296.18665   -8792.7077    43.260932   -8835.9686   -19108.216 
  138800    325.74845   -8783.5055    47.578719   -8831.0842   -1878.5043 
  139000    416.41055   -8769.3195    60.820797   -8830.1403    39408.279 
  139200    276.37414   -8788.7686    40.367122   -8829.1357    35000.745 
  139400    263.28328   -8796.9668    38.455075   -8835.4219   -14067.328 
  139600    358.89281   -8780.6692    52.419774    -8833.089   -6447.9855 
  139800    310.98046   -8789.6277    45.421711   -8835.0494    31618.144 
  140000    322.77116    -8792.389    47.143856   -8839.5328   -10316.996 
  140200    318.82556   -8772.1649    46.567563   -8818.7325    8410.7116 
  140400    330.84228   -8787.4666    48.322722   -8835.7893     4111.794 
  140600    322.92395   -8793.8315    47.166173   -8840.9977    6215.9029 
  140800    229.48375   -8802.4589    33.518326   -8835.9773   -13014.745 
  141000    299.21819   -8790.4361    43.703717   -8834.1398    7418.3659 
  141200    330.84031   -8784.6649    48.322434   -8832.9873   -54897.052 
  141400    282.52283   -8786.7733    41.265198   -8828.0385   -23861.715 
  141600    311.18472   -8797.8314    45.451545   -8843.2829    25996.447 
  141800    351.59927   -8781.3933    51.354481   -8832.7478   -18187.899 
  142000    370.86492    -8782.498    54.168417   -8836.6664    39032.653 
  142200    288.56288   -8795.7092    42.147405   -8837.8566    28449.815 
  142400     306.1133   -8785.5686    44.710814   -8830.2794   -17013.619 
  142600    297.90294   -8782.0165    43.511612   -8825.5281    -511.0196 
  142800    311.38036   -8794.1994     45.48012   -8839.6795    29461.829 
  143000    302.66809   -8799.8677    44.207608   -8844.0753   -13015.119 
  143200    244.93564   -8800.0351    35.775224   -8835.8103   -55085.861 
  143400    295.65723   -8785.2755    43.183605   -8828.4591   -1593.4894 
  143600    263.25724   -8796.4892    38.451272   -8834.9405   -47718.917 
  143800    322.26886   -8783.3257     47.07049   -8830.3962      19683.6 
  144000    314.00014   -8783.8979    45.862765   -8829.7607    7356.1144 
  144200    371.69867   -8788.2815    54.290193   -8842.5717     3150.738 
  144400    272.69134   -8801.2129    39.829214   -8841.0421    31539.802 
  144600    331.33105   -8783.8032    48.394111   -8832.1973   -26980.667 
  144800    310.14677   -8787.9245    45.299942   -8833.2244   -15107.502 
  145000    285.24985   -8798.6565    41.663505     -8840.32    -18456.68 
  145200    276.08287   -8798.1554    40.324579     -8838.48    11885.763 
  145400    315.29209   -8786.0844    46.051466   -8832.1359   -23617.019 
  145600    269.39721   -8796.8545    39.348073   -8836.2026    8643.7179 
  145800    331.50481   -8790.0511    48.419491   -8838.4706     30053.78 
  146000     306.1518   -8789.7164    44.716438   -8834.4328    15049.199 
  146200    310.35792   -8784.4598    45.330783   -8829.7906    764.09175 
  146400    341.23708   -8784.6034    49.840983   -8834.4444     10688.54 
  146600    371.58434   -8789.6826    54.273495   -8843.9561    12298.251 
  146800    360.37396   -8781.0535    52.636109   -8833.6896     36680.74 
  147000    388.19619   -8775.7451    56.699816   -8832.4449   -7190.3069 
  147200    284.08503   -8795.3623    41.493372   -8836.8557   -19380.789 
  147400    351.23299   -8783.5156    51.300982   -8834.8166   -13732.014 
  147600    259.20456    -8796.675    37.859338   -8834.5343   -50295.817 
  147800    268.30096   -8792.0627    39.187956   -8831.2507    33646.832 
  148000    284.53758   -8791.9618    41.559471   -8833.5213    -6738.943 
  148200    315.76517   -8778.8299    46.120564   -8824.9505    37165.914 
  148400     280.0268    -8788.864    40.900629   -8829.7647    27013.077 
  148600    316.40683   -8791.0648    46.214285   -8837.2791   -4061.4034 
  148800    306.08455   -8783.3545    44.706616   -8828.0611    2901.1274 
  149000    327.24858   -8779.6935    47.797827   -8827.4914   -31385.425 
  149200    258.09936   -8793.5925    37.697912   -8831.2904    28608.175 
  149400    286.40767   -8789.7603    41.832616    -8831.593    8811.0446 
  149600    363.12005   -8775.1671    53.037203   -8828.2043   -24784.395 
  149800    274.61851   -8792.9752    40.110694   -8833.0859    31759.571 
  150000    317.24102   -8792.3047    46.336125   -8838.6408    31125.606 
  150200    317.84451   -8776.7601    46.424271   -8823.1844    50285.487 
  150400    303.85144   -8785.5797    44.380449   -8829.9601   -13902.652 
  150600    301.23714   -8793.3381    43.998604   -8837.3367    16893.375 
  150800    240.03236   -8795.5677    35.059052   -8830.6268   -29330.818 
  151000    344.62312   -8779.1419    50.335546   -8829.4774   -9411.9157 
  151200    282.09819   -8794.8521    41.203174   -8836.0552   -10789.601 
  151400    308.61611   -8789.1155    45.076374   -8834.1919    685.13521 
  151600    349.30885   -8786.3005    51.019943   -8837.3205    568.45424 
  151800    307.16609   -8791.4668    44.864585   -8836.3314   -27790.667 
  152000    280.20925   -8792.9979    40.927277   -8833.9252    23304.595 
  152200    359.23475   -8777.9618    52.469718   -8830.4315    33660.007 
  152400    320.44977   -8793.1479    46.804795   -8839.9527   -31706.981 
  152600    252.62911   -8791.6438     36.89893   -8828.5427     31190.01 
  152800    369.87689   -8780.2424    54.024104   -8834.2665   -10718.304 
  153000    262.33698   -8800.4282    38.316858   -8838.7451    24006.081 
  153200    302.63541   -8785.9995    44.202835   -8830.2023   -15859.919 
  153400    347.25216   -8785.8275    50.719544    -8836.547     52089.38 
  153600    286.15074   -8800.7913    41.795089   -8842.5864    16773.399 
  153800    345.78555   -8784.9985    50.505331   -8835.5038   -12426.706 
  154000    297.54173   -8791.6639    43.458854   -8835.1227    64239.417 
  154200    290.83563   -8791.6803    42.479362   -8834.1597   -7469.1857 
  154400    340.13465    -8778.849    49.679962    -8828.529    12895.243 
  154600    270.79345   -8792.0366    39.552009   -8831.5886    -13235.08 
  154800     326.0284   -8784.8956    47.619608   -8832.5152    29353.187 
  155000    252.12402   -8804.1535    36.825157   -8840.9786   -28551.701 
  155200    295.45391   -8792.5423    43.153908   -8835.6962   -17254.383 
  155400    306.82978   -8791.7367    44.815463   -8836.5522    7007.2216 
  155600     274.8035   -8797.8577    40.137715   -8837.9954    10242.089 
  155800    285.72412    -8784.613    41.732778   -8826.3458    7192.4187 
  156000    203.39348   -8797.1381    29.707589   -8826.8457    11280.431 
  156200    312.95159   -8778.8969    45.709613   -8824.6065   -17855.056 
  156400    308.06749   -8784.3558    44.996242    -8829.352    18377.338 
  156600     253.9272   -8795.8387    37.088529   -8832.9272    22708.299 
  156800    230.60067    -8807.032    33.681463   -8840.7135   -10681.531 
  157000    294.97601   -8790.3964    43.084105   -8833.4805   -16912.419 
  157200    302.67142   -8784.6376    44.208095   -8828.8456    35380.723 
  157400    277.19403   -8803.6176    40.486875   -8844.1045    1386.6212 
  157600    282.00929   -8792.6318     41.19019    -8833.822   -21145.247 
  157800    326.33797   -8786.7749    47.664824   -8834.4397   -20258.067 
  158000    257.66763   -8797.5481    37.634855   -8835.1829    23876.966 
  158200    272.59129   -8795.0996    39.814599   -8834.9142   -4312.8438 
  158400    298.28491    -8783.058    43.567402   -8826.6254    11252.657 
  158600    293.11465   -8796.2084    42.812236   -8839.0206   -6057.4263 
  158800    279.21421   -8798.2454    40.781942   -8839.0274    13927.047 
  159000    334.40458   -8782.9289     48.84303   -8831.7719    5204.4035 
  159200    286.18952   -8794.3763    41.800753   -8836.1771    38670.387 
  159400     238.6399   -8799.7993    34.855671   -8834.6549    32169.068 
  159600    339.79747   -8781.0198    49.630713   -8830.6505    16363.309 
  159800    273.83168   -8796.6496    39.995771   -8836.6454   -20192.204 
  160000    331.30421   -8787.2347    48.390191   -8835.6249    21358.743 
  160200    319.82877   -8773.7403    46.714092   -8820.4544    60321.665 
  160400     329.9738   -8785.6874    48.195872   -8833.8832    13764.272 
  160600    274.20042   -8798.0252    40.049629   -8838.0748   -42651.685 
  160800    326.97684   -8781.9739    47.758137    -8829.732    11124.681 
  161000    300.06969   -8785.9564    43.828086   -8829.7845    7216.8785 
  161200     305.4756   -8793.7123    44.617672     -8838.33    7050.8096 
  161400    361.11571   -8786.3409    52.744449   -8839.0853   -10723.781 
  161600    343.16906    -8779.798    50.123168   -8829.9211    42318.392 
  161800    314.68557   -8791.8925    45.962878   -8837.8554   -16311.207 
  162000    258.94763    -8800.507    37.821811   -8838.3289    58506.686 
  162200    280.78757   -8793.9109    41.011746   -8834.9226    20899.696 
  162400    296.87051   -8785.1661    43.360815   -8828.5269    -27709.74 
  162600    345.32217   -8786.7557     50.43765   -8837.1934   -34272.481 
  162800    290.36107   -8799.6526    42.410049   -8842.0626    27317.206 
  163000    363.21094   -8782.7532    53.050479   -8835.8036   -10669.236 
  163200    286.49422   -8785.5155    41.845257   -8827.3607   -12164.306 
  163400    327.93798   -8783.7806     47.89852   -8831.6791    -15770.17 
  163600    303.89808   -8802.5322     44.38726   -8846.9195   -5217.1537 
  163800     327.0543   -8786.5044     47.76945   -8834.2739    1761.3191 
  164000    291.56249   -8790.5262    42.585528   -8833.1117   -14447.981 
  164200    248.16884   -8800.1546    36.247465   -8836.4021   -26493.034 
  164400    293.53816   -8783.0814    42.874093   -8825.9555    1709.3024 
  164600    273.88397   -8796.2732    40.003409   -8836.2766    29648.463 
  164800    285.72486   -8781.4741    41.732885    -8823.207   -27014.265 
  165000    312.43397   -8789.6177    45.634009   -8835.2517    11398.447 
  165200    320.49177   -8783.9761    46.810929    -8830.787   -11681.159 
  165400    285.31755   -8796.5151    41.673393   -8838.1884    38211.929 
  165600     277.3354   -8794.7586    40.507523   -8835.2662   -9904.6166 
  165800    322.85094   -8787.1799     47.15551   -8834.3354     24224.48 
  166000    212.53217   -8800.8209    31.042383   -8831.8632    11678.457 
  166200    333.48615   -8787.7327    48.708885   -8836.4416   -7618.0416 
  166400    258.43021   -8790.5578    37.746237    -8828.304   -23591.113 
  166600    274.21228   -8786.5216    40.051361    -8826.573    435.11117 
  166800     327.1856   -8784.0318    47.788629   -8831.8205    25226.824 
  167000    215.50627   -8791.8025     31.47678   -8823.2793   -12113.494 
  167200    284.12867   -8778.4052    41.499746    -8819.905   -2138.0709 
  167400    271.18261   -8794.5428    39.608849   -8834.1516    21338.021 
  167600    271.54925   -8796.8548      39.6624   -8836.5172   -31239.203 
  167800    301.33439    -8781.115    44.012808   -8825.1278    78271.991 
  168000    229.03732   -8797.4074    33.453121   -8830.8605   -11556.838 
  168200    294.04713   -8799.2915    42.948433     -8842.24   -22338.273 
  168400    288.27697   -8789.4725    42.105646   -8831.5781   -16186.922 
  168600    379.72024    -8769.853    55.461822   -8825.3148   -2594.2725 
  168800    341.25545   -8792.5248    49.843666   -8842.3685   -13503.432 
  169000    331.56171   -8792.8792    48.427801    -8841.307   -12236.372 
  169200    321.89904   -8780.4669    47.016475   -8827.4834   -2834.9281 
  169400    312.25609   -8783.2341    45.608028   -8828.8421    521.36153 
  169600    252.00158   -8798.2119    36.807273   -8835.0192    22050.244 
  169800    339.09455   -8789.1805    49.528046   -8838.7085   -14277.307 
  170000    378.01019   -8773.4555    55.212053   -8828.6676    22678.978 
  170200    282.99117   -8792.9988    41.333603   -8834.3324    9006.2463 
  170400    275.69399   -8801.1825     40.26778   -8841.4503      -7660.7 
  170600    326.07395   -8786.2573    47.626261   -8833.8836   -19580.421 
  170800    322.13553   -8791.7725    47.051016   -8838.8235   -6868.1076 
  171000    286.18687   -8797.0734    41.800366   -8838.8737   -16227.545 
  171200    340.93228   -8778.6274    49.796464   -8828.4239   -366.05249 
  171400    309.27435   -8787.6405    45.172517   -8832.8131    37011.377 
  171600    242.84201   -8805.9556     35.46943   -8841.4251   -17954.871 
  171800    314.09724   -8797.2281    45.876946   -8843.1051    30152.293 
  172000     299.5331    -8785.696    43.749712   -8829.4457   -20545.226 
  172200    305.64097   -8781.0851    44.641826   -8825.7269   -2009.7563 
  172400    272.98957   -8796.6488    39.872773   -8836.5216    -4754.456 
  172600    305.12622   -8795.8151    44.566642   -8840.3817    43969.634 
  172800    295.50187    -8787.274    43.160913   -8830.4349     32701.23 
  173000    320.85762   -8788.8421    46.864365   -8835.7064   -24664.628 
  173200    278.11566   -8802.4145    40.621488    -8843.036   -26731.358 
  173400    348.88246   -8785.9434    50.957664    -8836.901   -4871.7212 
  173600    339.43273   -8784.5886     49.57744    -8834.166    8329.2451 
  173800    268.01614   -8802.2842    39.146355   -8841.4305    3862.2877 
  174000    288.89341   -8795.6948    42.195682   -8837.8905   -8141.6504 
  174200    313.08203   -8787.2982    45.728666   -8833.0269    31911.223 
  174400    362.65225    -8781.385    52.968877   -8834.3539   -30724.864 
  174600    273.32123   -8798.6549    39.921214   -8838.5761    34038.972 
  174800    327.37875   -8787.5551     47.81684   -8835.3719   -44699.481 
  175000     302.8071   -8785.2587    44.227912   -8829.4866    37989.467 
  175200    284.40534   -8798.3714    41.540156   -8839.9116   -11852.578 
  175400    315.43047   -8783.1053    46.071677   -8829.1769    9137.0109 
  175600    265.37179   -8790.3301    38.760122   -8829.0902    36932.105 
  175800     259.4628   -8798.2565    37.897057   -8836.1535    15678.701 
  176000    340.23773   -8787.0455    49.695018   -8836.7405   -9678.1584 
  176200    279.85391   -8788.8276    40.875376    -8829.703    285.96947 
  176400    302.85465   -8791.4772    44.234856    -8835.712    397.89336 
  176600    243.84444   -8803.5285    35.615844   -8839.1444   -18296.865 
  176800    343.07477   -8789.0903    50.109395   -8839.1997    10378.824 
  177000    279.07339   -8790.5704    40.761373   -8831.3317    -10642.56 
  177200    320.12377   -8787.5368    46.757179   -8834.2939   -497.18494 
  177400    323.58157   -8793.2978    47.262225     -8840.56   -13230.708 
  177600    301.17805   -8795.8475    43.989973   -8839.8375    20008.791 
  177800    352.06155   -8779.8763    51.422002   -8831.2984   -8942.0906 
  178000    335.27727   -8791.9598    48.970496   -8840.9303   -1855.3527 
  178200    281.53476   -8792.9983    41.120881   -8834.1191    12031.098 
  178400    301.46838   -8782.5068    44.032378   -8826.5392   -15655.245 
  178600    233.67943   -8801.4868    34.131146    -8835.618    6757.9591 
  178800    278.26408   -8787.3751    40.643165   -8828.0182    8427.3066 
  179000    293.59132   -8787.8239    42.881858   -8830.7057   -1494.4465 
  179200    219.24389   -8803.3171    32.022695   -8835.3398    24011.071 
  179400    314.49484   -8793.3879    45.935019   -8839.3229    45211.867 
  179600    300.75284   -8785.1449    43.927867   -8829.0727    7161.8129 
  179800    339.47156   -8787.0389    49.583112    -8836.622   -15900.115 
[...]
  950000    314.36788   -8793.8121    45.916475   -8839.7286    42720.594 
  950200    315.74612   -8791.4525    46.117781   -8837.5703     19983.52 
  950400    285.94642   -8775.4951    41.765246   -8817.2604   -69011.271 
  950600    313.68325   -8794.5407    45.816479   -8840.3572   -3669.7713 
  950800    314.26768   -8794.8113    45.901841   -8840.7132   -26545.126 
  951000    295.21133   -8782.0585    43.118476   -8825.1769    30372.235 
  951200    283.37938    -8780.201    41.390305   -8821.5913   -11753.549 
  951400    263.46823   -8796.8019    38.482089    -8835.284   -1355.2639 
  951600     288.0646   -8789.6779    42.074627   -8831.7526   -26947.445 
  951800    293.16831   -8775.3864    42.820073   -8818.2065    12636.581 
  952000    336.18605   -8792.4195    49.103232   -8841.5227   -35533.464 
  952200    290.78832   -8793.6928    42.472453   -8836.1653     31637.38 
  952400    358.43606   -8778.0339     52.35306    -8830.387   -15361.699 
  952600    347.97928   -8785.7962    50.825747    -8836.622    34250.362 
  952800     312.7575   -8794.4854    45.681264   -8840.1667   -35516.178 
  953000    318.88785   -8780.5366    46.576662   -8827.1133   -2628.3358 
  953200    359.46098   -8784.4259     52.50276   -8836.9287   -15409.809 
  953400    269.01513   -8792.8392    39.292267   -8832.1315    8394.4542 
  953600    331.38126   -8786.3907    48.401445   -8834.7921   -14164.906 
  953800     343.3022   -8778.9708    50.142613   -8829.1135   -38784.863 
  954000    295.41737   -8795.2978     43.14857   -8838.4464   -27034.304 
  954200    263.16724   -8794.2079    38.438126    -8832.646    16591.389 
  954400    318.42897   -8777.6278    46.509637   -8824.1375   -19776.521 
  954600    305.73771   -8790.1247    44.655956   -8834.7806   -14658.227 
  954800    277.57304   -8798.2124    40.542233   -8838.7546    -25451.36 
  955000    317.59383   -8792.8278    46.387657   -8839.2154    11840.326 
  955200    344.87161   -8781.9995    50.371842   -8832.3714    -5296.775 
  955400    378.60614   -8776.0956    55.299096   -8831.3947   -3658.7198 
  955600    282.54706   -8791.2395    41.268737   -8832.5082     -15063.8 
  955800    301.73325   -8791.4784    44.071065   -8835.5495    34703.874 
  956000    285.76859   -8779.8256    41.739272   -8821.5648   -526.99854 
  956200    327.39408    -8781.402    47.819078   -8829.2211     25555.45 
  956400    262.52767   -8794.5847    38.344711   -8832.9294    5482.3897 
  956600    270.54051   -8783.9801    39.515064   -8823.4951   -11844.294 
  956800    335.97861   -8784.0484    49.072933   -8833.1213    9549.2918 
  957000    275.08986   -8794.0644     40.17954   -8834.2439    1705.7849 
  957200     324.5564   -8781.3028    47.404608   -8828.7074    48049.439 
  957400    296.64271   -8790.8096    43.327543   -8834.1372   -17896.017 
  957600    271.32543   -8797.9409    39.629709   -8837.5706   -32589.221 
  957800    285.50785   -8783.6692    41.701189   -8825.3704   -20722.421 
  958000    277.71572   -8796.0675    40.563073   -8836.6306   -23446.228 
  958200    267.75536   -8798.2102    39.108265   -8837.3184    13722.823 
  958400    287.30485   -8785.1044    41.963658   -8827.0681    7016.0105 
  958600    259.48246   -8793.4913    37.899928   -8831.3912    1472.5769 
  958800    242.72316   -8800.4981    35.452071   -8835.9502    7883.4692 
  959000    292.58568   -8787.5081    42.734974   -8830.2431    582.74012 
  959200    284.14862   -8792.3332     41.50266   -8833.8359     2727.411 
  959400    304.39037    -8799.801    44.459164   -8844.2602   -8650.8829 
  959600    306.44262   -8791.3016    44.758915   -8836.0605    11906.403 
  959800    300.77885   -8781.9934    43.931666   -8825.9251    3810.8556 
  960000    277.16137   -8800.0669    40.482105    -8840.549   -13070.309 
  960200    328.01016   -8788.4942    47.909063   -8836.4033   -44200.979 
  960400    252.89993   -8785.0156    36.938486    -8821.954    60290.947 
  960600    258.45899     -8796.36    37.750441   -8834.1104    6849.6496 
  960800    304.56354   -8796.4915    44.484457    -8840.976     4620.062 
  961000    331.68014   -8784.6919      48.4451    -8833.137    34485.085 
  961200    271.36694   -8796.3309    39.635772   -8835.9667   -719.93872 
  961400    285.79628   -8783.8431    41.743317   -8825.5864   -3472.8325 
  961600    352.63782   -8784.6113    51.506171   -8836.1175    32122.937 
  961800    300.02989   -8792.9797    43.822274    -8836.802   -29234.804 
  962000    303.85105   -8781.9755    44.380391   -8826.3559   -27999.273 
  962200    365.64478    -8772.081    53.405964    -8825.487    14461.926 
  962400    268.42533   -8791.4125    39.206121   -8830.6187    8272.1291 
  962600    311.03396   -8793.5015    45.429525    -8838.931    40985.222 
  962800    346.70059   -8777.0863    50.638981   -8827.7253   -35490.361 
  963000    307.28275   -8791.0072    44.881624   -8835.8888    63391.415 
  963200    302.36653   -8792.5684    44.163563    -8836.732   -6024.3142 
  963400    292.09627    -8784.451    42.663491   -8827.1145   -12762.997 
  963600    306.09621   -8789.1158    44.708318   -8833.8241   -11246.406 
  963800    267.89267   -8796.0872    39.128321   -8835.2155   -24145.562 
  964000    326.20062   -8777.8217    47.644763   -8825.4664    9662.7006 
  964200     307.2949   -8786.6259    44.883399   -8831.5093    2918.5812 
  964400    283.47159   -8796.2574    41.403774   -8837.6611    30128.751 
  964600    287.71047   -8798.2285    42.022903   -8840.2514   -22055.263 
  964800    265.98591    -8784.189     38.84982   -8823.0388   -42755.589 
  965000    301.20848   -8789.6695    43.994418    -8833.664   -47588.883 
  965200    284.17576   -8798.8855    41.506624   -8840.3921    32386.999 
  965400    274.01392    -8785.186    40.022388   -8825.2084   -20301.538 
  965600    302.25222   -8789.0141    44.146866    -8833.161    70738.704 
  965800    296.56834    -8789.609     43.31668   -8832.9257    37655.609 
  966000    290.27319   -8788.5832    42.397213   -8830.9804    921.93927 
  966200    343.65926   -8783.7725    50.194765   -8833.9672    3768.6361 
  966400    345.04519    -8785.716    50.397194   -8836.1132    22369.565 
  966600    296.67799   -8797.6974    43.332696   -8841.0301   -3966.2955 
  966800    357.92282   -8779.9595    52.278097   -8832.2376   -25485.296 
  967000      301.206   -8779.1776    43.994056   -8823.1717    9280.6807 
  967200    302.09493   -8792.1518    44.123892   -8836.2757   -66876.092 
  967400    294.75693   -8798.6229    43.052107   -8841.6751    20427.017 
  967600    306.77175   -8777.3868    44.806987   -8822.1938   -58209.154 
  967800    278.83506   -8790.9513    40.726563   -8831.6779   -8776.0134 
  968000    287.36995   -8798.0566    41.973166   -8840.0297    5706.3609 
  968200    329.30088   -8789.7896    48.097585   -8837.8872   -9809.2967 
  968400    320.92011   -8783.4682    46.873492   -8830.3416   -20721.516 
  968600    247.84993   -8798.9158    36.200885   -8835.1167   -15800.183 
  968800    271.13243   -8792.7352     39.60152   -8832.3368    75671.383 
  969000    336.27334   -8784.3888    49.115981   -8833.5048    27041.166 
  969200    212.32477   -8796.2861    31.012091   -8827.2982   -15195.673 
  969400     251.2762   -8793.1976    36.701325    -8829.899    14836.959 
  969600    328.68751   -8779.3566    48.007997   -8827.3646   -38672.224 
  969800    252.31497   -8792.8707    36.853047   -8829.7237   -10463.306 
  970000    287.69349   -8793.3772    42.020423   -8835.3976     45869.39 
  970200    349.92161   -8784.7708    51.109442   -8835.8802    9391.9415 
  970400    304.62441   -8786.5273    44.493347   -8831.0206    66885.303 
  970600    291.02388    -8796.989    42.506859   -8839.4959   -16688.478 
  970800    341.08728   -8777.3369    49.819103    -8827.156     7150.282 
  971000     253.0231   -8791.9225    36.956476    -8828.879    -9069.692 
  971200    325.50931   -8790.4522    47.543789    -8837.996    6415.1057 
  971400    349.29507   -8779.7926     51.01793   -8830.8105     21149.54 
  971600    226.45564   -8795.7696    33.076041   -8828.8456   -6985.3574 
  971800    305.45841   -8785.5676    44.615162   -8830.1827    56845.244 
  972000    302.88026   -8786.8267    44.238597   -8831.0653    33991.129 
  972200    310.17743   -8784.2374     45.30442   -8829.5418    5535.7874 
  972400    287.04317   -8798.4072    41.925437   -8840.3326   -22836.747 
  972600    299.53008   -8795.4437    43.749271    -8839.193    15663.342 
  972800    330.81866   -8788.8841    48.319272   -8837.2034    1129.2311 
  973000    280.60032   -8791.5996    40.984396    -8832.584    2513.0702 
  973200     253.6596   -8793.8772    37.049443   -8830.9267    -4127.275 
  973400    292.41084   -8785.8494    42.709437   -8828.5589    10258.226 
  973600    259.06012   -8800.9625    37.838241   -8838.8008    6760.6012 
  973800    346.15767   -8781.3705    50.559683   -8831.9302     48137.85 
  974000    281.05082   -8794.6966    41.050196   -8835.7468    9815.7965 
  974200    353.37779    -8781.789    51.614251   -8833.4032   -33926.415 
  974400    343.75621   -8778.6189    50.208927   -8828.8279     64194.94 
  974600      310.706   -8789.9815    45.381623   -8835.3631   -35277.351 
  974800    309.43007   -8794.3143    45.195261   -8839.5096    44049.662 
  975000    327.86028   -8790.5101    47.887172   -8838.3973    12837.697 
  975200    330.20896   -8779.8086    48.230219   -8828.0388   -59206.049 
  975400    289.80155   -8799.3271    42.328326   -8841.6554    36108.847 
  975600    297.31184   -8790.4815    43.425276   -8833.9068   -39944.927 
  975800    294.90765   -8783.7191     43.07412   -8826.7932    7722.4645 
  976000    273.23306   -8791.8387    39.908337    -8831.747   -9788.9447 
  976200    383.24394   -8773.5352    55.976492   -8829.5117   -17502.213 
  976400    307.96063   -8782.7047    44.980634   -8827.6853   -13224.469 
  976600    277.61713   -8792.9831    40.548673   -8833.5318   -27494.775 
  976800    259.50603   -8803.6637    37.903371   -8841.5671    38501.422 
  977000    307.40797   -8791.0399    44.899913   -8835.9398    1222.4519 
  977200    309.99987   -8790.7915    45.278486     -8836.07   -42217.258 
  977400    336.76801   -8794.7776    49.188232   -8843.9658    616.07028 
  977600     332.2813    -8776.487    48.532904   -8825.0199   -16622.014 
  977800    275.33849    -8788.351    40.215855   -8828.5668    14590.134 
  978000     285.6523   -8790.8302    41.722287   -8832.5524    17979.238 
  978200    275.37369   -8793.6406    40.220997   -8833.8616   -1691.5973 
  978400    358.85852   -8778.6332    52.414765    -8831.048   -32821.211 
  978600    336.02428   -8790.8413    49.079603   -8839.9209   -32665.683 
  978800    294.65854   -8798.3601    43.037736   -8841.3979   -40543.249 
  979000    323.50187   -8784.8075    47.250584   -8832.0581   -13565.751 
  979200    292.99724   -8790.4887    42.795086   -8833.2838   -59406.441 
  979400    286.43859   -8797.6862    41.837133   -8839.5234    42016.686 
  979600    291.86883    -8793.935    42.630271   -8836.5653   -17191.974 
  979800    323.39644   -8781.2585    47.235184   -8828.4937    11387.345 
  980000    301.37321   -8789.2383    44.018478   -8833.2567    12950.108 
  980200    264.76267   -8792.8375    38.671154   -8831.5086   -23506.989 
  980400    312.90874   -8780.7778    45.703355   -8826.4812   -35610.998 
  980600    260.10136   -8795.8206    37.990324    -8833.811    48947.582 
  980800    250.89457   -8793.4916    36.645584   -8830.1372    26281.395 
  981000    329.78337   -8789.5479    48.168057   -8837.7159    29186.143 
  981200    272.35483   -8804.8388    39.780062   -8844.6189    16338.067 
  981400    300.79951   -8792.9423    43.934684    -8836.877    23922.412 
  981600     305.4736   -8789.2386     44.61738    -8833.856    25411.466 
  981800    293.51335   -8781.2905     42.87047    -8824.161    17616.722 
  982000    253.26116   -8796.6669    36.991247   -8833.6581   -16138.172 
  982200    345.79611    -8780.626    50.506874   -8831.1329    9731.6913 
  982400      319.639   -8782.0728    46.686374   -8828.7592   -12213.087 
  982600    310.05269   -8793.5481    45.286201   -8838.8343    64.506486 
  982800    280.61453   -8796.6478    40.986472   -8837.6342   -17541.912 
  983000    361.42139   -8785.3562    52.789098   -8838.1453   -8202.4052 
  983200     299.7638   -8796.1492    43.783409   -8839.9327   -4636.2278 
  983400     305.7426   -8790.2522     44.65667   -8834.9089    43064.387 
  983600    231.41372   -8803.0282    33.800217   -8836.8284    45052.971 
  983800    282.42137   -8789.8229    41.250378   -8831.0733    -19331.63 
  984000     232.2514   -8793.8364    33.922568   -8827.7589     7044.475 
  984200    356.61908   -8774.3248    52.087672   -8826.4125    23104.378 
  984400    244.70566   -8791.9476    35.741633   -8827.6892   -24678.813 
  984600     343.1647   -8782.5328     50.12253   -8832.6553    22946.556 
  984800    280.57538   -8795.3154    40.980754   -8836.2962     -14739.1 
  985000    284.12522   -8793.3439    41.499242   -8834.8432    36744.281 
  985200    284.20657   -8784.4685    41.511124   -8825.9796    8954.9816 
  985400    249.77426   -8804.6887    36.481952   -8841.1707   -13805.812 
  985600    287.37504   -8796.9219     41.97391   -8838.8958    39500.409 
  985800    268.95842   -8788.1861    39.283984   -8827.4701    7170.2128 
  986000     251.9566   -8791.8518    36.800704   -8828.6525   -7577.9767 
  986200    318.07555   -8787.9036    46.458018   -8834.3616   -5054.8337 
  986400    249.47359   -8792.9058    36.438036   -8829.3439   -24751.222 
  986600    280.56289   -8786.6502    40.978929   -8827.6292    -9873.959 
  986800    341.35701    -8783.189      49.8585   -8833.0475    -23745.68 
  987000    306.58481   -8792.5501    44.779682   -8837.3298    35870.082 
  987200    365.86338   -8777.0007    53.437892   -8830.4386    2866.7232 
  987400    282.19383    -8794.512    41.217144   -8835.7291    -7115.054 
  987600     300.4609   -8793.0623    43.885227   -8836.9475   -171.64608 
  987800    337.94783   -8779.7566    49.360557   -8829.1171    14372.375 
  988000    286.98742   -8793.4253    41.917294   -8835.3426    14125.384 
  988200    372.05741   -8790.5348    54.342591   -8844.8774    34344.222 
  988400    331.81488   -8777.0647     48.46478   -8825.5294   -3389.1752 
  988600    294.63022   -8789.3621    43.033599   -8832.3957   -1780.9037 
  988800    322.80453   -8791.6295    47.148731   -8838.7782    2248.7888 
  989000    282.99641   -8791.6581    41.334368   -8832.9924    14805.846 
  989200    351.33658   -8780.1657    51.316113   -8831.4818     5903.082 
  989400    296.01377      -8794.3     43.23568   -8837.5357   -3551.4176 
  989600     300.7557   -8790.3405    43.928285   -8834.2688   -25056.478 
  989800    252.54005   -8804.0864    36.885923   -8840.9724   -27897.283 
  990000    309.16889   -8789.0612    45.157114   -8834.2183    15510.588 
  990200    326.96203   -8790.4683    47.755974   -8838.2242   -44543.492 
  990400    245.51583   -8802.9482    35.859967   -8838.8081    6876.2088 
  990600    280.30382   -8789.0638     40.94109   -8830.0049    65255.387 
  990800    285.13226   -8782.3071     41.64633   -8823.9534    19699.616 
  991000    250.51972   -8797.7033    36.590833   -8834.2941     1378.523 
  991200    309.28452   -8793.7389    45.174001   -8838.9129   -28494.514 
  991400     293.3666   -8787.4562    42.849036   -8830.3052   -20337.442 
  991600    293.62466   -8793.0158    42.886727   -8835.9025   -9527.1574 
  991800    284.47853   -8794.6145    41.550846   -8836.1654   -7140.6599 
  992000    367.01616   -8778.2788    53.606267   -8831.8851   -17644.122 
  992200    301.15139    -8786.766    43.986079   -8830.7521    41626.834 
  992400    280.17575   -8790.4213    40.922384   -8831.3437    21762.812 
  992600    339.00171   -8778.2061    49.514485   -8827.7206   -40120.701 
  992800    250.66835   -8794.0054    36.612542    -8830.618    33408.172 
  993000    329.05201   -8789.5332    48.061236   -8837.5944    26962.174 
  993200    320.27654   -8779.7374    46.779493   -8826.5169    35521.968 
  993400    292.73851   -8797.4965    42.757297   -8840.2538    5681.0747 
  993600    323.83184    -8789.381     47.29878   -8836.6797     -53826.8 
  993800    338.18577   -8780.7619    49.395309   -8830.1572    904.97146 
  994000    326.01091   -8787.0678    47.617054   -8834.6848    899.93277 
  994200    288.87254   -8790.8843    42.192634   -8833.0769    15526.852 
  994400    250.88542   -8803.9187    36.644248   -8840.5629   -10659.896 
  994600    299.30804   -8787.4241     43.71684   -8831.1409    51711.817 
  994800    268.51947   -8791.4683    39.219871   -8830.6882    -3745.585 
  995000    294.28492    -8795.427    42.983164   -8838.4102   -18384.755 
  995200    344.28673   -8787.8079    50.286413   -8838.0943    24586.213 
  995400    312.09708   -8780.7941    45.584804   -8826.3789    10294.161 
  995600    274.53005   -8798.7694    40.097774   -8838.8671    14236.963 
  995800    278.85017   -8787.8274    40.728771   -8828.5562   -20245.454 
  996000    307.76176   -8785.7618    44.951588   -8830.7134   -36635.062 
  996200    341.85143    -8791.168    49.930715   -8841.0987   -1868.9869 
  996400    232.07534   -8798.2872    33.896853   -8832.1841    9298.7923 
  996600    268.15637   -8785.8437    39.166836   -8825.0106   -15042.383 
  996800    329.93006   -8779.9538    48.189483   -8828.1433    46451.434 
  997000    273.04956   -8793.9075    39.881535   -8833.7891    7905.9221 
  997200    325.47874   -8792.5526    47.539324   -8840.0919   -11759.335 
  997400    320.85168   -8785.5032    46.863498   -8832.3667   -22374.276 
  997600    264.62993   -8788.3274    38.651766   -8826.9791    28938.386 
  997800    247.79797   -8799.6807    36.193295    -8835.874    15019.332 
  998000    324.86015   -8785.8566    47.448973   -8833.3056   -15150.958 
  998200    343.34643   -8787.3041    50.149074   -8837.4532   -5333.8411 
  998400    284.74284   -8788.3126    41.589452   -8829.9021    15984.609 
  998600    312.35291   -8780.9169     45.62217   -8826.5391    16079.796 
  998800    261.03023   -8797.8052    38.125995   -8835.9312    8716.6588 
  999000     293.2217   -8789.7777    42.827872   -8832.6055   -635.36356 
  999200    284.51613   -8791.8019    41.556338   -8833.3582    7752.5809 
  999400    302.97729   -8791.1703     44.25277   -8835.4231     -26229.7 
  999600    344.15282   -8788.0416    50.266855   -8838.3085    31343.972 
  999800    293.70501   -8791.9751    42.898464   -8834.8736    7605.6239 
 1000000    300.14879   -8793.2026    43.839639   -8837.0422   -21552.469 
Loop time of 4328.55 on 8 procs for 1000000 steps with 50 atoms

Performance: 4.990 ns/day, 4.810 hours/ns, 231.024 timesteps/s
99.1% CPU use with 8 MPI tasks x no OpenMP threads

MPI task timing breakdown:
Section |  min time  |  avg time  |  max time  |%varavg| %total
---------------------------------------------------------------
Pair    | 3783.7     | 3844       | 3909.3     |  57.1 | 88.81
Neigh   | 3.4577     | 3.5193     | 3.5684     |   2.1 |  0.08
Comm    | 58.787     | 124.55     | 184.74     | 317.2 |  2.88
Output  | 0.092342   | 0.10268    | 0.16661    |   7.5 |  0.00
Modify  | 352.29     | 353        | 353.41     |   2.1 |  8.16
Other   |            | 3.365      |            |       |  0.08

Nlocal:    6.25 ave 7 max 5 min
Histogram: 1 0 0 0 0 4 0 0 0 3
Nghost:    923 ave 944 max 909 min
Histogram: 2 1 1 1 0 1 0 1 0 1
Neighs:    1770.12 ave 1985 max 1428 min
Histogram: 1 0 0 0 3 1 0 0 0 3

Total # of neighbors = 14161
Ave neighs/atom = 283.22
Neighbor list builds = 1537
Dangerous builds = 0

unfix 1
unfix output
undump 1

Please see the log.cite file for references relevant to this simulation

Total wall time: 1:12:19
