ITEM: TIMESTEP
0
ITEM: NUMBER OF ATOMS
50
ITEM: BOX BOUNDS pp pp pp
0.0000000000000000e+00 1.1000000000000000e+01
0.0000000000000000e+00 1.1002000000000001e+01
0.0000000000000000e+00 1.1000000000000000e+01
ITEM: ATOMS id type x y z 
10 1 4.603 4.603 4.603 
11 1 3.085 3.085 3.085 
12 1 3.796 3.796 3.796 
46 1 0.726 0.725 0.725 
47 1 2.26 2.259 2.26 
48 1 1.551 1.55 1.55 
19 1 4.546 4.545 6.226 
20 1 3.013 3.013 7.764 
21 1 3.721 3.721 7.053 
31 1 0.668 0.667 10.103 
32 1 2.187 2.187 8.589 
33 1 1.476 1.475 9.298 
16 1 4.546 6.225 4.546 
17 1 3.013 7.765 3.013 
18 1 3.721 7.053 3.722 
25 1 0.668 10.103 0.668 
26 1 2.188 8.589 2.188 
27 1 1.476 9.298 1.476 
4 1 4.608 6.169 6.169 
5 1 3.086 7.684 7.684 
6 1 3.799 6.974 6.974 
37 1 0.729 10.046 10.046 
38 1 2.259 8.509 8.508 
39 1 1.552 9.219 9.219 
49 2 0.716 8.745 10.404 
50 3 0.716 7.769 10.404 
13 1 6.225 4.546 4.546 
14 1 7.764 3.013 3.013 
15 1 7.053 3.721 3.722 
28 1 10.102 0.667 0.668 
29 1 8.589 2.187 2.188 
30 1 9.298 1.475 1.476 
1 1 6.168 4.608 6.169 
2 1 7.684 3.086 7.684 
3 1 6.974 3.799 6.974 
40 1 10.045 0.728 10.046 
41 1 8.508 2.259 8.508 
42 1 9.218 1.551 9.218 
7 1 6.169 6.169 4.608 
8 1 7.684 7.684 3.086 
9 1 6.974 6.974 3.799 
43 1 10.046 10.047 0.729 
44 1 8.508 8.509 2.259 
45 1 9.219 9.219 1.552 
22 1 6.229 6.229 6.229 
23 1 7.764 7.765 7.765 
24 1 7.055 7.056 7.055 
34 1 10.108 10.108 10.107 
35 1 8.59 8.59 8.59 
36 1 9.301 9.301 9.3 
ITEM: TIMESTEP
10
ITEM: NUMBER OF ATOMS
50
ITEM: BOX BOUNDS pp pp pp
0.0000000000000000e+00 1.1000000000000000e+01
0.0000000000000000e+00 1.1002000000000001e+01
0.0000000000000000e+00 1.1000000000000000e+01
ITEM: ATOMS id type x y z 
10 1 4.60085 4.60461 4.60209 
11 1 3.08104 3.08391 3.07942 
12 1 3.78887 3.78364 3.79224 
46 1 0.741145 0.732311 0.740506 
47 1 2.27328 2.27431 2.27357 
48 1 1.56801 1.56249 1.56582 
19 1 4.53534 4.53336 6.23567 
20 1 2.9989 2.99988 7.77629 
21 1 3.70972 3.70844 7.0676 
31 1 0.682283 0.707061 10.0871 
32 1 2.19835 2.20225 8.57858 
33 1 1.49286 1.48273 9.27931 
16 1 4.53556 6.23723 4.53297 
17 1 2.99999 7.77861 2.99923 
18 1 3.70512 7.06703 3.7078 
25 1 0.678649 10.1126 0.730917 
26 1 2.19617 8.57703 2.19816 
27 1 1.49326 9.29477 1.4916 
4 1 4.59958 6.17397 6.17448 
5 1 3.08411 7.68107 7.68311 
6 1 3.80453 6.97343 6.97542 
37 1 0.724299 10.0788 10.0544 
38 1 2.30821 8.47192 8.45929 
39 1 1.64161 9.3057 9.08172 
49 2 0.634884 8.64062 10.481 
50 3 0.697763 7.71749 10.4481 
13 1 6.23668 4.53527 4.53425 
14 1 7.7777 2.99939 2.99834 
15 1 7.06873 3.70495 3.70812 
28 1 10.0954 0.676186 0.67759 
29 1 8.585 2.19605 2.19703 
30 1 9.28072 1.48262 1.48357 
1 1 6.1694 4.60821 6.16835 
2 1 7.69017 3.08179 7.68548 
3 1 6.97762 3.79126 6.98686 
40 1 10.0314 0.740461 10.0319 
41 1 8.49512 2.27341 8.49559 
42 1 9.20544 1.56095 9.20405 
7 1 6.168 6.16901 4.60631 
8 1 7.68653 7.68669 3.07915 
9 1 6.98472 6.9849 3.79613 
43 1 10.038 10.0323 0.742557 
44 1 8.49445 8.49619 2.27221 
45 1 9.20834 9.20566 1.56378 
22 1 6.24091 6.23902 6.24021 
23 1 7.77623 7.77712 7.77854 
24 1 7.06799 7.06909 7.06596 
34 1 10.0624 10.1048 10.0897 
35 1 8.5753 8.57888 8.57989 
36 1 9.29337 9.28546 9.28201 
ITEM: TIMESTEP
20
ITEM: NUMBER OF ATOMS
50
ITEM: BOX BOUNDS pp pp pp
0.0000000000000000e+00 1.1000000000000000e+01
0.0000000000000000e+00 1.1002000000000001e+01
0.0000000000000000e+00 1.1000000000000000e+01
ITEM: ATOMS id type x y z 
10 1 4.59993 4.59471 4.59136 
11 1 3.08293 3.08458 3.08475 
12 1 3.79503 3.79184 3.79139 
46 1 0.732516 0.739315 0.759235 
47 1 2.27907 2.27718 2.27589 
48 1 1.56632 1.56775 1.57171 
19 1 4.53747 4.52846 6.23392 
20 1 3.0048 3.00655 7.77088 
21 1 3.71466 3.71067 7.06275 
31 1 0.676083 0.747509 10.0916 
32 1 2.20722 2.19662 8.57039 
33 1 1.48627 1.50899 9.2831 
16 1 4.53873 6.23594 4.52787 
17 1 3.00253 7.77506 3.00237 
18 1 3.70782 7.06361 3.70725 
25 1 0.666028 10.125 0.740086 
26 1 2.20243 8.57577 2.19067 
27 1 1.48268 9.30578 1.51224 
4 1 4.60976 6.16513 6.16011 
5 1 3.08436 7.67459 7.68258 
6 1 3.80594 6.97345 6.97794 
37 1 0.776632 10.1977 9.96449 
38 1 2.29016 8.5144 8.469 
39 1 1.62659 9.33026 9.10017 
49 2 0.62951 8.4712 10.492 
50 3 0.67961 7.61056 10.4911 
13 1 6.23635 4.53726 4.53539 
14 1 7.77508 3.00193 3.00132 
15 1 7.06774 3.70666 3.709 
28 1 10.0858 0.672353 0.680201 
29 1 8.58421 2.19271 2.19524 
30 1 9.28662 1.48314 1.48177 
1 1 6.18086 4.59718 6.17238 
2 1 7.68691 3.08275 7.68826 
3 1 6.98025 3.79287 6.97788 
40 1 10.014 0.743534 10.0426 
41 1 8.49704 2.2711 8.49384 
42 1 9.20086 1.56686 9.20714 
7 1 6.17874 6.17343 4.59728 
8 1 7.68757 7.68923 3.08302 
9 1 6.9809 6.97836 3.79028 
43 1 10.046 10.0395 0.736657 
44 1 8.49924 8.50062 2.26711 
45 1 9.21145 9.20856 1.5622 
22 1 6.2464 6.23705 6.23677 
23 1 7.7711 7.7727 7.77433 
24 1 7.06731 7.0652 7.0633 
34 1 10.0558 10.1119 10.1006 
35 1 8.58277 8.57257 8.57465 
36 1 9.27587 9.29486 9.28802 
ITEM: TIMESTEP
30
ITEM: NUMBER OF ATOMS
50
ITEM: BOX BOUNDS pp pp pp
0.0000000000000000e+00 1.1000000000000000e+01
0.0000000000000000e+00 1.1002000000000001e+01
0.0000000000000000e+00 1.1000000000000000e+01
ITEM: ATOMS id type x y z 
10 1 4.60186 4.59923 4.5853 
11 1 3.08685 3.08626 3.08807 
12 1 3.79751 3.79699 3.7909 
46 1 0.723801 0.73428 0.783004 
47 1 2.28363 2.28207 2.27441 
48 1 1.56441 1.56826 1.58722 
19 1 4.54435 4.53713 6.22936 
20 1 3.01475 3.01302 7.76359 
21 1 3.72128 3.7177 7.05192 
31 1 0.658787 0.767514 10.1101 
32 1 2.21335 2.19961 8.56042 
33 1 1.48554 1.53432 9.29047 
16 1 4.5412 6.23526 4.53088 
17 1 3.00055 7.77391 3.00021 
18 1 3.70978 7.06663 3.70375 
25 1 0.671357 10.1299 0.681033 
26 1 2.18489 8.59515 2.18823 
27 1 1.47898 9.3115 1.48691 
4 1 4.60684 6.18198 6.16815 
5 1 3.08377 7.67675 7.68869 
6 1 3.79536 6.97699 6.9779 
37 1 0.772643 10.1926 9.95037 
38 1 2.28151 8.54811 8.47167 
39 1 1.61696 9.3515 9.11263 
49 2 0.611378 8.38611 10.5328 
50 3 0.669701 7.48202 10.5174 
13 1 6.2427 4.5347 4.5308 
14 1 7.77623 3.00015 3.00131 
15 1 7.06815 3.70859 3.70697 
28 1 10.0876 0.67463 0.680726 
29 1 8.58469 2.1909 2.19047 
30 1 9.29045 1.478 1.48513 
1 1 6.18872 4.59982 6.17183 
2 1 7.68434 3.08482 7.68489 
3 1 6.97975 3.7954 6.97516 
40 1 9.98253 0.739272 10.0528 
41 1 8.49436 2.2809 8.48553 
42 1 9.184 1.56842 9.20648 
7 1 6.17811 6.17589 4.59537 
8 1 7.68808 7.68876 3.08143 
9 1 6.98176 6.98086 3.78987 
43 1 10.0619 10.0226 0.71743 
44 1 8.50127 8.50269 2.26638 
45 1 9.2115 9.20646 1.56216 
22 1 6.24268 6.23674 6.23091 
23 1 7.77377 7.77408 7.77362 
24 1 7.07001 7.06437 7.06753 
34 1 10.1055 10.1208 10.0955 
35 1 8.59149 8.58844 8.59011 
36 1 9.29332 9.30301 9.29622 
ITEM: TIMESTEP
40
ITEM: NUMBER OF ATOMS
50
ITEM: BOX BOUNDS pp pp pp
0.0000000000000000e+00 1.1000000000000000e+01
0.0000000000000000e+00 1.1002000000000001e+01
0.0000000000000000e+00 1.1000000000000000e+01
ITEM: ATOMS id type x y z 
10 1 4.60868 4.60599 4.58787 
11 1 3.09333 3.08472 3.08987 
12 1 3.79367 3.80727 3.79028 
46 1 0.721689 0.742122 0.77176 
47 1 2.28128 2.27866 2.2773 
48 1 1.56279 1.57009 1.58416 
19 1 4.54477 4.54645 6.22769 
20 1 3.01486 3.00964 7.76136 
21 1 3.72131 3.71845 7.05497 
31 1 0.65329 0.764159 10.1129 
32 1 2.20514 2.20125 8.57125 
33 1 1.47787 1.52957 9.2939 
16 1 4.53901 6.24261 4.53133 
17 1 2.99527 7.77635 2.9959 
18 1 3.70789 7.07402 3.70065 
25 1 0.680722 10.1245 0.664609 
26 1 2.18146 8.59895 2.18777 
27 1 1.4813 9.31284 1.47811 
4 1 4.60685 6.18743 6.16723 
5 1 3.07912 7.68087 7.69176 
6 1 3.79234 6.98258 6.98114 
37 1 0.769424 10.1759 9.96806 
38 1 2.28798 8.56043 8.46409 
39 1 1.6237 9.36628 9.10097 
49 2 0.594808 8.34254 10.5527 
50 3 0.662744 7.43735 10.5306 
13 1 6.24535 4.53854 4.5302 
14 1 7.77817 2.99785 3.00184 
15 1 7.06867 3.71006 3.70208 
28 1 10.0856 0.664005 0.683831 
29 1 8.58667 2.19018 2.19057 
30 1 9.28742 1.47386 1.48415 
1 1 6.18502 4.60934 6.16764 
2 1 7.68169 3.08656 7.68179 
3 1 6.98123 3.80003 6.97189 
40 1 9.99242 0.747669 10.0572 
41 1 8.49245 2.27577 8.48756 
42 1 9.18656 1.57204 9.21064 
7 1 6.17127 6.17993 4.59558 
8 1 7.68584 7.69183 3.07666 
9 1 6.99049 6.98154 3.7933 
43 1 10.062 10.0189 0.71856 
44 1 8.50247 8.50912 2.26624 
45 1 9.2197 9.19898 1.55391 
22 1 6.24253 6.24404 6.23348 
23 1 7.77767 7.77475 7.77813 
24 1 7.07165 7.0707 7.06771 
34 1 10.1143 10.1163 10.0876 
35 1 8.58891 8.59151 8.59303 
36 1 9.30457 9.30041 9.29218 
ITEM: TIMESTEP
50
ITEM: NUMBER OF ATOMS
50
ITEM: BOX BOUNDS pp pp pp
0.0000000000000000e+00 1.1000000000000000e+01
0.0000000000000000e+00 1.1002000000000001e+01
0.0000000000000000e+00 1.1000000000000000e+01
ITEM: ATOMS id type x y z 
10 1 4.60592 4.61242 4.58801 
11 1 3.09077 3.08952 3.08937 
12 1 3.80073 3.80068 3.79141 
46 1 0.722002 0.743798 0.769502 
47 1 2.28132 2.27808 2.27936 
48 1 1.56273 1.57141 1.58371 
19 1 4.54463 4.54855 6.22824 
20 1 3.0157 3.00895 7.76114 
21 1 3.72052 3.71868 7.05457 
31 1 0.650747 0.763543 10.1143 
32 1 2.20355 2.20418 8.57281 
33 1 1.47751 1.5292 9.29421 
16 1 4.53995 6.24566 4.53096 
17 1 2.99537 7.77785 2.99504 
18 1 3.70531 7.07405 3.70069 
25 1 0.683639 10.1257 0.660656 
26 1 2.181 8.60092 2.18755 
27 1 1.48171 9.31209 1.47449 
4 1 4.60626 6.18807 6.16756 
5 1 3.07874 7.68189 7.69263 
6 1 3.79166 6.98419 6.98051 
37 1 0.769852 10.173 9.97015 
38 1 2.28989 8.56652 8.46063 
39 1 1.62457 9.36945 9.10013 
49 2 0.58878 8.32407 10.5599 
50 3 0.659905 7.4181 10.5355 
13 1 6.24401 4.54204 4.52885 
14 1 7.77668 2.99904 3.00073 
15 1 7.07025 3.71016 3.70515 
28 1 10.0847 0.6606 0.684453 
29 1 8.58616 2.18911 2.19042 
30 1 9.2882 1.47309 1.48499 
1 1 6.18421 4.61114 6.16709 
2 1 7.68112 3.08728 7.68072 
3 1 6.98145 3.80113 6.97101 
40 1 9.99514 0.748844 10.0568 
41 1 8.49157 2.27583 8.48782 
42 1 9.1855 1.57207 9.21133 
7 1 6.17516 6.18009 4.59735 
8 1 7.69043 7.69116 3.07907 
9 1 6.98295 6.9853 3.78843 
43 1 10.0638 10.0158 0.715937 
44 1 8.50358 8.50796 2.26492 
45 1 9.21974 9.19988 1.55391 
22 1 6.24226 6.24627 6.233 
23 1 7.77869 7.77522 7.7793 
24 1 7.07194 7.07258 7.06829 
34 1 10.1185 10.1161 10.0867 
35 1 8.59096 8.59058 8.59369 
36 1 9.30422 9.30307 9.29099 
ITEM: TIMESTEP
60
ITEM: NUMBER OF ATOMS
50
ITEM: BOX BOUNDS pp pp pp
0.0000000000000000e+00 1.1000000000000000e+01
0.0000000000000000e+00 1.1002000000000001e+01
0.0000000000000000e+00 1.1000000000000000e+01
ITEM: ATOMS id type x y z 
10 1 4.60833 4.62102 4.59136 
11 1 3.0965 3.08979 3.09201 
12 1 3.80111 3.80986 3.78995 
46 1 0.721657 0.750909 0.762886 
47 1 2.27967 2.27632 2.28565 
48 1 1.562 1.57631 1.58361 
19 1 4.54262 4.55659 6.22817 
20 1 3.01812 3.00629 7.75803 
21 1 3.72066 3.72146 7.05598 
31 1 0.645587 0.761704 10.1154 
32 1 2.19579 2.21424 8.57841 
33 1 1.47489 1.53399 9.29961 
16 1 4.53909 6.25568 4.5308 
17 1 2.99046 7.78137 2.99171 
18 1 3.70304 7.08219 3.7001 
25 1 0.695719 10.1274 0.641758 
26 1 2.17938 8.60408 2.18293 
27 1 1.48746 9.31712 1.465 
4 1 4.60498 6.19406 6.16659 
5 1 3.07779 7.69113 7.69166 
6 1 3.78905 6.98998 6.98179 
37 1 0.773242 10.159 9.97909 
38 1 2.2985 8.59338 8.44542 
39 1 1.62703 9.37899 9.10012 
49 2 0.560742 8.23752 10.5936 
50 3 0.646775 7.32735 10.5572 
13 1 6.24322 4.55236 4.52771 
14 1 7.7759 3.0016 3.00172 
15 1 7.07077 3.71475 3.70503 
28 1 10.0868 0.648497 0.686453 
29 1 8.58588 2.18656 2.19275 
30 1 9.28192 1.46486 1.48771 
1 1 6.18319 4.62112 6.16356 
2 1 7.68219 3.09046 7.67383 
3 1 6.97684 3.80564 6.97155 
40 1 10.0007 0.753771 10.0573 
41 1 8.48445 2.27486 8.49018 
42 1 9.18412 1.57593 9.21202 
7 1 6.17224 6.18914 4.59653 
8 1 7.69363 7.69596 3.07607 
9 1 6.98364 6.99233 3.78507 
43 1 10.07 10.01 0.709383 
44 1 8.50948 8.50577 2.26148 
45 1 9.22445 9.19813 1.54906 
22 1 6.24134 6.2556 6.23276 
23 1 7.78102 7.77689 7.78307 
24 1 7.07174 7.07912 7.07019 
34 1 10.1309 10.1192 10.0808 
35 1 8.59454 8.59216 8.59448 
36 1 9.31481 9.30255 9.28651 
ITEM: TIMESTEP
70
ITEM: NUMBER OF ATOMS
50
ITEM: BOX BOUNDS pp pp pp
0.0000000000000000e+00 1.1000000000000000e+01
0.0000000000000000e+00 1.1002000000000001e+01
0.0000000000000000e+00 1.1000000000000000e+01
ITEM: ATOMS id type x y z 
10 1 4.60779 4.62254 4.5899 
11 1 3.09596 3.09163 3.0913 
12 1 3.80278 3.80723 3.79167 
46 1 0.721133 0.751958 0.761921 
47 1 2.2794 2.27702 2.28563 
48 1 1.5621 1.57502 1.5844 
19 1 4.54309 4.55751 6.22876 
20 1 3.01799 3.00663 7.75898 
21 1 3.72042 3.72072 7.05461 
31 1 0.646507 0.761509 10.1163 
32 1 2.19662 2.21443 8.57984 
33 1 1.47211 1.53552 9.29793 
16 1 4.53927 6.25696 4.53111 
17 1 2.99074 7.78223 2.99229 
18 1 3.70234 7.08126 3.69943 
25 1 0.696739 10.1283 0.641961 
26 1 2.17966 8.6051 2.18267 
27 1 1.48739 9.31626 1.46331 
4 1 4.60442 6.19398 6.16798 
5 1 3.07755 7.6908 7.6908 
6 1 3.79019 6.99205 6.98 
37 1 0.773103 10.1586 9.97923 
38 1 2.30012 8.59547 8.44559 
39 1 1.62601 9.3783 9.10076 
49 2 0.558778 8.23129 10.5958 
50 3 0.645848 7.32068 10.5585 
13 1 6.24331 4.55311 4.52824 
14 1 7.77524 3.00226 3.00275 
15 1 7.07035 3.71584 3.70468 
28 1 10.0845 0.648242 0.686501 
29 1 8.58433 2.18404 2.19213 
30 1 9.28564 1.46658 1.48819 
1 1 6.18194 4.62178 6.16426 
2 1 7.68038 3.09044 7.67498 
3 1 6.97978 3.80644 6.96862 
40 1 10.0019 0.75389 10.0574 
41 1 8.48486 2.27519 8.49082 
42 1 9.18344 1.57455 9.21234 
7 1 6.17317 6.18989 4.5961 
8 1 7.69309 7.69569 3.07634 
9 1 6.98349 6.99238 3.78576 
43 1 10.0697 10.0108 0.709026 
44 1 8.51002 8.50656 2.26056 
45 1 9.22611 9.19722 1.54825 
22 1 6.24051 6.25631 6.23226 
23 1 7.78022 7.77729 7.78285 
24 1 7.07229 7.07801 7.06996 
34 1 10.1314 10.119 10.0794 
35 1 8.5969 8.5917 8.59438 
36 1 9.31338 9.30481 9.28744 
ITEM: TIMESTEP
80
ITEM: NUMBER OF ATOMS
50
ITEM: BOX BOUNDS pp pp pp
0.0000000000000000e+00 1.1000000000000000e+01
0.0000000000000000e+00 1.1002000000000001e+01
0.0000000000000000e+00 1.1000000000000000e+01
ITEM: ATOMS id type x y z 
10 1 4.60658 4.6261 4.58769 
11 1 3.0983 3.09273 3.0931 
12 1 3.80387 3.81201 3.79113 
46 1 0.719526 0.756606 0.759237 
47 1 2.27774 2.27655 2.28878 
48 1 1.56047 1.57723 1.5866 
19 1 4.54339 4.56183 6.22772 
20 1 3.01879 3.00931 7.75908 
21 1 3.72196 3.72216 7.05282 
31 1 0.648083 0.762023 10.1154 
32 1 2.19127 2.2238 8.5833 
33 1 1.46891 1.5409 9.29905 
16 1 4.5373 6.26036 4.5307 
17 1 2.98862 7.78368 2.99204 
18 1 3.70351 7.08815 3.70275 
25 1 0.707488 10.1335 0.630257 
26 1 2.18876 8.60807 2.17007 
27 1 1.47969 9.31761 1.4675 
4 1 4.60117 6.19694 6.16853 
5 1 3.0777 7.70213 7.68181 
6 1 3.79674 6.99963 6.98109 
37 1 0.771629 10.1512 9.98379 
38 1 2.30819 8.61921 8.4331 
39 1 1.62119 9.36774 9.11492 
49 2 0.536785 8.16198 10.6211 
50 3 0.635357 7.24648 10.5728 
13 1 6.24291 4.56204 4.52861 
14 1 7.77387 3.00389 3.0034 
15 1 7.07044 3.72011 3.70436 
28 1 10.0834 0.652459 0.691476 
29 1 8.58164 2.17708 2.19573 
30 1 9.28428 1.46305 1.48967 
1 1 6.18414 4.62894 6.16261 
2 1 7.6801 3.09224 7.67169 
3 1 6.97778 3.8096 6.96782 
40 1 10.0056 0.753658 10.0552 
41 1 8.48058 2.27525 8.49554 
42 1 9.18249 1.5745 9.21203 
7 1 6.17717 6.19767 4.59428 
8 1 7.694 7.69722 3.07396 
9 1 6.98464 6.99986 3.78789 
43 1 10.0738 10.0146 0.704609 
44 1 8.51766 8.50525 2.25371 
45 1 9.23355 9.19694 1.54146 
22 1 6.23935 6.26062 6.22883 
23 1 7.78109 7.77658 7.7814 
24 1 7.06841 7.08206 7.07247 
34 1 10.1274 10.1249 10.0762 
35 1 8.60088 8.59344 8.59561 
36 1 9.32582 9.30505 9.28114 
ITEM: TIMESTEP
90
ITEM: NUMBER OF ATOMS
50
ITEM: BOX BOUNDS pp pp pp
0.0000000000000000e+00 1.1000000000000000e+01
0.0000000000000000e+00 1.1002000000000001e+01
0.0000000000000000e+00 1.1000000000000000e+01
ITEM: ATOMS id type x y z 
10 1 4.60808 4.63518 4.58691 
11 1 3.09969 3.09457 3.09342 
12 1 3.80439 3.81433 3.79149 
46 1 0.718626 0.766043 0.75547 
47 1 2.27651 2.27714 2.29594 
48 1 1.55979 1.58172 1.5871 
19 1 4.54427 4.56524 6.22583 
20 1 3.01994 3.01341 7.75835 
21 1 3.72242 3.72561 7.05283 
31 1 0.648143 0.762087 10.1143 
32 1 2.18525 2.23831 8.58575 
33 1 1.46707 1.54862 9.30031 
16 1 4.53816 6.26852 4.533 
17 1 2.98946 7.79056 2.99333 
18 1 3.70087 7.08983 3.70105 
25 1 0.709345 10.137 0.627667 
26 1 2.1918 8.60776 2.16564 
27 1 1.49152 9.32151 1.45714 
4 1 4.6007 6.19801 6.17045 
5 1 3.08481 7.72369 7.6748 
6 1 3.79225 7.01097 6.97279 
37 1 0.773573 10.1404 9.98906 
38 1 2.31916 8.64503 8.41791 
39 1 1.6167 9.35027 9.12966 
49 2 0.50758 8.0661 10.6542 
50 3 0.620805 7.14913 10.5916 
13 1 6.24503 4.57171 4.5257 
14 1 7.77124 3.00651 3.00517 
15 1 7.06957 3.7262 3.7043 
28 1 10.0855 0.653352 0.690883 
29 1 8.57372 2.17092 2.20376 
30 1 9.28045 1.46249 1.49605 
1 1 6.18339 4.6339 6.16013 
2 1 7.67829 3.09394 7.66994 
3 1 6.97941 3.81317 6.96565 
40 1 10.01 0.758839 10.0522 
41 1 8.47306 2.27619 8.49812 
42 1 9.18006 1.57813 9.2128 
7 1 6.17637 6.2071 4.59324 
8 1 7.69997 7.70614 3.06934 
9 1 6.98899 7.00725 3.78214 
43 1 10.0765 10.0183 0.702677 
44 1 8.52648 8.49896 2.24605 
45 1 9.23895 9.19689 1.53683 
22 1 6.23699 6.27007 6.22981 
23 1 7.78127 7.78011 7.78599 
24 1 7.07108 7.08577 7.07058 
34 1 10.1324 10.1303 10.0698 
35 1 8.61158 8.58912 8.58756 
36 1 9.32278 9.30848 9.27918 
ITEM: TIMESTEP
100
ITEM: NUMBER OF ATOMS
50
ITEM: BOX BOUNDS pp pp pp
0.0000000000000000e+00 1.1000000000000000e+01
0.0000000000000000e+00 1.1002000000000001e+01
0.0000000000000000e+00 1.1000000000000000e+01
ITEM: ATOMS id type x y z 
10 1 4.60866 4.63524 4.58706 
11 1 3.09954 3.09481 3.0939 
12 1 3.80466 3.81459 3.79154 
46 1 0.719189 0.766506 0.754234 
47 1 2.27617 2.27703 2.29591 
48 1 1.55994 1.58222 1.58677 
19 1 4.54524 4.56402 6.22577 
20 1 3.01967 3.01375 7.75861 
21 1 3.72156 3.72669 7.05325 
31 1 0.6486 0.760366 10.1141 
32 1 2.18501 2.23869 8.58624 
33 1 1.467 1.5483 9.30001 
16 1 4.53864 6.26842 4.53254 
17 1 2.98937 7.7904 2.99293 
18 1 3.70169 7.09059 3.7008 
25 1 0.706959 10.1361 0.631957 
26 1 2.18866 8.60841 2.16894 
27 1 1.49824 9.32168 1.45045 
4 1 4.60016 6.19828 6.17066 
5 1 3.08599 7.72618 7.67307 
6 1 3.79311 7.01249 6.97145 
37 1 0.77293 10.1403 9.99052 
38 1 2.31837 8.64328 8.42005 
39 1 1.61556 9.35007 9.13006 
49 2 0.506974 8.06251 10.6545 
50 3 0.620043 7.14669 10.592 
13 1 6.2454 4.57225 4.52544 
14 1 7.77065 3.00667 3.00571 
15 1 7.0693 3.72651 3.70448 
28 1 10.086 0.654389 0.689222 
29 1 8.57352 2.17088 2.20405 
30 1 9.28004 1.46235 1.49638 
1 1 6.18334 4.63374 6.16027 
2 1 7.67767 3.09426 7.67048 
3 1 6.97965 3.81335 6.96503 
40 1 10.0104 0.760119 10.0526 
41 1 8.4726 2.27642 8.49756 
42 1 9.18006 1.57894 9.21291 
7 1 6.17611 6.20806 4.5934 
8 1 7.70024 7.70609 3.06983 
9 1 6.98859 7.00666 3.78127 
43 1 10.0755 10.0188 0.703281 
44 1 8.52657 8.49809 2.24623 
45 1 9.23845 9.19697 1.53712 
22 1 6.23756 6.26974 6.22985 
23 1 7.78134 7.78001 7.7856 
24 1 7.07127 7.08538 7.0701 
34 1 10.1335 10.1297 10.0694 
35 1 8.61174 8.58931 8.58713 
36 1 9.32255 9.3087 9.27935 
ITEM: TIMESTEP
110
ITEM: NUMBER OF ATOMS
50
ITEM: BOX BOUNDS pp pp pp
0.0000000000000000e+00 1.1000000000000000e+01
0.0000000000000000e+00 1.1002000000000001e+01
0.0000000000000000e+00 1.1000000000000000e+01
ITEM: ATOMS id type x y z 
10 1 4.60865 4.63524 4.58706 
11 1 3.09954 3.09483 3.0939 
12 1 3.80466 3.81457 3.79157 
46 1 0.719186 0.766515 0.754218 
47 1 2.27615 2.27703 2.29591 
48 1 1.55996 1.58221 1.58675 
19 1 4.54525 4.56399 6.22575 
20 1 3.01964 3.01374 7.75859 
21 1 3.72158 3.72676 7.0533 
31 1 0.648553 0.760397 10.1141 
32 1 2.18495 2.23874 8.58624 
33 1 1.46709 1.5482 9.30003 
16 1 4.53864 6.26842 4.53253 
17 1 2.98937 7.7904 2.99291 
18 1 3.7017 7.09062 3.7008 
25 1 0.707059 10.1362 0.631926 
26 1 2.18878 8.60842 2.16885 
27 1 1.49806 9.32168 1.4506 
4 1 4.60016 6.19823 6.17068 
5 1 3.08601 7.72623 7.67304 
6 1 3.79316 7.0126 6.9714 
37 1 0.772903 10.1402 9.99054 
38 1 2.31835 8.64322 8.42009 
39 1 1.61556 9.35005 9.13007 
49 2 0.506953 8.06242 10.6545 
50 3 0.620021 7.14659 10.592 
13 1 6.2454 4.57226 4.52542 
14 1 7.77064 3.00665 3.0057 
15 1 7.06933 3.72652 3.70448 
28 1 10.086 0.6544 0.689188 
29 1 8.5735 2.17084 2.20407 
30 1 9.28008 1.46241 1.49636 
1 1 6.18334 4.63374 6.16028 
2 1 7.67765 3.09426 7.67047 
3 1 6.97964 3.81337 6.96505 
40 1 10.0104 0.760152 10.0526 
41 1 8.47263 2.27643 8.49757 
42 1 9.18003 1.57891 9.21292 
7 1 6.17612 6.20811 4.59341 
8 1 7.70024 7.70608 3.06984 
9 1 6.98858 7.00663 3.78125 
43 1 10.0755 10.0188 0.70329 
44 1 8.52658 8.49807 2.24623 
45 1 9.23845 9.19697 1.53711 
22 1 6.23754 6.26973 6.22986 
23 1 7.78133 7.78 7.78559 
24 1 7.07131 7.08539 7.07008 
34 1 10.1336 10.1297 10.0694 
35 1 8.61177 8.5893 8.58711 
36 1 9.32249 9.30872 9.27938 
ITEM: TIMESTEP
111
ITEM: NUMBER OF ATOMS
50
ITEM: BOX BOUNDS pp pp pp
0.0000000000000000e+00 1.1000000000000000e+01
0.0000000000000000e+00 1.1002000000000001e+01
0.0000000000000000e+00 1.1000000000000000e+01
ITEM: ATOMS id type x y z 
10 1 4.60866 4.63523 4.58708 
11 1 3.09954 3.09481 3.09392 
12 1 3.80466 3.8146 3.79154 
46 1 0.719188 0.766516 0.754213 
47 1 2.27615 2.27703 2.29591 
48 1 1.55995 1.58221 1.58675 
19 1 4.54525 4.56398 6.22574 
20 1 3.01964 3.01374 7.75859 
21 1 3.72157 3.72678 7.05331 
31 1 0.648542 0.76041 10.1141 
32 1 2.18494 2.23876 8.58624 
33 1 1.46712 1.54817 9.30003 
16 1 4.53865 6.26843 4.53253 
17 1 2.98937 7.7904 2.99291 
18 1 3.70169 7.09062 3.7008 
25 1 0.707075 10.1362 0.631922 
26 1 2.1888 8.60842 2.16883 
27 1 1.49803 9.32168 1.45063 
4 1 4.60017 6.19824 6.17067 
5 1 3.08602 7.72625 7.67302 
6 1 3.79316 7.01259 6.9714 
37 1 0.772899 10.1402 9.99055 
38 1 2.31835 8.64321 8.4201 
39 1 1.61556 9.35004 9.13008 
49 2 0.506949 8.0624 10.6545 
50 3 0.620017 7.14658 10.592 
13 1 6.2454 4.57226 4.52542 
14 1 7.77063 3.00664 3.0057 
15 1 7.06933 3.72653 3.70447 
28 1 10.086 0.654409 0.689184 
29 1 8.57351 2.17084 2.20407 
30 1 9.28006 1.4624 1.49635 
1 1 6.18334 4.63374 6.16028 
2 1 7.67765 3.09427 7.67048 
3 1 6.97964 3.81337 6.96504 
40 1 10.0104 0.760156 10.0526 
41 1 8.47263 2.27643 8.49757 
42 1 9.18004 1.57892 9.21292 
7 1 6.17612 6.20811 4.59341 
8 1 7.70025 7.70608 3.06984 
9 1 6.98857 7.00663 3.78125 
43 1 10.0755 10.0188 0.703288 
44 1 8.52658 8.49807 2.24622 
45 1 9.23844 9.19699 1.53712 
22 1 6.23755 6.26972 6.22986 
23 1 7.78134 7.78 7.78558 
24 1 7.0713 7.08539 7.07009 
34 1 10.1336 10.1297 10.0694 
35 1 8.61177 8.58931 8.58711 
36 1 9.32249 9.30872 9.27938 
ITEM: TIMESTEP
120
ITEM: NUMBER OF ATOMS
50
ITEM: BOX BOUNDS pp pp pp
0.0000000000000000e+00 1.1000000000000000e+01
0.0000000000000000e+00 1.1002000000000001e+01
0.0000000000000000e+00 1.1000000000000000e+01
ITEM: ATOMS id type x y z 
10 1 4.60867 4.63523 4.58708 
11 1 3.09952 3.09484 3.09394 
12 1 3.80467 3.81458 3.79157 
46 1 0.719195 0.766544 0.754159 
47 1 2.27609 2.27706 2.29589 
48 1 1.56 1.58217 1.58672 
19 1 4.54532 4.56387 6.22568 
20 1 3.01963 3.01369 7.75855 
21 1 3.7215 3.72705 7.05345 
31 1 0.648539 0.7604 10.114 
32 1 2.18488 2.2388 8.58622 
33 1 1.46718 1.54814 9.30011 
16 1 4.53867 6.26845 4.53251 
17 1 2.98937 7.79042 2.99289 
18 1 3.70172 7.09066 3.70079 
25 1 0.707323 10.1362 0.631848 
26 1 2.18914 8.60846 2.16856 
27 1 1.4975 9.32167 1.4511 
4 1 4.60019 6.19824 6.17065 
5 1 3.08613 7.72649 7.67287 
6 1 3.7932 7.01271 6.97133 
37 1 0.772825 10.1401 9.99062 
38 1 2.31831 8.64301 8.42019 
39 1 1.61555 9.34998 9.13012 
49 2 0.506887 8.06212 10.6545 
50 3 0.619954 7.14631 10.592 
13 1 6.24543 4.57232 4.52539 
14 1 7.77062 3.00664 3.00571 
15 1 7.06932 3.72649 3.7045 
28 1 10.086 0.654456 0.689104 
29 1 8.5735 2.17079 2.2041 
30 1 9.28007 1.46243 1.49631 
1 1 6.18335 4.63374 6.1603 
2 1 7.67761 3.09429 7.67049 
3 1 6.97964 3.81339 6.96505 
40 1 10.0104 0.760234 10.0526 
41 1 8.47268 2.27643 8.49756 
42 1 9.17998 1.57892 9.21295 
7 1 6.17607 6.20825 4.59343 
8 1 7.70021 7.70611 3.06986 
9 1 6.98863 7.00651 3.78123 
43 1 10.0754 10.0189 0.703289 
44 1 8.52661 8.49806 2.24619 
45 1 9.23849 9.197 1.53709 
22 1 6.23753 6.26969 6.22986 
23 1 7.78135 7.77998 7.78554 
24 1 7.07135 7.08541 7.07008 
34 1 10.1335 10.1297 10.0695 
35 1 8.61177 8.58935 8.5871 
36 1 9.32252 9.30871 9.27936 
ITEM: TIMESTEP
130
ITEM: NUMBER OF ATOMS
50
ITEM: BOX BOUNDS pp pp pp
0.0000000000000000e+00 1.1000000000000000e+01
0.0000000000000000e+00 1.1002000000000001e+01
0.0000000000000000e+00 1.1000000000000000e+01
ITEM: ATOMS id type x y z 
10 1 4.60869 4.63523 4.58707 
11 1 3.09951 3.09485 3.09394 
12 1 3.80466 3.81458 3.79159 
46 1 0.719225 0.766525 0.754141 
47 1 2.2761 2.27704 2.29589 
48 1 1.55996 1.58222 1.5867 
19 1 4.54531 4.56392 6.22572 
20 1 3.01958 3.0138 7.7586 
21 1 3.72153 3.72693 7.05337 
31 1 0.648578 0.760408 10.114 
32 1 2.1849 2.23882 8.58627 
33 1 1.46714 1.54811 9.30003 
16 1 4.53868 6.26847 4.5325 
17 1 2.98937 7.79044 2.99289 
18 1 3.70172 7.09066 3.70078 
25 1 0.707349 10.1362 0.63189 
26 1 2.18921 8.60848 2.16851 
27 1 1.49742 9.32166 1.45116 
4 1 4.60019 6.19822 6.17065 
5 1 3.08616 7.72658 7.67282 
6 1 3.79325 7.01279 6.97127 
37 1 0.772796 10.1401 9.99064 
38 1 2.31828 8.64293 8.42024 
39 1 1.61555 9.34994 9.13013 
49 2 0.506859 8.062 10.6545 
50 3 0.619926 7.14619 10.5921 
13 1 6.24544 4.57233 4.52539 
14 1 7.77061 3.00662 3.00572 
15 1 7.06932 3.72654 3.70448 
28 1 10.086 0.654478 0.689059 
29 1 8.57349 2.17078 2.20409 
30 1 9.28007 1.46241 1.49632 
1 1 6.18336 4.63375 6.16029 
2 1 7.6776 3.0943 7.6705 
3 1 6.97962 3.8134 6.96506 
40 1 10.0104 0.760248 10.0526 
41 1 8.47265 2.27642 8.49757 
42 1 9.18003 1.57896 9.21293 
7 1 6.1761 6.20822 4.59341 
8 1 7.70025 7.70603 3.06984 
9 1 6.98855 7.00662 3.78127 
43 1 10.0754 10.019 0.70329 
44 1 8.52666 8.49804 2.24618 
45 1 9.23848 9.19705 1.53707 
22 1 6.23753 6.26967 6.22985 
23 1 7.78136 7.77999 7.78552 
24 1 7.07136 7.0854 7.07008 
34 1 10.1335 10.1297 10.0695 
35 1 8.61179 8.58935 8.58708 
36 1 9.32248 9.30873 9.27939 
ITEM: TIMESTEP
132
ITEM: NUMBER OF ATOMS
50
ITEM: BOX BOUNDS pp pp pp
0.0000000000000000e+00 1.1000000000000000e+01
0.0000000000000000e+00 1.1002000000000001e+01
0.0000000000000000e+00 1.1000000000000000e+01
ITEM: ATOMS id type x y z 
10 1 4.60869 4.63523 4.58707 
11 1 3.09951 3.09485 3.09394 
12 1 3.80466 3.81458 3.79159 
46 1 0.719226 0.766525 0.75414 
47 1 2.2761 2.27704 2.29589 
48 1 1.55996 1.58222 1.5867 
19 1 4.54531 4.56392 6.22572 
20 1 3.01958 3.0138 7.7586 
21 1 3.72153 3.72693 7.05337 
31 1 0.648579 0.760407 10.114 
32 1 2.1849 2.23882 8.58627 
33 1 1.46714 1.54812 9.30004 
16 1 4.53868 6.26847 4.5325 
17 1 2.98937 7.79044 2.99289 
18 1 3.70172 7.09066 3.70078 
25 1 0.70735 10.1362 0.631895 
26 1 2.18921 8.60848 2.16851 
27 1 1.49742 9.32166 1.45116 
4 1 4.60019 6.19822 6.17065 
5 1 3.08616 7.72658 7.67281 
6 1 3.79325 7.01279 6.97127 
37 1 0.772794 10.1401 9.99065 
38 1 2.31828 8.64292 8.42024 
39 1 1.61555 9.34994 9.13013 
49 2 0.506858 8.062 10.6545 
50 3 0.619925 7.14618 10.5921 
13 1 6.24543 4.57233 4.52539 
14 1 7.7706 3.00661 3.00573 
15 1 7.06932 3.72654 3.70448 
28 1 10.086 0.654479 0.68906 
29 1 8.57349 2.17078 2.20409 
30 1 9.28007 1.46241 1.49632 
1 1 6.18336 4.63375 6.16029 
2 1 7.6776 3.0943 7.6705 
3 1 6.97962 3.8134 6.96506 
40 1 10.0104 0.760248 10.0526 
41 1 8.47264 2.27642 8.49757 
42 1 9.18003 1.57896 9.21293 
7 1 6.1761 6.20822 4.59341 
8 1 7.70025 7.70603 3.06984 
9 1 6.98855 7.00663 3.78127 
43 1 10.0754 10.019 0.70329 
44 1 8.52666 8.49804 2.24618 
45 1 9.23847 9.19705 1.53707 
22 1 6.23753 6.26967 6.22985 
23 1 7.78136 7.77998 7.78552 
24 1 7.07136 7.0854 7.07008 
34 1 10.1335 10.1297 10.0695 
35 1 8.6118 8.58935 8.58708 
36 1 9.32247 9.30873 9.27939 
ITEM: TIMESTEP
140
ITEM: NUMBER OF ATOMS
50
ITEM: BOX BOUNDS pp pp pp
-2.5032530730349691e-03 1.1002503253073037e+01
-4.4008000000000016e-03 1.1006400800000000e+01
-2.3886202460884245e-03 1.1002388620246087e+01
ITEM: ATOMS id type x y z 
10 1 4.60847 4.63472 4.58686 
11 1 3.09847 3.09298 3.09295 
12 1 3.80383 3.81316 3.7908 
46 1 0.716918 0.762586 0.751914 
47 1 2.27457 2.27441 2.29443 
48 1 1.55805 1.57897 1.58488 
19 1 4.54504 4.56331 6.22589 
20 1 3.01851 3.01187 7.75952 
21 1 3.72082 3.72567 7.05395 
31 1 0.6462 0.756397 10.1162 
32 1 2.18333 2.23616 8.58766 
33 1 1.46537 1.54501 9.30164 
16 1 4.5384 6.26893 4.53222 
17 1 2.9883 7.79221 2.99185 
18 1 3.70102 7.09182 3.70012 
25 1 0.704975 10.14 0.629627 
26 1 2.18766 8.61102 2.167 
27 1 1.49566 9.32468 1.44947 
4 1 4.59998 6.19859 6.17077 
5 1 3.08515 7.72835 7.6737 
6 1 3.79239 7.01409 6.97191 
37 1 0.770475 10.1439 9.99276 
38 1 2.31676 8.64546 8.42159 
39 1 1.61365 9.35311 9.13185 
49 2 0.504576 8.064 10.6568 
50 3 0.617692 7.14746 10.5943 
13 1 6.24563 4.57174 4.52511 
14 1 7.77157 3.00468 3.0047 
15 1 7.06992 3.72524 3.70382 
28 1 10.0882 0.650441 0.686762 
29 1 8.57494 2.16806 2.20261 
30 1 9.28174 1.45924 1.49465 
1 1 6.18349 4.63324 6.1604 
2 1 7.67853 3.09243 7.67139 
3 1 6.98035 3.81199 6.96576 
40 1 10.0126 0.756316 10.0548 
41 1 8.47406 2.27379 8.49894 
42 1 9.18183 1.5757 9.21466 
7 1 6.17622 6.20861 4.59319 
8 1 7.7012 7.70774 3.06884 
9 1 6.98928 7.00789 3.78047 
43 1 10.0776 10.0228 0.701074 
44 1 8.52811 8.5005 2.2447 
45 1 9.24029 9.20013 1.53522 
22 1 6.23772 6.27013 6.23002 
23 1 7.78235 7.78175 7.78645 
24 1 7.07196 7.08655 7.07064 
34 1 10.1358 10.1336 10.0717 
35 1 8.61327 8.59188 8.58846 
36 1 9.32414 9.31172 9.28099 
ITEM: TIMESTEP
150
ITEM: NUMBER OF ATOMS
50
ITEM: BOX BOUNDS pp pp pp
-2.7043306802583267e-03 1.1002704330680263e+01
-9.4708680370134309e-03 1.1011470868037012e+01
-2.2781138527610766e-03 1.1002278113852757e+01
ITEM: ATOMS id type x y z 
10 1 4.60896 4.63442 4.58739 
11 1 3.09851 3.09091 3.09315 
12 1 3.8036 3.81145 3.79067 
46 1 0.71638 0.757796 0.751543 
47 1 2.27413 2.27116 2.29418 
48 1 1.55773 1.57515 1.58476 
19 1 4.54542 4.56288 6.22546 
20 1 3.01869 3.00994 7.75918 
21 1 3.72095 3.72424 7.05372 
31 1 0.645565 0.751426 10.1166 
32 1 2.18305 2.23304 8.58774 
33 1 1.46541 1.5415 9.30141 
16 1 4.53878 6.26922 4.53264 
17 1 2.98851 7.79404 2.9922 
18 1 3.70116 7.0931 3.70033 
25 1 0.704272 10.1448 0.629317 
26 1 2.18742 8.61402 2.1669 
27 1 1.49568 9.32808 1.44972 
4 1 4.60043 6.19873 6.17022 
5 1 3.08525 7.73042 7.6734 
6 1 3.79223 7.01569 6.97207 
37 1 0.769829 10.1485 9.99315 
38 1 2.31631 8.64855 8.42191 
39 1 1.61329 9.3568 9.13202 
49 2 0.504367 8.06622 10.6567 
50 3 0.617476 7.14885 10.5942 