ITEM: TIMESTEP
0
ITEM: NUMBER OF ATOMS
163
ITEM: BOX BOUNDS xy xz yz pp pp pp
-6.7755000000000001e+00 1.3552000000000000e+01 -6.7755000000000001e+00
0.0000000000000000e+00 1.1735510246683001e+01 0.0000000000000000e+00
0.0000000000000000e+00 2.2149999999999999e+01 0.0000000000000000e+00
ITEM: ATOMS id type x y z 
8 1 -2.486 5.297 9.849 
87 1 3.001 4.231 10.696 
90 1 2.733 5.481 9.824 
109 1 -2.486 5.297 0.765 
158 1 2.733 5.481 0.79 
11 1 4.24 4.139 20.131 
14 1 3.031 4.094 19.728 
18 1 1.299 5.827 18.554 
33 1 2.266 4.151 20.924 
43 1 4.343 3.96 21.647 
47 1 3.32 5.732 17.88 
52 1 4.24 4.139 12.633 
76 1 2.552 4.924 14.209 
85 1 4.343 3.96 11.117 
89 1 3.32 5.732 14.883 
91 1 1.036 5.037 11.84 
102 1 3.031 4.094 13.035 
105 1 1.299 5.827 14.209 
114 1 2.266 4.151 11.84 
150 1 2.552 4.924 18.554 
156 1 3.001 4.231 22.068 
159 1 1.036 5.037 20.924 
5 1 -5.049 10.63 8.653 
9 1 -3.317 8.897 7.479 
19 1 -1.707 7.414 10.572 
21 1 -2.66 8.795 10.993 
23 1 -3.31 7.532 6.805 
25 1 -4.284 10.573 9.849 
32 1 1.503 6.367 0.79 
36 1 -1.869 7.426 9.056 
38 1 -2.209 6.086 8.653 
54 1 0.3 8.576 10.696 
57 1 1.291 8.001 9.824 
60 1 -1.707 7.414 0.042 
65 1 -3.31 7.532 3.808 
78 1 -1.869 7.426 1.558 
80 1 -2.566 8.842 1.961 
84 1 -4.57 9.799 3.135 
99 1 -3.054 9.687 0.765 
100 1 -2.96 6.142 3.135 
107 1 -5.049 10.63 1.961 
110 1 -3.317 8.897 3.135 
111 1 0.642 5.929 10.696 
113 1 1.503 6.367 9.824 
119 1 -4.284 10.573 0.765 
127 1 -2.209 6.086 1.961 
131 1 -2.318 6.148 10.993 
138 1 1.291 8.001 0.79 
142 1 -2.566 8.842 8.653 
145 1 -4.57 9.799 7.479 
151 1 -5.019 10.493 10.993 
154 1 -3.054 9.687 9.849 
155 1 -2.96 6.142 7.479 
12 1 2.53 7.1 17.202 
17 1 0.468 9.427 20.924 
24 1 -3.52 8.357 11.865 
27 1 -0.31 7.31 21.647 
29 1 0.642 5.929 22.068 
31 1 1.292 7.192 17.88 
44 1 -0.148 7.298 20.131 
46 1 0.191 8.638 19.728 
51 1 -0.31 7.31 11.117 
53 1 2.53 7.1 15.561 
56 1 1.292 7.192 14.883 
63 1 -2.318 6.148 21.771 
66 1 -3.309 6.723 20.899 
70 1 -0.148 7.298 12.633 
72 1 0.548 5.882 13.035 
92 1 0.942 8.582 14.209 
95 1 -5.019 10.493 21.771 
98 1 -4.751 9.243 20.899 
104 1 0.468 9.427 11.84 
116 1 -2.66 8.795 21.771 
118 1 -3.52 8.357 20.899 
122 1 0.191 8.638 13.035 
133 1 -3.309 6.723 11.865 
136 1 0.3 8.576 22.068 
147 1 0.548 5.882 19.728 
153 1 -4.751 9.243 11.865 
160 1 0.942 8.582 18.554 
1 1 7.976 4.694 10.572 
4 1 9.274 4.77 10.993 
20 1 8.034 4.861 9.056 
42 1 9.55 5.41 7.479 
67 1 10.043 4.578 0.765 
77 1 7.976 4.694 0.042 
94 1 8.035 4.861 1.558 
96 1 9.278 4.635 1.961 
121 1 4.688 5.417 10.696 
130 1 9.55 5.41 3.135 
134 1 10.043 4.578 9.849 
152 1 9.278 4.635 8.653 
45 1 4.688 5.417 22.068 
55 1 4.788 5.329 13.035 
106 1 9.274 4.77 21.771 
137 1 4.788 5.329 19.728 
162 2 8.1315 0.90349 13.035 
163 3 8.8075 1.60349 13.035 
2 1 7.294 10.585 9.056 
3 1 9.004 7.624 6.127 
6 1 8.556 6.347 6.805 
16 1 2.314 8.72 0.79 
22 1 7.166 6.156 8.653 
26 1 7.226 8.565 7.479 
35 1 7.191 10.764 10.572 
37 1 6.846 9.307 10.993 
39 1 8.214 8.992 6.805 
41 1 6.677 7.002 9.849 
48 1 3.775 6.213 0.79 
61 1 7.294 10.585 1.558 
62 1 9.004 7.624 4.487 
64 1 6.747 9.395 1.961 
68 1 7.437 6.931 3.135 
71 1 4.29 8.493 10.696 
74 1 3.567 7.818 9.824 
81 1 8.556 6.347 3.808 
83 1 6.47 8.606 0.765 
93 1 7.191 10.764 0.042 
97 1 8.214 8.992 3.808 
101 1 2.261 9.954 10.696 
103 1 2.314 8.72 9.824 
117 1 7.166 6.156 1.961 
120 1 7.226 8.565 3.135 
123 1 3.775 6.213 9.824 
129 1 6.677 7.002 0.765 
132 1 6.747 9.395 8.653 
135 1 7.437 6.931 7.479 
141 1 7.244 6.231 10.993 
144 1 6.47 8.606 9.849 
148 1 3.567 7.818 0.79 
7 1 9.22 6.004 11.865 
10 1 3.558 10.029 21.647 
13 1 2.261 9.954 22.068 
15 1 2.978 8.376 17.88 
28 1 3.5 9.862 20.131 
30 1 4.369 8.568 19.728 
34 1 4.308 6.159 18.554 
40 1 7.76 8.511 11.865 
49 1 4.857 7.722 20.924 
50 1 1.984 9.314 18.554 
58 1 1.491 10.146 11.84 
59 1 4.097 7.793 14.209 
69 1 3.558 10.029 11.117 
73 1 2.978 8.376 14.883 
75 1 5.064 6.118 11.84 
79 1 7.244 6.231 21.771 
82 1 7.967 6.906 20.899 
86 1 3.5 9.862 12.633 
88 1 2.256 10.089 13.035 
108 1 9.22 6.004 20.899 
112 1 4.369 8.568 13.035 
115 1 4.308 6.159 14.209 
124 1 4.857 7.722 11.84 
125 1 1.984 9.314 14.209 
126 1 6.846 9.307 21.771 
128 1 7.76 8.511 20.899 
139 1 1.491 10.146 20.924 
140 1 4.097 7.793 18.554 
143 1 7.967 6.906 11.865 
146 1 4.29 8.493 22.068 
149 1 5.064 6.118 20.924 
157 1 2.256 10.089 19.728 
161 2 2.256 11.439 13.035 
ITEM: TIMESTEP
10
ITEM: NUMBER OF ATOMS
163
ITEM: BOX BOUNDS xy xz yz pp pp pp
-6.7755000000000001e+00 1.3552000000000000e+01 -6.7755000000000001e+00
0.0000000000000000e+00 1.1735510246683001e+01 0.0000000000000000e+00
0.0000000000000000e+00 2.2149999999999999e+01 0.0000000000000000e+00
ITEM: ATOMS id type x y z 
8 1 -2.42512 5.36489 9.83957 
87 1 2.95458 4.23467 10.6367 
90 1 2.66269 5.44809 9.75092 
109 1 -2.4259 5.36233 0.780755 
158 1 2.65961 5.47147 0.861504 
11 1 4.29282 4.20244 20.1472 
14 1 2.90986 4.11391 19.6942 
18 1 1.315 5.85868 18.6012 
33 1 2.09731 4.25483 20.8968 
43 1 4.32415 4.1497 21.5493 
47 1 3.25344 5.79831 17.8393 
52 1 4.29406 4.19518 12.6194 
76 1 2.44031 4.92168 14.203 
85 1 4.32037 4.15031 11.2085 
89 1 3.2626 5.81126 14.9064 
91 1 0.969191 5.09333 11.8637 
102 1 2.90908 4.11421 13.0728 
105 1 1.31305 5.85953 14.1691 
114 1 2.10286 4.24879 11.8598 
150 1 2.42349 4.91548 18.5682 
156 1 2.95134 4.23449 22.1341 
159 1 0.972182 5.10156 20.9016 
5 1 -4.91791 10.6278 8.61727 
9 1 -3.33941 8.87194 7.52256 
19 1 -1.7544 7.52353 10.5384 
21 1 -2.60567 8.77834 10.9225 
23 1 -3.29213 7.53087 6.81524 
25 1 -4.10178 10.4674 9.84436 
32 1 1.59033 6.35216 0.779928 
36 1 -1.91076 7.54388 9.05894 
38 1 -2.14814 6.22522 8.65879 
54 1 0.2565 8.55684 10.6031 
57 1 1.41681 7.94084 9.69725 
60 1 -1.75121 7.53054 0.0685613 
65 1 -3.30262 7.53274 3.79775 
78 1 -1.90245 7.54085 1.56551 
80 1 -2.56138 8.77876 1.90985 
84 1 -4.44654 9.82648 3.12687 
99 1 -2.99121 9.642 0.794212 
100 1 -2.91402 6.23739 3.17115 
107 1 -4.92816 10.6233 1.9823 
110 1 -3.33973 8.8716 3.09171 
111 1 0.580897 5.96428 10.7617 
113 1 1.6015 6.36079 9.81461 
119 1 -4.13659 10.4711 0.767359 
127 1 -2.15132 6.22059 1.95787 
131 1 -2.3292 6.19324 11.0121 
138 1 1.37906 7.99342 0.843457 
142 1 -2.562 8.78511 8.71821 
145 1 -4.44359 9.83048 7.48184 
151 1 -4.98886 10.4735 11.0565 
154 1 -2.98615 9.61878 9.82482 
155 1 -2.90929 6.23835 7.44455 
12 1 2.58004 7.06996 17.1353 
17 1 0.405489 9.3545 20.8984 
24 1 -3.62237 8.37648 11.875 
27 1 -0.259207 7.18628 21.6104 
29 1 0.602488 5.95735 22.0024 
31 1 1.30355 7.19355 17.9021 
44 1 -0.0996088 7.18249 20.1328 
46 1 0.138089 8.49394 19.7312 
51 1 -0.292852 7.13141 11.147 
53 1 2.5656 7.04555 15.6545 
56 1 1.29012 7.18408 14.8557 
63 1 -2.31109 6.19207 21.7488 
66 1 -3.4051 6.71955 20.8418 
70 1 -0.130396 7.19759 12.6419 
72 1 0.55845 5.91617 12.9838 
92 1 0.915183 8.47162 14.2555 
95 1 -5.02019 10.4405 21.7302 
98 1 -4.68443 9.27988 20.8362 
104 1 0.442605 9.47349 11.9298 
116 1 -2.60195 8.76674 21.8207 
118 1 -3.61349 8.37687 20.8914 
122 1 0.156657 8.51458 13.0669 
133 1 -3.3931 6.71334 11.9138 
136 1 0.295077 8.53288 22.0934 
147 1 0.545416 5.94739 19.7925 
153 1 -4.67814 9.2831 11.9319 
160 1 0.895928 8.46822 18.5223 
1 1 7.87143 4.93344 10.5222 
4 1 9.18139 4.76144 11.0354 
20 1 7.86256 4.92641 9.05986 
42 1 9.46511 5.41794 7.42823 
67 1 10.0017 4.55438 0.769899 
77 1 7.87134 4.93565 0.0951463 
94 1 7.862 4.93363 1.55452 
96 1 9.18178 4.64416 1.99327 
121 1 4.70092 5.43247 10.704 
130 1 9.46982 5.41696 3.18049 
134 1 10.0014 4.55669 9.84462 
152 1 9.18363 4.64071 8.62437 
45 1 4.69326 5.43315 22.0769 
55 1 4.83087 5.47017 13.0848 
106 1 9.18168 4.76468 21.7288 
137 1 4.82541 5.46718 19.677 
162 2 8.12018 0.923874 13.0361 
163 3 8.80932 1.58942 13.0336 
2 1 7.22037 10.5463 9.0666 
3 1 8.94749 7.64388 6.02915 
6 1 8.54092 6.41022 6.82622 
16 1 2.34517 8.66789 0.858854 
22 1 7.13162 6.17887 8.72376 
26 1 7.18248 8.4222 7.52591 
35 1 7.21262 10.5663 10.4997 
37 1 6.85469 9.31258 10.9761 
39 1 8.29124 8.93206 6.76501 
41 1 6.71963 7.01018 9.83913 
48 1 3.70418 6.37465 0.844473 
61 1 7.23954 10.5255 1.53607 
62 1 8.95812 7.64769 4.58148 
64 1 6.69956 9.23549 2.00831 
68 1 7.37841 6.97478 3.05742 
71 1 4.31509 8.53361 10.7545 
74 1 3.64206 7.79701 9.82156 
81 1 8.54855 6.40652 3.79296 
83 1 6.54538 8.43968 0.768565 
93 1 7.22207 10.5682 0.123665 
97 1 8.27138 8.92551 3.83259 
101 1 2.34223 9.91105 10.6576 
103 1 2.35101 8.71667 9.73699 
117 1 7.13638 6.17788 1.87738 
120 1 7.19835 8.43183 3.08184 
123 1 3.70351 6.36824 9.75988 
129 1 6.72291 7.02107 0.777465 
132 1 6.68954 9.24747 8.60464 
135 1 7.39817 6.95608 7.54827 
141 1 7.22737 6.17725 10.9183 
144 1 6.53845 8.43171 9.8452 
148 1 3.61767 7.7807 0.788966 
7 1 9.19492 6.05363 11.9296 
10 1 3.66982 9.78713 21.5914 
13 1 2.35428 9.9676 22.1147 
15 1 2.97328 8.29702 17.8937 
28 1 3.66974 9.79077 20.1414 
30 1 4.4052 8.55026 19.7982 
34 1 4.3472 6.28921 18.6082 
40 1 7.82605 8.35186 11.9344 
49 1 4.8051 7.72556 20.9138 
50 1 2.06738 9.30096 18.5004 
58 1 1.43264 10.1306 11.751 
59 1 4.12849 7.75469 14.1283 
69 1 3.65268 9.79021 11.2798 
73 1 2.98814 8.34264 14.8576 
75 1 5.00306 6.26249 11.8551 
79 1 7.22787 6.17866 21.8528 
82 1 7.91915 6.91597 20.8944 
86 1 3.70261 9.76919 12.4927 
88 1 2.35293 10.2469 13.1512 
108 1 9.19588 6.05537 20.8345 
112 1 4.39879 8.54569 12.9906 
115 1 4.3433 6.30683 14.1536 
124 1 4.8304 7.70937 11.8462 
125 1 2.0688 9.27941 14.2762 
126 1 6.89155 9.32179 21.8 
128 1 7.81674 8.35186 20.8368 
139 1 1.52832 10.1657 20.9156 
140 1 4.13198 7.75995 18.6167 
143 1 7.9219 6.90602 11.8701 
146 1 4.3072 8.54308 21.9956 
149 1 5.00462 6.29799 20.9103 
157 1 2.35192 10.0836 19.7027 
161 2 2.26581 11.3577 13.0916 
ITEM: TIMESTEP
20
ITEM: NUMBER OF ATOMS
163
ITEM: BOX BOUNDS xy xz yz pp pp pp
-6.7755000000000001e+00 1.3552000000000000e+01 -6.7755000000000001e+00
0.0000000000000000e+00 1.1735510246683001e+01 0.0000000000000000e+00
0.0000000000000000e+00 2.2149999999999999e+01 0.0000000000000000e+00
ITEM: ATOMS id type x y z 
8 1 -2.42356 5.38205 9.84021 
87 1 2.95834 4.2701 10.6523 
90 1 2.67203 5.44656 9.76656 
109 1 -2.42202 5.38556 0.767988 
158 1 2.66484 5.44719 0.846934 
11 1 4.28064 4.21749 20.1222 
14 1 2.89392 4.13819 19.6983 
18 1 1.31743 5.85836 18.5816 
33 1 2.11221 4.25831 20.9064 
43 1 4.30117 4.17498 21.5752 
47 1 3.24811 5.79663 17.837 
52 1 4.28163 4.20975 12.6425 
76 1 2.44765 4.9133 14.1832 
85 1 4.29857 4.17491 11.192 
89 1 3.25493 5.80424 14.9138 
91 1 0.966106 5.10894 11.8546 
102 1 2.89318 4.13879 13.0659 
105 1 1.31062 5.85399 14.1761 
114 1 2.11236 4.25807 11.8572 
150 1 2.43932 4.9098 18.5822 
156 1 2.9595 4.27108 22.1111 
159 1 0.96805 5.1072 20.9139 
5 1 -4.91202 10.5883 8.62686 
9 1 -3.33291 8.86029 7.50511 
19 1 -1.76167 7.53084 10.5558 
21 1 -2.62199 8.75625 10.9435 
23 1 -3.30453 7.5312 6.82655 
25 1 -4.13347 10.4685 9.83483 
32 1 1.59489 6.35651 0.776725 
36 1 -1.89503 7.55046 9.06325 
38 1 -2.15415 6.22458 8.64755 
54 1 0.25851 8.54092 10.602 
57 1 1.43044 7.92523 9.70047 
60 1 -1.7646 7.52863 0.055753 
65 1 -3.30602 7.53141 3.78635 
78 1 -1.89386 7.54972 1.55516 
80 1 -2.55639 8.78855 1.89817 
84 1 -4.45973 9.81758 3.10754 
99 1 -2.98331 9.6174 0.773478 
100 1 -2.92876 6.25943 3.17726 
107 1 -4.91101 10.5904 1.9864 
110 1 -3.33493 8.86291 3.10764 
111 1 0.597 5.96603 10.7562 
113 1 1.59458 6.37044 9.82406 
119 1 -4.13387 10.4619 0.781307 
127 1 -2.15523 6.22672 1.96692 
131 1 -2.34012 6.21476 11.0092 
138 1 1.35985 7.99374 0.829866 
142 1 -2.55601 8.78924 8.71203 
145 1 -4.45962 9.82037 7.50447 
151 1 -4.97947 10.4555 11.0372 
154 1 -2.98071 9.61689 9.84076 
155 1 -2.92815 6.26047 7.4369 
12 1 2.56313 7.06747 17.1431 
17 1 0.402912 9.33707 20.9193 
24 1 -3.60388 8.37636 11.856 
27 1 -0.249193 7.1957 21.6345 
29 1 0.607109 5.96364 22.0124 
31 1 1.30209 7.19121 17.8884 
44 1 -0.121627 7.17147 20.1391 
46 1 0.137002 8.49791 19.7203 
51 1 -0.284096 7.13451 11.1586 
53 1 2.55459 7.05993 15.6569 
56 1 1.2927 7.18529 14.8667 
63 1 -2.32972 6.21967 21.7583 
66 1 -3.37647 6.73016 20.8582 
70 1 -0.117223 7.18608 12.63 
72 1 0.540815 5.93187 12.9672 
92 1 0.926634 8.46398 14.2548 
95 1 -4.98917 10.4479 21.7292 
98 1 -4.6874 9.27083 20.8319 
104 1 0.437139 9.45262 11.9351 
116 1 -2.62141 8.76152 21.8264 
118 1 -3.60166 8.37459 20.9061 
122 1 0.16118 8.50148 13.0554 
133 1 -3.37992 6.72894 11.9047 
136 1 0.310485 8.50575 22.0813 
147 1 0.538537 5.93107 19.7961 
153 1 -4.69038 9.27547 11.9245 
160 1 0.911175 8.46855 18.5142 
1 1 7.87151 4.92614 10.5252 
4 1 9.16799 4.7864 11.0117 
20 1 7.85376 4.93973 9.05936 
42 1 9.46551 5.43543 7.44206 
67 1 9.97656 4.559 0.762461 
77 1 7.87082 4.92659 0.0894723 
94 1 7.85506 4.93974 1.55553 
96 1 9.17604 4.66026 1.99884 
121 1 4.67051 5.45747 10.707 
130 1 9.4653 5.43597 3.17255 
134 1 9.97563 4.55948 9.85184 
152 1 9.17639 4.66042 8.61517 
45 1 4.6662 5.46434 22.0566 
55 1 4.82444 5.4962 13.0686 
106 1 9.17002 4.78881 21.7525 
137 1 4.8196 5.50394 19.6987 
162 2 8.11759 0.925893 13.0362 
163 3 8.81045 1.5893 13.0334 
2 1 7.2499 10.5122 9.04434 
3 1 8.97119 7.64976 6.06292 
6 1 8.52569 6.39566 6.83412 
16 1 2.35932 8.69011 0.851745 
22 1 7.1264 6.18971 8.71875 
26 1 7.19138 8.42346 7.54083 
35 1 7.233 10.5521 10.4957 
37 1 6.87075 9.26531 10.9783 
39 1 8.28047 8.93646 6.77514 
41 1 6.72453 7.00253 9.83476 
48 1 3.7022 6.35993 0.833252 
61 1 7.24996 10.5126 1.57099 
62 1 8.97422 7.649 4.55187 
64 1 6.70733 9.21969 1.98984 
68 1 7.39412 6.96252 3.0531 
71 1 4.33051 8.49891 10.7528 
74 1 3.63192 7.7848 9.82176 
81 1 8.52472 6.39798 3.77866 
83 1 6.55076 8.44332 0.785305 
93 1 7.22828 10.5608 0.124291 
97 1 8.27907 8.93968 3.83641 
101 1 2.3509 9.90056 10.6568 
103 1 2.34663 8.70967 9.73279 
117 1 7.1271 6.19128 1.89385 
120 1 7.19204 8.42172 3.07337 
123 1 3.70288 6.35897 9.77474 
129 1 6.7237 7.00962 0.777696 
132 1 6.71168 9.22432 8.62169 
135 1 7.39855 6.96464 7.56118 
141 1 7.22171 6.19665 10.9219 
144 1 6.55119 8.44164 9.82894 
148 1 3.60826 7.78902 0.792354 
7 1 9.17508 6.03178 11.9294 
10 1 3.66344 9.79663 21.5996 
13 1 2.36777 9.9342 22.0892 
15 1 3.0024 8.31428 17.893 
28 1 3.67946 9.7821 20.1385 
30 1 4.41174 8.53543 19.7877 
34 1 4.34195 6.30204 18.618 
40 1 7.8321 8.35625 11.9172 
49 1 4.80697 7.72128 20.9071 
50 1 2.0674 9.28957 18.5205 
58 1 1.43615 10.1258 11.7545 
59 1 4.12747 7.75998 14.1254 
69 1 3.6542 9.79735 11.2767 
73 1 2.9995 8.34539 14.8602 
75 1 4.9946 6.27256 11.8595 
79 1 7.22267 6.19696 21.843 
82 1 7.92419 6.9269 20.8922 
86 1 3.69567 9.76488 12.5108 
88 1 2.37009 10.2292 13.1586 
108 1 9.17745 6.03079 20.8354 
112 1 4.41588 8.53158 12.9759 
115 1 4.34804 6.30854 14.1414 
124 1 4.82297 7.71335 11.851 
125 1 2.07784 9.26863 14.2659 
126 1 6.87492 9.26971 21.7852 
128 1 7.83064 8.35415 20.8439 
139 1 1.55799 10.1622 20.9286 
140 1 4.13495 7.75469 18.635 
143 1 7.92842 6.9296 11.8718 
146 1 4.31381 8.52572 22.0019 
149 1 4.98915 6.28743 20.907 
157 1 2.35607 10.0616 19.6875 
161 2 2.26722 11.3562 13.1016 
ITEM: TIMESTEP
30
ITEM: NUMBER OF ATOMS
163
ITEM: BOX BOUNDS xy xz yz pp pp pp
-6.7755000000000001e+00 1.3552000000000000e+01 -6.7755000000000001e+00
0.0000000000000000e+00 1.1735510246683001e+01 0.0000000000000000e+00
0.0000000000000000e+00 2.2149999999999999e+01 0.0000000000000000e+00
ITEM: ATOMS id type x y z 
8 1 -2.44061 5.41773 9.82703 
87 1 2.94583 4.28097 10.6472 
90 1 2.65962 5.43147 9.76053 
109 1 -2.43736 5.41972 0.784125 
158 1 2.6468 5.43922 0.849054 
11 1 4.26677 4.23941 20.114 
14 1 2.87583 4.16448 19.7028 
18 1 1.29562 5.8515 18.5701 
33 1 2.08501 4.27353 20.9011 
43 1 4.27991 4.22288 21.5535 
47 1 3.24233 5.812 17.8052 
52 1 4.26967 4.23281 12.6523 
76 1 2.44406 4.93927 14.1876 
85 1 4.28168 4.21826 11.2143 
89 1 3.24729 5.81339 14.9295 
91 1 0.950574 5.12572 11.8418 
102 1 2.87578 4.15937 13.0584 
105 1 1.28616 5.8527 14.1924 
114 1 2.08686 4.27527 11.8647 
150 1 2.43631 4.94049 18.5781 
156 1 2.94636 4.28495 22.1149 
159 1 0.952981 5.12646 20.9269 
5 1 -4.893 10.5606 8.6305 
9 1 -3.30472 8.87259 7.49528 
19 1 -1.75453 7.54402 10.5624 
21 1 -2.6204 8.75795 10.9703 
23 1 -3.29624 7.54365 6.82 
25 1 -4.10201 10.448 9.8284 
32 1 1.60555 6.38097 0.783497 
36 1 -1.8709 7.56873 9.0694 
38 1 -2.16017 6.2444 8.64322 
54 1 0.262653 8.5224 10.5905 
57 1 1.4476 7.90911 9.69483 
60 1 -1.77034 7.54119 0.0526645 
65 1 -3.29576 7.54373 3.79313 
78 1 -1.87149 7.56962 1.54731 
80 1 -2.53434 8.79932 1.89847 
84 1 -4.45771 9.79173 3.10937 
99 1 -2.97009 9.59544 0.763053 
100 1 -2.93526 6.28336 3.17011 
107 1 -4.89673 10.5625 1.98494 
110 1 -3.30529 8.87229 3.11871 
111 1 0.585894 5.96683 10.7395 
113 1 1.60533 6.38928 9.8081 
119 1 -4.10517 10.4471 0.783495 
127 1 -2.16027 6.24322 1.97107 
131 1 -2.35249 6.24458 11.0094 
138 1 1.37164 7.98017 0.822088 
142 1 -2.53518 8.79966 8.71659 
145 1 -4.45702 9.79009 7.50458 
151 1 -4.96434 10.4403 11.0405 
154 1 -2.9716 9.59489 9.85122 
155 1 -2.93415 6.28353 7.44466 
12 1 2.55293 7.07483 17.1717 
17 1 0.418833 9.30404 20.9041 
24 1 -3.62523 8.34799 11.8569 
27 1 -0.245433 7.18319 21.6372 
29 1 0.602411 5.96212 22.0405 
31 1 1.28871 7.17656 17.861 
44 1 -0.143316 7.1531 20.143 
46 1 0.144743 8.47888 19.7181 
51 1 -0.278094 7.12184 11.1493 
53 1 2.55265 7.06999 15.6802 
56 1 1.29465 7.17343 14.8754 
63 1 -2.34363 6.24436 21.7494 
66 1 -3.39094 6.74671 20.8665 
70 1 -0.127021 7.17553 12.6261 
72 1 0.521762 5.93077 12.9733 
92 1 0.943423 8.4396 14.2524 
95 1 -4.96258 10.4403 21.7233 
98 1 -4.66645 9.27988 20.84 
104 1 0.445695 9.42869 11.9364 
116 1 -2.62406 8.76005 21.7931 
118 1 -3.6282 8.34851 20.9058 
122 1 0.175599 8.49162 13.0553 
133 1 -3.39735 6.74733 11.8987 
136 1 0.324723 8.48136 22.0896 
147 1 0.516425 5.9211 19.7904 
153 1 -4.66142 9.28307 11.9226 
160 1 0.917434 8.44864 18.522 
1 1 7.82882 4.93343 10.5245 
4 1 9.14082 4.81812 11.0024 
20 1 7.82038 4.94213 9.06425 
42 1 9.44985 5.46205 7.44554 
67 1 9.96018 4.58493 0.777675 
77 1 7.82886 4.93321 0.0897371 
94 1 7.82092 4.94344 1.55025 
96 1 9.15854 4.68627 1.99826 
121 1 4.64737 5.49846 10.6843 
130 1 9.44824 5.46178 3.16819 
134 1 9.95704 4.58306 9.83657 
152 1 9.15836 4.68499 8.61526 
45 1 4.64302 5.51112 22.0817 
55 1 4.82022 5.52268 13.0693 
106 1 9.14155 4.82047 21.7617 
137 1 4.81388 5.53049 19.6965 
162 2 8.11072 0.932405 13.0364 
163 3 8.81312 1.5879 13.0328 
2 1 7.26676 10.491 9.03512 
3 1 8.97274 7.64829 6.08002 
6 1 8.50646 6.39229 6.81537 
16 1 2.36762 8.69616 0.861725 
22 1 7.09489 6.1797 8.70403 
26 1 7.19736 8.41586 7.53387 
35 1 7.25864 10.4994 10.4803 
37 1 6.89441 9.21319 11.0059 
39 1 8.28615 8.92504 6.75312 
41 1 6.70667 6.98462 9.84028 
48 1 3.69946 6.34956 0.83108 
61 1 7.26426 10.4894 1.57774 
62 1 8.97142 7.64841 4.53399 
64 1 6.71754 9.20138 1.99237 
68 1 7.38542 6.95802 3.06093 
71 1 4.34871 8.47779 10.7224 
74 1 3.61136 7.79641 9.80598 
81 1 8.50544 6.39324 3.7973 
83 1 6.54672 8.41345 0.790931 
93 1 7.25772 10.4973 0.135003 
97 1 8.28508 8.92271 3.85894 
101 1 2.36242 9.882 10.6529 
103 1 2.35018 8.70807 9.71882 
117 1 7.09583 6.18204 1.90699 
120 1 7.19636 8.41461 3.07785 
123 1 3.70297 6.34528 9.77263 
129 1 6.70728 6.98653 0.772724 
132 1 6.71731 9.20146 8.6226 
135 1 7.38799 6.95708 7.55355 
141 1 7.2187 6.20378 10.9447 
144 1 6.55626 8.41207 9.81853 
148 1 3.59509 7.80258 0.808444 
7 1 9.16838 6.02565 11.9399 
10 1 3.70565 9.78936 21.5992 
13 1 2.3932 9.90347 22.0775 
15 1 3.02804 8.31699 17.8619 
28 1 3.71053 9.77639 20.1387 
30 1 4.44458 8.54536 19.7768 
34 1 4.32989 6.31296 18.6114 
40 1 7.8375 8.3735 11.9062 
49 1 4.82726 7.73979 20.9144 
50 1 2.08741 9.25356 18.5268 
58 1 1.43782 10.096 11.7647 
59 1 4.13569 7.76623 14.1292 
69 1 3.67105 9.80028 11.2869 
73 1 3.02234 8.34457 14.8855 
75 1 5.00058 6.29866 11.8677 
79 1 7.21811 6.20533 21.8202 
82 1 7.93935 6.92111 20.8779 
86 1 3.70386 9.75988 12.5145 
88 1 2.39067 10.2196 13.1676 
108 1 9.17007 6.02696 20.8269 
112 1 4.45208 8.53291 12.988 
115 1 4.33569 6.31507 14.1531 
124 1 4.84216 7.73038 11.8587 
125 1 2.10228 9.23967 14.2635 
126 1 6.8867 9.21293 21.7587 
128 1 7.8431 8.37065 20.8587 
139 1 1.5753 10.1361 20.9124 
140 1 4.14387 7.76147 18.626 
143 1 7.93698 6.91829 11.8859 
146 1 4.31973 8.52005 22.0209 
149 1 4.9913 6.3154 20.8956 
157 1 2.37484 10.0319 19.6839 
161 2 2.27168 11.3455 13.1302 
ITEM: TIMESTEP
40
ITEM: NUMBER OF ATOMS
163
ITEM: BOX BOUNDS xy xz yz pp pp pp
-6.7755000000000001e+00 1.3552000000000000e+01 -6.7755000000000001e+00
0.0000000000000000e+00 1.1735510246683001e+01 0.0000000000000000e+00
0.0000000000000000e+00 2.2149999999999999e+01 0.0000000000000000e+00
ITEM: ATOMS id type x y z 
8 1 -2.48165 5.4848 9.82758 
87 1 2.92585 4.31049 10.6522 
90 1 2.64371 5.43695 9.70509 
109 1 -2.47342 5.48271 0.783748 
158 1 2.62325 5.46686 0.898316 
11 1 4.243 4.30287 20.0804 
14 1 2.83842 4.20184 19.7152 
18 1 1.26997 5.84967 18.5486 
33 1 2.05251 4.30618 20.9146 
43 1 4.24779 4.29875 21.5205 
47 1 3.21311 5.81371 17.8029 
52 1 4.24329 4.29699 12.6865 
76 1 2.40096 4.94977 14.1994 
85 1 4.25475 4.29083 11.2434 
89 1 3.21844 5.82602 14.9565 
91 1 0.906058 5.15021 11.8385 
102 1 2.83759 4.20344 13.0562 
105 1 1.26253 5.84543 14.2244 
114 1 2.05424 4.30832 11.8524 
150 1 2.39382 4.93842 18.561 
156 1 2.92886 4.32451 22.1108 
159 1 0.903938 5.14454 20.927 
5 1 -4.84065 10.5342 8.63814 
9 1 -3.2829 8.8753 7.4727 
19 1 -1.72442 7.59316 10.5755 
21 1 -2.5648 8.76006 10.994 
23 1 -3.2935 7.52833 6.81879 
25 1 -4.073 10.4219 9.84716 
32 1 1.56966 6.37557 0.829073 
36 1 -1.81978 7.61939 9.05714 
38 1 -2.13864 6.30156 8.64356 
54 1 0.280207 8.49661 10.5705 
57 1 1.46407 7.92219 9.66991 
60 1 -1.76217 7.58017 0.0385356 
65 1 -3.29674 7.52776 3.7959 
78 1 -1.82669 7.61749 1.55847 
80 1 -2.48574 8.82239 1.921 
84 1 -4.40873 9.79233 3.11982 
99 1 -2.91893 9.57345 0.761022 
100 1 -2.93297 6.29945 3.1637 
107 1 -4.8576 10.5292 1.97187 
110 1 -3.28498 8.87781 3.14441 
111 1 0.565194 5.96012 10.6981 
113 1 1.57175 6.35038 9.76391 
119 1 -4.06948 10.4243 0.7823 
127 1 -2.13747 6.30161 1.97176 
131 1 -2.37739 6.28064 10.9962 
138 1 1.39997 7.98097 0.84037 
142 1 -2.48696 8.81559 8.69439 
145 1 -4.4055 9.79347 7.49177 
151 1 -4.94154 10.3971 11.0387 
154 1 -2.91668 9.57165 9.85753 
155 1 -2.93189 6.29967 7.44972 
12 1 2.56358 7.07612 17.1775 
17 1 0.458816 9.24331 20.9089 
24 1 -3.57985 8.3388 11.9061 
27 1 -0.255261 7.14197 21.643 
29 1 0.564449 5.96002 22.0735 
31 1 1.26846 7.20585 17.8459 
44 1 -0.187604 7.10022 20.1319 
46 1 0.123372 8.41791 19.7194 
51 1 -0.281542 7.10167 11.1411 
53 1 2.57796 7.06914 15.6621 
56 1 1.29276 7.18071 14.9048 
63 1 -2.35869 6.26864 21.7601 
66 1 -3.41857 6.74131 20.8471 
70 1 -0.14989 7.15175 12.6206 
72 1 0.483496 5.91043 13.0024 
92 1 0.975849 8.42213 14.2413 
95 1 -4.9429 10.4076 21.7172 
98 1 -4.63512 9.26362 20.7845 
104 1 0.468633 9.37549 11.9161 
116 1 -2.57269 8.76728 21.7685 
118 1 -3.58554 8.33746 20.8511 
122 1 0.181283 8.45443 13.0546 
133 1 -3.42319 6.74034 11.9135 
136 1 0.342373 8.45651 22.078 
147 1 0.478767 5.90114 19.7624 
153 1 -4.64605 9.26617 11.9703 
160 1 0.907979 8.43287 18.5149 
1 1 7.74294 4.90955 10.5343 
4 1 9.08287 4.85025 10.9799 
20 1 7.7467 4.94815 9.05325 
42 1 9.42794 5.48514 7.44951 
67 1 9.92303 4.65378 0.784642 
77 1 7.7406 4.91248 0.0794468 
94 1 7.74738 4.95014 1.55794 
96 1 9.07967 4.72991 1.99703 
121 1 4.61213 5.5581 10.6994 
130 1 9.42747 5.48585 3.16486 
134 1 9.92011 4.65197 9.82864 
152 1 9.07995 4.72774 8.61498 
45 1 4.61538 5.55873 22.0665 
55 1 4.81049 5.56997 13.0795 
106 1 9.08436 4.85064 21.7875 
137 1 4.8047 5.58377 19.6885 
162 2 8.09469 0.950369 13.0365 
163 3 8.81859 1.58164 13.0312 
2 1 7.28486 10.4432 9.00931 
3 1 8.95167 7.66308 6.06298 
6 1 8.50232 6.39825 6.8056 
16 1 2.38939 8.70786 0.890737 
22 1 7.00969 6.15007 8.66863 
26 1 7.20529 8.37264 7.49843 
35 1 7.28936 10.4299 10.4605 
37 1 6.92782 9.16594 10.9939 
39 1 8.31564 8.92322 6.75006 
41 1 6.66024 6.93922 9.83323 
48 1 3.66817 6.37639 0.896301 
61 1 7.29619 10.4265 1.60158 
62 1 8.95387 7.66108 4.54938 
64 1 6.71629 9.14125 1.99399 
68 1 7.34949 6.94203 3.08132 
71 1 4.38229 8.46238 10.7052 
74 1 3.60823 7.80665 9.78332 
81 1 8.50082 6.39839 3.80823 
83 1 6.53896 8.36737 0.793769 
93 1 7.27857 10.4362 0.173986 
97 1 8.31024 8.92647 3.8614 
101 1 2.39682 9.84897 10.683 
103 1 2.36151 8.72082 9.67415 
117 1 7.00852 6.15586 1.94175 
120 1 7.20513 8.37409 3.10931 
123 1 3.67234 6.34784 9.70947 
129 1 6.65881 6.94614 0.777379 
132 1 6.71678 9.13818 8.60534 
135 1 7.35135 6.94092 7.53089 
141 1 7.17686 6.2044 10.9742 
144 1 6.57969 8.36635 9.81916 
148 1 3.61653 7.8112 0.854887 
7 1 9.13699 6.01487 11.9696 
10 1 3.79413 9.81178 21.604 
13 1 2.4489 9.86968 22.0466 
15 1 3.03816 8.30953 17.8313 
28 1 3.79109 9.7701 20.123 
30 1 4.52433 8.56222 19.7463 
34 1 4.3192 6.35366 18.5766 
40 1 7.86462 8.35438 11.9725 
49 1 4.88277 7.78032 20.9118 
50 1 2.11064 9.21324 18.5246 
58 1 1.48538 10.0299 11.7779 
59 1 4.17541 7.77392 14.1594 
69 1 3.7016 9.7827 11.2823 
73 1 3.05192 8.3282 14.9262 
75 1 5.00783 6.34251 11.8706 
79 1 7.17284 6.20733 21.7884 
82 1 7.91995 6.90324 20.8328 
86 1 3.74815 9.75296 12.5237 
88 1 2.4217 10.1931 13.1774 
108 1 9.14767 6.01756 20.7964 
112 1 4.51589 8.56855 13.0152 
115 1 4.32702 6.34442 14.1839 
124 1 4.88164 7.77671 11.8322 
125 1 2.13465 9.21883 14.2636 
126 1 6.91462 9.15838 21.7662 
128 1 7.85129 8.35188 20.7888 
139 1 1.6109 10.0655 20.897 
140 1 4.1962 7.78591 18.6121 
143 1 7.92283 6.91457 11.9358 
146 1 4.35863 8.51357 22.0494 
149 1 4.99303 6.3547 20.8991 
157 1 2.45086 9.97745 19.6834 
161 2 2.2848 11.3153 13.2046 
ITEM: TIMESTEP
50
ITEM: NUMBER OF ATOMS
163
ITEM: BOX BOUNDS xy xz yz pp pp pp
-6.7755000000000001e+00 1.3552000000000000e+01 -6.7755000000000001e+00
0.0000000000000000e+00 1.1735510246683001e+01 0.0000000000000000e+00
0.0000000000000000e+00 2.2149999999999999e+01 0.0000000000000000e+00
ITEM: ATOMS id type x y z 
8 1 -2.48217 5.48691 9.82358 
87 1 2.9266 4.31836 10.6527 
90 1 2.63772 5.43305 9.70775 
109 1 -2.47426 5.48466 0.788046 
158 1 2.62293 5.4623 0.893922 
11 1 4.23817 4.30652 20.0816 
14 1 2.83599 4.20603 19.7117 
18 1 1.2643 5.85152 18.5475 
33 1 2.05214 4.30873 20.9167 
43 1 4.242 4.30391 21.5216 
47 1 3.21532 5.81368 17.8011 
52 1 4.23922 4.29757 12.6827 
76 1 2.40018 4.94816 14.2031 
85 1 4.24644 4.29463 11.2442 
89 1 3.2234 5.81574 14.9478 
91 1 0.905119 5.15059 11.8395 
102 1 2.83598 4.20394 13.0531 
105 1 1.25673 5.85181 14.2235 
114 1 2.05514 4.31076 11.8511 
150 1 2.39155 4.94175 18.5625 
156 1 2.92395 4.33243 22.1126 
159 1 0.903059 5.14526 20.9322 
5 1 -4.85063 10.5276 8.64102 
9 1 -3.27493 8.87339 7.47402 
19 1 -1.72361 7.58887 10.571 
21 1 -2.5761 8.76288 10.9992 
23 1 -3.29817 7.53569 6.81543 
25 1 -4.06744 10.4145 9.84459 
32 1 1.57098 6.37976 0.828798 
36 1 -1.81563 7.61881 9.06141 
38 1 -2.13963 6.30298 8.64309 
54 1 0.281627 8.49358 10.5677 
57 1 1.46614 7.90981 9.66721 
60 1 -1.76251 7.57836 0.0424071 
65 1 -3.29933 7.53527 3.79876 
78 1 -1.82374 7.61945 1.55463 
80 1 -2.48493 8.82566 1.92075 
84 1 -4.41034 9.78988 3.12257 
99 1 -2.92174 9.57457 0.755606 
100 1 -2.93305 6.29602 3.16143 
107 1 -4.85344 10.5273 1.97223 
110 1 -3.2763 8.87461 3.14212 
111 1 0.565938 5.96079 10.6985 
113 1 1.57286 6.36338 9.76237 
119 1 -4.07019 10.4168 0.770448 
127 1 -2.13907 6.3016 1.97142 
131 1 -2.38127 6.29074 11.0009 
138 1 1.39923 7.97905 0.838561 
142 1 -2.48587 8.82146 8.69604 
145 1 -4.40798 9.79046 7.49295 
151 1 -4.93701 10.3936 11.0398 
154 1 -2.91995 9.57186 9.86157 
155 1 -2.93218 6.29638 7.45218 
12 1 2.5605 7.06925 17.1845 
17 1 0.457015 9.24066 20.9013 
24 1 -3.58541 8.34007 11.8995 
27 1 -0.254984 7.14538 21.6412 
29 1 0.568332 5.95676 22.0732 
31 1 1.27766 7.19737 17.8423 
44 1 -0.19196 7.10116 20.1335 
46 1 0.125752 8.41854 19.7197 
51 1 -0.280704 7.09942 11.1403 
53 1 2.57763 7.06366 15.6758 
56 1 1.29813 7.18469 14.8988 
63 1 -2.36565 6.27781 21.7541 
66 1 -3.41663 6.74697 20.8492 
70 1 -0.149752 7.14639 12.6232 
72 1 0.483565 5.91195 13.0006 
92 1 0.970255 8.42444 14.2382 
95 1 -4.94171 10.392 21.725 
98 1 -4.63903 9.26168 20.7928 
104 1 0.470055 9.37171 11.9214 
116 1 -2.58508 8.76685 21.7644 
118 1 -3.5919 8.34099 20.8587 
122 1 0.183233 8.45527 13.0508 
133 1 -3.42336 6.74833 11.9127 
136 1 0.348274 8.44529 22.0854 
147 1 0.476681 5.89629 19.7624 
153 1 -4.63548 9.26147 11.9689 
160 1 0.904375 8.44019 18.5207 
1 1 7.73473 4.9031 10.5336 
4 1 9.08084 4.85668 10.9792 
20 1 7.74312 4.95287 9.0564 
42 1 9.42778 5.48709 7.45226 
67 1 9.91444 4.65741 0.786633 
77 1 7.73458 4.90555 0.0798714 
94 1 7.74329 4.95573 1.55529 
96 1 9.07871 4.73315 1.99708 
121 1 4.60714 5.56239 10.6967 
130 1 9.42648 5.48724 3.16168 
134 1 9.9112 4.65524 9.82732 
152 1 9.07872 4.73063 8.61499 
45 1 4.60925 5.56757 22.0716 
55 1 4.81121 5.57704 13.0816 
106 1 9.0812 4.85793 21.788 
137 1 4.80378 5.58754 19.6856 
162 2 8.09351 0.951575 13.0364 
163 3 8.8191 1.58094 13.0311 
2 1 7.29845 10.4246 9.01314 
3 1 8.95694 7.66319 6.06903 
6 1 8.49681 6.39874 6.80566 
16 1 2.39229 8.70729 0.888032 
22 1 7.00784 6.14757 8.66852 
26 1 7.20494 8.37823 7.50113 
35 1 7.29405 10.4253 10.4501 
37 1 6.93237 9.15748 10.9975 
39 1 8.31179 8.92572 6.75285 
41 1 6.6608 6.93624 9.836 
48 1 3.66924 6.37427 0.890729 
61 1 7.29603 10.4199 1.60082 
62 1 8.95637 7.66212 4.54364 
64 1 6.72091 9.13979 1.9987 
68 1 7.34968 6.93499 3.08264 
71 1 4.37904 8.47066 10.6965 
74 1 3.60749 7.79882 9.77811 
81 1 8.49507 6.39894 3.80779 
83 1 6.53996 8.36817 0.79015 
93 1 7.29165 10.4234 0.164493 
97 1 8.30884 8.92574 3.85875 
101 1 2.40265 9.84092 10.6837 
103 1 2.36077 8.7215 9.67773 
117 1 7.00753 6.15266 1.94139 
120 1 7.20461 8.37938 3.10682 
123 1 3.67437 6.35553 9.71335 
129 1 6.65751 6.94127 0.775731 
132 1 6.72656 9.14549 8.60703 
135 1 7.35106 6.9343 7.52987 
141 1 7.1771 6.21119 10.9746 
144 1 6.58122 8.36599 9.81573 
148 1 3.61635 7.81602 0.852483 
7 1 9.135 6.01447 11.9675 
10 1 3.80011 9.81741 21.6013 
13 1 2.45267 9.86305 22.0457 
15 1 3.04292 8.30885 17.8352 
28 1 3.79219 9.76483 20.1289 
30 1 4.52762 8.56672 19.7447 