ITEM: TIMESTEP
0
ITEM: NUMBER OF ATOMS
161
ITEM: BOX BOUNDS xy xz yz pp pp pp
-6.7755000000000001e+00 1.3552000000000000e+01 -6.7755000000000001e+00
0.0000000000000000e+00 1.1735510246683001e+01 0.0000000000000000e+00
0.0000000000000000e+00 2.2149999999999999e+01 0.0000000000000000e+00
ITEM: ATOMS id type x y z 
8 1 -2.486 5.297 9.849 
87 1 3.001 4.231 10.696 
90 1 2.733 5.481 9.824 
109 1 -2.486 5.297 0.765 
158 1 2.733 5.481 0.79 
11 1 4.24 4.139 20.131 
14 1 3.031 4.094 19.728 
18 1 1.299 5.827 18.554 
33 1 2.266 4.151 20.924 
43 1 4.343 3.96 21.647 
47 1 3.32 5.732 17.88 
52 1 4.24 4.139 12.633 
76 1 2.552 4.924 14.209 
85 1 4.343 3.96 11.117 
89 1 3.32 5.732 14.883 
91 1 1.036 5.037 11.84 
102 1 3.031 4.094 13.035 
105 1 1.299 5.827 14.209 
114 1 2.266 4.151 11.84 
150 1 2.552 4.924 18.554 
156 1 3.001 4.231 22.068 
159 1 1.036 5.037 20.924 
5 1 -5.049 10.63 8.653 
9 1 -3.317 8.897 7.479 
19 1 -1.707 7.414 10.572 
21 1 -2.66 8.795 10.993 
23 1 -3.31 7.532 6.805 
25 1 -4.284 10.573 9.849 
32 1 1.503 6.367 0.79 
36 1 -1.869 7.426 9.056 
38 1 -2.209 6.086 8.653 
54 1 0.3 8.576 10.696 
57 1 1.291 8.001 9.824 
60 1 -1.707 7.414 0.042 
65 1 -3.31 7.532 3.808 
78 1 -1.869 7.426 1.558 
80 1 -2.566 8.842 1.961 
84 1 -4.57 9.799 3.135 
99 1 -3.054 9.687 0.765 
100 1 -2.96 6.142 3.135 
107 1 -5.049 10.63 1.961 
110 1 -3.317 8.897 3.135 
111 1 0.642 5.929 10.696 
113 1 1.503 6.367 9.824 
119 1 -4.284 10.573 0.765 
127 1 -2.209 6.086 1.961 
131 1 -2.318 6.148 10.993 
138 1 1.291 8.001 0.79 
142 1 -2.566 8.842 8.653 
145 1 -4.57 9.799 7.479 
151 1 -5.019 10.493 10.993 
154 1 -3.054 9.687 9.849 
155 1 -2.96 6.142 7.479 
161 2 -1.109 6.086 8.653 
12 1 2.53 7.1 17.202 
17 1 0.468 9.427 20.924 
24 1 -3.52 8.357 11.865 
27 1 -0.31 7.31 21.647 
29 1 0.642 5.929 22.068 
31 1 1.292 7.192 17.88 
44 1 -0.148 7.298 20.131 
46 1 0.191 8.638 19.728 
51 1 -0.31 7.31 11.117 
53 1 2.53 7.1 15.561 
56 1 1.292 7.192 14.883 
63 1 -2.318 6.148 21.771 
66 1 -3.309 6.723 20.899 
70 1 -0.148 7.298 12.633 
72 1 0.548 5.882 13.035 
92 1 0.942 8.582 14.209 
95 1 -5.019 10.493 21.771 
98 1 -4.751 9.243 20.899 
104 1 0.468 9.427 11.84 
116 1 -2.66 8.795 21.771 
118 1 -3.52 8.357 20.899 
122 1 0.191 8.638 13.035 
133 1 -3.309 6.723 11.865 
136 1 0.3 8.576 22.068 
147 1 0.548 5.882 19.728 
153 1 -4.751 9.243 11.865 
160 1 0.942 8.582 18.554 
1 1 7.976 4.694 10.572 
4 1 9.274 4.77 10.993 
20 1 8.034 4.861 9.056 
42 1 9.55 5.41 7.479 
67 1 10.043 4.578 0.765 
77 1 7.976 4.694 0.042 
94 1 8.035 4.861 1.558 
96 1 9.278 4.635 1.961 
121 1 4.688 5.417 10.696 
130 1 9.55 5.41 3.135 
134 1 10.043 4.578 9.849 
152 1 9.278 4.635 8.653 
45 1 4.688 5.417 22.068 
55 1 4.788 5.329 13.035 
106 1 9.274 4.77 21.771 
137 1 4.788 5.329 19.728 
2 1 7.294 10.585 9.056 
3 1 9.004 7.624 6.127 
6 1 8.556 6.347 6.805 
16 1 2.314 8.72 0.79 
22 1 7.166 6.156 8.653 
26 1 7.226 8.565 7.479 
35 1 7.191 10.764 10.572 
37 1 6.846 9.307 10.993 
39 1 8.214 8.992 6.805 
41 1 6.677 7.002 9.849 
48 1 3.775 6.213 0.79 
61 1 7.294 10.585 1.558 
62 1 9.004 7.624 4.487 
64 1 6.747 9.395 1.961 
68 1 7.437 6.931 3.135 
71 1 4.29 8.493 10.696 
74 1 3.567 7.818 9.824 
81 1 8.556 6.347 3.808 
83 1 6.47 8.606 0.765 
93 1 7.191 10.764 0.042 
97 1 8.214 8.992 3.808 
101 1 2.261 9.954 10.696 
103 1 2.314 8.72 9.824 
117 1 7.166 6.156 1.961 
120 1 7.226 8.565 3.135 
123 1 3.775 6.213 9.824 
129 1 6.677 7.002 0.765 
132 1 6.747 9.395 8.653 
135 1 7.437 6.931 7.479 
141 1 7.244 6.231 10.993 
144 1 6.47 8.606 9.849 
148 1 3.567 7.818 0.79 
7 1 9.22 6.004 11.865 
10 1 3.558 10.029 21.647 
13 1 2.261 9.954 22.068 
15 1 2.978 8.376 17.88 
28 1 3.5 9.862 20.131 
30 1 4.369 8.568 19.728 
34 1 4.308 6.159 18.554 
40 1 7.76 8.511 11.865 
49 1 4.857 7.722 20.924 
50 1 1.984 9.314 18.554 
58 1 1.491 10.146 11.84 
59 1 4.097 7.793 14.209 
69 1 3.558 10.029 11.117 
73 1 2.978 8.376 14.883 
75 1 5.064 6.118 11.84 
79 1 7.244 6.231 21.771 
82 1 7.967 6.906 20.899 
86 1 3.5 9.862 12.633 
88 1 2.256 10.089 13.035 
108 1 9.22 6.004 20.899 
112 1 4.369 8.568 13.035 
115 1 4.308 6.159 14.209 
124 1 4.857 7.722 11.84 
125 1 1.984 9.314 14.209 
126 1 6.846 9.307 21.771 
128 1 7.76 8.511 20.899 
139 1 1.491 10.146 20.924 
140 1 4.097 7.793 18.554 
143 1 7.967 6.906 11.865 
146 1 4.29 8.493 22.068 
149 1 5.064 6.118 20.924 
157 1 2.256 10.089 19.728 
ITEM: TIMESTEP
10
ITEM: NUMBER OF ATOMS
161
ITEM: BOX BOUNDS xy xz yz pp pp pp
-6.7755000000000001e+00 1.3552000000000000e+01 -6.7755000000000001e+00
0.0000000000000000e+00 1.1735510246683001e+01 0.0000000000000000e+00
0.0000000000000000e+00 2.2149999999999999e+01 0.0000000000000000e+00
ITEM: ATOMS id type x y z 
8 1 -2.44416 5.34414 9.95499 
87 1 2.97262 4.27051 10.6565 
90 1 2.67296 5.44716 9.77084 
109 1 -2.4295 5.38485 0.75818 
158 1 2.67125 5.44745 0.843342 
11 1 4.28291 4.23141 20.1275 
14 1 2.91347 4.12259 19.7105 
18 1 1.31191 5.86424 18.5772 
33 1 2.11871 4.25323 20.9092 
43 1 4.3046 4.16956 21.572 
47 1 3.24895 5.78687 17.821 
52 1 4.28181 4.23571 12.6328 
76 1 2.44329 4.87676 14.1726 
85 1 4.30142 4.17462 11.186 
89 1 3.24487 5.78511 14.9379 
91 1 0.965337 5.10041 11.8599 
102 1 2.9108 4.12683 13.0609 
105 1 1.31473 5.85241 14.1867 
114 1 2.11847 4.25276 11.8569 
150 1 2.4349 4.87656 18.5871 
156 1 2.97387 4.27608 22.1056 
159 1 0.966808 5.09664 20.9042 
5 1 -4.93056 10.5951 8.60726 
9 1 -3.35343 8.86823 7.50172 
19 1 -1.77064 7.51563 10.5514 
21 1 -2.60983 8.79904 10.9718 
23 1 -3.32139 7.53142 6.82369 
25 1 -4.13606 10.4886 9.84213 
32 1 1.59835 6.34866 0.779924 
36 1 -1.91261 7.60512 9.09074 
38 1 -2.05446 6.20764 8.6168 
54 1 0.299082 8.51847 10.6675 
57 1 1.35785 7.98856 9.78711 
60 1 -1.76934 7.519 0.0543753 
65 1 -3.30568 7.52725 3.77901 
78 1 -1.90252 7.55957 1.54935 
80 1 -2.55006 8.7725 1.89116 
84 1 -4.4403 9.82906 3.1128 
99 1 -2.96835 9.62264 0.781824 
100 1 -2.94562 6.26814 3.18358 
107 1 -4.92256 10.6113 1.99111 
110 1 -3.33475 8.85486 3.10959 
111 1 0.600215 5.9692 10.7467 
113 1 1.59997 6.352 9.83325 
119 1 -4.10893 10.4749 0.799085 
127 1 -2.1539 6.21447 1.97207 
131 1 -2.34211 6.20735 10.992 
138 1 1.33829 7.9974 0.811928 
142 1 -2.56785 8.81969 8.70177 
145 1 -4.44675 9.82581 7.5219 
151 1 -4.99585 10.4032 11.0543 
154 1 -2.99159 9.63417 9.85102 
155 1 -2.95963 6.26824 7.38586 
161 2 -0.976694 5.99493 8.56525 
12 1 2.55295 7.06253 17.1123 
17 1 0.404826 9.33288 20.9356 
24 1 -3.53895 8.36323 11.8519 
27 1 -0.250001 7.2213 21.6216 
29 1 0.59704 5.97879 22.0235 
31 1 1.27737 7.20236 17.9065 
44 1 -0.108664 7.17203 20.155 
46 1 0.133633 8.49778 19.7196 
51 1 -0.258785 7.19264 11.1466 
53 1 2.55957 7.06074 15.6567 
56 1 1.2718 7.20351 14.864 
63 1 -2.33546 6.21739 21.7598 
66 1 -3.35519 6.71697 20.878 
70 1 -0.112482 7.18746 12.6217 
72 1 0.524871 5.94063 12.9559 
92 1 0.907866 8.46544 14.2439 
95 1 -5.0273 10.4524 21.7003 
98 1 -4.67826 9.27834 20.8122 
104 1 0.400784 9.3431 11.8632 
116 1 -2.60193 8.74138 21.848 
118 1 -3.59684 8.37019 20.8932 
122 1 0.140065 8.48954 13.0435 
133 1 -3.36888 6.78341 11.9033 
136 1 0.313675 8.49782 22.0742 
147 1 0.524646 5.95008 19.7989 
153 1 -4.67166 9.21081 11.8966 
160 1 0.919367 8.45492 18.5073 
1 1 7.85568 4.90708 10.561 
4 1 9.17742 4.81249 11.0438 
20 1 7.85027 4.9263 9.04682 
42 1 9.47003 5.43618 7.41986 
67 1 9.9748 4.57691 0.740319 
77 1 7.87833 4.92817 0.103039 
94 1 7.87072 4.97079 1.54305 
96 1 9.17186 4.65938 1.99584 
121 1 4.6717 5.44157 10.7198 
130 1 9.46849 5.43898 3.17095 
134 1 9.95953 4.53179 9.8765 
152 1 9.18845 4.64876 8.60505 
45 1 4.66625 5.44364 22.0452 
55 1 4.81355 5.47616 13.0601 
106 1 9.17924 4.78883 21.7597 
137 1 4.81744 5.47017 19.7076 
2 1 7.25284 10.5171 9.0677 
3 1 8.98007 7.65874 6.04511 
6 1 8.531 6.39413 6.81038 
16 1 2.35556 8.70006 0.84708 
22 1 7.12458 6.18536 8.72549 
26 1 7.17365 8.4279 7.54534 
35 1 7.25428 10.5494 10.5096 
37 1 6.8452 9.2662 10.9998 
39 1 8.2969 8.94548 6.74471 
41 1 6.72174 7.02017 9.82997 
48 1 3.70568 6.37107 0.837805 
61 1 7.22691 10.5285 1.56821 
62 1 8.97999 7.65329 4.56993 
64 1 6.70019 9.23032 1.9929 
68 1 7.40138 6.977 3.03038 
71 1 4.31026 8.53429 10.7685 
74 1 3.60773 7.77768 9.82259 
81 1 8.51608 6.3841 3.77705 
83 1 6.55482 8.43523 0.769284 
93 1 7.19096 10.5727 0.127819 
97 1 8.28257 8.92263 3.85805 
101 1 2.35571 9.93896 10.6774 
103 1 2.35973 8.70252 9.76818 
117 1 7.14956 6.18673 1.90392 
120 1 7.17089 8.38155 3.06157 
123 1 3.70613 6.37087 9.77798 
129 1 6.73444 7.01703 0.797692 
132 1 6.7032 9.2429 8.63331 
135 1 7.3632 6.95643 7.55944 
141 1 7.22856 6.2088 10.9293 
144 1 6.54486 8.41725 9.82808 
148 1 3.60901 7.77725 0.791397 
7 1 9.18046 6.04086 11.9145 
10 1 3.65682 9.78922 21.6277 
13 1 2.35307 9.94152 22.0855 
15 1 3.02117 8.35264 17.8997 
28 1 3.68905 9.78717 20.1143 
30 1 4.40565 8.50756 19.7848 
34 1 4.36999 6.31952 18.6374 
40 1 7.7284 8.38821 11.8822 
49 1 4.80061 7.72238 20.895 
50 1 2.05517 9.30175 18.5248 
58 1 1.56199 10.1583 11.823 
59 1 4.15532 7.75556 14.1036 
69 1 3.65437 9.78589 11.1372 
73 1 3.02212 8.35514 14.8647 
75 1 4.98844 6.28113 11.8628 
79 1 7.22451 6.18 21.8569 
82 1 7.92353 6.90798 20.8942 
86 1 3.68463 9.79354 12.6461 
88 1 2.33118 10.0664 13.0792 
108 1 9.18157 6.01878 20.8448 
112 1 4.4086 8.50992 12.9755 
115 1 4.36965 6.31322 14.121 
124 1 4.80259 7.7195 11.8635 
125 1 2.05715 9.30529 14.2393 
126 1 6.88425 9.31217 21.813 
128 1 7.81893 8.34576 20.8217 
139 1 1.55571 10.1557 20.9417 
140 1 4.15396 7.75917 18.6638 
143 1 7.9084 6.97553 11.8623 
146 1 4.31193 8.53335 21.9969 
149 1 4.98761 6.28333 20.9063 
157 1 2.32937 10.067 19.683 
ITEM: TIMESTEP
20
ITEM: NUMBER OF ATOMS
161
ITEM: BOX BOUNDS xy xz yz pp pp pp
-6.7755000000000001e+00 1.3552000000000000e+01 -6.7755000000000001e+00
0.0000000000000000e+00 1.1735510246683001e+01 0.0000000000000000e+00
0.0000000000000000e+00 2.2149999999999999e+01 0.0000000000000000e+00
ITEM: ATOMS id type x y z 
8 1 -2.46167 5.35998 9.9209 
87 1 2.95868 4.27223 10.6542 
90 1 2.66288 5.44092 9.75705 
109 1 -2.42778 5.39787 0.777218 
158 1 2.6649 5.43942 0.856742 
11 1 4.27355 4.22761 20.1159 
14 1 2.88278 4.14011 19.7037 
18 1 1.30763 5.85602 18.5796 
33 1 2.10082 4.26384 20.9037 
43 1 4.29419 4.19645 21.5678 
47 1 3.25175 5.78856 17.8392 
52 1 4.2735 4.22817 12.6476 
76 1 2.43788 4.91541 14.1868 
85 1 4.29367 4.19458 11.1956 
89 1 3.25208 5.78932 14.9215 
91 1 0.956184 5.11049 11.8466 
102 1 2.88377 4.14083 13.0612 
105 1 1.30416 5.85597 14.1868 
114 1 2.10267 4.26138 11.8605 
150 1 2.43467 4.91413 18.5768 
156 1 2.95869 4.27208 22.1085 
159 1 0.956861 5.11314 20.9176 
5 1 -4.90894 10.5847 8.62785 
9 1 -3.32955 8.87623 7.4973 
19 1 -1.76915 7.53336 10.5449 
21 1 -2.59059 8.8018 10.9707 
23 1 -3.30547 7.53604 6.81709 
25 1 -4.12569 10.4695 9.838 
32 1 1.59799 6.35482 0.782216 
36 1 -1.91494 7.62394 9.09772 
38 1 -2.04251 6.2021 8.61659 
54 1 0.310604 8.49786 10.6805 
57 1 1.36015 7.99469 9.7877 
60 1 -1.76528 7.53016 0.0573292 
65 1 -3.30177 7.53952 3.79084 
78 1 -1.88236 7.56055 1.55455 
80 1 -2.54512 8.79407 1.89433 
84 1 -4.45703 9.8018 3.10958 
99 1 -2.97552 9.61329 0.77316 
100 1 -2.93423 6.2738 3.1746 
107 1 -4.90738 10.5797 1.98786 
110 1 -3.31939 8.87097 3.11033 
111 1 0.609165 5.97014 10.7372 
113 1 1.59831 6.35889 9.83333 
119 1 -4.12168 10.4525 0.781361 
127 1 -2.15564 6.23277 1.9709 
131 1 -2.34042 6.21727 10.9969 
138 1 1.36122 7.99869 0.824707 
142 1 -2.55128 8.81563 8.71654 
145 1 -4.46059 9.80623 7.50442 
151 1 -4.97838 10.3959 11.0485 
154 1 -2.98349 9.63333 9.85291 
155 1 -2.96199 6.27594 7.39951 
161 2 -0.962089 5.97786 8.54708 
12 1 2.56304 7.05236 17.1314 
17 1 0.405372 9.32787 20.9155 
24 1 -3.52953 8.35784 11.8635 
27 1 -0.252891 7.19111 21.6355 
29 1 0.610235 5.96946 22.028 
31 1 1.30107 7.19938 17.9024 
44 1 -0.130762 7.1623 20.1377 
46 1 0.133291 8.48888 19.7201 
51 1 -0.252749 7.1887 11.1276 
53 1 2.56289 7.06938 15.6163 
56 1 1.2856 7.19037 14.8624 
63 1 -2.32978 6.22506 21.7572 
66 1 -3.38034 6.73349 20.8642 
70 1 -0.132085 7.16534 12.6234 
72 1 0.526346 5.92844 12.9739 
92 1 0.911425 8.45463 14.2506 
95 1 -4.98455 10.4407 21.7295 
98 1 -4.68131 9.26674 20.8293 
104 1 0.405323 9.32122 11.8517 
116 1 -2.62179 8.75842 21.8163 
118 1 -3.60524 8.36859 20.9022 
122 1 0.137525 8.48999 13.0487 
133 1 -3.38984 6.78619 11.9154 
136 1 0.312744 8.49646 22.0847 
147 1 0.528081 5.92796 19.789 
153 1 -4.67345 9.19274 11.9157 
160 1 0.906594 8.46313 18.5157 
1 1 7.85018 4.924 10.5377 
4 1 9.13659 4.81577 11.0289 
20 1 7.84814 4.94026 9.06624 
42 1 9.45281 5.45209 7.44056 
67 1 9.96912 4.57773 0.763196 
77 1 7.84796 4.91713 0.0866783 
94 1 7.84645 4.94705 1.55408 
96 1 9.1702 4.66888 1.99886 
121 1 4.65856 5.47984 10.6956 
130 1 9.45487 5.44765 3.17418 
134 1 9.95061 4.56178 9.8577 
152 1 9.16992 4.67673 8.61746 
45 1 4.65783 5.48112 22.0677 
55 1 4.8246 5.50956 13.0661 
106 1 9.15593 4.79918 21.7538 
137 1 4.82723 5.50724 19.7001 
2 1 7.26119 10.5021 9.0523 
3 1 8.96093 7.65784 6.0646 
6 1 8.50231 6.39765 6.818 
16 1 2.36213 8.69534 0.859556 
22 1 7.11385 6.17862 8.70841 
26 1 7.19717 8.41711 7.53748 
35 1 7.25213 10.5315 10.4931 
37 1 6.84598 9.23933 11.0148 
39 1 8.27622 8.93536 6.76013 
41 1 6.71234 6.99545 9.82732 
48 1 3.69661 6.35915 0.832896 
61 1 7.25713 10.5016 1.573 
62 1 8.97379 7.64995 4.54049 
64 1 6.70461 9.2176 1.99163 
68 1 7.39949 6.96093 3.0595 
71 1 4.31716 8.51793 10.7442 
74 1 3.60163 7.79178 9.81028 
81 1 8.51622 6.38739 3.79463 
83 1 6.55183 8.4353 0.780767 
93 1 7.2316 10.5414 0.136011 
97 1 8.28269 8.92821 3.84686 
101 1 2.37528 9.92961 10.6789 
103 1 2.36159 8.69456 9.75028 
117 1 7.11089 6.18578 1.90619 
120 1 7.1865 8.41985 3.07834 
123 1 3.70048 6.35837 9.78063 
129 1 6.72144 7.00049 0.779541 
132 1 6.71123 9.20842 8.62585 
135 1 7.3823 6.96232 7.55234 
141 1 7.22325 6.20747 10.9386 
144 1 6.53843 8.41951 9.81124 
148 1 3.59775 7.79319 0.803074 
7 1 9.16637 6.06999 11.9287 
10 1 3.68565 9.80032 21.602 
13 1 2.37956 9.92905 22.0829 
15 1 3.0128 8.33097 17.8955 
28 1 3.69184 9.77654 20.1383 
30 1 4.42607 8.53751 19.7815 
34 1 4.34456 6.30935 18.6155 
40 1 7.73558 8.38469 11.8943 
49 1 4.82029 7.72915 20.9124 
50 1 2.06091 9.28162 18.515 
58 1 1.56303 10.1501 11.837 
59 1 4.13867 7.7606 14.1355 
69 1 3.68335 9.80665 11.1606 
73 1 3.02181 8.33466 14.8629 
75 1 4.99604 6.29028 11.862 
79 1 7.21447 6.20557 21.8285 
82 1 7.93341 6.92859 20.8847 
86 1 3.6885 9.7788 12.6304 
88 1 2.36533 10.0578 13.077 
108 1 9.17676 6.02608 20.83 
112 1 4.42242 8.54314 12.9838 
115 1 4.34085 6.30696 14.1491 
124 1 4.82376 7.72761 11.8536 
125 1 2.07557 9.27619 14.2527 
126 1 6.87737 9.25233 21.7781 
128 1 7.83553 8.35794 20.8397 
139 1 1.56059 10.1518 20.9331 
140 1 4.14509 7.75846 18.6347 
143 1 7.90926 6.96349 11.871 
146 1 4.31852 8.52038 22.0149 
149 1 4.99307 6.29241 20.9022 
157 1 2.36584 10.0625 19.6869 
ITEM: TIMESTEP
30
ITEM: NUMBER OF ATOMS
161
ITEM: BOX BOUNDS xy xz yz pp pp pp
-6.7755000000000001e+00 1.3552000000000000e+01 -6.7755000000000001e+00
0.0000000000000000e+00 1.1735510246683001e+01 0.0000000000000000e+00
0.0000000000000000e+00 2.2149999999999999e+01 0.0000000000000000e+00
ITEM: ATOMS id type x y z 
8 1 -2.48546 5.40052 9.90449 
87 1 2.94432 4.29431 10.6484 
90 1 2.6428 5.44082 9.75749 
109 1 -2.44187 5.42632 0.786079 
158 1 2.6415 5.44063 0.85661 
11 1 4.26289 4.24692 20.1105 
14 1 2.86794 4.16609 19.7046 
18 1 1.28773 5.85234 18.5671 
33 1 2.07853 4.27887 20.9048 
43 1 4.27501 4.23502 21.5466 
47 1 3.2468 5.79896 17.8273 
52 1 4.26268 4.24681 12.6529 
76 1 2.43024 4.93065 14.1869 
85 1 4.2749 4.23398 11.2167 
89 1 3.24431 5.79975 14.9331 
91 1 0.947658 5.12718 11.8381 
102 1 2.86936 4.16511 13.0579 
105 1 1.28525 5.84993 14.1971 
114 1 2.07836 4.27805 11.8594 
150 1 2.43281 4.93092 18.5769 
156 1 2.94406 4.29342 22.1149 
159 1 0.947905 5.12829 20.9267 
5 1 -4.89243 10.5598 8.63338 
9 1 -3.30923 8.88215 7.4902 
19 1 -1.76703 7.54844 10.5449 
21 1 -2.56841 8.80676 10.9841 
23 1 -3.30315 7.53949 6.81782 
25 1 -4.10596 10.4551 9.83846 
32 1 1.60293 6.37717 0.792682 
36 1 -1.90767 7.63238 9.09844 
38 1 -2.02242 6.20003 8.61467 
54 1 0.325 8.47611 10.6767 
57 1 1.37353 7.98177 9.79029 
60 1 -1.76964 7.54412 0.0541571 
65 1 -3.29677 7.54313 3.79321 
78 1 -1.86354 7.57832 1.54834 
80 1 -2.52551 8.80397 1.90184 
84 1 -4.44966 9.7933 3.10941 
99 1 -2.96239 9.59239 0.761781 
100 1 -2.93738 6.28693 3.16878 
107 1 -4.89176 10.5558 1.98094 
110 1 -3.30349 8.87455 3.1221 
111 1 0.600764 5.96197 10.7195 
113 1 1.60345 6.37815 9.82416 
119 1 -4.0991 10.4415 0.786576 
127 1 -2.15626 6.25172 1.97406 
131 1 -2.35661 6.23558 11.0062 
138 1 1.37685 7.98045 0.825662 
142 1 -2.54148 8.8181 8.71737 
145 1 -4.45291 9.79298 7.50425 
151 1 -4.96666 10.3719 11.0464 
154 1 -2.95826 9.62287 9.8571 
155 1 -2.95728 6.29618 7.41493 
161 2 -0.947608 5.95773 8.52116 
12 1 2.57022 7.07345 17.1532 
17 1 0.425134 9.29862 20.903 
24 1 -3.51756 8.34099 11.8746 
27 1 -0.248853 7.17807 21.6358 
29 1 0.598711 5.9623 22.0454 
31 1 1.27727 7.17956 17.8962 
44 1 -0.151895 7.14508 20.1441 
46 1 0.137451 8.47566 19.7177 
51 1 -0.251058 7.17711 11.1259 
53 1 2.5681 7.07493 15.6103 
56 1 1.27922 7.18079 14.8673 
63 1 -2.3439 6.2444 21.7511 
66 1 -3.39262 6.74575 20.8663 
70 1 -0.152084 7.14523 12.6199 
72 1 0.506767 5.91999 12.9778 
92 1 0.91804 8.4386 14.2462 
95 1 -4.96194 10.4342 21.7228 
98 1 -4.66256 9.28052 20.8338 
104 1 0.425439 9.29665 11.8602 
116 1 -2.61729 8.76118 21.7932 
118 1 -3.61929 8.34335 20.8975 
122 1 0.138259 8.47174 13.0475 
133 1 -3.39839 6.80304 11.9131 
136 1 0.324285 8.48272 22.0898 
147 1 0.506108 5.91987 19.788 
153 1 -4.66829 9.18521 11.9228 
160 1 0.915603 8.441 18.5194 
1 1 7.80112 4.92532 10.5394 
4 1 9.12844 4.85584 11.0305 
20 1 7.82442 4.94862 9.06293 
42 1 9.4453 5.48172 7.45181 
67 1 9.95311 4.59744 0.778371 
77 1 7.80626 4.92128 0.0829255 
94 1 7.81497 4.94976 1.5466 
96 1 9.1494 4.69362 1.99837 
121 1 4.63923 5.51843 10.6838 
130 1 9.4455 5.46326 3.1692 
134 1 9.94256 4.59673 9.85651 
152 1 9.14998 4.70173 8.61824 
45 1 4.63853 5.51904 22.0801 
55 1 4.81776 5.53548 13.0655 
106 1 9.13091 4.82877 21.7652 
137 1 4.81758 5.53572 19.6974 
2 1 7.27256 10.4783 9.04563 
3 1 8.95017 7.65691 6.07217 
6 1 8.49113 6.40084 6.79939 
16 1 2.36753 8.70071 0.868333 
22 1 7.08369 6.16648 8.69486 
26 1 7.19427 8.41029 7.53145 
35 1 7.26916 10.4878 10.486 
37 1 6.84519 9.20931 11.0192 
39 1 8.28508 8.92622 6.74929 
41 1 6.69483 6.97875 9.83485 
48 1 3.70067 6.35062 0.839698 
61 1 7.26573 10.479 1.58343 
62 1 8.9672 7.64837 4.53636 
64 1 6.71795 9.19254 1.99411 
68 1 7.38255 6.95873 3.06576 
71 1 4.31964 8.51528 10.7394 
74 1 3.59658 7.80478 9.80156 
81 1 8.50769 6.39378 3.80541 
83 1 6.54618 8.40609 0.795631 
93 1 7.25917 10.4861 0.140482 
97 1 8.28986 8.92167 3.85686 
101 1 2.40088 9.89485 10.6905 
103 1 2.36851 8.70027 9.74543 
117 1 7.08368 6.17761 1.91625 
120 1 7.19306 8.41049 3.08002 
123 1 3.70168 6.35092 9.77371 
129 1 6.70624 6.98026 0.772003 
132 1 6.71969 9.18868 8.62438 
135 1 7.37187 6.95369 7.54563 
141 1 7.20784 6.21422 10.9451 
144 1 6.532 8.39991 9.80721 
148 1 3.59799 7.80441 0.812657 
7 1 9.15393 6.07033 11.9285 
10 1 3.72182 9.79594 21.6053 
13 1 2.40341 9.89839 22.0729 
15 1 3.02978 8.32893 17.8847 
28 1 3.72024 9.77483 20.1395 
30 1 4.45293 8.54727 19.7736 
34 1 4.33695 6.31181 18.609 
40 1 7.73475 8.37958 11.9054 
49 1 4.83458 7.74353 20.9159 
50 1 2.0899 9.26068 18.5226 
58 1 1.57846 10.1245 11.8571 
59 1 4.15233 7.76867 14.1391 
69 1 3.72557 9.79971 11.1561 
73 1 3.02858 8.32923 14.8788 
75 1 4.99555 6.32081 11.8676 
79 1 7.21338 6.20899 21.8145 
82 1 7.93776 6.91773 20.8737 
86 1 3.71785 9.77563 12.6215 
88 1 2.38146 10.0295 13.0728 
108 1 9.16816 6.0243 20.8216 
112 1 4.45214 8.5465 12.9921 
115 1 4.33624 6.31403 14.156 
124 1 4.83216 7.74424 11.8461 
125 1 2.08987 9.26096 14.2429 
126 1 6.89126 9.20884 21.7551 
128 1 7.83706 8.36876 20.848 
139 1 1.58054 10.1271 20.9072 
140 1 4.14895 7.7678 18.6238 
143 1 7.90368 6.95649 11.891 
146 1 4.32302 8.51635 22.0261 
149 1 4.99384 6.32161 20.8965 
157 1 2.38002 10.0289 19.6925 
ITEM: TIMESTEP
40
ITEM: NUMBER OF ATOMS
161
ITEM: BOX BOUNDS xy xz yz pp pp pp
-6.7755000000000001e+00 1.3552000000000000e+01 -6.7755000000000001e+00
0.0000000000000000e+00 1.1735510246683001e+01 0.0000000000000000e+00
0.0000000000000000e+00 2.2149999999999999e+01 0.0000000000000000e+00
ITEM: ATOMS id type x y z 
8 1 -2.50975 5.48001 9.90186 
87 1 2.92503 4.32712 10.6525 
90 1 2.62511 5.46179 9.71162 
109 1 -2.47699 5.48716 0.785692 
158 1 2.62632 5.46229 0.90186 
11 1 4.23474 4.30529 20.0812 
14 1 2.84105 4.19269 19.7258 
18 1 1.25864 5.84822 18.5531 
33 1 2.05276 4.30786 20.915 
43 1 4.23954 4.30431 21.5276 
47 1 3.21818 5.80029 17.833 
52 1 4.23868 4.30349 12.6842 
76 1 2.38852 4.933 14.2006 
85 1 4.23898 4.30156 11.2345 
89 1 3.22224 5.79826 14.9322 
91 1 0.898713 5.14622 11.8381 
102 1 2.83454 4.19335 13.0459 
105 1 1.25712 5.84764 14.2186 
114 1 2.05276 4.30629 11.8448 
150 1 2.385 4.93104 18.5618 
156 1 2.92659 4.32887 22.1125 
159 1 0.897335 5.14859 20.9276 
5 1 -4.85682 10.5314 8.65527 
9 1 -3.28996 8.88226 7.46729 
19 1 -1.75276 7.58554 10.543 
21 1 -2.52135 8.82732 11.0126 
23 1 -3.3056 7.53239 6.81864 
25 1 -4.07117 10.4145 9.86292 
32 1 1.56641 6.38968 0.828567 
36 1 -1.87478 7.64844 9.08758 
38 1 -1.96143 6.22221 8.59894 
54 1 0.347613 8.44579 10.682 
57 1 1.40139 7.97543 9.76906 
60 1 -1.76079 7.58167 0.041583 
65 1 -3.30135 7.53447 3.79868 
78 1 -1.82456 7.62406 1.55984 
80 1 -2.48224 8.82475 1.92072 
84 1 -4.4056 9.79142 3.12435 
99 1 -2.92105 9.5769 0.761701 
100 1 -2.93166 6.29262 3.16431 
107 1 -4.85147 10.5326 1.96791 
110 1 -3.27721 8.87288 3.14075 
111 1 0.568238 5.95649 10.6893 
113 1 1.57057 6.38955 9.78467 
119 1 -4.0722 10.4135 0.770256 
127 1 -2.13458 6.30201 1.96647 
131 1 -2.37279 6.28053 11.0184 
138 1 1.40075 7.9793 0.840355 
142 1 -2.5102 8.82321 8.70084 
145 1 -4.4104 9.79756 7.49282 
151 1 -4.95199 10.3065 11.0448 
154 1 -2.89865 9.61601 9.87514 
155 1 -2.94991 6.30989 7.43737 
161 2 -0.907459 5.90752 8.45406 
12 1 2.56952 7.05691 17.1417 
17 1 0.449045 9.24288 20.901 
24 1 -3.47669 8.34995 11.9091 
27 1 -0.253784 7.14436 21.6502 
29 1 0.568859 5.96084 22.0774 
31 1 1.28673 7.19628 17.8878 
44 1 -0.196617 7.10793 20.1268 
46 1 0.118982 8.41101 19.7144 
51 1 -0.254737 7.13457 11.1199 
53 1 2.57443 7.05517 15.6226 
56 1 1.28407 7.1909 14.8767 
63 1 -2.3664 6.27649 21.7565 
66 1 -3.41875 6.74047 20.8482 
70 1 -0.199536 7.10332 12.6327 
72 1 0.464896 5.89375 12.9938 
92 1 0.915899 8.42784 14.2373 
95 1 -4.94866 10.3867 21.7248 
98 1 -4.63495 9.25845 20.7859 
104 1 0.452681 9.23491 11.8627 
116 1 -2.58353 8.76285 21.7644 
118 1 -3.58664 8.34075 20.859 
122 1 0.120255 8.41843 13.0466 
133 1 -3.40872 6.81662 11.9317 
136 1 0.349215 8.43941 22.0923 
147 1 0.471991 5.89731 19.7666 
153 1 -4.64499 9.14054 11.9672 
160 1 0.916431 8.42364 18.5242 
1 1 7.72385 4.8957 10.5333 
4 1 9.01883 4.90203 11.0104 
20 1 7.76979 4.96989 9.11327 
42 1 9.44128 5.52118 7.46026 
67 1 9.92085 4.66103 0.786938 
77 1 7.72347 4.8959 0.0784714 
94 1 7.73968 4.95452 1.54933 
96 1 9.0727 4.73357 1.99714 
121 1 4.61097 5.56327 10.6899 
130 1 9.42597 5.48706 3.16612 
134 1 9.90264 4.67234 9.84073 
152 1 9.08778 4.73942 8.62787 
45 1 4.60709 5.56379 22.0712 
55 1 4.81454 5.58258 13.0757 
106 1 9.07124 4.85713 21.7894 
137 1 4.81427 5.58022 19.6935 
2 1 7.30124 10.4246 9.02477 
3 1 8.93134 7.6755 6.06131 
6 1 8.48082 6.40806 6.79457 
16 1 2.39595 8.70562 0.884794 
22 1 7.00798 6.14187 8.66639 
26 1 7.19923 8.37372 7.50051 
35 1 7.29283 10.4213 10.4569 
37 1 6.85961 9.15464 11.0224 
39 1 8.29531 8.93583 6.75671 
41 1 6.64441 6.94738 9.82808 
48 1 3.66199 6.37821 0.896642 
61 1 7.29933 10.42 1.59941 
62 1 8.95634 7.67223 4.54261 
64 1 6.71093 9.13197 1.99212 
68 1 7.34918 6.92979 3.08766 
71 1 4.35693 8.51721 10.7128 
74 1 3.61591 7.81481 9.75415 
81 1 8.49418 6.39343 3.80093 
83 1 6.5441 8.37028 0.786066 
93 1 7.28882 10.4311 0.171055 
97 1 8.30935 8.93353 3.85521 
101 1 2.45914 9.86763 10.7141 
103 1 2.39414 8.70043 9.72284 
117 1 7.0085 6.15311 1.93507 
120 1 7.20664 8.37598 3.11197 
123 1 3.66578 6.37705 9.71527 
129 1 6.65488 6.95075 0.776976 
132 1 6.71457 9.13718 8.62139 
135 1 7.34038 6.93418 7.51912 
141 1 7.15934 6.21076 10.9581 
144 1 6.51696 8.36567 9.81057 
148 1 3.61062 7.81494 0.85779 
7 1 9.11443 6.10578 11.9585 
10 1 3.80527 9.82909 21.6068 
13 1 2.45529 9.85709 22.0507 
15 1 3.038 8.33475 17.8822 
28 1 3.79629 9.7632 20.1359 
30 1 4.52178 8.57591 19.7494 
34 1 4.32722 6.35337 18.574 
40 1 7.74134 8.36029 11.9502 
49 1 4.88451 7.78843 20.9076 
50 1 2.10216 9.22799 18.5158 
58 1 1.61375 10.0667 11.848 
59 1 4.18694 7.7869 14.1632 
69 1 3.80504 9.82945 11.1542 
73 1 3.041 8.33252 14.8817 
75 1 4.99952 6.35414 11.8602 
79 1 7.17571 6.20729 21.7915 
82 1 7.91758 6.90587 20.8329 
86 1 3.80292 9.76846 12.6273 
88 1 2.4632 9.99444 13.0784 
108 1 9.14084 6.02767 20.7977 
112 1 4.52438 8.57721 13.0097 
115 1 4.32826 6.35108 14.1848 
124 1 4.88049 7.78186 11.856 
125 1 2.10259 9.22722 14.2495 
126 1 6.93177 9.15123 21.7703 
128 1 7.86618 8.34681 20.7922 
139 1 1.61894 10.073 20.9224 
140 1 4.19237 7.78787 18.6109 
143 1 7.86414 6.93072 11.9397 
146 1 4.36441 8.51272 22.0513 
149 1 4.9986 6.35145 20.9038 
157 1 2.47633 9.99306 19.6839 
ITEM: TIMESTEP
50
ITEM: NUMBER OF ATOMS
161
ITEM: BOX BOUNDS xy xz yz pp pp pp
-6.7755000000000001e+00 1.3552000000000000e+01 -6.7755000000000001e+00
0.0000000000000000e+00 1.1735510246683001e+01 0.0000000000000000e+00
0.0000000000000000e+00 2.2149999999999999e+01 0.0000000000000000e+00
ITEM: ATOMS id type x y z 
8 1 -2.51791 5.48614 9.8961 
87 1 2.91553 4.3384 10.6414 
90 1 2.61917 5.46063 9.71384 
109 1 -2.48198 5.49373 0.791914 
158 1 2.61669 5.46083 0.899741 
11 1 4.23159 4.31422 20.0895 
14 1 2.82987 4.20128 19.7142 
18 1 1.24907 5.85201 18.5486 
33 1 2.04718 4.31195 20.9178 
43 1 4.23276 4.31376 21.5215 
47 1 3.22036 5.79788 17.8368 
52 1 4.23206 4.31218 12.675 
76 1 2.38614 4.9304 14.1998 
85 1 4.23315 4.31262 11.2415 
89 1 3.22002 5.79714 14.9275 
91 1 0.895157 5.1422 11.829 
102 1 2.82923 4.19899 13.0496 
105 1 1.25035 5.8512 14.2168 
114 1 2.04682 4.30981 11.8462 
150 1 2.38821 4.9302 18.5653 
156 1 2.91515 4.33924 22.1216 
159 1 0.894788 5.14513 20.9375 
5 1 -4.84832 10.5223 8.65264 
9 1 -3.28215 8.88277 7.47033 
19 1 -1.75224 7.59021 10.5414 
21 1 -2.51881 8.82551 11.016 
23 1 -3.30396 7.53625 6.81428 
25 1 -4.06618 10.4091 9.86028 
32 1 1.57141 6.3884 0.835389 
36 1 -1.86645 7.64981 9.08706 
38 1 -1.96507 6.22334 8.5964 
54 1 0.358216 8.43444 10.6775 
57 1 1.402 7.97506 9.76859 
60 1 -1.75991 7.57936 0.0505018 
65 1 -3.30215 7.53618 3.80028 
78 1 -1.81473 7.62635 1.55323 
80 1 -2.47598 8.82905 1.92431 
84 1 -4.40502 9.79526 3.12386 
99 1 -2.91319 9.57702 0.752143 
100 1 -2.93244 6.29226 3.1611 
107 1 -4.84837 10.5257 1.97241 
110 1 -3.26906 8.87138 3.14018 
111 1 0.570779 5.9534 10.6899 
113 1 1.57329 6.38712 9.7801 
119 1 -4.06587 10.4119 0.769107 
127 1 -2.14098 6.30133 1.96975 
131 1 -2.38247 6.28646 11.016 
138 1 1.40117 7.97559 0.843131 
142 1 -2.50326 8.8265 8.7014 
145 1 -4.41239 9.79603 7.49363 
151 1 -4.94317 10.303 11.0516 
154 1 -2.8926 9.61498 9.87526 
155 1 -2.95189 6.31449 7.44218 
161 2 -0.90557 5.90026 8.44274 
12 1 2.57788 7.06143 17.1499 
17 1 0.458481 9.22937 20.8963 
24 1 -3.47036 8.34371 11.914 
27 1 -0.256196 7.14481 21.6401 
29 1 0.568303 5.9563 22.0751 
31 1 1.28263 7.18632 17.8882 
44 1 -0.203632 7.09681 20.1352 
46 1 0.12606 8.42304 19.7173 
51 1 -0.255918 7.13686 11.1259 
53 1 2.57867 7.06071 15.6152 
56 1 1.28293 7.18675 14.8757 
63 1 -2.37536 6.28566 21.7514 
66 1 -3.41938 6.74642 20.8454 
70 1 -0.204797 7.09395 12.6292 
72 1 0.456707 5.89486 12.9994 
92 1 0.913707 8.42916 14.2367 
95 1 -4.93177 10.3879 21.7182 
98 1 -4.63568 9.2638 20.7876 
104 1 0.46269 9.22818 11.8681 
116 1 -2.58704 8.76753 21.7634 
118 1 -3.58678 8.33518 20.8552 
122 1 0.122683 8.42186 13.0437 
133 1 -3.41488 6.82039 11.9361 
136 1 0.359102 8.43671 22.0909 
147 1 0.458906 5.8959 19.7681 
153 1 -4.64844 9.14077 11.9653 
160 1 0.913034 8.43044 18.53 
1 1 7.69227 4.90569 10.5575 
4 1 9.04802 4.91721 11.0248 
20 1 7.75257 4.96652 9.07332 
42 1 9.43624 5.52073 7.46948 
67 1 9.90275 4.67184 0.790464 
77 1 7.7126 4.89275 0.0770919 
94 1 7.72975 4.95491 1.54754 
96 1 9.07058 4.7393 1.99732 
121 1 4.60012 5.57799 10.6818 
130 1 9.42506 5.49135 3.15899 
134 1 9.88983 4.6934 9.8529 
152 1 9.08527 4.75271 8.62547 
45 1 4.59874 5.57922 22.0807 
55 1 4.81071 5.59269 13.0796 
106 1 9.06482 4.86823 21.7864 
137 1 4.80837 5.59185 19.6856 
2 1 7.30558 10.4121 9.02778 
3 1 8.93455 7.67201 6.07091 
6 1 8.47877 6.41207 6.79178 
16 1 2.39844 8.70498 0.885953 
22 1 7.0026 6.14121 8.66443 
26 1 7.19591 8.37815 7.50553 
35 1 7.30347 10.4031 10.4611 
37 1 6.86221 9.14944 11.0291 
39 1 8.30091 8.93113 6.75873 
41 1 6.63624 6.93582 9.82868 
48 1 3.66852 6.37454 0.890782 
61 1 7.30151 10.4077 1.60057 
62 1 8.95456 7.66621 4.53892 
64 1 6.72179 9.13492 2.00588 
68 1 7.34337 6.92539 3.08772 
71 1 4.358 8.51552 10.7162 
74 1 3.62205 7.82602 9.75781 
81 1 8.48985 6.40173 3.80934 
83 1 6.53873 8.36279 0.790188 
93 1 7.30077 10.4068 0.162071 
97 1 8.31451 8.92761 3.85236 
101 1 2.47012 9.8537 10.707 
103 1 2.40076 8.70584 9.72812 
117 1 6.99962 6.14864 1.94254 
120 1 7.20401 8.37614 3.10764 
123 1 3.67056 6.37338 9.72225 
129 1 6.64908 6.93567 0.770224 
132 1 6.72241 9.13518 8.61174 
135 1 7.33493 6.9249 7.51945 
141 1 7.15225 6.20721 10.9621 
144 1 6.51247 8.35928 9.80709 
148 1 3.62298 7.82647 0.853614 
7 1 9.10844 6.09789 11.9457 
10 1 3.81698 9.82879 21.6124 
13 1 2.47093 9.85358 22.0558 
15 1 3.04588 8.32181 17.8799 
28 1 3.80741 9.76507 20.1379 
30 1 4.53364 8.57715 19.7439 
34 1 4.32935 6.34642 18.5812 
40 1 7.73846 8.35458 11.9473 
49 1 4.88989 7.78883 20.9145 
50 1 2.10966 9.23419 18.5303 
58 1 1.62899 10.0537 11.8652 
59 1 4.19117 7.799 14.1606 
69 1 3.81762 9.8312 11.1516 
73 1 3.04439 8.32222 14.8859 
75 1 4.99665 6.36046 11.8651 
79 1 7.17157 6.208 21.791 
82 1 7.91199 6.89861 20.8337 