LAMMPS (3 Mar 2020)
Reading data file ...
  triclinic box = (0 0 0) to (15.77 13.6581 25.747) with tilt (7.8845 0 0)
  2 by 2 by 2 MPI processor grid
  reading atoms ...
  129 atoms
  read_data CPU = 0.00965374 secs
WARNING: Using 'neigh_modify every 1 delay 0 check yes' setting during minimization (../min.cpp:190)
WARNING: Total cutoff < 2*bond cutoff. May need to use an increased neighbor list skin. (../pair_reaxc.cpp:413)
Neighbor list info ...
  update every 1 steps, delay 0 steps, check yes
  max neighbors/atom: 2000, page size: 100000
  master list distance cutoff = 9.5
  ghost atom cutoff = 9.5
  binsize = 4.75, bins = 5 3 6
  2 neighbor lists, perpetual/occasional/extra = 2 0 0
  (1) pair reax/c, perpetual
      attributes: half, newton off, ghost
      pair build: half/bin/newtoff/ghost
      stencil: half/ghost/bin/3d/newtoff
      bin: standard
  (2) fix qeq/reax, perpetual, copy from (1)
      attributes: half, newton off, ghost
      pair build: copy
      stencil: none
      bin: none
Setting up cg style minimization ...
  Unit style    : real
  Current step  : 0
Per MPI rank memory allocation (min/avg/max) = 16.27 | 16.82 | 17.41 Mbytes
Step Temp E_pair E_mol TotEng Press 
       0            0   -19349.108            0   -19349.108    56532.467 
     103            0   -21876.618            0   -21876.618    14205.915 
Loop time of 8.31695 on 8 procs for 103 steps with 129 atoms

99.9% CPU use with 8 MPI tasks x no OpenMP threads

Minimization stats:
  Stopping criterion = energy tolerance
  Energy initial, next-to-last, final = 
        -19349.1084943      -21876.618135     -21876.6182398
  Force two-norm initial, final = 5102.66 242.295
  Force max component initial, final = 1201.25 97.1357
  Final line search alpha, max atom move = 0.000301297 0.0292667
  Iterations, force evaluations = 103 543

MPI task timing breakdown:
Section |  min time  |  avg time  |  max time  |%varavg| %total
---------------------------------------------------------------
Pair    | 4.9765     | 5.641      | 6.0789     |  17.1 | 67.83
Neigh   | 0          | 0          | 0          |   0.0 |  0.00
Comm    | 0.076097   | 0.51424    | 1.1801     |  56.7 |  6.18
Output  | 0.0019115  | 0.0025787  | 0.0037448  |   1.2 |  0.03
Modify  | 2.1334     | 2.1341     | 2.1353     |   0.0 | 25.66
Other   |            | 0.02503    |            |       |  0.30

Nlocal:    16.125 ave 37 max 2 min
Histogram: 2 1 1 1 1 0 0 0 0 2
Nghost:    465.5 ave 508 max 415 min
Histogram: 2 0 2 0 0 0 0 0 0 4
Neighs:    1160.38 ave 2459 max 174 min
Histogram: 2 1 0 1 2 0 0 0 0 2

Total # of neighbors = 9283
Ave neighs/atom = 71.9612
Neighbor list builds = 0
Dangerous builds = 0
WARNING: Using 'neigh_modify every 1 delay 0 check yes' setting during minimization (../min.cpp:190)
WARNING: Total cutoff < 2*bond cutoff. May need to use an increased neighbor list skin. (../pair_reaxc.cpp:413)
Setting up cg style minimization ...
  Unit style    : real
  Current step  : 103
Per MPI rank memory allocation (min/avg/max) = 16.27 | 16.82 | 17.41 Mbytes
Step Temp E_pair E_mol TotEng Press 
     103            0   -21876.618            0   -21876.618    14205.915 
     364            0   -21939.905            0   -21939.905    3240.9819 
Loop time of 27.1747 on 8 procs for 261 steps with 129 atoms

99.7% CPU use with 8 MPI tasks x no OpenMP threads

Minimization stats:
  Stopping criterion = energy tolerance
  Energy initial, next-to-last, final = 
        -21876.6182398     -21939.9050791     -21939.9051337
  Force two-norm initial, final = 242.295 55.6263
  Force max component initial, final = 97.1357 19.3288
  Final line search alpha, max atom move = 0.0253812 0.490586
  Iterations, force evaluations = 261 1785

MPI task timing breakdown:
Section |  min time  |  avg time  |  max time  |%varavg| %total
---------------------------------------------------------------
Pair    | 16.937     | 19.027     | 20.475     |  28.4 | 70.02
Neigh   | 0          | 0          | 0          |   0.0 |  0.00
Comm    | 0.21878    | 1.6627     | 3.7574     |  96.2 |  6.12
Output  | 0.0050696  | 0.0063148  | 0.0085264  |   1.4 |  0.02
Modify  | 6.4028     | 6.4051     | 6.4095     |   0.1 | 23.57
Other   |            | 0.07398    |            |       |  0.27

Nlocal:    16.125 ave 40 max 1 min
Histogram: 1 3 0 1 1 0 0 0 1 1
Nghost:    470.375 ave 514 max 414 min
Histogram: 1 1 2 0 0 0 0 0 0 4
Neighs:    1141.62 ave 2616 max 80 min
Histogram: 1 2 1 0 1 1 0 0 0 2

Total # of neighbors = 9133
Ave neighs/atom = 70.7984
Neighbor list builds = 0
Dangerous builds = 0
WARNING: Using 'neigh_modify every 1 delay 0 check yes' setting during minimization (../min.cpp:190)
WARNING: Total cutoff < 2*bond cutoff. May need to use an increased neighbor list skin. (../pair_reaxc.cpp:413)
Setting up cg style minimization ...
  Unit style    : real
  Current step  : 364
WARNING: Energy due to 3 extra global DOFs will be included in minimizer energies
Per MPI rank memory allocation (min/avg/max) = 16.27 | 16.82 | 17.41 Mbytes
Step Temp E_pair E_mol TotEng Press Volume 
     364            0   -21939.905            0   -21939.905    3240.9819    5545.5955 
     370            0   -21939.958            0   -21939.958   -593.89264    5546.3147 
Loop time of 0.218903 on 8 procs for 6 steps with 129 atoms

99.3% CPU use with 8 MPI tasks x no OpenMP threads

Minimization stats:
  Stopping criterion = energy tolerance
  Energy initial, next-to-last, final = 
        -21939.9051337     -21939.9580173     -21939.9581351
  Force two-norm initial, final = 505.444 141.321
  Force max component initial, final = 366.291 117.183
  Final line search alpha, max atom move = 1.47918e-08 1.73335e-06
  Iterations, force evaluations = 6 15

MPI task timing breakdown:
Section |  min time  |  avg time  |  max time  |%varavg| %total
---------------------------------------------------------------
Pair    | 0.15342    | 0.17189    | 0.18407    |   2.6 | 78.52
Neigh   | 0          | 0          | 0          |   0.0 |  0.00
Comm    | 0.0017898  | 0.013898   | 0.032433   |   9.1 |  6.35
Output  | 0          | 0          | 0          |   0.0 |  0.00
Modify  | 0.031295   | 0.031327   | 0.031359   |   0.0 | 14.31
Other   |            | 0.001788   |            |       |  0.82

Nlocal:    16.125 ave 40 max 0 min
Histogram: 1 2 1 1 1 0 0 0 1 1
Nghost:    469.5 ave 514 max 414 min
Histogram: 1 2 0 1 0 0 0 0 0 4
Neighs:    1128 ave 2603 max 0 min
Histogram: 1 2 1 0 1 1 0 0 0 2

Total # of neighbors = 9024
Ave neighs/atom = 69.9535
Neighbor list builds = 0
Dangerous builds = 0
WARNING: Using 'neigh_modify every 1 delay 0 check yes' setting during minimization (../min.cpp:190)
WARNING: Total cutoff < 2*bond cutoff. May need to use an increased neighbor list skin. (../pair_reaxc.cpp:413)
Setting up cg style minimization ...
  Unit style    : real
  Current step  : 370
Per MPI rank memory allocation (min/avg/max) = 16.27 | 16.82 | 17.41 Mbytes
Step Temp E_pair E_mol TotEng Press 
     370            0   -21939.958            0   -21939.958   -593.89264 
     375            0   -21940.053            0   -21940.053    1872.7232 
Loop time of 0.703305 on 8 procs for 5 steps with 129 atoms

99.9% CPU use with 8 MPI tasks x no OpenMP threads

Minimization stats:
  Stopping criterion = energy tolerance
  Energy initial, next-to-last, final = 
        -21939.9581351      -21940.052766     -21940.0529159
  Force two-norm initial, final = 76.5593 30.9021
  Force max component initial, final = 22.4916 7.05323
  Final line search alpha, max atom move = 2.78025e-05 0.000196097
  Iterations, force evaluations = 5 46

MPI task timing breakdown:
Section |  min time  |  avg time  |  max time  |%varavg| %total
---------------------------------------------------------------
Pair    | 0.44873    | 0.50619    | 0.54226    |   4.6 | 71.97
Neigh   | 0          | 0          | 0          |   0.0 |  0.00
Comm    | 0.0052598  | 0.041146   | 0.098818   |  16.1 |  5.85
Output  | 0          | 0          | 0          |   0.0 |  0.00
Modify  | 0.15389    | 0.15396    | 0.1541     |   0.0 | 21.89
Other   |            | 0.002015   |            |       |  0.29

Nlocal:    16.125 ave 40 max 0 min
Histogram: 1 2 1 1 1 0 0 0 1 1
Nghost:    469.5 ave 514 max 414 min
Histogram: 1 2 0 1 0 0 0 0 0 4
Neighs:    1127.75 ave 2602 max 0 min
Histogram: 1 2 1 0 1 1 0 0 0 2

Total # of neighbors = 9022
Ave neighs/atom = 69.938
Neighbor list builds = 0
Dangerous builds = 0
WARNING: Using 'neigh_modify every 1 delay 0 check yes' setting during minimization (../min.cpp:190)
WARNING: Total cutoff < 2*bond cutoff. May need to use an increased neighbor list skin. (../pair_reaxc.cpp:413)
Setting up cg style minimization ...
  Unit style    : real
  Current step  : 375
WARNING: Energy due to 3 extra global DOFs will be included in minimizer energies
Per MPI rank memory allocation (min/avg/max) = 16.27 | 16.82 | 17.41 Mbytes
Step Temp E_pair E_mol TotEng Press Volume 
     375            0   -21940.053            0   -21940.053    1872.7232    5546.3147 
     381            0   -21940.081            0   -21940.081   -818.15385    5546.8158 
Loop time of 0.447113 on 8 procs for 6 steps with 129 atoms

99.6% CPU use with 8 MPI tasks x no OpenMP threads

Minimization stats:
  Stopping criterion = linesearch alpha is zero
  Energy initial, next-to-last, final = 
        -21940.0529159     -21940.0805878     -21940.0805878
  Force two-norm initial, final = 330.77 166.801
  Force max component initial, final = 242.772 155.59
  Final line search alpha, max atom move = 2.78937e-13 4.33996e-11
  Iterations, force evaluations = 6 32

MPI task timing breakdown:
Section |  min time  |  avg time  |  max time  |%varavg| %total
---------------------------------------------------------------
Pair    | 0.31727    | 0.35625    | 0.38115    |   3.8 | 79.68
Neigh   | 0          | 0          | 0          |   0.0 |  0.00
Comm    | 0.0043803  | 0.029176   | 0.068304   |  13.2 |  6.53
Output  | 0.0001667  | 0.00022262 | 0.00031239 |   0.0 |  0.05
Modify  | 0.058265   | 0.058311   | 0.0584     |   0.0 | 13.04
Other   |            | 0.003155   |            |       |  0.71

Nlocal:    16.125 ave 40 max 0 min
Histogram: 1 2 1 1 1 0 0 0 1 1
Nghost:    469.5 ave 514 max 414 min
Histogram: 1 2 0 1 0 0 0 0 0 4
Neighs:    1127.75 ave 2602 max 0 min
Histogram: 1 2 1 0 1 1 0 0 0 2

Total # of neighbors = 9022
Ave neighs/atom = 69.938
Neighbor list builds = 0
Dangerous builds = 0
WARNING: Using 'neigh_modify every 1 delay 0 check yes' setting during minimization (../min.cpp:190)
WARNING: Total cutoff < 2*bond cutoff. May need to use an increased neighbor list skin. (../pair_reaxc.cpp:413)
Setting up cg style minimization ...
  Unit style    : real
  Current step  : 381
Per MPI rank memory allocation (min/avg/max) = 16.27 | 16.82 | 17.41 Mbytes
Step Temp E_pair E_mol TotEng Press 
     381            0   -21940.081            0   -21940.081   -818.15385 
     392            0    -21940.18            0    -21940.18    2234.5092 
Loop time of 1.27077 on 8 procs for 11 steps with 129 atoms

99.7% CPU use with 8 MPI tasks x no OpenMP threads

Minimization stats:
  Stopping criterion = energy tolerance
  Energy initial, next-to-last, final = 
        -21940.0805878     -21940.1801471     -21940.1803157
  Force two-norm initial, final = 51.7643 10.2269
  Force max component initial, final = 8.97213 1.83402
  Final line search alpha, max atom move = 0.00338478 0.00620775
  Iterations, force evaluations = 11 82

MPI task timing breakdown:
Section |  min time  |  avg time  |  max time  |%varavg| %total
---------------------------------------------------------------
Pair    | 0.79151    | 0.89034    | 0.95513    |   6.0 | 70.06
Neigh   | 0          | 0          | 0          |   0.0 |  0.00
Comm    | 0.0092714  | 0.073838   | 0.17293    |  20.9 |  5.81
Output  | 0.00016768 | 0.00020465 | 0.00028501 |   0.0 |  0.02
Modify  | 0.30279    | 0.30288    | 0.30302    |   0.0 | 23.83
Other   |            | 0.003501   |            |       |  0.28

Nlocal:    16.125 ave 40 max 0 min
Histogram: 1 2 1 1 1 0 0 0 1 1
Nghost:    469.5 ave 514 max 414 min
Histogram: 1 2 0 1 0 0 0 0 0 4
Neighs:    1127.5 ave 2602 max 0 min
Histogram: 1 2 1 0 1 1 0 0 0 2

Total # of neighbors = 9020
Ave neighs/atom = 69.9225
Neighbor list builds = 0
Dangerous builds = 0
WARNING: Total cutoff < 2*bond cutoff. May need to use an increased neighbor list skin. (../pair_reaxc.cpp:413)
Setting up Verlet run ...
  Unit style    : real
  Current step  : 0
  Time step     : 0.25
Per MPI rank memory allocation (min/avg/max) = 15.13 | 15.58 | 16.3 Mbytes
Step Temp TotEng KinEng PotEng Press 
       0          300   -21825.717    114.46311    -21940.18    3177.8196 
     200    226.99182   -21785.325    86.607298   -21871.932     4364.386 
     400     419.0692   -21725.158    159.89321   -21885.051    13527.053 
     600    297.50998   -21780.166    113.51305   -21893.679   -14460.188 
     800     286.6606   -21787.302    109.37354   -21896.676    1059.8933 
    1000    272.48178    -21759.52     103.9637   -21863.483   -3386.3878 
    1200    311.86209   -21773.465    118.98901   -21892.454    9631.1996 
    1400    310.57977   -21789.088    118.49975   -21907.588    7522.1232 
    1600    323.15221   -21759.798    123.29669   -21883.095    5360.2098 
    1800    314.32338   -21766.696     119.9281   -21886.624   -21228.199 
    2000    291.86782   -21777.185    111.36032   -21888.546   -14583.102 
    2200    264.25499   -21793.878    100.82482   -21894.702   -3818.0412 
    2400    317.83132   -21770.701    121.26653   -21891.968    22560.418 
    2600    290.35655   -21778.627    110.78371    -21889.41   -3037.3361 
    2800    271.89359   -21791.344    103.73928   -21895.083    11104.951 
    3000    305.01248   -21770.143    116.37559   -21886.519   -15253.797 
    3200    339.08542   -21784.562     129.3759   -21913.938    7382.8633 
    3400    347.61493    -21882.29    132.63028    -22014.92    22228.236 
    3600    305.75427   -21948.025    116.65861   -22064.684   -91.972297 
    3800    273.51371   -21952.957    104.35743   -22057.314    16291.745 
    4000    312.91238   -21926.432    119.38974   -22045.822   -6561.6386 
    4200    311.69026    -21939.07    118.92345   -22057.994   -19916.288 
    4400    315.42417   -21945.295     120.3481   -22065.643   -3558.8906 
    4600    299.30207   -21922.355    114.19681   -22036.551   -28290.522 
    4800    310.94509   -21938.165    118.63914   -22056.804   -15116.308 
    5000    274.63642   -21939.266    104.78579   -22044.052    -22620.89 
    5200    331.45781   -21914.934    126.46563     -22041.4    4603.9385 
    5400    316.34576   -21933.111    120.69973   -22053.811    10498.826 
    5600    305.17276   -21944.551    116.43674   -22060.987   -12625.222 
    5800    324.62436   -21931.157    123.85837   -22055.015   -13620.215 
    6000    290.41607   -21930.836    110.80642   -22041.643   -1363.6613 
    6200    291.07253   -21946.583    111.05689    -22057.64   -16453.907 
    6400    289.75991   -21939.466    110.55606   -22050.022    10320.046 
    6600    285.58505   -21944.206    108.96317   -22053.169    21443.741 
    6800    259.78463   -21969.474    99.119185   -22068.593   -6027.9754 
    7000    292.02091   -21946.036    111.41874   -22057.455   -27749.308 
    7200    349.95325   -21926.802    133.52245   -22060.324    7496.1982 
    7400    275.49313   -21949.186    105.11266   -22054.299    10560.904 
    7600       283.88   -21949.786    108.31262   -22058.099    5403.6894 
    7800    300.36255   -21942.364    114.60143   -22056.965   -22782.563 
    8000    283.19769   -21936.332    108.05229   -22044.384    7461.7432 
    8200     332.4173   -21919.383    126.83172   -22046.214   -10036.253 
    8400    291.49866   -21947.039    111.21947   -22058.259     -13359.8 
    8600    311.29175   -21945.773     118.7714   -22064.544   -17865.338 
    8800    326.20241   -21916.806    124.46047   -22041.267    2479.5576 
    9000    294.16312   -21943.751    112.23608   -22055.987    1112.0335 
    9200    299.48149   -21939.059    114.26527   -22053.325    2845.3121 
    9400    304.33726   -21932.227    116.11796   -22048.345   -191.30519 
    9600     309.0564   -21955.443    117.91852   -22073.361   -3721.8056 
    9800     313.6951   -21928.936    119.68839   -22048.624   -1296.4589 
   10000    301.55064   -21928.212    115.05474   -22043.266   -860.61423 
   10200     270.6923   -21956.515    103.28094   -22059.796   -18978.968 
   10400    283.45336   -21955.282    108.14984   -22063.432    7771.4785 
   10600    334.71917    -21933.79    127.70998     -22061.5   -11489.658 
   10800    281.68964   -21943.988     107.4769   -22051.465    13140.749 
   11000    290.22087   -21954.728    110.73194    -22065.46    4229.7746 
   11200    317.16886   -21932.543    121.01377   -22053.557   -439.94661 
   11400    293.62599     -21946.5    112.03114   -22058.531    4278.8148 
   11600    290.33333   -21958.499    110.77485   -22069.274   -4193.9931 
   11800    318.34272   -21933.735    121.46166   -22055.197    6883.0256 
   12000    332.23232   -21932.577    126.76115   -22059.338    5942.1972 
   12200    285.42742   -21955.962    108.90303   -22064.865    -5672.179 
   12400    307.39662   -21937.086    117.28524   -22054.371    14206.544 
   12600    285.21302   -21935.036    108.82123   -22043.857   -14077.989 
   12800    254.23905   -21962.378    97.003304   -22059.382   -1720.1791 
   13000     303.5931    -21938.71    115.83403   -22054.544   -8425.5854 
   13200    295.05106    -21930.48    112.57487   -22043.055    42502.236 
   13400     278.8915   -21956.216    106.40929   -22062.625   -17185.139 
   13600     285.5505   -21939.944    108.94999   -22048.894   -7394.4052 
   13800    339.97736   -21928.685    129.71622   -22058.402    5277.0897 
   14000    294.58263   -21946.155    112.39614   -22058.552    5452.3089 
   14200    286.63394   -21951.886    109.36337   -22061.249   -1661.6267 
   14400    320.10764   -21925.231    122.13505   -22047.366    2744.7725 
   14600     272.8923   -21952.295    104.12034   -22056.415   -9725.3094 
   14800    308.47324   -21937.916    117.69602   -22055.612    5242.1749 
   15000    285.17264    -21940.38    108.80582   -22049.186     3701.968 
   15200    310.16876   -21936.093    118.34293   -22054.436    -5381.357 
   15400    333.48358   -21930.145    127.23856   -22057.384    -19910.59 
   15600    271.61958   -21953.763    103.63473   -22057.398   -8687.6851 
   15800    342.48643    -21933.54    130.67354   -22064.213   -10637.825 
   16000    327.89957   -21928.881    125.10801   -22053.989   -6282.7796 
   16200    310.50841   -21938.803    118.47252   -22057.275   -8041.0785 
   16400    287.13144   -21952.294    109.55319   -22061.848    11524.667 
   16600    260.75459   -21969.976    99.489268   -22069.465   -13895.457 
   16800    321.08844   -21936.036    122.50927   -22058.546   -9262.8478 
   17000    308.82798    -21935.84    117.83137   -22053.671    11440.303 
   17200    268.36076   -21956.339    102.39136   -22058.731    6033.6802 
   17400    295.17585   -21938.507    112.62248    -22051.13   -17801.919 
   17600    305.71072   -21929.353      116.642   -22045.995    -3369.836 
   17800    284.61921    -21952.92    108.59466   -22061.515   -9657.9133 
   18000    289.64083   -21939.982    110.51063   -22050.493    6046.1922 
   18200    303.89477    -21931.94    115.94913   -22047.889   -2674.2162 
   18400     279.0191   -21952.909    106.45798   -22059.367   -12781.398 
   18600    284.44893   -21941.452    108.52969   -22049.982    78.180484 
   18800    293.70762   -21933.544    112.06229   -22045.607    3578.7251 
   19000    302.00579   -21948.408     115.2284   -22063.637   -4941.3152 
   19200    304.18312   -21945.162    116.05915   -22061.221   -14583.871 
   19400    312.83431   -21929.109    119.35996   -22048.469   -15391.759 
   19600    274.32765   -21948.063    104.66798   -22052.731    2445.8356 
   19800    307.40151   -21948.387    117.28711   -22065.674   -30023.364 
   20000    311.92666   -21922.672    119.01365   -22041.686     4110.859 
   20200    270.06648    -21948.79    103.04216   -22051.833   -22728.968 
   20400    293.90163   -21943.323    112.13631   -22055.459    3540.8033 
   20600     315.2382   -21926.538    120.27714   -22046.815      9697.72 
   20800    274.53528   -21957.061     104.7472   -22061.808    25330.441 
   21000    285.27262   -21937.213    108.84397   -22046.057    -650.6135 
   21200     308.5862   -21931.271    117.73912    -22049.01    26542.545 
   21400    296.91972   -21945.849    113.28785   -22059.136   -23387.082 
   21600    323.31572   -21933.737    123.35907   -22057.096   -28773.225 
   21800    351.58634   -21918.367    134.14555   -22052.513    19.954618 
   22000    266.01277   -21952.966    101.49549   -22054.462     16273.45 
   22200    292.30166   -21939.332    111.52585   -22050.857   -152.91397 
   22400    315.20786   -21917.323    120.26557   -22037.589    -937.1046 
   22600     317.5818   -21933.651    121.17133   -22054.823   -3880.8007 
   22800    260.97685    -21955.51    99.574068   -22055.084   -8073.3214 
   23000     326.5729   -21924.332    124.60183   -22048.934   -11913.801 
   23200    295.33993   -21941.528    112.68509   -22054.213    1747.4164 
   23400    278.52201   -21940.395    106.26831   -22046.663   -5138.8693 
   23600    322.98411   -21921.471    123.23255   -22044.704    16703.298 
   23800    286.15687   -21943.739    109.18135    -22052.92   -3212.9617 
   24000    293.30372   -21950.612    111.90818    -22062.52   -16681.466 
   24200     299.1019   -21945.773    114.12044   -22059.894   -2696.8544 
   24400    330.04537   -21928.224    125.92673    -22054.15   -131.09993 
   24600    282.27809    -21952.32    107.70142   -22060.021    16751.816 
   24800    296.69361   -21947.456    113.20157   -22060.658   -14782.504 
   25000    308.66431   -21932.748    117.76892   -22050.517    5050.8565 
   25200    275.90431    -21956.58    105.26955    -22061.85    22111.401 
   25400    293.91462   -21946.982    112.14127   -22059.123   -15291.511 
   25600    303.10923   -21933.841    115.64941   -22049.491   -3434.3162 
   25800    304.15048   -21954.369    116.04669   -22070.416    266.99028 
   26000    282.32466   -21965.489    107.71919   -22073.208   -5062.6138 
   26200    328.45891   -21932.474    125.32142   -22057.795    18615.897 
   26400    313.76389   -21943.108    119.71463   -22062.823    5339.5372 
   26600    268.23422   -21960.425    102.34307   -22062.768    21940.052 
   26800    319.95982   -21928.249    122.07865   -22050.328   -679.32752 
   27000    297.65651   -21942.949    113.56896   -22056.518   -14229.056 
   27200     297.6768   -21951.527     113.5767   -22065.104   -687.79943 
   27400    330.83715   -21924.559    126.22883   -22050.788   -10907.809 
   27600    294.72632   -21944.765    112.45097   -22057.216   -14921.388 
   27800    297.99546   -21936.662    113.69829   -22050.361    5654.1646 
   28000    323.06295    -21927.99    123.26263   -22051.252    4733.3492 
   28200    304.67925   -21945.706    116.24844   -22061.955   -15843.854 
   28400    309.93135   -21941.585    118.25235   -22059.837    17497.978 
   28600    318.24548   -21933.399    121.42455   -22054.823   -8020.6065 
   28800    313.20374   -21916.219    119.50091   -22035.719   -110.68573 
   29000    296.10595   -21942.345    112.97736   -22055.322   -1415.4052 
   29200    284.51023   -21930.892    108.55308   -22039.445    8833.5363 
   29400    320.98218   -21918.859    122.46872   -22041.327    5930.0435 
   29600    316.17341    -21938.25    120.63397   -22058.884   -1747.3851 
   29800    264.61684   -21935.287    100.96289    -22036.25   -5334.0754 
   30000    314.38728   -21910.828    119.95248    -22030.78    -14517.43 
   30200    313.75612   -21938.659    119.71166    -22058.37    2798.3592 
   30400    294.58326   -21942.848    112.39638   -22055.244   -3211.5804 
   30600    339.18387   -21931.858    129.41346   -22061.272    1554.3771 
   30800    308.61534    -21922.53    117.75024    -22040.28    18485.318 
   31000    281.58782   -21947.655    107.43805   -22055.093    7784.8559 
   31200    304.19277   -21930.405    116.06283   -22046.468   -10996.135 
   31400    315.42953   -21935.169    120.35015   -22055.519   -10823.665 
   31600    341.40799   -21935.627    130.26206    -22065.89    24148.621 
   31800    293.52096   -21942.233    111.99107   -22054.224   -17322.663 
   32000    279.44681   -21929.731    106.62117   -22036.352   -21089.222 
   32200    332.43212   -21924.364    126.83738   -22051.201    13883.789 
   32400    285.17607   -21948.525    108.80713   -22057.332   -9164.3725 
   32600    324.20471   -21929.727    123.69826   -22053.426   -4023.3347 
   32800    289.69786   -21947.597    110.53239   -22058.129   -11687.765 
   33000    257.96374   -21948.792    98.424435   -22047.217    -8375.519 
   33200    331.60734   -21930.451    126.52269   -22056.974     7107.135 
   33400    275.26828   -21946.032    105.02687   -22051.059   -9257.0898 
   33600    281.00191    -21966.75    107.21451   -22073.964   -13855.793 
   33800    302.58375   -21945.176    115.44892   -22060.625   -8992.3847 
   34000    304.09708   -21934.003    116.02632   -22050.029    35206.595 
   34200    328.62841   -21929.889     125.3861   -22055.275     1551.735 
   34400    262.06741   -21953.419    99.990165   -22053.409   -4842.7442 
   34600    318.35625   -21926.873    121.46682   -22048.339    8379.6062 
   34800     324.1722   -21933.016    123.68586   -22056.702   -14561.271 
   35000    295.11337   -21945.715    112.59864   -22058.314    9564.8972 
   35200    292.09734   -21934.706     111.4479   -22046.154    24442.289 
   35400     305.8056   -21925.632     116.6782    -22042.31    3666.0195 
   35600    316.00801   -21951.891    120.57086   -22072.462    1575.9596 
   35800    299.48254   -21942.142    114.26567   -22056.408   -12939.442 
   36000    290.49754   -21919.024     110.8375   -22029.862   -13484.133 
   36200    301.77494   -21939.571    115.14032   -22054.711    10239.552 
   36400    311.53162   -21939.033    118.86292   -22057.896    8213.0934 
   36600     324.2574   -21915.682    123.71836     -22039.4   -5951.3573 
   36800    299.50385    -21945.04     114.2738   -22059.314    6871.2908 
   37000    311.03608   -21943.795    118.67385   -22062.469   -2310.4424 
   37200    339.48833    -21913.25    129.52963   -22042.779    36684.394 
   37400    315.38203   -21940.038    120.33202    -22060.37    16103.064 
   37600    309.67888   -21937.012    118.15602   -22055.168    27209.845 
   37800    303.48574    -21944.41    115.79307   -22060.203    22596.662 
   38000    307.47534    -21960.71    117.31528   -22078.025    2870.5029 
   38200    308.50256   -21932.502     117.7072   -22050.209    10504.562 
   38400    297.13011   -21929.881    113.36812   -22043.249    4681.9438 
   38600    316.13475   -21936.425    120.61922   -22057.045    20101.354 
   38800    293.31958   -21958.204    111.91423   -22070.118   -2848.5845 
   39000     310.6292   -21928.332    118.51861    -22046.85   -5193.0115 
   39200    294.92375   -21939.074    112.52629     -22051.6   -383.18172 
   39400    256.58977   -21954.805    97.900209   -22052.705    7517.3776 
   39600    305.96803    -21925.46    116.74017     -22042.2   -2039.0842 
   39800    311.22645   -21944.345    118.74649   -22063.092    1113.8446 
   40000    283.07703   -21952.217    108.00625   -22060.223    9106.5046 
   40200    315.47653   -21931.321    120.36808    -22051.69   -7015.2185 
   40400    314.82784   -21928.039    120.12058   -22048.159    5626.2905 
   40600    277.95531   -21953.206    106.05209   -22059.258    12319.221 
   40800    324.33167   -21935.652     123.7467   -22059.399    15226.534 
   41000    300.84121   -21945.562    114.78406   -22060.346   -4331.4554 
   41200    286.09991   -21959.157    109.15961   -22068.316    19796.065 
   41400    293.47766   -21939.184    111.97455   -22051.159   -7649.3436 
   41600    326.84789    -21936.82    124.70675   -22061.527   -3437.0926 
   41800    282.47354   -21948.451    107.77599   -22056.227   -14442.503 
   42000    297.49485   -21950.789    113.50728   -22064.297    6981.9565 
   42200    335.11247   -21926.915    127.86005   -22054.775   -8208.0131 
   42400    306.09322   -21953.594    116.78793   -22070.382    -8713.425 
   42600    309.63813   -21946.256    118.14047   -22064.396    5107.0864 
   42800    302.81908   -21936.724    115.53871   -22052.263     13836.41 
   43000    292.53604    -21943.93    111.61528   -22055.546    -7806.621 
   43200    255.15207   -21946.894     97.35166   -22044.245   -16316.948 
   43400    310.60853   -21943.661    118.51072   -22062.171    6201.5703 
   43600    304.70399   -21937.933    116.25788   -22054.191    12149.175 
   43800    295.89028   -21937.346    112.89507   -22050.241   -5714.5671 
   44000    294.42359   -21957.426    112.33546   -22069.762    395.21162 
   44200    343.54087   -21933.066    131.07585   -22064.142   -16279.058 
   44400    287.32003   -21942.253    109.62514   -22051.879    1836.9305 
   44600    285.89836   -21948.058    109.08271   -22057.141    33449.389 
   44800    307.22475   -21939.207    117.21966   -22056.427    12233.196 
   45000     274.0868   -21942.794    104.57609    -22047.37   -6008.1864 
   45200    273.14743   -21971.081    104.21768   -22075.299   -13949.491 
   45400    289.19451   -21944.037    110.34034   -22054.377   -10639.301 
   45600    295.14497   -21941.762     112.6107   -22054.372    3571.8357 
   45800    303.08592   -21938.834    115.64052   -22054.475   -4133.1875 
   46000    328.87592   -21926.511    125.48053   -22051.992   -2459.1964 
   46200    309.98963   -21954.422    118.27459   -22072.696    2949.7568 
   46400    292.65719   -21946.007     111.6615   -22057.668   -4789.9641 
   46600    326.86708   -21916.627    124.71407   -22041.341    4495.7446 
   46800    308.49325   -21939.642    117.70365   -22057.346   -14836.425 
   47000    290.00299   -21946.906    110.64881   -22057.555   -1785.7149 
   47200    331.24378   -21921.719    126.38397   -22048.103   -6395.3081 
   47400    277.92673   -21945.677    106.04119   -22051.718    26953.662 
   47600    262.28481   -21947.204    100.07311   -22047.277    25332.009 
   47800    336.23971   -21922.707    128.29014   -22050.997     16136.66 
   48000    383.30192   -21902.797    146.24643   -22049.043   -5045.8116 
   48200    318.89036   -21943.568     121.6706   -22065.239    1075.3787 
   48400     301.0311   -21947.432    114.85651   -22062.289   -29412.254 
   48600    305.87694   -21941.601    116.70541   -22058.306   -904.54924 
   48800    295.27942   -21964.404      112.662   -22077.066   -14063.534 
   49000    348.91733   -21937.108    133.12721   -22070.235    7609.4297 
   49200    284.19656   -21942.611     108.4334   -22051.045   -25447.478 
   49400    293.69068   -21958.104    112.05583    -22070.16   -5445.7349 
   49600    292.03877   -21946.525    111.42555    -22057.95     8222.432 
   49800    309.98787   -21929.526    118.27391     -22047.8    9137.0655 
   50000    294.23084   -21954.948    112.26192    -22067.21   -5367.7125 
   50200    270.25045   -21955.875    103.11235   -22058.987    12572.079 
   50400    334.42846   -21935.662    127.59907   -22063.261   -6094.2606 
   50600    261.74049   -21967.414    99.865431    -22067.28    1372.0462 
   50800    292.87785   -21946.264    111.74569    -22058.01    -3070.576 
   51000    295.71718   -21947.257    112.82902   -22060.086    9680.7759 
   51200    303.13815    -21951.83    115.66045   -22067.491    11655.802 
   51400    306.61524   -21955.944    116.98711   -22072.931     9228.043 
   51600    249.50826   -21973.425    95.198302   -22068.623    19261.786 
   51800    315.66137   -21947.309     120.4386   -22067.747    9065.6457 
   52000    329.56703   -21948.187    125.74422   -22073.931   -476.76148 
   52200    250.37141   -21979.912    95.527631    -22075.44    3677.5257 
   52400    306.17967   -21953.476    116.82092   -22070.296   -3054.7895 
   52600    323.62909   -21946.004    123.47864   -22069.483   -6888.2009 
   52800    307.93175    -21955.97    117.48942   -22073.459   -17276.495 
   53000    265.78286    -21964.08    101.40777   -22065.488   -2363.8038 
   53200    321.91877   -21935.023    122.82607   -22057.849   -12300.615 
   53400    299.66942   -21958.115    114.33698   -22072.452    22477.479 
   53600    311.54269   -21956.568    118.86715   -22075.435    -8330.396 
   53800    294.74866   -21945.633    112.45949   -22058.092   -24288.927 
   54000      297.285   -21950.085    113.42721   -22063.512    20535.426 
   54200    290.01666   -21967.697    110.65402   -22078.351    1582.1838 
   54400    335.32675   -21939.276     127.9418   -22067.218   -4067.1568 
   54600    299.46825   -21951.774    114.26022   -22066.034    1981.5412 
   54800    254.91915   -21965.548    97.262792   -22062.811   -643.44837 
   55000    281.77503   -21967.743    107.50948   -22075.252    4753.7739 
   55200    304.24045   -21941.481    116.08102   -22057.562    3456.0975 
   55400    281.45437   -21955.748    107.38714   -22063.136   -12549.687 
   55600    299.07861   -21962.903    114.11156   -22077.014    8351.0783 
   55800    301.30789   -21952.227    114.96212   -22067.189    -5648.681 
   56000    318.08184   -21947.962    121.36212   -22069.325    2440.2075 
   56200    263.51699   -21968.306    100.54325   -22068.849    15511.951 
   56400    310.01426   -21948.438    118.28398   -22066.722    7854.8691 
   56600     314.8664   -21941.072    120.13529   -22061.207    17956.098 
   56800    296.15897   -21953.118    112.99759   -22066.115   -4772.9592 
   57000    301.12346   -21949.443    114.89176   -22064.335    8589.2432 
   57200    294.81608   -21962.711    112.48521   -22075.196   -6009.7596 
   57400    303.62976   -21961.161    115.84802   -22077.009    16478.359 
   57600    314.65488   -21938.032    120.05458   -22058.087     32205.87 
   57800    281.61253   -21956.522    107.44748   -22063.969    3085.4958 
   58000    310.78512   -21953.619     118.5781   -22072.198    16962.377 
   58200    310.38881   -21944.408    118.42689   -22062.835    9728.1666 
   58400    335.40177   -21918.548    127.97043   -22046.519    12007.625 
   58600    290.62266   -21950.454    110.88524   -22061.339   -685.02938 
   58800    300.34902   -21963.509    114.59627   -22078.105   -16355.369 
   59000     322.7549   -21936.955    123.14509     -22060.1   -8596.0723 
   59200    324.80203   -21948.846    123.92616   -22072.772   -23290.804 
   59400    303.32649   -21953.592    115.73231   -22069.324    3278.2112 
   59600    299.84924   -21951.996    114.40559   -22066.401    3644.8381 
   59800    284.80519   -21940.455    108.66562    -22049.12    4643.1244 
   60000    305.49634   -21952.104     116.5602   -22068.664    2017.4882 
   60200    264.35246   -21964.454    100.86201   -22065.316   -5028.3146 
   60400    336.55706   -21938.874    128.41122   -22067.285    -4652.026 
   60600    354.31656   -21923.993    135.18725    -22059.18   -7609.0591 
   60800    305.94004   -21949.818    116.72949   -22066.548   -3378.0212 
   61000     288.5004    -21966.11     110.0755   -22076.186   -22894.877 
   61200    352.67966   -21936.629     134.5627   -22071.192    2379.7702 
   61400    301.88629   -21953.092    115.18281   -22068.275    13376.565 
   61600    294.68308   -21958.914    112.43447   -22071.348   -11174.645 
   61800    292.60167    -21952.11    111.64032   -22063.751   -7540.0362 
   62000    307.72546   -21951.385    117.41071   -22068.795    6755.2791 
   62200    307.10355   -21952.979    117.17342   -22070.152   -296.34805 
   62400    266.70863   -21959.637    101.76099   -22061.398   -9467.2395 
   62600    301.47105    -21948.31    115.02438   -22063.335    35531.729 
   62800    318.33693   -21927.047    121.45945   -22048.507   -34462.606 
   63000    296.11895   -21960.167    112.98232   -22073.149   -18294.949 
   63200    311.20134   -21944.462    118.73691   -22063.199    2165.8878 
   63400    313.50047   -21942.145    119.61413   -22061.759     48408.83 
   63600    288.76373   -21965.572    110.17598   -22075.748      18750.9 
   63800    329.31418   -21939.398    125.64775   -22065.045     2396.964 
   64000    282.15543   -21951.677    107.65462   -22059.332    18872.697 
   64200    309.63367   -21953.629    118.13877   -22071.768   -25440.797 
   64400    262.55336   -21954.773    100.17558   -22054.949    1077.0797 
   64600    285.88796   -21956.989    109.07875   -22066.068   -13598.467 
   64800      297.929   -21981.007    113.67293    -22094.68   -753.47619 
   65000    301.27977   -21972.674    114.95139   -22087.625    23731.293 
   65200    331.82582   -21959.995    126.60605   -22086.601    509.51089 
   65400    287.84778   -21978.049     109.8265   -22087.876    7455.3496 
   65600    300.59059   -21954.157    114.68844   -22068.845   -11990.018 
   65800    273.92908   -21965.953    104.51591   -22070.469    8242.3777 
   66000    276.87235   -21976.107     105.6389   -22081.746   -28572.749 
   66200    329.33579   -21957.994    125.65599    -22083.65   -10177.433 
   66400    313.48686   -21949.644    119.60893   -22069.253   -18535.949 
   66600    322.91153   -21980.085    123.20485    -22103.29   -16869.737 
   66800    332.41086   -21959.218    126.82927   -22086.047    27576.759 
   67000    300.27309   -21964.352     114.5673    -22078.92    1679.7081 
   67200    271.41989   -21976.165    103.55855   -22079.723   -419.18938 
   67400    286.80488    -21964.72    109.42859   -22074.149   -11649.492 
   67600    316.09294   -21960.977    120.60327    -22081.58    11610.139 
   67800    295.88822   -21985.927    112.89428   -22098.821   -11559.176 
   68000    271.11203   -21960.783    103.44108   -22064.224   -4523.0239 
   68200    277.90366   -21965.357    106.03239   -22071.389   -7465.8583 
   68400    318.24058   -21980.146    121.42268   -22101.569    9360.9965 
   68600    349.96257   -21958.251    133.52601   -22091.777   -14214.814 
   68800    305.69157   -21970.691    116.63469   -22087.326    14832.443 
   69000    312.72046   -21975.489    119.31652   -22094.806   -3224.9424 
   69200    316.18424   -21962.188     120.6381   -22082.826   -4832.2334 
   69400    349.84628   -21942.125    133.48164   -22075.607    4618.7302 
   69600    329.63562    -21977.73    125.77039   -22103.501   -3411.3008 
   69800    294.39033   -21976.197    112.32277    -22088.52    5441.0122 
   70000    300.41442   -21953.475    114.62122   -22068.096    2090.0953 
   70200    283.64903   -21984.065     108.2245   -22092.289    868.03457 
   70400    317.18844   -21963.981    121.02125   -22085.002    -8037.115 
   70600    270.17543   -21978.122    103.08373   -22081.206    9412.3907 
   70800    274.91445   -21984.551    104.89187   -22089.443   -14103.773 
   71000    323.91141   -21969.616    123.58635   -22093.202   -3983.7246 
   71200    304.36587   -21967.949    116.12888   -22084.078    8018.8386 
   71400    307.57523    -21958.79    117.35339   -22076.144   -24257.253 
   71600    287.45009   -21981.778    109.67477   -22091.453   -11469.022 
   71800    269.04706   -21973.604    102.65321   -22076.257   -10383.259 
   72000    336.00534   -21951.779    128.20071   -22079.979   -8727.3141 
   72200    302.56246   -21974.738     115.4408   -22090.178   -13539.161 
   72400    281.93584   -21978.584    107.57084   -22086.155    2083.2246 
   72600    326.03726   -21953.509    124.39746   -22077.907    -16687.67 
   72800    291.08128   -21980.594    111.06023   -22091.654   -1850.9485 
   73000    283.40871   -21975.281     108.1328   -22083.413   -276.72501 
   73200    322.38759   -21954.473    123.00495   -22077.478    9180.2136 
   73400     363.8076   -21939.802    138.80849    -22078.61   -2262.4654 
   73600    302.10125   -21968.735    115.26483   -22083.999   -3107.6291 
   73800    309.45994   -21975.764    118.07249   -22093.837    7439.7069 
   74000    327.51833    -21949.11    124.96255   -22074.073   -1077.6696 
   74200    290.58474   -21978.146    110.87077   -22089.017    17930.835 
   74400    303.98256   -21970.504    115.98263   -22086.487    12272.992 
   74600     326.5038   -21946.263    124.57546   -22070.838    2661.3081 
   74800    351.69033   -21953.471    134.18522   -22087.656   -2089.1807 
   75000    287.70996   -21974.495    109.77392   -22084.269    686.06077 
   75200    314.43201    -21973.79    119.96955    -22093.76   -22130.944 
   75400    325.95556   -21953.153    124.36629   -22077.519   -25306.823 
   75600    290.60501   -21985.709    110.87851   -22096.587   -6690.9921 
   75800    299.61367   -21965.905     114.3157   -22080.221    7610.2185 
   76000    302.31561   -21965.326    115.34661   -22080.673    12885.203 
   76200    271.49177   -21989.995    103.58597   -22093.581   -25323.309 
   76400    314.32405     -21965.2    119.92836   -22085.129    11590.768 
   76600    329.83713   -21971.067    125.84727   -22096.914    198.41243 
   76800    304.99856    -21991.06    116.37027    -22107.43   -14018.731 
   77000    289.52618   -21973.113    110.46689    -22083.58    7127.2731 
   77200    307.92434   -21961.084    117.48659    -22078.57   -14546.498 
   77400    305.18189    -21983.44    116.44022   -22099.881    13528.537 
   77600    226.95792   -22010.249    86.594362   -22096.843    9391.1639 
   77800    308.95758   -21979.658    117.88081   -22097.538    1575.9054 
   78000    306.88108   -21959.326    117.08854   -22076.415    22033.419 
   78200    290.73042   -21973.762    110.92636   -22084.688    6225.9685 
   78400    286.23306   -21980.951    109.21042   -22090.162    20035.916 
   78600    300.55342   -21965.115    114.67426   -22079.789    446.60108 
   78800    300.21315   -21974.511    114.54443   -22089.056   -1592.8347 
   79000    298.70533   -21966.207    113.96913   -22080.177    588.52877 
   79200    312.16557   -21952.316     119.1048   -22071.421    10234.506 
   79400    308.25217   -21973.819    117.61167   -22091.431    15599.784 
   79600    299.77951   -21981.893    114.37898   -22096.272   -4911.9802 
   79800    290.64858   -21977.901    110.89513   -22088.796   -6567.1276 
   80000    295.70004   -21958.985    112.82248   -22071.808    21693.858 
   80200     279.6795    -21985.57    106.70995    -22092.28    -856.0436 
   80400    316.64394   -21975.976     120.8135    -22096.79   -12600.875 
   80600    304.46219   -21958.187    116.16563   -22074.353   -20909.759 
   80800    325.26763   -21955.711    124.10381   -22079.815    15531.359 
   81000    262.39767   -21982.936    100.11617   -22083.053   -17882.629 
   81200    259.88473   -21960.356    99.157377   -22059.513     2604.352 
   81400    296.42478   -21965.443      113.099   -22078.542   -22136.329 
   81600    315.35204   -21973.539    120.32058    -22093.86   -5194.8918 
   81800     287.4513   -21992.778    109.67523   -22102.454   -8879.2166 
   82000    263.99519   -21980.148     100.7257   -22080.874    12360.681 
   82200    297.23006   -21964.093    113.40625   -22077.499   -7818.0772 
   82400    289.05953   -21982.534    110.28884   -22092.823    14743.023 
   82600     266.5171   -21988.197    101.68792   -22089.885    21978.865 
   82800    298.24395   -21966.289     113.7931   -22080.082    15964.361 
   83000    321.92556   -21970.682    122.82867   -22093.511   -15439.363 
   83200    285.77098   -21983.884    109.03411   -22092.918   -20677.335 
   83400    257.43963   -21985.172    98.224466   -22083.396    13017.314 
   83600    331.57584   -21961.875    126.51067   -22088.386    12006.056 
   83800    274.59096   -21983.318    104.76845   -22088.087    13636.109 
   84000    274.96057   -21993.767    104.90947   -22098.677   -2422.8382 
   84200    341.02905   -21961.378    130.11748   -22091.496   -13429.268 
   84400    283.06759   -21979.524    108.00265   -22087.527    10284.393 
   84600    297.98573   -21978.396    113.69457   -22092.091    -4107.535 
   84800     308.6101   -21964.811    117.74824   -22082.559   -7157.8578 
   85000    276.51623   -21975.583    105.50302   -22081.086    -9174.227 
   85200     273.0813   -21983.577    104.19245   -22087.769    15716.728 
   85400    325.85073   -21965.491    124.32629   -22089.817   -18919.445 
   85600     271.9917   -21963.584    103.77672   -22067.361   -13282.632 
   85800    255.92082   -21984.495    97.644973    -22082.14   -2957.5651 
   86000    305.01933   -21967.955     116.3782   -22084.333   -5365.1926 
   86200    291.16704   -21967.594    111.09295   -22078.687   -21141.474 
   86400     269.3706   -21982.544    102.77665   -22085.321   -3884.3337 
   86600    277.11253   -21983.249    105.73054   -22088.979    21227.766 
   86800    298.99112   -21958.064    114.07818   -22072.143     7587.033 
   87000    299.21703   -21979.226    114.16437    -22093.39    -14775.87 
   87200    283.32148   -21983.723    108.09952   -22091.823    20079.692 
   87400    310.54307    -21973.81    118.48575   -22092.296    2678.6799 
   87600    288.28948   -21969.559    109.99503   -22079.554    18917.121 
   87800    343.29348   -21942.728    130.98146   -22073.709    16120.405 
   88000    312.52534   -21972.785    119.24207   -22092.027     -7445.85 
   88200      275.023   -21978.165    104.93329   -22083.098   -4724.1066 
   88400    305.41799    -21951.87     116.5303   -22068.401    12824.047 
   88600    276.39577   -21975.609    105.45706   -22081.066    11551.535 
   88800    283.78614   -21970.536    108.27681   -22078.813    4648.8274 
   89000    348.42738   -21949.977    132.94027   -22082.917    6330.6524 
   89200    288.54438   -21979.063    110.09229   -22089.155    14373.556 
   89400    283.02957   -21978.199    107.98814   -22086.187   -13134.739 
   89600    312.83302   -21953.465    119.35946   -22072.824    402.81947 
   89800    277.95164   -21985.452    106.05069   -22091.503   -6661.4607 
   90000    271.11688   -21974.375    103.44293   -22077.818    11207.374 
   90200    334.16534   -21958.436    127.49868   -22085.934   -5273.6868 
   90400    268.76112    -21986.51    102.54411   -22089.054   -20056.825 
   90600    316.24928   -21969.752    120.66292   -22090.415   -21585.881 
   90800    322.59347   -21959.563     123.0835   -22082.647   -20872.997 
   91000     301.1009   -21988.266    114.88315   -22103.149   -1066.0446 
   91200    257.65322   -22015.296     98.30596   -22113.602    2206.8133 
   91400    295.22789    -21975.92    112.64234   -22088.563   -19501.065 
   91600    336.63212   -21955.891    128.43986   -22084.331   -12009.183 
   91800    264.57371    -21979.04    100.94643   -22079.987   -10280.722 
   92000    295.29384    -21976.61     112.6675   -22089.278     24539.15 
   92200    316.38431   -21956.116    120.71444    -22076.83   -17878.062 
   92400    323.72467   -21976.016    123.51511   -22099.531   -563.55704 
   92600    309.19678   -21966.273    117.97208   -22084.245     13056.56 
   92800    285.12879   -21959.148    108.78909   -22067.937   -23931.759 
   93000    308.21954   -21975.043    117.59922   -22092.642   -14944.718 
   93200    335.37623    -21967.93    127.96068   -22095.891    8366.2251 
   93400    339.04894   -21922.259    129.36198   -22051.621   -11137.569 
   93600    301.30201   -21950.374    114.95988   -22065.334   -12130.748 
   93800    319.28246    -21974.49    121.82021    -22096.31   -19026.806 
   94000    261.38977   -21992.093    99.731615   -22091.825   -18663.563 
   94200    324.28228   -21963.527    123.72786   -22087.255   -218.05133 
   94400    314.02138   -21966.766    119.81288   -22086.579    1799.4819 
   94600    292.25601   -21980.678    111.50843   -22092.187   -21117.647 
   94800     315.1749   -21957.742    120.25299   -22077.995   -13291.384 
   95000    323.98642   -21978.829    123.61497   -22102.444    30004.603 
   95200    297.45738   -21973.742    113.49298   -22087.235    28898.757 
   95400    312.30866   -21956.748     119.1594   -22075.907   -15544.334 
   95600    267.43828   -21984.137    102.03939   -22086.176   -1021.3564 
   95800    310.39471   -21973.639    118.42914   -22092.068   -23314.673 
   96000    291.26445   -21974.631    111.13011   -22085.761    4783.3582 
   96200    305.69244   -21983.856    116.63502   -22100.491   -1731.3711 
   96400    310.10761   -21979.029     118.3196   -22097.349   -1156.7154 
   96600    318.52505   -21959.351    121.53122   -22080.882   -263.03463 
   96800     255.6668   -21991.677    97.548052   -22089.225    22683.155 
   97000     275.7698   -21980.419    105.21823   -22085.637    20559.409 
   97200    305.25593   -21969.252    116.46847    -22085.72   -12080.197 
   97400    249.06192   -21999.968    95.028005   -22094.996   -10310.066 
   97600    291.76917   -21978.819    111.32268   -22090.141   -191.30051 
   97800    269.78252    -21969.29    102.93382   -22072.223    18358.543 
   98000    318.14464   -21972.044    121.38608    -22093.43    901.36175 
   98200    281.62387   -21987.501    107.45181   -22094.953    11564.501 
   98400     320.2747   -21957.463    122.19879   -22079.662   -23457.813 
   98600    287.80333   -21972.055    109.80955   -22081.865    149.14114 
   98800    297.97046   -21976.985    113.68875   -22090.674    457.23076 
   99000    338.32183   -21949.859    129.08456   -22078.944     1165.193 
   99200    298.94554   -21976.629    114.06078    -22090.69    11308.276 
   99400     306.2512   -21964.569    116.84821   -22081.418   -7086.3476 
   99600    357.82854   -21945.904    136.52722   -22082.431    17539.451 
   99800    274.49805   -21976.171      104.733   -22080.904   -14328.013 
  100000    285.67335   -21972.218    108.99686   -22081.214    2447.0518 
  100200    335.44496   -21946.383    127.98691    -22074.37   -19860.662 
  100400    293.49071   -21975.933    111.97953   -22087.912   -3980.9462 
  100600    302.52577    -21970.67     115.4268   -22086.096   -3693.2418 
  100800    323.70366   -21952.193    123.50709     -22075.7    9135.8841 
  101000    286.75341   -21985.421    109.40895    -22094.83    29632.685 
  101200    301.06442   -21968.273    114.86923   -22083.143    34285.442 
  101400    309.33002   -21970.006    118.02292   -22088.029   -15984.578 
  101600    303.78045   -21985.178    115.90551   -22101.084   -906.13443 
  101800    346.25636   -21963.927    132.11193   -22096.039   -4205.5012 
  102000    316.81325   -21969.498     120.8781   -22090.376   -22699.603 
  102200    285.20069   -21992.611    108.81652   -22101.428    20469.718 
  102400    277.36764    -21981.15    105.82787   -22086.978   -7735.9381 
  102600    305.72281   -21966.179    116.64661   -22082.825    6307.2609 
  102800     289.6503   -21978.552    110.51424   -22089.066    2605.4301 
  103000    268.38446   -21985.027    102.40039   -22087.428    15669.126 
  103200    334.11691   -21960.939     127.4802   -22088.419    6081.2737 
  103400    276.60653    -21981.18    105.53747   -22086.718    4486.8854 
  103600    253.42495   -21996.811    96.692688   -22093.504    11724.291 
  103800    295.86515   -21961.845    112.88548   -22074.731     17059.36 
  104000    322.89635   -21970.022    123.19907   -22093.221    -19437.12 
  104200    291.15148   -21987.539    111.08701   -22098.626   -16499.207 
  104400    290.21879   -21976.996    110.73115   -22087.727    7392.0207 
  104600    299.10022   -21968.183     114.1198   -22082.303     9079.767 
  104800    310.21698   -21963.985    118.36133   -22082.347    617.77918 
  105000    297.52184   -21985.153    113.51758   -22098.671   -7539.3849 
  105200    308.86645   -21974.031    117.84605   -22091.877    11987.631 
  105400    285.27497   -21958.511    108.84486   -22067.356   -6668.6559 
  105600    284.34358    -21982.24     108.4895   -22090.729    674.75101 
  105800    298.46252   -21976.207    113.87649   -22090.083   -22916.356 
  106000    248.87796   -21975.455    94.957814   -22070.413   -19602.476 
  106200    313.86933   -21974.277    119.75486   -22094.032   -15663.652 
  106400    295.82159   -21967.573    112.86886   -22080.442   -7270.8746 
  106600    328.93232   -21966.461    125.50205   -22091.963   -28082.409 
  106800     315.4238   -21989.824    120.34796   -22110.172   -26279.896 
  107000    324.22724    -21959.76    123.70686   -22083.467    18671.547 
  107200    309.21349   -21972.127    117.97845   -22090.105   -6033.7995 
  107400    304.89626   -21979.194    116.33124   -22095.525    8472.9825 
  107600    291.20152   -21969.269     111.1061   -22080.375    27879.532 
  107800    274.79264    -21959.59     104.8454   -22064.435   -15454.718 
  108000    276.60795   -21991.278    105.53802   -22096.816    5288.7275 
  108200    280.21339   -21971.018    106.91365   -22077.932    1479.7545 
  108400    349.01336   -21960.033    133.16385   -22093.197   -2906.7743 
  108600    282.00214   -21976.225    107.59614   -22083.821   -6331.9618 
  108800    301.23669   -21970.507    114.93496   -22085.442   -5060.9895 
  109000    327.34102   -21950.664     124.8949   -22075.559   -15324.147 
  109200    303.39627   -21971.605    115.75893   -22087.364   -7386.6909 
  109400     301.8408   -21976.943    115.16545   -22092.108    11251.838 
  109600     332.7876   -21952.805    126.97301   -22079.778    2787.1711 
  109800    308.19395   -21967.013    117.58946   -22084.603    3381.8199 
  110000    296.19756   -21976.939    113.01231   -22089.951   -26388.417 
  110200     354.2897   -21958.565      135.177   -22093.742   -11585.874 
  110400    328.43691   -21970.092    125.31303   -22095.405     19094.76 
  110600    264.99276   -21989.201    101.10632   -22090.307   -7339.0087 
  110800    332.65691    -21962.98    126.92314   -22089.903    825.48007 
  111000    313.12215   -21971.313    119.46978   -22090.782    10568.083 
  111200    265.31557   -22000.203    101.22948   -22101.433   -5324.8859 
  111400    318.03932   -21973.803    121.34589   -22095.149    20906.128 
  111600    311.55717   -21963.981    118.87267   -22082.853   -6153.8403 
  111800    306.19948   -21969.629    116.82848   -22086.458    1509.2763 
  112000    280.11764   -21986.046    106.87712   -22092.924    25929.484 
  112200    311.33499   -21973.819     118.7879   -22092.607    3478.5457 
  112400    308.74267   -21967.797    117.79882   -22085.596    137.16006 
  112600    257.79221   -21991.623    98.358992   -22089.982   -3312.9839 
  112800    292.66842   -21955.789    111.66579   -22067.455    10752.021 
  113000    310.36596   -21972.466    118.41817   -22090.884   -2764.9101 
  113200    258.18882   -21987.286    98.510315   -22085.797   -10842.867 
  113400    299.39934   -21956.502    114.23393   -22070.736    887.56256 
  113600     290.7008   -21967.405    110.91505   -22078.321     637.2369 
  113800    280.73273   -21974.196     107.1118   -22081.308    6945.8668 
  114000    285.22882   -21972.645    108.82726   -22081.472    -11387.83 
  114200     280.1744   -21996.982    106.89877    -22103.88    14438.574 
  114400    294.26432   -21972.637    112.27469   -22084.911   -19205.909 
  114600    310.66843   -21969.596    118.53358    -22088.13   -8277.4552 
  114800     299.7191   -21966.611    114.35593   -22080.967    30181.602 
  115000    296.43386   -21973.437    113.10247   -22086.539    4608.7397 
  115200    265.04533   -21986.479    101.12637   -22087.606   -16860.346 
  115400    296.04692   -21961.553    112.95483   -22074.508   -16073.199 
  115600    282.37322   -21980.471    107.73772   -22088.209    7476.6222 
  115800    283.04162   -21987.199    107.99274   -22095.192    27370.763 
  116000    327.78893   -21959.692     125.0658   -22084.758    -4670.562 
  116200    291.61132   -21983.342    111.26246   -22094.605     7598.973 
  116400    287.08952   -21970.124    109.53719   -22079.661    3137.9855 
  116600    270.75354   -21964.976     103.3043    -22068.28    11474.762 
  116800    281.11333   -21983.604    107.25702   -22090.861    15938.676 
  117000    336.10299    -21950.78    128.23797   -22079.018   -18876.723 
  117200    296.20546   -21971.728    113.01532   -22084.744   -13508.025 
  117400    301.31929   -21972.472    114.96647   -22087.438    9555.1685 
  117600    324.47312    -21962.74    123.80067   -22086.541   -20782.038 
  117800    266.67705   -21995.898    101.74894   -22097.646    2715.1238 
  118000    299.59129   -21968.326    114.30716   -22082.633   -605.05513 
  118200    307.04754   -21963.828    117.15205    -22080.98    -3457.382 
  118400    293.38704   -21975.332    111.93997   -22087.272    17125.258 
  118600    275.86194   -21983.681    105.25338   -22088.934   -17628.098 
  118800    331.57582   -21957.766    126.51066   -22084.276    15692.305 
  119000    308.71595   -21974.682    117.78862   -22092.471   -13854.032 
  119200    286.14829   -21973.112    109.17807    -22082.29   -1974.7055 
  119400    310.94512   -21953.713    118.63915   -22072.353    -4313.053 
  119600    311.44126   -21950.613    118.82845   -22069.441    3598.7853 
  119800    308.54291   -21975.721     117.7226   -22093.444    6599.3616 
  120000    304.95142   -21961.816    116.35229   -22078.168   -4817.8388 
  120200    340.28708   -21955.104    129.83439   -22084.939   -15122.551 
  120400    294.50202   -21981.079    112.36539   -22093.444     190.6725 
  120600    300.04701   -21958.955    114.48104   -22073.436   -6492.0748 
  120800    291.50738   -21963.109     111.2228   -22074.332    11577.936 
  121000    306.20349   -21983.137    116.83001   -22099.967    1628.5123 
  121200      336.109   -21956.983    128.24027   -22085.223    2132.2643 
  121400    311.38197   -21978.352    118.80582   -22097.158    918.73223 
  121600    312.63782   -21977.709    119.28498   -22096.994    389.84394 
  121800    321.68569   -21956.302    122.73714   -22079.039    5346.1226 
  122000    293.51688   -21975.173    111.98951   -22087.163    15478.422 
  122200    268.68697   -21982.075    102.51582   -22084.591   -28056.736 
  122400    300.77418   -21973.593    114.75849   -22088.351   -1117.8208 
  122600    278.22655    -21976.24    106.15558   -22082.395   -4049.7499 
  122800     296.6742   -21958.768    113.19417   -22071.962    -22225.47 
  123000    317.30918   -21951.536    121.06731   -22072.604   -11270.083 
  123200    279.33435   -21977.719    106.57826   -22084.297    1079.8624 
  123400    315.21121   -21968.315    120.26685   -22088.581    3163.9687 
  123600    311.37965   -21967.246    118.80494   -22086.051   -15153.447 
  123800    296.76452   -21977.647    113.22863   -22090.876   -13994.835 
  124000    295.96356   -21955.727    112.92303    -22068.65    8701.8683 
  124200    274.38793   -21973.964    104.69098   -22078.655    10914.946 
  124400     312.3612   -21981.114    119.17944   -22100.293    1227.1963 
  124600    341.19874   -21958.663    130.18223   -22088.846   -2672.4803 
  124800    287.16369   -21985.364    109.56549   -22094.929    3755.1288 
  125000    311.15581   -21980.821    118.71953   -22099.541    3852.4091 
  125200    361.17549   -21962.655    137.80423   -22100.459    5816.1272 
  125400    255.80347   -21993.912    97.600197   -22091.512    27787.847 
  125600    281.85273   -21980.919    107.53913   -22088.458   -3660.9813 
  125800    297.69908   -21966.087    113.58521   -22079.672   -1468.2108 
  126000    316.79236   -21961.467    120.87012   -22082.338   -4222.8286 
  126200    292.47213   -21976.803     111.5909   -22088.394    13737.506 
  126400    311.13924   -21975.422    118.71321   -22094.135    24834.373 
  126600    316.61519   -21956.331    120.80253   -22077.134   -11299.246 
  126800     300.5221   -21972.604    114.66231   -22087.267    39763.986 
  127000    293.67035   -21970.394    112.04807   -22082.442    200.96407 
  127200    330.60669   -21944.954     126.1409   -22071.095    1502.3752 
  127400    291.01602   -21968.541    111.03532   -22079.576   -4316.6621 
  127600    278.88544   -21975.927    106.40698   -22082.334    8942.1717 
  127800    243.96028   -21998.522    93.081505   -22091.604   -6712.3936 
  128000    294.15921   -21970.958    112.23459   -22083.193    7137.8661 
  128200    276.33522   -21971.588    105.43396   -22077.022    5037.2107 
  128400    244.49407   -21983.672     93.28517   -22076.957   -2516.0964 
  128600    325.63151    -21958.97    124.24265   -22083.212    5678.6907 
  128800    309.39462   -21971.967    118.04757   -22090.015   -2773.2582 
  129000    283.77417    -21979.93    108.27224   -22088.202    -512.5682 
  129200    304.30085   -21961.149    116.10407   -22077.253   -3314.8536 
  129400     341.9872   -21955.571    130.48306   -22086.054    8731.9483 
  129600    279.80461   -21984.284    106.75768   -22091.042    -463.9681 
  129800    325.00739   -21962.948    124.00452   -22086.953   -5930.0962 
  130000    308.52018   -21953.944    117.71393   -22071.658    2133.4854 
  130200    287.03968    -21982.55    109.51818   -22092.068    17209.153 
  130400    336.61642    -21966.07    128.43387   -22094.504    7124.1236 
  130600    318.01757    -21960.84    121.33759   -22082.178   -432.34892 
  130800    300.00849   -21978.048    114.46635   -22092.515   -1491.7426 
  131000    293.07341   -21967.885    111.82031   -22079.705    13219.147 
  131200    336.68757   -21950.095    128.46102   -22078.556   -7743.1309 
  131400    274.16889   -21977.646    104.60741   -22082.253     27897.18 
  131600    287.36743   -21970.048    109.64323   -22079.691    -15672.21 
  131800    315.54235   -21951.452    120.39319   -22071.845    5039.5919 
  132000    279.37937   -21977.797    106.59543   -22084.392    3224.2104 
  132200     307.7234   -21964.755    117.40992   -22082.165   -25707.245 
  132400    350.35236    -21939.64    133.67473   -22073.314   -18193.929 
  132600    282.32997   -21974.035    107.72122   -22081.756     20079.42 
  132800    305.87683   -21978.555    116.70537    -22095.26   -13643.755 
  133000    313.35016   -21949.251    119.55678   -22068.808    190.54388 
  133200    319.64566   -21965.995    121.95878   -22087.954    15788.687 
  133400    297.70693   -21969.173     113.5882   -22082.761   -6724.6806 
  133600    285.17415   -21972.175     108.8064   -22080.981   -14664.563 
  133800    278.89589   -21975.968    106.41097   -22082.379   -452.62571 
  134000    340.25008   -21973.827    129.82027   -22103.647    28264.726 
  134200     341.9318   -21952.724    130.46192   -22083.186    2946.0332 
  134400    280.93053   -21982.803    107.18727    -22089.99    6656.4738 
  134600     316.9924   -21971.662    120.94645   -22092.608    178.95133 
  134800    310.95563   -21958.599    118.64316   -22077.242    2889.1784 
  135000    285.38935   -21986.427    108.88851   -22095.315    19165.438 
  135200    312.20105   -21962.571    119.11834   -22081.689    3236.8132 
  135400    296.21633    -21969.18    113.01947     -22082.2    17471.457 
  135600    281.78968   -21989.212    107.51508   -22096.727   -671.12897 
  135800    297.83004   -21966.011    113.63517   -22079.646   -24254.084 
  136000    286.24124   -21971.536    109.21354   -22080.749    3136.7692 
  136200    294.86093   -21984.803    112.50233   -22097.305    10723.708 
  136400    317.18813   -21964.084    121.02113   -22085.105   -860.48426 
  136600    285.97067   -21987.751    109.11031   -22096.861    5988.1966 
  136800    288.41786     -21979.3    110.04401   -22089.344   -11273.834 
  137000    290.88826   -21965.762    110.98658   -22076.749     13594.66 
  137200    302.84081   -21975.701      115.547   -22091.248    14214.119 
  137400     279.9819   -21994.366    106.82533   -22101.191   -4460.8801 
  137600    288.14673   -21973.439    109.94056    -22083.38   -15752.077 
  137800    270.28577   -21975.055    103.12583   -22078.181   -17199.182 
  138000    257.11548   -21997.442    98.100788   -22095.543    21801.984 
  138200    302.14098   -21969.213    115.27998   -22084.493    13802.659 
  138400    331.22416    -21973.45    126.37649   -22099.826    15133.542 
  138600      282.889   -21998.039    107.93451   -22105.973    -4997.267 
  138800    323.35287   -21972.445    123.37325   -22095.819   -22469.085 
  139000    328.35903   -21960.145    125.28331   -22085.428    2564.9246 
  139200    293.74095   -21983.926      112.075   -22096.001   -14088.575 
  139400    292.06458   -21982.055     111.4354    -22093.49    1204.3079 
  139600    274.27713   -21973.449    104.64871   -22078.098   -6697.9231 
  139800    279.45336   -21972.773    106.62367   -22079.397   -4708.0126 
  140000    299.64619   -21967.513    114.32811   -22081.841    -2759.694 
  140200    292.14426   -21977.925     111.4658   -22089.391    20937.581 
  140400    300.72296   -21988.128    114.73895   -22102.867   -11147.588 
  140600    329.27761   -21962.412    125.63379   -22088.046    4340.2754 
  140800    294.11092   -21981.891    112.21616   -22094.107   -24552.506 
  141000    304.41365   -21974.408    116.14711   -22090.555    -27463.59 
  141200    316.62605   -21963.028    120.80667   -22083.834    10170.846 
  141400    272.73771   -21988.837    104.06135   -22092.898    -546.4548 
  141600    289.11228   -21977.871    110.30897    -22088.18   -9678.7771 
  141800    271.90407   -21973.056    103.74328   -22076.799    6219.6929 
  142000    306.22893   -21968.833    116.83972   -22085.673     15040.27 
  142200    269.69478   -21993.855    102.90034   -22096.756    11954.214 
  142400     315.8324   -21975.913    120.50386   -22096.417    2390.8992 
  142600     276.8353   -21967.167    105.62476   -22072.791    3853.8827 
  142800    271.06626    -21989.26    103.42362   -22092.683   -3534.1118 
  143000    323.75105   -21970.884    123.52517   -22094.409    3032.2745 
  143200    312.89712   -21968.356    119.38392    -22087.74   -18528.924 
  143400    272.12721    -21988.53    103.82842   -22092.359    -8115.805 
  143600    300.77719   -21975.719    114.75964   -22090.478    15039.922 
  143800     287.8126   -21962.648    109.81308   -22072.461   -12395.967 
  144000    317.40498   -21974.985    121.10387   -22096.089   -3808.7553 
  144200    271.95919   -21982.168    103.76431   -22085.932    8963.0372 
  144400    318.00885   -21958.438    121.33427   -22079.772    5182.8918 
  144600    307.81417   -21974.801    117.44455   -22092.245   -12328.519 
  144800    361.69636   -21958.729    138.00296   -22096.732   -153.59237 
  145000    297.93282   -21960.307    113.67439   -22073.982    35934.799 
  145200    295.19677   -21977.149    112.63047    -22089.78    9274.3983 
  145400    315.02137   -21975.864    120.19441   -22096.058    16338.962 
  145600    262.48577   -21996.522    100.14979   -22096.672    8479.3683 
  145800    316.83444   -21969.781    120.88618   -22090.667    2815.3048 
  146000    328.73698   -21964.543    125.42752   -22089.971    8392.9888 
  146200    285.35606   -21995.581     108.8758   -22104.457    14714.424 
  146400    282.49501   -21993.384    107.78419   -22101.168    15779.518 
  146600     283.3884   -21973.314    108.12506   -22081.439   -4926.0903 
  146800    296.21888   -21965.357    113.02045   -22078.377    8603.5389 
  147000    293.94334   -21954.215    112.15223   -22066.367   -20878.866 
  147200    272.11285   -21978.272    103.82294   -22082.095   -4624.4785 
  147400    295.28422   -21980.606    112.66383    -22093.27    50.277743 
  147600    327.96595   -21949.802    125.13334   -22074.935    20049.343 
  147800    306.00962   -21971.284    116.75604    -22088.04   -5532.2961 
  148000    271.78418   -21968.425    103.69754   -22072.123    26679.946 
  148200     346.2377   -21941.881    132.10481   -22073.986   -2018.3625 
  148400    339.99056   -21961.454    129.72125   -22091.175    3749.7753 
  148600    293.06278   -21987.207    111.81625   -22099.023   -2899.3348 
  148800    338.27469   -21973.383    129.06657    -22102.45   -3971.2959 
  149000    325.68794    -21966.08    124.26418   -22090.344    13572.799 
  149200    274.83894   -21983.464    104.86306   -22088.327    21550.539 
  149400    308.29158   -21982.043     117.6267   -22099.669   -12928.236 
  149600    296.22032   -21987.295    113.02099   -22100.316    4942.6502 
  149800    266.54056   -22004.713    101.69687    -22106.41   -6228.2768 
  150000    317.27067   -21974.652    121.05262   -22095.705    -20776.52 
  150200    343.56942   -21977.994    131.08674    -22109.08   -20966.011 
  150400    263.92403   -22000.602    100.69855   -22101.301    8104.2702 
  150600    308.31281   -21989.313    117.63481   -22106.948    1007.2409 
  150800    323.07339   -21970.195    123.26661   -22093.462   -1127.4152 
  151000    293.08171   -21985.472    111.82348   -22097.295    13575.677 
  151200    282.98164   -21994.061    107.96986   -22102.031    348.06674 
  151400    299.58909   -21970.762    114.30633   -22085.068   -5948.5991 
  151600    302.32435     -21988.8    115.34995    -22104.15   -13678.198 
  151800    268.99025   -22007.949    102.63153   -22110.581    4193.2542 
  152000    306.75627   -21982.389    117.04092    -22099.43   -8386.3092 
  152200    286.32162   -21971.816    109.24421   -22081.061    12847.485 
  152400    301.81801   -21990.115    115.15676   -22105.272     4425.739 
  152600    293.63479   -21990.863     112.0345   -22102.898    15510.503 
  152800    307.47718   -21966.487    117.31598   -22083.803    18353.424 
  153000    299.66665   -21983.018    114.33592   -22097.354    3709.8328 
  153200    290.62213   -21980.951    110.88504   -22091.836   -15684.578 
  153400    331.36879   -21954.792    126.43167   -22081.224   -23883.737 
  153600    304.88526   -21984.933    116.32705    -22101.26    9556.8237 
  153800    304.01136   -21982.035    115.99362   -22098.029    4011.3389 
  154000    323.67138   -21960.398    123.49477   -22083.893    -20755.29 
  154200    296.96174   -21993.511    113.30388   -22106.815   -9076.9121 
  154400    311.25705   -21972.403    118.75816   -22091.161   -14303.683 
  154600    319.34866   -21971.159    121.84547   -22093.004    5685.1192 
  154800    279.08517   -22002.158    106.48319   -22108.642    2895.4602 
  155000    297.36077   -21978.563    113.45613   -22092.019     12107.75 
  155200    246.39918   -21976.725    94.012053   -22070.737   -14294.133 
  155400    278.71372   -22002.425    106.34146   -22108.766    26127.984 
  155600    280.19274    -21974.12    106.90577   -22081.026    427.73108 
  155800    318.79167   -21977.109    121.63295   -22098.742    8218.7369 
  156000     297.0148   -21996.759    113.32412   -22110.083   -1868.9383 
  156200    302.00227   -21983.338    115.22706   -22098.565   -16047.551 
  156400    323.10434   -21971.062    123.27842    -22094.34   -10684.558 
  156600    333.86976   -21959.551     127.3859   -22086.937    14620.808 
  156800    297.91304   -21986.119    113.66684   -22099.785   -25577.516 
  157000    314.94768   -21982.232     120.1663   -22102.398   -11462.722 
  157200     338.2951   -21962.993    129.07436   -22092.067   -3531.2651 
  157400    306.31659   -21981.782    116.87316   -22098.655   -6101.0708 
  157600    295.94974   -21980.314    112.91775   -22093.231   -16878.843 
  157800    338.21779   -21955.952    129.04486   -22084.997    25891.309 
  158000    315.14915    -21988.35    120.24317   -22108.593    5654.8848 
  158200     289.3361   -21978.576    110.39436    -22088.97   -4278.3834 
  158400    338.33305   -21965.488    129.08884   -22094.577   -3621.0549 
  158600    291.88052   -21995.319    111.36517   -22106.684    20787.088 
  158800    311.39219    -21977.78    118.80972    -22096.59    14578.502 
  159000    311.24817   -21976.767    118.75477   -22095.521   -20639.271 
  159200    298.46652   -21980.638    113.87802   -22094.516    9764.7254 
  159400    321.87094   -21975.329    122.80782   -22098.137   -12941.648 
  159600    287.94057   -21962.621    109.86191   -22072.483   -28098.545 
  159800    283.83353   -21989.324    108.29489   -22097.619   -3325.1929 
  160000    312.08188   -21977.446    119.07287   -22096.519   -10930.661 
  160200    327.17336    -21966.53    124.83093   -22091.361   -3323.4927 
  160400    285.87593   -21980.853    109.07416   -22089.928   -2487.3791 
  160600    269.82518   -21992.902    102.95009   -22095.852   -12466.336 
  160800    325.91372   -21962.432    124.35032   -22086.782    5691.5146 
  161000    314.33474   -21986.265    119.93243   -22106.197    11581.118 
  161200    306.31778   -21985.286    116.87361    -22102.16   -15596.284 
  161400    303.94897    -21978.49    115.96981   -22094.459   -12879.402 
  161600    298.99721   -21982.432     114.0805   -22096.512    8793.1776 
  161800    306.69586    -21983.16    117.01787   -22100.178    984.77334 
  162000    295.58537   -21971.345    112.77873   -22084.124    -7268.534 
  162200    297.84534   -21983.293    113.64101   -22096.934    2170.1834 
  162400    294.00752   -21991.699    112.17671   -22103.875    23031.345 
  162600    320.75162   -21967.034    122.38075   -22089.415    11833.436 
  162800    291.87542   -21989.218    111.36322   -22100.581   -18780.272 
  163000    281.95234   -21988.344    107.57714   -22095.922    3387.2174 
  163200    304.82798   -21980.711    116.30519   -22097.016    -17180.52 
  163400    303.35095   -21973.135    115.74164   -22088.877    1859.8399 
  163600    299.11446   -21978.905    114.12523   -22093.031    3308.1995 
  163800    289.32596   -21995.123    110.39049   -22105.513    19592.885 
  164000    355.87778   -21962.848    135.78292   -22098.631    -1689.261 
  164200    294.43844   -21984.784    112.34113   -22097.125   -7256.5115 
  164400    282.14642   -21987.558    107.65119   -22095.209    3299.7816 
  164600    350.67902   -21959.987    133.79937   -22093.786    3947.0926 
  164800    330.74341   -21967.893    126.19306   -22094.086    8904.7153 
  165000    264.51286   -21990.898    100.92321   -22091.821   -18915.089 
  165200    317.11324    -21976.44    120.99256   -22097.432    3060.6558 
  165400    341.44559   -21956.507    130.27641   -22086.784   -19126.474 
  165600    256.41744   -21988.115    97.834455    -22085.95    5303.6225 
  165800    283.24171   -21971.323    108.06909   -22079.392    10649.442 
  166000    293.33424    -21986.97    111.91983    -22098.89    15497.612 
  166200    268.68926   -21992.678    102.51669   -22095.194    -30065.56 
  166400    328.25446   -21964.929    125.24342   -22090.173    393.59957 
  166600    298.29192   -21979.726     113.8114   -22093.537   -2282.3339 
  166800    294.25624    -21986.39    112.27161   -22098.662   -37505.603 
  167000      305.614   -21972.477    116.60509   -22089.082    29186.526 
  167200    271.90103   -21972.927    103.74212   -22076.669    17391.351 
  167400    311.36932   -21990.285      118.801   -22109.086    25396.541 
  167600    281.33986   -21976.896    107.34345   -22084.239    10720.739 
  167800    317.02963   -21973.469    120.96065   -22094.429   -4248.7584 
  168000    290.90688   -21990.213    110.99368   -22101.207    5084.6817 
  168200      308.992   -21972.858    117.89395   -22090.752   -6024.0481 
  168400    308.55893   -21974.775    117.72871   -22092.504    907.07735 
  168600    274.55003   -21995.228    104.75283   -22099.981     3652.954 
  168800    293.82661   -21982.464    112.10769   -22094.572    13939.834 
  169000    292.95386   -21980.334     111.7747   -22092.109   -6082.0909 
  169200     305.8562   -21967.613     116.6975   -22084.311    19073.372 
  169400    331.18458   -21970.389    126.36139   -22096.751    14582.036 
  169600    273.88996   -21993.236    104.50098   -22097.737    3873.3846 
  169800    324.60906   -21965.487    123.85254    -22089.34   -30087.606 
  170000    345.36456   -21966.806    131.77167   -22098.578     31362.16 
  170200    287.97639   -21985.957    109.87557   -22095.833    9784.9897 
  170400    316.17467   -21966.131    120.63445   -22086.765    16583.576 
  170600    295.04303   -21968.773     112.5718   -22081.345   -4352.4051 
  170800    295.36725   -21985.552    112.69551   -22098.247   -14993.752 
  171000    307.24492   -21977.989    117.22736   -22095.217   -756.96972 
  171200    309.65303   -21965.458    118.14616   -22083.604   -10864.777 
  171400    289.81942   -21983.048    110.57877   -22093.627    4300.9671 
  171600    290.47582   -21977.677    110.82922   -22088.506    10929.386 
  171800    352.18966   -21948.332    134.37574   -22082.708   -10898.403 
  172000    288.96281   -21983.095    110.25193   -22093.347    17991.311 
  172200    316.80613   -21978.606    120.87538   -22099.482   -22876.949 
  172400    339.69213   -21958.388    129.60739   -22087.995    11461.117 
  172600    296.43407   -21989.079    113.10255   -22102.182   -11978.545 
  172800     295.8807   -21982.504    112.89141   -22095.396    16461.383 
  173000    326.86831     -21959.3    124.71454   -22084.014    8054.9059 
  173200    259.74727   -21991.248    99.104932   -22090.353    6460.9386 
  173400    323.87752   -21973.928    123.57342   -22097.501   -6180.3004 
  173600     305.4545   -21983.864    116.54424   -22100.408    4433.3776 
  173800    299.34754   -21997.576    114.21416    -22111.79   -14836.449 
  174000    307.10787    -21977.62    117.17507   -22094.795   -1216.0906 
  174200    313.40089    -21980.05    119.57613   -22099.626    21342.739 
  174400    285.22757   -21995.803    108.82678   -22104.629   -1789.5062 
  174600    329.92014   -21974.302    125.87895   -22100.181   -3384.2545 
  174800    300.29355    -21970.51    114.57511   -22085.085   -22066.778 
  175000    272.44896   -22003.636    103.95118   -22107.588    -15050.82 
  175200    285.99929   -21989.572    109.12122   -22098.693    26756.984 
  175400    312.39619   -21969.995    119.19279   -22089.187    26343.043 
  175600    277.27801   -21999.066    105.79368    -22104.86   -9764.1484 
  175800    274.60358   -21985.993    104.77326   -22090.766   -33511.615 
  176000    298.48044   -21971.997    113.88333   -22085.881   -52.379902 
  176200    295.34221   -21997.019    112.68596   -22109.705   -10334.548 
  176400    297.35117   -21989.474    113.45246   -22102.926   -6169.3845 
  176600    303.99738   -21979.061    115.98828   -22095.049    1522.0155 
  176800    269.74017   -21980.031    102.91766   -22082.949    8594.4753 
  177000    270.03102    -21999.76    103.02863   -22102.789   -6303.3835 
  177200    331.76939   -21972.803    126.58452   -22099.387   -15522.881 
  177400    293.40582    -21983.93    111.94714   -22095.877    6986.0009 
  177600    303.58215   -21991.255    115.82985   -22107.085    16669.215 
  177800    307.66103   -21985.656    117.38612   -22103.042    15759.356 
  178000    291.28468   -21984.072    111.13783    -22095.21    7032.3774 
  178200    302.44948   -21965.798    115.39769   -22081.196    3608.8464 
  178400    317.35791   -21986.805    121.08591   -22107.891   -2846.1134 
  178600    288.11997   -21988.468    109.93035   -22098.398   -9807.9045 
  178800    318.07611   -21970.267    121.35993   -22091.627    25831.704 
  179000    283.58166   -22003.516    108.19879   -22111.715    18057.803 
  179200    304.55808   -21983.945    116.20221   -22100.147   -11992.774 
  179400    341.79765   -21978.074    130.41073   -22108.485    4138.4288 
[...]
  591000    344.35681   -21991.372    131.38717   -22122.759   -18246.735 
  591200    309.99135   -22014.103    118.27524   -22132.378   -8190.9025 
  591400    318.23453   -21998.777    121.42038   -22120.198    7965.7216 
  591600    333.44424   -21997.605    127.22354   -22124.828    806.30618 
  591800    276.65835   -22011.774    105.55725   -22117.331    7653.0659 
  592000    305.79379   -21999.379    116.67369   -22116.053    19388.861 
  592200    323.47298   -21985.717    123.41907   -22109.136    5648.2349 
  592400    286.14863   -22014.749     109.1782   -22123.927     8977.381 
  592600    305.87399   -22008.403    116.70429   -22125.107    1483.4411 
  592800    327.04648   -21988.343    124.78252   -22113.125    -17331.99 
  593000    300.50739   -22020.806     114.6567   -22135.463    7260.0192 
  593200    330.21241       -22000    125.99046    -22125.99   -24132.602 
  593400    313.38436   -22012.299    119.56982   -22131.869   -4918.2551 
  593600    284.87012   -22023.439    108.69039   -22132.129    14896.994 
  593800    329.64967   -21998.867    125.77575   -22124.642     8252.388 
  594000    311.00924   -22007.443    118.66361   -22126.106    14956.019 
  594200    250.53763   -22029.734    95.591052   -22125.325   -9845.0957 
  594400    301.16706   -22009.236    114.90839   -22124.144   -7962.3956 
  594600    271.46473   -22014.195    103.57565    -22117.77   -893.73204 
  594800    269.39075   -22018.292    102.78434   -22121.076    18443.332 
  595000    315.06325   -21994.908    120.21039   -22115.118   -3369.7673 
  595200    318.63663   -22021.089    121.57379   -22142.663    14775.065 
  595400    298.25855   -22017.214    113.79867   -22131.013   -7097.7721 
  595600    284.74815   -21999.037    108.64386   -22107.681    6358.5779 
  595800    343.45237   -21972.137    131.04208   -22103.179    -5617.885 
  596000    311.10692   -22002.539    118.70088    -22121.24   -3049.8649 
  596200    289.49224   -22011.112    110.45394   -22121.566    12922.468 
  596400    291.76014   -22018.339    111.31924   -22129.658   -12020.127 
  596600    291.86347   -21999.811    111.35867    -22111.17    13758.458 
  596800    287.09573   -22002.276    109.53956   -22111.816    10330.725 
  597000    301.75687   -22021.331    115.13343   -22136.464    6177.5387 
  597200    313.67544   -22004.261    119.68088   -22123.942   -5094.5874 
  597400    281.67053   -22033.836    107.46961   -22141.305    6784.0591 
  597600    284.75568   -22024.305    108.64673   -22132.952   -10154.461 
  597800    281.27386   -22007.003    107.31827   -22114.321    9841.4989 
  598000    289.94852   -22023.212    110.62803    -22133.84   -7881.2274 
  598200    262.07597   -22025.279    99.993431   -22125.273    13590.201 
  598400    302.94295   -22007.854    115.58597    -22123.44   -7834.9323 
  598600    279.48371   -22013.334    106.63524   -22119.969   -2759.0974 
  598800    324.06519   -22015.226    123.64503   -22138.871    25378.713 
  599000    296.29959   -21994.541    113.05124   -22107.592    2956.6157 
  599200    289.53803   -22025.542    110.47141   -22136.013   -11492.368 
  599400    278.87513   -22015.684    106.40304   -22122.087   -11729.388 
  599600    318.64243   -21999.649    121.57601   -22121.225   -2338.3145 
  599800    297.93836   -22014.463     113.6765    -22128.14    1704.6895 
  600000    326.88794   -21991.167    124.72203   -22115.889    5604.5152 
  600200    296.29244   -22001.786    113.04851   -22114.834    7269.6398 
  600400    283.18895   -22007.431    108.04895    -22115.48    4472.0621 
  600600    301.81733   -22000.317     115.1565   -22115.474   -8244.3289 
  600800    344.84277   -21985.937    131.57258   -22117.509   -7498.3131 
  601000    307.51448   -22015.391    117.33021   -22132.721    13085.448 
  601200    318.71648   -22003.552    121.60426   -22125.156   -7415.9765 
  601400    318.68918   -21981.152    121.59384   -22102.745    4385.6307 
  601600    306.44284   -22017.539    116.92133   -22134.461   -9683.5525 
  601800     328.6686   -22005.079    125.40143    -22130.48   -7497.4572 
  602000    308.54614   -21989.408    117.72383   -22107.132    36050.993 
  602200    271.64669   -22019.983    103.64508   -22123.628   -6287.2586 
  602400    304.92048   -21999.372    116.34049   -22115.713    1441.9686 
  602600    297.26972   -21998.438    113.42139    -22111.86    8285.3443 
  602800    304.43509   -22008.148    116.15529   -22124.303    12542.099 
  603000    288.05767   -22009.203    109.90658    -22119.11   -5051.7934 
  603200    346.02695   -21981.243     132.0244   -22113.267   -16168.745 
  603400    284.43198   -22006.211    108.52322   -22114.735   -22765.708 
  603600    317.10378   -22010.514    120.98895   -22131.503   -5915.0019 
  603800    304.08369   -22006.681    116.02121   -22122.702    -10888.27 
  604000    307.87632   -22023.327    117.46827   -22140.796    7203.7902 
  604200    286.75144   -22006.918     109.4082   -22116.326    39271.135 
  604400    339.08895   -21999.914    129.37725   -22129.291   -5549.2628 
  604600    311.75919   -22016.803    118.94975   -22135.753   -16324.301 
  604800    268.69811   -22029.634    102.52007   -22132.154    -6553.117 
  605000    311.88688   -22006.764    118.99847   -22125.763    -30294.34 
  605200    331.36316   -22000.959    126.42952   -22127.389   -17830.255 
  605400    249.55713   -22025.872    95.216949   -22121.089    23302.005 
  605600    303.46063   -22000.794    115.78349   -22116.578   -10105.619 
  605800    294.65229   -22006.484    112.42272   -22118.907     23739.62 
  606000    268.01099    -22024.58     102.2579   -22126.838   -6827.3718 
  606200    324.94739   -22006.371    123.98163   -22130.353   -6257.7576 
  606400    316.11885    -22009.19    120.61315   -22129.803   -9864.6751 
  606600    264.74317   -22022.394    101.01108   -22123.405    11543.028 
  606800    300.88023   -22007.468    114.79895   -22122.267    1169.5755 
  607000    331.22556   -21998.019    126.37702   -22124.396    5154.7275 
  607200    257.67295   -22024.395    98.313488   -22122.708    5317.1497 
  607400    289.77797   -22008.783    110.56296   -22119.346    245.97311 
  607600    300.30944   -22004.452    114.58117   -22119.033      17430.3 
  607800     283.9841   -22022.084    108.35234   -22130.437    2566.6628 
  608000    247.82081   -22036.489    94.554464   -22131.043   -15070.173 
  608200    289.15723   -22008.079    110.32612   -22118.405    8062.9075 
  608400    308.68219   -22005.767    117.77574   -22123.542    103.63072 
  608600    259.93295   -22028.874    99.175777   -22128.049   -4944.2148 
  608800    324.94291   -22009.344    123.97992   -22133.324    12759.145 
  609000    312.93462   -22001.462    119.39823    -22120.86   -777.38055 
  609200    274.20391   -22028.564    104.62077   -22133.185    15585.255 
  609400    306.19504    -22005.25    116.82679   -22122.077    4376.4558 
  609600    305.86935   -22007.757    116.70252    -22124.46   -3038.8631 
  609800    291.16127   -22013.233    111.09075   -22124.324   -18721.944 
  610000    331.56822   -21988.598    126.50776   -22115.105    -8634.937 
  610200    310.91755    -22003.36    118.62863   -22121.989   -6821.3546 
  610400     271.7365   -22014.275    103.67935   -22117.954    -14676.18 
  610600    288.73392   -22004.641     110.1646   -22114.806   -17663.622 
  610800    272.59226   -22012.894    104.00586     -22116.9   -29503.517 
  611000    301.58143   -22020.313    115.06649   -22135.379     96.26673 
  611200    320.54864   -21997.265    122.30331   -22119.568   -9017.2266 
  611400    285.48837   -22020.469    108.92629   -22129.395   -12700.362 
  611600    277.80153   -22024.666    105.99342   -22130.659    7965.3062 
  611800    328.55014   -22005.885    125.35623   -22131.241    8251.0327 
  612000    332.60815   -21982.696    126.90454   -22109.601   -16510.918 
  612200    289.38969   -22005.147    110.41481   -22115.562   -19766.855 
  612400    277.76275   -22017.938    105.97862   -22123.917    1013.4098 
  612600      324.084   -21991.246     123.6522   -22114.898   -8883.1931 
  612800    316.44709   -22004.738    120.73839   -22125.477     21117.57 
  613000    279.75525   -22008.383    106.73885   -22115.121    21065.637 
  613200     342.4418   -21989.703    130.65651    -22120.36    904.91312 
  613400    289.94549   -22021.356    110.62687   -22131.982    2256.1985 
  613600    284.30795   -22012.596     108.4759   -22121.072    -5018.144 
  613800    316.17116   -21991.775    120.63311   -22112.408    2321.1776 
  614000    274.67621   -22024.583    104.80097   -22129.384   -519.60259 
  614200    271.85595   -21998.144    103.72492   -22101.869    12325.255 
  614400    319.57959   -22004.205    121.93357   -22126.138    1964.2464 
  614600    286.05614   -22031.006    109.14291   -22140.149    789.25623 
  614800    310.77411   -22008.516     118.5739    -22127.09   -6153.5533 
  615000    295.59419    -22007.71     112.7821   -22120.492   -3271.4934 
  615200    282.39535   -22030.626    107.74616   -22138.372       -29622 
  615400    280.12517   -22004.582    106.87999   -22111.462    21372.218 
  615600    298.48214   -22007.622    113.88398   -22121.506    5069.4015 
  615800    259.79652   -22032.808    99.123723   -22131.932    17984.761 
  616000    291.55259   -22001.634    111.24005   -22112.874   -4405.4964 
  616200    300.43811    -22011.38    114.63026   -22126.011   -5.1277745 
  616400    290.89431   -22011.617    110.98889   -22122.606    22543.547 
  616600    316.07067   -21991.512    120.59477   -22112.107   -25562.341 
  616800     310.7205   -22019.019    118.55344   -22137.572    26962.477 
  617000    316.94858   -22008.182    120.92973   -22129.111   -11252.166 
  617200    328.66013   -21990.691     125.3982   -22116.089    1169.8917 
  617400    321.79838   -21996.843    122.78014   -22119.623    18370.662 
  617600    300.49361   -22015.676    114.65144   -22130.327    9663.8017 
  617800    328.76977   -21986.689    125.44003   -22112.129    14549.089 
  618000    312.80999   -22008.407    119.35068   -22127.758   -21303.031 
  618200    287.44371   -22008.686    109.67233   -22118.358    15239.836 
  618400    343.29927   -21997.683    130.98367   -22128.667   -1981.7352 
  618600     293.3706   -22015.922     111.9337   -22127.856    5963.7476 
  618800     295.0841   -22020.684    112.58747   -22133.271    19437.371 
  619000    300.94923   -22000.841    114.82528   -22115.666    1197.5106 
  619200    280.59157   -22017.661    107.05794   -22124.719    3232.5036 
  619400    267.57099   -22017.427    102.09002   -22119.517   -13973.442 
  619600    328.87094    -21991.12    125.47863   -22116.599    11105.073 
  619800    291.89728   -22017.479    111.37157    -22128.85   -14919.409 
  620000    322.17539   -22013.023    122.92399   -22135.947    -38789.11 
  620200    317.11419   -21996.464    120.99292   -22117.456   -13669.438 
  620400     327.9566   -21997.239    125.12977   -22122.369   -999.77198 
  620600    265.01432     -22016.2    101.11454   -22117.314   -410.22188 
  620800    318.63384   -22041.024    121.57273   -22162.597    2161.6058 
  621000    295.20054   -22118.592     112.6319   -22231.224    7248.7165 
  621200    306.35307   -22157.388    116.88708   -22274.275   -28957.073 
  621400    323.16226   -22149.367    123.30052   -22272.668    2983.0482 
  621600    313.93043   -22144.924    119.77817   -22264.702    14735.932 
  621800    290.37379   -22164.979    110.79029    -22275.77   -4333.8782 
  622000    306.73361   -22133.435    117.03227   -22250.467   -8450.6707 
  622200    320.52723   -22156.842    122.29514   -22279.137   -9363.2869 
  622400    296.02494   -22173.804    112.94645   -22286.751    15029.334 
  622600    316.45292   -22156.807    120.74061   -22277.547    24234.609 
  622800    337.67684   -22157.489    128.83847   -22286.328   -3450.6672 
  623000    256.73668   -22173.035     97.95626   -22270.991   -7716.1404 
  623200    286.01117   -22159.137    109.12576   -22268.263    -1040.203 
  623400    368.19316   -22124.322    140.48177   -22264.804    15782.972 
  623600    309.93611   -22165.937    118.25417   -22284.191    22646.845 
  623800    253.20959   -22185.458    96.610522   -22282.069    11526.508 
  624000    274.22542   -22162.797    104.62898   -22267.426   -5244.5648 
  624200    281.20724   -22163.521    107.29285   -22270.814    2805.8511 
  624400    283.31709   -22181.298    108.09785   -22289.396    652.15718 
  624600    322.35029   -22159.389    122.99072   -22282.379   -11143.004 
  624800    271.40013    -22174.91    103.55101   -22278.461    10532.248 
  625000    253.56352   -22190.689    96.745559   -22287.434    2460.8027 
  625200    322.97863   -22164.459    123.23046   -22287.689   -3665.4383 
  625400    315.92849    -22148.92    120.54052    -22269.46    7473.8019 
  625600    277.98111   -22176.666    106.06194   -22282.727   -9503.4936 
  625800    298.90082   -22163.321    114.04372   -22277.365    6631.6352 
  626000    317.51541   -22158.221      121.146   -22279.367    8517.8755 
  626200    309.87588   -22161.817    118.23118   -22280.048    9757.7621 
  626400    292.60929   -22177.063    111.64323   -22288.707    3059.9261 
  626600    325.07313   -22149.826     124.0296   -22273.856    36302.334 
  626800    282.09309   -22159.368    107.63084   -22266.999    26024.627 
  627000    245.91315   -22192.118     93.82661   -22285.945    11350.102 
  627200    283.08317   -22174.615    108.00859   -22282.624   -1437.4033 
  627400    316.69399   -22162.683    120.83259   -22283.515    19255.356 
  627600    313.34749   -22164.298    119.55576   -22283.854   -22950.093 
  627800    279.19755   -22181.507    106.52606   -22288.033     29151.14 
  628000    276.01508   -22157.464    105.31181   -22262.776   -21669.337 
  628200    291.39058   -22174.997    111.17823   -22286.175   -2990.9014 
  628400      271.239   -22179.027    103.48953   -22282.517   -1732.1793 
  628600    329.61095   -22160.463    125.76098   -22286.224    14352.991 
  628800    288.50011   -22184.808     110.0754   -22294.884    28588.296 
  629000    302.16395   -22177.376    115.28875   -22292.665    2237.8861 
  629200    317.60222   -22166.145    121.17912   -22287.324    239.81998 
  629400    306.89178   -22173.789    117.09262   -22290.881    15535.048 
  629600    297.17123   -22174.167     113.3838   -22287.551   -19924.069 
  629800    311.36015   -22172.004     118.7975   -22290.801    7107.7918 
  630000    333.92569   -22146.161    127.40724   -22273.568    10774.107 
  630200    299.08988   -22164.116    114.11586   -22278.232   -18923.174 
  630400     323.4983   -22168.248    123.42873   -22291.677   -10150.416 
  630600    319.19005   -22151.657    121.78495   -22273.442    10194.695 
  630800    322.77595   -22146.646    123.15313   -22269.799   -31603.896 
  631000     279.5915   -22177.492    106.67637   -22284.169   -8280.8647 
  631200    276.75994   -22171.062    105.59601   -22276.658   -1799.1908 
  631400    308.88137   -22151.277    117.85174   -22269.129    609.03818 
  631600    292.44181   -22172.814    111.57933   -22284.394   -12018.291 
  631800     288.8466   -22171.143     110.2076    -22281.35    6978.1991 
  632000    269.83757     -22184.7    102.95482   -22287.654    28269.931 
  632200    275.46716   -22185.517    105.10276   -22290.619    3383.6252 
  632400    322.95085   -22165.526    123.21986   -22288.745   -5952.7022 
  632600    289.44521    -22186.07    110.43599   -22296.506    4135.5434 
  632800    244.87995   -22218.834      93.4324   -22312.266   -15765.144 
  633000    273.93922   -22192.389    104.51978   -22296.909    1005.7626 
  633200    304.54572   -22178.921     116.1975   -22295.119   -17817.937 
  633400    288.50088   -22202.668    110.07569   -22312.743   -8384.0787 
  633600    277.18958    -22198.43    105.75993    -22304.19   -1228.6543 
  633800    310.82285   -22188.489     118.5925   -22307.082    9538.5366 
  634000    302.24262   -22197.136    115.31876   -22312.455   -14122.529 
  634200    315.20133   -22211.088    120.26308   -22331.351    8289.2794 
  634400     282.5547   -22222.601    107.80696   -22330.408    5934.7894 
  634600    313.22438   -22214.459    119.50879   -22333.968   -22794.165 
  634800    304.39504   -22200.371    116.14001   -22316.511   -3073.6379 
  635000    293.69077   -22228.723    112.05586   -22340.779    5118.3002 
  635200    300.61857   -22208.082    114.69912   -22322.782   -1294.9319 
  635400    317.52974   -22209.894    121.15147   -22331.045   -4021.6425 
[n039:19582:0:19582] Caught signal 11 (Segmentation fault: address not mapped to object at address 0x1b4e5bb30)
==== backtrace (tid:  19582) ====
 0  /opt/ohpc/pub/mpi/ucx-ohpc/1.11.2/lib/libucs.so.0(ucs_handle_error+0x254) [0x15187eb5fb94]
 1  /opt/ohpc/pub/mpi/ucx-ohpc/1.11.2/lib/libucs.so.0(+0x27d4c) [0x15187eb5fd4c]
 2  /opt/ohpc/pub/mpi/ucx-ohpc/1.11.2/lib/libucs.so.0(+0x27ff8) [0x15187eb5fff8]
 3  /lib64/libpthread.so.0(+0x12c30) [0x1518923eac30]
 4  /home/matheus.medina/lammps-3Mar20/src/lmp_g++_openmpi_link() [0x7dd7fe]
 5  /home/matheus.medina/lammps-3Mar20/src/lmp_g++_openmpi_link() [0x7ddc8f]
 6  /home/matheus.medina/lammps-3Mar20/src/lmp_g++_openmpi_link() [0x7de524]
 7  /home/matheus.medina/lammps-3Mar20/src/lmp_g++_openmpi_link() [0x5b347f]
 8  /home/matheus.medina/lammps-3Mar20/src/lmp_g++_openmpi_link() [0x93c5db]
 9  /home/matheus.medina/lammps-3Mar20/src/lmp_g++_openmpi_link() [0x689628]
10  /home/matheus.medina/lammps-3Mar20/src/lmp_g++_openmpi_link() [0x48b0c7]
11  /home/matheus.medina/lammps-3Mar20/src/lmp_g++_openmpi_link() [0x4892e2]
12  /home/matheus.medina/lammps-3Mar20/src/lmp_g++_openmpi_link() [0x489c33]
13  /home/matheus.medina/lammps-3Mar20/src/lmp_g++_openmpi_link() [0x4236e7]
14  /lib64/libc.so.6(__libc_start_main+0xf3) [0x151893623493]
15  /home/matheus.medina/lammps-3Mar20/src/lmp_g++_openmpi_link() [0x423d7e]
=================================
[n039:19582] *** Process received signal ***
[n039:19582] Signal: Segmentation fault (11)
[n039:19582] Signal code:  (-6)
[n039:19582] Failing at address: 0x144e800004c7e
[n039:19582] [ 0] /lib64/libpthread.so.0(+0x12c30)[0x1518923eac30]
[n039:19582] [ 1] /home/matheus.medina/lammps-3Mar20/src/lmp_g++_openmpi_link[0x7dd7fe]
[n039:19582] [ 2] /home/matheus.medina/lammps-3Mar20/src/lmp_g++_openmpi_link[0x7ddc8f]
[n039:19582] [ 3] /home/matheus.medina/lammps-3Mar20/src/lmp_g++_openmpi_link[0x7de524]
[n039:19582] [ 4] /home/matheus.medina/lammps-3Mar20/src/lmp_g++_openmpi_link[0x5b347f]
[n039:19582] [ 5] /home/matheus.medina/lammps-3Mar20/src/lmp_g++_openmpi_link[0x93c5db]
[n039:19582] [ 6] /home/matheus.medina/lammps-3Mar20/src/lmp_g++_openmpi_link[0x689628]
[n039:19582] [ 7] /home/matheus.medina/lammps-3Mar20/src/lmp_g++_openmpi_link[0x48b0c7]
[n039:19582] [ 8] /home/matheus.medina/lammps-3Mar20/src/lmp_g++_openmpi_link[0x4892e2]
[n039:19582] [ 9] /home/matheus.medina/lammps-3Mar20/src/lmp_g++_openmpi_link[0x489c33]
[n039:19582] [10] /home/matheus.medina/lammps-3Mar20/src/lmp_g++_openmpi_link[0x4236e7]
[n039:19582] [11] /lib64/libc.so.6(__libc_start_main+0xf3)[0x151893623493]
[n039:19582] [12] /home/matheus.medina/lammps-3Mar20/src/lmp_g++_openmpi_link[0x423d7e]
[n039:19582] *** End of error message ***
--------------------------------------------------------------------------
Primary job  terminated normally, but 1 process returned
a non-zero exit code. Per user-direction, the job has been aborted.
--------------------------------------------------------------------------
--------------------------------------------------------------------------
mpirun noticed that process rank 6 with PID 19582 on node n039 exited on signal 11 (Segmentation fault).
--------------------------------------------------------------------------
