ITEM: TIMESTEP
0
ITEM: NUMBER OF ATOMS
162
ITEM: BOX BOUNDS xy xz yz pp pp pp
-6.7755000000000001e+00 1.3552000000000000e+01 -6.7755000000000001e+00
0.0000000000000000e+00 1.1735510246683001e+01 0.0000000000000000e+00
0.0000000000000000e+00 2.2149999999999999e+01 0.0000000000000000e+00
ITEM: ATOMS id type x y z 
8 1 -2.486 5.297 9.849 
87 1 3.001 4.231 10.696 
90 1 2.733 5.481 9.824 
109 1 -2.486 5.297 0.765 
158 1 2.733 5.481 0.79 
11 1 4.24 4.139 20.131 
14 1 3.031 4.094 19.728 
18 1 1.299 5.827 18.554 
33 1 2.266 4.151 20.924 
43 1 4.343 3.96 21.647 
47 1 3.32 5.732 17.88 
52 1 4.24 4.139 12.633 
76 1 2.552 4.924 14.209 
85 1 4.343 3.96 11.117 
89 1 3.32 5.732 14.883 
91 1 1.036 5.037 11.84 
102 1 3.031 4.094 13.035 
105 1 1.299 5.827 14.209 
114 1 2.266 4.151 11.84 
150 1 2.552 4.924 18.554 
156 1 3.001 4.231 22.068 
159 1 1.036 5.037 20.924 
161 2 0.418 3.834 11.88 
162 3 0.418 2.858 11.88 
5 1 -5.049 10.63 8.653 
9 1 -3.317 8.897 7.479 
19 1 -1.707 7.414 10.572 
21 1 -2.66 8.795 10.993 
23 1 -3.31 7.532 6.805 
25 1 -4.284 10.573 9.849 
32 1 1.503 6.367 0.79 
36 1 -1.869 7.426 9.056 
38 1 -2.209 6.086 8.653 
54 1 0.3 8.576 10.696 
57 1 1.291 8.001 9.824 
60 1 -1.707 7.414 0.042 
65 1 -3.31 7.532 3.808 
78 1 -1.869 7.426 1.558 
80 1 -2.566 8.842 1.961 
84 1 -4.57 9.799 3.135 
99 1 -3.054 9.687 0.765 
100 1 -2.96 6.142 3.135 
107 1 -5.049 10.63 1.961 
110 1 -3.317 8.897 3.135 
111 1 0.642 5.929 10.696 
113 1 1.503 6.367 9.824 
119 1 -4.284 10.573 0.765 
127 1 -2.209 6.086 1.961 
131 1 -2.318 6.148 10.993 
138 1 1.291 8.001 0.79 
142 1 -2.566 8.842 8.653 
145 1 -4.57 9.799 7.479 
151 1 -5.019 10.493 10.993 
154 1 -3.054 9.687 9.849 
155 1 -2.96 6.142 7.479 
12 1 2.53 7.1 17.202 
17 1 0.468 9.427 20.924 
24 1 -3.52 8.357 11.865 
27 1 -0.31 7.31 21.647 
29 1 0.642 5.929 22.068 
31 1 1.292 7.192 17.88 
44 1 -0.148 7.298 20.131 
46 1 0.191 8.638 19.728 
51 1 -0.31 7.31 11.117 
53 1 2.53 7.1 15.561 
56 1 1.292 7.192 14.883 
63 1 -2.318 6.148 21.771 
66 1 -3.309 6.723 20.899 
70 1 -0.148 7.298 12.633 
72 1 0.548 5.882 13.035 
92 1 0.942 8.582 14.209 
95 1 -5.019 10.493 21.771 
98 1 -4.751 9.243 20.899 
104 1 0.468 9.427 11.84 
116 1 -2.66 8.795 21.771 
118 1 -3.52 8.357 20.899 
122 1 0.191 8.638 13.035 
133 1 -3.309 6.723 11.865 
136 1 0.3 8.576 22.068 
147 1 0.548 5.882 19.728 
153 1 -4.751 9.243 11.865 
160 1 0.942 8.582 18.554 
1 1 7.976 4.694 10.572 
4 1 9.274 4.77 10.993 
20 1 8.034 4.861 9.056 
42 1 9.55 5.41 7.479 
67 1 10.043 4.578 0.765 
77 1 7.976 4.694 0.042 
94 1 8.035 4.861 1.558 
96 1 9.278 4.635 1.961 
121 1 4.688 5.417 10.696 
130 1 9.55 5.41 3.135 
134 1 10.043 4.578 9.849 
152 1 9.278 4.635 8.653 
45 1 4.688 5.417 22.068 
55 1 4.788 5.329 13.035 
106 1 9.274 4.77 21.771 
137 1 4.788 5.329 19.728 
2 1 7.294 10.585 9.056 
3 1 9.004 7.624 6.127 
6 1 8.556 6.347 6.805 
16 1 2.314 8.72 0.79 
22 1 7.166 6.156 8.653 
26 1 7.226 8.565 7.479 
35 1 7.191 10.764 10.572 
37 1 6.846 9.307 10.993 
39 1 8.214 8.992 6.805 
41 1 6.677 7.002 9.849 
48 1 3.775 6.213 0.79 
61 1 7.294 10.585 1.558 
62 1 9.004 7.624 4.487 
64 1 6.747 9.395 1.961 
68 1 7.437 6.931 3.135 
71 1 4.29 8.493 10.696 
74 1 3.567 7.818 9.824 
81 1 8.556 6.347 3.808 
83 1 6.47 8.606 0.765 
93 1 7.191 10.764 0.042 
97 1 8.214 8.992 3.808 
101 1 2.261 9.954 10.696 
103 1 2.314 8.72 9.824 
117 1 7.166 6.156 1.961 
120 1 7.226 8.565 3.135 
123 1 3.775 6.213 9.824 
129 1 6.677 7.002 0.765 
132 1 6.747 9.395 8.653 
135 1 7.437 6.931 7.479 
141 1 7.244 6.231 10.993 
144 1 6.47 8.606 9.849 
148 1 3.567 7.818 0.79 
7 1 9.22 6.004 11.865 
10 1 3.558 10.029 21.647 
13 1 2.261 9.954 22.068 
15 1 2.978 8.376 17.88 
28 1 3.5 9.862 20.131 
30 1 4.369 8.568 19.728 
34 1 4.308 6.159 18.554 
40 1 7.76 8.511 11.865 
49 1 4.857 7.722 20.924 
50 1 1.984 9.314 18.554 
58 1 1.491 10.146 11.84 
59 1 4.097 7.793 14.209 
69 1 3.558 10.029 11.117 
73 1 2.978 8.376 14.883 
75 1 5.064 6.118 11.84 
79 1 7.244 6.231 21.771 
82 1 7.967 6.906 20.899 
86 1 3.5 9.862 12.633 
88 1 2.256 10.089 13.035 
108 1 9.22 6.004 20.899 
112 1 4.369 8.568 13.035 
115 1 4.308 6.159 14.209 
124 1 4.857 7.722 11.84 
125 1 1.984 9.314 14.209 
126 1 6.846 9.307 21.771 
128 1 7.76 8.511 20.899 
139 1 1.491 10.146 20.924 
140 1 4.097 7.793 18.554 
143 1 7.967 6.906 11.865 
146 1 4.29 8.493 22.068 
149 1 5.064 6.118 20.924 
157 1 2.256 10.089 19.728 
ITEM: TIMESTEP
10
ITEM: NUMBER OF ATOMS
162
ITEM: BOX BOUNDS xy xz yz pp pp pp
-6.7755000000000001e+00 1.3552000000000000e+01 -6.7755000000000001e+00
0.0000000000000000e+00 1.1735510246683001e+01 0.0000000000000000e+00
0.0000000000000000e+00 2.2149999999999999e+01 0.0000000000000000e+00
ITEM: ATOMS id type x y z 
8 1 -2.41458 5.4044 9.84054 
87 1 2.98806 4.32256 10.641 
90 1 2.63691 5.53876 9.77489 
109 1 -2.41329 5.40665 0.773089 
158 1 2.66509 5.43935 0.853245 
11 1 4.2939 4.2532 20.1066 
14 1 2.90435 4.14086 19.7043 
18 1 1.32528 5.85387 18.5842 
33 1 2.10034 4.27004 20.9174 
43 1 4.28823 4.20191 21.5604 
47 1 3.24608 5.80148 17.8597 
52 1 4.33707 4.24101 12.6546 
76 1 2.42267 4.90483 14.1791 
85 1 4.32766 4.20227 11.1936 
89 1 3.2262 5.78491 14.8924 
91 1 0.817462 4.95694 11.8492 
102 1 2.9191 4.13854 13.0626 
105 1 1.32771 5.87016 14.1516 
114 1 2.19286 4.24895 11.8459 
150 1 2.43732 4.91162 18.5728 
156 1 2.98003 4.28962 22.1067 
159 1 0.953906 5.1169 20.916 
161 2 0.397066 3.88704 11.8741 
162 3 0.35361 2.83416 11.8812 
5 1 -4.91164 10.5892 8.62278 
9 1 -3.34432 8.87388 7.52044 
19 1 -1.76445 7.51541 10.5608 
21 1 -2.60849 8.75696 10.9432 
23 1 -3.299 7.55609 6.82316 
25 1 -4.10731 10.4514 9.84156 
32 1 1.58689 6.34506 0.767245 
36 1 -1.89212 7.536 9.06001 
38 1 -2.15269 6.2373 8.64561 
54 1 0.305341 8.51226 10.6826 
57 1 1.35556 7.97811 9.78045 
60 1 -1.77252 7.5155 0.0470498 
65 1 -3.299 7.55245 3.79531 
78 1 -1.8902 7.53608 1.54439 
80 1 -2.57449 8.79355 1.90975 
84 1 -4.42245 9.83204 3.12249 
99 1 -2.97344 9.62699 0.784802 
100 1 -2.92238 6.24233 3.16408 
107 1 -4.92817 10.5985 1.9735 
110 1 -3.33319 8.87082 3.09337 
111 1 0.586542 6.00366 10.7281 
113 1 1.49461 6.35994 9.84055 
119 1 -4.09563 10.4514 0.809305 
127 1 -2.1523 6.23819 1.96572 
131 1 -2.32886 6.2334 11.0046 
138 1 1.3521 7.99826 0.825798 
142 1 -2.57561 8.80191 8.71246 
145 1 -4.42939 9.81296 7.50168 
151 1 -4.99034 10.4234 11.0449 
154 1 -2.97309 9.61522 9.82555 
155 1 -2.92445 6.24623 7.4485 
12 1 2.59893 7.07335 17.1259 
17 1 0.395931 9.32046 20.9164 
24 1 -3.59042 8.37186 11.8561 
27 1 -0.252655 7.19114 21.6439 
29 1 0.614623 5.97373 22.0173 
31 1 1.29139 7.18469 17.893 
44 1 -0.123698 7.18218 20.1377 
46 1 0.129905 8.48501 19.727 
51 1 -0.236806 7.195 11.1116 
53 1 2.5853 7.08044 15.6581 
56 1 1.31225 7.22273 14.8808 
63 1 -2.33206 6.23941 21.761 
66 1 -3.37304 6.74858 20.8666 
70 1 -0.0956112 7.1616 12.6547 
72 1 0.537191 5.96772 13.0015 
92 1 0.909177 8.47928 14.2446 
95 1 -5.01443 10.4312 21.6865 
98 1 -4.69194 9.18968 20.8025 
104 1 0.399637 9.32786 11.8514 
116 1 -2.60128 8.74196 21.8196 
118 1 -3.5361 8.36989 20.9145 
122 1 0.131761 8.50378 13.0419 
133 1 -3.37232 6.7441 11.9028 
136 1 0.313005 8.49704 22.085 
147 1 0.535174 5.92728 19.7998 
153 1 -4.69378 9.25984 11.9298 
160 1 0.90362 8.4811 18.5165 
1 1 7.85814 4.96646 10.5139 
4 1 9.17898 4.77516 11.0127 
20 1 7.84499 4.97194 9.04795 
42 1 9.44446 5.43581 7.44718 
67 1 9.96325 4.57012 0.755308 
77 1 7.85442 4.96161 0.105424 
94 1 7.84877 4.98185 1.55958 
96 1 9.15646 4.66907 1.99953 
121 1 4.70252 5.47675 10.6827 
130 1 9.43635 5.44219 3.17045 
134 1 9.96079 4.571 9.85593 
152 1 9.16292 4.67245 8.61482 
45 1 4.65238 5.44529 22.0444 
55 1 4.83157 5.50999 13.0585 
106 1 9.18098 4.77731 21.7459 
137 1 4.80631 5.48576 19.7062 
2 1 7.23221 10.4846 9.01735 
3 1 8.95826 7.65896 6.02933 
6 1 8.51336 6.39721 6.85321 
16 1 2.35767 8.69535 0.859482 
22 1 7.14516 6.1989 8.70138 
26 1 7.16594 8.39355 7.56101 
35 1 7.24131 10.5455 10.5048 
37 1 6.87658 9.2644 10.9934 
39 1 8.29073 8.91724 6.77524 
41 1 6.73378 7.00068 9.8071 
48 1 3.70368 6.3767 0.848029 
61 1 7.23022 10.471 1.57195 
62 1 8.95192 7.64637 4.58216 
64 1 6.72057 9.24525 1.97936 
68 1 7.4117 6.94765 3.03522 
71 1 4.30394 8.54619 10.7621 
74 1 3.64872 7.73645 9.81124 
81 1 8.52685 6.39989 3.76237 
83 1 6.56382 8.44385 0.779274 
93 1 7.19935 10.5326 0.16022 
97 1 8.30278 8.91679 3.85043 
101 1 2.35817 9.92601 10.6745 
103 1 2.3505 8.67699 9.77166 
117 1 7.14113 6.1807 1.91186 
120 1 7.14325 8.39344 3.05359 
123 1 3.79032 6.31149 9.80781 
129 1 6.73447 6.99803 0.804116 
132 1 6.71627 9.21843 8.61759 
135 1 7.4036 6.95964 7.59911 
141 1 7.22148 6.17712 10.9118 
144 1 6.5574 8.43504 9.82292 
148 1 3.62184 7.77889 0.799995 
7 1 9.18198 6.02907 11.9353 
10 1 3.6742 9.75646 21.6084 
13 1 2.35846 9.95048 22.0906 
15 1 3.00105 8.30505 17.9374 
28 1 3.69848 9.77866 20.1118 
30 1 4.4069 8.50762 19.7735 
34 1 4.34644 6.32534 18.6286 
40 1 7.80558 8.34634 11.9105 
49 1 4.79918 7.72201 20.887 
50 1 2.10633 9.27891 18.5183 
58 1 1.57984 10.1441 11.8298 
59 1 4.11643 7.77122 14.1134 
69 1 3.67371 9.75754 11.182 
73 1 2.97093 8.28425 14.8176 
75 1 4.98168 6.29417 11.8731 
79 1 7.21887 6.17925 21.8473 
82 1 7.89923 6.97767 20.8778 
86 1 3.67942 9.75033 12.6246 
88 1 2.38268 10.0563 13.0634 
108 1 9.18996 6.03508 20.8308 
112 1 4.38435 8.55096 12.9903 
115 1 4.34199 6.31368 14.1322 
124 1 4.81203 7.7219 11.8841 
125 1 2.10122 9.28387 14.2466 
126 1 6.92391 9.29366 21.7736 
128 1 7.75813 8.35788 20.863 
139 1 1.56769 10.1573 20.9276 
140 1 4.11529 7.76738 18.6486 
143 1 7.90211 6.96455 11.8828 
146 1 4.31955 8.54042 21.995 
149 1 4.97374 6.28871 20.9048 
157 1 2.35505 10.0508 19.6794 
ITEM: TIMESTEP
20
ITEM: NUMBER OF ATOMS
162
ITEM: BOX BOUNDS xy xz yz pp pp pp
-6.7755000000000001e+00 1.3552000000000000e+01 -6.7755000000000001e+00
0.0000000000000000e+00 1.1735510246683001e+01 0.0000000000000000e+00
0.0000000000000000e+00 2.2149999999999999e+01 0.0000000000000000e+00
ITEM: ATOMS id type x y z 
8 1 -2.42942 5.41127 9.83953 
87 1 2.98569 4.3301 10.6378 
90 1 2.64373 5.53628 9.77454 
109 1 -2.42989 5.40803 0.775812 
158 1 2.66074 5.44931 0.855409 
11 1 4.27679 4.22956 20.1075 
14 1 2.88333 4.15603 19.7039 
18 1 1.30254 5.86184 18.5769 
33 1 2.09455 4.27633 20.9085 
43 1 4.28212 4.21207 21.5503 
47 1 3.25688 5.78902 17.8442 
52 1 4.32092 4.22753 12.6427 
76 1 2.42598 4.91573 14.1749 
85 1 4.31482 4.22078 11.2055 
89 1 3.24255 5.779 14.91 
91 1 0.804886 4.96097 11.8454 
102 1 2.92201 4.15148 13.067 
105 1 1.30862 5.87792 14.163 
114 1 2.18548 4.26199 11.8457 
150 1 2.43561 4.91989 18.5794 
156 1 2.95312 4.2844 22.1121 
159 1 0.95269 5.11823 20.9188 
161 2 0.374086 3.87166 11.8732 
162 3 0.341531 2.83757 11.8816 
5 1 -4.90106 10.5688 8.62482 
9 1 -3.32254 8.86822 7.50231 
19 1 -1.75952 7.51702 10.5565 
21 1 -2.61513 8.76481 10.9658 
23 1 -3.3026 7.53672 6.82374 
25 1 -4.11108 10.4458 9.8383 
32 1 1.60016 6.3599 0.77904 
36 1 -1.88335 7.55968 9.0637 
38 1 -2.15586 6.23743 8.6398 
54 1 0.314847 8.50108 10.6812 
57 1 1.36174 7.97702 9.78377 
60 1 -1.75918 7.51706 0.0555522 
65 1 -3.3052 7.53439 3.7893 
78 1 -1.8814 7.56197 1.54892 
80 1 -2.55189 8.79646 1.89377 
84 1 -4.45027 9.81029 3.11217 
99 1 -2.9735 9.61504 0.779288 
100 1 -2.93218 6.27428 3.17458 
107 1 -4.90285 10.5685 1.98851 
110 1 -3.31939 8.86945 3.1135 
111 1 0.570303 5.9932 10.7226 
113 1 1.49389 6.36474 9.8367 
119 1 -4.11999 10.4398 0.770989 
127 1 -2.15375 6.23881 1.97511 
131 1 -2.33556 6.2368 11.0078 
138 1 1.36891 7.9921 0.829894 
142 1 -2.55031 8.79818 8.72041 
145 1 -4.4522 9.80741 7.50372 
151 1 -4.96913 10.4192 11.0339 
154 1 -2.97167 9.61196 9.83657 
155 1 -2.93174 6.27555 7.43899 
12 1 2.57119 7.06201 17.1421 
17 1 0.411853 9.31354 20.9107 
24 1 -3.57018 8.36599 11.8495 
27 1 -0.251087 7.18916 21.6378 
29 1 0.60789 5.96417 22.031 
31 1 1.28677 7.19142 17.902 
44 1 -0.135339 7.16127 20.1404 
46 1 0.136557 8.48598 19.7164 
51 1 -0.24179 7.19716 11.1171 
53 1 2.56194 7.05871 15.6384 
56 1 1.28571 7.20313 14.8731 
63 1 -2.33671 6.23164 21.7537 
66 1 -3.39365 6.76637 20.8608 
70 1 -0.113059 7.15575 12.6484 
72 1 0.527791 5.95945 12.9961 
92 1 0.914253 8.46633 14.2481 
95 1 -4.97424 10.3955 21.7242 
98 1 -4.67588 9.20545 20.8342 
104 1 0.408344 9.31658 11.852 
116 1 -2.60293 8.77275 21.8046 
118 1 -3.54678 8.36323 20.9089 
122 1 0.139693 8.49864 13.0511 
133 1 -3.39438 6.75968 11.9039 
136 1 0.316073 8.49393 22.088 
147 1 0.523714 5.928 19.7931 
153 1 -4.67709 9.23539 11.9293 
160 1 0.911098 8.45136 18.5135 
1 1 7.85783 4.95353 10.5215 
4 1 9.15531 4.8059 11.0148 
20 1 7.83376 4.94328 9.05387 
42 1 9.45483 5.44773 7.44394 
67 1 9.9617 4.58335 0.766654 
77 1 7.85345 4.95086 0.088013 
94 1 7.83469 4.94662 1.55536 
96 1 9.16424 4.67388 1.99485 
121 1 4.71342 5.49648 10.6715 
130 1 9.45498 5.44837 3.16979 
134 1 9.96157 4.58494 9.84597 
152 1 9.16352 4.67547 8.61753 
45 1 4.65517 5.48711 22.068 
55 1 4.84127 5.52272 13.0693 
106 1 9.15455 4.8114 21.7466 
137 1 4.8232 5.51349 19.6985 
2 1 7.26406 10.4867 9.04088 
3 1 8.97076 7.65632 6.06549 
6 1 8.51471 6.39283 6.83038 
16 1 2.36539 8.69361 0.862601 
22 1 7.1129 6.18928 8.70352 
26 1 7.18147 8.41069 7.53662 
35 1 7.25356 10.5275 10.4909 
37 1 6.87604 9.22966 11.0081 
39 1 8.28062 8.92502 6.77323 
41 1 6.71575 6.99995 9.82728 
48 1 3.70085 6.36109 0.842553 
61 1 7.25947 10.4925 1.58086 
62 1 8.97142 7.6549 4.54998 
64 1 6.70814 9.20782 1.99423 
68 1 7.39264 6.96144 3.05739 
71 1 4.31373 8.51649 10.7402 
74 1 3.62831 7.75198 9.81539 
81 1 8.52101 6.395 3.78748 
83 1 6.55721 8.41808 0.793107 
93 1 7.25167 10.5476 0.136042 
97 1 8.27932 8.92801 3.83566 
101 1 2.37978 9.90512 10.6684 
103 1 2.37178 8.66131 9.76926 
117 1 7.1045 6.18132 1.91108 
120 1 7.18043 8.41396 3.07915 
123 1 3.7902 6.33439 9.79751 
129 1 6.71776 6.99974 0.780603 
132 1 6.70524 9.20874 8.6178 
135 1 7.39631 6.95984 7.56923 
141 1 7.2177 6.2025 10.9418 
144 1 6.54981 8.42414 9.82423 
148 1 3.60436 7.79199 0.807578 
7 1 9.17305 6.03812 11.9312 
10 1 3.67419 9.7719 21.5921 
13 1 2.3805 9.92956 22.0867 
15 1 3.01548 8.32845 17.9033 
28 1 3.7013 9.78286 20.1335 
30 1 4.43283 8.53926 19.78 
34 1 4.34594 6.30979 18.6148 
40 1 7.77765 8.35943 11.9024 
49 1 4.81796 7.72624 20.906 
50 1 2.07866 9.27407 18.5186 
58 1 1.57806 10.1346 11.8404 
59 1 4.14194 7.75905 14.1283 
69 1 3.68023 9.76439 11.1584 
73 1 3.00339 8.31755 14.85 
75 1 4.99501 6.31472 11.8727 
79 1 7.21787 6.20119 21.8222 
82 1 7.91356 6.94852 20.8816 
86 1 3.69882 9.78549 12.6236 
88 1 2.37451 10.0543 13.0727 
108 1 9.171 6.04329 20.8354 
112 1 4.42679 8.54647 12.9874 
115 1 4.33464 6.31014 14.1491 
124 1 4.82406 7.73329 11.86 
125 1 2.07329 9.28833 14.2392 
126 1 6.8812 9.23709 21.7522 
128 1 7.76127 8.36376 20.8511 
139 1 1.56934 10.1413 20.9191 
140 1 4.13935 7.76191 18.6325 
143 1 7.91755 6.94715 11.8821 
146 1 4.32725 8.52378 22.0171 
149 1 4.98226 6.30253 20.9077 
157 1 2.37202 10.0496 19.6919 
ITEM: TIMESTEP
30
ITEM: NUMBER OF ATOMS
162
ITEM: BOX BOUNDS xy xz yz pp pp pp
-6.7755000000000001e+00 1.3552000000000000e+01 -6.7755000000000001e+00
0.0000000000000000e+00 1.1735510246683001e+01 0.0000000000000000e+00
0.0000000000000000e+00 2.2149999999999999e+01 0.0000000000000000e+00
ITEM: ATOMS id type x y z 
8 1 -2.44429 5.42948 9.83407 
87 1 2.98084 4.34717 10.6383 
90 1 2.64197 5.54168 9.7688 
109 1 -2.44434 5.42833 0.781079 
158 1 2.64612 5.4435 0.860727 
11 1 4.2647 4.2465 20.1069 
14 1 2.86932 4.16571 19.7082 
18 1 1.28909 5.85348 18.5678 
33 1 2.08026 4.28326 20.9062 
43 1 4.27061 4.24103 21.5415 
47 1 3.2466 5.79758 17.8306 
52 1 4.31552 4.24284 12.6441 
76 1 2.43056 4.93086 14.1771 
85 1 4.30617 4.25385 11.2128 
89 1 3.23706 5.79168 14.9294 
91 1 0.789395 4.95592 11.8368 
102 1 2.91528 4.16776 13.0589 
105 1 1.2934 5.86854 14.1691 
114 1 2.17111 4.28681 11.8479 
150 1 2.42926 4.93148 18.5752 
156 1 2.94295 4.2931 22.1149 
159 1 0.940936 5.12975 20.9282 
161 2 0.34239 3.86216 11.871 
162 3 0.321175 2.84337 11.8822 
5 1 -4.88779 10.5547 8.63168 
9 1 -3.30423 8.8741 7.49045 
19 1 -1.75639 7.52689 10.5582 
21 1 -2.58811 8.77865 10.9774 
23 1 -3.29507 7.54559 6.81693 
25 1 -4.09674 10.4423 9.83338 
32 1 1.60303 6.38095 0.790489 
36 1 -1.86611 7.57639 9.064 
38 1 -2.15591 6.25144 8.63808 
54 1 0.327073 8.48882 10.6748 
57 1 1.3643 7.95631 9.78968 
60 1 -1.75522 7.52508 0.0548921 
65 1 -3.29647 7.54492 3.79693 
78 1 -1.86513 7.57651 1.54886 
80 1 -2.52905 8.80176 1.90022 
84 1 -4.44977 9.79371 3.11496 
99 1 -2.95478 9.59944 0.765513 
100 1 -2.9371 6.28469 3.17043 
107 1 -4.89009 10.5551 1.98542 
110 1 -3.3031 8.87482 3.12531 
111 1 0.55102 5.97966 10.7185 
113 1 1.49115 6.38034 9.83965 
119 1 -4.1012 10.4363 0.779067 
127 1 -2.15517 6.25172 1.97516 
131 1 -2.34971 6.24972 11.0138 
138 1 1.37606 7.98112 0.826762 
142 1 -2.52776 8.80294 8.71407 
145 1 -4.45025 9.79172 7.4985 
151 1 -4.9599 10.3923 11.0401 
154 1 -2.95695 9.60053 9.84764 
155 1 -2.93595 6.28571 7.44223 
12 1 2.56733 7.07202 17.1532 
17 1 0.426403 9.2943 20.9052 
24 1 -3.54508 8.34612 11.8624 
27 1 -0.248466 7.17723 21.642 
29 1 0.598713 5.96184 22.0462 
31 1 1.28045 7.18196 17.8909 
44 1 -0.151776 7.1458 20.1414 
46 1 0.136994 8.47161 19.7159 
51 1 -0.246704 7.18538 11.1186 
53 1 2.55405 7.06603 15.608 
56 1 1.27212 7.19003 14.8787 
63 1 -2.34878 6.24784 21.7513 
66 1 -3.40048 6.78503 20.8642 
70 1 -0.132775 7.14262 12.6446 
72 1 0.509817 5.95109 12.9843 
92 1 0.917851 8.45227 14.2486 
95 1 -4.95927 10.3833 21.7228 
98 1 -4.66791 9.19638 20.8378 
104 1 0.423491 9.30097 11.8593 
116 1 -2.57947 8.78264 21.7882 
118 1 -3.53355 8.34121 20.8999 
122 1 0.142573 8.48393 13.0545 
133 1 -3.40194 6.78192 11.8998 
136 1 0.329232 8.47945 22.0902 
147 1 0.50495 5.92301 19.7871 
153 1 -4.66789 9.21311 11.931 
160 1 0.917041 8.44043 18.5176 
1 1 7.83187 4.95548 10.5197 
4 1 9.13537 4.83576 11.0134 
20 1 7.80805 4.9382 9.06572 
42 1 9.44809 5.46363 7.44493 
67 1 9.94958 4.6027 0.77489 
77 1 7.82717 4.95024 0.0908088 
94 1 7.80964 4.94385 1.54554 
96 1 9.14899 4.69325 1.9952 
121 1 4.71167 5.52404 10.6627 
130 1 9.44779 5.46469 3.16573 
134 1 9.95096 4.6027 9.83679 
152 1 9.15041 4.69154 8.61875 
45 1 4.63824 5.51758 22.083 
55 1 4.83957 5.54089 13.0724 
106 1 9.13503 4.84161 21.7497 
137 1 4.82356 5.53464 19.6954 
2 1 7.27613 10.4759 9.04748 
3 1 8.96937 7.64827 6.07704 
6 1 8.50998 6.39264 6.8094 
16 1 2.37266 8.69975 0.870561 
22 1 7.08091 6.17006 8.70272 
26 1 7.18756 8.41409 7.52728 
35 1 7.27647 10.4927 10.4821 
37 1 6.8699 9.20349 11.0242 
39 1 8.28635 8.92396 6.75698 
41 1 6.69946 6.98323 9.83929 
48 1 3.70035 6.35405 0.847329 
61 1 7.27613 10.475 1.56712 
62 1 8.96944 7.65 4.53535 
64 1 6.71104 9.18968 1.99629 
68 1 7.38072 6.95493 3.06848 
71 1 4.32755 8.51329 10.7335 
74 1 3.61925 7.76446 9.797 
81 1 8.50652 6.3947 3.80276 
83 1 6.55051 8.40352 0.806369 
93 1 7.27505 10.4955 0.127833 
97 1 8.28746 8.92263 3.85534 
101 1 2.39944 9.87616 10.6725 
103 1 2.38243 8.65406 9.76517 
117 1 7.07709 6.17337 1.91875 
120 1 7.18827 8.40807 3.08587 
123 1 3.79157 6.3377 9.78905 
129 1 6.70229 6.97647 0.778239 
132 1 6.70749 9.1904 8.62033 
135 1 7.3814 6.95457 7.54568 
141 1 7.21078 6.20653 10.9531 
144 1 6.53933 8.40296 9.80724 
148 1 3.59486 7.80653 0.81969 
7 1 9.15912 6.04387 11.934 
10 1 3.69691 9.76815 21.5889 
13 1 2.40071 9.90671 22.0814 
15 1 3.0288 8.32957 17.8871 
28 1 3.72849 9.78226 20.1402 
30 1 4.45973 8.54957 19.7714 
34 1 4.33994 6.31386 18.6063 
40 1 7.75507 8.37439 11.9073 
49 1 4.83282 7.7461 20.9106 
50 1 2.08695 9.25775 18.521 
58 1 1.5887 10.1174 11.849 
59 1 4.14732 7.76606 14.1396 
69 1 3.70772 9.76798 11.1593 
73 1 3.02407 8.3265 14.8723 
75 1 5.00659 6.32996 11.8792 
79 1 7.20811 6.20617 21.8102 
82 1 7.91803 6.94556 20.8659 
86 1 3.72837 9.78169 12.619 
88 1 2.38623 10.0382 13.0665 
108 1 9.15693 6.05246 20.8339 
112 1 4.45453 8.55876 12.9949 
115 1 4.33239 6.31491 14.1581 
124 1 4.84033 7.75161 11.8559 
125 1 2.08975 9.26507 14.2411 
126 1 6.86347 9.20657 21.7427 
128 1 7.74839 8.37276 20.8529 
139 1 1.58285 10.1232 20.9088 
140 1 4.15216 7.76717 18.6228 
143 1 7.92405 6.94156 11.8954 
146 1 4.33553 8.52067 22.0327 
149 1 4.98763 6.3187 20.8972 
157 1 2.38587 10.0318 19.692 
ITEM: TIMESTEP
40
ITEM: NUMBER OF ATOMS
162
ITEM: BOX BOUNDS xy xz yz pp pp pp
-6.7755000000000001e+00 1.3552000000000000e+01 -6.7755000000000001e+00
0.0000000000000000e+00 1.1735510246683001e+01 0.0000000000000000e+00
0.0000000000000000e+00 2.2149999999999999e+01 0.0000000000000000e+00
ITEM: ATOMS id type x y z 
8 1 -2.46004 5.4532 9.83393 
87 1 2.97275 4.37453 10.6422 
90 1 2.63813 5.55861 9.75595 
109 1 -2.45966 5.4538 0.781776 
158 1 2.63555 5.451 0.877742 
11 1 4.25192 4.27452 20.0978 
14 1 2.85302 4.18091 19.7108 
18 1 1.27314 5.85161 18.5595 
33 1 2.0665 4.29461 20.9106 
43 1 4.25699 4.27182 21.5356 
47 1 3.23496 5.80061 17.8302 
52 1 4.308 4.27263 12.6512 
76 1 2.42105 4.93368 14.1778 
85 1 4.30049 4.28411 11.2212 
89 1 3.227 5.7963 14.9287 
91 1 0.763866 4.94472 11.8292 
102 1 2.90361 4.18475 13.0491 
105 1 1.27941 5.86186 14.1708 
114 1 2.15731 4.31019 11.8429 
150 1 2.41306 4.93341 18.5712 
156 1 2.93248 4.31241 22.1165 
159 1 0.922952 5.1367 20.93 
161 2 0.317719 3.86186 11.8667 
162 3 0.291216 2.84542 11.8833 
5 1 -4.87126 10.5383 8.63784 
9 1 -3.29085 8.87268 7.48159 
19 1 -1.75418 7.54678 10.5583 
21 1 -2.55629 8.78999 10.9884 
23 1 -3.30046 7.54057 6.81702 
25 1 -4.08267 10.4251 9.84266 
32 1 1.58888 6.38173 0.809881 
36 1 -1.84521 7.59467 9.05825 
38 1 -2.14626 6.27428 8.64113 
54 1 0.33201 8.47257 10.679 
57 1 1.36902 7.94654 9.78783 
60 1 -1.74886 7.54462 0.0549205 
65 1 -3.29815 7.54179 3.79802 
78 1 -1.84424 7.59407 1.55466 
80 1 -2.50905 8.81302 1.91119 
84 1 -4.43352 9.79292 3.11562 
99 1 -2.93071 9.59327 0.76269 
100 1 -2.93528 6.28953 3.16761 
107 1 -4.87179 10.5397 1.97554 
110 1 -3.29135 8.87456 3.13241 
111 1 0.528881 5.96471 10.7122 
113 1 1.47585 6.37457 9.83718 
119 1 -4.08501 10.4205 0.769307 
127 1 -2.14803 6.27339 1.97332 
131 1 -2.35783 6.26626 11.0106 
138 1 1.38784 7.97843 0.834168 
142 1 -2.50935 8.81475 8.70198 
145 1 -4.4341 9.79299 7.49869 
151 1 -4.94852 10.3531 11.0418 
154 1 -2.93293 9.59476 9.85075 
155 1 -2.92984 6.29019 7.44389 
12 1 2.5719 7.06869 17.1463 
17 1 0.442453 9.26974 20.9024 
24 1 -3.51182 8.34204 11.8803 
27 1 -0.249611 7.16171 21.6428 
29 1 0.586298 5.95883 22.0593 
31 1 1.28072 7.18348 17.8898 
44 1 -0.171661 7.12684 20.1377 
46 1 0.131607 8.44964 19.717 
51 1 -0.254175 7.16967 11.1197 
53 1 2.55553 7.06858 15.6109 
56 1 1.27228 7.18996 14.8727 
63 1 -2.35747 6.26492 21.7535 
66 1 -3.40338 6.79163 20.8594 
70 1 -0.155165 7.12528 12.6473 
72 1 0.493837 5.93738 12.9856 
92 1 0.917183 8.44569 14.2475 
95 1 -4.94861 10.346 21.7232 
98 1 -4.65486 9.17309 20.8236 
104 1 0.439978 9.27815 11.8635 
116 1 -2.54953 8.7881 21.776 
118 1 -3.50595 8.3387 20.8841 
122 1 0.137911 8.46128 13.0536 
133 1 -3.40648 6.7911 11.9063 
136 1 0.341286 8.46389 22.0874 
147 1 0.48705 5.91174 19.7789 
153 1 -4.65511 9.17924 11.9465 
160 1 0.916339 8.43299 18.5208 
1 1 7.79217 4.95081 10.5261 
4 1 9.11385 4.86204 11.0096 
20 1 7.77291 4.94814 9.05691 
42 1 9.43726 5.47353 7.44693 
67 1 9.92962 4.63238 0.775523 
77 1 7.78643 4.94586 0.083803 
94 1 7.77658 4.94664 1.55061 
96 1 9.11727 4.71292 1.99253 
121 1 4.703 5.55139 10.6639 
130 1 9.43735 5.47497 3.16177 
134 1 9.93086 4.63125 9.83829 
152 1 9.11869 4.7075 8.62261 
45 1 4.62229 5.54375 22.0793 
55 1 4.8385 5.56438 13.0773 
106 1 9.11054 4.86747 21.7553 
137 1 4.81747 5.55643 19.6892 
2 1 7.28823 10.4511 9.03525 
3 1 8.95985 7.65822 6.07328 
6 1 8.50184 6.39102 6.80915 
16 1 2.3812 8.70498 0.884206 
22 1 7.05173 6.16372 8.67879 
26 1 7.18944 8.39956 7.51766 
35 1 7.28991 10.4557 10.4728 
37 1 6.86858 9.18334 11.0239 
39 1 8.29518 8.92177 6.75752 
41 1 6.6782 6.96473 9.82629 
48 1 3.68621 6.36392 0.869048 
61 1 7.28828 10.4498 1.57579 
62 1 8.96354 7.65693 4.53856 
64 1 6.71941 9.16908 1.9986 
68 1 7.36494 6.94266 3.07752 
71 1 4.34577 8.51194 10.7255 
74 1 3.63632 7.77534 9.77697 
81 1 8.50092 6.39521 3.80357 
83 1 6.5442 8.38415 0.807505 
93 1 7.29101 10.455 0.138349 
97 1 8.29603 8.92374 3.85704 
101 1 2.42339 9.85371 10.6817 
103 1 2.38914 8.64666 9.75738 
117 1 7.04422 6.15962 1.93385 
120 1 7.1961 8.39518 3.09672 
123 1 3.78981 6.35258 9.76872 
129 1 6.67719 6.95973 0.781854 
132 1 6.71522 9.16952 8.61816 
135 1 7.37275 6.94043 7.54791 
141 1 7.19469 6.21152 10.9593 
144 1 6.53178 8.38681 9.81126 
148 1 3.60071 7.81196 0.837846 
7 1 9.14448 6.05728 11.9368 
10 1 3.72773 9.76657 21.5892 
13 1 2.42368 9.8938 22.0738 
15 1 3.03398 8.32698 17.8833 
28 1 3.76238 9.78063 20.1346 
30 1 4.49435 8.55933 19.7581 
34 1 4.33533 6.32764 18.5946 
40 1 7.75292 8.36483 11.9271 
49 1 4.85468 7.76396 20.9068 
50 1 2.09769 9.24614 18.5233 
58 1 1.60896 10.0895 11.8498 
59 1 4.16505 7.77801 14.1479 
69 1 3.74982 9.77593 11.1547 
73 1 3.02954 8.32801 14.8798 
75 1 5.01587 6.34826 11.88 
79 1 7.18835 6.20969 21.803 
82 1 7.8979 6.941 20.8467 
86 1 3.76096 9.77893 12.623 
88 1 2.41827 10.0154 13.0659 
108 1 9.14273 6.06477 20.83 
112 1 4.48911 8.5681 13.0101 
115 1 4.32904 6.32965 14.1699 
124 1 4.86475 7.76958 11.8594 
125 1 2.10224 9.25412 14.238 
126 1 6.8673 9.18281 21.7397 
128 1 7.74679 8.3645 20.8368 
139 1 1.60281 10.0974 20.9049 
140 1 4.16923 7.77842 18.614 
143 1 7.9041 6.94103 11.9159 
146 1 4.35268 8.51987 22.0449 
149 1 4.98902 6.33825 20.8967 
157 1 2.41794 10.0126 19.6912 
ITEM: TIMESTEP
50
ITEM: NUMBER OF ATOMS
162
ITEM: BOX BOUNDS xy xz yz pp pp pp
-6.7755000000000001e+00 1.3552000000000000e+01 -6.7755000000000001e+00
0.0000000000000000e+00 1.1735510246683001e+01 0.0000000000000000e+00
0.0000000000000000e+00 2.2149999999999999e+01 0.0000000000000000e+00
ITEM: ATOMS id type x y z 
8 1 -2.49801 5.50515 9.82262 
87 1 2.95102 4.42812 10.6371 
90 1 2.63276 5.59403 9.73424 
109 1 -2.49386 5.50775 0.788809 
158 1 2.61382 5.46021 0.915926 
11 1 4.22227 4.32853 20.0886 
14 1 2.82084 4.20573 19.7195 
18 1 1.24415 5.85161 18.5463 
33 1 2.03888 4.31586 20.9197 
43 1 4.22101 4.3359 21.524 
47 1 3.21505 5.79636 17.8392 
52 1 4.28993 4.33022 12.6561 
76 1 2.38809 4.93649 14.1854 
85 1 4.28009 4.34597 11.2353 
89 1 3.21016 5.79616 14.9143 
91 1 0.71352 4.92509 11.8201 
102 1 2.86804 4.21127 13.0298 
105 1 1.25279 5.8566 14.1686 
114 1 2.13074 4.34604 11.8332 
150 1 2.37149 4.93084 18.5591 
156 1 2.90851 4.34704 22.125 
159 1 0.882208 5.14117 20.9399 
161 2 0.273942 3.85459 11.8566 
162 3 0.219931 2.8499 11.8857 
5 1 -4.83633 10.5246 8.66315 
9 1 -3.26831 8.87509 7.47227 
19 1 -1.74999 7.58329 10.5465 
21 1 -2.50115 8.80625 11.0113 
23 1 -3.30352 7.52907 6.80558 
25 1 -4.05078 10.3884 9.85724 
32 1 1.56227 6.39028 0.850193 
36 1 -1.80251 7.63498 9.0454 
38 1 -2.14451 6.30539 8.63632 
54 1 0.35641 8.4353 10.6804 
57 1 1.37763 7.92889 9.78494 
60 1 -1.73482 7.57754 0.0654054 
65 1 -3.30274 7.53315 3.79977 
78 1 -1.79899 7.63113 1.56847 
80 1 -2.46055 8.83331 1.92636 
84 1 -4.39363 9.79024 3.12409 
99 1 -2.87285 9.58803 0.752548 
100 1 -2.93448 6.29455 3.16053 
107 1 -4.83378 10.5143 1.95756 
110 1 -3.2663 8.87411 3.1416 
111 1 0.486332 5.94338 10.695 
113 1 1.44175 6.37328 9.8218 
119 1 -4.04728 10.3847 0.756031 
127 1 -2.14084 6.30727 1.97416 
131 1 -2.38028 6.30481 11.0119 
138 1 1.41082 7.97173 0.853917 
142 1 -2.46357 8.83356 8.68691 
145 1 -4.39467 9.79664 7.48319 
151 1 -4.92578 10.2794 11.0563 
154 1 -2.87239 9.59113 9.85633 
155 1 -2.93479 6.29204 7.4557 
12 1 2.58081 7.05891 17.1491 
17 1 0.481293 9.21838 20.8952 
24 1 -3.45787 8.32817 11.9185 
27 1 -0.249317 7.13323 21.637 
29 1 0.567262 5.9528 22.0801 
31 1 1.28288 7.19273 17.8898 
44 1 -0.211208 7.09027 20.1313 
46 1 0.122142 8.41409 19.7186 
51 1 -0.263303 7.13003 11.13 
53 1 2.56363 7.06114 15.6074 
56 1 1.27863 7.19891 14.8602 
63 1 -2.37744 6.30471 21.7529 
66 1 -3.40782 6.80808 20.8458 
70 1 -0.192944 7.08044 12.6546 
72 1 0.45064 5.91389 12.9938 
92 1 0.916093 8.44352 14.2381 
95 1 -4.92597 10.2771 21.7109 
98 1 -4.63188 9.12321 20.7911 
104 1 0.474926 9.22519 11.8731 
116 1 -2.49921 8.80296 21.7556 
118 1 -3.45543 8.32713 20.8498 
122 1 0.129412 8.4249 13.0525 
133 1 -3.40788 6.80853 11.9211 
136 1 0.376544 8.42752 22.0869 
147 1 0.444255 5.88904 19.7616 
153 1 -4.62999 9.12688 11.9734 
160 1 0.913618 8.43122 18.5283 
1 1 7.69568 4.921 10.5389 
4 1 9.05731 4.92319 10.998 
20 1 7.70348 4.95246 9.06878 
42 1 9.4296 5.49332 7.46062 
67 1 9.88118 4.70153 0.777131 
77 1 7.69071 4.91189 0.0748021 
94 1 7.70858 4.95505 1.55016 
96 1 9.05545 4.75 1.9848 
121 1 4.68268 5.60263 10.6596 
130 1 9.41787 5.49751 3.15024 
134 1 9.88403 4.70313 9.83936 
152 1 9.06794 4.7431 8.62073 
45 1 4.58301 5.603 22.0804 
55 1 4.84101 5.61429 13.0871 
106 1 9.05093 4.9301 21.7621 
137 1 4.80741 5.60222 19.6849 
2 1 7.31581 10.3988 9.02595 
3 1 8.9574 7.65006 6.07648 
6 1 8.48747 6.41465 6.79617 
16 1 2.40363 8.71401 0.906665 
22 1 6.97623 6.13251 8.66205 
26 1 7.21428 8.359 7.49596 
35 1 7.32355 10.3872 10.4609 
37 1 6.87817 9.13521 11.0304 
39 1 8.32335 8.92666 6.76131 
41 1 6.62649 6.92939 9.82387 
48 1 3.66219 6.38651 0.901038 
61 1 7.32133 10.401 1.58563 
62 1 8.9542 7.66176 4.54287 
64 1 6.73068 9.12266 2.00514 
68 1 7.32844 6.92183 3.09363 
71 1 4.38251 8.51428 10.7178 
74 1 3.66893 7.80322 9.74228 
81 1 8.48949 6.401 3.81062 
83 1 6.53677 8.34303 0.813002 
93 1 7.3239 10.3851 0.156204 
97 1 8.31747 8.92835 3.85008 
101 1 2.48061 9.8027 10.6942 
103 1 2.41489 8.62914 9.74846 
117 1 6.97522 6.13001 1.9624 
120 1 7.20766 8.36136 3.11914 
123 1 3.79283 6.37876 9.73337 
129 1 6.61984 6.93104 0.79249 
132 1 6.72151 9.12791 8.61781 
135 1 7.323 6.9191 7.51191 
141 1 7.16435 6.20903 10.9595 
144 1 6.51779 8.35977 9.79795 
148 1 3.61623 7.83357 0.869275 
7 1 9.10853 6.09237 11.9403 
10 1 3.79146 9.76535 21.5856 
13 1 2.47365 9.86573 22.0665 
15 1 3.04604 8.32056 17.8806 
28 1 3.83695 9.78054 20.1253 
30 1 4.56723 8.58321 19.7298 
34 1 4.32877 6.35844 18.5701 
40 1 7.74633 8.3489 11.9593 
49 1 4.90275 7.79422 20.8995 
50 1 2.11273 9.22803 18.5324 
58 1 1.65463 10.0259 11.8556 
59 1 4.20099 7.80482 14.1714 