 # C1
  
         144  atoms
           1  atom types
 
      0.000000000000      21.070900000000  xlo xhi
      0.000000000000      21.070900000000  ylo yhi
      0.000000000000      21.070900000000  zlo zhi
 
Masses
 
            1   12.01100000             # C
 
Atoms # charge
 
         1    1   0.000000       19.120788205000       1.950111795000       1.950111795000
         2    1   0.000000       12.485561795000       8.585338205000       8.585338205000
         3    1   0.000000       12.485561795000       8.585338205000       1.950111795000
         4    1   0.000000       19.120788205000       1.950111795000       8.585338205000
         5    1   0.000000       12.485561795000       1.950111795000       8.585338205000
         6    1   0.000000       19.120788205000       8.585338205000       1.950111795000
         7    1   0.000000       19.120788205000       8.585338205000       8.585338205000
         8    1   0.000000       12.485561795000       1.950111795000       1.950111795000
         9    1   0.000000        8.585338205000      12.485561795000      12.485561795000
        10    1   0.000000        1.950111795000      19.120788205000      19.120788205000
        11    1   0.000000        1.950111795000      19.120788205000      12.485561795000
        12    1   0.000000        8.585338205000      12.485561795000      19.120788205000
        13    1   0.000000        1.950111795000      12.485561795000      19.120788205000
        14    1   0.000000        8.585338205000      19.120788205000      12.485561795000
        15    1   0.000000        8.585338205000      19.120788205000      19.120788205000
        16    1   0.000000        1.950111795000      12.485561795000      12.485561795000
        17    1   0.000000       20.677084879000       0.393815121000       0.393815121000
        18    1   0.000000       10.929265121000      10.141634879000      10.141634879000
        19    1   0.000000       10.929265121000      10.141634879000       0.393815121000
        20    1   0.000000       20.677084879000       0.393815121000      10.141634879000
        21    1   0.000000       10.929265121000       0.393815121000      10.141634879000
        22    1   0.000000       20.677084879000      10.141634879000       0.393815121000
        23    1   0.000000       20.677084879000      10.141634879000      10.141634879000
        24    1   0.000000       10.929265121000       0.393815121000       0.393815121000
        25    1   0.000000       10.141634879000      10.929265121000      10.929265121000
        26    1   0.000000        0.393815121000      20.677084879000      20.677084879000
        27    1   0.000000        0.393815121000      20.677084879000      10.929265121000
        28    1   0.000000       10.141634879000      10.929265121000      20.677084879000
        29    1   0.000000        0.393815121000      10.929265121000      20.677084879000
        30    1   0.000000       10.141634879000      20.677084879000      10.929265121000
        31    1   0.000000       10.141634879000      20.677084879000      20.677084879000
        32    1   0.000000        0.393815121000      10.929265121000      10.929265121000
        33    1   0.000000       16.477022382000       1.639948147000       1.639948147000
        34    1   0.000000       15.129327618000       8.895501853000       8.895501853000
        35    1   0.000000       15.129327618000       8.895501853000       1.639948147000
        36    1   0.000000       16.477022382000       1.639948147000       8.895501853000
        37    1   0.000000       15.129327618000       1.639948147000       8.895501853000
        38    1   0.000000       16.477022382000       8.895501853000       1.639948147000
        39    1   0.000000       16.477022382000       8.895501853000       8.895501853000
        40    1   0.000000       15.129327618000       1.639948147000       1.639948147000
        41    1   0.000000       19.430951853000       4.593877618000       1.639948147000
        42    1   0.000000       12.175398147000       5.941572382000       8.895501853000
        43    1   0.000000       19.430951853000       5.941572382000       8.895501853000
        44    1   0.000000       12.175398147000       4.593877618000       1.639948147000
        45    1   0.000000       12.175398147000       5.941572382000       1.639948147000
        46    1   0.000000       19.430951853000       4.593877618000       8.895501853000
        47    1   0.000000       12.175398147000       4.593877618000       8.895501853000
        48    1   0.000000       19.430951853000       5.941572382000       1.639948147000
        49    1   0.000000       19.430951853000       1.639948147000       4.593877618000
        50    1   0.000000       12.175398147000       8.895501853000       5.941572382000
        51    1   0.000000       12.175398147000       1.639948147000       5.941572382000
        52    1   0.000000       19.430951853000       8.895501853000       4.593877618000
        53    1   0.000000       19.430951853000       8.895501853000       5.941572382000
        54    1   0.000000       12.175398147000       1.639948147000       4.593877618000
        55    1   0.000000       12.175398147000       8.895501853000       4.593877618000
        56    1   0.000000       19.430951853000       1.639948147000       5.941572382000
        57    1   0.000000        5.941572382000      12.175398147000      12.175398147000
        58    1   0.000000        4.593877618000      19.430951853000      19.430951853000
        59    1   0.000000        4.593877618000      19.430951853000      12.175398147000
        60    1   0.000000        5.941572382000      12.175398147000      19.430951853000
        61    1   0.000000        4.593877618000      12.175398147000      19.430951853000
        62    1   0.000000        5.941572382000      19.430951853000      12.175398147000
        63    1   0.000000        5.941572382000      19.430951853000      19.430951853000
        64    1   0.000000        4.593877618000      12.175398147000      12.175398147000
        65    1   0.000000        8.895501853000      15.129327618000      12.175398147000
        66    1   0.000000        1.639948147000      16.477022382000      19.430951853000
        67    1   0.000000        8.895501853000      16.477022382000      19.430951853000
        68    1   0.000000        1.639948147000      15.129327618000      12.175398147000
        69    1   0.000000        1.639948147000      16.477022382000      12.175398147000
        70    1   0.000000        8.895501853000      15.129327618000      19.430951853000
        71    1   0.000000        1.639948147000      15.129327618000      19.430951853000
        72    1   0.000000        8.895501853000      16.477022382000      12.175398147000
        73    1   0.000000        8.895501853000      12.175398147000      15.129327618000
        74    1   0.000000        1.639948147000      19.430951853000      16.477022382000
        75    1   0.000000        1.639948147000      12.175398147000      16.477022382000
        76    1   0.000000        8.895501853000      19.430951853000      15.129327618000
        77    1   0.000000        8.895501853000      19.430951853000      16.477022382000
        78    1   0.000000        1.639948147000      12.175398147000      15.129327618000
        79    1   0.000000        1.639948147000      19.430951853000      15.129327618000
        80    1   0.000000        8.895501853000      12.175398147000      16.477022382000
        81    1   0.000000       17.681013608000       1.734977906000       1.734977906000
        82    1   0.000000       13.925336392000       8.800472094000       8.800472094000
        83    1   0.000000       13.925336392000       8.800472094000       1.734977906000
        84    1   0.000000       17.681013608000       1.734977906000       8.800472094000
        85    1   0.000000       13.925336392000       1.734977906000       8.800472094000
        86    1   0.000000       17.681013608000       8.800472094000       1.734977906000
        87    1   0.000000       17.681013608000       8.800472094000       8.800472094000
        88    1   0.000000       13.925336392000       1.734977906000       1.734977906000
        89    1   0.000000       19.335922094000       3.389886392000       1.734977906000
        90    1   0.000000       12.270427906000       7.145563608000       8.800472094000
        91    1   0.000000       19.335922094000       7.145563608000       8.800472094000
        92    1   0.000000       12.270427906000       3.389886392000       1.734977906000
        93    1   0.000000       12.270427906000       7.145563608000       1.734977906000
        94    1   0.000000       19.335922094000       3.389886392000       8.800472094000
        95    1   0.000000       12.270427906000       3.389886392000       8.800472094000
        96    1   0.000000       19.335922094000       7.145563608000       1.734977906000
        97    1   0.000000       19.335922094000       1.734977906000       3.389886392000
        98    1   0.000000       12.270427906000       8.800472094000       7.145563608000
        99    1   0.000000       12.270427906000       1.734977906000       7.145563608000
       100    1   0.000000       19.335922094000       8.800472094000       3.389886392000
       101    1   0.000000       19.335922094000       8.800472094000       7.145563608000
       102    1   0.000000       12.270427906000       1.734977906000       3.389886392000
       103    1   0.000000       12.270427906000       8.800472094000       3.389886392000
       104    1   0.000000       19.335922094000       1.734977906000       7.145563608000
       105    1   0.000000        7.145563608000      12.270427906000      12.270427906000
       106    1   0.000000        3.389886392000      19.335922094000      19.335922094000
       107    1   0.000000        3.389886392000      19.335922094000      12.270427906000
       108    1   0.000000        7.145563608000      12.270427906000      19.335922094000
       109    1   0.000000        3.389886392000      12.270427906000      19.335922094000
       110    1   0.000000        7.145563608000      19.335922094000      12.270427906000
       111    1   0.000000        7.145563608000      19.335922094000      19.335922094000
       112    1   0.000000        3.389886392000      12.270427906000      12.270427906000
       113    1   0.000000        8.800472094000      13.925336392000      12.270427906000
       114    1   0.000000        1.734977906000      17.681013608000      19.335922094000
       115    1   0.000000        8.800472094000      17.681013608000      19.335922094000
       116    1   0.000000        1.734977906000      13.925336392000      12.270427906000
       117    1   0.000000        1.734977906000      17.681013608000      12.270427906000
       118    1   0.000000        8.800472094000      13.925336392000      19.335922094000
       119    1   0.000000        1.734977906000      13.925336392000      19.335922094000
       120    1   0.000000        8.800472094000      17.681013608000      12.270427906000
       121    1   0.000000        8.800472094000      12.270427906000      13.925336392000
       122    1   0.000000        1.734977906000      19.335922094000      17.681013608000
       123    1   0.000000        1.734977906000      12.270427906000      17.681013608000
       124    1   0.000000        8.800472094000      19.335922094000      13.925336392000
       125    1   0.000000        8.800472094000      19.335922094000      17.681013608000
       126    1   0.000000        1.734977906000      12.270427906000      13.925336392000
       127    1   0.000000        1.734977906000      19.335922094000      13.925336392000
       128    1   0.000000        8.800472094000      12.270427906000      17.681013608000
       129    1   0.000000       19.972263274000       1.098636726000       1.098636726000
       130    1   0.000000       11.634086726000       9.436813274000       9.436813274000
       131    1   0.000000       11.634086726000       9.436813274000       1.098636726000
       132    1   0.000000       19.972263274000       1.098636726000       9.436813274000
       133    1   0.000000       11.634086726000       1.098636726000       9.436813274000
       134    1   0.000000       19.972263274000       9.436813274000       1.098636726000
       135    1   0.000000       19.972263274000       9.436813274000       9.436813274000
       136    1   0.000000       11.634086726000       1.098636726000       1.098636726000
       137    1   0.000000        9.436813274000      11.634086726000      11.634086726000
       138    1   0.000000        1.098636726000      19.972263274000      19.972263274000
       139    1   0.000000        1.098636726000      19.972263274000      11.634086726000
       140    1   0.000000        9.436813274000      11.634086726000      19.972263274000
       141    1   0.000000        1.098636726000      11.634086726000      19.972263274000
       142    1   0.000000        9.436813274000      19.972263274000      11.634086726000
       143    1   0.000000        9.436813274000      19.972263274000      19.972263274000
       144    1   0.000000        1.098636726000      11.634086726000      11.634086726000
