 # File generated with Atomsk by ana on 2024-01-23 16:05:37
  
          96  atoms
           1  atom types
 
      0.000000000000      15.897210747100  xlo xhi
      0.000000000000      15.897210747100  ylo yhi
      0.000000000000      15.897210747100  zlo zhi
 
Masses
 
            1   12.01100000             # C
 
Atoms # charge
 
         1    1   0.000000        2.045110021143       2.045110021143       2.045110021143
         2    1   0.000000       13.852100964416      13.852100964416      13.852100964416
         3    1   0.000000       13.852100964416      13.852100964416       2.045110021143
         4    1   0.000000        2.045110021143       2.045110021143      13.852100964416
         5    1   0.000000       13.852100964416       2.045110021143      13.852100964416
         6    1   0.000000        2.045110021143      13.852100964416       2.045110021143
         7    1   0.000000        2.045110021143      13.852100964416      13.852100964416
         8    1   0.000000       13.852100964416       2.045110021143       2.045110021143
         9    1   0.000000        9.993715156234       9.993715156234       9.993715156234
        10    1   0.000000        5.903495590866       5.903495590866       5.903495590866
        11    1   0.000000        5.903495590866       5.903495590866       9.993715156234
        12    1   0.000000        9.993715156234       9.993715156234       5.903495590866
        13    1   0.000000        5.903495590866       9.993715156234       5.903495590866
        14    1   0.000000        9.993715156234       5.903495590866       9.993715156234
        15    1   0.000000        9.993715156234       5.903495590866       5.903495590866
        16    1   0.000000        5.903495590866       9.993715156234       9.993715156234
        17    1   0.000000        3.585972195893       3.585972195893       3.585972195893
        18    1   0.000000       12.311238090188      12.311238090188      12.311238090188
        19    1   0.000000       12.311238090188      12.311238090188       3.585972195893
        20    1   0.000000        3.585972195893       3.585972195893      12.311238090188
        21    1   0.000000       12.311238090188       3.585972195893      12.311238090188
        22    1   0.000000        3.585972195893      12.311238090188       3.585972195893
        23    1   0.000000        3.585972195893      12.311238090188      12.311238090188
        24    1   0.000000       12.311238090188       3.585972195893       3.585972195893
        25    1   0.000000       11.534578030462      11.534578030462      11.534578030462
        26    1   0.000000        4.362633177657       4.362633177657       4.362633177657
        27    1   0.000000        4.362633177657       4.362633177657      11.534578030462
        28    1   0.000000       11.534578030462      11.534578030462       4.362633177657
        29    1   0.000000        4.362633177657      11.534578030462       4.362633177657
        30    1   0.000000       11.534578030462       4.362633177657      11.534578030462
        31    1   0.000000       11.534578030462       4.362633177657       4.362633177657
        32    1   0.000000        4.362633177657      11.534578030462      11.534578030462
        33    1   0.000000        0.603682442427       2.278028838866       2.278028838866
        34    1   0.000000       15.293528177495      13.619182385150      13.619182385150
        35    1   0.000000       15.293528177495      13.619182385150       2.278028838866
        36    1   0.000000        0.603682442427       2.278028838866      13.619182385150
        37    1   0.000000       15.293528177495       2.278028838866      13.619182385150
        38    1   0.000000        0.603682442427      13.619182385150       2.278028838866
        39    1   0.000000        0.603682442427      13.619182385150      13.619182385150
        40    1   0.000000       15.293528177495       2.278028838866       2.278028838866
        41    1   0.000000        2.278028838866       0.603682442427       2.278028838866
        42    1   0.000000       13.619182385150      15.293528177495      13.619182385150
        43    1   0.000000        2.278028838866      15.293528177495      13.619182385150
        44    1   0.000000       13.619182385150       0.603682442427       2.278028838866
        45    1   0.000000       13.619182385150      15.293528177495       2.278028838866
        46    1   0.000000        2.278028838866       0.603682442427      13.619182385150
        47    1   0.000000       13.619182385150       0.603682442427      13.619182385150
        48    1   0.000000        2.278028838866      15.293528177495       2.278028838866
        49    1   0.000000        2.278028838866       2.278028838866       0.603682442427
        50    1   0.000000       13.619182385150      13.619182385150      15.293528177495
        51    1   0.000000       13.619182385150       2.278028838866      15.293528177495
        52    1   0.000000        2.278028838866      13.619182385150       0.603682442427
        53    1   0.000000        2.278028838866      13.619182385150      15.293528177495
        54    1   0.000000       13.619182385150       2.278028838866       0.603682442427
        55    1   0.000000       13.619182385150      13.619182385150       0.603682442427
        56    1   0.000000        2.278028838866       2.278028838866      15.293528177495
        57    1   0.000000        8.552287943155      10.226633735500      10.226633735500
        58    1   0.000000        7.344922803945       5.670576534684       5.670576534684
        59    1   0.000000        7.344922803945       5.670576534684      10.226633735500
        60    1   0.000000        8.552287943155      10.226633735500       5.670576534684
        61    1   0.000000        7.344922803945      10.226633735500       5.670576534684
        62    1   0.000000        8.552287943155       5.670576534684      10.226633735500
        63    1   0.000000        8.552287943155       5.670576534684       5.670576534684
        64    1   0.000000        7.344922803945      10.226633735500      10.226633735500
        65    1   0.000000       10.226633735500       8.552287943155      10.226633735500
        66    1   0.000000        5.670576534684       7.344922803945       5.670576534684
        67    1   0.000000       10.226633735500       7.344922803945       5.670576534684
        68    1   0.000000        5.670576534684       8.552287943155      10.226633735500
        69    1   0.000000        5.670576534684       7.344922803945      10.226633735500
        70    1   0.000000       10.226633735500       8.552287943155       5.670576534684
        71    1   0.000000        5.670576534684       8.552287943155       5.670576534684
        72    1   0.000000       10.226633735500       7.344922803945      10.226633735500
        73    1   0.000000       10.226633735500      10.226633735500       8.552287943155
        74    1   0.000000        5.670576534684       5.670576534684       7.344922803945
        75    1   0.000000        5.670576534684      10.226633735500       7.344922803945
        76    1   0.000000       10.226633735500       5.670576534684       8.552287943155
        77    1   0.000000       10.226633735500       5.670576534684       7.344922803945
        78    1   0.000000        5.670576534684      10.226633735500       8.552287943155
        79    1   0.000000        5.670576534684       5.670576534684       8.552287943155
        80    1   0.000000       10.226633735500      10.226633735500       7.344922803945
        81    1   0.000000        2.885814106350       2.885814106350       2.885814106350
        82    1   0.000000       13.011396640750      13.011396640750      13.011396640750
        83    1   0.000000       13.011396640750      13.011396640750       2.885814106350
        84    1   0.000000        2.885814106350       2.885814106350      13.011396640750
        85    1   0.000000       13.011396640750       2.885814106350      13.011396640750
        86    1   0.000000        2.885814106350      13.011396640750       2.885814106350
        87    1   0.000000        2.885814106350      13.011396640750      13.011396640750
        88    1   0.000000       13.011396640750       2.885814106350       2.885814106350
        89    1   0.000000       10.834419479900      10.834419479900      10.834419479900
        90    1   0.000000        5.062791267200       5.062791267200       5.062791267200
        91    1   0.000000        5.062791267200       5.062791267200      10.834419479900
        92    1   0.000000       10.834419479900      10.834419479900       5.062791267200
        93    1   0.000000        5.062791267200      10.834419479900       5.062791267200
        94    1   0.000000       10.834419479900       5.062791267200      10.834419479900
        95    1   0.000000       10.834419479900       5.062791267200       5.062791267200
        96    1   0.000000        5.062791267200      10.834419479900      10.834419479900
