 # File generated with Atomsk by ana on 2024-01-23 16:05:37
  
          64  atoms
           1  atom types
 
      0.000000000000      15.420740000000  xlo xhi
      0.000000000000      13.353440321205  ylo yhi
      0.000000000000      12.589435054840  zlo zhi
     -7.708097538715      -7.708097538715       4.452021272631  xy xz yz
 
Masses
 
            1   12.01100000             # C
 
Atoms # charge
 
         1    1   0.000000       13.234077562914       1.262781141696       0.892855323524
         2    1   0.000000        7.712482096323      10.828344521068       0.892855323524
         3    1   0.000000        7.712482096323       4.451928704069       9.911133462403
         4    1   0.000000        2.187445857384       1.262674308927       0.892779786914
         5    1   0.000000       21.169154808421      12.219615780688       0.680005745052
         6    1   0.000000       21.923682634043      12.655157029660       1.911743481383
         7    1   0.000000        8.922510664911       6.021378906873      11.293617094080
         8    1   0.000000       16.179400229559      15.972923486599      11.293730398995
         9    1   0.000000       15.421030413559       1.397005018761       1.911592408162
        10    1   0.000000       15.421030413559       2.267982168407       0.679753956351
        11    1   0.000000       14.670696724554      15.972976902984      11.293768167301
        12    1   0.000000        9.676724884782      12.219366498978       0.679753956351
        13    1   0.000000       21.923682634043       6.021579216348      11.293730398995
        14    1   0.000000       21.169154808421       4.715105324826      11.293768167301
        15    1   0.000000        8.922510664911      12.654983424441       1.911592408162
        16    1   0.000000        9.676724884782       4.714784831764      11.293617094080
        17    1   0.000000       12.992856658958       0.016559079282       0.011708174601
        18    1   0.000000        7.712653709786      11.935468562654       1.970787931790
        19    1   0.000000        7.712653709786       5.837302203696      10.595532920289
        20    1   0.000000        8.912218681151       3.759186407149      10.595532920289
        21    1   0.000000       14.192866726779       0.709204577737       1.970787931790
        22    1   0.000000        1.228388433474       2.094434495539       0.011443796465
        23    1   0.000000        6.512682182453      11.242756296998       0.011708174601
        24    1   0.000000        8.912218681151      11.242627204122       0.011569690815
        25    1   0.000000       14.192866726779       2.094479015752       0.011569690815
        26    1   0.000000        6.512682182453       3.759360007120      10.595608456899
        27    1   0.000000        1.228388433474       0.709071043334       1.970787931790
        28    1   0.000000        2.428030485815       0.016185164589       0.011443796465
        29    1   0.000000        3.362401792710       1.940902146498       1.372323957588
        30    1   0.000000       12.059437022854       1.940991173806       1.372386904763
        31    1   0.000000        7.712278129652       4.451810966995       8.472488360946
        32    1   0.000000        7.712278129652       9.471970972077       1.372386904763
        33    1   0.000000        9.898168667729       3.188584256763       2.254503440186
        34    1   0.000000        7.711666595604       6.976461198597       2.254503440186
        35    1   0.000000        7.711666595604       4.451457967021       5.825660356147
        36    1   0.000000        5.524060373258       3.188691089532       2.254578976796
        37    1   0.000000        9.675733883507       5.585189938977       2.467353018658
        38    1   0.000000        8.921206057884       5.149648690005       1.235615282327
        39    1   0.000000        6.501645739659       2.882012216239       4.443189313905
        40    1   0.000000        6.957390923653       6.283903505697       4.443063419554
        41    1   0.000000        7.711231237824       3.054360379698       1.235766355548
        42    1   0.000000        7.711231237824       2.183383230053       2.467604807359
        43    1   0.000000        8.466094428659       6.283850089312       4.443025651249
        44    1   0.000000        5.747431519788       5.585452574126       2.467604807359
        45    1   0.000000        8.921206057884       2.881807454742       4.443063419554
        46    1   0.000000        9.675733883507       4.188281346265       4.443025651249
        47    1   0.000000        6.501645739659       5.149835648663       1.235766355548
        48    1   0.000000        5.747431519788       4.188606291348       4.443189313905
        49    1   0.000000       10.139389571684       4.434806319177       3.135650589109
        50    1   0.000000        7.711494982141       5.869337157010       1.176570831920
        51    1   0.000000        7.711494982141       3.066084467395       5.141260898260
        52    1   0.000000        6.511930010776       5.144200263942       5.141260898260
        53    1   0.000000        8.939379503864       3.742160820722       1.176570831920
        54    1   0.000000        6.483117797168       2.356930902920       3.135914967245
        55    1   0.000000        8.911466509475       6.562049422666       3.135650589109
        56    1   0.000000        6.511930010776       6.562178515542       3.135789072894
        57    1   0.000000        8.939379503864       2.356886382707       3.135789072894
        58    1   0.000000        8.911466509475       5.144026663971       5.141185361650
        59    1   0.000000        6.483117797168       3.742294355126       1.176570831920
        60    1   0.000000        5.283475744828       4.435180233870       3.135914967245
        61    1   0.000000        4.349104437933       2.510463251961       1.775034806122
        62    1   0.000000       11.072809207788       2.510374224653       1.774971858947
        63    1   0.000000        7.711870562275       4.451575704095       7.264305457603
        64    1   0.000000        7.711870562275       8.332834747587       1.774971858947
