 # C1
  
          72  atoms
           1  atom types
 
      0.000000000000      13.344800000000  xlo xhi
      0.000000000000      13.344800000000  ylo yhi
      0.000000000000      13.344800000000  zlo zhi
 
Masses
 
            1   12.01100000             # C
 
Atoms # charge
 
         1    1   0.000000        6.672400000000       1.004463096000       7.676863096000
         2    1   0.000000        6.672400000000       1.994780704000       8.667180704000
         3    1   0.000000        6.672400000000       2.862326152000       9.534726152000
         4    1   0.000000       13.344800000000       5.667936904000       7.676863096000
         5    1   0.000000       13.344800000000       4.677619296000       8.667180704000
         6    1   0.000000       13.344800000000       3.810073848000       9.534726152000
         7    1   0.000000        6.672400000000       5.667936904000      12.340336904000
         8    1   0.000000        6.672400000000       4.677619296000      11.350019296000
         9    1   0.000000        6.672400000000       3.810073848000      10.482473848000
        10    1   0.000000       13.344800000000       1.004463096000      12.340336904000
        11    1   0.000000       13.344800000000       1.994780704000      11.350019296000
        12    1   0.000000       13.344800000000       2.862326152000      10.482473848000
        13    1   0.000000        7.676863096000       6.672400000000       1.004463096000
        14    1   0.000000        8.667180704000       6.672400000000       1.994780704000
        15    1   0.000000        9.534726152000       6.672400000000       2.862326152000
        16    1   0.000000        7.676863096000      13.344800000000       5.667936904000
        17    1   0.000000        8.667180704000      13.344800000000       4.677619296000
        18    1   0.000000        9.534726152000      13.344800000000       3.810073848000
        19    1   0.000000       12.340336904000       6.672400000000       5.667936904000
        20    1   0.000000       11.350019296000       6.672400000000       4.677619296000
        21    1   0.000000       10.482473848000       6.672400000000       3.810073848000
        22    1   0.000000       12.340336904000      13.344800000000       1.004463096000
        23    1   0.000000       11.350019296000      13.344800000000       1.994780704000
        24    1   0.000000       10.482473848000      13.344800000000       2.862326152000
        25    1   0.000000        1.004463096000       7.676863096000       6.672400000000
        26    1   0.000000        1.994780704000       8.667180704000       6.672400000000
        27    1   0.000000        2.862326152000       9.534726152000       6.672400000000
        28    1   0.000000        5.667936904000       7.676863096000      13.344800000000
        29    1   0.000000        4.677619296000       8.667180704000      13.344800000000
        30    1   0.000000        3.810073848000       9.534726152000      13.344800000000
        31    1   0.000000        5.667936904000      12.340336904000       6.672400000000
        32    1   0.000000        4.677619296000      11.350019296000       6.672400000000
        33    1   0.000000        3.810073848000      10.482473848000       6.672400000000
        34    1   0.000000        1.004463096000      12.340336904000      13.344800000000
        35    1   0.000000        1.994780704000      11.350019296000      13.344800000000
        36    1   0.000000        2.862326152000      10.482473848000      13.344800000000
        37    1   0.000000        6.672400000000      12.340336904000       5.667936904000
        38    1   0.000000        6.672400000000      11.350019296000       4.677619296000
        39    1   0.000000        6.672400000000      10.482473848000       3.810073848000
        40    1   0.000000        0.000000000000       7.676863096000       5.667936904000
        41    1   0.000000        0.000000000000       8.667180704000       4.677619296000
        42    1   0.000000        0.000000000000       9.534726152000       3.810073848000
        43    1   0.000000        6.672400000000       7.676863096000       1.004463096000
        44    1   0.000000        6.672400000000       8.667180704000       1.994780704000
        45    1   0.000000        6.672400000000       9.534726152000       2.862326152000
        46    1   0.000000        0.000000000000      12.340336904000       1.004463096000
        47    1   0.000000        0.000000000000      11.350019296000       1.994780704000
        48    1   0.000000        0.000000000000      10.482473848000       2.862326152000
        49    1   0.000000        5.667936904000       6.672400000000      12.340336904000
        50    1   0.000000        4.677619296000       6.672400000000      11.350019296000
        51    1   0.000000        3.810073848000       6.672400000000      10.482473848000
        52    1   0.000000        5.667936904000       0.000000000000       7.676863096000
        53    1   0.000000        4.677619296000       0.000000000000       8.667180704000
        54    1   0.000000        3.810073848000       0.000000000000       9.534726152000
        55    1   0.000000        1.004463096000       6.672400000000       7.676863096000
        56    1   0.000000        1.994780704000       6.672400000000       8.667180704000
        57    1   0.000000        2.862326152000       6.672400000000       9.534726152000
        58    1   0.000000        1.004463096000       0.000000000000      12.340336904000
        59    1   0.000000        1.994780704000       0.000000000000      11.350019296000
        60    1   0.000000        2.862326152000       0.000000000000      10.482473848000
        61    1   0.000000       12.340336904000       5.667936904000       6.672400000000
        62    1   0.000000       11.350019296000       4.677619296000       6.672400000000
        63    1   0.000000       10.482473848000       3.810073848000       6.672400000000
        64    1   0.000000        7.676863096000       5.667936904000       0.000000000000
        65    1   0.000000        8.667180704000       4.677619296000       0.000000000000
        66    1   0.000000        9.534726152000       3.810073848000       0.000000000000
        67    1   0.000000        7.676863096000       1.004463096000       6.672400000000
        68    1   0.000000        8.667180704000       1.994780704000       6.672400000000
        69    1   0.000000        9.534726152000       2.862326152000       6.672400000000
        70    1   0.000000       12.340336904000       1.004463096000       0.000000000000
        71    1   0.000000       11.350019296000       1.994780704000       0.000000000000
        72    1   0.000000       10.482473848000       2.862326152000       0.000000000000
