 # C1
  
          48  atoms
           1  atom types
 
      0.000000000000      10.773000000000  xlo xhi
      0.000000000000      10.773000000000  ylo yhi
      0.000000000000      10.773000000000  zlo zhi
 
Masses
 
            1   12.01100000             # C
 
Atoms # charge
 
         1    1   0.000000        6.177453660000       4.595546340000       6.177453660000
         2    1   0.000000        7.691491080000       3.081508920000       7.691491080000
         3    1   0.000000        6.987583260000       3.785416740000       6.987583260000
         4    1   0.000000        4.595546340000       6.177453660000       6.177453660000
         5    1   0.000000        3.081508920000       7.691491080000       7.691491080000
         6    1   0.000000        3.785416740000       6.987583260000       6.987583260000
         7    1   0.000000        6.177453660000       6.177453660000       4.595546340000
         8    1   0.000000        7.691491080000       7.691491080000       3.081508920000
         9    1   0.000000        6.987583260000       6.987583260000       3.785416740000
        10    1   0.000000        4.595546340000       4.595546340000       4.595546340000
        11    1   0.000000        3.081508920000       3.081508920000       3.081508920000
        12    1   0.000000        3.785416740000       3.785416740000       3.785416740000
        13    1   0.000000        6.177453660000       4.595546340000       4.595546340000
        14    1   0.000000        7.691491080000       3.081508920000       3.081508920000
        15    1   0.000000        6.987583260000       3.785416740000       3.785416740000
        16    1   0.000000        4.595546340000       6.177453660000       4.595546340000
        17    1   0.000000        3.081508920000       7.691491080000       3.081508920000
        18    1   0.000000        3.785416740000       6.987583260000       3.785416740000
        19    1   0.000000        4.595546340000       4.595546340000       6.177453660000
        20    1   0.000000        3.081508920000       3.081508920000       7.691491080000
        21    1   0.000000        3.785416740000       3.785416740000       6.987583260000
        22    1   0.000000        6.177453660000       6.177453660000       6.177453660000
        23    1   0.000000        7.691491080000       7.691491080000       7.691491080000
        24    1   0.000000        6.987583260000       6.987583260000       6.987583260000
        25    1   0.000000        0.790953660000       9.982046340000       0.790953660000
        26    1   0.000000        2.304991080000       8.468008920000       2.304991080000
        27    1   0.000000        1.601083260000       9.171916740000       1.601083260000
        28    1   0.000000        9.982046340000       0.790953660000       0.790953660000
        29    1   0.000000        8.468008920000       2.304991080000       2.304991080000
        30    1   0.000000        9.171916740000       1.601083260000       1.601083260000
        31    1   0.000000        0.790953660000       0.790953660000       9.982046340000
        32    1   0.000000        2.304991080000       2.304991080000       8.468008920000
        33    1   0.000000        1.601083260000       1.601083260000       9.171916740000
        34    1   0.000000        9.982046340000       9.982046340000       9.982046340000
        35    1   0.000000        8.468008920000       8.468008920000       8.468008920000
        36    1   0.000000        9.171916740000       9.171916740000       9.171916740000
        37    1   0.000000        0.790953660000       9.982046340000       9.982046340000
        38    1   0.000000        2.304991080000       8.468008920000       8.468008920000
        39    1   0.000000        1.601083260000       9.171916740000       9.171916740000
        40    1   0.000000        9.982046340000       0.790953660000       9.982046340000
        41    1   0.000000        8.468008920000       2.304991080000       8.468008920000
        42    1   0.000000        9.171916740000       1.601083260000       9.171916740000
        43    1   0.000000        9.982046340000       9.982046340000       0.790953660000
        44    1   0.000000        8.468008920000       8.468008920000       2.304991080000
        45    1   0.000000        9.171916740000       9.171916740000       1.601083260000
        46    1   0.000000        0.790953660000       0.790953660000       0.790953660000
        47    1   0.000000        2.304991080000       2.304991080000       2.304991080000
        48    1   0.000000        1.601083260000       1.601083260000       1.601083260000
