 # File generated with Atomsk by ana on 2024-01-23 16:05:51
  
          52  atoms
           1  atom types
 
      0.000000000000      17.113598810100  xlo xhi
      0.000000000000      15.238150181958  ylo yhi
      0.000000000000       4.900592208502  zlo zhi
      8.230954940911      -0.000139487620      -0.000093032029  xy xz yz
 
Masses
 
            1   12.01100000             # C
 
Atoms # charge
 
         1    1   0.000000       -1.301119411851       9.485712448753       1.169745431418
         2    1   0.000000        9.762743787335       5.785613137283       3.698819569227
         3    1   0.000000        1.202542408819       9.484170194150       1.170149061370
         4    1   0.000000        7.258795529462       5.786190733226       3.698737797632
         5    1   0.000000       -0.093954391210      11.707865189335       1.170473570193
         6    1   0.000000        8.555749826130       3.563246410973       3.698425122180
         7    1   0.000000        9.762957358182       5.785788403224       1.169048284280
         8    1   0.000000       -1.301355213214       9.485623558964       3.699531061736
         9    1   0.000000        7.258991397952       5.786296936752       1.170289187843
        10    1   0.000000        1.202305420704       9.484013373596       3.698593668731
        11    1   0.000000        8.555957910290       3.563381481823       1.170664319934
        12    1   0.000000       -0.094188303353      11.707721558811       3.698214622242
        13    1   0.000000       -1.844524332564       9.155805099110       2.434543881903
        14    1   0.000000       10.306131492995       6.115682072012       2.433904110430
        15    1   0.000000        1.745750798041       9.150023952488       2.434346777531
        16    1   0.000000        6.715493170105       6.120139851393       2.434482800766
        17    1   0.000000       -0.114876172273      12.346317270323       2.434324576497
        18    1   0.000000        8.576748920588       2.924868913468       2.434510701620
        19    1   0.000000       -1.944896077838       9.087323029940       4.884875056587
        20    1   0.000000       10.406249954304       6.184169853284       4.884126076705
        21    1   0.000000        1.840367155080       9.075273334399       4.884622613573
        22    1   0.000000        6.620527234768       6.194468801675       4.884797369535
        23    1   0.000000       -0.129300897981      12.464899290751       4.884594703173
        24    1   0.000000        8.590788881529       2.806138041363       4.884830642814
        25    1   0.000000       -3.087535913112       8.397664739929       2.433994042297
        26    1   0.000000       11.548953049135       6.874099820829       2.433657403724
        27    1   0.000000        2.987458651756       8.390209324206       2.434312584718
        28    1   0.000000        5.473633355483       6.879740635851       2.434408008202
        29    1   0.000000       -0.160979465486      13.801067492946       2.434287627475
        30    1   0.000000        8.622988911105       1.470135666265       2.434431878020
        31    1   0.000000       -3.147576406647       8.356165800052       4.884320945985
        32    1   0.000000       11.608722074825       6.915629293362       4.883905416153
        33    1   0.000000        3.044091582424       8.345496930486       4.884582293102
        34    1   0.000000        5.416672567402       6.924107382387       4.884708051247
        35    1   0.000000       -0.169522089588      13.871965031128       4.884552939416
        36    1   0.000000        8.631180075150       1.399113002534       4.884747831358
        37    1   0.000000       -3.718058070268       8.010279487932       1.225564366961
        38    1   0.000000       12.179372039686       7.261657639978       3.642014888521
        39    1   0.000000        3.619470249246       8.005027425493       1.225726250410
        40    1   0.000000        4.841584956934       7.264859382891       3.642983078240
        41    1   0.000000       -0.185882998236      14.540644582833       1.225592100219
        42    1   0.000000        8.647905468140       0.730584401472       3.643117383119
        43    1   0.000000       12.179411314053       7.261623264229       1.225318483158
        44    1   0.000000       -3.718088250205       8.010316042690       3.642230265357
        45    1   0.000000        4.841607366297       7.264853484841       1.225806940513
        46    1   0.000000        3.619448288737       8.005011093912       3.642907505373
        47    1   0.000000        8.647943317570       0.730588932783       1.225717366675
        48    1   0.000000       -0.185924140938      14.540639777138       3.642994926338
        49    1   0.000000       -0.046866389018      10.246188322734       0.801880793951
        50    1   0.000000        8.508678036949       5.024902847150       4.066915947041
        51    1   0.000000        8.508894149829       5.025051965450       0.801774452407
        52    1   0.000000       -0.047084429902      10.246056588964       4.067039401263
