 # C1
  
          40  atoms
           1  atom types
 
      0.000000000000       8.602600000000  xlo xhi
      0.000000000000       8.602600000000  ylo yhi
      0.000000000000       4.738500000000  zlo zhi
 
Masses
 
            1   12.01100000             # C
 
Atoms # charge
 
         1    1   0.000000        2.801350664000       2.801350664000       0.000000000000
         2    1   0.000000        2.801178612000       3.801316888000       0.000000000000
         3    1   0.000000        2.367349494000       2.367349494000       0.789528870000
         4    1   0.000000        5.801249336000       5.801249336000       0.000000000000
         5    1   0.000000        5.801421388000       4.801283112000       0.000000000000
         6    1   0.000000        6.235250506000       6.235250506000       0.789528870000
         7    1   0.000000        2.801350664000       5.801249336000       0.000000000000
         8    1   0.000000        2.801178612000       4.801283112000       0.000000000000
         9    1   0.000000        2.367349494000       6.235250506000       3.948971130000
        10    1   0.000000        5.801249336000       2.801350664000       0.000000000000
        11    1   0.000000        5.801421388000       3.801316888000       0.000000000000
        12    1   0.000000        6.235250506000       2.367349494000       3.948971130000
        13    1   0.000000        4.801283112000       5.801421388000       0.000000000000
        14    1   0.000000        6.235250506000       6.235250506000       3.948971130000
        15    1   0.000000        3.801316888000       2.801178612000       0.000000000000
        16    1   0.000000        2.367349494000       2.367349494000       3.948971130000
        17    1   0.000000        3.801316888000       5.801421388000       0.000000000000
        18    1   0.000000        2.367349494000       6.235250506000       0.789528870000
        19    1   0.000000        4.801283112000       2.801178612000       0.000000000000
        20    1   0.000000        6.235250506000       2.367349494000       0.789528870000
        21    1   0.000000        7.102650664000       7.102650664000       2.369250000000
        22    1   0.000000        7.102478612000       8.102616888000       2.369250000000
        23    1   0.000000        6.668649494000       6.668649494000       3.158778870000
        24    1   0.000000        1.499949336000       1.499949336000       2.369250000000
        25    1   0.000000        1.500121388000       0.499983112000       2.369250000000
        26    1   0.000000        1.933950506000       1.933950506000       3.158778870000
        27    1   0.000000        7.102650664000       1.499949336000       2.369250000000
        28    1   0.000000        7.102478612000       0.499983112000       2.369250000000
        29    1   0.000000        6.668649494000       1.933950506000       1.579721130000
        30    1   0.000000        1.499949336000       7.102650664000       2.369250000000
        31    1   0.000000        1.500121388000       8.102616888000       2.369250000000
        32    1   0.000000        1.933950506000       6.668649494000       1.579721130000
        33    1   0.000000        0.499983112000       1.500121388000       2.369250000000
        34    1   0.000000        1.933950506000       1.933950506000       1.579721130000
        35    1   0.000000        8.102616888000       7.102478612000       2.369250000000
        36    1   0.000000        6.668649494000       6.668649494000       1.579721130000
        37    1   0.000000        8.102616888000       1.500121388000       2.369250000000
        38    1   0.000000        6.668649494000       1.933950506000       3.158778870000
        39    1   0.000000        0.499983112000       7.102478612000       2.369250000000
        40    1   0.000000        1.933950506000       6.668649494000       3.158778870000
