 # C1
  
         200  atoms
           1  atom types
 
      0.000000000000      16.077000000000  xlo xhi
      0.000000000000      16.077000000000  ylo yhi
      0.000000000000      16.077000000000  zlo zhi
 
Masses
 
            1   12.01100000             # C
 
Atoms # charge
 
         1    1   0.000000        9.400382670000      10.392333570000      13.621881330000
         2    1   0.000000        8.745084150000      10.764355350000      12.388936200000
         3    1   0.000000        8.756498820000       5.370521850000       1.228282800000
         4    1   0.000000        9.491700030000      11.262742350000      11.262742350000
         5    1   0.000000        5.313609270000       5.313609270000       5.313609270000
         6    1   0.000000       16.077000000000       5.640133140000       9.425623560000
         7    1   0.000000        6.676617330000       5.684666430000      13.621881330000
         8    1   0.000000        7.331915850000       5.312644650000      12.388936200000
         9    1   0.000000        7.320501180000      10.706478150000       1.228282800000
        10    1   0.000000        6.585299970000       4.814257650000      11.262742350000
        11    1   0.000000       10.763390730000      10.763390730000       5.313609270000
        12    1   0.000000        0.000000000000      10.436866860000       9.425623560000
        13    1   0.000000        9.400382670000       5.684666430000       2.455118670000
        14    1   0.000000        8.745084150000       5.312644650000       3.688063800000
        15    1   0.000000        8.756498820000      10.706478150000      14.848717200000
        16    1   0.000000        9.491700030000       4.814257650000       4.814257650000
        17    1   0.000000        5.313609270000      10.763390730000      10.763390730000
        18    1   0.000000        0.000000000000      10.436866860000       6.651376440000
        19    1   0.000000        6.676617330000      10.392333570000       2.455118670000
        20    1   0.000000        7.331915850000      10.764355350000       3.688063800000
        21    1   0.000000        7.320501180000       5.370521850000      14.848717200000
        22    1   0.000000        6.585299970000      11.262742350000       4.814257650000
        23    1   0.000000       10.763390730000       5.313609270000      10.763390730000
        24    1   0.000000        0.000000000000       5.640133140000       6.651376440000
        25    1   0.000000       13.621881330000       9.400382670000      10.392333570000
        26    1   0.000000       12.388936200000       8.745084150000      10.764355350000
        27    1   0.000000        1.228282800000       8.756498820000       5.370521850000
        28    1   0.000000       11.262742350000       9.491700030000      11.262742350000
        29    1   0.000000        9.425623560000       0.000000000000       5.640133140000
        30    1   0.000000       13.621881330000       6.676617330000       5.684666430000
        31    1   0.000000       12.388936200000       7.331915850000       5.312644650000
        32    1   0.000000        1.228282800000       7.320501180000      10.706478150000
        33    1   0.000000       11.262742350000       6.585299970000       4.814257650000
        34    1   0.000000        9.425623560000       0.000000000000      10.436866860000
        35    1   0.000000        2.455118670000       9.400382670000       5.684666430000
        36    1   0.000000        3.688063800000       8.745084150000       5.312644650000
        37    1   0.000000       14.848717200000       8.756498820000      10.706478150000
        38    1   0.000000        4.814257650000       9.491700030000       4.814257650000
        39    1   0.000000        6.651376440000       0.000000000000      10.436866860000
        40    1   0.000000        2.455118670000       6.676617330000      10.392333570000
        41    1   0.000000        3.688063800000       7.331915850000      10.764355350000
        42    1   0.000000       14.848717200000       7.320501180000       5.370521850000
        43    1   0.000000        4.814257650000       6.585299970000      11.262742350000
        44    1   0.000000        6.651376440000       0.000000000000       5.640133140000
        45    1   0.000000       10.392333570000      13.621881330000       9.400382670000
        46    1   0.000000       10.764355350000      12.388936200000       8.745084150000
        47    1   0.000000        5.370521850000       1.228282800000       8.756498820000
        48    1   0.000000       11.262742350000      11.262742350000       9.491700030000
        49    1   0.000000        5.640133140000       9.425623560000       0.000000000000
        50    1   0.000000        5.684666430000      13.621881330000       6.676617330000
        51    1   0.000000        5.312644650000      12.388936200000       7.331915850000
        52    1   0.000000       10.706478150000       1.228282800000       7.320501180000
        53    1   0.000000        4.814257650000      11.262742350000       6.585299970000
        54    1   0.000000       10.436866860000       9.425623560000       0.000000000000
        55    1   0.000000        5.684666430000       2.455118670000       9.400382670000
        56    1   0.000000        5.312644650000       3.688063800000       8.745084150000
        57    1   0.000000       10.706478150000      14.848717200000       8.756498820000
        58    1   0.000000        4.814257650000       4.814257650000       9.491700030000
        59    1   0.000000       10.436866860000       6.651376440000       0.000000000000
        60    1   0.000000       10.392333570000       2.455118670000       6.676617330000
        61    1   0.000000       10.764355350000       3.688063800000       7.331915850000
        62    1   0.000000        5.370521850000      14.848717200000       7.320501180000
        63    1   0.000000       11.262742350000       4.814257650000       6.585299970000
        64    1   0.000000        5.640133140000       6.651376440000       0.000000000000
        65    1   0.000000        5.684666430000       6.676617330000       2.455118670000
        66    1   0.000000        5.312644650000       7.331915850000       3.688063800000
        67    1   0.000000       10.706478150000       7.320501180000      14.848717200000
        68    1   0.000000        4.814257650000       6.585299970000       4.814257650000
        69    1   0.000000       10.763390730000      10.763390730000      10.763390730000
        70    1   0.000000       10.436866860000       0.000000000000       6.651376440000
        71    1   0.000000       10.392333570000       9.400382670000       2.455118670000
        72    1   0.000000       10.764355350000       8.745084150000       3.688063800000
        73    1   0.000000        5.370521850000       8.756498820000      14.848717200000
        74    1   0.000000       11.262742350000       9.491700030000       4.814257650000
        75    1   0.000000        5.313609270000       5.313609270000      10.763390730000
        76    1   0.000000        5.640133140000       0.000000000000       6.651376440000
        77    1   0.000000       10.392333570000       6.676617330000      13.621881330000
        78    1   0.000000       10.764355350000       7.331915850000      12.388936200000
        79    1   0.000000        5.370521850000       7.320501180000       1.228282800000
        80    1   0.000000       11.262742350000       6.585299970000      11.262742350000
        81    1   0.000000        5.313609270000      10.763390730000       5.313609270000
        82    1   0.000000        5.640133140000       0.000000000000       9.425623560000
        83    1   0.000000        5.684666430000       9.400382670000      13.621881330000
        84    1   0.000000        5.312644650000       8.745084150000      12.388936200000
        85    1   0.000000       10.706478150000       8.756498820000       1.228282800000
        86    1   0.000000        4.814257650000       9.491700030000      11.262742350000
        87    1   0.000000       10.763390730000       5.313609270000       5.313609270000
        88    1   0.000000       10.436866860000       0.000000000000       9.425623560000
        89    1   0.000000        6.676617330000       2.455118670000       5.684666430000
        90    1   0.000000        7.331915850000       3.688063800000       5.312644650000
        91    1   0.000000        7.320501180000      14.848717200000      10.706478150000
        92    1   0.000000        6.585299970000       4.814257650000       4.814257650000
        93    1   0.000000        0.000000000000       6.651376440000      10.436866860000
        94    1   0.000000        9.400382670000       2.455118670000      10.392333570000
        95    1   0.000000        8.745084150000       3.688063800000      10.764355350000
        96    1   0.000000        8.756498820000      14.848717200000       5.370521850000
        97    1   0.000000        9.491700030000       4.814257650000      11.262742350000
        98    1   0.000000        0.000000000000       6.651376440000       5.640133140000
        99    1   0.000000        6.676617330000      13.621881330000      10.392333570000
       100    1   0.000000        7.331915850000      12.388936200000      10.764355350000
       101    1   0.000000        7.320501180000       1.228282800000       5.370521850000
       102    1   0.000000        6.585299970000      11.262742350000      11.262742350000
       103    1   0.000000        0.000000000000       9.425623560000       5.640133140000
       104    1   0.000000        9.400382670000      13.621881330000       5.684666430000
       105    1   0.000000        8.745084150000      12.388936200000       5.312644650000
       106    1   0.000000        8.756498820000       1.228282800000      10.706478150000
       107    1   0.000000        9.491700030000      11.262742350000       4.814257650000
       108    1   0.000000        0.000000000000       9.425623560000      10.436866860000
       109    1   0.000000        2.455118670000       5.684666430000       6.676617330000
       110    1   0.000000        3.688063800000       5.312644650000       7.331915850000
       111    1   0.000000       14.848717200000      10.706478150000       7.320501180000
       112    1   0.000000        4.814257650000       4.814257650000       6.585299970000
       113    1   0.000000        6.651376440000      10.436866860000       0.000000000000
       114    1   0.000000        2.455118670000      10.392333570000       9.400382670000
       115    1   0.000000        3.688063800000      10.764355350000       8.745084150000
       116    1   0.000000       14.848717200000       5.370521850000       8.756498820000
       117    1   0.000000        4.814257650000      11.262742350000       9.491700030000
       118    1   0.000000        6.651376440000       5.640133140000       0.000000000000
       119    1   0.000000       13.621881330000      10.392333570000       6.676617330000
       120    1   0.000000       12.388936200000      10.764355350000       7.331915850000
       121    1   0.000000        1.228282800000       5.370521850000       7.320501180000
       122    1   0.000000       11.262742350000      11.262742350000       6.585299970000
       123    1   0.000000        9.425623560000       5.640133140000       0.000000000000
       124    1   0.000000       13.621881330000       5.684666430000       9.400382670000
       125    1   0.000000       12.388936200000       5.312644650000       8.745084150000
       126    1   0.000000        1.228282800000      10.706478150000       8.756498820000
       127    1   0.000000       11.262742350000       4.814257650000       9.491700030000
       128    1   0.000000        9.425623560000      10.436866860000       0.000000000000
       129    1   0.000000        6.676617330000       5.684666430000       2.455118670000
       130    1   0.000000        7.331915850000       5.312644650000       3.688063800000
       131    1   0.000000        7.320501180000      10.706478150000      14.848717200000
       132    1   0.000000        9.400382670000      10.392333570000       2.455118670000
       133    1   0.000000        8.745084150000      10.764355350000       3.688063800000
       134    1   0.000000        8.756498820000       5.370521850000      14.848717200000
       135    1   0.000000        6.676617330000      10.392333570000      13.621881330000
       136    1   0.000000        7.331915850000      10.764355350000      12.388936200000
       137    1   0.000000        7.320501180000       5.370521850000       1.228282800000
       138    1   0.000000        9.400382670000       5.684666430000      13.621881330000
       139    1   0.000000        8.745084150000       5.312644650000      12.388936200000
       140    1   0.000000        8.756498820000      10.706478150000       1.228282800000
       141    1   0.000000        2.455118670000       6.676617330000       5.684666430000
       142    1   0.000000        3.688063800000       7.331915850000       5.312644650000
       143    1   0.000000       14.848717200000       7.320501180000      10.706478150000
       144    1   0.000000        2.455118670000       9.400382670000      10.392333570000
       145    1   0.000000        3.688063800000       8.745084150000      10.764355350000
       146    1   0.000000       14.848717200000       8.756498820000       5.370521850000
       147    1   0.000000       13.621881330000       6.676617330000      10.392333570000
       148    1   0.000000       12.388936200000       7.331915850000      10.764355350000
       149    1   0.000000        1.228282800000       7.320501180000       5.370521850000
       150    1   0.000000       13.621881330000       9.400382670000       5.684666430000
       151    1   0.000000       12.388936200000       8.745084150000       5.312644650000
       152    1   0.000000        1.228282800000       8.756498820000      10.706478150000
       153    1   0.000000        5.684666430000       2.455118670000       6.676617330000
       154    1   0.000000        5.312644650000       3.688063800000       7.331915850000
       155    1   0.000000       10.706478150000      14.848717200000       7.320501180000
       156    1   0.000000       10.392333570000       2.455118670000       9.400382670000
       157    1   0.000000       10.764355350000       3.688063800000       8.745084150000
       158    1   0.000000        5.370521850000      14.848717200000       8.756498820000
       159    1   0.000000       10.392333570000      13.621881330000       6.676617330000
       160    1   0.000000       10.764355350000      12.388936200000       7.331915850000
       161    1   0.000000        5.370521850000       1.228282800000       7.320501180000
       162    1   0.000000        5.684666430000      13.621881330000       9.400382670000
       163    1   0.000000        5.312644650000      12.388936200000       8.745084150000
       164    1   0.000000       10.706478150000       1.228282800000       8.756498820000
       165    1   0.000000       10.392333570000       9.400382670000      13.621881330000
       166    1   0.000000       10.764355350000       8.745084150000      12.388936200000
       167    1   0.000000        5.370521850000       8.756498820000       1.228282800000
       168    1   0.000000        5.684666430000       6.676617330000      13.621881330000
       169    1   0.000000        5.312644650000       7.331915850000      12.388936200000
       170    1   0.000000       10.706478150000       7.320501180000       1.228282800000
       171    1   0.000000        5.684666430000       9.400382670000       2.455118670000
       172    1   0.000000        5.312644650000       8.745084150000       3.688063800000
       173    1   0.000000       10.706478150000       8.756498820000      14.848717200000
       174    1   0.000000       10.392333570000       6.676617330000       2.455118670000
       175    1   0.000000       10.764355350000       7.331915850000       3.688063800000
       176    1   0.000000        5.370521850000       7.320501180000      14.848717200000
       177    1   0.000000        9.400382670000      13.621881330000      10.392333570000
       178    1   0.000000        8.745084150000      12.388936200000      10.764355350000
       179    1   0.000000        8.756498820000       1.228282800000       5.370521850000
       180    1   0.000000        6.676617330000      13.621881330000       5.684666430000
       181    1   0.000000        7.331915850000      12.388936200000       5.312644650000
       182    1   0.000000        7.320501180000       1.228282800000      10.706478150000
       183    1   0.000000        9.400382670000       2.455118670000       5.684666430000
       184    1   0.000000        8.745084150000       3.688063800000       5.312644650000
       185    1   0.000000        8.756498820000      14.848717200000      10.706478150000
       186    1   0.000000        6.676617330000       2.455118670000      10.392333570000
       187    1   0.000000        7.331915850000       3.688063800000      10.764355350000
       188    1   0.000000        7.320501180000      14.848717200000       5.370521850000
       189    1   0.000000       13.621881330000      10.392333570000       9.400382670000
       190    1   0.000000       12.388936200000      10.764355350000       8.745084150000
       191    1   0.000000        1.228282800000       5.370521850000       8.756498820000
       192    1   0.000000       13.621881330000       5.684666430000       6.676617330000
       193    1   0.000000       12.388936200000       5.312644650000       7.331915850000
       194    1   0.000000        1.228282800000      10.706478150000       7.320501180000
       195    1   0.000000        2.455118670000       5.684666430000       9.400382670000
       196    1   0.000000        3.688063800000       5.312644650000       8.745084150000
       197    1   0.000000       14.848717200000      10.706478150000       8.756498820000
       198    1   0.000000        2.455118670000      10.392333570000       6.676617330000
       199    1   0.000000        3.688063800000      10.764355350000       7.331915850000
       200    1   0.000000       14.848717200000       5.370521850000       7.320501180000
