 # C1
  
         160  atoms
           1  atom types
 
      0.000000000000      13.258800000000  xlo xhi
      0.000000000000      11.482457623697  ylo yhi
      0.000000000000      21.688700000000  zlo zhi
     -6.629400000000       0.000000000000       0.000000000000  xy xz yz
 
Masses
 
            1   12.01100000             # C
 
Atoms # charge
 
         1    1   0.000000       -2.688553170000       6.102811402419      10.588640227000
         2    1   0.000000        0.000066294000      10.583036718033       9.090601718000
         3    1   0.000000       -0.000066294000       7.655010023990       6.199714895000
         4    1   0.000000       -1.364065344000       5.510431413612      11.006798363000
         5    1   0.000000        1.239565212000      10.048987613955       8.663768102000
         6    1   0.000000       -1.171481274000       6.978693269954       6.866425533000
         7    1   0.000000       -0.706627746000       6.383442666742      11.904493656000
         8    1   0.000000        0.706561452000       4.951465376491       9.885275686000
         9    1   0.000000        1.987693002000       7.939086025600       7.511664358000
        10    1   0.000000        9.317953170000       5.379646221278      21.432990227000
        11    1   0.000000        6.629333706000       0.899420905664      19.934951718000
        12    1   0.000000        6.629466294000       3.827447599707      17.044064895000
        13    1   0.000000        7.993465344000       5.972026210085       0.162448363000
        14    1   0.000000        5.389834788000       1.433470009742      19.508118102000
        15    1   0.000000        7.800881274000       4.503764353743      17.710775533000
        16    1   0.000000        7.336027746000       5.099014956955       1.060143656000
        17    1   0.000000        5.922838548000       6.530992247206      20.729625686000
        18    1   0.000000        4.641706998000       3.543371598097      18.356014358000
        19    1   0.000000        2.688486876000       6.102696577843      10.588640227000
        20    1   0.000000       -2.535811794000       6.190996676969       9.090601718000
        21    1   0.000000        2.539259082000       7.545926676565      11.006798363000
        22    1   0.000000       -2.693061162000       7.531458779959       8.663768102000
        23    1   0.000000        1.171414980000       6.978578445378       6.866425533000
        24    1   0.000000        1.454490360000       7.678778711271      11.904493656000
        25    1   0.000000        1.988024472000       9.618625102219       9.885275686000
        26    1   0.000000       -1.239896682000       9.234307245553       7.511664358000
        27    1   0.000000        3.940913124000       5.379761045855      21.432990227000
        28    1   0.000000        9.165211794000       5.291460946728      19.934951718000
        29    1   0.000000        4.090140918000       3.936530947132       0.162448363000
        30    1   0.000000        9.322461162000       3.950998843738      19.508118102000
        31    1   0.000000        5.457985020000       4.503879178319      17.710775533000
        32    1   0.000000        5.174909640000       3.803678912426       1.060143656000
        33    1   0.000000        4.641375528000       1.863832521479      20.729625686000
        34    1   0.000000        7.869296682000       2.248150378144      18.356014358000
        35    1   0.000000        0.000066294000      10.759407267133      10.588640227000
        36    1   0.000000        2.535745500000       6.190881852393       9.090601718000
        37    1   0.000000       -1.175193738000       9.908557157217      11.006798363000
        38    1   0.000000        1.453495950000       5.384468853480       8.663768102000
        39    1   0.000000        0.000066294000       9.007643532062       6.866425533000
        40    1   0.000000       -0.747862614000       8.902693869381      11.904493656000
        41    1   0.000000       -2.694585924000       8.394824768685       9.885275686000
        42    1   0.000000       -0.747796320000       5.791521976240       7.511664358000
        43    1   0.000000        6.629333706000       0.723050356564      21.432990227000
        44    1   0.000000        4.093654500000       5.291575771305      19.934951718000
        45    1   0.000000        7.804593738000       1.573900466480       0.162448363000
        46    1   0.000000        5.175904050000       6.097988770217      19.508118102000
        47    1   0.000000        6.629333706000       2.474814091635      17.710775533000
        48    1   0.000000        7.377262614000       2.579763754316       1.060143656000
        49    1   0.000000        9.323985924000       3.087632855012      20.729625686000
        50    1   0.000000        7.377196320000       5.690935647457      18.356014358000
        51    1   0.000000        3.940846830000       5.379646221278      11.100059773000
        52    1   0.000000        6.629466294000       0.899420905664      12.598098282000
        53    1   0.000000        6.629333706000       3.827447599707      15.488985105000
        54    1   0.000000        5.265334656000       5.972026210085      10.681901637000
        55    1   0.000000        7.868965212000       1.433470009742      13.024931898000
        56    1   0.000000        5.457918726000       4.503764353743      14.822274467000
        57    1   0.000000        5.922772254000       5.099014956955       9.784206344000
        58    1   0.000000        7.335961452000       6.530992247206      11.803424314000
        59    1   0.000000        8.617093002000       3.543371598097      14.177035642000
        60    1   0.000000        2.688553170000       6.102811402419       0.255709773000
        61    1   0.000000       -0.000066294000      10.583036718033       1.753748282000
        62    1   0.000000        0.000066294000       7.655010023990       4.644635105000
        63    1   0.000000        1.364065344000       5.510431413612      21.526251637000
        64    1   0.000000       -1.239565212000      10.048987613955       2.180581898000
        65    1   0.000000        1.171481274000       6.978693269954       3.977924467000
        66    1   0.000000        0.706627746000       6.383442666742      20.628556344000
        67    1   0.000000       -0.706561452000       4.951465376491       0.959074314000
        68    1   0.000000       -1.987693002000       7.939086025600       3.332685642000
        69    1   0.000000        9.317886876000       5.379761045855      11.100059773000
        70    1   0.000000        4.093588206000       5.291460946728      12.598098282000
        71    1   0.000000        9.168659082000       3.936530947132      10.681901637000
        72    1   0.000000        3.936338838000       3.950998843738      13.024931898000
        73    1   0.000000        7.800814980000       4.503879178319      14.822274467000
        74    1   0.000000        8.083890360000       3.803678912426       9.784206344000
        75    1   0.000000        8.617424472000       1.863832521479      11.803424314000
        76    1   0.000000        5.389503318000       2.248150378144      14.177035642000
        77    1   0.000000       -2.688486876000       6.102696577843       0.255709773000
        78    1   0.000000        2.535811794000       6.190996676969       1.753748282000
        79    1   0.000000       -2.539259082000       7.545926676565      21.526251637000
        80    1   0.000000        2.693061162000       7.531458779959       2.180581898000
        81    1   0.000000       -1.171414980000       6.978578445378       3.977924467000
        82    1   0.000000       -1.454490360000       7.678778711271      20.628556344000
        83    1   0.000000       -1.988024472000       9.618625102219       0.959074314000
        84    1   0.000000        1.239896682000       9.234307245553       3.332685642000
        85    1   0.000000        6.629466294000       0.723050356564      11.100059773000
        86    1   0.000000        9.165145500000       5.291575771305      12.598098282000
        87    1   0.000000        5.454206262000       1.573900466480      10.681901637000
        88    1   0.000000        8.082895950000       6.097988770217      13.024931898000
        89    1   0.000000        6.629466294000       2.474814091635      14.822274467000
        90    1   0.000000        5.881537386000       2.579763754316       9.784206344000
        91    1   0.000000        3.934814076000       3.087632855012      11.803424314000
        92    1   0.000000        5.881603680000       5.690935647457      14.177035642000
        93    1   0.000000       -0.000066294000      10.759407267133       0.255709773000
        94    1   0.000000       -2.535745500000       6.190881852393       1.753748282000
        95    1   0.000000        1.175193738000       9.908557157217      21.526251637000
        96    1   0.000000       -1.453495950000       5.384468853480       2.180581898000
        97    1   0.000000       -0.000066294000       9.007643532062       3.977924467000
        98    1   0.000000        0.747862614000       8.902693869381      20.628556344000
        99    1   0.000000        2.694585924000       8.394824768685       0.959074314000
       100    1   0.000000        0.747796320000       5.791521976240       3.332685642000
       101    1   0.000000        7.993465344000       5.972026210085      10.681901637000
       102    1   0.000000        5.389834788000       1.433470009742      13.024931898000
       103    1   0.000000        7.336027746000       5.099014956955       9.784206344000
       104    1   0.000000        5.922838548000       6.530992247206      11.803424314000
       105    1   0.000000        4.641706998000       3.543371598097      14.177035642000
       106    1   0.000000       -1.364065344000       5.510431413612      21.526251637000
       107    1   0.000000        1.239565212000      10.048987613955       2.180581898000
       108    1   0.000000       -0.706627746000       6.383442666742      20.628556344000
       109    1   0.000000        0.706561452000       4.951465376491       0.959074314000
       110    1   0.000000        1.987693002000       7.939086025600       3.332685642000
       111    1   0.000000        4.090140918000       3.936530947132      10.681901637000
       112    1   0.000000        9.322461162000       3.950998843738      13.024931898000
       113    1   0.000000        5.174909640000       3.803678912426       9.784206344000
       114    1   0.000000        4.641375528000       1.863832521479      11.803424314000
       115    1   0.000000        7.869296682000       2.248150378144      14.177035642000
       116    1   0.000000        2.539259082000       7.545926676565      21.526251637000
       117    1   0.000000       -2.693061162000       7.531458779959       2.180581898000
       118    1   0.000000        1.454490360000       7.678778711271      20.628556344000
       119    1   0.000000        1.988024472000       9.618625102219       0.959074314000
       120    1   0.000000       -1.239896682000       9.234307245553       3.332685642000
       121    1   0.000000        7.804593738000       1.573900466480      10.681901637000
       122    1   0.000000        5.175904050000       6.097988770217      13.024931898000
       123    1   0.000000        7.377262614000       2.579763754316       9.784206344000
       124    1   0.000000        9.323985924000       3.087632855012      11.803424314000
       125    1   0.000000        7.377196320000       5.690935647457      14.177035642000
       126    1   0.000000       -1.175193738000       9.908557157217      21.526251637000
       127    1   0.000000        1.453495950000       5.384468853480       2.180581898000
       128    1   0.000000       -0.747862614000       8.902693869381      20.628556344000
       129    1   0.000000       -2.694585924000       8.394824768685       0.959074314000
       130    1   0.000000       -0.747796320000       5.791521976240       3.332685642000
       131    1   0.000000        1.364065344000       5.510431413612      11.006798363000
       132    1   0.000000       -1.239565212000      10.048987613955       8.663768102000
       133    1   0.000000        0.706627746000       6.383442666742      11.904493656000
       134    1   0.000000       -0.706561452000       4.951465376491       9.885275686000
       135    1   0.000000       -1.987693002000       7.939086025600       7.511664358000
       136    1   0.000000        5.265334656000       5.972026210085       0.162448363000
       137    1   0.000000        7.868965212000       1.433470009742      19.508118102000
       138    1   0.000000        5.922772254000       5.099014956955       1.060143656000
       139    1   0.000000        7.335961452000       6.530992247206      20.729625686000
       140    1   0.000000        8.617093002000       3.543371598097      18.356014358000
       141    1   0.000000       -2.539259082000       7.545926676565      11.006798363000
       142    1   0.000000        2.693061162000       7.531458779959       8.663768102000
       143    1   0.000000       -1.454490360000       7.678778711271      11.904493656000
       144    1   0.000000       -1.988024472000       9.618625102219       9.885275686000
       145    1   0.000000        1.239896682000       9.234307245553       7.511664358000
       146    1   0.000000        9.168659082000       3.936530947132       0.162448363000
       147    1   0.000000        3.936338838000       3.950998843738      19.508118102000
       148    1   0.000000        8.083890360000       3.803678912426       1.060143656000
       149    1   0.000000        8.617424472000       1.863832521479      20.729625686000
       150    1   0.000000        5.389503318000       2.248150378144      18.356014358000
       151    1   0.000000        1.175193738000       9.908557157217      11.006798363000
       152    1   0.000000       -1.453495950000       5.384468853480       8.663768102000
       153    1   0.000000        0.747862614000       8.902693869381      11.904493656000
       154    1   0.000000        2.694585924000       8.394824768685       9.885275686000
       155    1   0.000000        0.747796320000       5.791521976240       7.511664358000
       156    1   0.000000        5.454206262000       1.573900466480       0.162448363000
       157    1   0.000000        8.082895950000       6.097988770217      19.508118102000
       158    1   0.000000        5.881537386000       2.579763754316       1.060143656000
       159    1   0.000000        3.934814076000       3.087632855012      20.729625686000
       160    1   0.000000        5.881603680000       5.690935647457      18.356014358000
