 # C1
  
         216  atoms
           1  atom types
 
      0.000000000000      16.132500000000  xlo xhi
      0.000000000000      16.132500000000  ylo yhi
      0.000000000000      16.132500000000  zlo zhi
 
Masses
 
            1   12.01100000             # C
 
Atoms # charge
 
         1    1   0.000000        4.422563550000      13.722788475000      12.714184575000
         2    1   0.000000        7.372875150000      13.818454200000      13.818454200000
         3    1   0.000000        6.650461800000      14.898363750000      13.170250350000
         4    1   0.000000        5.299203600000      14.889652200000      12.797105625000
         5    1   0.000000        7.355290725000      16.132500000000      13.128628500000
         6    1   0.000000        4.741019100000      16.132500000000      12.396051675000
         7    1   0.000000       11.709936450000       2.409711525000      12.714184575000
         8    1   0.000000        8.759624850000       2.314045800000      13.818454200000
         9    1   0.000000        9.482038200000       1.234136250000      13.170250350000
        10    1   0.000000       10.833296400000       1.242847800000      12.797105625000
        11    1   0.000000        8.777209275000       0.000000000000      13.128628500000
        12    1   0.000000       11.391480900000       0.000000000000      12.396051675000
        13    1   0.000000        4.422563550000       2.409711525000       3.418315425000
        14    1   0.000000        7.372875150000       2.314045800000       2.314045800000
        15    1   0.000000        6.650461800000       1.234136250000       2.962249650000
        16    1   0.000000        5.299203600000       1.242847800000       3.335394375000
        17    1   0.000000        7.355290725000       0.000000000000       3.003871500000
        18    1   0.000000        4.741019100000       0.000000000000       3.736448325000
        19    1   0.000000       11.709936450000      13.722788475000       3.418315425000
        20    1   0.000000        8.759624850000      13.818454200000       2.314045800000
        21    1   0.000000        9.482038200000      14.898363750000       2.962249650000
        22    1   0.000000       10.833296400000      14.889652200000       3.335394375000
        23    1   0.000000        8.777209275000       0.000000000000       3.003871500000
        24    1   0.000000       11.391480900000       0.000000000000       3.736448325000
        25    1   0.000000       12.714184575000       4.422563550000      13.722788475000
        26    1   0.000000       13.818454200000       7.372875150000      13.818454200000
        27    1   0.000000       13.170250350000       6.650461800000      14.898363750000
        28    1   0.000000       12.797105625000       5.299203600000      14.889652200000
        29    1   0.000000       13.128628500000       7.355290725000       0.000000000000
        30    1   0.000000       12.396051675000       4.741019100000       0.000000000000
        31    1   0.000000       12.714184575000      11.709936450000       2.409711525000
        32    1   0.000000       13.818454200000       8.759624850000       2.314045800000
        33    1   0.000000       13.170250350000       9.482038200000       1.234136250000
        34    1   0.000000       12.797105625000      10.833296400000       1.242847800000
        35    1   0.000000       13.128628500000       8.777209275000       0.000000000000
        36    1   0.000000       12.396051675000      11.391480900000       0.000000000000
        37    1   0.000000        3.418315425000       4.422563550000       2.409711525000
        38    1   0.000000        2.314045800000       7.372875150000       2.314045800000
        39    1   0.000000        2.962249650000       6.650461800000       1.234136250000
        40    1   0.000000        3.335394375000       5.299203600000       1.242847800000
        41    1   0.000000        3.003871500000       7.355290725000       0.000000000000
        42    1   0.000000        3.736448325000       4.741019100000       0.000000000000
        43    1   0.000000        3.418315425000      11.709936450000      13.722788475000
        44    1   0.000000        2.314045800000       8.759624850000      13.818454200000
        45    1   0.000000        2.962249650000       9.482038200000      14.898363750000
        46    1   0.000000        3.335394375000      10.833296400000      14.889652200000
        47    1   0.000000        3.003871500000       8.777209275000       0.000000000000
        48    1   0.000000        3.736448325000      11.391480900000       0.000000000000
        49    1   0.000000       13.722788475000      12.714184575000       4.422563550000
        50    1   0.000000       13.818454200000      13.818454200000       7.372875150000
        51    1   0.000000       14.898363750000      13.170250350000       6.650461800000
        52    1   0.000000       14.889652200000      12.797105625000       5.299203600000
        53    1   0.000000        0.000000000000      13.128628500000       7.355290725000
        54    1   0.000000        0.000000000000      12.396051675000       4.741019100000
        55    1   0.000000        2.409711525000      12.714184575000      11.709936450000
        56    1   0.000000        2.314045800000      13.818454200000       8.759624850000
        57    1   0.000000        1.234136250000      13.170250350000       9.482038200000
        58    1   0.000000        1.242847800000      12.797105625000      10.833296400000
        59    1   0.000000        0.000000000000      13.128628500000       8.777209275000
        60    1   0.000000        0.000000000000      12.396051675000      11.391480900000
        61    1   0.000000        2.409711525000       3.418315425000       4.422563550000
        62    1   0.000000        2.314045800000       2.314045800000       7.372875150000
        63    1   0.000000        1.234136250000       2.962249650000       6.650461800000
        64    1   0.000000        1.242847800000       3.335394375000       5.299203600000
        65    1   0.000000        0.000000000000       3.003871500000       7.355290725000
        66    1   0.000000        0.000000000000       3.736448325000       4.741019100000
        67    1   0.000000       13.722788475000       3.418315425000      11.709936450000
        68    1   0.000000       13.818454200000       2.314045800000       8.759624850000
        69    1   0.000000       14.898363750000       2.962249650000       9.482038200000
        70    1   0.000000       14.889652200000       3.335394375000      10.833296400000
        71    1   0.000000        0.000000000000       3.003871500000       8.777209275000
        72    1   0.000000        0.000000000000       3.736448325000      11.391480900000
        73    1   0.000000        2.409711525000      11.709936450000       3.418315425000
        74    1   0.000000        2.314045800000       8.759624850000       2.314045800000
        75    1   0.000000        1.234136250000       9.482038200000       2.962249650000
        76    1   0.000000        1.242847800000      10.833296400000       3.335394375000
        77    1   0.000000        0.000000000000       8.777209275000       3.003871500000
        78    1   0.000000        0.000000000000      11.391480900000       3.736448325000
        79    1   0.000000       13.722788475000       4.422563550000       3.418315425000
        80    1   0.000000       13.818454200000       7.372875150000       2.314045800000
        81    1   0.000000       14.898363750000       6.650461800000       2.962249650000
        82    1   0.000000       14.889652200000       5.299203600000       3.335394375000
        83    1   0.000000        0.000000000000       7.355290725000       3.003871500000
        84    1   0.000000        0.000000000000       4.741019100000       3.736448325000
        85    1   0.000000       13.722788475000      11.709936450000      12.714184575000
        86    1   0.000000       13.818454200000       8.759624850000      13.818454200000
        87    1   0.000000       14.898363750000       9.482038200000      13.170250350000
        88    1   0.000000       14.889652200000      10.833296400000      12.797105625000
        89    1   0.000000        0.000000000000       8.777209275000      13.128628500000
        90    1   0.000000        0.000000000000      11.391480900000      12.396051675000
        91    1   0.000000        2.409711525000       4.422563550000      12.714184575000
        92    1   0.000000        2.314045800000       7.372875150000      13.818454200000
        93    1   0.000000        1.234136250000       6.650461800000      13.170250350000
        94    1   0.000000        1.242847800000       5.299203600000      12.797105625000
        95    1   0.000000        0.000000000000       7.355290725000      13.128628500000
        96    1   0.000000        0.000000000000       4.741019100000      12.396051675000
        97    1   0.000000       11.709936450000       3.418315425000       2.409711525000
        98    1   0.000000        8.759624850000       2.314045800000       2.314045800000
        99    1   0.000000        9.482038200000       2.962249650000       1.234136250000
       100    1   0.000000       10.833296400000       3.335394375000       1.242847800000
       101    1   0.000000        8.777209275000       3.003871500000       0.000000000000
       102    1   0.000000       11.391480900000       3.736448325000       0.000000000000
       103    1   0.000000        4.422563550000       3.418315425000      13.722788475000
       104    1   0.000000        7.372875150000       2.314045800000      13.818454200000
       105    1   0.000000        6.650461800000       2.962249650000      14.898363750000
       106    1   0.000000        5.299203600000       3.335394375000      14.889652200000
       107    1   0.000000        7.355290725000       3.003871500000       0.000000000000
       108    1   0.000000        4.741019100000       3.736448325000       0.000000000000
       109    1   0.000000       11.709936450000      12.714184575000      13.722788475000
       110    1   0.000000        8.759624850000      13.818454200000      13.818454200000
       111    1   0.000000        9.482038200000      13.170250350000      14.898363750000
       112    1   0.000000       10.833296400000      12.797105625000      14.889652200000
       113    1   0.000000        8.777209275000      13.128628500000       0.000000000000
       114    1   0.000000       11.391480900000      12.396051675000       0.000000000000
       115    1   0.000000        4.422563550000      12.714184575000       2.409711525000
       116    1   0.000000        7.372875150000      13.818454200000       2.314045800000
       117    1   0.000000        6.650461800000      13.170250350000       1.234136250000
       118    1   0.000000        5.299203600000      12.797105625000       1.242847800000
       119    1   0.000000        7.355290725000      13.128628500000       0.000000000000
       120    1   0.000000        4.741019100000      12.396051675000       0.000000000000
       121    1   0.000000        3.418315425000       2.409711525000      11.709936450000
       122    1   0.000000        2.314045800000       2.314045800000       8.759624850000
       123    1   0.000000        2.962249650000       1.234136250000       9.482038200000
       124    1   0.000000        3.335394375000       1.242847800000      10.833296400000
       125    1   0.000000        3.003871500000       0.000000000000       8.777209275000
       126    1   0.000000        3.736448325000       0.000000000000      11.391480900000
       127    1   0.000000        3.418315425000      13.722788475000       4.422563550000
       128    1   0.000000        2.314045800000      13.818454200000       7.372875150000
       129    1   0.000000        2.962249650000      14.898363750000       6.650461800000
       130    1   0.000000        3.335394375000      14.889652200000       5.299203600000
       131    1   0.000000        3.003871500000       0.000000000000       7.355290725000
       132    1   0.000000        3.736448325000       0.000000000000       4.741019100000
       133    1   0.000000       12.714184575000      13.722788475000      11.709936450000
       134    1   0.000000       13.818454200000      13.818454200000       8.759624850000
       135    1   0.000000       13.170250350000      14.898363750000       9.482038200000
       136    1   0.000000       12.797105625000      14.889652200000      10.833296400000
       137    1   0.000000       13.128628500000       0.000000000000       8.777209275000
       138    1   0.000000       12.396051675000       0.000000000000      11.391480900000
       139    1   0.000000       12.714184575000       2.409711525000       4.422563550000
       140    1   0.000000       13.818454200000       2.314045800000       7.372875150000
       141    1   0.000000       13.170250350000       1.234136250000       6.650461800000
       142    1   0.000000       12.797105625000       1.242847800000       5.299203600000
       143    1   0.000000       13.128628500000       0.000000000000       7.355290725000
       144    1   0.000000       12.396051675000       0.000000000000       4.741019100000
       145    1   0.000000       11.709936450000       2.409711525000       3.418315425000
       146    1   0.000000        9.482038200000       1.234136250000       2.962249650000
       147    1   0.000000       10.833296400000       1.242847800000       3.335394375000
       148    1   0.000000        4.422563550000      13.722788475000       3.418315425000
       149    1   0.000000        6.650461800000      14.898363750000       2.962249650000
       150    1   0.000000        5.299203600000      14.889652200000       3.335394375000
       151    1   0.000000       11.709936450000      13.722788475000      12.714184575000
       152    1   0.000000        9.482038200000      14.898363750000      13.170250350000
       153    1   0.000000       10.833296400000      14.889652200000      12.797105625000
       154    1   0.000000        4.422563550000       2.409711525000      12.714184575000
       155    1   0.000000        6.650461800000       1.234136250000      13.170250350000
       156    1   0.000000        5.299203600000       1.242847800000      12.797105625000
       157    1   0.000000        3.418315425000      11.709936450000       2.409711525000
       158    1   0.000000        2.962249650000       9.482038200000       1.234136250000
       159    1   0.000000        3.335394375000      10.833296400000       1.242847800000
       160    1   0.000000        3.418315425000       4.422563550000      13.722788475000
       161    1   0.000000        2.962249650000       6.650461800000      14.898363750000
       162    1   0.000000        3.335394375000       5.299203600000      14.889652200000
       163    1   0.000000       12.714184575000      11.709936450000      13.722788475000
       164    1   0.000000       13.170250350000       9.482038200000      14.898363750000
       165    1   0.000000       12.797105625000      10.833296400000      14.889652200000
       166    1   0.000000       12.714184575000       4.422563550000       2.409711525000
       167    1   0.000000       13.170250350000       6.650461800000       1.234136250000
       168    1   0.000000       12.797105625000       5.299203600000       1.242847800000
       169    1   0.000000        2.409711525000       3.418315425000      11.709936450000
       170    1   0.000000        1.234136250000       2.962249650000       9.482038200000
       171    1   0.000000        1.242847800000       3.335394375000      10.833296400000
       172    1   0.000000       13.722788475000       3.418315425000       4.422563550000
       173    1   0.000000       14.898363750000       2.962249650000       6.650461800000
       174    1   0.000000       14.889652200000       3.335394375000       5.299203600000
       175    1   0.000000       13.722788475000      12.714184575000      11.709936450000
       176    1   0.000000       14.898363750000      13.170250350000       9.482038200000
       177    1   0.000000       14.889652200000      12.797105625000      10.833296400000
       178    1   0.000000        2.409711525000      12.714184575000       4.422563550000
       179    1   0.000000        1.234136250000      13.170250350000       6.650461800000
       180    1   0.000000        1.242847800000      12.797105625000       5.299203600000
       181    1   0.000000       13.722788475000       4.422563550000      12.714184575000
       182    1   0.000000       14.898363750000       6.650461800000      13.170250350000
       183    1   0.000000       14.889652200000       5.299203600000      12.797105625000
       184    1   0.000000        2.409711525000      11.709936450000      12.714184575000
       185    1   0.000000        1.234136250000       9.482038200000      13.170250350000
       186    1   0.000000        1.242847800000      10.833296400000      12.797105625000
       187    1   0.000000        2.409711525000       4.422563550000       3.418315425000
       188    1   0.000000        1.234136250000       6.650461800000       2.962249650000
       189    1   0.000000        1.242847800000       5.299203600000       3.335394375000
       190    1   0.000000       13.722788475000      11.709936450000       3.418315425000
       191    1   0.000000       14.898363750000       9.482038200000       2.962249650000
       192    1   0.000000       14.889652200000      10.833296400000       3.335394375000
       193    1   0.000000        4.422563550000      12.714184575000      13.722788475000
       194    1   0.000000        6.650461800000      13.170250350000      14.898363750000
       195    1   0.000000        5.299203600000      12.797105625000      14.889652200000
       196    1   0.000000       11.709936450000      12.714184575000       2.409711525000
       197    1   0.000000        9.482038200000      13.170250350000       1.234136250000
       198    1   0.000000       10.833296400000      12.797105625000       1.242847800000
       199    1   0.000000        4.422563550000       3.418315425000       2.409711525000
       200    1   0.000000        6.650461800000       2.962249650000       1.234136250000
       201    1   0.000000        5.299203600000       3.335394375000       1.242847800000
       202    1   0.000000       11.709936450000       3.418315425000      13.722788475000
       203    1   0.000000        9.482038200000       2.962249650000      14.898363750000
       204    1   0.000000       10.833296400000       3.335394375000      14.889652200000
       205    1   0.000000       12.714184575000      13.722788475000       4.422563550000
       206    1   0.000000       13.170250350000      14.898363750000       6.650461800000
       207    1   0.000000       12.797105625000      14.889652200000       5.299203600000
       208    1   0.000000       12.714184575000       2.409711525000      11.709936450000
       209    1   0.000000       13.170250350000       1.234136250000       9.482038200000
       210    1   0.000000       12.797105625000       1.242847800000      10.833296400000
       211    1   0.000000        3.418315425000       2.409711525000       4.422563550000
       212    1   0.000000        2.962249650000       1.234136250000       6.650461800000
       213    1   0.000000        3.335394375000       1.242847800000       5.299203600000
       214    1   0.000000        3.418315425000      13.722788475000      11.709936450000
       215    1   0.000000        2.962249650000      14.898363750000       9.482038200000
       216    1   0.000000        3.335394375000      14.889652200000      10.833296400000
