 # File generated with Atomsk by ana on 2024-01-23 16:05:53
  
          16  atoms
           1  atom types
 
      0.000000000000       6.777400000000  xlo xhi
      0.000000000000       6.777400000000  ylo yhi
      0.000000000000       6.777400000000  zlo zhi
 
Masses
 
            1   12.01100000             # C
 
Atoms # charge
 
         1    1   0.000000        4.554006156000       5.612093844000       5.612093844000
         2    1   0.000000        3.739159354000       6.426940646000       6.426940646000
         3    1   0.000000        2.223393844000       1.165306156000       1.165306156000
         4    1   0.000000        3.038240646000       0.350459354000       0.350459354000
         5    1   0.000000        5.612093844000       4.554006156000       5.612093844000
         6    1   0.000000        6.426940646000       3.739159354000       6.426940646000
         7    1   0.000000        1.165306156000       2.223393844000       1.165306156000
         8    1   0.000000        0.350459354000       3.038240646000       0.350459354000
         9    1   0.000000        5.612093844000       5.612093844000       4.554006156000
        10    1   0.000000        6.426940646000       6.426940646000       3.739159354000
        11    1   0.000000        1.165306156000       1.165306156000       2.223393844000
        12    1   0.000000        0.350459354000       0.350459354000       3.038240646000
        13    1   0.000000        4.554006156000       4.554006156000       4.554006156000
        14    1   0.000000        3.739159354000       3.739159354000       3.739159354000
        15    1   0.000000        2.223393844000       2.223393844000       2.223393844000
        16    1   0.000000        3.038240646000       3.038240646000       3.038240646000
