 # C1
  
          48  atoms
           1  atom types
 
      0.000000000000       9.719400000000  xlo xhi
      0.000000000000       9.719400000000  ylo yhi
      0.000000000000       9.719400000000  zlo zhi
 
Masses
 
            1   12.01100000             # C
 
Atoms # charge
 
         1    1   0.000000        4.859700000000       1.001972946000       5.861672946000
         2    1   0.000000        4.859700000000       1.998794610000       6.858494610000
         3    1   0.000000        0.000000000000       3.857727054000       5.861672946000
         4    1   0.000000        0.000000000000       2.860905390000       6.858494610000
         5    1   0.000000        4.859700000000       3.857727054000       8.717427054000
         6    1   0.000000        4.859700000000       2.860905390000       7.720605390000
         7    1   0.000000        0.000000000000       1.001972946000       8.717427054000
         8    1   0.000000        0.000000000000       1.998794610000       7.720605390000
         9    1   0.000000        5.861672946000       4.859700000000       1.001972946000
        10    1   0.000000        6.858494610000       4.859700000000       1.998794610000
        11    1   0.000000        5.861672946000       0.000000000000       3.857727054000
        12    1   0.000000        6.858494610000       0.000000000000       2.860905390000
        13    1   0.000000        8.717427054000       4.859700000000       3.857727054000
        14    1   0.000000        7.720605390000       4.859700000000       2.860905390000
        15    1   0.000000        8.717427054000       0.000000000000       1.001972946000
        16    1   0.000000        7.720605390000       0.000000000000       1.998794610000
        17    1   0.000000        1.001972946000       5.861672946000       4.859700000000
        18    1   0.000000        1.998794610000       6.858494610000       4.859700000000
        19    1   0.000000        3.857727054000       5.861672946000       0.000000000000
        20    1   0.000000        2.860905390000       6.858494610000       0.000000000000
        21    1   0.000000        3.857727054000       8.717427054000       4.859700000000
        22    1   0.000000        2.860905390000       7.720605390000       4.859700000000
        23    1   0.000000        1.001972946000       8.717427054000       0.000000000000
        24    1   0.000000        1.998794610000       7.720605390000       0.000000000000
        25    1   0.000000        4.859700000000       8.717427054000       3.857727054000
        26    1   0.000000        4.859700000000       7.720605390000       2.860905390000
        27    1   0.000000        9.719400000000       5.861672946000       3.857727054000
        28    1   0.000000        9.719400000000       6.858494610000       2.860905390000
        29    1   0.000000        4.859700000000       5.861672946000       1.001972946000
        30    1   0.000000        4.859700000000       6.858494610000       1.998794610000
        31    1   0.000000        9.719400000000       8.717427054000       1.001972946000
        32    1   0.000000        9.719400000000       7.720605390000       1.998794610000
        33    1   0.000000        3.857727054000       4.859700000000       8.717427054000
        34    1   0.000000        2.860905390000       4.859700000000       7.720605390000
        35    1   0.000000        3.857727054000       9.719400000000       5.861672946000
        36    1   0.000000        2.860905390000       9.719400000000       6.858494610000
        37    1   0.000000        1.001972946000       4.859700000000       5.861672946000
        38    1   0.000000        1.998794610000       4.859700000000       6.858494610000
        39    1   0.000000        1.001972946000       9.719400000000       8.717427054000
        40    1   0.000000        1.998794610000       9.719400000000       7.720605390000
        41    1   0.000000        8.717427054000       3.857727054000       4.859700000000
        42    1   0.000000        7.720605390000       2.860905390000       4.859700000000
        43    1   0.000000        5.861672946000       3.857727054000       9.719400000000
        44    1   0.000000        6.858494610000       2.860905390000       9.719400000000
        45    1   0.000000        5.861672946000       1.001972946000       4.859700000000
        46    1   0.000000        6.858494610000       1.998794610000       4.859700000000
        47    1   0.000000        8.717427054000       1.001972946000       9.719400000000
        48    1   0.000000        7.720605390000       1.998794610000       9.719400000000
