 # C1
  
          48  atoms
           1  atom types
 
      0.000000000000       9.750900000000  xlo xhi
      0.000000000000       9.750900000000  ylo yhi
      0.000000000000       9.750900000000  zlo zhi
 
Masses
 
            1   12.01100000             # C
 
Atoms # charge
 
         1    1   0.000000        8.243898405000       4.357774719000       9.216745698000
         2    1   0.000000        7.227464589000       3.385122444000       9.248046087000
         3    1   0.000000        1.507001595000       5.393125281000       9.216745698000
         4    1   0.000000        2.523435411000       6.365777556000       9.248046087000
         5    1   0.000000        8.243898405000       5.393125281000       0.534154302000
         6    1   0.000000        7.227464589000       6.365777556000       0.502853913000
         7    1   0.000000        1.507001595000       4.357774719000       0.534154302000
         8    1   0.000000        2.523435411000       3.385122444000       0.502853913000
         9    1   0.000000        9.216745698000       8.243898405000       4.357774719000
        10    1   0.000000        9.248046087000       7.227464589000       3.385122444000
        11    1   0.000000        9.216745698000       1.507001595000       5.393125281000
        12    1   0.000000        9.248046087000       2.523435411000       6.365777556000
        13    1   0.000000        0.534154302000       8.243898405000       5.393125281000
        14    1   0.000000        0.502853913000       7.227464589000       6.365777556000
        15    1   0.000000        0.534154302000       1.507001595000       4.357774719000
        16    1   0.000000        0.502853913000       2.523435411000       3.385122444000
        17    1   0.000000        4.357774719000       9.216745698000       8.243898405000
        18    1   0.000000        3.385122444000       9.248046087000       7.227464589000
        19    1   0.000000        5.393125281000       9.216745698000       1.507001595000
        20    1   0.000000        6.365777556000       9.248046087000       2.523435411000
        21    1   0.000000        5.393125281000       0.534154302000       8.243898405000
        22    1   0.000000        6.365777556000       0.502853913000       7.227464589000
        23    1   0.000000        4.357774719000       0.534154302000       1.507001595000
        24    1   0.000000        3.385122444000       0.502853913000       2.523435411000
        25    1   0.000000        4.357774719000       8.243898405000       9.216745698000
        26    1   0.000000        3.385122444000       7.227464589000       9.248046087000
        27    1   0.000000        5.393125281000       1.507001595000       9.216745698000
        28    1   0.000000        6.365777556000       2.523435411000       9.248046087000
        29    1   0.000000        5.393125281000       8.243898405000       0.534154302000
        30    1   0.000000        6.365777556000       7.227464589000       0.502853913000
        31    1   0.000000        4.357774719000       1.507001595000       0.534154302000
        32    1   0.000000        3.385122444000       2.523435411000       0.502853913000
        33    1   0.000000        8.243898405000       9.216745698000       4.357774719000
        34    1   0.000000        7.227464589000       9.248046087000       3.385122444000
        35    1   0.000000        1.507001595000       9.216745698000       5.393125281000
        36    1   0.000000        2.523435411000       9.248046087000       6.365777556000
        37    1   0.000000        8.243898405000       0.534154302000       5.393125281000
        38    1   0.000000        7.227464589000       0.502853913000       6.365777556000
        39    1   0.000000        1.507001595000       0.534154302000       4.357774719000
        40    1   0.000000        2.523435411000       0.502853913000       3.385122444000
        41    1   0.000000        9.216745698000       4.357774719000       8.243898405000
        42    1   0.000000        9.248046087000       3.385122444000       7.227464589000
        43    1   0.000000        9.216745698000       5.393125281000       1.507001595000
        44    1   0.000000        9.248046087000       6.365777556000       2.523435411000
        45    1   0.000000        0.534154302000       5.393125281000       8.243898405000
        46    1   0.000000        0.502853913000       6.365777556000       7.227464589000
        47    1   0.000000        0.534154302000       4.357774719000       1.507001595000
        48    1   0.000000        0.502853913000       3.385122444000       2.523435411000
