 # File generated with Atomsk by ana on 2024-01-23 16:05:53
  
         744  atoms
           1  atom types
 
      0.000000000000      23.986270288300  xlo xhi
      0.000000000000      23.986270288300  ylo yhi
      0.000000000000      23.986270288300  zlo zhi
 
Masses
 
            1   12.01100000             # C
 
Atoms # charge
 
         1    1   0.000000        1.826299595015       0.152355455347       9.150995129383
         2    1   0.000000       22.159970693285      23.833915264706       9.150995129383
         3    1   0.000000       22.159970693285       0.152355455347      14.835275158917
         4    1   0.000000        1.826299595015      23.833915264706      14.835275158917
         5    1   0.000000        9.150995129383       1.826299595015       0.152355455347
         6    1   0.000000        9.150995129383      22.159970693285      23.833915264706
         7    1   0.000000       14.835275158917      22.159970693285       0.152355455347
         8    1   0.000000       14.835275158917       1.826299595015      23.833915264706
         9    1   0.000000        0.152355455347       9.150995129383       1.826299595015
        10    1   0.000000       23.833915264706       9.150995129383      22.159970693285
        11    1   0.000000        0.152355455347      14.835275158917      22.159970693285
        12    1   0.000000       23.833915264706      14.835275158917       1.826299595015
        13    1   0.000000        0.152355455347       1.826299595015       9.150995129383
        14    1   0.000000       23.833915264706      22.159970693285       9.150995129383
        15    1   0.000000        0.152355455347      22.159970693285      14.835275158917
        16    1   0.000000       23.833915264706       1.826299595015      14.835275158917
        17    1   0.000000        1.826299595015       9.150995129383       0.152355455347
        18    1   0.000000       22.159970693285       9.150995129383      23.833915264706
        19    1   0.000000       22.159970693285      14.835275158917       0.152355455347
        20    1   0.000000        1.826299595015      14.835275158917      23.833915264706
        21    1   0.000000        9.150995129383       0.152355455347       1.826299595015
        22    1   0.000000        9.150995129383      23.833915264706      22.159970693285
        23    1   0.000000       14.835275158917       0.152355455347      22.159970693285
        24    1   0.000000       14.835275158917      23.833915264706       1.826299595015
        25    1   0.000000       13.819434739165      12.145490167744      21.144130273533
        26    1   0.000000       10.166835549135      11.840779400968      21.144130273533
        27    1   0.000000       10.166835549135      12.145490167744       2.842140014767
        28    1   0.000000       13.819434739165      11.840779400968       2.842140014767
        29    1   0.000000       21.144130273533      13.819434739165      12.145490167744
        30    1   0.000000       21.144130273533      10.166835549135      11.840779400968
        31    1   0.000000        2.842140014767      10.166835549135      12.145490167744
        32    1   0.000000        2.842140014767      13.819434739165      11.840779400968
        33    1   0.000000       12.145490167744      21.144130273533      13.819434739165
        34    1   0.000000       11.840779400968      21.144130273533      10.166835549135
        35    1   0.000000       12.145490167744       2.842140014767      10.166835549135
        36    1   0.000000       11.840779400968       2.842140014767      13.819434739165
        37    1   0.000000       12.145490167744      13.819434739165      21.144130273533
        38    1   0.000000       11.840779400968      10.166835549135      21.144130273533
        39    1   0.000000       12.145490167744      10.166835549135       2.842140014767
        40    1   0.000000       11.840779400968      13.819434739165       2.842140014767
        41    1   0.000000       13.819434739165      21.144130273533      12.145490167744
        42    1   0.000000       10.166835549135      21.144130273533      11.840779400968
        43    1   0.000000       10.166835549135       2.842140014767      12.145490167744
        44    1   0.000000       13.819434739165       2.842140014767      11.840779400968
        45    1   0.000000       21.144130273533      12.145490167744      13.819434739165
        46    1   0.000000       21.144130273533      11.840779400968      10.166835549135
        47    1   0.000000        2.842140014767      12.145490167744      10.166835549135
        48    1   0.000000        2.842140014767      11.840779400968      13.819434739165
        49    1   0.000000        2.470163347503       1.428814142544       8.991777473287
        50    1   0.000000       21.516106772893      22.557456841358       8.991777473287
        51    1   0.000000       21.516106772893       1.428814142544      14.994492815013
        52    1   0.000000        2.470163347503      22.557456841358      14.994492815013
        53    1   0.000000        8.991777473287       2.470163347503       1.428814142544
        54    1   0.000000        8.991777473287      21.516106772893      22.557456841358
        55    1   0.000000       14.994492815013      21.516106772893       1.428814142544
        56    1   0.000000       14.994492815013       2.470163347503      22.557456841358
        57    1   0.000000        1.428814142544       8.991777473287       2.470163347503
        58    1   0.000000       22.557456841358       8.991777473287      21.516106772893
        59    1   0.000000        1.428814142544      14.994492815013      21.516106772893
        60    1   0.000000       22.557456841358      14.994492815013       2.470163347503
        61    1   0.000000        1.428814142544       2.470163347503       8.991777473287
        62    1   0.000000       22.557456841358      21.516106772893       8.991777473287
        63    1   0.000000        1.428814142544      21.516106772893      14.994492815013
        64    1   0.000000       22.557456841358       2.470163347503      14.994492815013
        65    1   0.000000        2.470163347503       8.991777473287       1.428814142544
        66    1   0.000000       21.516106772893       8.991777473287      22.557456841358
        67    1   0.000000       21.516106772893      14.994492815013       1.428814142544
        68    1   0.000000        2.470163347503      14.994492815013      22.557456841358
        69    1   0.000000        8.991777473287       1.428814142544       2.470163347503
        70    1   0.000000        8.991777473287      22.557456841358      21.516106772893
        71    1   0.000000       14.994492815013       1.428814142544      21.516106772893
        72    1   0.000000       14.994492815013      22.557456841358       2.470163347503
        73    1   0.000000       14.463298659557      13.421948591092      20.984912617437
        74    1   0.000000        9.522971628743      10.564321001606      20.984912617437
        75    1   0.000000        9.522971628743      13.421948591092       3.001357670863
        76    1   0.000000       14.463298659557      10.564321001606       3.001357670863
        77    1   0.000000       20.984912617437      14.463298659557      13.421948591092
        78    1   0.000000       20.984912617437       9.522971628743      10.564321001606
        79    1   0.000000        3.001357670863       9.522971628743      13.421948591092
        80    1   0.000000        3.001357670863      14.463298659557      10.564321001606
        81    1   0.000000       13.421948591092      20.984912617437      14.463298659557
        82    1   0.000000       10.564321001606      20.984912617437       9.522971628743
        83    1   0.000000       13.421948591092       3.001357670863       9.522971628743
        84    1   0.000000       10.564321001606       3.001357670863      14.463298659557
        85    1   0.000000       13.421948591092      14.463298659557      20.984912617437
        86    1   0.000000       10.564321001606       9.522971628743      20.984912617437
        87    1   0.000000       13.421948591092       9.522971628743       3.001357670863
        88    1   0.000000       10.564321001606      14.463298659557       3.001357670863
        89    1   0.000000       14.463298659557      20.984912617437      13.421948591092
        90    1   0.000000        9.522971628743      20.984912617437      10.564321001606
        91    1   0.000000        9.522971628743       3.001357670863      13.421948591092
        92    1   0.000000       14.463298659557       3.001357670863      10.564321001606
        93    1   0.000000       20.984912617437      13.421948591092      14.463298659557
        94    1   0.000000       20.984912617437      10.564321001606       9.522971628743
        95    1   0.000000        3.001357670863      13.421948591092       9.522971628743
        96    1   0.000000        3.001357670863      10.564321001606      14.463298659557
        97    1   0.000000        3.824524228715       1.399975401942       8.606869574144
        98    1   0.000000       20.161746419379      22.586295581960       8.606869574144
        99    1   0.000000       20.161746419379       1.399975401942      15.379399994568
       100    1   0.000000        3.824524228715      22.586295581960      15.379399994568
       101    1   0.000000        8.606869574144       3.824524228715       1.399975401942
       102    1   0.000000        8.606869574144      20.161746419379      22.586295581960
       103    1   0.000000       15.379399994568      20.161746419379       1.399975401942
       104    1   0.000000       15.379399994568       3.824524228715      22.586295581960
       105    1   0.000000        1.399975401942       8.606869574144       3.824524228715
       106    1   0.000000       22.586295581960       8.606869574144      20.161746419379
       107    1   0.000000        1.399975401942      15.379399994568      20.161746419379
       108    1   0.000000       22.586295581960      15.379399994568       3.824524228715
       109    1   0.000000        1.399975401942       3.824524228715       8.606869574144
       110    1   0.000000       22.586295581960      20.161746419379       8.606869574144
       111    1   0.000000        1.399975401942      20.161746419379      15.379399994568
       112    1   0.000000       22.586295581960       3.824524228715      15.379399994568
       113    1   0.000000        3.824524228715       8.606869574144       1.399975401942
       114    1   0.000000       20.161746419379       8.606869574144      22.586295581960
       115    1   0.000000       20.161746419379      15.379399994568       1.399975401942
       116    1   0.000000        3.824524228715      15.379399994568      22.586295581960
       117    1   0.000000        8.606869574144       1.399975401942       3.824524228715
       118    1   0.000000        8.606869574144      22.586295581960      20.161746419379
       119    1   0.000000       15.379399994568       1.399975401942      20.161746419379
       120    1   0.000000       15.379399994568      22.586295581960       3.824524228715
       121    1   0.000000       15.817659013071      13.393109850490      20.600005437882
       122    1   0.000000        8.168611275229      10.593159742208      20.600005437882
       123    1   0.000000        8.168611275229      13.393109850490       3.386265570006
       124    1   0.000000       15.817659013071      10.593159742208       3.386265570006
       125    1   0.000000       20.600005437882      15.817659013071      13.393109850490
       126    1   0.000000       20.600005437882       8.168611275229      10.593159742208
       127    1   0.000000        3.386265570006       8.168611275229      13.393109850490
       128    1   0.000000        3.386265570006      15.817659013071      10.593159742208
       129    1   0.000000       13.393109850490      20.600005437882      15.817659013071
       130    1   0.000000       10.593159742208      20.600005437882       8.168611275229
       131    1   0.000000       13.393109850490       3.386265570006       8.168611275229
       132    1   0.000000       10.593159742208       3.386265570006      15.817659013071
       133    1   0.000000       13.393109850490      15.817659013071      20.600005437882
       134    1   0.000000       10.593159742208       8.168611275229      20.600005437882
       135    1   0.000000       13.393109850490       8.168611275229       3.386265570006
       136    1   0.000000       10.593159742208      15.817659013071       3.386265570006
       137    1   0.000000       15.817659013071      20.600005437882      13.393109850490
       138    1   0.000000        8.168611275229      20.600005437882      10.593159742208
       139    1   0.000000        8.168611275229       3.386265570006      13.393109850490
       140    1   0.000000       15.817659013071       3.386265570006      10.593159742208
       141    1   0.000000       20.600005437882      13.393109850490      15.817659013071
       142    1   0.000000       20.600005437882      10.593159742208       8.168611275229
       143    1   0.000000        3.386265570006      13.393109850490       8.168611275229
       144    1   0.000000        3.386265570006      10.593159742208      15.817659013071
       145    1   0.000000        6.009673212390       5.033438293952      10.847443650975
       146    1   0.000000       17.976596356321      18.952831634554      10.847443650975
       147    1   0.000000       17.976596356321       5.033438293952      13.138826637325
       148    1   0.000000        6.009673212390      18.952831634554      13.138826637325
       149    1   0.000000       10.847443650975       6.009673212390       5.033438293952
       150    1   0.000000       10.847443650975      17.976596356321      18.952831634554
       151    1   0.000000       13.138826637325      17.976596356321       5.033438293952
       152    1   0.000000       13.138826637325       6.009673212390      18.952831634554
       153    1   0.000000        5.033438293952      10.847443650975       6.009673212390
       154    1   0.000000       18.952831634554      10.847443650975      17.976596356321
       155    1   0.000000        5.033438293952      13.138826637325      17.976596356321
       156    1   0.000000       18.952831634554      13.138826637325       6.009673212390
       157    1   0.000000        5.033438293952       6.009673212390      10.847443650975
       158    1   0.000000       18.952831634554      17.976596356321      10.847443650975
       159    1   0.000000        5.033438293952      17.976596356321      13.138826637325
       160    1   0.000000       18.952831634554       6.009673212390      13.138826637325
       161    1   0.000000        6.009673212390      10.847443650975       5.033438293952
       162    1   0.000000       17.976596356321      10.847443650975      18.952831634554
       163    1   0.000000       17.976596356321      13.138826637325       5.033438293952
       164    1   0.000000        6.009673212390      13.138826637325      18.952831634554
       165    1   0.000000       10.847443650975       5.033438293952       6.009673212390
       166    1   0.000000       10.847443650975      18.952831634554      17.976596356321
       167    1   0.000000       13.138826637325       5.033438293952      17.976596356321
       168    1   0.000000       13.138826637325      18.952831634554       6.009673212390
       169    1   0.000000       18.002809076129      17.026573797896      22.840578795125
       170    1   0.000000        5.983461931760       6.959696490404      22.840578795125
       171    1   0.000000        5.983461931760      17.026573797896       1.145691493175
       172    1   0.000000       18.002809076129       6.959696490404       1.145691493175
       173    1   0.000000       22.840578795125      18.002809076129      17.026573797896
       174    1   0.000000       22.840578795125       5.983461931760       6.959696490404
       175    1   0.000000        1.145691493175       5.983461931760      17.026573797896
       176    1   0.000000        1.145691493175      18.002809076129       6.959696490404
       177    1   0.000000       17.026573797896      22.840578795125      18.002809076129
       178    1   0.000000        6.959696490404      22.840578795125       5.983461931760
       179    1   0.000000       17.026573797896       1.145691493175       5.983461931760
       180    1   0.000000        6.959696490404       1.145691493175      18.002809076129
       181    1   0.000000       17.026573797896      18.002809076129      22.840578795125
       182    1   0.000000        6.959696490404       5.983461931760      22.840578795125
       183    1   0.000000       17.026573797896       5.983461931760       1.145691493175
       184    1   0.000000        6.959696490404      18.002809076129       1.145691493175
       185    1   0.000000       18.002809076129      22.840578795125      17.026573797896
       186    1   0.000000        5.983461931760      22.840578795125       6.959696490404
       187    1   0.000000        5.983461931760       1.145691493175      17.026573797896
       188    1   0.000000       18.002809076129       1.145691493175       6.959696490404
       189    1   0.000000       22.840578795125      17.026573797896      18.002809076129
       190    1   0.000000       22.840578795125       6.959696490404       5.983461931760
       191    1   0.000000        1.145691493175      17.026573797896       5.983461931760
       192    1   0.000000        1.145691493175       6.959696490404      18.002809076129
       193    1   0.000000        4.809688205674       3.799549890862       9.185075765811
       194    1   0.000000       19.176582442420      20.186720397438       9.185075765811
       195    1   0.000000       19.176582442420       3.799549890862      14.801193802901
       196    1   0.000000        4.809688205674      20.186720397438      14.801193802901
       197    1   0.000000        9.185075765811       4.809688205674       3.799549890862
       198    1   0.000000        9.185075765811      19.176582442420      20.186720397438
       199    1   0.000000       14.801193802901      19.176582442420       3.799549890862
       200    1   0.000000       14.801193802901       4.809688205674      20.186720397438
       201    1   0.000000        3.799549890862       9.185075765811       4.809688205674
       202    1   0.000000       20.186720397438       9.185075765811      19.176582442420
       203    1   0.000000        3.799549890862      14.801193802901      19.176582442420
       204    1   0.000000       20.186720397438      14.801193802901       4.809688205674
       205    1   0.000000        3.799549890862       4.809688205674       9.185075765811
       206    1   0.000000       20.186720397438      19.176582442420       9.185075765811
       207    1   0.000000        3.799549890862      19.176582442420      14.801193802901
       208    1   0.000000       20.186720397438       4.809688205674      14.801193802901
       209    1   0.000000        4.809688205674       9.185075765811       3.799549890862
       210    1   0.000000       19.176582442420       9.185075765811      20.186720397438
       211    1   0.000000       19.176582442420      14.801193802901       3.799549890862
       212    1   0.000000        4.809688205674      14.801193802901      20.186720397438
       213    1   0.000000        9.185075765811       3.799549890862       4.809688205674
       214    1   0.000000        9.185075765811      20.186720397438      19.176582442420
       215    1   0.000000       14.801193802901       3.799549890862      19.176582442420
       216    1   0.000000       14.801193802901      20.186720397438       4.809688205674
       217    1   0.000000       16.802822990030      15.792685035012      21.178211629549
       218    1   0.000000        7.183447298270       8.193585253288      21.178211629549
       219    1   0.000000        7.183447298270      15.792685035012       2.808059378339
       220    1   0.000000       16.802822990030       8.193585253288       2.808059378339
       221    1   0.000000       21.178211629549      16.802822990030      15.792685035012
       222    1   0.000000       21.178211629549       7.183447298270       8.193585253288
       223    1   0.000000        2.808059378339       7.183447298270      15.792685035012
       224    1   0.000000        2.808059378339      16.802822990030       8.193585253288
       225    1   0.000000       15.792685035012      21.178211629549      16.802822990030
       226    1   0.000000        8.193585253288      21.178211629549       7.183447298270
       227    1   0.000000       15.792685035012       2.808059378339       7.183447298270
       228    1   0.000000        8.193585253288       2.808059378339      16.802822990030
       229    1   0.000000       15.792685035012      16.802822990030      21.178211629549
       230    1   0.000000        8.193585253288       7.183447298270      21.178211629549
       231    1   0.000000       15.792685035012       7.183447298270       2.808059378339
       232    1   0.000000        8.193585253288      16.802822990030       2.808059378339
       233    1   0.000000       16.802822990030      21.178211629549      15.792685035012
       234    1   0.000000        7.183447298270      21.178211629549       8.193585253288
       235    1   0.000000        7.183447298270       2.808059378339      15.792685035012
       236    1   0.000000       16.802822990030       2.808059378339       8.193585253288
       237    1   0.000000       21.178211629549      15.792685035012      16.802822990030
       238    1   0.000000       21.178211629549       8.193585253288       7.183447298270
       239    1   0.000000        2.808059378339      15.792685035012       7.183447298270
       240    1   0.000000        2.808059378339       8.193585253288      16.802822990030
       241    1   0.000000        4.811399351581       2.470070370206       8.601202866873
       242    1   0.000000       19.174871296513      21.516199918094       8.601202866873
       243    1   0.000000       19.174871296513       2.470070370206      15.385067421427
       244    1   0.000000        4.811399351581      21.516199918094      15.385067421427
       245    1   0.000000        8.601202866873       4.811399351581       2.470070370206
       246    1   0.000000        8.601202866873      19.174871296513      21.516199918094
       247    1   0.000000       15.385067421427      19.174871296513       2.470070370206
       248    1   0.000000       15.385067421427       4.811399351581      21.516199918094
       249    1   0.000000        2.470070370206       8.601202866873       4.811399351581
       250    1   0.000000       21.516199918094       8.601202866873      19.174871296513
       251    1   0.000000        2.470070370206      15.385067421427      19.174871296513
       252    1   0.000000       21.516199918094      15.385067421427       4.811399351581
       253    1   0.000000        2.470070370206       4.811399351581       8.601202866873
       254    1   0.000000       21.516199918094      19.174871296513       8.601202866873
       255    1   0.000000        2.470070370206      19.174871296513      15.385067421427
       256    1   0.000000       21.516199918094       4.811399351581      15.385067421427
       257    1   0.000000        4.811399351581       8.601202866873       2.470070370206
       258    1   0.000000       19.174871296513       8.601202866873      21.516199918094
       259    1   0.000000       19.174871296513      15.385067421427       2.470070370206
       260    1   0.000000        4.811399351581      15.385067421427      21.516199918094
       261    1   0.000000        8.601202866873       2.470070370206       4.811399351581
       262    1   0.000000        8.601202866873      21.516199918094      19.174871296513
       263    1   0.000000       15.385067421427       2.470070370206      19.174871296513
       264    1   0.000000       15.385067421427      21.516199918094       4.811399351581
       265    1   0.000000       16.804534135937      14.463205514356      20.594338011023
       266    1   0.000000        7.181736152363       9.523064773944      20.594338011023
       267    1   0.000000        7.181736152363      14.463205514356       3.391932277277
       268    1   0.000000       16.804534135937       9.523064773944       3.391932277277
       269    1   0.000000       20.594338011023      16.804534135937      14.463205514356
       270    1   0.000000       20.594338011023       7.181736152363       9.523064773944
       271    1   0.000000        3.391932277277       7.181736152363      14.463205514356
       272    1   0.000000        3.391932277277      16.804534135937       9.523064773944
       273    1   0.000000       14.463205514356      20.594338011023      16.804534135937
       274    1   0.000000        9.523064773944      20.594338011023       7.181736152363
       275    1   0.000000       14.463205514356       3.391932277277       7.181736152363
       276    1   0.000000        9.523064773944       3.391932277277      16.804534135937
       277    1   0.000000       14.463205514356      16.804534135937      20.594338011023
       278    1   0.000000        9.523064773944       7.181736152363      20.594338011023
       279    1   0.000000       14.463205514356       7.181736152363       3.391932277277
       280    1   0.000000        9.523064773944      16.804534135937       3.391932277277
       281    1   0.000000       16.804534135937      20.594338011023      14.463205514356
       282    1   0.000000        7.181736152363      20.594338011023       9.523064773944
       283    1   0.000000        7.181736152363       3.391932277277      14.463205514356
       284    1   0.000000       16.804534135937       3.391932277277       9.523064773944
       285    1   0.000000       20.594338011023      14.463205514356      16.804534135937
       286    1   0.000000       20.594338011023       9.523064773944       7.181736152363
       287    1   0.000000        3.391932277277      14.463205514356       7.181736152363
       288    1   0.000000        3.391932277277       9.523064773944      16.804534135937
       289    1   0.000000        4.261041261126       0.058056400564       8.236287626110
       290    1   0.000000       19.725229746762      23.928214511379       8.236287626110
       291    1   0.000000       19.725229746762       0.058056400564      15.749983381778
       292    1   0.000000        4.261041261126      23.928214511379      15.749983381778
       293    1   0.000000        8.236287626110       4.261041261126       0.058056400564
       294    1   0.000000        8.236287626110      19.725229746762      23.928214511379
       295    1   0.000000       15.749983381778      19.725229746762       0.058056400564
       296    1   0.000000       15.749983381778       4.261041261126      23.928214511379
       297    1   0.000000        0.058056400564       8.236287626110       4.261041261126
       298    1   0.000000       23.928214511379       8.236287626110      19.725229746762
       299    1   0.000000        0.058056400564      15.749983381778      19.725229746762
       300    1   0.000000       23.928214511379      15.749983381778       4.261041261126
       301    1   0.000000        0.058056400564       4.261041261126       8.236287626110
       302    1   0.000000       23.928214511379      19.725229746762       8.236287626110
       303    1   0.000000        0.058056400564      19.725229746762      15.749983381778
       304    1   0.000000       23.928214511379       4.261041261126      15.749983381778
       305    1   0.000000        4.261041261126       8.236287626110       0.058056400564
       306    1   0.000000       19.725229746762       8.236287626110      23.928214511379
       307    1   0.000000       19.725229746762      15.749983381778       0.058056400564
       308    1   0.000000        4.261041261126      15.749983381778      23.928214511379
       309    1   0.000000        8.236287626110       0.058056400564       4.261041261126
       310    1   0.000000        8.236287626110      23.928214511379      19.725229746762
       311    1   0.000000       15.749983381778       0.058056400564      19.725229746762
       312    1   0.000000       15.749983381778      23.928214511379       4.261041261126
       313    1   0.000000       16.254175685688      12.051190921071      20.229422050672
       314    1   0.000000        7.732093883024      11.935078647641      20.229422050672
       315    1   0.000000        7.732093883024      12.051190921071       3.756847518040
       316    1   0.000000       16.254175685688      11.935078647641       3.756847518040
       317    1   0.000000       20.229422050672      16.254175685688      12.051190921071
       318    1   0.000000       20.229422050672       7.732093883024      11.935078647641
       319    1   0.000000        3.756847518040       7.732093883024      12.051190921071
       320    1   0.000000        3.756847518040      16.254175685688      11.935078647641
       321    1   0.000000       12.051190921071      20.229422050672      16.254175685688
       322    1   0.000000       11.935078647641      20.229422050672       7.732093883024
       323    1   0.000000       12.051190921071       3.756847518040       7.732093883024
       324    1   0.000000       11.935078647641       3.756847518040      16.254175685688
       325    1   0.000000       12.051190921071      16.254175685688      20.229422050672