 # C1
  
         224  atoms
           1  atom types
 
      0.000000000000      15.864800000000  xlo xhi
      0.000000000000      15.864800000000  ylo yhi
      0.000000000000      15.864800000000  zlo zhi
 
Masses
 
            1   12.01100000             # C
 
Atoms # charge
 
         1    1   0.000000       11.457241264000       0.441358736000      11.457241264000
         2    1   0.000000       10.448557280000      10.448557280000       4.226541368000
         3    1   0.000000       11.631278120000       1.957399024000      11.631278120000
         4    1   0.000000        8.373758736000       3.524841264000      11.457241264000
         5    1   0.000000        9.382442720000       9.382442720000       4.226541368000
         6    1   0.000000        8.199721880000       2.008800976000      11.631278120000
         7    1   0.000000       11.457241264000       3.524841264000       8.373758736000
         8    1   0.000000       10.448557280000       9.382442720000      15.604458632000
         9    1   0.000000       11.631278120000       2.008800976000       8.199721880000
        10    1   0.000000        8.373758736000       0.441358736000       8.373758736000
        11    1   0.000000        9.382442720000      10.448557280000      15.604458632000
        12    1   0.000000        8.199721880000       1.957399024000       8.199721880000
        13    1   0.000000       11.457241264000      11.457241264000       0.441358736000
        14    1   0.000000        4.226541368000      10.448557280000      10.448557280000
        15    1   0.000000       11.631278120000      11.631278120000       1.957399024000
        16    1   0.000000       11.457241264000       8.373758736000       3.524841264000
        17    1   0.000000        4.226541368000       9.382442720000       9.382442720000
        18    1   0.000000       11.631278120000       8.199721880000       2.008800976000
        19    1   0.000000        8.373758736000      11.457241264000       3.524841264000
        20    1   0.000000       15.604458632000      10.448557280000       9.382442720000
        21    1   0.000000        8.199721880000      11.631278120000       2.008800976000
        22    1   0.000000        8.373758736000       8.373758736000       0.441358736000
        23    1   0.000000       15.604458632000       9.382442720000      10.448557280000
        24    1   0.000000        8.199721880000       8.199721880000       1.957399024000
        25    1   0.000000        0.441358736000      11.457241264000      11.457241264000
        26    1   0.000000       10.448557280000       4.226541368000      10.448557280000
        27    1   0.000000        1.957399024000      11.631278120000      11.631278120000
        28    1   0.000000        3.524841264000      11.457241264000       8.373758736000
        29    1   0.000000        9.382442720000       4.226541368000       9.382442720000
        30    1   0.000000        2.008800976000      11.631278120000       8.199721880000
        31    1   0.000000        3.524841264000       8.373758736000      11.457241264000
        32    1   0.000000        9.382442720000      15.604458632000      10.448557280000
        33    1   0.000000        2.008800976000       8.199721880000      11.631278120000
        34    1   0.000000        0.441358736000       8.373758736000       8.373758736000
        35    1   0.000000       10.448557280000      15.604458632000       9.382442720000
        36    1   0.000000        1.957399024000       8.199721880000       8.199721880000
        37    1   0.000000       15.423441264000       4.407558736000       4.407558736000
        38    1   0.000000        5.416242720000       5.416242720000      11.638258632000
        39    1   0.000000       13.907400976000       4.233521880000       4.233521880000
        40    1   0.000000       12.339958736000       7.491041264000       4.407558736000
        41    1   0.000000        6.482357280000       6.482357280000      11.638258632000
        42    1   0.000000       13.855999024000       7.665078120000       4.233521880000
        43    1   0.000000       12.339958736000       4.407558736000       7.491041264000
        44    1   0.000000        6.482357280000       5.416242720000       0.260341368000
        45    1   0.000000       13.855999024000       4.233521880000       7.665078120000
        46    1   0.000000       15.423441264000       7.491041264000       7.491041264000
        47    1   0.000000        5.416242720000       6.482357280000       0.260341368000
        48    1   0.000000       13.907400976000       7.665078120000       7.665078120000
        49    1   0.000000        4.407558736000       4.407558736000      15.423441264000
        50    1   0.000000        5.416242720000      11.638258632000       5.416242720000
        51    1   0.000000        4.233521880000       4.233521880000      13.907400976000
        52    1   0.000000        7.491041264000       4.407558736000      12.339958736000
        53    1   0.000000        6.482357280000      11.638258632000       6.482357280000
        54    1   0.000000        7.665078120000       4.233521880000      13.855999024000
        55    1   0.000000        4.407558736000       7.491041264000      12.339958736000
        56    1   0.000000        5.416242720000       0.260341368000       6.482357280000
        57    1   0.000000        4.233521880000       7.665078120000      13.855999024000
        58    1   0.000000        7.491041264000       7.491041264000      15.423441264000
        59    1   0.000000        6.482357280000       0.260341368000       5.416242720000
        60    1   0.000000        7.665078120000       7.665078120000      13.907400976000
        61    1   0.000000        4.407558736000      15.423441264000       4.407558736000
        62    1   0.000000       11.638258632000       5.416242720000       5.416242720000
        63    1   0.000000        4.233521880000      13.907400976000       4.233521880000
        64    1   0.000000        4.407558736000      12.339958736000       7.491041264000
        65    1   0.000000       11.638258632000       6.482357280000       6.482357280000
        66    1   0.000000        4.233521880000      13.855999024000       7.665078120000
        67    1   0.000000        7.491041264000      12.339958736000       4.407558736000
        68    1   0.000000        0.260341368000       6.482357280000       5.416242720000
        69    1   0.000000        7.665078120000      13.855999024000       4.233521880000
        70    1   0.000000        7.491041264000      15.423441264000       7.491041264000
        71    1   0.000000        0.260341368000       5.416242720000       6.482357280000
        72    1   0.000000        7.665078120000      13.907400976000       7.665078120000
        73    1   0.000000       14.414757280000      14.414757280000      11.638258632000
        74    1   0.000000        5.923599024000      15.597478120000       4.233521880000
        75    1   0.000000       13.348642720000      13.348642720000      11.638258632000
        76    1   0.000000        5.975000976000      12.165921880000       4.233521880000
        77    1   0.000000       13.348642720000      14.414757280000       0.260341368000
        78    1   0.000000        5.975000976000      15.597478120000       7.665078120000
        79    1   0.000000       14.414757280000      13.348642720000       0.260341368000
        80    1   0.000000        5.923599024000      12.165921880000       7.665078120000
        81    1   0.000000       15.423441264000      15.423441264000      15.423441264000
        82    1   0.000000       14.414757280000       8.192741368000       5.416242720000
        83    1   0.000000       15.597478120000      15.597478120000      13.907400976000
        84    1   0.000000       12.339958736000      15.423441264000      12.339958736000
        85    1   0.000000       13.348642720000       8.192741368000       6.482357280000
        86    1   0.000000       12.165921880000      15.597478120000      13.855999024000
        87    1   0.000000       15.423441264000      12.339958736000      12.339958736000
        88    1   0.000000       14.414757280000       3.705858632000       6.482357280000
        89    1   0.000000       15.597478120000      12.165921880000      13.855999024000
        90    1   0.000000       12.339958736000      12.339958736000      15.423441264000
        91    1   0.000000       13.348642720000       3.705858632000       5.416242720000
        92    1   0.000000       12.165921880000      12.165921880000      13.907400976000
        93    1   0.000000        8.192741368000      14.414757280000       5.416242720000
        94    1   0.000000       15.597478120000       5.923599024000       4.233521880000
        95    1   0.000000        8.192741368000      13.348642720000       6.482357280000
        96    1   0.000000       15.597478120000       5.975000976000       7.665078120000
        97    1   0.000000        3.705858632000      13.348642720000       5.416242720000
        98    1   0.000000       12.165921880000       5.975000976000       4.233521880000
        99    1   0.000000        3.705858632000      14.414757280000       6.482357280000
       100    1   0.000000       12.165921880000       5.923599024000       7.665078120000
       101    1   0.000000       14.414757280000       5.416242720000       8.192741368000
       102    1   0.000000        5.923599024000       4.233521880000      15.597478120000
       103    1   0.000000       13.348642720000       6.482357280000       8.192741368000
       104    1   0.000000        5.975000976000       7.665078120000      15.597478120000
       105    1   0.000000       13.348642720000       5.416242720000       3.705858632000
       106    1   0.000000        5.975000976000       4.233521880000      12.165921880000
       107    1   0.000000       14.414757280000       6.482357280000       3.705858632000
       108    1   0.000000        5.923599024000       7.665078120000      12.165921880000
       109    1   0.000000       14.414757280000      11.638258632000      14.414757280000
       110    1   0.000000       15.597478120000       4.233521880000       5.923599024000
       111    1   0.000000       13.348642720000      11.638258632000      13.348642720000
       112    1   0.000000       12.165921880000       4.233521880000       5.975000976000
       113    1   0.000000       14.414757280000       0.260341368000      13.348642720000
       114    1   0.000000       15.597478120000       7.665078120000       5.975000976000
       115    1   0.000000       13.348642720000       0.260341368000      14.414757280000
       116    1   0.000000       12.165921880000       7.665078120000       5.923599024000
       117    1   0.000000        8.192741368000       5.416242720000      14.414757280000
       118    1   0.000000       15.597478120000      13.907400976000      15.597478120000
       119    1   0.000000        8.192741368000       6.482357280000      13.348642720000
       120    1   0.000000       15.597478120000      13.855999024000      12.165921880000
       121    1   0.000000        3.705858632000       6.482357280000      14.414757280000
       122    1   0.000000       12.165921880000      13.855999024000      15.597478120000
       123    1   0.000000        3.705858632000       5.416242720000      13.348642720000
       124    1   0.000000       12.165921880000      13.907400976000      12.165921880000
       125    1   0.000000        2.516157280000       1.450042720000      15.604458632000
       126    1   0.000000        3.698878120000       9.941200976000       8.199721880000
       127    1   0.000000        1.450042720000       2.516157280000      15.604458632000
       128    1   0.000000        0.267321880000       9.889799024000       8.199721880000
       129    1   0.000000        2.516157280000       2.516157280000       4.226541368000
       130    1   0.000000        3.698878120000       9.889799024000      11.631278120000
       131    1   0.000000        1.450042720000       1.450042720000       4.226541368000
       132    1   0.000000        0.267321880000       9.941200976000      11.631278120000
       133    1   0.000000        3.524841264000       0.441358736000       3.524841264000
       134    1   0.000000       12.158941368000       1.450042720000       9.382442720000
       135    1   0.000000        3.698878120000       0.267321880000       2.008800976000
       136    1   0.000000        3.524841264000       3.524841264000       0.441358736000
       137    1   0.000000       12.158941368000       2.516157280000      10.448557280000
       138    1   0.000000        3.698878120000       3.698878120000       1.957399024000
       139    1   0.000000        0.441358736000       0.441358736000       0.441358736000
       140    1   0.000000        7.672058632000       1.450042720000      10.448557280000
       141    1   0.000000        0.267321880000       0.267321880000       1.957399024000
       142    1   0.000000        0.441358736000       3.524841264000       3.524841264000
       143    1   0.000000        7.672058632000       2.516157280000       9.382442720000
       144    1   0.000000        0.267321880000       3.698878120000       2.008800976000
       145    1   0.000000        2.516157280000       7.672058632000       9.382442720000
       146    1   0.000000        9.889799024000       0.267321880000       8.199721880000
       147    1   0.000000        1.450042720000       7.672058632000      10.448557280000
       148    1   0.000000        9.941200976000       0.267321880000      11.631278120000
       149    1   0.000000        1.450042720000      12.158941368000       9.382442720000
       150    1   0.000000        9.941200976000       3.698878120000       8.199721880000
       151    1   0.000000        2.516157280000      12.158941368000      10.448557280000
       152    1   0.000000        9.889799024000       3.698878120000      11.631278120000
       153    1   0.000000        5.416242720000      14.414757280000       8.192741368000
       154    1   0.000000       13.907400976000      15.597478120000      15.597478120000
       155    1   0.000000        6.482357280000      13.348642720000       8.192741368000
       156    1   0.000000       13.855999024000      12.165921880000      15.597478120000
       157    1   0.000000        6.482357280000      14.414757280000       3.705858632000
       158    1   0.000000       13.855999024000      15.597478120000      12.165921880000
       159    1   0.000000        5.416242720000      13.348642720000       3.705858632000
       160    1   0.000000       13.907400976000      12.165921880000      12.165921880000
       161    1   0.000000        5.416242720000       8.192741368000      14.414757280000
       162    1   0.000000        4.233521880000      15.597478120000       5.923599024000
       163    1   0.000000        6.482357280000       8.192741368000      13.348642720000
       164    1   0.000000        7.665078120000      15.597478120000       5.975000976000
       165    1   0.000000        5.416242720000       3.705858632000      13.348642720000
       166    1   0.000000        4.233521880000      12.165921880000       5.975000976000
       167    1   0.000000        6.482357280000       3.705858632000      14.414757280000
       168    1   0.000000        7.665078120000      12.165921880000       5.923599024000
       169    1   0.000000       11.638258632000      14.414757280000      14.414757280000
       170    1   0.000000        4.233521880000       5.923599024000      15.597478120000
       171    1   0.000000       11.638258632000      13.348642720000      13.348642720000
       172    1   0.000000        4.233521880000       5.975000976000      12.165921880000
       173    1   0.000000        0.260341368000      13.348642720000      14.414757280000
       174    1   0.000000        7.665078120000       5.975000976000      15.597478120000
       175    1   0.000000        0.260341368000      14.414757280000      13.348642720000
       176    1   0.000000        7.665078120000       5.923599024000      12.165921880000
       177    1   0.000000       10.448557280000       2.516157280000      12.158941368000
       178    1   0.000000       11.631278120000       9.889799024000       3.698878120000
       179    1   0.000000        9.382442720000       1.450042720000      12.158941368000
       180    1   0.000000        8.199721880000       9.941200976000       3.698878120000
       181    1   0.000000       10.448557280000       1.450042720000       7.672058632000
       182    1   0.000000       11.631278120000       9.941200976000       0.267321880000
       183    1   0.000000        9.382442720000       2.516157280000       7.672058632000
       184    1   0.000000        8.199721880000       9.889799024000       0.267321880000
       185    1   0.000000        4.226541368000       2.516157280000       2.516157280000
       186    1   0.000000       11.631278120000       3.698878120000       9.889799024000
       187    1   0.000000        4.226541368000       1.450042720000       1.450042720000
       188    1   0.000000       11.631278120000       0.267321880000       9.941200976000
       189    1   0.000000       15.604458632000       2.516157280000       1.450042720000
       190    1   0.000000        8.199721880000       3.698878120000       9.941200976000
       191    1   0.000000       15.604458632000       1.450042720000       2.516157280000
       192    1   0.000000        8.199721880000       0.267321880000       9.889799024000
       193    1   0.000000       10.448557280000      12.158941368000       2.516157280000
       194    1   0.000000        1.957399024000       3.698878120000       3.698878120000
       195    1   0.000000        9.382442720000      12.158941368000       1.450042720000
       196    1   0.000000        2.008800976000       3.698878120000       0.267321880000
       197    1   0.000000        9.382442720000       7.672058632000       2.516157280000
       198    1   0.000000        2.008800976000       0.267321880000       3.698878120000
       199    1   0.000000       10.448557280000       7.672058632000       1.450042720000
       200    1   0.000000        1.957399024000       0.267321880000       0.267321880000
       201    1   0.000000        1.450042720000       4.226541368000       1.450042720000
       202    1   0.000000        9.941200976000      11.631278120000       0.267321880000
       203    1   0.000000        2.516157280000       4.226541368000       2.516157280000
       204    1   0.000000        9.889799024000      11.631278120000       3.698878120000
       205    1   0.000000        2.516157280000      15.604458632000       1.450042720000
       206    1   0.000000        9.889799024000       8.199721880000       0.267321880000
       207    1   0.000000        1.450042720000      15.604458632000       2.516157280000
       208    1   0.000000        9.941200976000       8.199721880000       3.698878120000
       209    1   0.000000        1.450042720000      10.448557280000       7.672058632000
       210    1   0.000000        0.267321880000       1.957399024000       0.267321880000
       211    1   0.000000        2.516157280000       9.382442720000       7.672058632000
       212    1   0.000000        3.698878120000       2.008800976000       0.267321880000
       213    1   0.000000        1.450042720000       9.382442720000      12.158941368000
       214    1   0.000000        0.267321880000       2.008800976000       3.698878120000
       215    1   0.000000        2.516157280000      10.448557280000      12.158941368000
       216    1   0.000000        3.698878120000       1.957399024000       3.698878120000
       217    1   0.000000        7.672058632000      10.448557280000       1.450042720000
       218    1   0.000000        0.267321880000      11.631278120000       9.941200976000
       219    1   0.000000        7.672058632000       9.382442720000       2.516157280000
       220    1   0.000000        0.267321880000       8.199721880000       9.889799024000
       221    1   0.000000       12.158941368000      10.448557280000       2.516157280000
       222    1   0.000000        3.698878120000      11.631278120000       9.889799024000
       223    1   0.000000       12.158941368000       9.382442720000       1.450042720000
       224    1   0.000000        3.698878120000       8.199721880000       9.941200976000
