 # C1
  
         112  atoms
           1  atom types
 
      0.000000000000      11.221700000000  xlo xhi
      0.000000000000       9.718277273648  ylo yhi
      0.000000000000      18.375100000000  zlo zhi
     -5.610850000000       0.000000000000       0.000000000000  xy xz yz
 
Masses
 
            1   12.01100000             # C
 
Atoms # charge
 
         1    1   0.000000        0.000000000000       5.101318106483       3.137548325000
         2    1   0.000000       -0.000056108500       6.478883910023       3.818713282000
         3    1   0.000000        0.000000000000       7.901348154567      17.556673046000
         4    1   0.000000       -0.000056108500       8.993974068443       0.255413890000
         5    1   0.000000        1.195559918000       8.591540206541       1.128966144000
         6    1   0.000000       -1.964302476500       7.613006867858       0.463787524000
         7    1   0.000000       -1.209979802500       7.177433680453      17.612165848000
         8    1   0.000000       -1.209530934500       4.909382130329       2.437824517000
         9    1   0.000000        5.610850000000       4.616959167165      12.325098325000
        10    1   0.000000        5.610906108500       3.239393363625      13.006263282000
        11    1   0.000000        5.610850000000       1.816929119081       8.369123046000
        12    1   0.000000        5.610906108500       0.724303205205       9.442963890000
        13    1   0.000000        4.415290082000       1.126737067107      10.316516144000
        14    1   0.000000        7.575152476500       2.105270405790       9.651337524000
        15    1   0.000000        6.820829802500       2.540843593195       8.424615848000
        16    1   0.000000        6.820380934500       4.808895143319      11.625374517000
        17    1   0.000000        1.192978927000       7.167618220406       3.137548325000
        18    1   0.000000       -1.231918226000       5.767603196365      17.556673046000
        19    1   0.000000       -2.178131970000       5.221241648040       0.255413890000
        20    1   0.000000       -2.427422035500       6.457892431112       1.128966144000
        21    1   0.000000       -0.000056108500       4.210637994353       0.463787524000
        22    1   0.000000        0.000000000000       5.081687186390      17.612165848000
        23    1   0.000000        1.963965825500       6.216101692543       2.437824517000
        24    1   0.000000        4.417871073000       2.550659053242      12.325098325000
        25    1   0.000000        6.842768226000       3.950674077283       8.369123046000
        26    1   0.000000        7.788981970000       4.497035625608       9.442963890000
        27    1   0.000000        8.038272035500       3.260384842536      10.316516144000
        28    1   0.000000        5.610906108500       5.507639279294       9.651337524000
        29    1   0.000000        5.610850000000       4.636590087257       8.424615848000
        30    1   0.000000        3.646884174500       3.502175581104      11.625374517000
        31    1   0.000000       -1.192978927000       7.167618220406       3.137548325000
        32    1   0.000000        1.231918226000       5.767603196365      17.556673046000
        33    1   0.000000        2.178188078500       5.221338830813       0.255413890000
        34    1   0.000000        1.231862117500       4.387121909643       1.128966144000
        35    1   0.000000        1.964358585000       7.612909685085       0.463787524000
        36    1   0.000000        1.209979802500       7.177433680453      17.612165848000
        37    1   0.000000       -0.754434891000       8.311070724424       2.437824517000
        38    1   0.000000        6.803828927000       2.550659053242      12.325098325000
        39    1   0.000000        4.378931774000       3.950674077283       8.369123046000
        40    1   0.000000        3.432661921500       4.496938442835       9.442963890000
        41    1   0.000000        4.378987882500       5.331155364005      10.316516144000
        42    1   0.000000        3.646491415000       2.105367588563       9.651337524000
        43    1   0.000000        4.400870197500       2.540843593195       8.424615848000
        44    1   0.000000        6.365284891000       1.407206549224      11.625374517000
        45    1   0.000000        5.610850000000       4.616959167165      15.237551675000
        46    1   0.000000        5.610793891500       3.239393363625      14.556386718000
        47    1   0.000000        5.610850000000       1.816929119081       0.818426954000
        48    1   0.000000        5.610793891500       0.724303205205      18.119686110000
        49    1   0.000000        6.806409918000       1.126737067107      17.246133856000
        50    1   0.000000        3.646547523500       2.105270405790      17.911312476000
        51    1   0.000000        4.400870197500       2.540843593195       0.762934152000
        52    1   0.000000        4.401319065500       4.808895143319      15.937275483000
        53    1   0.000000        0.000000000000       5.101318106483       6.050001675000
        54    1   0.000000        0.000056108500       6.478883910023       5.368836718000
        55    1   0.000000        0.000000000000       7.901348154567      10.005976954000
        56    1   0.000000        0.000056108500       8.993974068443       8.932136110000
        57    1   0.000000       -1.195559918000       8.591540206541       8.058583856000
        58    1   0.000000        1.964302476500       7.613006867858       8.723762476000
        59    1   0.000000        1.209979802500       7.177433680453       9.950484152000
        60    1   0.000000        1.209530934500       4.909382130329       6.749725483000
        61    1   0.000000        6.803828927000       2.550659053242      15.237551675000
        62    1   0.000000        4.378931774000       3.950674077283       0.818426954000
        63    1   0.000000        3.432718030000       4.497035625608      18.119686110000
        64    1   0.000000        3.183427964500       3.260384842536      17.246133856000
        65    1   0.000000        5.610793891500       5.507639279294      17.911312476000
        66    1   0.000000        5.610850000000       4.636590087257       0.762934152000
        67    1   0.000000        7.574815825500       3.502175581104      15.937275483000
        68    1   0.000000       -1.192978927000       7.167618220406       6.050001675000
        69    1   0.000000        1.231918226000       5.767603196365      10.005976954000
        70    1   0.000000        2.178131970000       5.221241648040       8.932136110000
        71    1   0.000000        2.427422035500       6.457892431112       8.058583856000
        72    1   0.000000        0.000056108500       4.210637994353       8.723762476000
        73    1   0.000000        0.000000000000       5.081687186390       9.950484152000
        74    1   0.000000       -1.963965825500       6.216101692543       6.749725483000
        75    1   0.000000        4.417871073000       2.550659053242      15.237551675000
        76    1   0.000000        6.842768226000       3.950674077283       0.818426954000
        77    1   0.000000        7.789038078500       4.496938442835      18.119686110000
        78    1   0.000000        6.842712117500       5.331155364005      17.246133856000
        79    1   0.000000        7.575208585000       2.105367588563      17.911312476000
        80    1   0.000000        6.820829802500       2.540843593195       0.762934152000
        81    1   0.000000        4.856415109000       1.407206549224      15.937275483000
        82    1   0.000000        1.192978927000       7.167618220406       6.050001675000
        83    1   0.000000       -1.231918226000       5.767603196365      10.005976954000
        84    1   0.000000       -2.178188078500       5.221338830813       8.932136110000
        85    1   0.000000       -1.231862117500       4.387121909643       8.058583856000
        86    1   0.000000       -1.964358585000       7.612909685085       8.723762476000
        87    1   0.000000       -1.209979802500       7.177433680453       9.950484152000
        88    1   0.000000        0.754434891000       8.311070724424       6.749725483000
        89    1   0.000000        4.415290082000       1.126737067107      17.246133856000
        90    1   0.000000        6.820380934500       4.808895143319      15.937275483000
        91    1   0.000000        1.195559918000       8.591540206541       8.058583856000
        92    1   0.000000       -1.209530934500       4.909382130329       6.749725483000
        93    1   0.000000        8.038272035500       3.260384842536      17.246133856000
        94    1   0.000000        3.646884174500       3.502175581104      15.937275483000
        95    1   0.000000       -2.427422035500       6.457892431112       8.058583856000
        96    1   0.000000        1.963965825500       6.216101692543       6.749725483000
        97    1   0.000000        4.378987882500       5.331155364005      17.246133856000
        98    1   0.000000        6.365284891000       1.407206549224      15.937275483000
        99    1   0.000000        1.231862117500       4.387121909643       8.058583856000
       100    1   0.000000       -0.754434891000       8.311070724424       6.749725483000
       101    1   0.000000       -1.195559918000       8.591540206541       1.128966144000
       102    1   0.000000        1.209530934500       4.909382130329       2.437824517000
       103    1   0.000000        6.806409918000       1.126737067107      10.316516144000
       104    1   0.000000        4.401319065500       4.808895143319      11.625374517000
       105    1   0.000000        2.427422035500       6.457892431112       1.128966144000
       106    1   0.000000       -1.963965825500       6.216101692543       2.437824517000
       107    1   0.000000        3.183427964500       3.260384842536      10.316516144000
       108    1   0.000000        7.574815825500       3.502175581104      11.625374517000
       109    1   0.000000       -1.231862117500       4.387121909643       1.128966144000
       110    1   0.000000        0.754434891000       8.311070724424       2.437824517000
       111    1   0.000000        6.842712117500       5.331155364005      10.316516144000
       112    1   0.000000        4.856415109000       1.407206549224      11.625374517000
