 # C1
  
         168  atoms
           1  atom types
 
      0.000000000000      14.408000000000  xlo xhi
      0.000000000000      14.408000000000  ylo yhi
      0.000000000000      14.408000000000  zlo zhi
 
Masses
 
            1   12.01100000             # C
 
Atoms # charge
 
         1    1   0.000000        2.369395600000      13.040968960000       8.428535920000
         2    1   0.000000        2.625425760000      13.718865360000       9.681599680000
         3    1   0.000000        2.550360080000      12.858995920000      10.869107040000
         4    1   0.000000        2.672539920000      13.690337520000       7.204000000000
         5    1   0.000000       12.038604400000       1.367031040000       8.428535920000
         6    1   0.000000       11.782574240000       0.689134640000       9.681599680000
         7    1   0.000000       11.857639920000       1.549004080000      10.869107040000
         8    1   0.000000       11.735460080000       0.717662480000       7.204000000000
         9    1   0.000000        2.369395600000       1.367031040000       5.979464080000
        10    1   0.000000        2.625425760000       0.689134640000       4.726400320000
        11    1   0.000000        2.550360080000       1.549004080000       3.538892960000
        12    1   0.000000        2.672539920000       0.717662480000       7.204000000000
        13    1   0.000000       12.038604400000      13.040968960000       5.979464080000
        14    1   0.000000       11.782574240000      13.718865360000       4.726400320000
        15    1   0.000000       11.857639920000      12.858995920000       3.538892960000
        16    1   0.000000       11.735460080000      13.690337520000       7.204000000000
        17    1   0.000000        8.428535920000       2.369395600000      13.040968960000
        18    1   0.000000        9.681599680000       2.625425760000      13.718865360000
        19    1   0.000000       10.869107040000       2.550360080000      12.858995920000
        20    1   0.000000        7.204000000000       2.672539920000      13.690337520000
        21    1   0.000000        8.428535920000      12.038604400000       1.367031040000
        22    1   0.000000        9.681599680000      11.782574240000       0.689134640000
        23    1   0.000000       10.869107040000      11.857639920000       1.549004080000
        24    1   0.000000        7.204000000000      11.735460080000       0.717662480000
        25    1   0.000000        5.979464080000       2.369395600000       1.367031040000
        26    1   0.000000        4.726400320000       2.625425760000       0.689134640000
        27    1   0.000000        3.538892960000       2.550360080000       1.549004080000
        28    1   0.000000        7.204000000000       2.672539920000       0.717662480000
        29    1   0.000000        5.979464080000      12.038604400000      13.040968960000
        30    1   0.000000        4.726400320000      11.782574240000      13.718865360000
        31    1   0.000000        3.538892960000      11.857639920000      12.858995920000
        32    1   0.000000        7.204000000000      11.735460080000      13.690337520000
        33    1   0.000000       13.040968960000       8.428535920000       2.369395600000
        34    1   0.000000       13.718865360000       9.681599680000       2.625425760000
        35    1   0.000000       12.858995920000      10.869107040000       2.550360080000
        36    1   0.000000       13.690337520000       7.204000000000       2.672539920000
        37    1   0.000000        1.367031040000       8.428535920000      12.038604400000
        38    1   0.000000        0.689134640000       9.681599680000      11.782574240000
        39    1   0.000000        1.549004080000      10.869107040000      11.857639920000
        40    1   0.000000        0.717662480000       7.204000000000      11.735460080000
        41    1   0.000000        1.367031040000       5.979464080000       2.369395600000
        42    1   0.000000        0.689134640000       4.726400320000       2.625425760000
        43    1   0.000000        1.549004080000       3.538892960000       2.550360080000
        44    1   0.000000        0.717662480000       7.204000000000       2.672539920000
        45    1   0.000000       13.040968960000       5.979464080000      12.038604400000
        46    1   0.000000       13.718865360000       4.726400320000      11.782574240000
        47    1   0.000000       12.858995920000       3.538892960000      11.857639920000
        48    1   0.000000       13.690337520000       7.204000000000      11.735460080000
        49    1   0.000000        1.367031040000      12.038604400000       5.979464080000
        50    1   0.000000        0.689134640000      11.782574240000       4.726400320000
        51    1   0.000000        1.549004080000      11.857639920000       3.538892960000
        52    1   0.000000        0.717662480000      11.735460080000       7.204000000000
        53    1   0.000000       13.040968960000       2.369395600000       5.979464080000
        54    1   0.000000       13.718865360000       2.625425760000       4.726400320000
        55    1   0.000000       12.858995920000       2.550360080000       3.538892960000
        56    1   0.000000       13.690337520000       2.672539920000       7.204000000000
        57    1   0.000000       13.040968960000      12.038604400000       8.428535920000
        58    1   0.000000       13.718865360000      11.782574240000       9.681599680000
        59    1   0.000000       12.858995920000      11.857639920000      10.869107040000
        60    1   0.000000       13.690337520000      11.735460080000       7.204000000000
        61    1   0.000000        1.367031040000       2.369395600000       8.428535920000
        62    1   0.000000        0.689134640000       2.625425760000       9.681599680000
        63    1   0.000000        1.549004080000       2.550360080000      10.869107040000
        64    1   0.000000        0.717662480000       2.672539920000       7.204000000000
        65    1   0.000000       12.038604400000       5.979464080000       1.367031040000
        66    1   0.000000       11.782574240000       4.726400320000       0.689134640000
        67    1   0.000000       11.857639920000       3.538892960000       1.549004080000
        68    1   0.000000       11.735460080000       7.204000000000       0.717662480000
        69    1   0.000000        2.369395600000       5.979464080000      13.040968960000
        70    1   0.000000        2.625425760000       4.726400320000      13.718865360000
        71    1   0.000000        2.550360080000       3.538892960000      12.858995920000
        72    1   0.000000        2.672539920000       7.204000000000      13.690337520000
        73    1   0.000000       12.038604400000       8.428535920000      13.040968960000
        74    1   0.000000       11.782574240000       9.681599680000      13.718865360000
        75    1   0.000000       11.857639920000      10.869107040000      12.858995920000
        76    1   0.000000       11.735460080000       7.204000000000      13.690337520000
        77    1   0.000000        2.369395600000       8.428535920000       1.367031040000
        78    1   0.000000        2.625425760000       9.681599680000       0.689134640000
        79    1   0.000000        2.550360080000      10.869107040000       1.549004080000
        80    1   0.000000        2.672539920000       7.204000000000       0.717662480000
        81    1   0.000000        5.979464080000       1.367031040000      12.038604400000
        82    1   0.000000        4.726400320000       0.689134640000      11.782574240000
        83    1   0.000000        3.538892960000       1.549004080000      11.857639920000
        84    1   0.000000        7.204000000000       0.717662480000      11.735460080000
        85    1   0.000000        5.979464080000      13.040968960000       2.369395600000
        86    1   0.000000        4.726400320000      13.718865360000       2.625425760000
        87    1   0.000000        3.538892960000      12.858995920000       2.550360080000
        88    1   0.000000        7.204000000000      13.690337520000       2.672539920000
        89    1   0.000000        8.428535920000      13.040968960000      12.038604400000
        90    1   0.000000        9.681599680000      13.718865360000      11.782574240000
        91    1   0.000000       10.869107040000      12.858995920000      11.857639920000
        92    1   0.000000        7.204000000000      13.690337520000      11.735460080000
        93    1   0.000000        8.428535920000       1.367031040000       2.369395600000
        94    1   0.000000        9.681599680000       0.689134640000       2.625425760000
        95    1   0.000000       10.869107040000       1.549004080000       2.550360080000
        96    1   0.000000        7.204000000000       0.717662480000       2.672539920000
        97    1   0.000000       12.038604400000       1.367031040000       5.979464080000
        98    1   0.000000       11.782574240000       0.689134640000       4.726400320000
        99    1   0.000000       11.857639920000       1.549004080000       3.538892960000
       100    1   0.000000        2.369395600000      13.040968960000       5.979464080000
       101    1   0.000000        2.625425760000      13.718865360000       4.726400320000
       102    1   0.000000        2.550360080000      12.858995920000       3.538892960000
       103    1   0.000000       12.038604400000      13.040968960000       8.428535920000
       104    1   0.000000       11.782574240000      13.718865360000       9.681599680000
       105    1   0.000000       11.857639920000      12.858995920000      10.869107040000
       106    1   0.000000        2.369395600000       1.367031040000       8.428535920000
       107    1   0.000000        2.625425760000       0.689134640000       9.681599680000
       108    1   0.000000        2.550360080000       1.549004080000      10.869107040000
       109    1   0.000000        5.979464080000      12.038604400000       1.367031040000
       110    1   0.000000        4.726400320000      11.782574240000       0.689134640000
       111    1   0.000000        3.538892960000      11.857639920000       1.549004080000
       112    1   0.000000        5.979464080000       2.369395600000      13.040968960000
       113    1   0.000000        4.726400320000       2.625425760000      13.718865360000
       114    1   0.000000        3.538892960000       2.550360080000      12.858995920000
       115    1   0.000000        8.428535920000      12.038604400000      13.040968960000
       116    1   0.000000        9.681599680000      11.782574240000      13.718865360000
       117    1   0.000000       10.869107040000      11.857639920000      12.858995920000
       118    1   0.000000        8.428535920000       2.369395600000       1.367031040000
       119    1   0.000000        9.681599680000       2.625425760000       0.689134640000
       120    1   0.000000       10.869107040000       2.550360080000       1.549004080000
       121    1   0.000000        1.367031040000       5.979464080000      12.038604400000
       122    1   0.000000        0.689134640000       4.726400320000      11.782574240000
       123    1   0.000000        1.549004080000       3.538892960000      11.857639920000
       124    1   0.000000       13.040968960000       5.979464080000       2.369395600000
       125    1   0.000000       13.718865360000       4.726400320000       2.625425760000
       126    1   0.000000       12.858995920000       3.538892960000       2.550360080000
       127    1   0.000000       13.040968960000       8.428535920000      12.038604400000
       128    1   0.000000       13.718865360000       9.681599680000      11.782574240000
       129    1   0.000000       12.858995920000      10.869107040000      11.857639920000
       130    1   0.000000        1.367031040000       8.428535920000       2.369395600000
       131    1   0.000000        0.689134640000       9.681599680000       2.625425760000
       132    1   0.000000        1.549004080000      10.869107040000       2.550360080000
       133    1   0.000000       13.040968960000       2.369395600000       8.428535920000
       134    1   0.000000       13.718865360000       2.625425760000       9.681599680000
       135    1   0.000000       12.858995920000       2.550360080000      10.869107040000
       136    1   0.000000        1.367031040000      12.038604400000       8.428535920000
       137    1   0.000000        0.689134640000      11.782574240000       9.681599680000
       138    1   0.000000        1.549004080000      11.857639920000      10.869107040000
       139    1   0.000000        1.367031040000       2.369395600000       5.979464080000
       140    1   0.000000        0.689134640000       2.625425760000       4.726400320000
       141    1   0.000000        1.549004080000       2.550360080000       3.538892960000
       142    1   0.000000       13.040968960000      12.038604400000       5.979464080000
       143    1   0.000000       13.718865360000      11.782574240000       4.726400320000
       144    1   0.000000       12.858995920000      11.857639920000       3.538892960000
       145    1   0.000000        2.369395600000       8.428535920000      13.040968960000
       146    1   0.000000        2.625425760000       9.681599680000      13.718865360000
       147    1   0.000000        2.550360080000      10.869107040000      12.858995920000
       148    1   0.000000       12.038604400000       8.428535920000       1.367031040000
       149    1   0.000000       11.782574240000       9.681599680000       0.689134640000
       150    1   0.000000       11.857639920000      10.869107040000       1.549004080000
       151    1   0.000000        2.369395600000       5.979464080000       1.367031040000
       152    1   0.000000        2.625425760000       4.726400320000       0.689134640000
       153    1   0.000000        2.550360080000       3.538892960000       1.549004080000
       154    1   0.000000       12.038604400000       5.979464080000      13.040968960000
       155    1   0.000000       11.782574240000       4.726400320000      13.718865360000
       156    1   0.000000       11.857639920000       3.538892960000      12.858995920000
       157    1   0.000000        8.428535920000      13.040968960000       2.369395600000
       158    1   0.000000        9.681599680000      13.718865360000       2.625425760000
       159    1   0.000000       10.869107040000      12.858995920000       2.550360080000
       160    1   0.000000        8.428535920000       1.367031040000      12.038604400000
       161    1   0.000000        9.681599680000       0.689134640000      11.782574240000
       162    1   0.000000       10.869107040000       1.549004080000      11.857639920000
       163    1   0.000000        5.979464080000       1.367031040000       2.369395600000
       164    1   0.000000        4.726400320000       0.689134640000       2.625425760000
       165    1   0.000000        3.538892960000       1.549004080000       2.550360080000
       166    1   0.000000        5.979464080000      13.040968960000      12.038604400000
       167    1   0.000000        4.726400320000      13.718865360000      11.782574240000
       168    1   0.000000        3.538892960000      12.858995920000      11.857639920000
