 # C1
  
         176  atoms
           1  atom types
 
      0.000000000000      14.561700000000  xlo xhi
      0.000000000000      14.561700000000  ylo yhi
      0.000000000000      14.561700000000  zlo zhi
 
Masses
 
            1   12.01100000             # C
 
Atoms # charge
 
         1    1   0.000000        3.174450600000      13.135527102000       9.656736972000
         2    1   0.000000        2.737745217000      13.862884017000       8.508983778000
         3    1   0.000000        3.322834323000      11.238865677000      11.238865677000
         4    1   0.000000        2.717067603000      11.844632397000      10.082084229000
         5    1   0.000000        4.091255232000      13.844245041000      10.470444768000
         6    1   0.000000        2.315455917000      13.210665474000       7.280850000000
         7    1   0.000000       11.387249400000       1.426172898000       9.656736972000
         8    1   0.000000       11.823954783000       0.698815983000       8.508983778000
         9    1   0.000000       11.238865677000       3.322834323000      11.238865677000
        10    1   0.000000       11.844632397000       2.717067603000      10.082084229000
        11    1   0.000000       10.470444768000       0.717454959000      10.470444768000
        12    1   0.000000       12.246244083000       1.351034526000       7.280850000000
        13    1   0.000000        3.174450600000       1.426172898000       4.904963028000
        14    1   0.000000        2.737745217000       0.698815983000       6.052716222000
        15    1   0.000000        3.322834323000       3.322834323000       3.322834323000
        16    1   0.000000        2.717067603000       2.717067603000       4.479615771000
        17    1   0.000000        4.091255232000       0.717454959000       4.091255232000
        18    1   0.000000        2.315455917000       1.351034526000       7.280850000000
        19    1   0.000000       11.387249400000      13.135527102000       4.904963028000
        20    1   0.000000       11.823954783000      13.862884017000       6.052716222000
        21    1   0.000000       11.238865677000      11.238865677000       3.322834323000
        22    1   0.000000       11.844632397000      11.844632397000       4.479615771000
        23    1   0.000000       10.470444768000      13.844245041000       4.091255232000
        24    1   0.000000       12.246244083000      13.210665474000       7.280850000000
        25    1   0.000000        9.656736972000       3.174450600000      13.135527102000
        26    1   0.000000        8.508983778000       2.737745217000      13.862884017000
        27    1   0.000000       10.082084229000       2.717067603000      11.844632397000
        28    1   0.000000       10.470444768000       4.091255232000      13.844245041000
        29    1   0.000000        7.280850000000       2.315455917000      13.210665474000
        30    1   0.000000        9.656736972000      11.387249400000       1.426172898000
        31    1   0.000000        8.508983778000      11.823954783000       0.698815983000
        32    1   0.000000       10.082084229000      11.844632397000       2.717067603000
        33    1   0.000000       10.470444768000      10.470444768000       0.717454959000
        34    1   0.000000        7.280850000000      12.246244083000       1.351034526000
        35    1   0.000000        4.904963028000       3.174450600000       1.426172898000
        36    1   0.000000        6.052716222000       2.737745217000       0.698815983000
        37    1   0.000000        4.479615771000       2.717067603000       2.717067603000
        38    1   0.000000        4.091255232000       4.091255232000       0.717454959000
        39    1   0.000000        7.280850000000       2.315455917000       1.351034526000
        40    1   0.000000        4.904963028000      11.387249400000      13.135527102000
        41    1   0.000000        6.052716222000      11.823954783000      13.862884017000
        42    1   0.000000        4.479615771000      11.844632397000      11.844632397000
        43    1   0.000000        4.091255232000      10.470444768000      13.844245041000
        44    1   0.000000        7.280850000000      12.246244083000      13.210665474000
        45    1   0.000000       13.135527102000       9.656736972000       3.174450600000
        46    1   0.000000       13.862884017000       8.508983778000       2.737745217000
        47    1   0.000000       11.844632397000      10.082084229000       2.717067603000
        48    1   0.000000       13.844245041000      10.470444768000       4.091255232000
        49    1   0.000000       13.210665474000       7.280850000000       2.315455917000
        50    1   0.000000        1.426172898000       9.656736972000      11.387249400000
        51    1   0.000000        0.698815983000       8.508983778000      11.823954783000
        52    1   0.000000        2.717067603000      10.082084229000      11.844632397000
        53    1   0.000000        0.717454959000      10.470444768000      10.470444768000
        54    1   0.000000        1.351034526000       7.280850000000      12.246244083000
        55    1   0.000000        1.426172898000       4.904963028000       3.174450600000
        56    1   0.000000        0.698815983000       6.052716222000       2.737745217000
        57    1   0.000000        2.717067603000       4.479615771000       2.717067603000
        58    1   0.000000        0.717454959000       4.091255232000       4.091255232000
        59    1   0.000000        1.351034526000       7.280850000000       2.315455917000
        60    1   0.000000       13.135527102000       4.904963028000      11.387249400000
        61    1   0.000000       13.862884017000       6.052716222000      11.823954783000
        62    1   0.000000       11.844632397000       4.479615771000      11.844632397000
        63    1   0.000000       13.844245041000       4.091255232000      10.470444768000
        64    1   0.000000       13.210665474000       7.280850000000      12.246244083000
        65    1   0.000000        1.426172898000      11.387249400000       4.904963028000
        66    1   0.000000        0.698815983000      11.823954783000       6.052716222000
        67    1   0.000000        3.322834323000      11.238865677000       3.322834323000
        68    1   0.000000        2.717067603000      11.844632397000       4.479615771000
        69    1   0.000000        0.717454959000      10.470444768000       4.091255232000
        70    1   0.000000        1.351034526000      12.246244083000       7.280850000000
        71    1   0.000000       13.135527102000       3.174450600000       4.904963028000
        72    1   0.000000       13.862884017000       2.737745217000       6.052716222000
        73    1   0.000000       11.238865677000       3.322834323000       3.322834323000
        74    1   0.000000       11.844632397000       2.717067603000       4.479615771000
        75    1   0.000000       13.844245041000       4.091255232000       4.091255232000
        76    1   0.000000       13.210665474000       2.315455917000       7.280850000000
        77    1   0.000000       13.135527102000      11.387249400000       9.656736972000
        78    1   0.000000       13.862884017000      11.823954783000       8.508983778000
        79    1   0.000000       11.238865677000      11.238865677000      11.238865677000
        80    1   0.000000       11.844632397000      11.844632397000      10.082084229000
        81    1   0.000000       13.844245041000      10.470444768000      10.470444768000
        82    1   0.000000       13.210665474000      12.246244083000       7.280850000000
        83    1   0.000000        1.426172898000       3.174450600000       9.656736972000
        84    1   0.000000        0.698815983000       2.737745217000       8.508983778000
        85    1   0.000000        3.322834323000       3.322834323000      11.238865677000
        86    1   0.000000        2.717067603000       2.717067603000      10.082084229000
        87    1   0.000000        0.717454959000       4.091255232000      10.470444768000
        88    1   0.000000        1.351034526000       2.315455917000       7.280850000000
        89    1   0.000000       11.387249400000       4.904963028000       1.426172898000
        90    1   0.000000       11.823954783000       6.052716222000       0.698815983000
        91    1   0.000000       11.844632397000       4.479615771000       2.717067603000
        92    1   0.000000       10.470444768000       4.091255232000       0.717454959000
        93    1   0.000000       12.246244083000       7.280850000000       1.351034526000
        94    1   0.000000        3.174450600000       4.904963028000      13.135527102000
        95    1   0.000000        2.737745217000       6.052716222000      13.862884017000
        96    1   0.000000        2.717067603000       4.479615771000      11.844632397000
        97    1   0.000000        4.091255232000       4.091255232000      13.844245041000
        98    1   0.000000        2.315455917000       7.280850000000      13.210665474000
        99    1   0.000000       11.387249400000       9.656736972000      13.135527102000
       100    1   0.000000       11.823954783000       8.508983778000      13.862884017000
       101    1   0.000000       11.844632397000      10.082084229000      11.844632397000
       102    1   0.000000       10.470444768000      10.470444768000      13.844245041000
       103    1   0.000000       12.246244083000       7.280850000000      13.210665474000
       104    1   0.000000        3.174450600000       9.656736972000       1.426172898000
       105    1   0.000000        2.737745217000       8.508983778000       0.698815983000
       106    1   0.000000        2.717067603000      10.082084229000       2.717067603000
       107    1   0.000000        4.091255232000      10.470444768000       0.717454959000
       108    1   0.000000        2.315455917000       7.280850000000       1.351034526000
       109    1   0.000000        4.904963028000       1.426172898000      11.387249400000
       110    1   0.000000        6.052716222000       0.698815983000      11.823954783000
       111    1   0.000000        4.479615771000       2.717067603000      11.844632397000
       112    1   0.000000        4.091255232000       0.717454959000      10.470444768000
       113    1   0.000000        7.280850000000       1.351034526000      12.246244083000
       114    1   0.000000        4.904963028000      13.135527102000       3.174450600000
       115    1   0.000000        6.052716222000      13.862884017000       2.737745217000
       116    1   0.000000        4.479615771000      11.844632397000       2.717067603000
       117    1   0.000000        4.091255232000      13.844245041000       4.091255232000
       118    1   0.000000        7.280850000000      13.210665474000       2.315455917000
       119    1   0.000000        9.656736972000      13.135527102000      11.387249400000
       120    1   0.000000        8.508983778000      13.862884017000      11.823954783000
       121    1   0.000000       10.082084229000      11.844632397000      11.844632397000
       122    1   0.000000       10.470444768000      13.844245041000      10.470444768000
       123    1   0.000000        7.280850000000      13.210665474000      12.246244083000
       124    1   0.000000        9.656736972000       1.426172898000       3.174450600000
       125    1   0.000000        8.508983778000       0.698815983000       2.737745217000
       126    1   0.000000       10.082084229000       2.717067603000       2.717067603000
       127    1   0.000000       10.470444768000       0.717454959000       4.091255232000
       128    1   0.000000        7.280850000000       1.351034526000       2.315455917000
       129    1   0.000000       11.387249400000       1.426172898000       4.904963028000
       130    1   0.000000       11.823954783000       0.698815983000       6.052716222000
       131    1   0.000000        3.174450600000      13.135527102000       4.904963028000
       132    1   0.000000        2.737745217000      13.862884017000       6.052716222000
       133    1   0.000000       11.387249400000      13.135527102000       9.656736972000
       134    1   0.000000       11.823954783000      13.862884017000       8.508983778000
       135    1   0.000000        3.174450600000       1.426172898000       9.656736972000
       136    1   0.000000        2.737745217000       0.698815983000       8.508983778000
       137    1   0.000000        4.904963028000      11.387249400000       1.426172898000
       138    1   0.000000        6.052716222000      11.823954783000       0.698815983000
       139    1   0.000000        4.904963028000       3.174450600000      13.135527102000
       140    1   0.000000        6.052716222000       2.737745217000      13.862884017000
       141    1   0.000000        9.656736972000      11.387249400000      13.135527102000
       142    1   0.000000        8.508983778000      11.823954783000      13.862884017000
       143    1   0.000000        9.656736972000       3.174450600000       1.426172898000
       144    1   0.000000        8.508983778000       2.737745217000       0.698815983000
       145    1   0.000000        1.426172898000       4.904963028000      11.387249400000
       146    1   0.000000        0.698815983000       6.052716222000      11.823954783000
       147    1   0.000000       13.135527102000       4.904963028000       3.174450600000
       148    1   0.000000       13.862884017000       6.052716222000       2.737745217000
       149    1   0.000000       13.135527102000       9.656736972000      11.387249400000
       150    1   0.000000       13.862884017000       8.508983778000      11.823954783000
       151    1   0.000000        1.426172898000       9.656736972000       3.174450600000
       152    1   0.000000        0.698815983000       8.508983778000       2.737745217000
       153    1   0.000000       13.135527102000       3.174450600000       9.656736972000
       154    1   0.000000       13.862884017000       2.737745217000       8.508983778000
       155    1   0.000000        1.426172898000      11.387249400000       9.656736972000
       156    1   0.000000        0.698815983000      11.823954783000       8.508983778000
       157    1   0.000000        1.426172898000       3.174450600000       4.904963028000
       158    1   0.000000        0.698815983000       2.737745217000       6.052716222000
       159    1   0.000000       13.135527102000      11.387249400000       4.904963028000
       160    1   0.000000       13.862884017000      11.823954783000       6.052716222000
       161    1   0.000000        3.174450600000       9.656736972000      13.135527102000
       162    1   0.000000        2.737745217000       8.508983778000      13.862884017000
       163    1   0.000000       11.387249400000       9.656736972000       1.426172898000
       164    1   0.000000       11.823954783000       8.508983778000       0.698815983000
       165    1   0.000000        3.174450600000       4.904963028000       1.426172898000
       166    1   0.000000        2.737745217000       6.052716222000       0.698815983000
       167    1   0.000000       11.387249400000       4.904963028000      13.135527102000
       168    1   0.000000       11.823954783000       6.052716222000      13.862884017000
       169    1   0.000000        9.656736972000      13.135527102000       3.174450600000
       170    1   0.000000        8.508983778000      13.862884017000       2.737745217000
       171    1   0.000000        9.656736972000       1.426172898000      11.387249400000
       172    1   0.000000        8.508983778000       0.698815983000      11.823954783000
       173    1   0.000000        4.904963028000       1.426172898000       3.174450600000
       174    1   0.000000        6.052716222000       0.698815983000       2.737745217000
       175    1   0.000000        4.904963028000      13.135527102000      11.387249400000
       176    1   0.000000        6.052716222000      13.862884017000      11.823954783000
