 # C1
  
         192  atoms
           1  atom types
 
      0.000000000000      14.885600000000  xlo xhi
      0.000000000000      14.885600000000  ylo yhi
      0.000000000000      14.885600000000  zlo zhi
 
Masses
 
            1   12.01100000             # C
 
Atoms # charge
 
         1    1   0.000000       10.582321896000      10.582321896000      12.308456072000
         2    1   0.000000       10.064154160000      10.064154160000      13.538602056000
         3    1   0.000000        8.989264984000      10.737578704000      14.180617984000
         4    1   0.000000        4.303278104000       4.303278104000      12.308456072000
         5    1   0.000000        4.821445840000       4.821445840000      13.538602056000
         6    1   0.000000        5.896335016000       4.148021296000      14.180617984000
         7    1   0.000000       10.582321896000       4.303278104000       2.577143928000
         8    1   0.000000       10.064154160000       4.821445840000       1.346997944000
         9    1   0.000000        8.989264984000       4.148021296000       0.704982016000
        10    1   0.000000        4.303278104000      10.582321896000       2.577143928000
        11    1   0.000000        4.821445840000      10.064154160000       1.346997944000
        12    1   0.000000        5.896335016000      10.737578704000       0.704982016000
        13    1   0.000000       12.308456072000      10.582321896000      10.582321896000
        14    1   0.000000       13.538602056000      10.064154160000      10.064154160000
        15    1   0.000000       14.180617984000       8.989264984000      10.737578704000
        16    1   0.000000       12.308456072000       4.303278104000       4.303278104000
        17    1   0.000000       13.538602056000       4.821445840000       4.821445840000
        18    1   0.000000       14.180617984000       5.896335016000       4.148021296000
        19    1   0.000000        2.577143928000      10.582321896000       4.303278104000
        20    1   0.000000        1.346997944000      10.064154160000       4.821445840000
        21    1   0.000000        0.704982016000       8.989264984000       4.148021296000
        22    1   0.000000        2.577143928000       4.303278104000      10.582321896000
        23    1   0.000000        1.346997944000       4.821445840000      10.064154160000
        24    1   0.000000        0.704982016000       5.896335016000      10.737578704000
        25    1   0.000000       10.582321896000      12.308456072000      10.582321896000
        26    1   0.000000       10.064154160000      13.538602056000      10.064154160000
        27    1   0.000000       10.737578704000      14.180617984000       8.989264984000
        28    1   0.000000        4.303278104000      12.308456072000       4.303278104000
        29    1   0.000000        4.821445840000      13.538602056000       4.821445840000
        30    1   0.000000        4.148021296000      14.180617984000       5.896335016000
        31    1   0.000000        4.303278104000       2.577143928000      10.582321896000
        32    1   0.000000        4.821445840000       1.346997944000      10.064154160000
        33    1   0.000000        4.148021296000       0.704982016000       8.989264984000
        34    1   0.000000       10.582321896000       2.577143928000       4.303278104000
        35    1   0.000000       10.064154160000       1.346997944000       4.821445840000
        36    1   0.000000       10.737578704000       0.704982016000       5.896335016000
        37    1   0.000000        4.303278104000       4.303278104000       2.577143928000
        38    1   0.000000        4.821445840000       4.821445840000       1.346997944000
        39    1   0.000000        4.148021296000       5.896335016000       0.704982016000
        40    1   0.000000       10.582321896000      10.582321896000       2.577143928000
        41    1   0.000000       10.064154160000      10.064154160000       1.346997944000
        42    1   0.000000       10.737578704000       8.989264984000       0.704982016000
        43    1   0.000000       10.582321896000       4.303278104000      12.308456072000
        44    1   0.000000       10.064154160000       4.821445840000      13.538602056000
        45    1   0.000000       10.737578704000       5.896335016000      14.180617984000
        46    1   0.000000        4.303278104000      10.582321896000      12.308456072000
        47    1   0.000000        4.821445840000      10.064154160000      13.538602056000
        48    1   0.000000        4.148021296000       8.989264984000      14.180617984000
        49    1   0.000000        4.303278104000       2.577143928000       4.303278104000
        50    1   0.000000        4.821445840000       1.346997944000       4.821445840000
        51    1   0.000000        5.896335016000       0.704982016000       4.148021296000
        52    1   0.000000       10.582321896000       2.577143928000      10.582321896000
        53    1   0.000000       10.064154160000       1.346997944000      10.064154160000
        54    1   0.000000        8.989264984000       0.704982016000      10.737578704000
        55    1   0.000000        4.303278104000      12.308456072000      10.582321896000
        56    1   0.000000        4.821445840000      13.538602056000      10.064154160000
        57    1   0.000000        5.896335016000      14.180617984000      10.737578704000
        58    1   0.000000       10.582321896000      12.308456072000       4.303278104000
        59    1   0.000000       10.064154160000      13.538602056000       4.821445840000
        60    1   0.000000        8.989264984000      14.180617984000       4.148021296000
        61    1   0.000000        2.577143928000       4.303278104000       4.303278104000
        62    1   0.000000        1.346997944000       4.821445840000       4.821445840000
        63    1   0.000000        0.704982016000       4.148021296000       5.896335016000
        64    1   0.000000        2.577143928000      10.582321896000      10.582321896000
        65    1   0.000000        1.346997944000      10.064154160000      10.064154160000
        66    1   0.000000        0.704982016000      10.737578704000       8.989264984000
        67    1   0.000000       12.308456072000      10.582321896000       4.303278104000
        68    1   0.000000       13.538602056000      10.064154160000       4.821445840000
        69    1   0.000000       14.180617984000      10.737578704000       5.896335016000
        70    1   0.000000       12.308456072000       4.303278104000      10.582321896000
        71    1   0.000000       13.538602056000       4.821445840000      10.064154160000
        72    1   0.000000       14.180617984000       4.148021296000       8.989264984000
        73    1   0.000000        5.896335016000       4.148021296000       0.704982016000
        74    1   0.000000        8.989264984000      10.737578704000       0.704982016000
        75    1   0.000000        5.896335016000      10.737578704000      14.180617984000
        76    1   0.000000        8.989264984000       4.148021296000      14.180617984000
        77    1   0.000000        0.704982016000       5.896335016000       4.148021296000
        78    1   0.000000        0.704982016000       8.989264984000      10.737578704000
        79    1   0.000000       14.180617984000       5.896335016000      10.737578704000
        80    1   0.000000       14.180617984000       8.989264984000       4.148021296000
        81    1   0.000000        4.148021296000       0.704982016000       5.896335016000
        82    1   0.000000       10.737578704000       0.704982016000       8.989264984000
        83    1   0.000000       10.737578704000      14.180617984000       5.896335016000
        84    1   0.000000        4.148021296000      14.180617984000       8.989264984000
        85    1   0.000000       10.737578704000       8.989264984000      14.180617984000
        86    1   0.000000        4.148021296000       5.896335016000      14.180617984000
        87    1   0.000000        4.148021296000       8.989264984000       0.704982016000
        88    1   0.000000       10.737578704000       5.896335016000       0.704982016000
        89    1   0.000000        8.989264984000      14.180617984000      10.737578704000
        90    1   0.000000        5.896335016000      14.180617984000       4.148021296000
        91    1   0.000000        8.989264984000       0.704982016000       4.148021296000
        92    1   0.000000        5.896335016000       0.704982016000      10.737578704000
        93    1   0.000000       14.180617984000      10.737578704000       8.989264984000
        94    1   0.000000       14.180617984000       4.148021296000       5.896335016000
        95    1   0.000000        0.704982016000       4.148021296000       8.989264984000
        96    1   0.000000        0.704982016000      10.737578704000       5.896335016000
        97    1   0.000000        3.139521896000       3.139521896000       4.865656072000
        98    1   0.000000        2.621354160000       2.621354160000       6.095802056000
        99    1   0.000000        1.546464984000       3.294778704000       6.737817984000
       100    1   0.000000       11.746078104000      11.746078104000       4.865656072000
       101    1   0.000000       12.264245840000      12.264245840000       6.095802056000
       102    1   0.000000       13.339135016000      11.590821296000       6.737817984000
       103    1   0.000000        3.139521896000      11.746078104000      10.019943928000
       104    1   0.000000        2.621354160000      12.264245840000       8.789797944000
       105    1   0.000000        1.546464984000      11.590821296000       8.147782016000
       106    1   0.000000       11.746078104000       3.139521896000      10.019943928000
       107    1   0.000000       12.264245840000       2.621354160000       8.789797944000
       108    1   0.000000       13.339135016000       3.294778704000       8.147782016000
       109    1   0.000000        4.865656072000       3.139521896000       3.139521896000
       110    1   0.000000        6.095802056000       2.621354160000       2.621354160000
       111    1   0.000000        6.737817984000       1.546464984000       3.294778704000
       112    1   0.000000        4.865656072000      11.746078104000      11.746078104000
       113    1   0.000000        6.095802056000      12.264245840000      12.264245840000
       114    1   0.000000        6.737817984000      13.339135016000      11.590821296000
       115    1   0.000000       10.019943928000       3.139521896000      11.746078104000
       116    1   0.000000        8.789797944000       2.621354160000      12.264245840000
       117    1   0.000000        8.147782016000       1.546464984000      11.590821296000
       118    1   0.000000       10.019943928000      11.746078104000       3.139521896000
       119    1   0.000000        8.789797944000      12.264245840000       2.621354160000
       120    1   0.000000        8.147782016000      13.339135016000       3.294778704000
       121    1   0.000000        3.139521896000       4.865656072000       3.139521896000
       122    1   0.000000        2.621354160000       6.095802056000       2.621354160000
       123    1   0.000000        3.294778704000       6.737817984000       1.546464984000
       124    1   0.000000       11.746078104000       4.865656072000      11.746078104000
       125    1   0.000000       12.264245840000       6.095802056000      12.264245840000
       126    1   0.000000       11.590821296000       6.737817984000      13.339135016000
       127    1   0.000000       11.746078104000      10.019943928000       3.139521896000
       128    1   0.000000       12.264245840000       8.789797944000       2.621354160000
       129    1   0.000000       11.590821296000       8.147782016000       1.546464984000
       130    1   0.000000        3.139521896000      10.019943928000      11.746078104000
       131    1   0.000000        2.621354160000       8.789797944000      12.264245840000
       132    1   0.000000        3.294778704000       8.147782016000      13.339135016000
       133    1   0.000000       11.746078104000      11.746078104000      10.019943928000
       134    1   0.000000       12.264245840000      12.264245840000       8.789797944000
       135    1   0.000000       11.590821296000      13.339135016000       8.147782016000
       136    1   0.000000        3.139521896000       3.139521896000      10.019943928000
       137    1   0.000000        2.621354160000       2.621354160000       8.789797944000
       138    1   0.000000        3.294778704000       1.546464984000       8.147782016000
       139    1   0.000000        3.139521896000      11.746078104000       4.865656072000
       140    1   0.000000        2.621354160000      12.264245840000       6.095802056000
       141    1   0.000000        3.294778704000      13.339135016000       6.737817984000
       142    1   0.000000       11.746078104000       3.139521896000       4.865656072000
       143    1   0.000000       12.264245840000       2.621354160000       6.095802056000
       144    1   0.000000       11.590821296000       1.546464984000       6.737817984000
       145    1   0.000000       11.746078104000      10.019943928000      11.746078104000
       146    1   0.000000       12.264245840000       8.789797944000      12.264245840000
       147    1   0.000000       13.339135016000       8.147782016000      11.590821296000
       148    1   0.000000        3.139521896000      10.019943928000       3.139521896000
       149    1   0.000000        2.621354160000       8.789797944000       2.621354160000
       150    1   0.000000        1.546464984000       8.147782016000       3.294778704000
       151    1   0.000000       11.746078104000       4.865656072000       3.139521896000
       152    1   0.000000       12.264245840000       6.095802056000       2.621354160000
       153    1   0.000000       13.339135016000       6.737817984000       3.294778704000
       154    1   0.000000        3.139521896000       4.865656072000      11.746078104000
       155    1   0.000000        2.621354160000       6.095802056000      12.264245840000
       156    1   0.000000        1.546464984000       6.737817984000      11.590821296000
       157    1   0.000000       10.019943928000      11.746078104000      11.746078104000
       158    1   0.000000        8.789797944000      12.264245840000      12.264245840000
       159    1   0.000000        8.147782016000      11.590821296000      13.339135016000
       160    1   0.000000       10.019943928000       3.139521896000       3.139521896000
       161    1   0.000000        8.789797944000       2.621354160000       2.621354160000
       162    1   0.000000        8.147782016000       3.294778704000       1.546464984000
       163    1   0.000000        4.865656072000       3.139521896000      11.746078104000
       164    1   0.000000        6.095802056000       2.621354160000      12.264245840000
       165    1   0.000000        6.737817984000       3.294778704000      13.339135016000
       166    1   0.000000        4.865656072000      11.746078104000       3.139521896000
       167    1   0.000000        6.095802056000      12.264245840000       2.621354160000
       168    1   0.000000        6.737817984000      11.590821296000       1.546464984000
       169    1   0.000000       13.339135016000      11.590821296000       8.147782016000
       170    1   0.000000        1.546464984000       3.294778704000       8.147782016000
       171    1   0.000000       13.339135016000       3.294778704000       6.737817984000
       172    1   0.000000        1.546464984000      11.590821296000       6.737817984000
       173    1   0.000000        8.147782016000      13.339135016000      11.590821296000
       174    1   0.000000        8.147782016000       1.546464984000       3.294778704000
       175    1   0.000000        6.737817984000      13.339135016000       3.294778704000
       176    1   0.000000        6.737817984000       1.546464984000      11.590821296000
       177    1   0.000000       11.590821296000       8.147782016000      13.339135016000
       178    1   0.000000        3.294778704000       8.147782016000       1.546464984000
       179    1   0.000000        3.294778704000       6.737817984000      13.339135016000
       180    1   0.000000       11.590821296000       6.737817984000       1.546464984000
       181    1   0.000000        3.294778704000       1.546464984000       6.737817984000
       182    1   0.000000       11.590821296000      13.339135016000       6.737817984000
       183    1   0.000000       11.590821296000       1.546464984000       8.147782016000
       184    1   0.000000        3.294778704000      13.339135016000       8.147782016000
       185    1   0.000000        1.546464984000       6.737817984000       3.294778704000
       186    1   0.000000       13.339135016000       6.737817984000      11.590821296000
       187    1   0.000000        1.546464984000       8.147782016000      11.590821296000
       188    1   0.000000       13.339135016000       8.147782016000       3.294778704000
       189    1   0.000000        6.737817984000       3.294778704000       1.546464984000
       190    1   0.000000        6.737817984000      11.590821296000      13.339135016000
       191    1   0.000000        8.147782016000      11.590821296000       1.546464984000
       192    1   0.000000        8.147782016000       3.294778704000      13.339135016000
