 # C1
  
         512  atoms
           1  atom types
 
      0.000000000000      20.455100000000  xlo xhi
      0.000000000000      20.455100000000  ylo yhi
      0.000000000000      20.455100000000  zlo zhi
 
Masses
 
            1   12.01100000             # C
 
Atoms # charge
 
         1    1   0.000000       19.665737691000      19.665737691000      16.130687309000
         2    1   0.000000       19.019970184000       0.310508418000      16.776454816000
         3    1   0.000000        0.569265433000      17.650501239000      14.772059567000
         4    1   0.000000       19.651623672000       0.902274461000      17.903939928000
         5    1   0.000000       16.754363308000       1.546814662000      16.754363308000
         6    1   0.000000        5.903137309000       5.903137309000      16.130687309000
         7    1   0.000000        6.548904816000       4.803266582000      16.776454816000
         8    1   0.000000        4.544509567000       7.918373761000      14.772059567000
         9    1   0.000000        5.917251328000       4.211500539000      17.903939928000
        10    1   0.000000        8.814511692000       3.566960338000      16.754363308000
        11    1   0.000000       19.665737691000       5.903137309000       9.438187691000
        12    1   0.000000       19.019970184000       4.803266582000       8.792420184000
        13    1   0.000000        0.569265433000       7.918373761000      10.796815433000
        14    1   0.000000       19.651623672000       4.211500539000       7.664935072000
        15    1   0.000000       16.754363308000       3.566960338000       8.814511692000
        16    1   0.000000        5.903137309000      19.665737691000       9.438187691000
        17    1   0.000000        6.548904816000       0.310508418000       8.792420184000
        18    1   0.000000        4.544509567000      17.650501239000      10.796815433000
        19    1   0.000000        5.917251328000       0.902274461000       7.664935072000
        20    1   0.000000        8.814511692000       1.546814662000       8.814511692000
        21    1   0.000000       16.130687309000      19.665737691000      19.665737691000
        22    1   0.000000       16.776454816000      19.019970184000       0.310508418000
        23    1   0.000000       14.772059567000       0.569265433000      17.650501239000
        24    1   0.000000       17.903939928000      19.651623672000       0.902274461000
        25    1   0.000000       16.754363308000      16.754363308000       1.546814662000
        26    1   0.000000       16.130687309000       5.903137309000       5.903137309000
        27    1   0.000000       16.776454816000       6.548904816000       4.803266582000
        28    1   0.000000       14.772059567000       4.544509567000       7.918373761000
        29    1   0.000000       17.903939928000       5.917251328000       4.211500539000
        30    1   0.000000       16.754363308000       8.814511692000       3.566960338000
        31    1   0.000000        9.438187691000      19.665737691000       5.903137309000
        32    1   0.000000        8.792420184000      19.019970184000       4.803266582000
        33    1   0.000000       10.796815433000       0.569265433000       7.918373761000
        34    1   0.000000        7.664935072000      19.651623672000       4.211500539000
        35    1   0.000000        8.814511692000      16.754363308000       3.566960338000
        36    1   0.000000        9.438187691000       5.903137309000      19.665737691000
        37    1   0.000000        8.792420184000       6.548904816000       0.310508418000
        38    1   0.000000       10.796815433000       4.544509567000      17.650501239000
        39    1   0.000000        7.664935072000       5.917251328000       0.902274461000
        40    1   0.000000        8.814511692000       8.814511692000       1.546814662000
        41    1   0.000000       19.665737691000      16.130687309000      19.665737691000
        42    1   0.000000        0.310508418000      16.776454816000      19.019970184000
        43    1   0.000000       17.650501239000      14.772059567000       0.569265433000
        44    1   0.000000        0.902274461000      17.903939928000      19.651623672000
        45    1   0.000000        1.546814662000      16.754363308000      16.754363308000
        46    1   0.000000        5.903137309000      16.130687309000       5.903137309000
        47    1   0.000000        4.803266582000      16.776454816000       6.548904816000
        48    1   0.000000        7.918373761000      14.772059567000       4.544509567000
        49    1   0.000000        4.211500539000      17.903939928000       5.917251328000
        50    1   0.000000        3.566960338000      16.754363308000       8.814511692000
        51    1   0.000000        5.903137309000       9.438187691000      19.665737691000
        52    1   0.000000        4.803266582000       8.792420184000      19.019970184000
        53    1   0.000000        7.918373761000      10.796815433000       0.569265433000
        54    1   0.000000        4.211500539000       7.664935072000      19.651623672000
        55    1   0.000000        3.566960338000       8.814511692000      16.754363308000
        56    1   0.000000       19.665737691000       9.438187691000       5.903137309000
        57    1   0.000000        0.310508418000       8.792420184000       6.548904816000
        58    1   0.000000       17.650501239000      10.796815433000       4.544509567000
        59    1   0.000000        0.902274461000       7.664935072000       5.917251328000
        60    1   0.000000        1.546814662000       8.814511692000       8.814511692000
        61    1   0.000000        0.789362309000       0.789362309000       4.324412691000
        62    1   0.000000       20.144591582000       1.435129816000       3.678645184000
        63    1   0.000000        2.804598761000      19.885834567000       5.683040433000
        64    1   0.000000       19.552825539000       0.803476328000       2.551160072000
        65    1   0.000000       18.908285338000       3.700736692000       3.700736692000
        66    1   0.000000       14.551962691000      14.551962691000       4.324412691000
        67    1   0.000000       15.651833418000      13.906195184000       3.678645184000
        68    1   0.000000       12.536726239000      15.910590433000       5.683040433000
        69    1   0.000000       16.243599461000      14.537848672000       2.551160072000
        70    1   0.000000       16.888139662000      11.640588308000       3.700736692000
        71    1   0.000000       14.551962691000       0.789362309000      11.016912309000
        72    1   0.000000       15.651833418000       1.435129816000      11.662679816000
        73    1   0.000000       12.536726239000      19.885834567000       9.658284567000
        74    1   0.000000       16.243599461000       0.803476328000      12.790164928000
        75    1   0.000000       16.888139662000       3.700736692000      11.640588308000
        76    1   0.000000        0.789362309000      14.551962691000      11.016912309000
        77    1   0.000000       20.144591582000      13.906195184000      11.662679816000
        78    1   0.000000        2.804598761000      15.910590433000       9.658284567000
        79    1   0.000000       19.552825539000      14.537848672000      12.790164928000
        80    1   0.000000       18.908285338000      11.640588308000      11.640588308000
        81    1   0.000000        0.789362309000       4.324412691000       0.789362309000
        82    1   0.000000        1.435129816000       3.678645184000      20.144591582000
        83    1   0.000000       19.885834567000       5.683040433000       2.804598761000
        84    1   0.000000        0.803476328000       2.551160072000      19.552825539000
        85    1   0.000000        3.700736692000       3.700736692000      18.908285338000
        86    1   0.000000       14.551962691000       4.324412691000      14.551962691000
        87    1   0.000000       13.906195184000       3.678645184000      15.651833418000
        88    1   0.000000       15.910590433000       5.683040433000      12.536726239000
        89    1   0.000000       14.537848672000       2.551160072000      16.243599461000
        90    1   0.000000       11.640588308000       3.700736692000      16.888139662000
        91    1   0.000000        0.789362309000      11.016912309000      14.551962691000
        92    1   0.000000        1.435129816000      11.662679816000      15.651833418000
        93    1   0.000000       19.885834567000       9.658284567000      12.536726239000
        94    1   0.000000        0.803476328000      12.790164928000      16.243599461000
        95    1   0.000000        3.700736692000      11.640588308000      16.888139662000
        96    1   0.000000       14.551962691000      11.016912309000       0.789362309000
        97    1   0.000000       13.906195184000      11.662679816000      20.144591582000
        98    1   0.000000       15.910590433000       9.658284567000       2.804598761000
        99    1   0.000000       14.537848672000      12.790164928000      19.552825539000
       100    1   0.000000       11.640588308000      11.640588308000      18.908285338000
       101    1   0.000000        4.324412691000       0.789362309000       0.789362309000
       102    1   0.000000        3.678645184000      20.144591582000       1.435129816000
       103    1   0.000000        5.683040433000       2.804598761000      19.885834567000
       104    1   0.000000        2.551160072000      19.552825539000       0.803476328000
       105    1   0.000000        3.700736692000      18.908285338000       3.700736692000
       106    1   0.000000        4.324412691000      14.551962691000      14.551962691000
       107    1   0.000000        3.678645184000      15.651833418000      13.906195184000
       108    1   0.000000        5.683040433000      12.536726239000      15.910590433000
       109    1   0.000000        2.551160072000      16.243599461000      14.537848672000
       110    1   0.000000        3.700736692000      16.888139662000      11.640588308000
       111    1   0.000000       11.016912309000      14.551962691000       0.789362309000
       112    1   0.000000       11.662679816000      15.651833418000       1.435129816000
       113    1   0.000000        9.658284567000      12.536726239000      19.885834567000
       114    1   0.000000       12.790164928000      16.243599461000       0.803476328000
       115    1   0.000000       11.640588308000      16.888139662000       3.700736692000
       116    1   0.000000       11.016912309000       0.789362309000      14.551962691000
       117    1   0.000000       11.662679816000      20.144591582000      13.906195184000
       118    1   0.000000        9.658284567000       2.804598761000      15.910590433000
       119    1   0.000000       12.790164928000      19.552825539000      14.537848672000
       120    1   0.000000       11.640588308000      18.908285338000      11.640588308000
       121    1   0.000000        4.324412691000       4.324412691000       4.324412691000
       122    1   0.000000        5.424283418000       3.678645184000       3.678645184000
       123    1   0.000000        2.309176239000       5.683040433000       5.683040433000
       124    1   0.000000        6.016049461000       4.310298672000       2.551160072000
       125    1   0.000000        6.660589662000       1.413038308000       3.700736692000
       126    1   0.000000       11.016912309000      11.016912309000       4.324412691000
       127    1   0.000000        9.917041582000      11.662679816000       3.678645184000
       128    1   0.000000       13.032148761000       9.658284567000       5.683040433000
       129    1   0.000000        9.325275539000      11.031026328000       2.551160072000
       130    1   0.000000        8.680735338000      13.928286692000       3.700736692000
       131    1   0.000000       11.016912309000       4.324412691000      11.016912309000
       132    1   0.000000        9.917041582000       3.678645184000      11.662679816000
       133    1   0.000000       13.032148761000       5.683040433000       9.658284567000
       134    1   0.000000        9.325275539000       4.310298672000      12.790164928000
       135    1   0.000000        8.680735338000       1.413038308000      11.640588308000
       136    1   0.000000        4.324412691000      11.016912309000      11.016912309000
       137    1   0.000000        5.424283418000      11.662679816000      11.662679816000
       138    1   0.000000        2.309176239000       9.658284567000       9.658284567000
       139    1   0.000000        6.016049461000      11.031026328000      12.790164928000
       140    1   0.000000        6.660589662000      13.928286692000      11.640588308000
       141    1   0.000000        3.678645184000       1.435129816000      20.144591582000
       142    1   0.000000        5.683040433000      19.885834567000       2.804598761000
       143    1   0.000000        4.310298672000       2.562614928000      19.552825539000
       144    1   0.000000        1.413038308000       1.413038308000      18.908285338000
       145    1   0.000000       11.662679816000       1.435129816000      15.651833418000
       146    1   0.000000        9.658284567000      19.885834567000      12.536726239000
       147    1   0.000000       11.031026328000       2.562614928000      16.243599461000
       148    1   0.000000       13.928286692000       1.413038308000      16.888139662000
       149    1   0.000000        3.678645184000      13.906195184000      15.651833418000
       150    1   0.000000        5.683040433000      15.910590433000      12.536726239000
       151    1   0.000000        4.310298672000      12.778710072000      16.243599461000
       152    1   0.000000        1.413038308000      13.928286692000      16.888139662000
       153    1   0.000000       11.662679816000      13.906195184000      20.144591582000
       154    1   0.000000        9.658284567000      15.910590433000       2.804598761000
       155    1   0.000000       11.031026328000      12.778710072000      19.552825539000
       156    1   0.000000       13.928286692000      13.928286692000      18.908285338000
       157    1   0.000000        1.435129816000       5.424283418000       1.435129816000
       158    1   0.000000       19.885834567000       2.309176239000      19.885834567000
       159    1   0.000000        2.562614928000       6.016049461000       0.803476328000
       160    1   0.000000        1.413038308000       6.660589662000       3.700736692000
       161    1   0.000000        1.435129816000       9.917041582000      13.906195184000
       162    1   0.000000       19.885834567000      13.032148761000      15.910590433000
       163    1   0.000000        2.562614928000       9.325275539000      14.537848672000
       164    1   0.000000        1.413038308000       8.680735338000      11.640588308000
       165    1   0.000000       13.906195184000       9.917041582000       1.435129816000
       166    1   0.000000       15.910590433000      13.032148761000      19.885834567000
       167    1   0.000000       12.778710072000       9.325275539000       0.803476328000
       168    1   0.000000       13.928286692000       8.680735338000       3.700736692000
       169    1   0.000000       13.906195184000       5.424283418000      13.906195184000
       170    1   0.000000       15.910590433000       2.309176239000      15.910590433000
       171    1   0.000000       12.778710072000       6.016049461000      14.537848672000
       172    1   0.000000       13.928286692000       6.660589662000      11.640588308000
       173    1   0.000000        5.424283418000       1.435129816000       1.435129816000
       174    1   0.000000        2.309176239000      19.885834567000      19.885834567000
       175    1   0.000000        6.016049461000       0.803476328000       2.562614928000
       176    1   0.000000        6.660589662000       3.700736692000       1.413038308000
       177    1   0.000000        9.917041582000      13.906195184000       1.435129816000
       178    1   0.000000       13.032148761000      15.910590433000      19.885834567000
       179    1   0.000000        9.325275539000      14.537848672000       2.562614928000
       180    1   0.000000        8.680735338000      11.640588308000       1.413038308000
       181    1   0.000000        9.917041582000       1.435129816000      13.906195184000
       182    1   0.000000       13.032148761000      19.885834567000      15.910590433000
       183    1   0.000000        9.325275539000       0.803476328000      12.778710072000
       184    1   0.000000        8.680735338000       3.700736692000      13.928286692000
       185    1   0.000000        5.424283418000      13.906195184000      13.906195184000
       186    1   0.000000        2.309176239000      15.910590433000      15.910590433000
       187    1   0.000000        6.016049461000      14.537848672000      12.778710072000
       188    1   0.000000        6.660589662000      11.640588308000      13.928286692000
       189    1   0.000000        3.678645184000       3.678645184000       5.424283418000
       190    1   0.000000        5.683040433000       5.683040433000       2.309176239000
       191    1   0.000000        4.310298672000       2.551160072000       6.016049461000
       192    1   0.000000        1.413038308000       3.700736692000       6.660589662000
       193    1   0.000000       11.662679816000       3.678645184000       9.917041582000
       194    1   0.000000        9.658284567000       5.683040433000      13.032148761000
       195    1   0.000000       11.031026328000       2.551160072000       9.325275539000
       196    1   0.000000       13.928286692000       3.700736692000       8.680735338000
       197    1   0.000000        3.678645184000      11.662679816000       9.917041582000
       198    1   0.000000        5.683040433000       9.658284567000      13.032148761000
       199    1   0.000000        4.310298672000      12.790164928000       9.325275539000
       200    1   0.000000        1.413038308000      11.640588308000       8.680735338000
       201    1   0.000000       11.662679816000      11.662679816000       5.424283418000
       202    1   0.000000        9.658284567000       9.658284567000       2.309176239000
       203    1   0.000000       11.031026328000      12.790164928000       6.016049461000
       204    1   0.000000       13.928286692000      11.640588308000       6.660589662000
       205    1   0.000000        1.435129816000      20.144591582000       3.678645184000
       206    1   0.000000       19.885834567000       2.804598761000       5.683040433000
       207    1   0.000000        2.562614928000      19.552825539000       4.310298672000
       208    1   0.000000        1.413038308000      18.908285338000       1.413038308000
       209    1   0.000000        1.435129816000      15.651833418000      11.662679816000
       210    1   0.000000       19.885834567000      12.536726239000       9.658284567000
       211    1   0.000000        2.562614928000      16.243599461000      11.031026328000
       212    1   0.000000        1.413038308000      16.888139662000      13.928286692000
       213    1   0.000000       13.906195184000      15.651833418000       3.678645184000
       214    1   0.000000       15.910590433000      12.536726239000       5.683040433000
       215    1   0.000000       12.778710072000      16.243599461000       4.310298672000
       216    1   0.000000       13.928286692000      16.888139662000       1.413038308000
       217    1   0.000000       13.906195184000      20.144591582000      11.662679816000
       218    1   0.000000       15.910590433000       2.804598761000       9.658284567000
       219    1   0.000000       12.778710072000      19.552825539000      11.031026328000
       220    1   0.000000       13.928286692000      18.908285338000      13.928286692000
       221    1   0.000000        9.438187691000      16.130687309000       9.438187691000
       222    1   0.000000        8.792420184000      15.030816582000       8.792420184000
       223    1   0.000000       10.796815433000      18.145923761000      10.796815433000
       224    1   0.000000        9.424073672000      14.439050539000       7.664935072000
       225    1   0.000000        6.526813308000      13.794510338000       8.814511692000
       226    1   0.000000       16.130687309000       9.438187691000       9.438187691000
       227    1   0.000000       16.776454816000      10.538058418000       8.792420184000
       228    1   0.000000       14.772059567000       7.422951239000      10.796815433000
       229    1   0.000000       16.144801328000      11.129824461000       7.664935072000
       230    1   0.000000       19.042061692000      11.774364662000       8.814511692000
       231    1   0.000000        9.438187691000       9.438187691000      16.130687309000
       232    1   0.000000        8.792420184000      10.538058418000      16.776454816000
       233    1   0.000000       10.796815433000       7.422951239000      14.772059567000
       234    1   0.000000        9.424073672000      11.129824461000      17.903939928000
       235    1   0.000000        6.526813308000      11.774364662000      16.754363308000
       236    1   0.000000       16.130687309000      16.130687309000      16.130687309000
       237    1   0.000000       16.776454816000      15.030816582000      16.776454816000
       238    1   0.000000       14.772059567000      18.145923761000      14.772059567000
       239    1   0.000000       16.144801328000      14.439050539000      17.903939928000
       240    1   0.000000       19.042061692000      13.794510338000      16.754363308000
       241    1   0.000000        6.548904816000      16.776454816000       4.803266582000
       242    1   0.000000        4.544509567000      14.772059567000       7.918373761000
       243    1   0.000000        7.676389928000      16.144801328000       4.211500539000
       244    1   0.000000        6.526813308000      19.042061692000       3.566960338000
       245    1   0.000000        6.548904816000       8.792420184000       0.310508418000
       246    1   0.000000        4.544509567000      10.796815433000      17.650501239000
       247    1   0.000000        7.676389928000       9.424073672000       0.902274461000
       248    1   0.000000        6.526813308000       6.526813308000       1.546814662000
       249    1   0.000000       19.019970184000      16.776454816000       0.310508418000
       250    1   0.000000        0.569265433000      14.772059567000      17.650501239000
       251    1   0.000000       17.892485072000      16.144801328000       0.902274461000
       252    1   0.000000       19.042061692000      19.042061692000       1.546814662000
       253    1   0.000000       19.019970184000       8.792420184000       4.803266582000
       254    1   0.000000        0.569265433000      10.796815433000       7.918373761000
       255    1   0.000000       17.892485072000       9.424073672000       4.211500539000
       256    1   0.000000       19.042061692000       6.526813308000       3.566960338000
       257    1   0.000000       10.538058418000      19.019970184000       6.548904816000
       258    1   0.000000        7.422951239000       0.569265433000       4.544509567000
       259    1   0.000000       11.129824461000      17.892485072000       5.917251328000
       260    1   0.000000       11.774364662000      19.042061692000       8.814511692000
       261    1   0.000000       15.030816582000      19.019970184000      19.019970184000
       262    1   0.000000       18.145923761000       0.569265433000       0.569265433000
       263    1   0.000000       14.439050539000      17.892485072000      19.651623672000
       264    1   0.000000       13.794510338000      19.042061692000      16.754363308000
       265    1   0.000000       15.030816582000       6.548904816000       6.548904816000
       266    1   0.000000       18.145923761000       4.544509567000       4.544509567000
       267    1   0.000000       14.439050539000       7.676389928000       5.917251328000
       268    1   0.000000       13.794510338000       6.526813308000       8.814511692000
       269    1   0.000000       10.538058418000       6.548904816000      19.019970184000
       270    1   0.000000        7.422951239000       4.544509567000       0.569265433000
       271    1   0.000000       11.129824461000       7.676389928000      19.651623672000
       272    1   0.000000       11.774364662000       6.526813308000      16.754363308000
       273    1   0.000000       20.144591582000       3.678645184000       1.435129816000
       274    1   0.000000        2.804598761000       5.683040433000      19.885834567000
       275    1   0.000000       19.552825539000       4.310298672000       2.562614928000
       276    1   0.000000       18.908285338000       1.413038308000       1.413038308000
       277    1   0.000000       15.651833418000      11.662679816000       1.435129816000
       278    1   0.000000       12.536726239000       9.658284567000      19.885834567000
       279    1   0.000000       16.243599461000      11.031026328000       2.562614928000
       280    1   0.000000       16.888139662000      13.928286692000       1.413038308000
       281    1   0.000000       15.651833418000       3.678645184000      13.906195184000
       282    1   0.000000       12.536726239000       5.683040433000      15.910590433000
       283    1   0.000000       16.243599461000       4.310298672000      12.778710072000
       284    1   0.000000       16.888139662000       1.413038308000      13.928286692000
       285    1   0.000000       20.144591582000      11.662679816000      13.906195184000
       286    1   0.000000        2.804598761000       9.658284567000      15.910590433000
       287    1   0.000000       19.552825539000      11.031026328000      12.778710072000
       288    1   0.000000       18.908285338000      13.928286692000      13.928286692000
       289    1   0.000000        1.435129816000       1.435129816000       5.424283418000
       290    1   0.000000       19.885834567000      19.885834567000       2.309176239000
       291    1   0.000000        0.803476328000       2.562614928000       6.016049461000
       292    1   0.000000        3.700736692000       1.413038308000       6.660589662000
       293    1   0.000000       13.906195184000       1.435129816000       9.917041582000
       294    1   0.000000       15.910590433000      19.885834567000      13.032148761000
       295    1   0.000000       14.537848672000       2.562614928000       9.325275539000
       296    1   0.000000       11.640588308000       1.413038308000       8.680735338000
       297    1   0.000000        1.435129816000      13.906195184000       9.917041582000
       298    1   0.000000       19.885834567000      15.910590433000      13.032148761000
       299    1   0.000000        0.803476328000      12.778710072000       9.325275539000
       300    1   0.000000        3.700736692000      13.928286692000       8.680735338000
       301    1   0.000000       13.906195184000      13.906195184000       5.424283418000
       302    1   0.000000       15.910590433000      15.910590433000       2.309176239000
       303    1   0.000000       14.537848672000      12.778710072000       6.016049461000
       304    1   0.000000       11.640588308000      13.928286692000       6.660589662000
       305    1   0.000000        3.678645184000       5.424283418000       3.678645184000
       306    1   0.000000        5.683040433000       2.309176239000       5.683040433000
       307    1   0.000000        2.551160072000       6.016049461000       4.310298672000
       308    1   0.000000        3.700736692000       6.660589662000       1.413038308000
       309    1   0.000000        3.678645184000       9.917041582000      11.662679816000
       310    1   0.000000        5.683040433000      13.032148761000       9.658284567000
       311    1   0.000000        2.551160072000       9.325275539000      11.031026328000
       312    1   0.000000        3.700736692000       8.680735338000      13.928286692000
       313    1   0.000000       11.662679816000       9.917041582000       3.678645184000
       314    1   0.000000        9.658284567000      13.032148761000       5.683040433000
       315    1   0.000000       12.790164928000       9.325275539000       4.310298672000
       316    1   0.000000       11.640588308000       8.680735338000       1.413038308000
       317    1   0.000000       11.662679816000       5.424283418000      11.662679816000
       318    1   0.000000        9.658284567000       2.309176239000       9.658284567000
       319    1   0.000000       12.790164928000       6.016049461000      11.031026328000
       320    1   0.000000       11.640588308000       6.660589662000      13.928286692000
       321    1   0.000000       19.019970184000      10.538058418000       6.548904816000
       322    1   0.000000        0.569265433000       7.422951239000       4.544509567000
       323    1   0.000000       19.651623672000      11.129824461000       7.676389928000
       324    1   0.000000       16.754363308000      11.774364662000       6.526813308000
       325    1   0.000000        6.548904816000      15.030816582000       6.548904816000
       326    1   0.000000        4.544509567000      18.145923761000       4.544509567000