 # C1
  
          96  atoms
           1  atom types
 
      0.000000000000      11.693100000000  xlo xhi
      0.000000000000      11.693100000000  ylo yhi
      0.000000000000      11.693100000000  zlo zhi
 
Masses
 
            1   12.01100000             # C
 
Atoms # charge
 
         1    1   0.000000        5.846550000000       7.823970141000       3.869129859000
         2    1   0.000000        7.110691041000       8.104838403000       3.235948494000
         3    1   0.000000        5.846550000000       6.837189432000       4.855910568000
         4    1   0.000000       11.693100000000       9.715679859000       3.869129859000
         5    1   0.000000       10.428958959000       9.434811597000       3.235948494000
         6    1   0.000000        0.000000000000      10.702460568000       4.855910568000
         7    1   0.000000        5.846550000000       9.715679859000       1.977420141000
         8    1   0.000000        7.110691041000       9.434811597000       2.610601506000
         9    1   0.000000        5.846550000000      10.702460568000       0.990639432000
        10    1   0.000000       11.693100000000       7.823970141000       1.977420141000
        11    1   0.000000       10.428958959000       8.104838403000       2.610601506000
        12    1   0.000000        0.000000000000       6.837189432000       0.990639432000
        13    1   0.000000        3.869129859000       5.846550000000       7.823970141000
        14    1   0.000000        3.235948494000       7.110691041000       8.104838403000
        15    1   0.000000        4.855910568000       5.846550000000       6.837189432000
        16    1   0.000000        3.869129859000      11.693100000000       9.715679859000
        17    1   0.000000        3.235948494000      10.428958959000       9.434811597000
        18    1   0.000000        4.855910568000       0.000000000000      10.702460568000
        19    1   0.000000        1.977420141000       5.846550000000       9.715679859000
        20    1   0.000000        2.610601506000       7.110691041000       9.434811597000
        21    1   0.000000        0.990639432000       5.846550000000      10.702460568000
        22    1   0.000000        1.977420141000      11.693100000000       7.823970141000
        23    1   0.000000        2.610601506000      10.428958959000       8.104838403000
        24    1   0.000000        0.990639432000       0.000000000000       6.837189432000
        25    1   0.000000        7.823970141000       3.869129859000       5.846550000000
        26    1   0.000000        8.104838403000       3.235948494000       7.110691041000
        27    1   0.000000        6.837189432000       4.855910568000       5.846550000000
        28    1   0.000000        9.715679859000       3.869129859000      11.693100000000
        29    1   0.000000        9.434811597000       3.235948494000      10.428958959000
        30    1   0.000000       10.702460568000       4.855910568000       0.000000000000
        31    1   0.000000        9.715679859000       1.977420141000       5.846550000000
        32    1   0.000000        9.434811597000       2.610601506000       7.110691041000
        33    1   0.000000       10.702460568000       0.990639432000       5.846550000000
        34    1   0.000000        7.823970141000       1.977420141000      11.693100000000
        35    1   0.000000        8.104838403000       2.610601506000      10.428958959000
        36    1   0.000000        6.837189432000       0.990639432000       0.000000000000
        37    1   0.000000        3.588261597000       4.582408959000       8.457151506000
        38    1   0.000000        2.258288403000       1.264141041000       8.457151506000
        39    1   0.000000        2.258288403000       4.582408959000       9.082498494000
        40    1   0.000000        3.588261597000       1.264141041000       9.082498494000
        41    1   0.000000        4.582408959000       8.457151506000       3.588261597000
        42    1   0.000000        1.264141041000       8.457151506000       2.258288403000
        43    1   0.000000        4.582408959000       9.082498494000       2.258288403000
        44    1   0.000000        1.264141041000       9.082498494000       3.588261597000
        45    1   0.000000        8.457151506000       3.588261597000       4.582408959000
        46    1   0.000000        8.457151506000       2.258288403000       1.264141041000
        47    1   0.000000        9.082498494000       2.258288403000       4.582408959000
        48    1   0.000000        9.082498494000       3.588261597000       1.264141041000
        49    1   0.000000        5.846550000000       3.869129859000       7.823970141000
        50    1   0.000000        4.582408959000       3.588261597000       8.457151506000
        51    1   0.000000        5.846550000000       4.855910568000       6.837189432000
        52    1   0.000000        0.000000000000       1.977420141000       7.823970141000
        53    1   0.000000        1.264141041000       2.258288403000       8.457151506000
        54    1   0.000000       11.693100000000       0.990639432000       6.837189432000
        55    1   0.000000        5.846550000000       1.977420141000       9.715679859000
        56    1   0.000000        4.582408959000       2.258288403000       9.082498494000
        57    1   0.000000        5.846550000000       0.990639432000      10.702460568000
        58    1   0.000000        0.000000000000       3.869129859000       9.715679859000
        59    1   0.000000        1.264141041000       3.588261597000       9.082498494000
        60    1   0.000000       11.693100000000       4.855910568000      10.702460568000
        61    1   0.000000        7.823970141000       5.846550000000       3.869129859000
        62    1   0.000000        8.457151506000       4.582408959000       3.588261597000
        63    1   0.000000        6.837189432000       5.846550000000       4.855910568000
        64    1   0.000000        7.823970141000       0.000000000000       1.977420141000
        65    1   0.000000        8.457151506000       1.264141041000       2.258288403000
        66    1   0.000000        6.837189432000      11.693100000000       0.990639432000
        67    1   0.000000        9.715679859000       5.846550000000       1.977420141000
        68    1   0.000000        9.082498494000       4.582408959000       2.258288403000
        69    1   0.000000       10.702460568000       5.846550000000       0.990639432000
        70    1   0.000000        9.715679859000       0.000000000000       3.869129859000
        71    1   0.000000        9.082498494000       1.264141041000       3.588261597000
        72    1   0.000000       10.702460568000      11.693100000000       4.855910568000
        73    1   0.000000        3.869129859000       7.823970141000       5.846550000000
        74    1   0.000000        3.588261597000       8.457151506000       4.582408959000
        75    1   0.000000        4.855910568000       6.837189432000       5.846550000000
        76    1   0.000000        1.977420141000       7.823970141000       0.000000000000
        77    1   0.000000        2.258288403000       8.457151506000       1.264141041000
        78    1   0.000000        0.990639432000       6.837189432000      11.693100000000
        79    1   0.000000        1.977420141000       9.715679859000       5.846550000000
        80    1   0.000000        2.258288403000       9.082498494000       4.582408959000
        81    1   0.000000        0.990639432000      10.702460568000       5.846550000000
        82    1   0.000000        3.869129859000       9.715679859000       0.000000000000
        83    1   0.000000        3.588261597000       9.082498494000       1.264141041000
        84    1   0.000000        4.855910568000      10.702460568000      11.693100000000
        85    1   0.000000        8.104838403000       7.110691041000       3.235948494000
        86    1   0.000000        9.434811597000      10.428958959000       3.235948494000
        87    1   0.000000        9.434811597000       7.110691041000       2.610601506000
        88    1   0.000000        8.104838403000      10.428958959000       2.610601506000
        89    1   0.000000        7.110691041000       3.235948494000       8.104838403000
        90    1   0.000000       10.428958959000       3.235948494000       9.434811597000
        91    1   0.000000        7.110691041000       2.610601506000       9.434811597000
        92    1   0.000000       10.428958959000       2.610601506000       8.104838403000
        93    1   0.000000        3.235948494000       8.104838403000       7.110691041000
        94    1   0.000000        3.235948494000       9.434811597000      10.428958959000
        95    1   0.000000        2.610601506000       9.434811597000       7.110691041000
        96    1   0.000000        2.610601506000       8.104838403000      10.428958959000
