 # C1
  
          54  atoms
           1  atom types
 
      0.000000000000      16.126700000000  xlo xhi
      0.000000000000      13.966131879211  ylo yhi
      0.000000000000       3.994800000000  zlo zhi
     -8.063350000000       0.000000000000       0.000000000000  xy xz yz
 
Masses
 
            1   12.01100000             # C
 
Atoms # charge
 
         1    1   0.000000       14.892281748500       0.712691709796       2.021568540000
         2    1   0.000000        0.000000000000       2.817248122674       1.810003932000
         3    1   0.000000        0.000000000000       4.007441881421       1.504042200000
         4    1   0.000000        8.063350000000      12.540748459618       2.021568540000
         5    1   0.000000        5.623541557000      12.557507817873       1.810003932000
         6    1   0.000000        4.592803526500      11.962410938500       1.504042200000
         7    1   0.000000        1.234418251500       0.712691709796       2.021568540000
         8    1   0.000000       -5.623541557000      12.557507817873       1.810003932000
         9    1   0.000000       -4.592803526500      11.962410938500       1.504042200000
        10    1   0.000000        6.828931748500      13.253440169414       1.973231460000
        11    1   0.000000        8.063350000000      11.148883756536       2.184796068000
        12    1   0.000000        8.063350000000       9.958689997790       2.490757800000
        13    1   0.000000        0.000000000000       1.425383419592       1.973231460000
        14    1   0.000000       13.686891557000       1.408624061337       2.184796068000
        15    1   0.000000       12.656153526500       2.003720940710       2.490757800000
        16    1   0.000000       -6.828931748500      13.253440169414       1.973231460000
        17    1   0.000000        2.439808443000       1.408624061337       2.184796068000
        18    1   0.000000        3.470546473500       2.003720940710       2.490757800000
        19    1   0.000000        6.836995098500       5.363413625573       3.351836940000
        20    1   0.000000        8.071413350000       7.467970038451       3.140272332000
        21    1   0.000000        8.071413350000       8.658163797198       2.834310600000
        22    1   0.000000        8.071413350000       3.225338496185       3.351836940000
        23    1   0.000000        5.631604907000       3.242097854440       3.140272332000
        24    1   0.000000        4.600866876500       2.647000975067       2.834310600000
        25    1   0.000000        9.305831601500       5.363413625573       3.351836940000
        26    1   0.000000       10.511221793000       3.242097854440       3.140272332000
        27    1   0.000000       11.541959823500       2.647000975067       2.834310600000
        28    1   0.000000        6.836995098500       3.938030205981       3.303499860000
        29    1   0.000000        8.071413350000       1.833473793103       3.515064468000
        30    1   0.000000        8.071413350000       0.643280034356       3.821026200000
        31    1   0.000000        8.071413350000       6.076105335369       3.303499860000
        32    1   0.000000        5.631604907000       6.059345977114       3.515064468000
        33    1   0.000000        4.600866876500       6.654442856487       3.821026200000
        34    1   0.000000        9.305831601500       3.938030205981       3.303499860000
        35    1   0.000000       10.511221793000       6.059345977114       3.515064468000
        36    1   0.000000       11.541959823500       6.654442856487       3.821026200000
        37    1   0.000000       -1.242481601500      10.028101673230       0.691300140000
        38    1   0.000000       -0.008063350000      12.132658086108       0.479735532000
        39    1   0.000000       -0.008063350000      13.322851844854       0.173773800000
        40    1   0.000000       -0.008063350000       7.890026543841       0.691300140000
        41    1   0.000000       -2.447871793000       7.906785902096       0.479735532000
        42    1   0.000000       -3.478609823500       7.311689022723       0.173773800000
        43    1   0.000000        1.226354901500      10.028101673230       0.691300140000
        44    1   0.000000        2.431745093000       7.906785902096       0.479735532000
        45    1   0.000000        3.462483123500       7.311689022723       0.173773800000
        46    1   0.000000       -1.242481601500       8.602718253637       0.642963060000
        47    1   0.000000       -0.008063350000       6.498161840759       0.854527668000
        48    1   0.000000       -0.008063350000       5.307968082013       1.160489400000
        49    1   0.000000       -0.008063350000      10.740793383026       0.642963060000
        50    1   0.000000       -2.447871793000      10.724034024771       0.854527668000
        51    1   0.000000       -3.478609823500      11.319130904144       1.160489400000
        52    1   0.000000        1.226354901500       8.602718253637       0.642963060000
        53    1   0.000000        2.431745093000      10.724034024771       0.854527668000
        54    1   0.000000        3.462483123500      11.319130904144       1.160489400000
