 # C1
  
         152  atoms
           1  atom types
 
      0.000000000000      13.611500000000  xlo xhi
      0.000000000000      13.611500000000  ylo yhi
      0.000000000000      13.611500000000  zlo zhi
 
Masses
 
            1   12.01100000             # C
 
Atoms # charge
 
         1    1   0.000000        1.361286115000       2.348800440000       5.585751255000
         2    1   0.000000        0.703306205000       2.719033240000       4.349010365000
         3    1   0.000000        1.447719140000       3.225108810000       3.225108810000
         4    1   0.000000        0.722770650000      10.942148735000       6.805750000000
         5    1   0.000000       10.890561150000      10.890561150000      10.890561150000
         6    1   0.000000       12.250213885000      11.262699560000       5.585751255000
         7    1   0.000000       12.908193795000      10.892466760000       4.349010365000
         8    1   0.000000       12.163780860000      10.386391190000       3.225108810000
         9    1   0.000000       12.888729350000       2.669351265000       6.805750000000
        10    1   0.000000        2.720938850000       2.720938850000      10.890561150000
        11    1   0.000000        1.361286115000      11.262699560000       8.025748745000
        12    1   0.000000        0.703306205000      10.892466760000       9.262489635000
        13    1   0.000000        1.447719140000      10.386391190000      10.386391190000
        14    1   0.000000        0.722770650000       2.669351265000       6.805750000000
        15    1   0.000000       10.890561150000       2.720938850000       2.720938850000
        16    1   0.000000       12.250213885000       2.348800440000       8.025748745000
        17    1   0.000000       12.908193795000       2.719033240000       9.262489635000
        18    1   0.000000       12.163780860000       3.225108810000      10.386391190000
        19    1   0.000000       12.888729350000      10.942148735000       6.805750000000
        20    1   0.000000        2.720938850000      10.890561150000       2.720938850000
        21    1   0.000000        5.585751255000       1.361286115000       2.348800440000
        22    1   0.000000        4.349010365000       0.703306205000       2.719033240000
        23    1   0.000000        3.225108810000       1.447719140000       3.225108810000
        24    1   0.000000        6.805750000000       0.722770650000      10.942148735000
        25    1   0.000000        5.585751255000      12.250213885000      11.262699560000
        26    1   0.000000        4.349010365000      12.908193795000      10.892466760000
        27    1   0.000000        3.225108810000      12.163780860000      10.386391190000
        28    1   0.000000        6.805750000000      12.888729350000       2.669351265000
        29    1   0.000000        8.025748745000       1.361286115000      11.262699560000
        30    1   0.000000        9.262489635000       0.703306205000      10.892466760000
        31    1   0.000000       10.386391190000       1.447719140000      10.386391190000
        32    1   0.000000        6.805750000000       0.722770650000       2.669351265000
        33    1   0.000000        8.025748745000      12.250213885000       2.348800440000
        34    1   0.000000        9.262489635000      12.908193795000       2.719033240000
        35    1   0.000000       10.386391190000      12.163780860000       3.225108810000
        36    1   0.000000        6.805750000000      12.888729350000      10.942148735000
        37    1   0.000000        2.348800440000       5.585751255000       1.361286115000
        38    1   0.000000        2.719033240000       4.349010365000       0.703306205000
        39    1   0.000000        3.225108810000       3.225108810000       1.447719140000
        40    1   0.000000       10.942148735000       6.805750000000       0.722770650000
        41    1   0.000000       11.262699560000       5.585751255000      12.250213885000
        42    1   0.000000       10.892466760000       4.349010365000      12.908193795000
        43    1   0.000000       10.386391190000       3.225108810000      12.163780860000
        44    1   0.000000        2.669351265000       6.805750000000      12.888729350000
        45    1   0.000000       11.262699560000       8.025748745000       1.361286115000
        46    1   0.000000       10.892466760000       9.262489635000       0.703306205000
        47    1   0.000000       10.386391190000      10.386391190000       1.447719140000
        48    1   0.000000        2.669351265000       6.805750000000       0.722770650000
        49    1   0.000000        2.348800440000       8.025748745000      12.250213885000
        50    1   0.000000        2.719033240000       9.262489635000      12.908193795000
        51    1   0.000000        3.225108810000      10.386391190000      12.163780860000
        52    1   0.000000       10.942148735000       6.805750000000      12.888729350000
        53    1   0.000000       11.262699560000      12.250213885000       8.025748745000
        54    1   0.000000       10.892466760000      12.908193795000       9.262489635000
        55    1   0.000000       10.386391190000      12.163780860000      10.386391190000
        56    1   0.000000        2.669351265000      12.888729350000       6.805750000000
        57    1   0.000000        2.720938850000       2.720938850000       2.720938850000
        58    1   0.000000        2.348800440000       1.361286115000       8.025748745000
        59    1   0.000000        2.719033240000       0.703306205000       9.262489635000
        60    1   0.000000        3.225108810000       1.447719140000      10.386391190000
        61    1   0.000000       10.942148735000       0.722770650000       6.805750000000
        62    1   0.000000       10.890561150000      10.890561150000       2.720938850000
        63    1   0.000000        2.348800440000      12.250213885000       5.585751255000
        64    1   0.000000        2.719033240000      12.908193795000       4.349010365000
        65    1   0.000000        3.225108810000      12.163780860000       3.225108810000
        66    1   0.000000       10.942148735000      12.888729350000       6.805750000000
        67    1   0.000000       10.890561150000       2.720938850000      10.890561150000
        68    1   0.000000       11.262699560000       1.361286115000       5.585751255000
        69    1   0.000000       10.892466760000       0.703306205000       4.349010365000
        70    1   0.000000       10.386391190000       1.447719140000       3.225108810000
        71    1   0.000000        2.669351265000       0.722770650000       6.805750000000
        72    1   0.000000        2.720938850000      10.890561150000      10.890561150000
        73    1   0.000000       12.250213885000       8.025748745000      11.262699560000
        74    1   0.000000       12.908193795000       9.262489635000      10.892466760000
        75    1   0.000000       12.163780860000      10.386391190000      10.386391190000
        76    1   0.000000       12.888729350000       6.805750000000       2.669351265000
        77    1   0.000000        1.361286115000       8.025748745000       2.348800440000
        78    1   0.000000        0.703306205000       9.262489635000       2.719033240000
        79    1   0.000000        1.447719140000      10.386391190000       3.225108810000
        80    1   0.000000        0.722770650000       6.805750000000      10.942148735000
        81    1   0.000000       12.250213885000       5.585751255000       2.348800440000
        82    1   0.000000       12.908193795000       4.349010365000       2.719033240000
        83    1   0.000000       12.163780860000       3.225108810000       3.225108810000
        84    1   0.000000       12.888729350000       6.805750000000      10.942148735000
        85    1   0.000000        1.361286115000       5.585751255000      11.262699560000
        86    1   0.000000        0.703306205000       4.349010365000      10.892466760000
        87    1   0.000000        1.447719140000       3.225108810000      10.386391190000
        88    1   0.000000        0.722770650000       6.805750000000       2.669351265000
        89    1   0.000000        8.025748745000      11.262699560000      12.250213885000
        90    1   0.000000        9.262489635000      10.892466760000      12.908193795000
        91    1   0.000000       10.386391190000      10.386391190000      12.163780860000
        92    1   0.000000        6.805750000000       2.669351265000      12.888729350000
        93    1   0.000000        8.025748745000       2.348800440000       1.361286115000
        94    1   0.000000        9.262489635000       2.719033240000       0.703306205000
        95    1   0.000000       10.386391190000       3.225108810000       1.447719140000
        96    1   0.000000        6.805750000000      10.942148735000       0.722770650000
        97    1   0.000000        5.585751255000       2.348800440000      12.250213885000
        98    1   0.000000        4.349010365000       2.719033240000      12.908193795000
        99    1   0.000000        3.225108810000       3.225108810000      12.163780860000
       100    1   0.000000        6.805750000000      10.942148735000      12.888729350000
       101    1   0.000000        5.585751255000      11.262699560000       1.361286115000
       102    1   0.000000        4.349010365000      10.892466760000       0.703306205000
       103    1   0.000000        3.225108810000      10.386391190000       1.447719140000
       104    1   0.000000        6.805750000000       2.669351265000       0.722770650000
       105    1   0.000000       12.250213885000      11.262699560000       8.025748745000
       106    1   0.000000       12.908193795000      10.892466760000       9.262489635000
       107    1   0.000000        1.361286115000       2.348800440000       8.025748745000
       108    1   0.000000        0.703306205000       2.719033240000       9.262489635000
       109    1   0.000000       12.250213885000       2.348800440000       5.585751255000
       110    1   0.000000       12.908193795000       2.719033240000       4.349010365000
       111    1   0.000000        1.361286115000      11.262699560000       5.585751255000
       112    1   0.000000        0.703306205000      10.892466760000       4.349010365000
       113    1   0.000000        8.025748745000      12.250213885000      11.262699560000
       114    1   0.000000        9.262489635000      12.908193795000      10.892466760000
       115    1   0.000000        8.025748745000       1.361286115000       2.348800440000
       116    1   0.000000        9.262489635000       0.703306205000       2.719033240000
       117    1   0.000000        5.585751255000      12.250213885000       2.348800440000
       118    1   0.000000        4.349010365000      12.908193795000       2.719033240000
       119    1   0.000000        5.585751255000       1.361286115000      11.262699560000
       120    1   0.000000        4.349010365000       0.703306205000      10.892466760000
       121    1   0.000000       11.262699560000       8.025748745000      12.250213885000
       122    1   0.000000       10.892466760000       9.262489635000      12.908193795000
       123    1   0.000000        2.348800440000       8.025748745000       1.361286115000
       124    1   0.000000        2.719033240000       9.262489635000       0.703306205000
       125    1   0.000000        2.348800440000       5.585751255000      12.250213885000
       126    1   0.000000        2.719033240000       4.349010365000      12.908193795000
       127    1   0.000000       11.262699560000       5.585751255000       1.361286115000
       128    1   0.000000       10.892466760000       4.349010365000       0.703306205000
       129    1   0.000000        2.348800440000       1.361286115000       5.585751255000
       130    1   0.000000        2.719033240000       0.703306205000       4.349010365000
       131    1   0.000000       11.262699560000      12.250213885000       5.585751255000
       132    1   0.000000       10.892466760000      12.908193795000       4.349010365000
       133    1   0.000000       11.262699560000       1.361286115000       8.025748745000
       134    1   0.000000       10.892466760000       0.703306205000       9.262489635000
       135    1   0.000000        2.348800440000      12.250213885000       8.025748745000
       136    1   0.000000        2.719033240000      12.908193795000       9.262489635000
       137    1   0.000000        1.361286115000       5.585751255000       2.348800440000
       138    1   0.000000        0.703306205000       4.349010365000       2.719033240000
       139    1   0.000000       12.250213885000       5.585751255000      11.262699560000
       140    1   0.000000       12.908193795000       4.349010365000      10.892466760000
       141    1   0.000000        1.361286115000       8.025748745000      11.262699560000
       142    1   0.000000        0.703306205000       9.262489635000      10.892466760000
       143    1   0.000000       12.250213885000       8.025748745000       2.348800440000
       144    1   0.000000       12.908193795000       9.262489635000       2.719033240000
       145    1   0.000000        5.585751255000       2.348800440000       1.361286115000
       146    1   0.000000        4.349010365000       2.719033240000       0.703306205000
       147    1   0.000000        5.585751255000      11.262699560000      12.250213885000
       148    1   0.000000        4.349010365000      10.892466760000      12.908193795000
       149    1   0.000000        8.025748745000      11.262699560000       1.361286115000
       150    1   0.000000        9.262489635000      10.892466760000       0.703306205000
       151    1   0.000000        8.025748745000       2.348800440000      12.250213885000
       152    1   0.000000        9.262489635000       2.719033240000      12.908193795000
