 # C1
  
         384  atoms
           1  atom types
 
      0.000000000000      18.344900000000  xlo xhi
      0.000000000000      18.344900000000  ylo yhi
      0.000000000000      18.344900000000  zlo zhi
 
Masses
 
            1   12.01100000             # C
 
Atoms # charge
 
         1    1   0.000000       14.148687574000      14.890004983000       5.311215448000
         2    1   0.000000       14.600705910000      15.999137637000       6.070877757000
         3    1   0.000000       14.181524945000      16.054172337000       7.433903827000
         4    1   0.000000       15.177653015000      16.607087623000       8.297214821000
         5    1   0.000000        4.196212426000      12.627345017000       5.311215448000
         6    1   0.000000        3.744194090000      11.518212363000       6.070877757000
         7    1   0.000000        4.163375055000      11.463177663000       7.433903827000
         8    1   0.000000        3.167246985000      10.910262377000       8.297214821000
         9    1   0.000000       14.148687574000       3.454895017000       3.861234552000
        10    1   0.000000       14.600705910000       2.345762363000       3.101572243000
        11    1   0.000000       14.181524945000       2.290727663000       1.738546173000
        12    1   0.000000       15.177653015000       1.737812377000       0.875235179000
        13    1   0.000000        4.196212426000       5.717554983000       3.861234552000
        14    1   0.000000        3.744194090000       6.826687637000       3.101572243000
        15    1   0.000000        4.163375055000       6.881722337000       1.738546173000
        16    1   0.000000        3.167246985000       7.434637623000       0.875235179000
        17    1   0.000000       13.368662426000      14.890004983000      13.033684552000
        18    1   0.000000       12.916644090000      15.999137637000      12.274022243000
        19    1   0.000000       13.335825055000      16.054172337000      10.910996173000
        20    1   0.000000       12.339696985000      16.607087623000      10.047685179000
        21    1   0.000000        4.976237574000      12.627345017000      13.033684552000
        22    1   0.000000        5.428255910000      11.518212363000      12.274022243000
        23    1   0.000000        5.009074945000      11.463177663000      10.910996173000
        24    1   0.000000        6.005203015000      10.910262377000      10.047685179000
        25    1   0.000000       13.368662426000       3.454895017000      14.483665448000
        26    1   0.000000       12.916644090000       2.345762363000      15.243327757000
        27    1   0.000000       13.335825055000       2.290727663000      16.606353827000
        28    1   0.000000       12.339696985000       1.737812377000      17.469664821000
        29    1   0.000000        4.976237574000       5.717554983000      14.483665448000
        30    1   0.000000        5.428255910000       6.826687637000      15.243327757000
        31    1   0.000000        5.009074945000       6.881722337000      16.606353827000
        32    1   0.000000        6.005203015000       7.434637623000      17.469664821000
        33    1   0.000000        5.311215448000      14.148687574000      14.890004983000
        34    1   0.000000        6.070877757000      14.600705910000      15.999137637000
        35    1   0.000000        7.433903827000      14.181524945000      16.054172337000
        36    1   0.000000        8.297214821000      15.177653015000      16.607087623000
        37    1   0.000000        5.311215448000       4.196212426000      12.627345017000
        38    1   0.000000        6.070877757000       3.744194090000      11.518212363000
        39    1   0.000000        7.433903827000       4.163375055000      11.463177663000
        40    1   0.000000        8.297214821000       3.167246985000      10.910262377000
        41    1   0.000000        3.861234552000      14.148687574000       3.454895017000
        42    1   0.000000        3.101572243000      14.600705910000       2.345762363000
        43    1   0.000000        1.738546173000      14.181524945000       2.290727663000
        44    1   0.000000        0.875235179000      15.177653015000       1.737812377000
        45    1   0.000000        3.861234552000       4.196212426000       5.717554983000
        46    1   0.000000        3.101572243000       3.744194090000       6.826687637000
        47    1   0.000000        1.738546173000       4.163375055000       6.881722337000
        48    1   0.000000        0.875235179000       3.167246985000       7.434637623000
        49    1   0.000000       13.033684552000      13.368662426000      14.890004983000
        50    1   0.000000       12.274022243000      12.916644090000      15.999137637000
        51    1   0.000000       10.910996173000      13.335825055000      16.054172337000
        52    1   0.000000       10.047685179000      12.339696985000      16.607087623000
        53    1   0.000000       13.033684552000       4.976237574000      12.627345017000
        54    1   0.000000       12.274022243000       5.428255910000      11.518212363000
        55    1   0.000000       10.910996173000       5.009074945000      11.463177663000
        56    1   0.000000       10.047685179000       6.005203015000      10.910262377000
        57    1   0.000000       14.483665448000      13.368662426000       3.454895017000
        58    1   0.000000       15.243327757000      12.916644090000       2.345762363000
        59    1   0.000000       16.606353827000      13.335825055000       2.290727663000
        60    1   0.000000       17.469664821000      12.339696985000       1.737812377000
        61    1   0.000000       14.483665448000       4.976237574000       5.717554983000
        62    1   0.000000       15.243327757000       5.428255910000       6.826687637000
        63    1   0.000000       16.606353827000       5.009074945000       6.881722337000
        64    1   0.000000       17.469664821000       6.005203015000       7.434637623000
        65    1   0.000000       14.890004983000       5.311215448000      14.148687574000
        66    1   0.000000       15.999137637000       6.070877757000      14.600705910000
        67    1   0.000000       16.054172337000       7.433903827000      14.181524945000
        68    1   0.000000       16.607087623000       8.297214821000      15.177653015000
        69    1   0.000000       12.627345017000       5.311215448000       4.196212426000
        70    1   0.000000       11.518212363000       6.070877757000       3.744194090000
        71    1   0.000000       11.463177663000       7.433903827000       4.163375055000
        72    1   0.000000       10.910262377000       8.297214821000       3.167246985000
        73    1   0.000000        3.454895017000       3.861234552000      14.148687574000
        74    1   0.000000        2.345762363000       3.101572243000      14.600705910000
        75    1   0.000000        2.290727663000       1.738546173000      14.181524945000
        76    1   0.000000        1.737812377000       0.875235179000      15.177653015000
        77    1   0.000000        5.717554983000       3.861234552000       4.196212426000
        78    1   0.000000        6.826687637000       3.101572243000       3.744194090000
        79    1   0.000000        6.881722337000       1.738546173000       4.163375055000
        80    1   0.000000        7.434637623000       0.875235179000       3.167246985000
        81    1   0.000000       14.890004983000      13.033684552000      13.368662426000
        82    1   0.000000       15.999137637000      12.274022243000      12.916644090000
        83    1   0.000000       16.054172337000      10.910996173000      13.335825055000
        84    1   0.000000       16.607087623000      10.047685179000      12.339696985000
        85    1   0.000000       12.627345017000      13.033684552000       4.976237574000
        86    1   0.000000       11.518212363000      12.274022243000       5.428255910000
        87    1   0.000000       11.463177663000      10.910996173000       5.009074945000
        88    1   0.000000       10.910262377000      10.047685179000       6.005203015000
        89    1   0.000000        3.454895017000      14.483665448000      13.368662426000
        90    1   0.000000        2.345762363000      15.243327757000      12.916644090000
        91    1   0.000000        2.290727663000      16.606353827000      13.335825055000
        92    1   0.000000        1.737812377000      17.469664821000      12.339696985000
        93    1   0.000000        5.717554983000      14.483665448000       4.976237574000
        94    1   0.000000        6.826687637000      15.243327757000       5.428255910000
        95    1   0.000000        6.881722337000      16.606353827000       5.009074945000
        96    1   0.000000        7.434637623000      17.469664821000       6.005203015000
        97    1   0.000000        8.041120017000       8.782437426000      17.619909552000
        98    1   0.000000        6.931987363000       8.330419090000      16.860247243000
        99    1   0.000000        6.876952663000       8.749600055000      15.497221173000
       100    1   0.000000        6.324037377000       7.753471985000      14.633910179000
       101    1   0.000000       10.303779983000       0.390012574000      17.619909552000
       102    1   0.000000       11.412912637000       0.842030910000      16.860247243000
       103    1   0.000000       11.467947337000       0.422849945000      15.497221173000
       104    1   0.000000       12.020862623000       1.418978015000      14.633910179000
       105    1   0.000000        1.131329983000       8.782437426000       0.724990448000
       106    1   0.000000        2.240462637000       8.330419090000       1.484652757000
       107    1   0.000000        2.295497337000       8.749600055000       2.847678827000
       108    1   0.000000        2.848412623000       7.753471985000       3.710989821000
       109    1   0.000000       17.213570017000       0.390012574000       0.724990448000
       110    1   0.000000       16.104437363000       0.842030910000       1.484652757000
       111    1   0.000000       16.049402663000       0.422849945000       2.847678827000
       112    1   0.000000       15.496487377000       1.418978015000       3.710989821000
       113    1   0.000000        8.041120017000       9.562462574000       9.897440448000
       114    1   0.000000        6.931987363000      10.014480910000      10.657102757000
       115    1   0.000000        6.876952663000       9.595299945000      12.020128827000
       116    1   0.000000        6.324037377000      10.591428015000      12.883439821000
       117    1   0.000000       10.303779983000      17.954887426000       9.897440448000
       118    1   0.000000       11.412912637000      17.502869090000      10.657102757000
       119    1   0.000000       11.467947337000      17.922050055000      12.020128827000
       120    1   0.000000       12.020862623000      16.925921985000      12.883439821000
       121    1   0.000000        1.131329983000       9.562462574000       8.447459552000
       122    1   0.000000        2.240462637000      10.014480910000       7.687797243000
       123    1   0.000000        2.295497337000       9.595299945000       6.324771173000
       124    1   0.000000        2.848412623000      10.591428015000       5.461460179000
       125    1   0.000000       17.213570017000      17.954887426000       8.447459552000
       126    1   0.000000       16.104437363000      17.502869090000       7.687797243000
       127    1   0.000000       16.049402663000      17.922050055000       6.324771173000
       128    1   0.000000       15.496487377000      16.925921985000       5.461460179000
       129    1   0.000000        8.782437426000      17.619909552000       8.041120017000
       130    1   0.000000        8.330419090000      16.860247243000       6.931987363000
       131    1   0.000000        8.749600055000      15.497221173000       6.876952663000
       132    1   0.000000        7.753471985000      14.633910179000       6.324037377000
       133    1   0.000000        0.390012574000      17.619909552000      10.303779983000
       134    1   0.000000        0.842030910000      16.860247243000      11.412912637000
       135    1   0.000000        0.422849945000      15.497221173000      11.467947337000
       136    1   0.000000        1.418978015000      14.633910179000      12.020862623000
       137    1   0.000000        8.782437426000       0.724990448000       1.131329983000
       138    1   0.000000        8.330419090000       1.484652757000       2.240462637000
       139    1   0.000000        8.749600055000       2.847678827000       2.295497337000
       140    1   0.000000        7.753471985000       3.710989821000       2.848412623000
       141    1   0.000000        0.390012574000       0.724990448000      17.213570017000
       142    1   0.000000        0.842030910000       1.484652757000      16.104437363000
       143    1   0.000000        0.422849945000       2.847678827000      16.049402663000
       144    1   0.000000        1.418978015000       3.710989821000      15.496487377000
       145    1   0.000000        9.562462574000       9.897440448000       8.041120017000
       146    1   0.000000       10.014480910000      10.657102757000       6.931987363000
       147    1   0.000000        9.595299945000      12.020128827000       6.876952663000
       148    1   0.000000       10.591428015000      12.883439821000       6.324037377000
       149    1   0.000000       17.954887426000       9.897440448000      10.303779983000
       150    1   0.000000       17.502869090000      10.657102757000      11.412912637000
       151    1   0.000000       17.922050055000      12.020128827000      11.467947337000
       152    1   0.000000       16.925921985000      12.883439821000      12.020862623000
       153    1   0.000000        9.562462574000       8.447459552000       1.131329983000
       154    1   0.000000       10.014480910000       7.687797243000       2.240462637000
       155    1   0.000000        9.595299945000       6.324771173000       2.295497337000
       156    1   0.000000       10.591428015000       5.461460179000       2.848412623000
       157    1   0.000000       17.954887426000       8.447459552000      17.213570017000
       158    1   0.000000       17.502869090000       7.687797243000      16.104437363000
       159    1   0.000000       17.922050055000       6.324771173000      16.049402663000
       160    1   0.000000       16.925921985000       5.461460179000      15.496487377000
       161    1   0.000000       17.619909552000       8.041120017000       8.782437426000
       162    1   0.000000       16.860247243000       6.931987363000       8.330419090000
       163    1   0.000000       15.497221173000       6.876952663000       8.749600055000
       164    1   0.000000       14.633910179000       6.324037377000       7.753471985000
       165    1   0.000000       17.619909552000      10.303779983000       0.390012574000
       166    1   0.000000       16.860247243000      11.412912637000       0.842030910000
       167    1   0.000000       15.497221173000      11.467947337000       0.422849945000
       168    1   0.000000       14.633910179000      12.020862623000       1.418978015000
       169    1   0.000000        0.724990448000       1.131329983000       8.782437426000
       170    1   0.000000        1.484652757000       2.240462637000       8.330419090000
       171    1   0.000000        2.847678827000       2.295497337000       8.749600055000
       172    1   0.000000        3.710989821000       2.848412623000       7.753471985000
       173    1   0.000000        0.724990448000      17.213570017000       0.390012574000
       174    1   0.000000        1.484652757000      16.104437363000       0.842030910000
       175    1   0.000000        2.847678827000      16.049402663000       0.422849945000
       176    1   0.000000        3.710989821000      15.496487377000       1.418978015000
       177    1   0.000000        9.897440448000       8.041120017000       9.562462574000
       178    1   0.000000       10.657102757000       6.931987363000      10.014480910000
       179    1   0.000000       12.020128827000       6.876952663000       9.595299945000
       180    1   0.000000       12.883439821000       6.324037377000      10.591428015000
       181    1   0.000000        9.897440448000      10.303779983000      17.954887426000
       182    1   0.000000       10.657102757000      11.412912637000      17.502869090000
       183    1   0.000000       12.020128827000      11.467947337000      17.922050055000
       184    1   0.000000       12.883439821000      12.020862623000      16.925921985000
       185    1   0.000000        8.447459552000       1.131329983000       9.562462574000
       186    1   0.000000        7.687797243000       2.240462637000      10.014480910000
       187    1   0.000000        6.324771173000       2.295497337000       9.595299945000
       188    1   0.000000        5.461460179000       2.848412623000      10.591428015000
       189    1   0.000000        8.447459552000      17.213570017000      17.954887426000
       190    1   0.000000        7.687797243000      16.104437363000      17.502869090000
       191    1   0.000000        6.324771173000      16.049402663000      17.922050055000
       192    1   0.000000        5.461460179000      15.496487377000      16.925921985000
       193    1   0.000000        4.196212426000       3.454895017000      13.033684552000
       194    1   0.000000        3.744194090000       2.345762363000      12.274022243000
       195    1   0.000000        4.163375055000       2.290727663000      10.910996173000
       196    1   0.000000        3.167246985000       1.737812377000      10.047685179000
       197    1   0.000000       14.148687574000       5.717554983000      13.033684552000
       198    1   0.000000       14.600705910000       6.826687637000      12.274022243000
       199    1   0.000000       14.181524945000       6.881722337000      10.910996173000
       200    1   0.000000       15.177653015000       7.434637623000      10.047685179000
       201    1   0.000000        4.196212426000      14.890004983000      14.483665448000
       202    1   0.000000        3.744194090000      15.999137637000      15.243327757000
       203    1   0.000000        4.163375055000      16.054172337000      16.606353827000
       204    1   0.000000        3.167246985000      16.607087623000      17.469664821000
       205    1   0.000000       14.148687574000      12.627345017000      14.483665448000
       206    1   0.000000       14.600705910000      11.518212363000      15.243327757000
       207    1   0.000000       14.181524945000      11.463177663000      16.606353827000
       208    1   0.000000       15.177653015000      10.910262377000      17.469664821000
       209    1   0.000000        4.976237574000       3.454895017000       5.311215448000
       210    1   0.000000        5.428255910000       2.345762363000       6.070877757000
       211    1   0.000000        5.009074945000       2.290727663000       7.433903827000
       212    1   0.000000        6.005203015000       1.737812377000       8.297214821000
       213    1   0.000000       13.368662426000       5.717554983000       5.311215448000
       214    1   0.000000       12.916644090000       6.826687637000       6.070877757000
       215    1   0.000000       13.335825055000       6.881722337000       7.433903827000
       216    1   0.000000       12.339696985000       7.434637623000       8.297214821000
       217    1   0.000000        4.976237574000      14.890004983000       3.861234552000
       218    1   0.000000        5.428255910000      15.999137637000       3.101572243000
       219    1   0.000000        5.009074945000      16.054172337000       1.738546173000
       220    1   0.000000        6.005203015000      16.607087623000       0.875235179000
       221    1   0.000000       13.368662426000      12.627345017000       3.861234552000
       222    1   0.000000       12.916644090000      11.518212363000       3.101572243000
       223    1   0.000000       13.335825055000      11.463177663000       1.738546173000
       224    1   0.000000       12.339696985000      10.910262377000       0.875235179000
       225    1   0.000000       13.033684552000       4.196212426000       3.454895017000
       226    1   0.000000       12.274022243000       3.744194090000       2.345762363000
       227    1   0.000000       10.910996173000       4.163375055000       2.290727663000
       228    1   0.000000       10.047685179000       3.167246985000       1.737812377000
       229    1   0.000000       13.033684552000      14.148687574000       5.717554983000
       230    1   0.000000       12.274022243000      14.600705910000       6.826687637000
       231    1   0.000000       10.910996173000      14.181524945000       6.881722337000
       232    1   0.000000       10.047685179000      15.177653015000       7.434637623000
       233    1   0.000000       14.483665448000       4.196212426000      14.890004983000
       234    1   0.000000       15.243327757000       3.744194090000      15.999137637000
       235    1   0.000000       16.606353827000       4.163375055000      16.054172337000
       236    1   0.000000       17.469664821000       3.167246985000      16.607087623000
       237    1   0.000000       14.483665448000      14.148687574000      12.627345017000
       238    1   0.000000       15.243327757000      14.600705910000      11.518212363000
       239    1   0.000000       16.606353827000      14.181524945000      11.463177663000
       240    1   0.000000       17.469664821000      15.177653015000      10.910262377000
       241    1   0.000000        5.311215448000       4.976237574000       3.454895017000
       242    1   0.000000        6.070877757000       5.428255910000       2.345762363000
       243    1   0.000000        7.433903827000       5.009074945000       2.290727663000
       244    1   0.000000        8.297214821000       6.005203015000       1.737812377000
       245    1   0.000000        5.311215448000      13.368662426000       5.717554983000
       246    1   0.000000        6.070877757000      12.916644090000       6.826687637000
       247    1   0.000000        7.433903827000      13.335825055000       6.881722337000
       248    1   0.000000        8.297214821000      12.339696985000       7.434637623000
       249    1   0.000000        3.861234552000       4.976237574000      14.890004983000
       250    1   0.000000        3.101572243000       5.428255910000      15.999137637000
       251    1   0.000000        1.738546173000       5.009074945000      16.054172337000
       252    1   0.000000        0.875235179000       6.005203015000      16.607087623000
       253    1   0.000000        3.861234552000      13.368662426000      12.627345017000
       254    1   0.000000        3.101572243000      12.916644090000      11.518212363000
       255    1   0.000000        1.738546173000      13.335825055000      11.463177663000
       256    1   0.000000        0.875235179000      12.339696985000      10.910262377000
       257    1   0.000000        3.454895017000      13.033684552000       4.196212426000
       258    1   0.000000        2.345762363000      12.274022243000       3.744194090000
       259    1   0.000000        2.290727663000      10.910996173000       4.163375055000
       260    1   0.000000        1.737812377000      10.047685179000       3.167246985000
       261    1   0.000000        5.717554983000      13.033684552000      14.148687574000
       262    1   0.000000        6.826687637000      12.274022243000      14.600705910000
       263    1   0.000000        6.881722337000      10.910996173000      14.181524945000
       264    1   0.000000        7.434637623000      10.047685179000      15.177653015000
       265    1   0.000000       14.890004983000      14.483665448000       4.196212426000
       266    1   0.000000       15.999137637000      15.243327757000       3.744194090000
       267    1   0.000000       16.054172337000      16.606353827000       4.163375055000
       268    1   0.000000       16.607087623000      17.469664821000       3.167246985000
       269    1   0.000000       12.627345017000      14.483665448000      14.148687574000
       270    1   0.000000       11.518212363000      15.243327757000      14.600705910000
       271    1   0.000000       11.463177663000      16.606353827000      14.181524945000
       272    1   0.000000       10.910262377000      17.469664821000      15.177653015000
       273    1   0.000000        3.454895017000       5.311215448000       4.976237574000
       274    1   0.000000        2.345762363000       6.070877757000       5.428255910000
       275    1   0.000000        2.290727663000       7.433903827000       5.009074945000
       276    1   0.000000        1.737812377000       8.297214821000       6.005203015000
       277    1   0.000000        5.717554983000       5.311215448000      13.368662426000
       278    1   0.000000        6.826687637000       6.070877757000      12.916644090000
       279    1   0.000000        6.881722337000       7.433903827000      13.335825055000
       280    1   0.000000        7.434637623000       8.297214821000      12.339696985000
       281    1   0.000000       14.890004983000       3.861234552000       4.976237574000
       282    1   0.000000       15.999137637000       3.101572243000       5.428255910000
       283    1   0.000000       16.054172337000       1.738546173000       5.009074945000
       284    1   0.000000       16.607087623000       0.875235179000       6.005203015000
       285    1   0.000000       12.627345017000       3.861234552000      13.368662426000
       286    1   0.000000       11.518212363000       3.101572243000      12.916644090000
       287    1   0.000000       11.463177663000       1.738546173000      13.335825055000
       288    1   0.000000       10.910262377000       0.875235179000      12.339696985000
       289    1   0.000000       10.303779983000       9.562462574000       0.724990448000
       290    1   0.000000       11.412912637000      10.014480910000       1.484652757000
       291    1   0.000000       11.467947337000       9.595299945000       2.847678827000
       292    1   0.000000       12.020862623000      10.591428015000       3.710989821000
       293    1   0.000000        8.041120017000      17.954887426000       0.724990448000
       294    1   0.000000        6.931987363000      17.502869090000       1.484652757000
       295    1   0.000000        6.876952663000      17.922050055000       2.847678827000
       296    1   0.000000        6.324037377000      16.925921985000       3.710989821000
       297    1   0.000000       17.213570017000       9.562462574000      17.619909552000
       298    1   0.000000       16.104437363000      10.014480910000      16.860247243000
       299    1   0.000000       16.049402663000       9.595299945000      15.497221173000
       300    1   0.000000       15.496487377000      10.591428015000      14.633910179000
       301    1   0.000000        1.131329983000      17.954887426000      17.619909552000
       302    1   0.000000        2.240462637000      17.502869090000      16.860247243000
       303    1   0.000000        2.295497337000      17.922050055000      15.497221173000
       304    1   0.000000        2.848412623000      16.925921985000      14.633910179000
       305    1   0.000000       10.303779983000       8.782437426000       8.447459552000
       306    1   0.000000       11.412912637000       8.330419090000       7.687797243000
       307    1   0.000000       11.467947337000       8.749600055000       6.324771173000
       308    1   0.000000       12.020862623000       7.753471985000       5.461460179000
       309    1   0.000000        8.041120017000       0.390012574000       8.447459552000
       310    1   0.000000        6.931987363000       0.842030910000       7.687797243000
       311    1   0.000000        6.876952663000       0.422849945000       6.324771173000
       312    1   0.000000        6.324037377000       1.418978015000       5.461460179000
       313    1   0.000000       17.213570017000       8.782437426000       9.897440448000
       314    1   0.000000       16.104437363000       8.330419090000      10.657102757000
       315    1   0.000000       16.049402663000       8.749600055000      12.020128827000
       316    1   0.000000       15.496487377000       7.753471985000      12.883439821000
       317    1   0.000000        1.131329983000       0.390012574000       9.897440448000
       318    1   0.000000        2.240462637000       0.842030910000      10.657102757000
       319    1   0.000000        2.295497337000       0.422849945000      12.020128827000
       320    1   0.000000        2.848412623000       1.418978015000      12.883439821000
       321    1   0.000000        9.562462574000       0.724990448000      10.303779983000
       322    1   0.000000       10.014480910000       1.484652757000      11.412912637000
       323    1   0.000000        9.595299945000       2.847678827000      11.467947337000
       324    1   0.000000       10.591428015000       3.710989821000      12.020862623000
       325    1   0.000000       17.954887426000       0.724990448000       8.041120017000
       326    1   0.000000       17.502869090000       1.484652757000       6.931987363000