 # C1
  
          48  atoms
           1  atom types
 
      0.000000000000       9.118500000000  xlo xhi
      0.000000000000       9.118500000000  ylo yhi
      0.000000000000       9.118500000000  zlo zhi
 
Masses
 
            1   12.01100000             # C
 
Atoms # charge
 
         1    1   0.000000        7.343219235000       8.355099180000       4.559250000000
         2    1   0.000000        1.775280765000       0.763400820000       4.559250000000
         3    1   0.000000        7.343219235000       0.763400820000       4.559250000000
         4    1   0.000000        1.775280765000       8.355099180000       4.559250000000
         5    1   0.000000        4.559250000000       7.343219235000       8.355099180000
         6    1   0.000000        4.559250000000       1.775280765000       0.763400820000
         7    1   0.000000        4.559250000000       7.343219235000       0.763400820000
         8    1   0.000000        4.559250000000       1.775280765000       8.355099180000
         9    1   0.000000        8.355099180000       4.559250000000       7.343219235000
        10    1   0.000000        0.763400820000       4.559250000000       1.775280765000
        11    1   0.000000        0.763400820000       4.559250000000       7.343219235000
        12    1   0.000000        8.355099180000       4.559250000000       1.775280765000
        13    1   0.000000        0.763400820000       1.775280765000       4.559250000000
        14    1   0.000000        8.355099180000       7.343219235000       4.559250000000
        15    1   0.000000        8.355099180000       1.775280765000       4.559250000000
        16    1   0.000000        0.763400820000       7.343219235000       4.559250000000
        17    1   0.000000        1.775280765000       4.559250000000       0.763400820000
        18    1   0.000000        7.343219235000       4.559250000000       8.355099180000
        19    1   0.000000        1.775280765000       4.559250000000       8.355099180000
        20    1   0.000000        7.343219235000       4.559250000000       0.763400820000
        21    1   0.000000        4.559250000000       0.763400820000       1.775280765000
        22    1   0.000000        4.559250000000       8.355099180000       7.343219235000
        23    1   0.000000        4.559250000000       8.355099180000       1.775280765000
        24    1   0.000000        4.559250000000       0.763400820000       7.343219235000
        25    1   0.000000        2.783969235000       3.795849180000       0.000000000000
        26    1   0.000000        6.334530765000       5.322650820000       0.000000000000
        27    1   0.000000        2.783969235000       5.322650820000       0.000000000000
        28    1   0.000000        6.334530765000       3.795849180000       0.000000000000
        29    1   0.000000        0.000000000000       2.783969235000       3.795849180000
        30    1   0.000000        0.000000000000       6.334530765000       5.322650820000
        31    1   0.000000        0.000000000000       2.783969235000       5.322650820000
        32    1   0.000000        0.000000000000       6.334530765000       3.795849180000
        33    1   0.000000        3.795849180000       0.000000000000       2.783969235000
        34    1   0.000000        5.322650820000       0.000000000000       6.334530765000
        35    1   0.000000        5.322650820000       0.000000000000       2.783969235000
        36    1   0.000000        3.795849180000       0.000000000000       6.334530765000
        37    1   0.000000        5.322650820000       6.334530765000       0.000000000000
        38    1   0.000000        3.795849180000       2.783969235000       0.000000000000
        39    1   0.000000        3.795849180000       6.334530765000       0.000000000000
        40    1   0.000000        5.322650820000       2.783969235000       0.000000000000
        41    1   0.000000        6.334530765000       0.000000000000       5.322650820000
        42    1   0.000000        2.783969235000       0.000000000000       3.795849180000
        43    1   0.000000        6.334530765000       0.000000000000       3.795849180000
        44    1   0.000000        2.783969235000       0.000000000000       5.322650820000
        45    1   0.000000        0.000000000000       5.322650820000       6.334530765000
        46    1   0.000000        0.000000000000       3.795849180000       2.783969235000
        47    1   0.000000        0.000000000000       3.795849180000       6.334530765000
        48    1   0.000000        0.000000000000       5.322650820000       2.783969235000
