 # File generated with Atomsk by ana on 2024-01-23 16:05:55
  
         672  atoms
           1  atom types
 
      0.000000000000      21.929738283000  xlo xhi
      0.000000000000      21.929139162612  ylo yhi
      0.000000000000      21.927959568123  zlo zhi
      0.000847791070       0.001093025235      -0.000232770731  xy xz yz
 
Masses
 
            1   12.01100000             # C
 
Atoms # charge
 
         1    1   0.000000        2.477415941031       0.102582570814       5.315001169329
         2    1   0.000000       19.506964981238      21.765520819563       5.290052255495
         3    1   0.000000       19.502886614229       0.120050965982      16.786950318390
         4    1   0.000000        2.473695159220      21.771608982239      16.790152757935
         5    1   0.000000        5.231359456662       2.429673563228       0.222827490887
         6    1   0.000000        5.240257211656      19.459487213337      21.874311499363
         7    1   0.000000       16.738578761872      19.460459487078       0.212778017859
         8    1   0.000000       16.741100026621       2.430590363039      21.866341004569
         9    1   0.000000        0.165331529459       5.193342203781       2.525677944762
        10    1   0.000000       21.814077853172       5.197139974874      19.553755217080
        11    1   0.000000        0.165873346551      16.697764616242      19.554775151890
        12    1   0.000000       21.814271300957      16.691008048823       2.526524438139
        13    1   0.000000        3.054893108111       5.327224013036       0.339591800657
        14    1   0.000000        7.954061578005       5.600740102589       0.341718509168
        15    1   0.000000        7.956115004616       5.325961130062      10.776100485576
        16    1   0.000000        3.055377366947       5.603529208279      10.776545209721
        17    1   0.000000        0.301797887273       3.005148020679       5.417861903325
        18    1   0.000000        0.291468728847       7.908425062393       5.694921818607
        19    1   0.000000       10.719360877942       7.913741287995       5.418642976024
        20    1   0.000000       10.721881953477       3.014846223989       5.695334042972
        21    1   0.000000        5.361814186645       0.248465112181       3.120707768763
        22    1   0.000000        5.653176154469       0.251587198625       8.020057703753
        23    1   0.000000        5.365746262097      10.678134855947       8.007065243349
        24    1   0.000000        5.644414284663      10.679173907671       3.107407448217
        25    1   0.000000        2.473859292742      11.085776436834      16.256183641025
        26    1   0.000000       19.503570993989      10.807785108171      16.255529404470
        27    1   0.000000       19.501875478693      11.078586389162       5.819524439177
        28    1   0.000000        2.472168193325      10.804207967969       5.824315518134
        29    1   0.000000        5.238122708311      13.396579476607      11.176946968322
        30    1   0.000000        5.237929325702       8.496843889103      10.901576325914
        31    1   0.000000       16.738824710952       8.495048963919      11.176264078702
        32    1   0.000000       16.739914025984      13.394326929651      10.899528127795
        33    1   0.000000        0.163892571097      16.161873185996      13.488848298521
        34    1   0.000000       21.810034331665      16.156226260962       8.589219441058
        35    1   0.000000        0.163863059440       5.728055333179       8.589644000949
        36    1   0.000000       21.812853859819       5.732421470208      13.489293120365
        37    1   0.000000        3.056550798390      16.291680664897      11.303750510460
        38    1   0.000000        7.957178580426      16.565615510430      11.304723172402
        39    1   0.000000        7.957292914156      16.289275515238      21.738453059019
        40    1   0.000000        3.057742111073      16.566507865350      21.740595460986
        41    1   0.000000        0.291667454121      13.979502425812      16.383315477818
        42    1   0.000000        0.291249075969      18.878908585976      16.659445322854
        43    1   0.000000       10.718398681969      18.879275317152      16.383210258436
        44    1   0.000000       10.720512909759      13.979306750295      16.658965796056
        45    1   0.000000        5.366174760512      11.214089588330      14.071355335943
        46    1   0.000000        5.646202898732      11.213622059580      18.970845536280
        47    1   0.000000        5.364041209849      21.641925922610      18.979341116667
        48    1   0.000000        5.646501904727      21.644786718474      14.079272529693
        49    1   0.000000       13.437937768033       0.120162494476      16.256280220533
        50    1   0.000000        8.538336436317      21.775599319756      16.262749643906
        51    1   0.000000        8.540739332501       0.122432457508       5.828934100821
        52    1   0.000000       13.440758567271      21.773729632945       5.821003695414
        53    1   0.000000       16.203323349712       2.431023385994      11.177199121108
        54    1   0.000000       16.201996220821      19.460052552772      10.901158956928
        55    1   0.000000        5.780216719761      19.462792516937      11.184191430812
        56    1   0.000000        5.772707422516       2.433511443642      10.913132392387
        57    1   0.000000       11.129463572848       5.197279403835      13.490082499059
        58    1   0.000000       10.848191765693       5.196152955326       8.589991423601
        59    1   0.000000       11.129702766226      16.694589070128       8.589439493258
        60    1   0.000000       10.848645441858      16.695578400985      13.489382922270
        61    1   0.000000       14.021041582219       5.325245703888      11.304754707490
        62    1   0.000000       18.920903560216       5.601169968420      11.304465389015
        63    1   0.000000       18.922007198759       5.325138510819      21.739258061934
        64    1   0.000000       14.021373126536       5.601299575981      21.738486917376
        65    1   0.000000       11.257983385664       3.015330637145      16.384961378772
        66    1   0.000000       11.257552126683       7.914795628726      16.659884542821
        67    1   0.000000       21.685793767216       7.914238482478      16.383788382172
        68    1   0.000000       21.685392043648       3.014227887182      16.660290432671
        69    1   0.000000       16.330451606216       0.248789298084      14.071301653637
        70    1   0.000000       16.610823657925       0.248381132543      18.971154285248
        71    1   0.000000       16.331049802162      10.678818249285      18.969464539236
        72    1   0.000000       16.611779710125      10.678315943960      14.069783602970
        73    1   0.000000       13.437379561118      11.084411295029       5.290377630763
        74    1   0.000000        8.537323557351      10.807851125984       5.291845325423
        75    1   0.000000        8.538885453733      11.084665813765      16.786964832606
        76    1   0.000000       13.438976333351      10.809237842155      16.784875728458
        77    1   0.000000       16.202298525520      13.396159740312       0.211760157859
        78    1   0.000000       16.201932130003       8.496106647816      21.863523783308
        79    1   0.000000        5.773099264161       8.496367050232       0.213365030913
        80    1   0.000000        5.774830511539      13.395935920504      21.864771816910
        81    1   0.000000       11.127974524735      16.161564959530       2.524463863756
        82    1   0.000000       10.848978857969      16.161688947002      19.552856131002
        83    1   0.000000       11.129269206826       5.731155246388      19.553720261314
        84    1   0.000000       10.846811154060       5.729997989745       2.525158485940
        85    1   0.000000       14.020773926093      16.290683050666       0.339895589323
        86    1   0.000000       18.921589727899      16.566849263939       0.341528452553
        87    1   0.000000       18.920225878670      16.289114054433      10.775760129827
        88    1   0.000000       14.021081639994      16.565328853668      10.774378756274
        89    1   0.000000       11.256224995964      13.978911408936       5.418470542219
        90    1   0.000000       11.258340915427      18.879273633461       5.696606962917
        91    1   0.000000       21.683302858264      18.868291774752       5.423115707085
        92    1   0.000000       21.683896910935      13.971755781314       5.695389823320
        93    1   0.000000       16.329045874493      11.212482087853       3.105133595506
        94    1   0.000000       16.610560968123      11.211477935508       8.005045174687
        95    1   0.000000       16.331541310917      21.642341983754       8.006369859266
        96    1   0.000000       16.613157293466      21.642431782721       3.106858708252
        97    1   0.000000       21.742558101991       0.633253162560       4.959359648748
        98    1   0.000000        0.245069726290      21.237301292175       4.966442866176
        99    1   0.000000        0.239680847181       0.644260837624      17.125313918464
       100    1   0.000000       21.736978304688      21.249011394067      17.124743207020
       101    1   0.000000        4.897941325752      21.691867620150       0.748814878618
       102    1   0.000000        4.897028416639       0.195541060494      21.351732123512
       103    1   0.000000       17.078026906662       0.197283620750       0.737230508404
       104    1   0.000000       17.078640042552      21.693515045512      21.340788769856
       105    1   0.000000        0.686143822949       4.859550706500      21.786226260488
       106    1   0.000000       21.290926621293       4.858781602910       0.293011241303
       107    1   0.000000        0.686767411018      17.033839998018       0.294876558261
       108    1   0.000000       21.293497698190      17.034120536265      21.788192992619
       109    1   0.000000        5.720341151517       4.801486666669       0.680005210577
       110    1   0.000000        5.288114034157       6.126295537063       0.677630096730
       111    1   0.000000        5.288854068184       4.802105680755      10.442530788086
       112    1   0.000000        5.722411021031       6.126467950369      10.439109644559
       113    1   0.000000        0.632967722230       5.674653835055       4.895320025490
       114    1   0.000000        0.632913624684       5.240925057901       6.219820978019
       115    1   0.000000       10.381854127003       5.247397990257       4.895426369239
       116    1   0.000000       10.382364751879       5.680589645305       6.219720697988
       117    1   0.000000        4.846069614266       0.580984806652       5.789375316975
       118    1   0.000000        6.169403605742       0.587844267369       5.351886478964
       119    1   0.000000        4.842938093568      10.340704346006       5.340315521300
       120    1   0.000000        6.167183707696      10.340978998941       5.774190651245
       121    1   0.000000       21.736894700699      11.609028033878      15.919420861721
       122    1   0.000000        0.240568126893      10.284647341796      15.919638097920
       123    1   0.000000        0.238467586976      11.602909190636       6.161241797004
       124    1   0.000000       21.735379023936      10.278497466456       6.159533462175
       125    1   0.000000        4.900320463544      10.730046916525      11.701616226022
       126    1   0.000000        4.900477425720      11.162892821961      10.377194452680
       127    1   0.000000       17.078306965701      11.161217898799      11.699545852424
       128    1   0.000000       17.077467036535      10.727936305270      10.375175636728
       129    1   0.000000        0.685786726280      15.824568004401      10.821606359168
       130    1   0.000000       21.291468639074      15.823674157333      11.256450926220
       131    1   0.000000        0.685122209897       6.069831367277      11.256583924112
       132    1   0.000000       21.290954561524       6.068179283746      10.822066145399
       133    1   0.000000        5.723273346491      15.766592182595      11.640853041205
       134    1   0.000000        5.290674730671      17.091348188798      11.641876239363
       135    1   0.000000        5.290740322914      15.766153095771      21.401299050952
       136    1   0.000000        5.723967223464      17.090509460950      21.403647058381
       137    1   0.000000        0.629089317526      16.645769092951      15.859388588659
       138    1   0.000000        0.629653266314      16.212699276094      17.183862697866
       139    1   0.000000       10.381423528947      16.212630997913      15.859003768106
       140    1   0.000000       10.381190004480      16.645704811406      17.183365223191
       141    1   0.000000        4.844401415946      11.551312740269      16.738191840585
       142    1   0.000000        6.168567901700      11.550614751520      16.304049063527
       143    1   0.000000        4.843637396519      21.305125826754      16.310521863688
       144    1   0.000000        6.167520457896      21.307386644663      16.745563655757
       145    1   0.000000       10.771383847253       0.644954351441      15.922536546033
       146    1   0.000000       11.204721322894      21.249424600856      15.921015268835
       147    1   0.000000       11.207244463517       0.645056037467       6.159738195417
       148    1   0.000000       10.775054550203      21.249764123368       6.161333210707
       149    1   0.000000       15.865561674224      21.693679961565      11.701191924849
       150    1   0.000000       15.865194323821       0.197650153591      10.376723122704
       151    1   0.000000        6.116293511821       0.200169758961      11.712307502106
       152    1   0.000000        6.121780767615      21.697238400587      10.388234686513
       153    1   0.000000       11.650444462026       4.858937565455      10.822805069980
       154    1   0.000000       10.326393500700       4.859128952543      11.257571520863
       155    1   0.000000       11.651532976899      17.031331356388      11.256878610617
       156    1   0.000000       10.327617657456      17.030852943565      10.822546133584
       157    1   0.000000       16.687684064252       4.800857178759      11.642260817154
       158    1   0.000000       16.254533629556       6.125285525495      11.642139336275
       159    1   0.000000       16.255522745211       4.800820039000      21.403014190827
       160    1   0.000000       16.688373155013       6.125397103287      21.402120541648
       161    1   0.000000       11.596741875365       5.681481108723      15.860085203781
       162    1   0.000000       11.597133449790       5.248533807247      17.184445003673
       163    1   0.000000       21.347934422711       5.247590817131      15.859511935583
       164    1   0.000000       21.348209960524       5.680785395561      17.183867009823
       165    1   0.000000       15.808390311432       0.585620940382      16.738368395128
       166    1   0.000000       17.132499590419       0.585599584288      16.304079943947
       167    1   0.000000       15.809277816910      10.341922161931      16.302641553710
       168    1   0.000000       17.133367496266      10.341039356200      16.737032499679
       169    1   0.000000       10.770811483368      11.608481829999       4.954627673924
       170    1   0.000000       11.203875658083      10.283973375779       4.954279573912
       171    1   0.000000       11.205547925942      11.609326117480      17.123407693061
       172    1   0.000000       10.772511811235      10.284844731029      17.123994572836
       173    1   0.000000       15.862415890317      10.729636068677       0.735520564904
       174    1   0.000000       15.864387422670      11.162682125819      21.339232158258
       175    1   0.000000        6.111118058223      11.162998721833       0.737395139678
       176    1   0.000000        6.112348102266      10.729530854315      21.340992383433
       177    1   0.000000       11.651624558578      15.824014770996      21.785351882561
       178    1   0.000000       10.326459342274      15.823338639121       0.291718862156
       179    1   0.000000       11.649045395679       6.066555615922       0.292494647327
       180    1   0.000000       10.325882583162       6.065955110581      21.786230653082
       181    1   0.000000       16.687768534340      15.766000700655       0.677376985139
       182    1   0.000000       16.254467060069      17.090486861552       0.677720119582
       183    1   0.000000       16.253956216868      15.764803922152      10.437717189904
       184    1   0.000000       16.686685512539      17.089254911311      10.438834976406
       185    1   0.000000       11.594203149341      16.645757130935       4.894849622868
       186    1   0.000000       11.594944995129      16.212046169771       6.219116424767
       187    1   0.000000       21.344466908347      16.204125291079       4.895669877718
       188    1   0.000000       21.340774167175      16.635946713985       6.220144446732
       189    1   0.000000       15.808104972174      11.549192447790       5.772309035925
       190    1   0.000000       17.132149557727      11.547535480022       5.337707013894
       191    1   0.000000       15.810737158094      21.306258969649       5.339069674179
       192    1   0.000000       17.134773930817      21.304810399911       5.773468637771
       193    1   0.000000        0.684219312338       1.640495794685       5.424926027190
       194    1   0.000000       21.299777469327      20.232204893210       5.424189927840
       195    1   0.000000       21.298911617814       1.651027492700      16.660526690863
       196    1   0.000000        0.677462729172      20.242211553541      16.660011151011
       197    1   0.000000        5.358442973968       0.634730494361       1.756694869762
       198    1   0.000000        5.364000832284      21.255710094568      20.343346328847
       199    1   0.000000       16.613186815706      21.256116292456       1.743594210955
       200    1   0.000000       16.612684326777       0.635162833045      20.334487002848
       201    1   0.000000        1.692034231872       5.325646075552       0.727201285542
       202    1   0.000000       20.284858164416       5.324497492154      21.351600402767
       203    1   0.000000        1.694904969515      16.568589261057      21.352555654997
       204    1   0.000000       20.284691881551      16.567195740862       0.728756480726
       205    1   0.000000        4.848781200333       3.794048171384       0.218156581458
       206    1   0.000000        6.159008942118       7.132825832673       0.213444823923
       207    1   0.000000        6.159141270714       3.796749420586      10.909720813318
       208    1   0.000000        4.851644137839       7.133715927250      10.902180120974
       209    1   0.000000        0.170137637853       4.803277289967       3.888294789205
       210    1   0.000000        0.164589658931       6.111860204197       7.225462281743
       211    1   0.000000       10.846112476018       6.117551054485       3.888199177608
       212    1   0.000000       10.848033800316       4.810499038394       7.226415774689
       213    1   0.000000        3.839803261909       0.107767000065       4.924189539892
       214    1   0.000000        7.179057793937       0.125194520039       6.219970607211
       215    1   0.000000        3.835515140979      10.804788475187       6.210475968383
       216    1   0.000000        7.174188173626      10.806865069651       4.904620031719
       217    1   0.000000        0.677567967227      12.616100927763      16.383587481957
       218    1   0.000000       21.299763378660       9.277646166524      16.383730913564
       219    1   0.000000       21.297670912002      12.608881695764       5.694868997663
       220    1   0.000000        0.676770904988       9.272154159662       5.695661326601
       221    1   0.000000        5.365193406750      11.600725560650      12.708051375785
       222    1   0.000000        5.365398518056      10.292305782688       9.370570599646
       223    1   0.000000       16.612701692102      10.291428442552      12.706540851631
       224    1   0.000000       16.612248032404      11.598380962638       9.368360127303
       225    1   0.000000        1.693126557672      16.290934690557      11.690721551898
       226    1   0.000000       20.283023276369      16.287320889167      10.387570699959
       227    1   0.000000        1.692825813143       5.604244012727      10.387792805238
       228    1   0.000000       20.283853214940       5.602791617114      11.691779132912
       229    1   0.000000        4.852205634775      14.760130043445      11.176308146470
       230    1   0.000000        6.162833630590      18.098457396604      11.180284268250
       231    1   0.000000        6.161266484705      14.759047108105      21.864768344264
       232    1   0.000000        4.854210644337      18.096187723008      21.871756858056
       233    1   0.000000        0.164375948553      15.775462509116      14.852340785961
       234    1   0.000000        0.165719803385      17.083340161427      18.191040312640
       235    1   0.000000       10.846548151424      17.083229441015      14.852420147310
       236    1   0.000000       10.847651895838      15.775386942640      18.189533833965
       237    1   0.000000        3.836837364958      11.086620632131      15.868722185183
       238    1   0.000000        7.175631821394      11.085093582959      17.173712028358
       239    1   0.000000        3.835948896755      21.769368475424      17.179910028843
       240    1   0.000000        7.174761404275      21.774872334230      15.876928781487
       241    1   0.000000       11.642880826148       1.651632081775      16.385240318020
       242    1   0.000000       10.333344883671      20.242929323668      16.385311243353
       243    1   0.000000       10.336251945043       1.651572966857       5.696026040236
       244    1   0.000000       11.644749000929      20.242611417768       5.696260332118
       245    1   0.000000       16.330061134903       0.635071724260      12.707860965188
       246    1   0.000000       16.330187596359      21.255908607587       9.369851584218
       247    1   0.000000        5.650081743826      21.257672621339      12.716419207799
       248    1   0.000000        5.653649063597       0.638509683020       9.382481641886
       249    1   0.000000       12.657926429159       5.324659895242      11.691958334528
       250    1   0.000000        9.318932024871       5.324428983498      10.387936564682
       251    1   0.000000       12.658285843816      16.565933534538      10.386997477197
       252    1   0.000000        9.320204812747      16.566053668634      11.691785940743
       253    1   0.000000       15.817041362275       3.794335498339      11.177583880852
       254    1   0.000000       17.124900568372       7.131803579518      11.176995746006
       255    1   0.000000       17.126610033368       3.794178061782      21.867584117859
       256    1   0.000000       15.816913178362       7.132481307009      21.864720678840
       257    1   0.000000       11.131346195975       4.811147043658      14.853577326289
       258    1   0.000000       11.131048562795       6.118823433202      18.190767451790
       259    1   0.000000       21.812508631665       6.118404950949      14.852758346609
       260    1   0.000000       21.813432873528       4.810440498154      18.190495103605
       261    1   0.000000       14.800943494368       0.120746251280      15.868738797701
       262    1   0.000000       18.139697102888       0.120309489818      17.173678510792
       263    1   0.000000       14.802094805176      10.807950169393      17.171907298715
       264    1   0.000000       18.140714331241      10.806243834684      15.867570436844
       265    1   0.000000       11.641677276080      12.615345059351       5.418492423043
       266    1   0.000000       10.333274407381       9.277124217033       5.418682500408
       267    1   0.000000       10.334546382778      12.615948276075      16.659322708059
       268    1   0.000000       11.643125406816       9.278247184081      16.659104532998
       269    1   0.000000       16.327992965854      11.599811404727       1.742117928769
       270    1   0.000000       16.329702593702      10.292196245568      20.332721466328
       271    1   0.000000        5.645480476784      10.292795310209       1.743969106904
       272    1   0.000000        5.647207624663      11.600045741943      20.334193464883
       273    1   0.000000       12.657579509961      16.289881228732       0.726971787187
       274    1   0.000000        9.320018110848      16.288311501755      21.350472206135
       275    1   0.000000       12.658138781794       5.602153008479      21.351166457446
       276    1   0.000000        9.317436238231       5.600740916571       0.727987402480
       277    1   0.000000       15.816818993703      14.759731965101       0.212201351682
       278    1   0.000000       17.125091089426      18.097257579652       0.213454305594
       279    1   0.000000       17.124871933660      14.757916025090      10.901088544274
       280    1   0.000000       15.816136894298      18.096578972270      10.901960092477
       281    1   0.000000       11.128680236140      15.775474704946       3.888003561529
       282    1   0.000000       11.130801933252      17.082354036884       7.226408715628
       283    1   0.000000       21.812031285729      17.074678030162       3.890629114082
       284    1   0.000000       21.807412531999      15.766841174739       7.226894010461
       285    1   0.000000       14.800278140188      11.084973241908       4.902825360755
       286    1   0.000000       18.138828240853      11.080632836905       6.206897561627
       287    1   0.000000       14.803682241299      21.772377919867       6.208408662056
       288    1   0.000000       18.143359417473      21.768075602902       4.903958951912
       289    1   0.000000       19.821388538709       1.759207256857       3.762184954313
       290    1   0.000000        2.169795408881      20.110846843947       3.782199184984
       291    1   0.000000        2.162108011287       1.766103075761      18.318071056411
       292    1   0.000000       19.814679549749      20.125132508751      18.314665336271
       293    1   0.000000        3.714630220900      19.764845593547       1.874869461365
       294    1   0.000000        3.708134305329       2.118327326769      20.223511384050
       295    1   0.000000       18.269188644509       2.118785225890       1.862074042101
       296    1   0.000000       18.267046102580      19.770348589607      20.216931642442
       297    1   0.000000        1.808799060393       3.669661840255      19.863722970313
       298    1   0.000000       20.172203547143       3.664908596134       2.216792335453
       299    1   0.000000        1.811422638080      18.216416818209       2.224035056962
       300    1   0.000000       20.170460948847      18.223742233376      19.863919558810
       301    1   0.000000        7.641688646304       3.677583126786       1.872134288150
       302    1   0.000000        3.365322153433       7.250538264481       1.867161631424
       303    1   0.000000        3.366284872831       3.676398496266       9.253883529015
       304    1   0.000000        7.644819573860       7.248750870616       9.246497576465
       305    1   0.000000        1.818977788282       7.601121446792       3.771295469760
       306    1   0.000000        1.821253910287       3.318736061075       7.348908778827
       307    1   0.000000        9.191810752292       3.323869799591       3.773019736870
       308    1   0.000000        9.192759004216       7.603279528981       7.343791712249
       309    1   0.000000        3.722224154504       1.770447346252       7.711526658552
       310    1   0.000000        7.286596449786       1.777865359706       3.424693032529
       311    1   0.000000        3.719779730786       9.151624240693       3.416362212803
       312    1   0.000000        7.290284327058       9.151099732689       7.697918558688
       313    1   0.000000       19.814539933727      12.731568117538      14.727673884507
       314    1   0.000000        2.162979009139       9.161572860443      14.728802132749
       315    1   0.000000        2.161247175390      12.728059547793       7.351941472400
       316    1   0.000000       19.812261176509       9.155156559466       7.347746161359
       317    1   0.000000        3.710640162381       8.807635217914      12.826082934165
       318    1   0.000000        3.710416822736      13.085399708759       9.253075924268
       319    1   0.000000       18.267262471125      13.084379544580      12.824361358763
       320    1   0.000000       18.265280736550       8.803455528315       9.251166582435
       321    1   0.000000        1.807304410058      14.632242756706       8.898374337060
       322    1   0.000000       20.168971390551      14.633781697551      13.179634100921
       323    1   0.000000        1.807755967191       7.259840198109      13.180225886111
       324    1   0.000000       20.167626830354       7.254540005956       8.897141385051
       325    1   0.000000        7.645913833327      14.642187579344      12.831891337401