 # C1
  
          32  atoms
           1  atom types
 
      0.000000000000      21.789400000000  xlo xhi
      0.000000000000       9.172900000000  ylo yhi
      0.000000000000       2.478900000000  zlo zhi
 
Masses
 
            1   12.01100000             # C
 
Atoms # charge
 
         1    1   0.000000       18.187612180000       4.586450000000       0.000000000000
         2    1   0.000000       19.012776758000       4.586450000000       1.239450000000
         3    1   0.000000       20.370692166000       4.586450000000       1.239450000000
         4    1   0.000000       17.216240728000       5.773056344000       0.000000000000
         5    1   0.000000       16.782631668000       6.306093563000       1.239450000000
         6    1   0.000000       21.103033900000       4.586450000000       0.000000000000
         7    1   0.000000        3.601787820000       4.586450000000       0.000000000000
         8    1   0.000000        2.776623242000       4.586450000000       1.239450000000
         9    1   0.000000        1.418707834000       4.586450000000       1.239450000000
        10    1   0.000000        4.573159272000       3.399843656000       0.000000000000
        11    1   0.000000        5.006768332000       2.866806437000       1.239450000000
        12    1   0.000000        0.686366100000       4.586450000000       0.000000000000
        13    1   0.000000       17.216240728000       3.399843656000       0.000000000000
        14    1   0.000000       16.782631668000       2.866806437000       1.239450000000
        15    1   0.000000        4.573159272000       5.773056344000       0.000000000000
        16    1   0.000000        5.006768332000       6.306093563000       1.239450000000
        17    1   0.000000        7.292912180000       0.000000000000       0.000000000000
        18    1   0.000000        8.118076758000       0.000000000000       1.239450000000
        19    1   0.000000        9.475992166000       0.000000000000       1.239450000000
        20    1   0.000000        6.321540728000       1.186606344000       0.000000000000
        21    1   0.000000        5.887931668000       1.719643563000       1.239450000000
        22    1   0.000000       10.208333900000       0.000000000000       0.000000000000
        23    1   0.000000       14.496487820000       0.000000000000       0.000000000000
        24    1   0.000000       13.671323242000       0.000000000000       1.239450000000
        25    1   0.000000       12.313407834000       0.000000000000       1.239450000000
        26    1   0.000000       15.467859272000       7.986293656000       0.000000000000
        27    1   0.000000       15.901468332000       7.453256437000       1.239450000000
        28    1   0.000000       11.581066100000       0.000000000000       0.000000000000
        29    1   0.000000        6.321540728000       7.986293656000       0.000000000000
        30    1   0.000000        5.887931668000       7.453256437000       1.239450000000
        31    1   0.000000       15.467859272000       1.186606344000       0.000000000000
        32    1   0.000000       15.901468332000       1.719643563000       1.239450000000
