ITEM: TIMESTEP
0
ITEM: NUMBER OF ATOMS
42
ITEM: BOX BOUNDS pp pp pp
0.0000000000000000e+00 9.8979999999999997e+00
0.0000000000000000e+00 9.8979999999999997e+00
0.0000000000000000e+00 9.8979999999999997e+00
ITEM: ATOMS id type x y z 
1 1 1.091 1.091 1.091 
2 1 0.2 0.2 0.2 
3 1 1.982 1.982 0.2 
4 1 0.2 1.982 1.982 
5 1 1.982 0.2 1.982 
41 2 2.125 1.619 1.802 
42 3 3.101 1.619 1.802 
11 1 3.566 3.566 8.515 
12 1 2.675 2.675 9.406 
13 1 4.456 4.456 9.405 
14 1 4.457 2.675 7.624 
15 1 2.675 4.457 7.624 
16 1 3.566 8.515 3.566 
17 1 2.675 9.406 2.675 
18 1 4.457 7.624 2.675 
19 1 4.456 9.405 4.456 
20 1 2.675 7.624 4.457 
31 1 1.091 6.04 6.04 
32 1 0.2 5.149 5.149 
33 1 1.982 6.931 5.149 
34 1 0.2 6.931 6.931 
35 1 1.982 5.149 6.931 
26 1 8.515 3.566 3.566 
27 1 9.406 2.675 2.675 
28 1 7.624 4.457 2.675 
29 1 7.624 2.675 4.457 
30 1 9.405 4.456 4.456 
36 1 6.04 1.091 6.04 
37 1 6.931 0.2 6.931 
38 1 5.149 0.2 5.149 
39 1 5.149 1.982 6.931 
40 1 6.931 1.982 5.149 
21 1 6.04 6.04 1.091 
22 1 5.149 6.931 1.982 
23 1 6.931 5.149 1.982 
24 1 5.149 5.149 0.2 
25 1 6.931 6.931 0.2 
6 1 8.515 8.515 8.515 
7 1 9.405 9.405 9.405 
8 1 7.624 7.624 9.406 
9 1 7.624 9.406 7.624 
10 1 9.406 7.624 7.624 
ITEM: TIMESTEP
10
ITEM: NUMBER OF ATOMS
42
ITEM: BOX BOUNDS pp pp pp
0.0000000000000000e+00 9.8979999999999997e+00
0.0000000000000000e+00 9.8979999999999997e+00
0.0000000000000000e+00 9.8979999999999997e+00
ITEM: ATOMS id type x y z 
1 1 1.05891 1.08371 1.07282 
2 1 0.183094 0.185653 0.182625 
3 1 1.97154 2.00748 0.111279 
4 1 0.16412 2.00347 2.00119 
5 1 2.01543 0.105023 1.98849 
41 2 2.18164 1.85732 1.80045 
42 3 3.06568 1.5207 1.86756 
11 1 3.58006 3.57919 8.50299 
12 1 2.67203 2.6822 9.38794 
13 1 4.46325 4.46283 9.40964 
14 1 4.46331 2.67136 7.61758 
15 1 2.6723 4.46311 7.61743 
16 1 3.586 8.49665 3.58989 
17 1 2.7065 9.34053 2.69265 
18 1 4.46264 7.61918 2.6751 
19 1 4.4615 9.40784 4.4623 
20 1 2.67409 7.61898 4.46346 
31 1 1.08908 6.03706 6.04301 
32 1 0.198221 5.14786 5.14808 
33 1 1.97508 6.92322 5.15591 
34 1 0.200218 6.93056 6.93054 
35 1 1.98446 5.14616 6.93363 
26 1 8.50336 3.57698 3.57763 
27 1 9.39736 2.67961 2.67989 
28 1 7.6182 4.46188 2.67296 
29 1 7.61867 2.67289 4.46172 
30 1 9.40772 4.46154 4.46198 
36 1 6.04195 1.09385 6.04255 
37 1 6.93091 0.200566 6.93132 
38 1 5.15665 0.207356 5.15691 
39 1 5.14677 1.9853 6.93362 
40 1 6.93199 1.98404 5.14847 
21 1 6.04165 6.03711 1.08809 
22 1 5.15501 6.92423 1.97622 
23 1 6.9325 5.14811 1.98321 
24 1 5.14623 5.14649 0.197055 
25 1 6.93034 6.9302 0.199728 
6 1 8.50732 8.50679 8.50735 
7 1 9.39778 9.39877 9.39731 
8 1 7.62162 7.62155 9.40572 
9 1 7.62162 9.40498 7.6217 
10 1 9.40518 7.62168 7.62196 
ITEM: TIMESTEP
20
ITEM: NUMBER OF ATOMS
42
ITEM: BOX BOUNDS pp pp pp
0.0000000000000000e+00 9.8979999999999997e+00
0.0000000000000000e+00 9.8979999999999997e+00
0.0000000000000000e+00 9.8979999999999997e+00
ITEM: ATOMS id type x y z 
1 1 1.00629 1.08843 1.03784 
2 1 0.18364 0.19846 0.194412 
3 1 1.92319 1.9783 0.114589 
4 1 0.174079 1.97317 1.96963 
5 1 2.03455 0.125838 1.97263 
41 2 2.26143 1.96273 1.86987 
42 3 3.06453 1.46889 1.89469 
11 1 3.57798 3.57699 8.50574 
12 1 2.66508 2.68195 9.37322 
13 1 4.4589 4.45854 9.40296 
14 1 4.45944 2.67891 7.62225 
15 1 2.68004 4.45948 7.6216 
16 1 3.58075 8.49764 3.58616 
17 1 2.69984 9.33609 2.68735 
18 1 4.46762 7.61313 2.67406 
19 1 4.46638 9.41022 4.46794 
20 1 2.6721 7.6128 4.46914 
31 1 1.08742 6.03593 6.04356 
32 1 0.199469 5.15044 5.1513 
33 1 1.97741 6.92346 5.15549 
34 1 0.20061 6.92814 6.92896 
35 1 1.98116 5.14986 6.92958 
26 1 8.50902 3.57235 3.5726 
27 1 9.40165 2.67516 2.67536 
28 1 7.62194 4.45836 2.67892 
29 1 7.62245 2.67874 4.45837 
30 1 9.40182 4.45779 4.45821 
36 1 6.04316 1.09512 6.04341 
37 1 6.92944 0.202339 6.92993 
38 1 5.15626 0.205509 5.15551 
39 1 5.15125 1.98243 6.92935 
40 1 6.92943 1.98315 5.1512 
21 1 6.04281 6.03658 1.0877 
22 1 5.15453 6.92463 1.97875 
23 1 6.92961 5.14987 1.98139 
24 1 5.15158 5.15135 0.200743 
25 1 6.92863 6.92792 0.200547 
6 1 8.51102 8.5099 8.51024 
7 1 9.38941 9.38839 9.38833 
8 1 7.62059 7.61996 9.40522 
9 1 7.62036 9.40488 7.62064 
10 1 9.40512 7.62015 7.62061 
ITEM: TIMESTEP
30
ITEM: NUMBER OF ATOMS
42
ITEM: BOX BOUNDS pp pp pp
0.0000000000000000e+00 9.8979999999999997e+00
0.0000000000000000e+00 9.8979999999999997e+00
0.0000000000000000e+00 9.8979999999999997e+00
ITEM: ATOMS id type x y z 
1 1 1.00578 1.1155 1.00621 
2 1 0.173598 0.210303 0.188275 
3 1 1.87811 1.97185 0.0909411 
4 1 0.164772 1.9658 1.93942 
5 1 2.13146 0.177223 1.963 
41 2 2.38085 2.12436 1.96079 
42 3 2.9963 1.3806 1.94024 
11 1 3.56065 3.5573 8.52074 
12 1 2.61719 2.66454 9.3493 
13 1 4.45277 4.45406 9.4053 
14 1 4.4558 2.67903 7.62665 
15 1 2.68148 4.45595 7.62661 
16 1 3.5531 8.51 3.56476 
17 1 2.70146 9.28966 2.6916 
18 1 4.46529 7.61368 2.67795 
19 1 4.46272 9.40779 4.46237 
20 1 2.67158 7.6116 4.46907 
31 1 1.08615 6.02894 6.04384 
32 1 0.192238 5.14535 5.15113 
33 1 1.98018 6.91842 5.1587 
34 1 0.199451 6.92446 6.92956 
35 1 1.98811 5.14558 6.93235 
26 1 8.52606 3.55551 3.55884 
27 1 9.39615 2.66108 2.66415 
28 1 7.62757 4.45181 2.67498 
29 1 7.62732 2.67814 4.45424 
30 1 9.40405 4.45323 4.45179 
36 1 6.04338 1.10204 6.04183 
37 1 6.92942 0.204889 6.92979 
38 1 5.1523 0.202668 5.15416 
39 1 5.15169 1.9904 6.93263 
40 1 6.93378 1.99 5.15062 
21 1 6.04372 6.03262 1.08937 
22 1 5.15449 6.92236 1.98447 
23 1 6.93132 5.14492 1.98734 
24 1 5.15164 5.14573 0.194594 
25 1 6.92996 6.92369 0.200832 
6 1 8.51282 8.50908 8.5119 
7 1 9.38299 9.38928 9.39295 
8 1 7.61926 7.61898 9.40628 
9 1 7.62028 9.40761 7.62026 
10 1 9.40476 7.61799 7.62017 
ITEM: TIMESTEP
40
ITEM: NUMBER OF ATOMS
42
ITEM: BOX BOUNDS pp pp pp
0.0000000000000000e+00 9.8979999999999997e+00
0.0000000000000000e+00 9.8979999999999997e+00
0.0000000000000000e+00 9.8979999999999997e+00
ITEM: ATOMS id type x y z 
1 1 1.00703 1.12315 1.00282 
2 1 0.172606 0.210387 0.18309 
3 1 1.86614 1.96922 0.0920833 
4 1 0.168417 1.96503 1.93132 
5 1 2.13712 0.183075 1.96173 
41 2 2.40484 2.15464 1.97627 
42 3 3.0075 1.39075 1.95178 
11 1 3.55899 3.55709 8.51923 
12 1 2.60409 2.66181 9.34747 
13 1 4.4538 4.45143 9.40543 
14 1 4.45511 2.67646 7.62749 
15 1 2.68025 4.45456 7.62833 
16 1 3.55956 8.49969 3.57125 
17 1 2.69478 9.29038 2.68483 
18 1 4.46598 7.61157 2.67676 
19 1 4.4598 9.40763 4.46383 
20 1 2.66915 7.60959 4.47022 
31 1 1.08712 6.02696 6.04503 
32 1 0.194387 5.14348 5.15031 
33 1 1.97805 6.91619 5.16085 
34 1 0.199571 6.92301 6.92933 
35 1 1.98759 5.14498 6.93306 
26 1 8.52426 3.55503 3.55834 
27 1 9.39512 2.65677 2.65649 
28 1 7.62893 4.45051 2.67457 
29 1 7.62852 2.67556 4.45369 
30 1 9.40417 4.45107 4.45204 
36 1 6.04247 1.10204 6.04195 
37 1 6.92886 0.20703 6.92906 
38 1 5.1524 0.204513 5.15065 
39 1 5.15205 1.98982 6.93223 
40 1 6.93227 1.98919 5.15066 
21 1 6.04272 6.03035 1.09086 
22 1 5.15635 6.92043 1.98337 
23 1 6.9329 5.14435 1.98546 
24 1 5.14917 5.14394 0.197135 
25 1 6.92791 6.9233 0.201721 
6 1 8.51034 8.50919 8.51138 
7 1 9.3793 9.39017 9.39325 
8 1 7.61881 7.61533 9.40558 
9 1 7.61907 9.40836 7.61913 
10 1 9.40449 7.61596 7.61993 
ITEM: TIMESTEP
50
ITEM: NUMBER OF ATOMS
42
ITEM: BOX BOUNDS pp pp pp
0.0000000000000000e+00 9.8979999999999997e+00
0.0000000000000000e+00 9.8979999999999997e+00
0.0000000000000000e+00 9.8979999999999997e+00
ITEM: ATOMS id type x y z 
1 1 1.00616 1.11439 1.0017 
2 1 0.165729 0.211605 0.176199 
3 1 1.84602 1.97536 0.0747294 
4 1 0.164377 1.96991 1.92019 
5 1 2.16507 0.203755 1.96839 
41 2 2.47728 2.22093 2.02379 
42 3 3.02532 1.41174 1.98819 
11 1 3.55109 3.55124 8.51948 
12 1 2.59154 2.66614 9.33421 
13 1 4.44939 4.44361 9.40992 
14 1 4.45388 2.67301 7.62829 
15 1 2.6771 4.4514 7.63085 
16 1 3.54866 8.49896 3.5634 
17 1 2.70612 9.28966 2.68525 
18 1 4.46553 7.60696 2.67713 
19 1 4.45609 9.40859 4.45742 
20 1 2.66619 7.6047 4.4714 
31 1 1.08603 6.02185 6.04865 
32 1 0.196798 5.13507 5.14923 
33 1 1.97449 6.91096 5.1605 
34 1 0.197814 6.91955 6.9309 
35 1 1.98537 5.14249 6.93542 
26 1 8.52546 3.54895 3.55445 
27 1 9.38587 2.6556 2.64581 
28 1 7.63208 4.44777 2.67183 
29 1 7.63004 2.67024 4.45139 
30 1 9.40702 4.44492 4.44997 
36 1 6.04032 1.10309 6.03901 
37 1 6.92922 0.209249 6.92539 
38 1 5.14282 0.206564 5.14863 
39 1 5.1496 1.98692 6.93197 
40 1 6.93242 1.98721 5.14945 
21 1 6.04225 6.02522 1.09 
22 1 5.1556 6.91659 1.98315 
23 1 6.93544 5.13964 1.98251 
24 1 5.14606 5.13538 0.20038 
25 1 6.93077 6.91619 0.203962 
6 1 8.50383 8.50422 8.50768 
7 1 9.37134 9.39054 9.3882 
8 1 7.61094 7.6146 9.40349 
9 1 7.61361 9.40676 7.61738 
10 1 9.40125 7.61248 7.62011 
ITEM: TIMESTEP
60
ITEM: NUMBER OF ATOMS
42
ITEM: BOX BOUNDS pp pp pp
0.0000000000000000e+00 9.8979999999999997e+00
0.0000000000000000e+00 9.8979999999999997e+00
0.0000000000000000e+00 9.8979999999999997e+00
ITEM: ATOMS id type x y z 
1 1 1.00901 1.11888 1.00091 
2 1 0.164982 0.209773 0.176222 
3 1 1.84072 1.97026 0.0760831 
4 1 0.162604 1.9644 1.91541 
5 1 2.1649 0.210697 1.96781 
41 2 2.49603 2.23415 2.03938 
42 3 3.03844 1.42631 2.00001 
11 1 3.55322 3.55165 8.51909 
12 1 2.58339 2.66414 9.33202 
13 1 4.44843 4.44174 9.41128 
14 1 4.45309 2.67213 7.62786 
15 1 2.67627 4.45112 7.63093 
16 1 3.55236 8.49603 3.56511 
17 1 2.705 9.29916 2.68046 
18 1 4.46446 7.60628 2.67605 
19 1 4.45219 9.40686 4.45946 
20 1 2.66449 7.60348 4.46881 
31 1 1.08483 6.02014 6.04726 
32 1 0.197635 5.13319 5.14903 
33 1 1.97383 6.91254 5.16224 
34 1 0.196041 6.91793 6.93148 
35 1 1.9837 5.14146 6.93508 
26 1 8.52631 3.54814 3.55407 
27 1 9.38841 2.65481 2.64055 
28 1 7.6322 4.44639 2.67125 
29 1 7.62849 2.67041 4.45037 
30 1 9.40794 4.44212 4.44982 
36 1 6.03796 1.10204 6.03818 
37 1 6.92591 0.207306 6.92441 
38 1 5.14425 0.205686 5.14495 
39 1 5.14876 1.98575 6.93088 
40 1 6.93192 1.98556 5.14775 
21 1 6.04315 6.02311 1.09161 
22 1 5.15538 6.91455 1.98385 
23 1 6.93539 5.13824 1.98148 
24 1 5.14536 5.13343 0.202252 
25 1 6.92588 6.91648 0.201353 
6 1 8.49988 8.50513 8.50748 
7 1 9.37041 9.39235 9.38801 
8 1 7.61386 7.61087 9.4043 
9 1 7.61446 9.40731 7.61513 
10 1 9.40046 7.612 7.6203 
ITEM: TIMESTEP
70
ITEM: NUMBER OF ATOMS
42
ITEM: BOX BOUNDS pp pp pp
0.0000000000000000e+00 9.8979999999999997e+00
0.0000000000000000e+00 9.8979999999999997e+00
0.0000000000000000e+00 9.8979999999999997e+00
ITEM: ATOMS id type x y z 
1 1 1.00925 1.11514 1.00049 
2 1 0.163982 0.20841 0.176711 
3 1 1.83817 1.96864 0.073809 
4 1 0.163518 1.9651 1.91259 
5 1 2.17358 0.224765 1.97041 
41 2 2.51854 2.25138 2.05955 
42 3 3.04965 1.43636 2.01433 
11 1 3.55173 3.55102 8.51767 
12 1 2.57882 2.66379 9.32776 
13 1 4.4483 4.43884 9.41341 
14 1 4.45217 2.67062 7.62752 
15 1 2.67485 4.45065 7.63033 
16 1 3.54886 8.49711 3.56157 
17 1 2.7093 9.30702 2.68011 
18 1 4.46251 7.60528 2.67553 
19 1 4.45043 9.40516 4.45774 
20 1 2.66136 7.60374 4.46678 
31 1 1.08314 6.01932 6.04669 
32 1 0.198911 5.1313 5.14896 
33 1 1.97358 6.91176 5.16238 
34 1 0.194787 6.91617 6.93181 
35 1 1.98186 5.1412 6.93496 
26 1 8.52685 3.54603 3.55275 
27 1 9.38607 2.65301 2.63698 
28 1 7.63253 4.44492 2.66986 
29 1 7.62721 2.66813 4.44855 
30 1 9.4099 4.43945 4.45012 
36 1 6.03561 1.10049 6.03567 
37 1 6.92356 0.207596 6.92376 
38 1 5.14344 0.204418 5.14232 
39 1 5.14724 1.98463 6.9295 
40 1 6.93125 1.98444 5.14725 
21 1 6.04177 6.02144 1.09082 
22 1 5.1543 6.91245 1.98491 
23 1 6.93558 5.13673 1.98068 
24 1 5.14381 5.13144 0.205117 
25 1 6.92536 6.91382 0.200727 
6 1 8.49812 8.50503 8.50681 
7 1 9.36947 9.39215 9.38704 
8 1 7.61207 7.6092 9.40354 
9 1 7.61164 9.40539 7.61252 
10 1 9.39891 7.61047 7.61993 
ITEM: TIMESTEP
80
ITEM: NUMBER OF ATOMS
42
ITEM: BOX BOUNDS pp pp pp
0.0000000000000000e+00 9.8979999999999997e+00
0.0000000000000000e+00 9.8979999999999997e+00
0.0000000000000000e+00 9.8979999999999997e+00
ITEM: ATOMS id type x y z 
1 1 1.01299 1.10889 1.00428 
2 1 0.161542 0.202647 0.174246 
3 1 1.83759 1.96837 0.0691506 
4 1 0.161203 1.96558 1.90904 
5 1 2.18956 0.252147 1.97496 
41 2 2.55516 2.28088 2.09434 
42 3 3.06832 1.45359 2.03777 
11 1 3.5484 3.54762 8.51717 
12 1 2.57801 2.66595 9.31817 
13 1 4.44119 4.43486 9.41627 
14 1 4.4493 2.66951 7.62666 
15 1 2.67352 4.44891 7.63103 
16 1 3.5415 8.49927 3.55624 
17 1 2.71822 9.31944 2.68118 
18 1 4.45844 7.60333 2.67408 
19 1 4.44686 9.40368 4.45135 
20 1 2.65876 7.60357 4.46334 
31 1 1.08145 6.01917 6.04823 
32 1 0.197074 5.12686 5.14611 
33 1 1.97226 6.90936 5.1584 
34 1 0.190475 6.91424 6.93311 
35 1 1.98051 5.13938 6.93464 
26 1 8.52628 3.54291 3.54973 
27 1 9.3833 2.6539 2.63516 
28 1 7.63385 4.44125 2.66819 
29 1 7.63 2.66629 4.4499 
30 1 9.41199 4.43286 4.44852 
36 1 6.03386 1.09775 6.03144 
37 1 6.91935 0.202894 6.92134 
38 1 5.13824 0.200412 5.14089 
39 1 5.14495 1.98412 6.92769 
40 1 6.92889 1.983 5.14178 
21 1 6.04056 6.01822 1.09191 
22 1 5.15237 6.90937 1.9861 
23 1 6.93654 5.13252 1.98097 
24 1 5.14128 5.12641 0.205014 
25 1 6.92434 6.91132 0.199229 
6 1 8.49545 8.5036 8.5042 
7 1 9.36565 9.38865 9.38514 
8 1 7.60909 7.60585 9.40034 
9 1 7.60879 9.406 7.61345 
10 1 9.39488 7.60942 7.61925 
ITEM: TIMESTEP
81
ITEM: NUMBER OF ATOMS
42
ITEM: BOX BOUNDS pp pp pp
0.0000000000000000e+00 9.8979999999999997e+00
0.0000000000000000e+00 9.8979999999999997e+00
0.0000000000000000e+00 9.8979999999999997e+00
ITEM: ATOMS id type x y z 
1 1 1.013 1.10889 1.00429 
2 1 0.161537 0.20264 0.17424 
3 1 1.8376 1.96838 0.0691439 
4 1 0.161198 1.96558 1.90904 
5 1 2.18957 0.252151 1.97496 
41 2 2.55517 2.28089 2.09434 
42 3 3.06832 1.45359 2.03778 
11 1 3.5484 3.54762 8.51717 
12 1 2.57802 2.66595 9.31816 
13 1 4.44118 4.43486 9.41626 
14 1 4.4493 2.66951 7.62666 
15 1 2.67352 4.44891 7.63103 
16 1 3.54149 8.49927 3.55624 
17 1 2.71822 9.31945 2.68118 
18 1 4.45844 7.60333 2.67408 
19 1 4.44686 9.40368 4.45134 
20 1 2.65876 7.60357 4.46334 
31 1 1.08145 6.01917 6.04823 
32 1 0.197073 5.12686 5.14611 
33 1 1.97226 6.90936 5.15839 
34 1 0.190471 6.91424 6.93311 
35 1 1.98052 5.13937 6.93464 
26 1 8.52628 3.54291 3.54973 
27 1 9.3833 2.6539 2.63516 
28 1 7.63385 4.44125 2.66819 
29 1 7.63 2.66629 4.4499 
30 1 9.41198 4.43285 4.44852 
36 1 6.03387 1.09775 6.03144 
37 1 6.91935 0.202891 6.92134 
38 1 5.13823 0.200411 5.14089 
39 1 5.14494 1.98412 6.92769 
40 1 6.92889 1.983 5.14178 
21 1 6.04056 6.01822 1.09191 
22 1 5.15237 6.90937 1.9861 
23 1 6.93654 5.13251 1.98097 
24 1 5.14128 5.1264 0.205013 
25 1 6.92434 6.91132 0.199226 
6 1 8.49545 8.5036 8.5042 
7 1 9.36565 9.38864 9.38514 
8 1 7.60909 7.60585 9.40034 
9 1 7.60879 9.40599 7.61345 
10 1 9.39488 7.60942 7.61925 
ITEM: TIMESTEP
90
ITEM: NUMBER OF ATOMS
42
ITEM: BOX BOUNDS pp pp pp
0.0000000000000000e+00 9.8979999999999997e+00
0.0000000000000000e+00 9.8979999999999997e+00
0.0000000000000000e+00 9.8979999999999997e+00
ITEM: ATOMS id type x y z 
1 1 1.0114 1.10957 1.00004 
2 1 0.164957 0.203231 0.17725 
3 1 1.83706 1.96658 0.0705904 
4 1 0.162255 1.96304 1.90702 
5 1 2.19404 0.260617 1.97666 
41 2 2.56708 2.29097 2.10643 
42 3 3.07658 1.46182 2.04593 
11 1 3.5472 3.54774 8.5168 
12 1 2.57237 2.66088 9.32092 
13 1 4.44318 4.43459 9.4175 
14 1 4.45124 2.66836 7.62312 
15 1 2.67197 4.44943 7.6285 
16 1 3.54061 8.4985 3.55276 
17 1 2.71965 9.32561 2.68021 
18 1 4.45783 7.60197 2.6721 
19 1 4.44479 9.40418 4.45331 
20 1 2.65584 7.60293 4.46239 
31 1 1.08116 6.01887 6.04647 
32 1 0.200347 5.12566 5.14832 
33 1 1.97075 6.90853 5.15807 
34 1 0.189417 6.91227 6.93078 
35 1 1.97824 5.14055 6.93447 
26 1 8.5279 3.54119 3.54932 
27 1 9.38604 2.65097 2.63065 
28 1 7.63226 4.4414 2.66818 
29 1 7.62653 2.66434 4.44767 
30 1 9.41203 4.43412 4.44825 
36 1 6.03131 1.0979 6.03071 
37 1 6.91663 0.203558 6.91902 
38 1 5.13925 0.199938 5.13937 
39 1 5.14409 1.98084 6.92517 
40 1 6.92989 1.98002 5.14545 
21 1 6.04063 6.01665 1.09125 
22 1 5.15204 6.90791 1.98572 
23 1 6.93439 5.13213 1.97805 
24 1 5.14011 5.12619 0.208503 
25 1 6.92098 6.91033 0.199292 
6 1 8.49291 8.50161 8.50339 
7 1 9.36741 9.39084 9.38749 
8 1 7.60905 7.60478 9.40186 
9 1 7.606 9.40565 7.61117 
10 1 9.3946 7.60775 7.61981 
ITEM: TIMESTEP
100
ITEM: NUMBER OF ATOMS
42
ITEM: BOX BOUNDS pp pp pp
0.0000000000000000e+00 9.8979999999999997e+00
0.0000000000000000e+00 9.8979999999999997e+00
0.0000000000000000e+00 9.8979999999999997e+00
ITEM: ATOMS id type x y z 
1 1 1.01317 1.10832 1.00229 
2 1 0.163172 0.200889 0.175511 
3 1 1.83835 1.96741 0.0690841 
4 1 0.161057 1.96391 1.9075 
5 1 2.19656 0.263887 1.97789 
41 2 2.57156 2.29482 2.111 
42 3 3.07911 1.46455 2.04884 
11 1 3.54728 3.54743 8.51624 
12 1 2.57384 2.66231 9.31924 
13 1 4.44152 4.43345 9.41763 
14 1 4.44975 2.66841 7.62375 
15 1 2.67205 4.44911 7.6294 
16 1 3.53954 8.49885 3.55269 
17 1 2.72137 9.32703 2.68061 
18 1 4.45701 7.60197 2.67198 
19 1 4.44403 9.40357 4.45173 
20 1 2.65593 7.60302 4.46127 
31 1 1.08106 6.01862 6.04671 
32 1 0.199055 5.12537 5.14722 
33 1 1.97052 6.90895 5.15696 
34 1 0.188917 6.91261 6.93165 
35 1 1.97872 5.13927 6.93435 
26 1 8.52727 3.54141 3.54908 
27 1 9.38494 2.65198 2.63164 
28 1 7.63322 4.4402 2.66815 
29 1 7.62857 2.66343 4.44699 
30 1 9.41173 4.43235 4.44815 
36 1 6.03191 1.09683 6.03049 
37 1 6.91713 0.202737 6.9194 
38 1 5.13726 0.199763 5.13893 
39 1 5.14315 1.9816 6.92582 
40 1 6.92895 1.98105 5.14324 
21 1 6.03995 6.01623 1.092 
22 1 5.15154 6.90768 1.98576 
23 1 6.93505 5.13108 1.97887 
24 1 5.13951 5.12519 0.206932 
25 1 6.92166 6.91006 0.198573 
6 1 8.49311 8.50185 8.50403 
7 1 9.36636 9.38901 9.38633 
8 1 7.60807 7.60543 9.40093 
9 1 7.60573 9.40424 7.61174 
10 1 9.39329 7.60814 7.61938 
ITEM: TIMESTEP
110
ITEM: NUMBER OF ATOMS
42
ITEM: BOX BOUNDS pp pp pp
0.0000000000000000e+00 9.8979999999999997e+00
0.0000000000000000e+00 9.8979999999999997e+00
0.0000000000000000e+00 9.8979999999999997e+00
ITEM: ATOMS id type x y z 
1 1 1.02692 1.09569 1.00669 
2 1 0.170056 0.179376 0.179476 
3 1 1.84506 1.95564 0.0736399 
4 1 0.165699 1.9498 1.89759 
5 1 2.26069 0.372513 2.00431 
41 2 2.70957 2.41338 2.25366 
42 3 3.16277 1.5526 2.14267 
11 1 3.53858 3.5422 8.50638 
12 1 2.56954 2.65657 9.30966 
13 1 4.42709 4.41756 9.42478 
14 1 4.43589 2.65403 7.6125 
15 1 2.66379 4.44466 7.62362 
16 1 3.523 8.5016 3.53165 
17 1 2.75532 9.39369 2.67851 
18 1 4.43982 7.59379 2.65975 
19 1 4.41933 9.41471 4.43215 
20 1 2.63558 7.59878 4.43814 
31 1 1.07438 6.01436 6.04477 
32 1 0.194936 5.12138 5.13856 
33 1 1.95507 6.90651 5.14035 
34 1 0.169862 6.90176 6.92716 
35 1 1.96782 5.13598 6.92974 
26 1 8.53068 3.51982 3.54456 
27 1 9.38666 2.64491 2.61685 
28 1 7.63463 4.42332 2.66126 
29 1 7.62133 2.66315 4.4488 
30 1 9.4182 4.41902 4.43807 
36 1 6.02527 1.07777 6.01969 
37 1 6.90802 0.187122 6.90705 
38 1 5.11168 0.196952 5.13452 
39 1 5.13549 1.97066 6.91694 
40 1 6.9104 1.95866 5.11146 
21 1 6.02812 6.00361 1.09192 
22 1 5.13936 6.89507 1.98198 
23 1 6.93354 5.11578 1.97653 
24 1 5.13403 5.10855 0.20736 
25 1 6.90616 6.88627 0.181607 
6 1 8.47162 8.49494 8.49707 
7 1 9.36536 9.37717 9.38853 
8 1 7.6025 7.60859 9.42199 
9 1 7.59191 9.38501 7.60395 
10 1 9.37627 7.60104 7.61412 
ITEM: TIMESTEP
120
ITEM: NUMBER OF ATOMS
42
ITEM: BOX BOUNDS pp pp pp
0.0000000000000000e+00 9.8979999999999997e+00
0.0000000000000000e+00 9.8979999999999997e+00
0.0000000000000000e+00 9.8979999999999997e+00
ITEM: ATOMS id type x y z 
1 1 1.03163 1.09349 1.00752 
2 1 0.17293 0.179295 0.181633 
3 1 1.8494 1.95571 0.0767407 
4 1 0.166834 1.94894 1.90172 
5 1 2.25992 0.379195 2.0032 
41 2 2.713 2.41652 2.26022 
42 3 3.16501 1.55937 2.14652 
11 1 3.53866 3.53794 8.50601 
12 1 2.57293 2.65513 9.31369 
13 1 4.42903 4.41712 9.4187 
14 1 4.43925 2.65479 7.61275 
15 1 2.66103 4.44556 7.62161 
16 1 3.51869 8.50448 3.52853 
17 1 2.75608 9.39991 2.67969 
18 1 4.43894 7.59465 2.65527 
19 1 4.41784 9.4037 4.43725 
20 1 2.63296 7.60257 4.4369 
31 1 1.06936 6.01716 6.03891 
32 1 0.197667 5.11548 5.13926 
33 1 1.95314 6.90847 5.13882 
34 1 0.170472 6.90725 6.92398 
35 1 1.9675 5.13647 6.92739 
26 1 8.52722 3.52651 3.54149 
27 1 9.38803 2.64141 2.62051 
28 1 7.63324 4.42431 2.66178 
29 1 7.62051 2.64824 4.43295 
30 1 9.41441 4.41874 4.43898 
36 1 6.01863 1.08187 6.01608 
37 1 6.90419 0.183615 6.90925 
38 1 5.1146 0.196588 5.12519 
39 1 5.13099 1.96818 6.91242 
40 1 6.91846 1.96683 5.12788 
21 1 6.03059 5.99837 1.09214 
22 1 5.1388 6.89393 1.97982 
23 1 6.93079 5.11372 1.97392 
24 1 5.12694 5.10681 0.210568 
25 1 6.90976 6.89895 0.197519 
6 1 8.47773 8.49445 8.50449 
7 1 9.3698 9.37538 9.39126 
8 1 7.59685 7.59641 9.40282 
9 1 7.59432 9.38927 7.60664 
10 1 9.37384 7.59723 7.618 
ITEM: TIMESTEP
130
ITEM: NUMBER OF ATOMS
42
ITEM: BOX BOUNDS pp pp pp
0.0000000000000000e+00 9.8979999999999997e+00
0.0000000000000000e+00 9.8979999999999997e+00
0.0000000000000000e+00 9.8979999999999997e+00
ITEM: ATOMS id type x y z 
1 1 1.03246 1.09367 1.0093 
2 1 0.173953 0.177723 0.181432 
3 1 1.85062 1.95567 0.0777056 
4 1 0.167027 1.94872 1.9023 
5 1 2.26157 0.380941 2.00449 
41 2 2.71377 2.4183 2.26244 
42 3 3.16574 1.56043 2.14762 
11 1 3.53803 3.53822 8.5052 
12 1 2.57461 2.65518 9.31383 
13 1 4.42805 4.41685 9.41873 
14 1 4.43887 2.65511 7.61125 
15 1 2.66082 4.4454 7.62086 
16 1 3.51795 8.50446 3.52714 
17 1 2.75626 9.40165 2.6793 
18 1 4.43777 7.59494 2.65491 
19 1 4.41982 9.40285 4.43615 
20 1 2.6317 7.60359 4.43638 
31 1 1.06955 6.01751 6.03829 
32 1 0.19658 5.11567 5.1392 
33 1 1.95229 6.909 5.13789 
34 1 0.170493 6.906 6.92567 
35 1 1.96698 5.13669 6.92662 
26 1 8.5269 3.52507 3.54062 
27 1 9.38862 2.64133 2.62167 
28 1 7.63207 4.42362 2.66142 
29 1 7.62081 2.64771 4.43355 
30 1 9.41433 4.41811 4.43882 
36 1 6.01914 1.08179 6.01593 
37 1 6.90408 0.184717 6.90955 
38 1 5.11476 0.194856 5.12664 
39 1 5.13151 1.96724 6.9126 
40 1 6.91803 1.96544 5.1276 
21 1 6.0291 5.99896 1.09234 
22 1 5.13772 6.89447 1.97981 
23 1 6.93111 5.11451 1.9739 
24 1 5.1281 5.10643 0.209318 
25 1 6.91027 6.89778 0.197929 
6 1 8.47918 8.49387 8.50484 
7 1 9.36952 9.37483 9.39199 
8 1 7.5961 7.59676 9.40212 
9 1 7.59235 9.38916 7.60642 
10 1 9.37342 7.5988 7.6162 
ITEM: TIMESTEP
140
ITEM: NUMBER OF ATOMS
42
ITEM: BOX BOUNDS pp pp pp
0.0000000000000000e+00 9.8979999999999997e+00
0.0000000000000000e+00 9.8979999999999997e+00
0.0000000000000000e+00 9.8979999999999997e+00
ITEM: ATOMS id type x y z 
1 1 1.0348 1.09262 1.01147 
2 1 0.176288 0.173869 0.184079 
3 1 1.85582 1.95476 0.0817194 
4 1 0.172054 1.94931 1.90649 
5 1 2.26513 0.38927 2.00701 
41 2 2.71764 2.4254 2.27213 
42 3 3.17033 1.56857 2.15327 
11 1 3.53698 3.53921 8.50251 
12 1 2.57896 2.65514 9.31585 
13 1 4.42869 4.41624 9.41609 
14 1 4.43631 2.65516 7.60895 
15 1 2.65933 4.44495 7.61782 
16 1 3.51616 8.50565 3.52564 
17 1 2.75778 9.40709 2.67958 
18 1 4.43353 7.59522 2.65193 
19 1 4.42017 9.40046 4.43523 
20 1 2.62801 7.60515 4.43447 
31 1 1.06656 6.01819 6.03641 
32 1 0.194209 5.1153 5.13762 
33 1 1.9469 6.91124 5.13488 
34 1 0.170598 6.9068 6.92584 
35 1 1.96525 5.1372 6.92384 
26 1 8.52704 3.52417 3.54013 
27 1 9.3861 2.63844 2.62106 
28 1 7.62979 4.42232 2.65982 
29 1 7.62371 2.64353 4.43417 
30 1 9.41197 4.41709 4.4374 
36 1 6.01832 1.07856 6.01719 
37 1 6.90165 0.183794 6.9129 
38 1 5.11914 0.189962 5.1246 
39 1 5.13047 1.96632 6.91136 
40 1 6.91845 1.96196 5.12677 
21 1 6.02888 5.99961 1.09201 
22 1 5.13481 6.8953 1.97769 
23 1 6.92817 5.11326 1.97265 
24 1 5.12867 5.1057 0.207861 
25 1 6.91023 6.8957 0.196507 
6 1 8.47863 8.49164 8.50595 
7 1 9.37256 9.37293 9.3941 
8 1 7.59428 7.59578 9.39953 
9 1 7.59299 9.39042 7.60934 
10 1 9.37466 7.6007 7.61611 
ITEM: TIMESTEP
150
ITEM: NUMBER OF ATOMS
42
ITEM: BOX BOUNDS pp pp pp
0.0000000000000000e+00 9.8979999999999997e+00
0.0000000000000000e+00 9.8979999999999997e+00
0.0000000000000000e+00 9.8979999999999997e+00
ITEM: ATOMS id type x y z 
1 1 1.03658 1.0927 1.01288 
2 1 0.178228 0.172421 0.18558 
3 1 1.85851 1.95446 0.0835258 
4 1 0.17378 1.94959 1.90641 
5 1 2.26729 0.393591 2.00838 
41 2 2.71971 2.4292 2.27727 
42 3 3.17242 1.57239 2.15638 
11 1 3.53674 3.5395 8.50131 
12 1 2.58045 2.65453 9.31736 
13 1 4.42896 4.41636 9.41473 
14 1 4.43555 2.6548 7.60746 
15 1 2.65833 4.44503 7.61628 
16 1 3.51472 8.50619 3.52472 
17 1 2.75884 9.41003 2.68004 
18 1 4.43169 7.59559 2.65021 
19 1 4.42166 9.39856 4.43477 
20 1 2.62586 7.60613 4.43313 
31 1 1.06517 6.01824 6.03556 
32 1 0.192891 5.11525 5.13695 
33 1 1.94448 6.91224 5.13333 
34 1 0.170974 6.90811 6.92501 
35 1 1.96449 5.13716 6.92246 
26 1 8.52623 3.52302 3.53926 
27 1 9.386 2.63667 2.62203 
28 1 7.62858 4.42113 2.65938 
29 1 7.62322 2.64203 4.43415 
30 1 9.41103 4.41674 4.43673 
36 1 6.01792 1.0768 6.01766 
37 1 6.90218 0.183577 6.91324 
38 1 5.11961 0.189161 5.12392 
39 1 5.12959 1.96572 6.91072 
40 1 6.91997 1.95964 5.12752 
21 1 6.02827 5.99893 1.09117 
22 1 5.13319 6.8954 1.97654 
23 1 6.92764 5.11275 1.97238 
24 1 5.12868 5.10513 0.206936 
25 1 6.90963 6.89576 0.196592 
6 1 8.47955 8.49176 8.50662 
7 1 9.37352 9.37178 9.39553 
8 1 7.59297 7.59487 9.39802 
9 1 7.59243 9.39061 7.61111 
10 1 9.37448 7.60044 7.61675 
ITEM: TIMESTEP
160
ITEM: NUMBER OF ATOMS
42
ITEM: BOX BOUNDS pp pp pp
0.0000000000000000e+00 9.8979999999999997e+00
0.0000000000000000e+00 9.8979999999999997e+00
0.0000000000000000e+00 9.8979999999999997e+00
ITEM: ATOMS id type x y z 
1 1 1.03741 1.09332 1.01277 
2 1 0.179406 0.172287 0.186272 
3 1 1.85942 1.95475 0.0837446 
4 1 0.172793 1.94836 1.90566 
5 1 2.26805 0.394989 2.00884 
41 2 2.7204 2.4304 2.27892 
42 3 3.17295 1.57347 2.15748 
11 1 3.53648 3.53961 8.50099 
12 1 2.58058 2.654 9.3179 
13 1 4.42909 4.41656 9.41448 
14 1 4.43571 2.65434 7.6067 
15 1 2.65799 4.44519 7.6158 
16 1 3.51461 8.50623 3.52427 
17 1 2.75942 9.41079 2.68036 
18 1 4.43127 7.59562 2.64986 
19 1 4.42219 9.39857 4.43412 
20 1 2.6251 7.60625 4.43227 
31 1 1.06491 6.01797 6.0353 
32 1 0.192347 5.11521 5.13659 
33 1 1.94398 6.91277 5.13318 
34 1 0.170933 6.90839 6.92482 
35 1 1.96441 5.13687 6.92223 
26 1 8.52515 3.52215 3.53848 
27 1 9.38815 2.63713 2.62395 
28 1 7.62844 4.42084 2.65943 
29 1 7.62208 2.64215 4.43426 
30 1 9.41075 4.41658 4.43651 
36 1 6.01856 1.07679 6.01773 
37 1 6.90317 0.184259 6.91346 
38 1 5.11893 0.188461 5.12468 
39 1 5.12921 1.96552 6.91075 
40 1 6.92018 1.95858 5.1274 
21 1 6.02797 5.99862 1.09066 
22 1 5.13247 6.89536 1.97614 
23 1 6.92756 5.11202 1.97228 
24 1 5.12847 5.10479 0.206277 
25 1 6.90867 6.8963 0.196486 
6 1 8.47979 8.49213 8.50714 
7 1 9.37315 9.37137 9.39593 
8 1 7.59359 7.59477 9.39881 
9 1 7.59206 9.38934 7.61051 
10 1 9.37421 7.60091 7.61657 
ITEM: TIMESTEP
170
ITEM: NUMBER OF ATOMS
42
ITEM: BOX BOUNDS pp pp pp
0.0000000000000000e+00 9.8979999999999997e+00
0.0000000000000000e+00 9.8979999999999997e+00
0.0000000000000000e+00 9.8979999999999997e+00
ITEM: ATOMS id type x y z 
1 1 1.03956 1.0935 1.01319 
2 1 0.18182 0.170075 0.187746 
3 1 1.86247 1.95482 0.0856209 
4 1 0.171503 1.94517 1.90764 
5 1 2.27141 0.401443 2.01126 
41 2 2.72368 2.43619 2.28691 
42 3 3.17584 1.57934 2.16287 
11 1 3.53575 3.53988 8.49894 
12 1 2.58383 2.65462 9.31795 
13 1 4.42853 4.41612 9.41165 
14 1 4.43432 2.6535 7.60531 
15 1 2.65693 4.44503 7.61394 
16 1 3.51417 8.50661 3.52293 
17 1 2.76202 9.41465 2.68119 
18 1 4.42939 7.59524 2.64765 
19 1 4.42175 9.39864 4.43316 
20 1 2.62155 7.60781 4.4299 
31 1 1.06378 6.01838 6.03488 
32 1 0.190216 5.11513 5.13493 
33 1 1.94121 6.91282 5.13024 
34 1 0.168682 6.90985 6.92234 
35 1 1.96264 5.13717 6.92009 
26 1 8.52328 3.51986 3.53859 
27 1 9.39283 2.63782 2.62606 
28 1 7.62721 4.41875 2.65809 
29 1 7.62065 2.63981 4.4333 
30 1 9.40867 4.4158 4.43536 
36 1 6.01908 1.07602 6.01904 
37 1 6.90547 0.184206 6.91339 
38 1 5.11995 0.185238 5.12589 
39 1 5.12909 1.96386 6.90984 
40 1 6.91942 1.95572 5.12733 
21 1 6.02648 5.99797 1.08891 
22 1 5.13011 6.89455 1.97352 
23 1 6.92552 5.1109 1.97255 
24 1 5.12831 5.10458 0.204626 
25 1 6.90688 6.89575 0.195536 
6 1 8.47942 8.49318 8.50894 
7 1 9.37494 9.37097 9.39926 
8 1 7.59462 7.59602 9.40229 
9 1 7.59362 9.38626 7.60828 
10 1 9.37544 7.60077 7.61885 
ITEM: TIMESTEP
180
ITEM: NUMBER OF ATOMS
42
ITEM: BOX BOUNDS pp pp pp
0.0000000000000000e+00 9.8979999999999997e+00
0.0000000000000000e+00 9.8979999999999997e+00
0.0000000000000000e+00 9.8979999999999997e+00
ITEM: ATOMS id type x y z 
1 1 1.04016 1.09324 1.0139 
2 1 0.182488 0.170212 0.188513 
3 1 1.86307 1.95486 0.0858711 
4 1 0.172762 1.94552 1.90764 
5 1 2.27212 0.402255 2.01182 
41 2 2.72424 2.43728 2.28839 
42 3 3.17635 1.58045 2.16393 
11 1 3.53571 3.53988 8.49837 
12 1 2.58374 2.65432 9.31841 
13 1 4.42868 4.41634 9.41133 
14 1 4.43419 2.6533 7.60494 
15 1 2.65646 4.44521 7.61335 
16 1 3.51383 8.50664 3.52261 
17 1 2.76221 9.41583 2.68106 
18 1 4.42891 7.59523 2.64717 
19 1 4.42246 9.39777 4.43343 
20 1 2.62112 7.60781 4.42947 
31 1 1.06306 6.01866 6.03344 
32 1 0.189974 5.11529 5.13479 
33 1 1.94043 6.91348 5.13009 
34 1 0.169199 6.90884 6.92408 
35 1 1.96247 5.13715 6.91988 
26 1 8.52372 3.51967 3.53859 
27 1 9.39164 2.63754 2.62548 
28 1 7.62637 4.41856 2.65857 
29 1 7.62077 2.63922 4.43302 
30 1 9.40836 4.41569 4.4355 
36 1 6.01919 1.07515 6.01857 
37 1 6.90533 0.183169 6.91307 
38 1 5.11974 0.185529 5.12569 
39 1 5.12881 1.96383 6.91004 
40 1 6.91954 1.95565 5.12729 
21 1 6.0259 5.99799 1.08883 
22 1 5.12975 6.89465 1.97323 
23 1 6.9255 5.11044 1.97213 
24 1 5.12801 5.1044 0.204187 
25 1 6.90738 6.89583 0.196148 
6 1 8.48047 8.49332 8.50973 
7 1 9.37502 9.37046 9.39928 
8 1 7.59482 7.59499 9.40148 
9 1 7.59363 9.38675 7.60936 
10 1 9.37441 7.60158 7.61731 
ITEM: TIMESTEP
190
ITEM: NUMBER OF ATOMS
42
ITEM: BOX BOUNDS pp pp pp
0.0000000000000000e+00 9.8979999999999997e+00
0.0000000000000000e+00 9.8979999999999997e+00
0.0000000000000000e+00 9.8979999999999997e+00
ITEM: ATOMS id type x y z 
1 1 1.04564 1.09166 1.01947 
2 1 0.186454 0.168405 0.1935 
3 1 1.86762 1.95393 0.0898535 
4 1 0.178286 1.94825 1.90841 
5 1 2.27862 0.412701 2.01636 
41 2 2.72976 2.44816 2.30324 
42 3 3.18179 1.59172 2.17458 
11 1 3.53449 3.5403 8.49422 
12 1 2.58655 2.65453 9.31918 
13 1 4.42752 4.41654 9.40609 
14 1 4.43312 2.65192 7.6021 