LAMMPS (3 Mar 2020)
# Alpha
clear
units		real
dimension 3
boundary        p p p
atom_style	charge
newton on
read_data       O_26.lmp
  triclinic box = (0 0 0) to (13.552 11.7355 22.15) with tilt (-6.7755 0 0)
  2 by 2 by 2 MPI processor grid
  reading atoms ...
  161 atoms
  read_data CPU = 0.0181461 secs

timestep 0.25

# ---------- Define Interatomic Potential ---------------------
pair_style      reax/c NULL checkqeq no
pair_coeff      * * ffield.reax C O
fix             2 all qeq/reax 1 0.0 10.0 1.0e-6 reax/c

#------------ Equilibration of the system -------------------------
reset_timestep 0

dump 1 all custom 10 min.lammpstrj id type x y z

minimize 1.0e-8 1.0e-8 100000 100000
WARNING: Using 'neigh_modify every 1 delay 0 check yes' setting during minimization (../min.cpp:190)
WARNING: Total cutoff < 2*bond cutoff. May need to use an increased neighbor list skin. (../pair_reaxc.cpp:413)
Neighbor list info ...
  update every 1 steps, delay 0 steps, check yes
  max neighbors/atom: 2000, page size: 100000
  master list distance cutoff = 9.5
  ghost atom cutoff = 9.5
  binsize = 4.75, bins = 5 3 5
  2 neighbor lists, perpetual/occasional/extra = 2 0 0
  (1) pair reax/c, perpetual
      attributes: half, newton off, ghost
      pair build: half/bin/newtoff/ghost
      stencil: half/ghost/bin/3d/newtoff
      bin: standard
  (2) fix qeq/reax, perpetual, copy from (1)
      attributes: half, newton off, ghost
      pair build: copy
      stencil: none
      bin: none
Per MPI rank memory allocation (min/avg/max) = 22.39 | 23.32 | 24.26 Mbytes
Step Temp E_pair E_mol TotEng Press 
       0            0   -25509.823            0   -25509.823    78218.635 
     160            0   -29168.779            0   -29168.779    38023.658 
Loop time of 7.86641 on 8 procs for 160 steps with 161 atoms

99.2% CPU use with 8 MPI tasks x no OpenMP threads

Minimization stats:
  Stopping criterion = energy tolerance
  Energy initial, next-to-last, final = 
        -25509.8225193     -29168.7787868     -29168.7787927
  Force two-norm initial, final = 4614.59 222.544
  Force max component initial, final = 504.288 52.2646
  Final line search alpha, max atom move = 0.000268836 0.0140506
  Iterations, force evaluations = 160 978

MPI task timing breakdown:
Section |  min time  |  avg time  |  max time  |%varavg| %total
---------------------------------------------------------------
Pair    | 5.8313     | 6.2175     | 6.4743     |   9.5 | 79.04
Neigh   | 0          | 0          | 0          |   0.0 |  0.00
Comm    | 0.071807   | 0.32722    | 0.71436    |  41.6 |  4.16
Output  | 0.00059602 | 0.00076452 | 0.0011424  |   0.0 |  0.01
Modify  | 1.3088     | 1.3093     | 1.3101     |   0.0 | 16.64
Other   |            | 0.01164    |            |       |  0.15

Nlocal:    20.125 ave 32 max 4 min
Histogram: 2 0 1 0 1 0 0 0 1 3
Nghost:    837.875 ave 880 max 787 min
Histogram: 2 1 1 0 0 0 0 0 0 4
Neighs:    2750.62 ave 4285 max 590 min
Histogram: 2 0 0 1 1 0 0 0 1 3

Total # of neighbors = 22005
Ave neighs/atom = 136.677
Neighbor list builds = 0
Dangerous builds = 0

###
min_style cg
minimize 1.0e-8 1.0e-8 100000 100000
WARNING: Using 'neigh_modify every 1 delay 0 check yes' setting during minimization (../min.cpp:190)
WARNING: Total cutoff < 2*bond cutoff. May need to use an increased neighbor list skin. (../pair_reaxc.cpp:413)
Per MPI rank memory allocation (min/avg/max) = 22.39 | 23.32 | 24.26 Mbytes
Step Temp E_pair E_mol TotEng Press 
     160            0   -29168.779            0   -29168.779    38023.658 
     260            0   -29182.649            0   -29182.649    66449.159 
Loop time of 6.02609 on 8 procs for 100 steps with 161 atoms

99.2% CPU use with 8 MPI tasks x no OpenMP threads

Minimization stats:
  Stopping criterion = energy tolerance
  Energy initial, next-to-last, final = 
        -29168.7787927     -29182.6488872     -29182.6490171
  Force two-norm initial, final = 222.544 927.452
  Force max component initial, final = 52.2646 303.554
  Final line search alpha, max atom move = 3.22385e-05 0.00978614
  Iterations, force evaluations = 100 738

MPI task timing breakdown:
Section |  min time  |  avg time  |  max time  |%varavg| %total
---------------------------------------------------------------
Pair    | 4.5542     | 4.8259     | 5.0122     |   8.0 | 80.08
Neigh   | 0          | 0          | 0          |   0.0 |  0.00
Comm    | 0.067532   | 0.25364    | 0.52608    |  34.7 |  4.21
Output  | 0.00036289 | 0.00043499 | 0.00064333 |   0.0 |  0.01
Modify  | 0.93698    | 0.93748    | 0.93795    |   0.0 | 15.56
Other   |            | 0.008623   |            |       |  0.14

Nlocal:    20.125 ave 32 max 4 min
Histogram: 2 0 1 1 0 0 0 0 0 4
Nghost:    868.125 ave 914 max 820 min
Histogram: 2 2 0 0 0 0 0 0 0 4
Neighs:    2731 ave 4233 max 581 min
Histogram: 2 0 0 2 0 0 0 0 0 4

Total # of neighbors = 21848
Ave neighs/atom = 135.702
Neighbor list builds = 0
Dangerous builds = 0

###
fix 1 all box/relax aniso 0.0
min_style cg
minimize 1.0e-8 1.0e-8 100000 100000
WARNING: Using 'neigh_modify every 1 delay 0 check yes' setting during minimization (../min.cpp:190)
WARNING: Total cutoff < 2*bond cutoff. May need to use an increased neighbor list skin. (../pair_reaxc.cpp:413)
Per MPI rank memory allocation (min/avg/max) = 22.39 | 23.33 | 24.26 Mbytes
Step Temp E_pair E_mol TotEng Press Volume 
     260            0   -29182.649            0   -29182.649    66449.159    3522.7279 
     330            0   -29205.303            0   -29205.303   -153.77986    3529.2146 
Loop time of 0.749777 on 8 procs for 70 steps with 161 atoms

99.3% CPU use with 8 MPI tasks x no OpenMP threads

Minimization stats:
  Stopping criterion = energy tolerance
  Energy initial, next-to-last, final = 
        -29182.6490171     -29205.3033739     -29205.3034328
  Force two-norm initial, final = 6804.42 525.713
  Force max component initial, final = 5488.57 183.341
  Final line search alpha, max atom move = 5.30328e-10 9.72309e-08
  Iterations, force evaluations = 70 98

MPI task timing breakdown:
Section |  min time  |  avg time  |  max time  |%varavg| %total
---------------------------------------------------------------
Pair    | 0.60926    | 0.64053    | 0.67298    |   3.1 | 85.43
Neigh   | 0          | 0          | 0          |   0.0 |  0.00
Comm    | 0.0038025  | 0.036132   | 0.067239   |  13.0 |  4.82
Output  | 0.00022261 | 0.00026372 | 0.00038047 |   0.0 |  0.04
Modify  | 0.069528   | 0.069545   | 0.069578   |   0.0 |  9.28
Other   |            | 0.003309   |            |       |  0.44

Nlocal:    20.125 ave 34 max 4 min
Histogram: 2 0 1 1 0 0 0 0 2 2
Nghost:    866.125 ave 918 max 810 min
Histogram: 2 1 1 0 0 0 0 0 1 3
Neighs:    2730.88 ave 4491 max 582 min
Histogram: 2 0 1 1 0 0 0 0 2 2

Total # of neighbors = 21847
Ave neighs/atom = 135.696
Neighbor list builds = 0
Dangerous builds = 0

unfix 1
###
min_style cg
minimize 1.0e-8 1.0e-8 100000 100000
WARNING: Using 'neigh_modify every 1 delay 0 check yes' setting during minimization (../min.cpp:190)
WARNING: Total cutoff < 2*bond cutoff. May need to use an increased neighbor list skin. (../pair_reaxc.cpp:413)
Per MPI rank memory allocation (min/avg/max) = 22.39 | 23.33 | 24.26 Mbytes
Step Temp E_pair E_mol TotEng Press 
     330            0   -29205.303            0   -29205.303   -153.77986 
     393            0   -29215.661            0   -29215.661    31479.052 
Loop time of 3.78558 on 8 procs for 63 steps with 161 atoms

99.2% CPU use with 8 MPI tasks x no OpenMP threads

Minimization stats:
  Stopping criterion = energy tolerance
  Energy initial, next-to-last, final = 
        -29205.3034328     -29215.6607973     -29215.6609178
  Force two-norm initial, final = 459.597 138.786
  Force max component initial, final = 60.4497 60.0723
  Final line search alpha, max atom move = 0.000217901 0.0130898
  Iterations, force evaluations = 63 459

MPI task timing breakdown:
Section |  min time  |  avg time  |  max time  |%varavg| %total
---------------------------------------------------------------
Pair    | 2.7911     | 2.9867     | 3.148      |   7.2 | 78.90
Neigh   | 0          | 0          | 0          |   0.0 |  0.00
Comm    | 0.039546   | 0.20026    | 0.39643    |  27.9 |  5.29
Output  | 0.00023686 | 0.00028152 | 0.00041113 |   0.0 |  0.01
Modify  | 0.59254    | 0.59278    | 0.59314    |   0.0 | 15.66
Other   |            | 0.00557    |            |       |  0.15

Nlocal:    20.125 ave 34 max 4 min
Histogram: 2 0 1 1 0 0 0 0 2 2
Nghost:    861.375 ave 918 max 802 min
Histogram: 1 2 1 0 0 0 0 0 2 2
Neighs:    2725.88 ave 4472 max 582 min
Histogram: 2 0 0 2 0 0 0 0 2 2

Total # of neighbors = 21807
Ave neighs/atom = 135.447
Neighbor list builds = 0
Dangerous builds = 0

###
fix 1 all box/relax aniso 0.0
min_style cg
minimize 1.0e-8 1.0e-8 100000 100000
WARNING: Using 'neigh_modify every 1 delay 0 check yes' setting during minimization (../min.cpp:190)
WARNING: Total cutoff < 2*bond cutoff. May need to use an increased neighbor list skin. (../pair_reaxc.cpp:413)
Per MPI rank memory allocation (min/avg/max) = 22.39 | 23.33 | 24.26 Mbytes
Step Temp E_pair E_mol TotEng Press Volume 
     393            0   -29215.661            0   -29215.661    31479.052    3529.2146 
     451            0   -29225.974            0   -29225.974    6299.9806     3534.176 
Loop time of 0.747103 on 8 procs for 58 steps with 161 atoms

99.3% CPU use with 8 MPI tasks x no OpenMP threads

Minimization stats:
  Stopping criterion = linesearch alpha is zero
  Energy initial, next-to-last, final = 
        -29215.6609178     -29225.9740739     -29225.9740739
  Force two-norm initial, final = 3596.12 722.68
  Force max component initial, final = 3144.19 519.362
  Final line search alpha, max atom move = 1.25429e-14 6.5143e-12
  Iterations, force evaluations = 58 98

MPI task timing breakdown:
Section |  min time  |  avg time  |  max time  |%varavg| %total
---------------------------------------------------------------
Pair    | 0.59414    | 0.63511    | 0.67035    |   3.3 | 85.01
Neigh   | 0          | 0          | 0          |   0.0 |  0.00
Comm    | 0.0046001  | 0.039722   | 0.080777   |  13.3 |  5.32
Output  | 0.00022895 | 0.00027316 | 0.00039548 |   0.0 |  0.04
Modify  | 0.068671   | 0.068692   | 0.068727   |   0.0 |  9.19
Other   |            | 0.003302   |            |       |  0.44

Nlocal:    20.125 ave 34 max 4 min
Histogram: 2 0 1 1 0 0 0 0 2 2
Nghost:    861.375 ave 918 max 802 min
Histogram: 1 2 1 0 0 0 0 0 2 2
Neighs:    2724.88 ave 4472 max 583 min
Histogram: 2 0 1 1 0 0 0 0 2 2

Total # of neighbors = 21799
Ave neighs/atom = 135.398
Neighbor list builds = 0
Dangerous builds = 0

unfix 1
###
min_style cg
minimize 1.0e-8 1.0e-8 100000 100000
WARNING: Using 'neigh_modify every 1 delay 0 check yes' setting during minimization (../min.cpp:190)
WARNING: Total cutoff < 2*bond cutoff. May need to use an increased neighbor list skin. (../pair_reaxc.cpp:413)
Per MPI rank memory allocation (min/avg/max) = 22.39 | 23.33 | 24.26 Mbytes
Step Temp E_pair E_mol TotEng Press 
     451            0   -29225.974            0   -29225.974    6299.9806 
     503            0   -29230.846            0   -29230.846    33257.844 
Loop time of 3.54603 on 8 procs for 52 steps with 161 atoms

99.2% CPU use with 8 MPI tasks x no OpenMP threads

Minimization stats:
  Stopping criterion = energy tolerance
  Energy initial, next-to-last, final = 
        -29225.9740739     -29230.8458604     -29230.8458732
  Force two-norm initial, final = 374.022 25.4313
  Force max component initial, final = 44.9034 6.36395
  Final line search alpha, max atom move = 0.000122434 0.000779162
  Iterations, force evaluations = 52 431

MPI task timing breakdown:
Section |  min time  |  avg time  |  max time  |%varavg| %total
---------------------------------------------------------------
Pair    | 2.621      | 2.7986     | 2.9506     |   6.5 | 78.92
Neigh   | 0          | 0          | 0          |   0.0 |  0.00
Comm    | 0.027681   | 0.17911    | 0.35737    |  25.8 |  5.05
Output  | 0.00020125 | 0.00023904 | 0.00035391 |   0.0 |  0.01
Modify  | 0.5626     | 0.56292    | 0.5633     |   0.0 | 15.87
Other   |            | 0.005125   |            |       |  0.14

Nlocal:    20.125 ave 34 max 4 min
Histogram: 2 0 1 1 0 0 0 0 2 2
Nghost:    860.5 ave 920 max 798 min
Histogram: 1 1 2 0 0 0 0 1 1 2
Neighs:    2722.12 ave 4465 max 581 min
Histogram: 2 0 1 1 0 0 0 0 2 2

Total # of neighbors = 21777
Ave neighs/atom = 135.261
Neighbor list builds = 0
Dangerous builds = 0

undump 1
#############
#----------- Thermo ------------
reset_timestep 0
thermo  200

thermo_style    custom step temp etotal ke pe press
velocity all create 300 12345 mom yes rot yes
fix 1 all npt temp 300 300 25.0 iso 0.0 0.0 250.0

variable vpe equal pe
variable vtemp equal temp
variable vstep equal step

fix output all print 2500 "${vstep} ${vtemp} ${vpe}" file temp-tpdh-Pt.dat screen no

dump 1 all custom 2500 thermo-tpdh-Pt.lammpstrj id type x y z

run 1000000
WARNING: Total cutoff < 2*bond cutoff. May need to use an increased neighbor list skin. (../pair_reaxc.cpp:413)
Per MPI rank memory allocation (min/avg/max) = 21.28 | 22.22 | 23.15 Mbytes
Step Temp TotEng KinEng PotEng Press 
       0          300   -29087.767    143.07888   -29230.846    35108.476 
     200    313.76722   -29135.319    149.64488   -29284.964    2802.0311 
     400    345.46136   -29151.149    164.76075   -29315.909   -30047.802 
     600    284.20166   -29177.257    135.54419   -29312.801   -45557.328 
     800    289.18967   -29181.087    137.92312    -29319.01   -36461.991 
    1000    304.65704    -29158.09    145.29996    -29303.39    53.430096 
    1200    284.69021   -29151.657    135.77719   -29287.434    11202.786 
    1400    306.51827   -29136.089    146.18764   -29282.277   -5870.8411 
    1600    281.00148   -29143.529    134.01792   -29277.547   -5143.2631 
    1800    251.86279   -29163.365    120.12082   -29283.485    40442.089 
    2000    337.33261   -29135.417    160.88391   -29296.301    2756.9145 
    2200    278.83466   -29127.911    132.98451   -29260.895    11871.364 
    2400    321.44456   -29108.287    153.30643   -29261.594   -6822.9682 
    2600    243.17368   -29135.509    115.97673   -29251.486   -13132.038 
    2800    342.79177   -29110.806    163.48755   -29274.293    24949.944 
    3000    275.56998   -29112.705    131.42748   -29244.132   -34030.546 
    3200    322.34223   -29084.548    153.73456   -29238.282    4977.0091 
    3400    286.17027   -29110.228    136.48308   -29246.711    1599.0849 
    3600     292.2091   -29117.411    139.36317   -29256.774    21450.467 
    3800    283.13448   -29124.808    135.03522   -29259.844     4375.211 
    4000    312.97453   -29096.156    149.26682   -29245.423   -9921.1359 
    4200    302.49179   -29119.253    144.26729    -29263.52   -5929.9192 
    4400    264.48832   -29157.172    126.14231   -29283.314    19181.823 
    4600    268.99169   -29147.561     128.2901   -29275.851   -8083.7831 
    4800    315.41862   -29121.809    150.43248   -29272.241    4058.2193 
    5000    330.17906   -29123.222    157.47217   -29280.694   -19963.351 
    5200    304.20263   -29152.052    145.08324   -29297.135    41032.289 
    5400    301.30289   -29137.371    143.70027   -29281.072    1740.7168 
    5600    302.46888   -29121.031    144.25637   -29265.287   -21563.051 
    5800    291.93136   -29154.146    139.23071   -29293.377    12625.839 
    6000     293.2395   -29159.582     139.8546   -29299.436   -11619.382 
    6200    313.06132   -29135.529    149.30821   -29284.837    25626.878 
    6400    297.28733   -29171.387    141.78513   -29313.172     10244.79 
    6600    301.36872   -29159.867    143.73166   -29303.598    9585.3159 
    6800    343.85554   -29139.712    163.99489   -29303.707    20049.804 
    7000    280.89562   -29178.418    133.96744   -29312.385    3962.9972 
    7200    305.13562    -29154.47    145.52821   -29299.999   -51396.373 
    7400    294.39435   -29155.206    140.40538   -29295.612   -25282.979 
    7600    285.15572   -29163.433    135.99921   -29299.432    28277.223 
    7800    329.21203   -29138.113    157.01096   -29295.124   -12176.899 
    8000    290.58117   -29166.884    138.58677   -29305.471    8876.8571 
    8200    296.85628   -29165.326    141.57955   -29306.906   -51338.229 
    8400    335.89162   -29127.708    160.19666   -29287.905   -1172.9431 
    8600    303.42079   -29141.582    144.71036   -29286.293    16156.718 
    8800    294.93431   -29156.572    140.66291   -29297.234    29264.963 
    9000    335.20128   -29123.473    159.86742    -29283.34    1017.3179 
    9200    300.00661   -29134.773    143.08204   -29277.855    27327.249 
    9400    285.60576   -29133.906    136.21384    -29270.12    29911.005 
    9600    324.46625   -29109.438    154.74756   -29264.186   -604.82695 
    9800    314.77062   -29129.315    150.12343   -29279.438    25883.842 
   10000    294.30439   -29139.374    140.36248   -29279.737   -14184.275 
   10200    282.78507    -29132.38    134.86857   -29267.248    45240.623 
   10400    292.90702   -29110.698    139.69603   -29250.394   -24214.711 
   10600    293.32292   -29143.588    139.89439   -29283.482    23394.534 
   10800     295.0931   -29143.194    140.73864   -29283.933   -60169.822 
   11000    290.29832   -29128.279    138.45187   -29266.731    33012.747 
   11200    311.43289   -29098.382    148.53157   -29246.914   -42397.836 
   11400    288.77258    -29133.98    137.72419   -29271.705   -14008.178 
   11600    287.75074   -29149.556    137.23685   -29286.793    -18636.95 
   11800     313.2978    -29149.98    149.42099   -29299.401    28925.069 
   12000    328.03507   -29124.375    156.44964   -29280.825    7891.6496 
   12200    283.48248   -29155.593    135.20119   -29290.794    43769.922 
   12400    297.70796   -29149.466    141.98574   -29291.452    26988.868 
   12600    301.01411   -29145.289    143.56254   -29288.851   -11496.704 
   12800    283.94448   -29170.433    135.42153   -29305.855    19054.199 
   13000    297.45066   -29145.984    141.86303   -29287.847   -15971.373 
   13200    284.28405   -29144.092    135.58348   -29279.675    5855.4859 
   13400    308.26462   -29154.823    147.02052   -29301.843   -11465.405 
   13600    280.43194   -29156.517    133.74629   -29290.263   -31267.618 
   13800    326.00243   -29130.495    155.48021   -29285.975   -2169.6517 
   14000     273.2886   -29168.969    130.33942   -29299.308    16720.437 
   14200    298.68839   -29156.471    142.45334   -29298.924   -11865.989 
   14400    322.07086   -29135.665    153.60513   -29289.271   -6363.4418 
   14600    277.21946   -29150.803    132.21417   -29283.017    23411.775 
   14800    287.69985   -29159.029    137.21258   -29296.241    9570.0083 
   15000    296.92878   -29135.659    141.61413   -29277.273     -6502.65 
   15200    295.35333   -29147.498    140.86275   -29288.361    -18729.32 
   15400    306.59109   -29147.895    146.22237   -29294.117   -18909.196 
   15600    274.72842   -29172.256    131.02612   -29303.282    18293.563 
   15800    317.09269     -29151.6    151.23089   -29302.831   -4040.6045 
   16000    296.88328   -29155.357    141.59243   -29296.949   -5708.9241 
   16200    281.20062   -29177.873     134.1129   -29311.985    21008.486 
   16400     278.0535   -29172.132    132.61195   -29304.744    56399.789 
   16600    307.83488   -29157.309    146.81557   -29304.125   -5674.1303 
   16800    290.34645   -29162.712    138.47482   -29301.187     24132.99 
   17000    301.99161   -29137.912    144.02874   -29281.941    11191.625 
   17200    289.17674   -29151.808    137.91695   -29289.725    30402.527 
   17400    274.46279   -29147.897    130.89943   -29278.796   -53895.503 
   17600    320.25783   -29131.764    152.74044   -29284.504    29208.949 
   17800    270.42761   -29151.692    128.97493   -29280.667    12578.662 
   18000    298.57098   -29160.867    142.39734   -29303.265   -6017.1133 
   18200    319.63599   -29132.856    152.44387     -29285.3    16091.259 
   18400    278.53291    -29153.86    132.84059   -29286.701    16064.373 
   18600    337.64336    -29122.65    161.03212   -29283.682   -8957.2976 
   18800    284.16331   -29140.468     135.5259   -29275.994    20554.697 
   19000    300.44656   -29129.742    143.29186   -29273.033   -25616.846 
   19200    337.84848   -29129.291    161.12995   -29290.421   -378.61743 
   19400    280.22092   -29159.615    133.64565   -29293.261    13251.768 
   19600    308.09881   -29135.388    146.94144   -29282.329   -3089.9128 
   19800    300.38844   -29121.765    143.26414   -29265.029    9287.5056 
   20000    263.92254   -29150.192    125.87247   -29276.064    2958.6289 
   20200    310.19489   -29124.638    147.94113    -29272.58   -12244.379 
   20400    273.52113   -29131.607    130.45032   -29262.057    18481.564 
   20600    322.46296   -29122.242    153.79213   -29276.034   -4621.0931 
   20800    325.59432   -29123.816    155.28557   -29279.102     13587.63 
   21000    290.46363   -29146.612    138.53071   -29285.143    7880.9418 
   21200    317.08983   -29122.239    151.22953   -29273.469    19071.933 
   21400    302.17018   -29129.714     144.1139   -29273.828   -3950.8964 
   21600    318.65503   -29141.416    151.97602   -29293.392   -17027.144 
   21800    288.36067   -29125.182    137.52774    -29262.71    -25373.49 
   22000    324.21134   -29145.404    154.62599    -29300.03    11206.575 
   22200    305.51581   -29155.168    145.70953   -29300.878    58760.272 
   22400    306.58411   -29127.011    146.21904    -29273.23    5013.2935 
   22600    306.82683   -29134.452     146.3348   -29280.787    23404.039 
   22800    288.68849   -29129.849    137.68409   -29267.534   -33152.954 
   23000    311.97511   -29140.816    148.79016   -29289.606   -5456.1765 
   23200    289.15213   -29163.373    137.90521   -29301.279   -13066.481 
   23400    287.00424   -29133.535    136.88082   -29270.416   -50710.825 
   23600    317.76114   -29136.197     151.5497   -29287.747    1282.8304 
   23800    289.99895   -29147.267    138.30909   -29285.576    5642.7062 
   24000    306.52369   -29137.563    146.19022   -29283.753   -17302.886 
   24200    326.56513   -29118.629    155.74858   -29274.378    21669.963 
   24400    268.79434   -29145.809    128.19598   -29274.005    9238.5914 
   24600    310.72515   -29139.004    148.19403   -29287.198    37843.518 
   24800    317.47112   -29119.514    151.41138   -29270.926    6591.7167 
   25000    288.17026   -29154.047    137.43693   -29291.484    7834.8174 
   25200    321.46666   -29133.486    153.31697   -29286.803   -8651.2034 
   25400    296.13481   -29150.415    141.23546   -29291.651   -1064.0173 
   25600    277.47159   -29150.808    132.33442   -29283.142   -6772.0671 
   25800    302.04601   -29124.959    144.05468   -29269.014    10625.407 
   26000    276.28506   -29148.403    131.76852   -29280.171    952.54745 
   26200    274.69945   -29144.032     131.0123   -29275.045    15592.106 
   26400    293.04031   -29131.626     139.7596   -29271.385    6523.5254 
   26600    284.60574   -29135.402     135.7369   -29271.139   -29174.743 
   26800    291.47955   -29129.066    139.01523   -29268.081    4578.8832 
   27000    312.96107   -29115.014     149.2604   -29264.274   -6613.0566 
   27200    315.51996   -29149.557    150.48081   -29300.038   -14611.091 
   27400    311.48166    -29136.39    148.55483   -29284.945    327.42614 
   27600    297.43389   -29124.618    141.85503   -29266.473   -21885.376 
   27800    289.58035   -29137.293    138.10944   -29275.403    -19481.16 
   28000    322.79677   -29123.664    153.95134   -29277.616    6833.7664 
   28200    304.74424   -29115.787    145.34155   -29261.128     -1712.94 
   28400    290.57912    -29134.83    138.58579   -29273.416   -16631.734 
   28600    319.95105   -29104.969    152.59413   -29257.563   -25563.039 
   28800    335.57423   -29116.677    160.04529   -29276.722    2820.4653 
   29000    289.97002   -29135.149    138.29529   -29273.444   -30398.479 
   29200     297.9679   -29118.664    142.10971   -29260.774   -6988.1249 
   29400    290.63244   -29109.133    138.61121   -29247.745   -32917.267 
   29600    285.13751   -29127.252    135.99052   -29263.242    5976.1731 
   29800    320.95792   -29135.652    153.07433   -29288.727    52975.128 
   30000    271.10463   -29150.501    129.29783   -29279.799   -1638.8846 
   30200    281.73519   -29113.576    134.36785   -29247.944    16020.126 
   30400     303.8709   -29118.181    144.92503   -29263.106   -4404.0268 
   30600    282.25311   -29142.633    134.61486   -29277.248    11188.223 
   30800    301.68987   -29122.375    143.88483    -29266.26    23338.394 
   31000    328.83304   -29115.799    156.83021    -29272.63    26320.734 
   31200    316.37223   -29120.645    150.88728   -29271.532    23031.997 
   31400    300.69892   -29111.629    143.41222   -29255.041   -26516.427 
   31600    301.74425   -29131.424    143.91077   -29275.335    29656.723 
   31800    294.63939   -29135.799    140.52225   -29276.321    6372.6416 
   32000    295.03004   -29111.374    140.70856   -29252.082     19123.28 
   32200    290.24569   -29121.337    138.42676   -29259.764   -30418.716 
   32400     298.2924   -29149.146    142.26448   -29291.411    13344.787 
   32600    311.91246   -29124.023    148.76029   -29272.784    15574.093 
   32800    289.47254    -29115.67    138.05803   -29253.728   -7669.2171 
   33000    289.25709   -29141.008    137.95527   -29278.963    762.56046 
   33200    322.09157   -29114.706    153.61501   -29268.321    15678.458 
   33400    316.22308   -29117.497    150.81615   -29268.314   -15800.095 
   33600    266.33522   -29134.483    127.02315   -29261.506    18737.643 
   33800    295.38153   -29119.793     140.8762   -29260.669    8568.8836 
   34000    324.74738   -29098.843    154.88164   -29253.724   -27941.558 
   34200    285.00101   -29132.087    135.92542   -29268.012   -13394.044 
   34400    266.84933   -29142.923    127.26835   -29270.191    1961.9207 
   34600    311.45393   -29122.048     148.5416   -29270.589    730.36219 
   34800    311.82306   -29120.621    148.71765   -29269.338    22014.784 
   35000    301.91738   -29143.417    143.99334    -29287.41    4382.8076 
   35200    293.68092   -29123.468    140.06513   -29263.533    22945.444 
   35400    344.07332   -29120.771    164.09875    -29284.87   -12209.161 
   35600    286.17639    -29148.06    136.48599   -29284.546   -1496.4786 
   35800    292.86908   -29121.037    139.67794   -29260.715    4836.9001 
   36000    298.43467    -29135.74    142.33233   -29278.072   -2861.0334 
   36200    285.04941   -29145.212     135.9485   -29281.161    15896.608 
   36400    305.69142   -29126.573    145.79329   -29272.367   -6855.8026 
   36600    305.08861   -29135.918    145.50579   -29281.423    -6212.844 
   36800    266.67629   -29158.693    127.18582   -29285.878   -22032.394 
   37000    296.63543   -29130.186    141.47422    -29271.66    47188.475 
   37200    310.43373   -29119.595    148.05504    -29267.65   -18557.634 
   37400     290.3209   -29118.722    138.46263   -29257.184    12312.211 
   37600     284.9461   -29142.898    135.89923   -29278.797   -14966.731 
   37800    324.83842   -29112.081    154.92506   -29267.006   -50616.797 
   38000    323.68668   -29125.369    154.37576   -29279.745    54563.557 
   38200    302.26871   -29137.434     144.1609   -29281.595    2907.7238 
   38400    287.03311   -29141.877    136.89459   -29278.771    10266.784 
   38600    268.28117   -29134.432    127.95124   -29262.383    2630.0039 
   38800    324.09817   -29139.112    154.57201   -29293.684   -1982.1594 
   39000    284.26942   -29159.288     135.5765   -29294.865   -25212.949 
   39200    325.02263   -29123.667    155.01292    -29278.68   -7492.2048 
   39400    306.15965   -29144.672     146.0166   -29290.688   -33586.458 
   39600    301.15016   -29150.894    143.62743   -29294.522   -56745.887 
   39800    304.11099   -29108.311    145.03954   -29253.351   -5411.6466 
   40000    279.96033   -29141.402    133.52137   -29274.923    20456.787 
   40200    287.85997   -29137.398    137.28894   -29274.687    62443.661 
   40400    341.19249   -29114.026     162.7248    -29276.75    -25504.29 
   40600    299.59129   -29140.878    142.88396   -29283.762    6728.3925 
   40800    299.39323   -29145.166    142.78949   -29287.955    48049.471 
   41000      283.707   -29144.918    135.30827   -29280.226   -54142.407 
   41200    314.02888   -29115.916    149.76967   -29265.686    1049.0912 
   41400    287.56006   -29134.561     137.1459   -29271.707   -758.43039 
   41600    308.35444   -29146.875    147.06336   -29293.939   -49220.567 
   41800    308.91749   -29125.049     147.3319   -29272.381   -39751.791 
   42000     297.1915   -29147.775    141.73943   -29289.514    5188.3234 
   42200    292.06341   -29146.709    139.29369   -29286.003      15898.4 
   42400    291.56481    -29125.03    139.05589   -29264.086   -7064.8819 
   42600    306.44468   -29140.501    146.15254   -29286.654    38546.848 
   42800    278.61222   -29158.976    132.87842   -29291.855   -11781.102 
   43000    304.78995   -29138.636    145.36335   -29283.999   -14497.161 
   43200    298.90705   -29144.657    142.55762   -29287.214    16133.956 
   43400    284.62424   -29150.491    135.74573   -29286.236   -15500.784 
   43600    289.65845   -29147.257    138.14669   -29285.403    36728.763 
   43800     322.5412   -29120.462    153.82945   -29274.291   -16409.147 
   44000    313.84178   -29151.672    149.68044   -29301.353    4649.9345 
   44200    275.79227   -29148.876     131.5335   -29280.409    16355.571 
   44400    321.83694   -29121.873    153.49357   -29275.367   -26886.999 
   44600    330.95749   -29108.698    157.84343   -29266.541   -7349.4563 
   44800    302.49417   -29142.064    144.26843   -29286.333   -22324.928 
   45000    312.36147   -29125.363    148.97443   -29274.337   -14601.698 
   45200    306.32621     -29127.6    146.09604   -29273.696    4809.1457 
   45400    291.41786   -29148.644    138.98581   -29287.629    4963.7517 
   45600    288.67971   -29129.554     137.6799   -29267.234    13032.225 
   45800     321.9421   -29117.179    153.54372   -29270.723   -16857.579 
   46000    279.05132   -29148.754    133.08784   -29281.842    6218.9368 
   46200    311.88347   -29122.829    148.74646   -29271.575   -4728.0579 
   46400    303.55712   -29134.507    144.77538   -29279.282   -17921.574 
   46600    271.42091   -29170.643    129.44867   -29300.091   -39813.885 
   46800    272.60203   -29164.377    130.01198   -29294.389   -26534.248 
   47000    287.64205   -29134.047    137.18501   -29271.232   -47583.871 
   47200    300.51406   -29119.367    143.32405   -29262.691    25528.892 
   47400    298.96234   -29145.961    142.58399   -29288.545    49586.012 
   47600    268.32786   -29144.691     127.9735   -29272.665   -25387.636 
   47800    330.95032   -29121.261       157.84   -29279.101   -6923.0838 
   48000    280.15912   -29158.779    133.61618   -29292.395    15488.329 
   48200    314.18749   -29131.194    149.84532   -29281.039    4540.5217 
   48400    296.09354   -29120.231    141.21578   -29261.446   -8745.2076 
   48600     346.3703   -29087.707    165.19425   -29252.901    68223.984 
   48800    313.97356    -29124.33    149.74329   -29274.074   -34390.507 
   49000    286.66034   -29144.019     136.7168   -29280.735    22448.953 
   49200    263.27678   -29160.676    125.56449    -29286.24    99924.272 
   49400    284.14513   -29145.044    135.51722   -29280.561     6082.993 
   49600    313.02198   -29127.786    149.28945   -29277.075    3444.8462 
   49800    277.52301   -29153.113    132.35894   -29285.472    1937.7024 
   50000    288.31593    -29145.87     137.5064   -29283.377   -3496.3598 
   50200    299.16539   -29137.324    142.68083   -29280.005    14373.366 
   50400    289.25688   -29147.025    137.95517    -29284.98    9331.9694 
   50600    294.39288   -29158.565    140.40468   -29298.969    36533.869 
   50800     312.5594   -29126.066    149.06883   -29275.134    19649.663 
   51000    301.89376   -29137.419    143.98207   -29281.401   -27640.061 
   51200    266.70713   -29162.635    127.20053   -29289.835   -5372.8645 
   51400    271.67502    -29145.86    129.56986    -29275.43    7486.7714 
   51600    307.49359   -29142.668     146.6528   -29289.321    57566.584 
   51800    273.30588   -29172.091    130.34767   -29302.439    4828.8599 
   52000    299.99863   -29139.004    143.07823   -29282.082   -29012.913 
   52200    318.69373   -29133.137    151.99448   -29285.132   -24586.014 
   52400    327.68133   -29128.366    156.28093   -29284.647   -18305.434 
   52600    278.52441   -29157.278    132.83654   -29290.114    11109.985 
   52800    320.97754   -29141.051    153.08369   -29294.134    36484.461 
   53000    316.37376   -29137.279    150.88802   -29288.167    -5197.664 
   53200    299.49699   -29154.079    142.83898   -29296.918   -2226.4171 
   53400    327.06278   -29136.184    155.98593    -29292.17    12889.069 
   53600    309.22866    -29139.23     147.4803   -29286.711   -32942.443 
   53800    310.67483   -29152.649    148.17002   -29300.819    35276.499 
   54000    302.33206    -29149.93    144.19111   -29294.121    49896.578 
   54200    281.42932   -29153.805    134.22197   -29288.027    2659.6833 
   54400    322.94202   -29126.692    154.02061   -29280.712    -16870.84 
   54600    276.81338   -29130.028    132.02049   -29262.048   -9787.3477 
   54800    279.94458   -29153.103    133.51386   -29286.617    3647.6441 
   55000    288.82398   -29131.885    137.74871   -29269.634   -41572.751 
   55200     329.4649   -29119.681    157.13157   -29276.813   -30289.576 
   55400    279.25102   -29146.069    133.18308   -29279.252   -13378.833 
   55600    286.31159   -29128.704    136.55047   -29265.255   -10594.086 
   55800    319.14807   -29119.861    152.21117   -29272.072   -32920.286 
   56000    288.87149   -29148.172    137.77136   -29285.944    35024.628 
   56200    290.97036   -29142.304    138.77238   -29281.076   -18548.351 
   56400    290.52293   -29130.227    138.55899   -29268.786   -26164.998 
   56600    295.42189   -29135.633    140.89544   -29276.529    5241.6448 
   56800    307.94099   -29140.142    146.86617   -29287.008    22186.333 
   57000    285.47758   -29148.573    136.15271   -29284.726    18167.136 
   57200    301.49242    -29169.53    143.79066    -29313.32   -5371.6293 
   57400    280.85471   -29134.956    133.94793   -29268.904    16736.559 
   57600    314.79971   -29134.328     150.1373   -29284.465   -6693.5763 
   57800    276.68694   -29163.512     131.9602   -29295.472    22680.227 
   58000    269.26201   -29148.067    128.41902   -29276.486    14273.505 
   58200      319.588    -29139.25    152.42098   -29291.671   -37630.774 
   58400    292.88976   -29158.524     139.6878   -29298.212   -12926.744 
   58600    304.80726   -29146.401    145.37161   -29291.772    28515.091 
   58800    288.87031   -29128.579     137.7708    -29266.35    60859.312 
   59000    295.61489   -29161.267    140.98749   -29302.254   -9852.8588 
   59200    284.78793    -29150.98     135.8238   -29286.804   -23431.186 
   59400    307.71862   -29132.177    146.76012   -29278.937   -9165.3248 
   59600    316.15303   -29137.025    150.78274   -29287.808    44663.277 
   59800    258.16802   -29158.753    123.12797   -29281.881   -8918.7044 
   60000    310.35085    -29144.88    148.01551   -29292.896    23527.807 
   60200    312.35448   -29148.585     148.9711   -29297.556    45844.959 
   60400    269.44155   -29164.272    128.50465   -29292.776   -9508.7495 
   60600    311.60968   -29141.432    148.61588   -29290.048    1725.8983 
   60800     307.7929   -29156.969    146.79555   -29303.764    6463.3231 
   61000    300.23375   -29179.111    143.19036   -29322.301    45902.816 
   61200     319.2323   -29144.265    152.25134   -29296.517    18619.404 
   61400    279.95705   -29169.742    133.51981   -29303.262   -10352.835 
   61600     331.3723   -29146.019    158.04126   -29304.061    13066.521 
   61800      309.186   -29146.742    147.45996   -29294.202    477.56562 
   62000    282.34999   -29157.637    134.66107   -29292.298   -11786.193 
   62200    318.84845   -29122.809    152.06826   -29274.877   -57716.948 
   62400    293.42945   -29153.544    139.94519   -29293.489    26538.643 
   62600    288.89976   -29146.353    137.78485   -29284.138    6538.9046 
   62800    323.63832   -29109.409     154.3527   -29263.761    9915.6292 
   63000    317.29233   -29143.278    151.32611   -29294.605     7466.052 
   63200    290.84573   -29156.924    138.71294   -29295.636    14537.676 
   63400    312.96465   -29135.223    149.26211   -29284.485    11393.649 
   63600    299.88345   -29128.772    143.02329   -29271.795    29463.593 
   63800    271.36412   -29156.731    129.42158   -29286.153    13667.292 
   64000     326.4684   -29130.023    155.70245   -29285.726   -15949.859 
   64200    296.72909   -29123.463    141.51889   -29264.982   -8407.5915 
   64400    259.71923   -29158.252    123.86779    -29282.12    13165.185 
   64600    308.98347   -29129.569    147.36337   -29276.932   -36803.087 
   64800    272.13671   -29125.902    129.79005   -29255.692   -31698.373 
   65000    292.03965   -29147.151    139.28236   -29286.433    22536.134 
   65200    294.61114   -29138.889    140.50878   -29279.398   -19522.227 
   65400    323.11586   -29120.906    154.10352    -29275.01    21210.403 
   65600    299.96685   -29142.043    143.06307   -29285.106    14327.252 
   65800    255.04821   -29177.652    121.64004   -29299.292   -1082.0924 
   66000    278.83326   -29142.812    132.98384   -29275.796    23466.637 
   66200    298.73087    -29125.06     142.4736   -29267.534   -33468.047 
   66400    264.62067    -29153.24    126.20543   -29279.445    26681.995 
   66600    272.94033   -29152.445    130.17332   -29282.619   -6508.5216 
   66800    346.40835   -29123.438     165.2124    -29288.65    34932.254 
   67000    302.87296    -29163.73    144.44908   -29308.179    44960.511 
   67200    284.59178   -29137.291    135.73025   -29273.022    -33138.47 
   67400     304.4084   -29127.033    145.18138   -29272.214    8006.3979 
   67600    274.69819   -29164.176     131.0117   -29295.188    33747.578 
   67800    300.69933   -29147.791    143.41241   -29291.203    12095.422 
   68000    285.34893   -29143.783    136.09135   -29279.875    15871.816 
   68200    273.41038   -29148.363    130.39751   -29278.761   -32683.627 
   68400    264.98465   -29163.082    126.37902   -29289.461   -23108.864 
   68600     265.5909    -29147.41    126.66816   -29274.078    41311.055 
   68800    346.26306    -29135.99    165.14311   -29301.133   -7968.1983 
   69000    288.79803   -29159.313    137.73633   -29297.049    -25396.05 
   69200    259.14095   -29178.616    123.59199   -29302.208    9911.8404 
   69400     312.5286   -29145.371    149.05414   -29294.425    13726.604 
   69600    310.72331   -29133.755    148.19315   -29281.948   -10087.626 
   69800     291.4587   -29165.049    139.00528   -29304.054   -5338.5593 
   70000    297.20309   -29151.106    141.74495   -29292.851   -7572.6894 
   70200    317.68523   -29144.798    151.51349   -29296.312    23528.029 
   70400    300.85494    -29153.15    143.48663   -29296.637     -26762.3 
   70600    297.76474   -29166.496    142.01282   -29308.509    16389.366 
   70800    292.44629   -29135.665    139.47629   -29275.142    31416.245 
   71000    294.71965   -29149.881    140.56053   -29290.442   -32615.207 
   71200    259.34844   -29188.332    123.69095   -29312.023    23525.705 
   71400     297.3615   -29165.098     141.8205   -29306.919    12075.686 
   71600    323.25041   -29131.755    154.16769   -29285.923    13733.308 
   71800    315.48391   -29132.884    150.46362   -29283.347    11084.188 
   72000    289.91438   -29157.355    138.26875   -29295.624    56321.817 
   72200    348.17641   -29124.333    166.05564   -29290.388    47883.081 
   72400    297.42535   -29136.123    141.85095   -29277.974   -6420.5443 
   72600    300.25305     -29150.3    143.19957     -29293.5   -31043.201 
   72800    328.40595   -29115.154    156.62652   -29271.781   -5355.9045 
   73000    309.82692   -29134.269    147.76563   -29282.035   -43129.795 
   73200    303.38162   -29149.808    144.69168     -29294.5    13369.743 
   73400    305.65345   -29116.711    145.77518   -29262.486   -15959.159 
   73600    297.83626   -29124.245    142.04693   -29266.292    25336.112 
   73800    279.48759   -29139.157    133.29591   -29272.453    35947.564 
   74000    272.76783   -29151.658    130.09106   -29281.749    33048.873 
   74200    311.10394    -29133.51    148.37468   -29281.885     28895.53 
   74400    321.39938   -29121.837    153.28488   -29275.122   -5815.4034 
   74600    257.28647   -29153.168    122.70753   -29275.876     2335.692 
   74800    291.43964   -29139.945    138.99619   -29278.941    17132.279 
   75000    306.46697   -29134.965    146.16317   -29281.128    30170.715 
   75200    286.06678   -29160.228    136.43372   -29296.661    14375.553 
   75400     286.4327   -29132.418    136.60824   -29269.026   -22200.716 
   75600     325.0305   -29135.728    155.01667   -29290.745    3280.4135 
   75800     272.5863   -29167.362    130.00448   -29297.366    25529.093 
   76000    288.33126   -29145.087    137.51371     -29282.6    24654.387 
   76200    295.21167   -29136.841    140.79519   -29277.637    26595.637 
   76400    300.37984   -29148.622    143.26004   -29291.882    7310.7782 
   76600    306.65793   -29132.193    146.25424   -29278.447    2558.2678 
   76800    290.36346    -29142.24    138.48293   -29280.723   -58651.197 
   77000    321.02922   -29155.195    153.10834   -29308.303    14665.202 
   77200     306.4112   -29130.895    146.13658   -29277.032   -13600.975 
   77400    297.96222   -29133.358      142.107   -29275.465    6956.3578 
   77600    250.65414   -29157.645    119.54438   -29277.189    43284.959 
   77800    325.72743   -29128.783    155.34906   -29284.132    35211.615 
   78000    313.78676    -29157.28     149.6542   -29306.934   -14060.652 
   78200    270.71312   -29161.457     129.1111   -29290.568   -33649.875 
   78400    332.68069   -29135.581    158.66527   -29294.247    37363.304 
   78600    280.21121   -29170.355    133.64102   -29303.996   -27993.732 
   78800    284.29298   -29157.219    135.58774   -29292.807   -11267.342 
   79000    320.91989   -29144.534     153.0562    -29297.59    1154.4413 
   79200    282.81168   -29179.633    134.88126   -29314.514   -16726.763 
   79400    292.82522    -29150.32    139.65702   -29289.977    1051.8355 
   79600    324.01056    -29140.46    154.53023    -29294.99   -19793.644 
   79800    295.68739   -29160.901    141.02207   -29301.923    6669.2447 
   80000    296.96987     -29154.6    141.63372   -29296.233   -6372.5481 
   80200    311.23236   -29138.456    148.43593   -29286.892    13683.717 
   80400    307.63772   -29158.012    146.72154   -29304.734    9840.2507 
   80600    306.42378    -29153.72    146.14257   -29299.863    22073.286 
   80800    313.35879    -29135.15    149.45008     -29284.6     39313.58 
   81000    328.19658   -29115.053    156.52666   -29271.579   -7989.6993 
   81200    321.56967   -29154.555     153.3661   -29307.921   -2190.2302 
   81400    283.21841   -29149.604    135.07524    -29284.68    10737.544 
   81600    324.92463   -29126.417    154.96618   -29281.384    11615.105 
   81800     288.0946   -29160.634    137.40085   -29298.035    23898.418 
   82000    321.47882   -29137.329    153.32277   -29290.652    2944.8583 
   82200    299.29456   -29147.802    142.74244   -29290.544    -33705.82 
   82400    305.18479   -29163.418    145.55166    -29308.97   -23574.339 
   82600    320.98958   -29138.121    153.08944    -29291.21    37704.623 
   82800    313.55279    -29145.89    149.54261   -29295.432    8074.0237 
   83000     322.0584   -29166.354    153.59919   -29319.953    23369.695 
   83200    303.46488   -29181.562    144.73139   -29326.293   -39124.836 
   83400    291.19763   -29152.826    138.88077   -29291.706    -43299.03 
   83600     306.3256   -29165.548    146.09575   -29311.644   -10849.873 
   83800    278.22818   -29178.928    132.69526   -29311.624    6830.4361 
   84000    337.03743   -29166.007    160.74313    -29326.75    5124.9568 
   84200    361.16788   -29148.533    172.25165   -29320.784    20385.638 
   84400     266.8247   -29178.997     127.2566   -29306.253    33500.398 
   84600    306.12847   -29175.811    146.00173   -29321.812    -5793.548 
   84800    327.83858   -29144.729    156.35592   -29301.085   -6892.2506 
   85000    298.65841   -29175.234    142.43904   -29317.673   -2609.2311 
   85200    278.85678   -29180.565    132.99506    -29313.56    32910.646 
   85400    308.05826   -29149.834    146.92211   -29296.756    6074.3529 
   85600    286.27691   -29165.597    136.53394   -29302.131   -5630.3875 
   85800    310.73277   -29172.413    148.19766   -29320.611   -12836.762 
   86000    276.97765    -29182.51    132.09884   -29314.609     16323.59 
   86200    294.19392   -29176.729    140.30979   -29317.039    5971.7433 
   86400    319.18259   -29154.583    152.22763   -29306.811    13026.235 
   86600    273.05744   -29186.433    130.22918   -29316.662     9241.923 
   86800    304.80236   -29176.277    145.36927   -29321.647   -12070.845 
   87000    313.43735   -29165.949    149.48755   -29315.436   -13156.308 
   87200    279.45351   -29197.963    133.27965   -29331.243    22449.279 
   87400    291.11695   -29174.274    138.84229   -29313.116   -12672.416 
   87600    270.14321   -29171.227     128.8393   -29300.066    5996.5306 
   87800    304.18941   -29181.606    145.07693   -29326.683   -8614.6036 
   88000    301.99954   -29181.198    144.03252    -29325.23   -11028.605 
   88200    327.79538   -29157.953    156.33532   -29314.289   -27459.878 
   88400     284.6625   -29189.755    135.76397   -29325.519    5630.6462 
   88600    302.62911   -29176.045    144.33278   -29320.378     3829.786 
   88800    286.56747   -29165.096    136.67251   -29301.769   -10506.715 
   89000    309.87768   -29171.186    147.78984   -29318.975   -11452.552 
   89200    286.50908   -29174.885    136.64466    -29311.53   -44453.287 
   89400    312.76675   -29151.157    149.16772   -29300.324    31849.248 
   89600    268.44333   -29180.926    128.02857   -29308.955    26447.433 
   89800    313.63605   -29176.524    149.58232   -29326.106   -31622.134 
   90000    314.60349   -29157.006    150.04372    -29307.05    19479.548 
   90200      268.096   -29188.476    127.86292   -29316.339   -22452.383 
   90400    285.55235    -29176.36    136.18837   -29312.548   -15900.279 
   90600     319.5222   -29160.501     152.3896   -29312.891    21527.061 
   90800    258.47422   -29195.533    123.27401   -29318.807    -16922.68 
   91000    316.87258   -29166.629    151.12591   -29317.755   -45188.535 
   91200    308.67516     -29165.2    147.21632   -29312.416   -5492.7023 
   91400    275.82743   -29192.987    131.55027   -29324.537   -20981.613 
   91600    303.23435   -29172.138    144.62144   -29316.759    14959.912 
   91800    287.93365   -29173.922    137.32408   -29311.246    19236.164 
   92000    305.06297   -29198.859    145.49356   -29344.352    14396.355 
   92200    301.00235   -29173.015    143.55693   -29316.572    5820.2978 
   92400    304.75592   -29173.992    145.34712   -29319.339    -9913.334 
   92600     265.7631   -29207.154    126.75029   -29333.905    6731.1059 
   92800     274.2518   -29202.292     130.7988   -29333.091   -19585.624 
   93000     300.8308    -29175.03    143.47512   -29318.505   -11510.775 
   93200    308.54858   -29170.299    147.15595   -29317.455   -31142.007 
   93400    280.72934   -29198.373    133.88813   -29332.261   -33322.093 
   93600    297.67407   -29178.132    141.96958   -29320.102   -12160.723 
   93800     304.6899   -29173.007    145.31563   -29318.323    51754.094 
   94000    257.93371   -29201.837    123.01622   -29324.853   -8655.7938 
   94200    297.54145   -29179.532    141.90633   -29321.439   -23904.622 
   94400    300.44951   -29174.077    143.29327    -29317.37    5597.8351 
   94600    280.25579   -29195.678    133.66228   -29329.341   -40105.578 
   94800    305.72626   -29187.568     145.8099   -29333.378    29358.944 
   95000    297.56418   -29174.681    141.91717   -29316.599    11202.716 
   95200    287.47217   -29193.309    137.10399   -29330.413   -9431.0602 
   95400    284.88573   -29199.494    135.87044   -29335.365    33018.795 
   95600    309.61052   -29169.022    147.66242   -29316.684    10118.521 
   95800    292.12167   -29182.782    139.32148   -29322.103   -26297.162 
   96000    284.91874   -29202.128    135.88618   -29338.014    9303.4782 
   96200    288.19651   -29186.359    137.44945   -29323.809    53743.217 
   96400    321.75722   -29173.994    153.45555    -29327.45    23692.505 
   96600    318.11495   -29150.719    151.71844   -29302.438    7025.4495 
   96800    295.00105   -29188.916    140.69473    -29329.61    58309.123 
   97000    321.15268   -29174.653    153.16722   -29327.821   -15539.104 
   97200    334.85054   -29164.416    159.70014   -29324.116     20662.61 
   97400    287.67313   -29197.684    137.19983   -29334.883    7591.6654 
   97600    297.26052   -29170.846    141.77235   -29312.618    27395.053 
   97800    300.11514   -29196.977     143.1338   -29340.111    17012.397 
   98000    279.87356   -29197.254    133.47999   -29330.734    23487.516 
   98200    327.37882   -29173.417    156.13665   -29329.554   -7384.5953 
   98400    273.40125   -29192.773    130.39315   -29323.167    23378.968 
   98600    257.94631   -29206.087    123.02223   -29329.109    23752.466 
   98800    312.02178   -29176.414    148.81243   -29325.226   -13575.743 
   99000    320.36956   -29160.876    152.79373    -29313.67    9970.6536 
   99200    272.20255   -29193.623    129.82145   -29323.444    25718.197 
   99400    301.15571   -29175.589    143.63008   -29319.219   -23535.077 
   99600    296.28592   -29171.502    141.30753    -29312.81   -1662.1385 
   99800    308.48145   -29179.506    147.12394    -29326.63   -1818.3527 
  100000    278.59824   -29190.708    132.87175    -29323.58   -39444.684 
  100200    308.79386   -29158.981    147.27294   -29306.254   -15860.709 
  100400    306.38015   -29175.984    146.12176   -29322.106     13264.86 
  100600    280.80157     -29181.9    133.92258   -29315.823    19035.394 
  100800    304.09478   -29170.302     145.0318   -29315.334   -3588.1245 
  101000    342.74982   -29145.036    163.46754   -29308.504    48485.136 
  101200    306.27456    -29170.57    146.07141   -29316.642   -17847.947 
  101400    297.35064   -29172.268    141.81532   -29314.083   -13045.777 
  101600    349.77024    -29137.34    166.81578   -29304.155   -4887.9833 
  101800    327.05921   -29156.969    155.98422   -29312.953    7715.9808 
  102000    276.98066   -29163.154    132.10028   -29295.254    16854.207 
  102200    284.76314   -29172.419    135.81197   -29308.231    14874.884 
  102400    293.34698    -29174.37    139.90586   -29314.276   -4931.1685 
  102600    316.77594   -29148.973    151.07982   -29300.053   -56958.811 
  102800    277.85042   -29185.625    132.51509    -29318.14    74130.379 
  103000    319.65074   -29167.939     152.4509    -29320.39   -20534.108 
  103200    301.34489   -29167.745     143.7203   -29311.466    10689.748 
  103400    297.11868   -29185.516    141.70469   -29327.221    137.86602 
  103600    307.65781   -29160.193    146.73112   -29306.924   -9438.6937 
  103800    283.07043    -29176.14    135.00467   -29311.145   -33669.269 
  104000     241.5656   -29197.371    115.20979   -29312.581    38665.334 
  104200    307.48977   -29155.605    146.65097   -29302.256    4053.7292 
  104400    307.01433   -29161.966    146.42423    -29308.39    -7274.451 
  104600    280.98297   -29184.342     134.0091   -29318.351    50796.143 
  104800    304.18361    -29151.02    145.07417   -29296.094   -8038.9763 
  105000    298.50352   -29167.437    142.36517   -29309.802    5268.0082 
  105200    283.95152   -29179.425    135.42489    -29314.85   -21378.246 
  105400    301.69629   -29175.042    143.88789    -29318.93    9209.2086 
  105600    296.56573   -29194.333    141.44098   -29335.774    -26996.96 
  105800     286.7611   -29185.198    136.76486   -29321.963     17214.71 
  106000    305.87781   -29167.056    145.88219   -29312.938    46770.323 
  106200    277.57708   -29193.517    132.38473   -29325.901   -30607.202 
  106400    273.41035   -29184.865    130.39749   -29315.262   -8265.4264 
  106600    307.50042   -29169.264    146.65605    -29315.92    24303.256 
  106800    280.86696   -29188.421    133.95377   -29322.375    8047.8943 
  107000    313.62966   -29168.976    149.57927   -29318.555   -39710.274 
  107200    308.17573   -29159.873    146.97813   -29306.851    11921.146 
  107400    313.03347   -29175.817    149.29493   -29325.112    3356.2548 
  107600    291.10622   -29183.041    138.83718   -29321.878    35518.204 
  107800    263.45617   -29211.181    125.65005   -29336.831   -21812.032 
  108000    275.25371   -29188.751    131.27664   -29320.027    17508.345 
  108200    333.28108   -29173.528    158.95162    -29332.48    21903.135 
  108400    280.94225   -29199.984    133.98968   -29333.974    20895.135 
  108600    261.47555   -29195.251    124.70543   -29319.957   -25039.498 
  108800    298.07987   -29179.229    142.16311   -29321.392   -6215.7921 
  109000    299.42329    -29181.35    142.80383   -29324.153   -21704.731 
  109200    259.86359   -29196.215    123.93664   -29320.152   -2394.2734 
  109400    296.61785   -29163.647    141.46583   -29305.112    5330.5013 
  109600    319.32015    -29168.68    152.29324   -29320.973    24100.842 
  109800    284.42318   -29198.877    135.64983   -29334.527    18177.662 
  110000    301.54803   -29180.439    143.81718   -29324.256   -15075.011 
  110200    317.91435   -29163.947    151.62277    -29315.57   -8853.0448 
  110400    298.05661   -29181.175    142.15202   -29323.327    9458.2285 
  110600    278.66634   -29190.242    132.90423   -29323.146    -8708.243 
  110800    299.04389    -29163.18    142.62289   -29305.803   -10103.128 
  111000    325.29438   -29178.164    155.14252   -29333.307   -11211.812 
  111200    277.45756   -29192.078    132.32773   -29324.406   -45245.566 
  111400    283.43771   -29181.369    135.17983   -29316.548    24848.544 
  111600    329.48813   -29164.748    157.14265   -29321.891   -29097.478 
  111800    296.29006    -29180.84     141.3095    -29322.15    20503.293 
  112000     283.6349   -29188.319    135.27388   -29323.593    11493.993 
  112200    316.15038   -29169.344    150.78148   -29320.126   -19897.391 
  112400    310.95662   -29176.939    148.30442   -29325.243    51453.925 
  112600    281.44401   -29174.419    134.22898   -29308.648    22253.329 
  112800    304.99493    -29164.39    145.46111   -29309.851     257.6283 
  113000    304.19129   -29189.206    145.07783   -29334.284   -7095.9363 
  113200    315.95377   -29157.401    150.68771   -29308.089     15439.13 
  113400    303.30004   -29175.651    144.65277   -29320.304   -11650.385 
  113600     274.4442   -29186.767    130.89056   -29317.657   -8006.6259 
  113800    317.49926   -29150.675     151.4248     -29302.1    25120.938 
  114000    309.95322   -29173.084    147.82587    -29320.91   -28022.205 
  114200    259.27319   -29186.786    123.65506   -29310.441   -19497.391 
  114400    352.76909   -29156.403    168.24602   -29324.649    13023.162 
  114600    293.85132   -29175.412     140.1464   -29315.558    10338.308 
  114800    281.61919   -29180.527    134.31253    -29314.84    17615.407 
  115000    303.96678   -29169.723    144.97075   -29314.694    15183.378 
  115200    334.42612   -29137.959    159.49772   -29297.457    29595.381 
  115400    296.35337   -29173.559     141.3397   -29314.899   -25163.195 
  115600    280.01804   -29180.956    133.54889   -29314.504   -8074.0479 
  115800    288.57413   -29174.299    137.62955   -29311.929   -13471.372 
  116000    315.71859   -29157.829    150.57554   -29308.405    22572.813 
  116200    259.32759   -29192.627      123.681   -29316.308   -27856.734 
  116400    303.26905   -29175.714    144.63799   -29320.352    21603.143 
  116600    303.61944   -29165.423     144.8051   -29310.228   -7007.2259 
  116800    303.36293   -29173.665    144.68276   -29318.348   -31183.822 
  117000    280.70954   -29188.343    133.87869   -29322.221    10211.836 
  117200    281.43775   -29174.223    134.22599   -29308.449    24102.876 
  117400    308.64045   -29159.536    147.19977   -29306.736   -18827.957 
  117600    307.32199   -29192.084    146.57096   -29338.655    14343.202 
  117800    266.37008   -29182.564    127.03978   -29309.604    27147.314 
  118000     317.5533   -29162.538    151.45057   -29313.989   -21719.878 
  118200    282.57785   -29185.879    134.76974   -29320.649    24138.323 
  118400    295.61605   -29183.863    140.98805   -29324.851   -11831.307 
  118600    307.59914   -29170.225    146.70314   -29316.928   -36468.639 
  118800    307.86471   -29180.262     146.8298   -29327.092   -5155.6271 
  119000    306.45362   -29159.101    146.15681   -29305.258    14618.407 
  119200    298.16253   -29159.167    142.20254   -29301.369    40994.474 
  119400    310.68491   -29181.162    148.17483   -29329.337    5646.8075 
  119600    299.80626   -29161.127    142.98648   -29304.114    4328.1938 
  119800    325.04699   -29128.388    155.02453   -29283.412    60494.582 
  120000    304.62278   -29161.026    145.28362   -29306.309   -15115.365 
  120200    300.80975   -29181.777    143.46507   -29325.242   -26617.488 
  120400    284.02921   -29175.238    135.46194     -29310.7   -13605.303 
  120600     332.5022    -29156.77    158.58015    -29315.35   -16954.898 
  120800    290.30305   -29188.688    138.45412   -29327.142    26346.111 
  121000    315.20558   -29176.522    150.33088   -29326.853   -31017.579 
  121200    340.66349   -29166.638     162.4725    -29329.11   -19339.752 
  121400    313.67135   -29191.784    149.59916   -29341.383   -14957.935 
  121600    324.08182    -29176.78    154.56421   -29331.344   -37760.925 
  121800    310.90404   -29170.232    148.27934   -29318.511    48400.519 
  122000    303.67447   -29185.089    144.83135    -29329.92   -30539.683 
  122200    338.01951   -29166.855    161.21151   -29328.066   -2962.4297 
  122400    348.36943   -29140.652     166.1477     -29306.8    -48812.22 
  122600    305.80679   -29180.011    145.84831   -29325.859    49650.811 
  122800    292.23114   -29183.112    139.37368   -29322.486   -26041.233 
  123000    323.35947   -29156.693    154.21971   -29310.912   -25766.251 
  123200    299.21161   -29180.276    142.70288   -29322.979    8233.3489 
  123400     292.4113   -29191.567    139.45961   -29331.026   -37590.084 
  123600    278.92259    -29196.28    133.02644   -29329.306   -18882.825 
  123800    306.26234   -29168.536    146.06558   -29314.602   -33759.393 
  124000    269.61096   -29195.566    128.58545   -29324.152   -13760.998 
  124200    293.43583   -29193.111    139.94824   -29333.059   -34752.024 
  124400      320.598   -29172.692    152.90268   -29325.595    41033.209 
  124600     309.2788   -29179.528    147.50422   -29327.032   -15701.791 
  124800    284.02295   -29199.835    135.45895   -29335.294   -5134.0572 
  125000    311.99586   -29170.345    148.80006   -29319.145   -19262.585 
  125200    305.44943   -29166.798    145.67788   -29312.476     24670.72 
  125400    283.72956   -29198.292    135.31903   -29333.611    5618.7183 
  125600    310.34703    -29173.02    148.01369   -29321.034   -518.95273 
  125800     296.8253   -29175.113    141.56477   -29316.678    24955.765 
  126000    268.65402   -29205.372    128.12905   -29333.501   -7574.5333 
  126200    298.45987   -29193.842    142.34435   -29336.187   -57915.412 
  126400    314.18445   -29177.498    149.84387   -29327.342     44378.07 
  126600    312.36341   -29168.753    148.97536   -29317.728   -9841.9664 
  126800    266.13421   -29191.234    126.92728   -29318.162   -37226.346 
  127000    313.88115    -29177.68    149.69921   -29327.379    6475.1905 
  127200    270.26598   -29164.446    128.89785   -29293.343    13763.043 
  127400    307.71863   -29182.446    146.76013   -29329.206   -38364.762 
  127600    247.59087   -29208.212    118.08342   -29326.296   -13850.926 
  127800     297.6715   -29174.409    141.96835   -29316.377   -18776.586 
  128000    295.25235   -29166.838    140.81459   -29307.653     56372.72 
  128200     287.1857   -29198.339    136.96736   -29335.307    8739.5081 
  128400     281.0466   -29183.261    134.03944   -29317.301    14342.794 
  128600    314.67148   -29178.292    150.07615   -29328.368    13256.599 
  128800    307.49702   -29179.415    146.65443   -29326.069    38882.748 
  129000    299.38468   -29169.286    142.78542   -29312.072    43697.628 
  129200    289.19022   -29182.139    137.92338   -29320.062   -17668.786 
  129400    281.24223   -29187.948    134.13274   -29322.081   -23948.521 
  129600    300.57115   -29156.545    143.35128   -29299.896    54184.095 
  129800    280.81339   -29177.596    133.92822   -29311.524   -1057.1578 
  130000    262.41014   -29199.972    125.15116   -29325.123   -8582.0179 
  130200    302.94653     -29168.5    144.48417   -29312.984     5009.547 
  130400    316.35605   -29167.112    150.87957   -29317.992    9177.6135 
  130600    301.87367   -29183.591    143.97249   -29327.564    21550.697 
  130800    300.62517    -29167.41    143.37705   -29310.787    28615.125 
  131000     319.5335   -29156.882    152.39498   -29309.277   -9789.1121 
  131200    300.82673   -29185.159    143.47317   -29328.632    44638.176 
  131400    328.97004   -29169.214    156.89555    -29326.11   -28550.914 
  131600    328.61697   -29154.701    156.72716   -29311.428    12539.476 
  131800    274.52539   -29189.674    130.92929   -29320.603    4421.0395 
  132000    314.62715   -29164.052      150.055   -29314.107    -27750.06 
  132200    294.06885   -29164.471    140.25014   -29304.721    28604.657 
  132400    277.24293   -29193.925    132.22536    -29326.15   -21066.276 
  132600    278.07665   -29172.766    132.62299   -29305.389    2458.3822 
  132800    303.47541   -29162.999    144.73641   -29307.735    25068.644 
  133000    285.08321   -29190.163    135.96463   -29326.127    17688.853 
  133200    285.73346    -29185.88    136.27475   -29322.155   -23780.198 
  133400     306.5881   -29162.086    146.22094   -29308.306    25103.211 
  133600    264.37827   -29188.224    126.08983   -29314.314   -2436.1638 
  133800    311.65658   -29164.628    148.63825   -29313.266    23045.143 
  134000    289.32186   -29166.189    137.98616   -29304.175    8374.8289 
  134200    302.83429   -29183.291    144.43064   -29327.722    14424.362 
  134400    305.71442    -29147.89    145.80426   -29293.694    9025.2302 
  134600    294.81899   -29159.345     140.6079   -29299.953   -47082.398 
  134800    291.18443   -29176.623    138.87448   -29315.498   -6381.8801 
  135000    326.20879   -29150.303    155.57863   -29305.881   -38116.474 
  135200    321.01181   -29165.465    153.10004   -29318.565   -32325.532 
  135400    320.92917   -29173.655    153.06062   -29326.716   -39908.869 
  135600    315.21844   -29180.581    150.33701   -29330.918    25780.827 
  135800    286.33257   -29199.792    136.56048   -29336.352   -17736.608 
  136000    324.93344   -29165.476    154.97038   -29320.446   -1517.6415 
  136200    312.90388   -29188.466    149.23312     -29337.7   -23893.507 
  136400    280.50085   -29188.707    133.77916   -29322.486    2977.3272 
  136600    287.33309   -29179.274    137.03766   -29316.312   -6399.2109 
  136800    306.69506   -29177.509    146.27196   -29323.781    -20533.73 
  137000    300.98075    -29177.33    143.54663   -29320.877    31703.012 
  137200    303.08201   -29174.243    144.54878   -29318.792    34036.643 
  137400    325.64213   -29138.162    155.30837    -29293.47   -28956.996 
  137600     311.5229   -29164.594     148.5745   -29313.168   -10412.713 
  137800    287.13539   -29186.567    136.94337    -29323.51    12978.093 
  138000    305.54666   -29163.522    145.72425   -29309.247    11442.015 
  138200    294.14851   -29178.705    140.28814   -29318.993   -35811.251 
  138400     295.9576   -29184.463    141.15094   -29325.614    8548.5114 
  138600    305.82451   -29167.695    145.85676   -29313.552    16280.209 
  138800    275.07964    -29199.16    131.19363   -29330.353   -16781.214 
  139000    311.18905   -29181.635    148.41527    -29330.05      45733.6 
  139200     309.4464   -29173.379    147.58415   -29320.963   -36394.708 
  139400    314.00989   -29167.024    149.76061   -29316.785    29411.968 
  139600    310.64256   -29164.843    148.15463   -29312.997   -26062.348 
  139800    256.67653   -29187.264    122.41664   -29309.681    9344.6583 
  140000    316.83353   -29170.471    151.10729   -29321.578   -35281.991 
  140200     329.5906   -29165.178    157.19152    -29322.37   -30133.619 
  140400    293.56355   -29184.512    140.00915   -29324.521    31508.624 
  140600    317.49219   -29178.475    151.42143   -29329.897   -14679.334 
  140800    301.12618   -29186.828    143.61599   -29330.444   -22871.557 
  141000      273.905   -29204.283    130.63341   -29334.917    -27798.41 
  141200    308.59614   -29176.518    147.17863   -29323.697   -26833.424 
  141400     279.4122   -29194.028    133.25995   -29327.288    3017.5915 
  141600    270.58604   -29209.741    129.05049   -29338.792    14092.252 
  141800    316.55301   -29175.585     150.9735   -29326.558     23839.65 
  142000    288.25777   -29193.284    137.47866   -29330.763    2686.2013 
  142200    316.66006   -29179.487    151.02456   -29330.512   -11280.585 
  142400    320.19874   -29167.228    152.71226   -29319.941     29611.77 
  142600    286.69234   -29196.379    136.73207   -29333.111   -5157.5033 
  142800    287.73453   -29178.873    137.22912   -29316.102    6719.7953 
  143000    311.29605   -29159.794     148.4663    -29308.26   -7422.7966 
  143200    314.31101   -29185.727    149.90423   -29335.632   -20952.401 
  143400    307.96433     -29188.7     146.8773   -29335.578    2569.3889 
  143600    285.42644   -29175.421    136.12832   -29311.549    15076.872 
  143800    298.88068   -29170.633    142.54505   -29313.178     18931.53 
  144000    297.14202   -29187.612    141.71583   -29329.328   -14225.019 
  144200    287.81056   -29179.241    137.26538   -29316.507   -2010.2787 
  144400    326.40194   -29165.367    155.67075   -29321.038   -1163.3249 
  144600    302.44975   -29187.743    144.24724    -29331.99   -15810.239 
  144800    329.94544   -29162.459    157.36075    -29319.82   -2277.4124 
  145000    309.70698   -29169.032    147.70843   -29316.741    31511.251 
  145200    285.24603   -29181.318    136.04228   -29317.361    45790.529 
  145400    330.43584   -29151.206    157.59464   -29308.801    16177.102 
  145600    290.76857   -29173.079    138.67614   -29311.755   -1653.0397 
  145800    325.71074   -29168.283     155.3411   -29323.624   -16653.649 
  146000    323.35787   -29142.602    154.21894   -29296.821    1797.4283 
  146200     298.1689   -29168.643    142.20558   -29310.849   -12073.535 
  146400     307.6102   -29179.191    146.70841     -29325.9   -19663.261 
  146600    285.79054   -29184.433    136.30197   -29320.735    15709.496 
  146800     309.5104   -29155.031    147.61467   -29302.646     25870.24 
  147000    287.81202   -29177.833    137.26608   -29315.099    12615.922 
  147200    275.11939   -29183.883    131.21258   -29315.095   -9854.0961 
  147400     310.3524   -29163.975    148.01625   -29311.991    5644.7201 
  147600    280.21117   -29172.169      133.641    -29305.81    6346.2964 
  147800    284.48991   -29184.403    135.68166   -29320.085   -13909.286 
  148000    334.38122    -29159.82     159.4763   -29319.296   -19299.173 
  148200    296.51156   -29171.855    141.41514    -29313.27   -3993.5136 
  148400    324.36791   -29172.456    154.70066   -29327.157    1000.9827 
  148600    304.73396   -29182.082    145.33665   -29327.419   -20614.999 
  148800    281.57431   -29207.728    134.29112    -29342.02   -2017.1606 
  149000    278.57368   -29177.993    132.86004   -29310.853    17887.636 
  149200     304.3726   -29178.381    145.16431   -29323.545   -13235.933 
  149400    275.43346   -29195.995    131.36237   -29327.358   -9770.4175 
  149600    327.31258   -29171.842    156.10506   -29327.947    12448.305 
  149800    293.87689   -29175.757    140.15859   -29315.915   -511.74677 
  150000    300.31609   -29184.441    143.22963    -29327.67    7616.0162 
  150200    306.22503   -29179.166    146.04778   -29325.214   -14622.777 
  150400    291.41384   -29183.222    138.98389   -29322.206    81416.718 
  150600     272.3624   -29191.739    129.89769   -29321.636    14895.358 
  150800    324.97643   -29170.375    154.99088   -29325.365   -47331.053 
  151000    307.22891   -29167.275    146.52656   -29313.802    21816.431 
  151200    291.97793   -29195.723    139.25292   -29334.976   -11453.264 
  151400    316.19283   -29170.562    150.80172   -29321.364   -30163.249 
  151600    287.59803   -29180.922    137.16402   -29318.086    9947.3333 
  151800    270.19498   -29196.885    128.86398   -29325.749    7048.9151 
  152000     305.5683   -29171.169    145.73457   -29316.903    19458.275 
  152200    283.96308   -29185.125     135.4304   -29320.555    19199.557 
  152400    276.94179    -29205.42    132.08174   -29337.502   -21481.124 
  152600    296.79753   -29177.131    141.55153   -29318.682   -35107.155 
  152800    316.99202   -29162.695    151.18288   -29313.878    5153.0913 
  153000    296.28747   -29189.504    141.30826   -29330.812    14228.863 
  153200    303.27267    -29166.02    144.63972   -29310.659    14614.959 
  153400    302.38684   -29171.348    144.21724   -29315.565   -34860.508 
  153600    274.01744   -29180.878    130.68703   -29311.565    9114.0192 
  153800    341.70582   -29145.753    162.96962   -29308.723   -37977.666 
  154000    324.47955    -29175.11     154.7539   -29329.864    -19703.41 
  154200     314.6002   -29183.286    150.04215   -29333.329    11579.519 
  154400      320.561    -29148.19    152.88503   -29301.075   -67287.429 
  154600    288.57161   -29177.195    137.62834   -29314.823    5830.1403 
  154800    321.78553   -29178.089    153.46904   -29331.558   -5063.0787 
  155000      332.597   -29140.317    158.62535   -29298.942    15385.118 
  155200    312.22744   -29164.363    148.91051   -29313.273   -1057.9379 
  155400    289.71513   -29182.902    138.17372   -29321.076    17446.518 
  155600    293.27335    -29179.74    139.87074    -29319.61   -3316.5037 
  155800    331.33977   -29155.703    158.02574   -29313.729    30860.999 
  156000    264.73119   -29190.555    126.25814   -29316.813    11856.853 
  156200    302.09613   -29184.234    144.07859   -29328.313   -22648.414 
  156400    298.88373   -29170.328     142.5465   -29312.874   -10851.575 
  156600    297.01323    -29187.36     141.6544   -29329.014    18819.323 
  156800    296.73908   -29199.423    141.52365   -29340.947   -966.71543 
  157000    333.84885   -29164.804     159.2224   -29324.027    41286.644 
  157200     301.1354   -29185.932    143.62039   -29329.552   -1649.0383 
  157400     291.7704   -29186.328    139.15394   -29325.482    9695.8328 
  157600    305.90729   -29178.739    145.89624   -29324.635     20787.45 
  157800     323.0835   -29153.114    154.08809   -29307.202        11883 
  158000    275.56578   -29183.393    131.42548   -29314.819   -30704.628 
  158200    301.56826    -29177.19    143.82683   -29321.017   -31902.901 
  158400    300.29493   -29154.309    143.21954   -29297.529    7751.6196 
  158600    281.52612   -29170.377    134.26814   -29304.645    8876.0213 
  158800     270.3813   -29187.025    128.95285   -29315.978    4961.4558 
  159000    350.87844   -29158.211    167.34432   -29325.555    1618.4884 
  159200    318.84053   -29171.356    152.06449    -29323.42    14917.134 
  159400    307.24784   -29180.174    146.53559    -29326.71    1960.3243 
  159600    308.59537    -29176.33    147.17827   -29323.508    8251.2208 
  159800    305.86782   -29160.764    145.87742   -29306.642    24352.954 
  160000     271.9352   -29190.399    129.69395   -29320.093    3316.6239 
  160200    299.12723   -29177.992    142.66263   -29320.654   -20366.242 
  160400    318.17374    -29166.97    151.74648   -29318.716   -1221.0898 
  160600    308.56309   -29163.509    147.16287   -29310.672    2784.8667 
  160800    290.77914   -29189.603    138.68118   -29328.284    13612.738 
  161000    275.08201   -29165.109    131.19476   -29296.304   -20669.851 
  161200    313.14463   -29163.692    149.34795   -29313.039   -9974.5069 
  161400    289.05161   -29187.472    137.85727    -29325.33    4544.9553 
  161600    277.35416   -29188.146    132.27841   -29320.424    6648.7213 
  161800    311.12959   -29161.292    148.38691   -29309.679   -9044.8591 
  162000    280.09278   -29186.676    133.58454   -29320.261    27265.271 
  162200    315.44652   -29165.943    150.44579   -29316.388   -8086.4765 
  162400    306.18007   -29169.164    146.02634    -29315.19   -6226.4589 
  162600    288.51922   -29184.175    137.60336   -29321.778   -58035.982 
  162800    328.00615   -29153.065    156.43584   -29309.501    18213.067 
  163000    304.14097   -29171.295    145.05383   -29316.348    615.15923 
  163200    280.81037   -29192.662    133.92678   -29326.589    32498.259 
  163400    301.83875   -29167.102    143.95584   -29311.058    1966.9402 
  163600    306.05353   -29183.736    145.96599   -29329.702   -32454.726 
  163800    291.78569   -29187.736    139.16124   -29326.897    22706.082 
  164000    309.89672   -29171.973    147.79892   -29319.772   -38810.078 
  164200     279.9717   -29202.308    133.52679   -29335.835   -8362.4154 
  164400    272.20313   -29189.204    129.82173   -29319.025   -46510.577 
  164600    333.09025   -29175.705     158.8606   -29334.565    20994.222 
  164800    292.97343   -29181.767     139.7277   -29321.495    17509.323 
  165000    299.92359    -29195.62    143.04244   -29338.663   -45017.121 
  165200    296.03862   -29165.211    141.18958   -29306.401   -25978.732 
  165400    295.14126    -29189.92     140.7616   -29330.681    18836.436 
  165600    299.63576   -29187.842    142.90517   -29330.747   -1274.3009 
  165800    325.34096   -29178.253    155.16474   -29333.417    27184.785 
  166000    307.08403   -29176.796    146.45747   -29323.253   -24336.358 
  166200     307.5248   -29191.489    146.66768   -29338.157    15445.085 
  166400    281.52704   -29180.363    134.26858   -29314.631    34307.735 
  166600    322.87175   -29163.205     153.9871   -29317.193    8711.9042 
  166800    295.12429   -29186.521    140.75351   -29327.275    18193.883 
  167000    253.49705   -29210.804    120.90025   -29331.704    26413.235 
  167200    314.16504   -29180.359    149.83461   -29330.194   -18278.082 
  167400    325.58512   -29154.231    155.28118   -29309.512   -2492.5791 
  167600    308.03131   -29182.425    146.90925   -29329.334    4077.7625 
  167800    282.40451   -29176.614    134.68707   -29311.301    11345.635 
  168000    325.42846   -29167.797    155.20647   -29323.004    36892.611 
  168200    292.16917   -29207.463    139.34413   -29346.807   -16544.241 
  168400    292.65672   -29183.117    139.57665   -29322.693    8087.9653 
  168600    285.82652   -29168.838    136.31913   -29305.157    1011.9795 
  168800    284.52102   -29191.275     135.6965   -29326.972   -18970.832 
  169000    293.83802   -29188.353    140.14005   -29328.493    16895.246 
  169200    304.36481   -29164.636    145.16059   -29309.797    1481.9699 
  169400     303.9367   -29176.946    144.95641   -29321.902   -6750.2366 
  169600    261.91227    -29204.61    124.91372   -29329.524   -23509.659 
  169800    295.99293   -29176.405    141.16779   -29317.573    1576.0051 
  170000    291.39469   -29161.111    138.97475   -29300.086     20564.18 
  170200    301.40159   -29173.449    143.74734   -29317.196   -23334.984 
  170400    274.31048    -29189.09    130.82679   -29319.916   -3119.5553 
  170600    289.19213   -29167.194    137.92429   -29305.118   -47192.061 
  170800    320.88596   -29172.539    153.04001   -29325.579     13441.56 
  171000    264.38045   -29198.139    126.09086    -29324.23   -43485.092 
  171200    254.45276   -29216.462    121.35605   -29337.818    4007.3107 
  171400    315.25708   -29174.472    150.35544   -29324.827    38747.553 
  171600    309.03661   -29177.429    147.38871   -29324.818    10922.472 
  171800    278.12411   -29194.834    132.64562    -29327.48    5854.8502 
  172000    321.67226   -29160.317    153.41503   -29313.732   -22319.173 
  172200    299.72591   -29182.538    142.94816   -29325.486   -1614.8409 
  172400     280.8692   -29169.605    133.95484    -29303.56    6435.5775 
  172600    288.53544   -29162.492    137.61109   -29300.103     54516.56 
  172800    278.49942   -29184.022    132.82462   -29316.846   -7751.8983 
  173000    330.31838   -29151.257    157.53861   -29308.796   -50495.058 
  173200    332.23966   -29160.644    158.45493   -29319.098     12434.54 
  173400    296.55332   -29174.383    141.43506   -29315.818    45392.266 
  173600     307.4383   -29188.015    146.62643   -29334.641    23729.195 
  173800    285.66851   -29170.246    136.24377    -29306.49    11265.353 
  174000    306.10625   -29164.035    145.99113   -29310.026    22723.473 
  174200    272.70224   -29192.203    130.05977   -29322.262   -42283.208 
  174400    311.08794   -29172.189    148.36705   -29320.556   -2948.6114 
  174600    303.99634   -29163.127    144.98485   -29308.112   -11934.003 
  174800    280.31757   -29195.335    133.69175   -29329.027    11321.758 
  175000    288.38567   -29166.368    137.53966   -29303.907    26693.012 
  175200    296.61304   -29169.578    141.46354   -29311.041   -19754.161 
  175400    255.36842   -29199.192    121.79276   -29320.985   -13918.746 
  175600    290.07291   -29179.146    138.34436    -29317.49   -4799.7308 
  175800    322.64763    -29157.72    153.88021   -29311.601    34626.755 
  176000    322.71482    -29156.65    153.91225   -29310.562     47835.46 
  176200    279.30078   -29187.144    133.20681   -29320.351    1820.1502 
  176400    322.96338   -29157.359     154.0308    -29311.39   -2704.7337 
  176600    301.27686   -29163.805    143.68785   -29307.492   -5381.3915 
  176800    318.03641    -29170.84    151.68098   -29322.521   -12900.921 
  177000    283.05899   -29171.715    134.99922   -29306.714    -135.0908 
  177200    306.51921   -29176.346    146.18809   -29322.534   -35937.604 
  177400    305.04557   -29159.369    145.48526   -29304.854   -2261.2362 
  177600    283.88223   -29177.772    135.39184   -29313.164    2085.7942 
  177800    272.76782    -29182.15    130.09105   -29312.241    4910.1623 
[...]
  950000    307.44971   -29169.242    146.63187   -29315.874   -3273.8014 
  950200    268.17642   -29192.007    127.90127   -29319.908   -3246.1997 
  950400    313.19097   -29175.496    149.37005   -29324.866   -4698.6882 
  950600    319.67165    -29166.21    152.46088   -29318.671    -18028.18 
  950800    267.58185   -29192.313    127.61771    -29319.93    -13557.85 
  951000    303.01154   -29182.841    144.51517   -29327.356   -6771.8608 
  951200    296.91348   -29171.153    141.60683    -29312.76   -18324.394 
  951400    348.65291   -29137.331    166.28289   -29303.614   -2341.9787 
  951600    317.02976   -29176.203    151.20088   -29327.404   -40017.422 
  951800    328.32063   -29182.407    156.58583   -29338.993   -4004.8712 
  952000    304.74214   -29161.198    145.34055   -29306.539   -9771.4005 
  952200    324.98193   -29163.973     154.9935   -29318.967     8953.609 
  952400    288.19924   -29187.358    137.45075   -29324.809    32038.655 
  952600    303.51265   -29157.458    144.75417   -29302.212    17125.225 
  952800    321.82247   -29161.808    153.48666   -29315.295    3076.4709 
  953000    306.98504   -29184.862    146.41025   -29331.273    5423.1422 
  953200    284.52066   -29182.059    135.69632   -29317.755   -152.07822 
  953400    330.02625   -29156.115    157.39929   -29313.514     32908.37 
  953600     264.0965   -29184.568    125.95544   -29310.523    -31293.89 
  953800    283.44545   -29186.018    135.18353   -29321.202    1003.4645 
  954000    318.65194   -29165.053    151.97455   -29317.027   -19865.046 
  954200    339.46752   -29149.478    161.90211    -29311.38   -34197.187 
  954400    257.46918   -29188.798    122.79468   -29311.593    19346.629 
  954600    317.77577   -29171.631    151.55667   -29323.188   -15787.971 
  954800     327.1437   -29163.453    156.02452   -29319.478   -8077.2023 
  955000    285.00285   -29198.218     135.9263   -29334.144    15250.247 
  955200    319.94382   -29171.914    152.59068   -29324.505   -4583.1963 
  955400    290.79644   -29173.745    138.68943   -29312.435    63944.354 
  955600    300.78941   -29180.565    143.45538   -29324.021    16715.896 
  955800    306.85871   -29176.715    146.35001   -29323.065    26739.633 
  956000    276.14017   -29187.498    131.69942   -29319.197    5845.7007 
  956200    308.70653   -29193.064    147.23128   -29340.296   -42878.812 
  956400    342.23618   -29162.561    163.22257   -29325.783    5630.0445 
  956600    308.06458   -29185.482    146.92512   -29332.408    23615.977 
  956800    302.38398   -29191.988    144.21587   -29336.203   -38892.105 
  957000    303.13229   -29182.088    144.57276   -29326.661    50921.529 
  957200    288.89085   -29173.213     137.7806   -29310.994    2347.4996 
  957400    306.92468   -29171.962    146.38147   -29318.344   -9994.8016 
  957600    274.40752   -29197.957    130.87307    -29328.83   -7169.3719 
  957800    306.06206   -29163.815    145.97006   -29309.785   -27562.076 
  958000    313.36433   -29174.883    149.45273   -29324.336    4072.9639 
  958200    284.08199   -29190.488    135.48711   -29325.975    6963.3818 
  958400    295.33701   -29178.859    140.85496   -29319.714    -2169.247 
  958600    311.25598   -29158.741    148.44719   -29307.189   -5322.6937 
  958800    284.49898   -29192.477    135.68599   -29328.163     9278.034 
  959000    308.18293   -29182.478    146.98156    -29329.46    32919.587 
  959200    305.74309   -29168.832    145.81793    -29314.65    4387.7803 
  959400    312.51327   -29174.503    149.04683    -29323.55    5325.1526 
  959600    277.20234   -29182.878      132.206   -29315.084    4993.1464 
  959800    265.84697    -29193.24    126.79029    -29320.03    -7771.342 
  960000     316.8101   -29167.155    151.09612   -29318.251    40994.945 
  960200    286.35587   -29185.323    136.57159   -29321.894    7568.1266 
  960400    298.99302   -29190.252    142.59862   -29332.851    4353.2657 
  960600    298.82011   -29168.046    142.51616   -29310.562    21408.845 
  960800    279.52686   -29168.301    133.31464   -29301.616   -22770.463 
  961000    294.81808   -29181.175    140.60747   -29321.783   -28438.957 
  961200    286.87334    -29215.65    136.81839   -29352.469    35602.996 
  961400    315.73432   -29185.532    150.58304   -29336.115    7850.6284 
  961600     326.8944   -29166.347    155.90562   -29322.253    33762.784 
  961800    269.51844   -29192.923    128.54132   -29321.465    30078.441 
  962000    309.90666   -29186.556    147.80366   -29334.359    13051.115 
  962200    318.46931    -29171.14    151.88744   -29323.028    1721.7848 
  962400    289.51602   -29186.352    138.07876   -29324.431    7262.9584 
  962600    290.99127   -29189.748    138.78235    -29328.53    7354.8127 
  962800    294.64242   -29160.213    140.52369   -29300.737     24533.87 
  963000    293.47813    -29184.29    139.96841   -29324.258    23971.177 
  963200    310.07668   -29189.898    147.88475   -29337.783   -43071.352 
  963400    298.71877    -29175.91    142.46782   -29318.378    15522.218 
  963600    321.55888   -29157.954    153.36095   -29311.314   -45517.698 
  963800    302.58385   -29174.106     144.3112   -29318.418   -2341.5657 
  964000     317.6302   -29182.308    151.48724   -29333.795   -27660.005 
  964200    310.83778   -29151.071    148.24774   -29299.319    6956.7982 
  964400    306.65372   -29172.116    146.25224   -29318.368    1873.8932 
  964600    304.00258   -29187.312    144.98783     -29332.3    -26928.79 
  964800    278.99502   -29166.572    133.06099   -29299.633    23627.914 
  965000    315.25161   -29169.137    150.35283    -29319.49   -5483.3203 
  965200    302.20737   -29182.093    144.13164   -29326.224     15193.44 
  965400    312.49434   -29184.276     149.0378   -29333.314    27210.464 
  965600     258.5641   -29187.628    123.31688   -29310.945    8108.1435 
  965800    309.94907   -29163.777    147.82389   -29311.601    -15482.52 
  966000    304.56046   -29178.602     145.2539   -29323.856   -32389.769 
  966200    292.03405   -29189.893    139.27968   -29329.173   -26667.332 
  966400    286.75098   -29176.957    136.76003   -29313.717   -33728.852 
  966600    293.92719   -29182.781    140.18258   -29322.963   -19070.253 
  966800    286.69723   -29201.077     136.7344   -29337.812   -26653.574 
  967000     292.4564   -29173.698    139.48112   -29313.179   -23133.223 
  967200    297.90019   -29172.127    142.07742   -29314.205   -34580.868 
  967400    321.98647   -29164.198    153.56488   -29317.762    13333.424 
  967600    292.09474   -29192.053    139.30863   -29331.362    7522.7288 
  967800    276.51231   -29174.051    131.87691   -29305.928    -17353.06 
  968000    313.17361   -29166.179    149.36177   -29315.541   -328.99879 
  968200    294.07861   -29185.182     140.2548   -29325.436    11886.743 
  968400     292.4363   -29202.945    139.47153   -29342.416   -15718.106 
  968600    307.74092   -29169.975    146.77075   -29316.746   -12863.338 
  968800    281.35751   -29183.141    134.18773   -29317.329   -8014.2261 
  969000    288.55329    -29193.92    137.61961   -29331.539     27154.66 
  969200    295.04652   -29165.206    140.71642   -29305.922   -39656.142 
  969400    284.56233   -29188.621     135.7162   -29324.337    56857.335 
  969600    311.65376   -29175.614    148.63691    -29324.25   -60989.459 
  969800    306.97011   -29165.243    146.40313   -29311.646    11906.515 
  970000    296.41598   -29182.132    141.36956   -29323.502   -6686.0839 
  970200     322.3573   -29169.498    153.74174    -29323.24   -45318.418 
  970400    327.90524   -29145.919    156.38772   -29302.306     20401.24 
  970600    277.65653   -29186.616    132.42262   -29319.039   -2175.0379 
  970800     318.8465   -29173.905    152.06734   -29325.973   -21594.166 
  971000    296.85974   -29170.657     141.5812   -29312.238   -31678.217 
  971200    257.07024   -29192.189    122.60441   -29314.794    18825.973 
  971400    286.20308   -29171.776    136.49872   -29308.275   -12061.034 
  971600    293.47561    -29177.47    139.96721   -29317.437   -4517.2163 
  971800    259.04752   -29203.265    123.54743   -29326.813   -21210.101 
  972000    307.42576   -29189.359    146.62045    -29335.98   -30525.209 
  972200    327.87702   -29176.763    156.37426   -29333.138    53761.114 
  972400    304.32678   -29184.558    145.14245     -29329.7   -5119.6258 
  972600     277.0786   -29193.018    132.14699   -29325.165    7890.7481 
  972800    317.64182   -29163.691    151.49279   -29315.184   -25417.135 
  973000    289.95946   -29173.121    138.29025   -29311.411    20886.582 
  973200    288.50696   -29188.611    137.59751   -29326.208   -14790.035 
  973400    282.70331   -29166.241    134.82958   -29301.071    26694.671 
  973600    299.55736   -29182.613    142.86777    -29325.48   -21039.084 
  973800    315.47334   -29186.502    150.45858   -29336.961   -10992.185 
  974000    289.30658   -29168.768    137.97887   -29306.746     -25032.4 
  974200    292.83273   -29198.777     139.6606   -29338.438    32476.562 
  974400    303.30455    -29183.98    144.65492   -29328.635   -11308.922 
  974600    332.90668     -29170.1    158.77305   -29328.873     22111.25 
  974800    291.14491   -29189.386    138.85563   -29328.242   -57827.864 
  975000    263.22097   -29194.461    125.53787   -29319.999   -11704.722 
  975200    316.60382   -29176.347    150.99773   -29327.345   -18571.315 
  975400     283.0617   -29178.345    135.00051   -29313.345   -10997.813 
  975600    316.04336   -29173.279    150.73043   -29324.009    14368.307 
  975800    311.69344    -29160.54    148.65583   -29309.196   -37197.413 
  976000    291.40981   -29191.038    138.98197    -29330.02     -3820.12 
  976200    285.24938   -29180.093    136.04388   -29316.137     40171.58 
  976400    327.26168   -29142.948    156.08078   -29299.028   -7721.9732 
  976600    306.63068    -29172.38    146.24125   -29318.622    -32887.33 
  976800    315.22969   -29181.957    150.34237     -29332.3     61753.44 
  977000    277.15489   -29203.247    132.18337   -29335.431   -26136.192 
  977200    311.59365   -29176.407    148.60824   -29325.015    10298.144 
  977400    298.13409   -29178.477    142.18898   -29320.666   -8255.7583 
  977600    268.84347   -29201.162    128.21941   -29329.381   -27859.697 
  977800    289.98271   -29166.048    138.30134    -29304.35    28831.409 
  978000    286.97948   -29173.773    136.86901   -29310.642   -47.538974 
  978200    288.57436   -29189.145    137.62965   -29326.775    20823.455 
  978400    318.48419   -29155.473    151.89454   -29307.368     15468.83 
  978600    308.98074   -29181.606    147.36207   -29328.969   -457.56075 
  978800    307.39239   -29179.689    146.60453   -29326.293   -16205.474 
  979000    335.65343   -29143.584    160.08306   -29303.667    18089.496 
  979200    325.19622   -29174.916    155.09571   -29330.011   -28128.575 
  979400    283.39459    -29191.47    135.15927   -29326.629    11959.368 
  979600    301.51614   -29183.974    143.80197   -29327.776    28316.568 
  979800    324.54617   -29161.846    154.78568   -29316.632    32086.121 
  980000    298.37811   -29192.694    142.30535       -29335    39673.702 
  980200    293.84124   -29185.472    140.14159   -29325.614    -11256.12 
  980400    308.74542   -29168.054    147.24983   -29315.304   -21040.062 
  980600    311.05253   -29161.039    148.35016    -29309.39    55792.372 
  980800    275.15294   -29192.453    131.22858   -29323.682    18772.761 
  981000    307.47976   -29169.073     146.6462   -29315.719    10812.394 
  981200    313.64903   -29167.939    149.58851   -29317.527   -34579.134 
  981400     316.1045   -29191.521     150.7596    -29342.28     24864.53 
  981600    304.66651   -29185.205    145.30448    -29330.51   -18146.934 
  981800    317.55371   -29177.778    151.45077   -29329.228   -16681.151 
  982000    297.39594   -29182.387    141.83693   -29324.224    40777.837 
  982200    292.26429   -29199.413    139.38949   -29338.803   -24223.049 
  982400    291.73195   -29173.288     139.1356   -29312.424   -19098.991 
  982600    307.65847   -29184.028    146.73143    -29330.76    66021.923 
  982800    270.91956   -29204.715    129.20956   -29333.925    -25702.25 
  983000     301.4366   -29184.595    143.76404   -29328.359    28526.457 
  983200    289.42782   -29164.613    138.03669    -29302.65    9603.6273 
  983400    289.45179   -29188.785    138.04813   -29326.833    26213.153 
  983600    291.46063   -29190.383     139.0062   -29329.389   -37774.903 
  983800    344.55655   -29148.225    164.32922   -29312.554   -15081.037 
  984000    308.04628   -29162.976    146.91639   -29309.892    2431.9491 
  984200    278.69405   -29188.875    132.91745   -29321.792     22939.64 
  984400    320.21152   -29177.131    152.71835   -29329.849   -15628.625 
  984600    316.65426   -29169.943    151.02179   -29320.964     23320.08 
  984800    310.06495    -29188.07    147.87915   -29335.949   -40662.549 
  985000    302.79429    -29168.47    144.41156   -29312.882   -51753.684 
  985200     332.8886   -29138.466    158.76443   -29297.231   -35138.169 
  985400    295.54495   -29178.376    140.95414    -29319.33     14806.06 
  985600    277.19344   -29186.611    132.20176   -29318.812    25123.454 
  985800    320.36991   -29163.723    152.79389   -29316.517   -1636.9002 
  986000    311.50926   -29170.513    148.56799   -29319.081    27364.098 
  986200    269.88023   -29186.064    128.71387   -29314.778    30586.104 
  986400    314.87212   -29165.343    150.17184   -29315.515    -25463.11 
  986600    323.76114   -29176.245    154.41127   -29330.656    51986.407 
  986800    273.25837   -29180.868    130.32501   -29311.193   -5261.7429 
  987000    273.26627    -29184.91    130.32878   -29315.239    13289.602 
  987200    337.60319   -29161.164    161.01296   -29322.177    15056.306 
  987400    292.31327   -29166.037    139.41285    -29305.45    11878.529 
  987600    295.24446     -29190.5    140.81082    -29331.31   -3212.2693 
  987800    315.20393   -29166.309    150.33009   -29316.639    430.13903 
  988000    285.30341   -29175.346    136.06964   -29311.416    34468.047 
  988200    281.45267   -29173.203    134.23311   -29307.436    -13544.83 
  988400    316.54038   -29161.234    150.96748   -29312.202    8780.2856 
  988600    258.64492   -29194.106    123.35542   -29317.461    8198.6234 
  988800    331.35558   -29171.134    158.03329   -29329.168   -37851.712 
  989000    322.27753   -29173.537    153.70369    -29327.24   -34877.189 
  989200    294.58161   -29185.121    140.49469   -29325.616   -7769.9153 
  989400    260.06096   -29216.773    124.03077   -29340.803   -16809.136 
  989600    311.29329   -29188.016    148.46499   -29336.481   -12972.884 
  989800    308.07662   -29170.707    146.93086   -29317.638    27210.294 
  990000    307.03608    -29188.56     146.4346   -29334.994    7404.6819 
  990200    308.12955   -29195.703     146.9561   -29342.659   -29797.276 
  990400    288.80348   -29167.207    137.73893   -29304.946   -5133.4518 
  990600    308.62549    -29179.81    147.19264   -29327.003   -3949.5842 
  990800    268.88677   -29195.088    128.24006   -29323.328   -23078.122 
  991000    323.49156   -29159.022     154.2827   -29313.304    10526.553 
  991200    304.56024   -29188.801     145.2538   -29334.055   -12365.008 
  991400    312.88682   -29179.829    149.22499   -29329.054    20150.333 
  991600    315.04228   -29151.928    150.25299   -29302.181    -31108.54 
  991800     311.6852   -29175.729     148.6519   -29324.381    25057.758 
  992000    291.30874   -29189.234    138.93376   -29328.168    15534.755 
  992200    263.21386   -29206.183    125.53448   -29331.718    26164.982 
  992400    299.68451    -29173.54    142.92842   -29316.468    6995.5944 
  992600    271.95882    -29166.07    129.70521   -29295.775   -1103.3097 
  992800    269.80271    -29189.53     128.6769   -29318.207   -12225.859 
  993000    308.13585   -29179.711    146.95911    -29326.67   -7978.2286 
  993200    286.22634   -29168.694    136.50982   -29305.204    1370.0636 
  993400    294.08538   -29186.937    140.25803   -29327.195    10487.432 
  993600    326.01987   -29166.252    155.48853   -29321.741    22238.483 
  993800    310.23414   -29157.424    147.95985   -29305.383    12777.196 
  994000    282.37853   -29185.398    134.67468   -29320.073   -27865.038 
  994200    309.00997   -29178.242      147.376   -29325.618   -17619.432 
  994400    359.19322   -29156.634    171.30988   -29327.944    2380.1051 
  994600    307.34823   -29183.977    146.58347   -29330.561    38851.552 
  994800    307.88412   -29168.595    146.83905   -29315.434    35140.616 
  995000    291.76683   -29164.022    139.15224   -29303.174    25038.251 
  995200    298.69106   -29191.628    142.45461   -29334.083    11051.723 
  995400    286.11298   -29164.836    136.45575   -29301.292    5103.6142 
  995600    305.42811   -29174.002    145.66771    -29319.67    16954.029 
  995800    294.75429   -29192.414    140.57705   -29332.991   -3519.3798 
  996000    303.66776   -29167.149    144.82815   -29311.977     -7141.64 
  996200     293.4748    -29190.22    139.96682   -29330.187   -34451.401 
  996400    272.90321   -29202.309    130.15562   -29332.465   -4515.6937 
  996600    310.35235   -29173.625    148.01623   -29321.641   -41254.718 
  996800    306.87553   -29177.007    146.35803   -29323.365    17718.161 
  997000    255.73209   -29199.508    121.96621   -29321.474    61543.333 
  997200    297.04839   -29179.623    141.67117   -29321.295    -26367.43 
  997400    292.41183   -29186.567    139.45986   -29326.027    55593.413 
  997600    264.86865   -29207.949     126.3237   -29334.273    13822.998 
  997800    304.71555   -29177.605    145.32787   -29322.932    -13087.66 
  998000     284.7763   -29170.933    135.81825   -29306.752    13764.964 
  998200    271.35159    -29199.41    129.41561   -29328.825   -4249.5429 
  998400    322.11121   -29173.208    153.62437   -29326.832   -16031.391 
  998600    288.91657   -29176.268    137.79287   -29314.061   -12671.569 
  998800     296.5512   -29192.707    141.43405   -29334.141    5014.8968 
  999000    307.73514   -29179.281      146.768   -29326.049   -36744.043 
  999200    320.86577   -29158.564    153.03039   -29311.594   -8218.6016 
  999400    317.89623   -29190.529    151.61413   -29342.143   -30876.589 
  999600    294.13011   -29180.377    140.27936   -29320.656   -12664.384 
  999800     337.1519   -29165.727    160.79772   -29326.524   -27668.234 
 1000000    301.57687   -29173.971    143.83094   -29317.801   -34012.263 
Loop time of 6165.5 on 8 procs for 1000000 steps with 161 atoms

Performance: 3.503 ns/day, 6.851 hours/ns, 162.193 timesteps/s
99.2% CPU use with 8 MPI tasks x no OpenMP threads

MPI task timing breakdown:
Section |  min time  |  avg time  |  max time  |%varavg| %total
---------------------------------------------------------------
Pair    | 5094.7     | 5229.2     | 5457.4     | 148.2 | 84.81
Neigh   | 0.91625    | 0.9216     | 0.92784    |   0.5 |  0.01
Comm    | 68.85      | 296.72     | 432.11     | 623.0 |  4.81
Output  | 0.099766   | 0.10976    | 0.17458    |   7.4 |  0.00
Modify  | 632.75     | 633.61     | 634.22     |   2.0 | 10.28
Other   |            | 4.927      |            |       |  0.08

Nlocal:    20.125 ave 32 max 5 min
Histogram: 1 0 2 0 1 0 0 1 1 2
Nghost:    741.375 ave 751 max 728 min
Histogram: 1 0 1 1 0 0 2 1 0 2
Neighs:    2171.38 ave 3312 max 603 min
Histogram: 1 0 1 1 0 1 0 1 1 2

Total # of neighbors = 17371
Ave neighs/atom = 107.894
Neighbor list builds = 937
Dangerous builds = 0

unfix 1
unfix output
undump 1

Please see the log.cite file for references relevant to this simulation

Total wall time: 1:43:08
