LAMMPS (3 Mar 2020)
# Alpha
clear
units		real
dimension 3
boundary        p p p
atom_style	charge
newton on
read_data       H_3.lmp
  orthogonal box = (0 0 0) to (11 11.002 11)
  2 by 2 by 2 MPI processor grid
  reading atoms ...
  49 atoms
  read_data CPU = 0.00809864 secs

timestep 0.25

# ---------- Define Interatomic Potential ---------------------
pair_style      reax/c NULL checkqeq no
pair_coeff      * * ffield.reax C H
fix             2 all qeq/reax 1 0.0 10.0 1.0e-6 reax/c

#------------ Equilibration of the system -------------------------
reset_timestep 0

dump 1 all custom 10 min.lammpstrj id type x y z

minimize 1.0e-8 1.0e-8 100000 100000
WARNING: Using 'neigh_modify every 1 delay 0 check yes' setting during minimization (../min.cpp:190)
WARNING: Total cutoff < 2*bond cutoff. May need to use an increased neighbor list skin. (../pair_reaxc.cpp:413)
Neighbor list info ...
  update every 1 steps, delay 0 steps, check yes
  max neighbors/atom: 2000, page size: 100000
  master list distance cutoff = 9.5
  ghost atom cutoff = 9.5
  binsize = 4.75, bins = 3 3 3
  2 neighbor lists, perpetual/occasional/extra = 2 0 0
  (1) pair reax/c, perpetual
      attributes: half, newton off, ghost
      pair build: half/bin/newtoff/ghost
      stencil: half/ghost/bin/3d/newtoff
      bin: standard
  (2) fix qeq/reax, perpetual, copy from (1)
      attributes: half, newton off, ghost
      pair build: copy
      stencil: none
      bin: none
Per MPI rank memory allocation (min/avg/max) = 18.75 | 18.81 | 18.91 Mbytes
Step Temp E_pair E_mol TotEng Press 
       0            0   -8648.3774            0   -8648.3774    16432.485 
     116            0   -8710.3095            0   -8710.3095    8822.3921 
Loop time of 9.23592 on 8 procs for 116 steps with 49 atoms

98.8% CPU use with 8 MPI tasks x no OpenMP threads

Minimization stats:
  Stopping criterion = energy tolerance
  Energy initial, next-to-last, final = 
        -8648.37739152      -8710.3094179     -8710.30946903
  Force two-norm initial, final = 1001.87 40.8023
  Force max component initial, final = 516.289 9.71289
  Final line search alpha, max atom move = 9.95039e-06 9.6647e-05
  Iterations, force evaluations = 116 855

MPI task timing breakdown:
Section |  min time  |  avg time  |  max time  |%varavg| %total
---------------------------------------------------------------
Pair    | 6.391      | 6.4843     | 6.6344     |   3.4 | 70.21
Neigh   | 0          | 0          | 0          |   0.0 |  0.00
Comm    | 0.13549    | 0.28518    | 0.3793     |  16.1 |  3.09
Output  | 0.0013017  | 0.0019019  | 0.0027514  |   1.0 |  0.02
Modify  | 2.4358     | 2.4361     | 2.4363     |   0.0 | 26.38
Other   |            | 0.02847    |            |       |  0.31

Nlocal:    6.125 ave 7 max 6 min
Histogram: 7 0 0 0 0 0 0 0 0 1
Nghost:    598.125 ave 604 max 595 min
Histogram: 3 0 0 1 2 1 0 0 0 1
Neighs:    771.75 ave 874 max 754 min
Histogram: 7 0 0 0 0 0 0 0 0 1

Total # of neighbors = 6174
Ave neighs/atom = 126
Neighbor list builds = 0
Dangerous builds = 0

###
min_style cg
minimize 1.0e-8 1.0e-8 100000 100000
WARNING: Using 'neigh_modify every 1 delay 0 check yes' setting during minimization (../min.cpp:190)
WARNING: Total cutoff < 2*bond cutoff. May need to use an increased neighbor list skin. (../pair_reaxc.cpp:413)
Per MPI rank memory allocation (min/avg/max) = 18.75 | 18.81 | 18.91 Mbytes
Step Temp E_pair E_mol TotEng Press 
     116            0   -8710.3095            0   -8710.3095    8822.3921 
     319            0   -8755.1221            0   -8755.1221    42147.514 
Loop time of 15.3204 on 8 procs for 203 steps with 49 atoms

98.8% CPU use with 8 MPI tasks x no OpenMP threads

Minimization stats:
  Stopping criterion = energy tolerance
  Energy initial, next-to-last, final = 
        -8710.30946903     -8755.12202255     -8755.12209828
  Force two-norm initial, final = 40.8023 136.727
  Force max component initial, final = 9.71289 48.4981
  Final line search alpha, max atom move = 0.000583303 0.0282891
  Iterations, force evaluations = 203 1419

MPI task timing breakdown:
Section |  min time  |  avg time  |  max time  |%varavg| %total
---------------------------------------------------------------
Pair    | 10.558     | 10.806     | 11.024     |   4.5 | 70.54
Neigh   | 0          | 0          | 0          |   0.0 |  0.00
Comm    | 0.22718    | 0.44416    | 0.69257    |  22.2 |  2.90
Output  | 0.002047   | 0.002976   | 0.0043816  |   1.3 |  0.02
Modify  | 4.0208     | 4.0212     | 4.0216     |   0.0 | 26.25
Other   |            | 0.04576    |            |       |  0.30

Nlocal:    6.125 ave 7 max 6 min
Histogram: 7 0 0 0 0 0 0 0 0 1
Nghost:    600.625 ave 608 max 595 min
Histogram: 3 0 0 1 0 0 2 1 0 1
Neighs:    779.25 ave 891 max 758 min
Histogram: 7 0 0 0 0 0 0 0 0 1

Total # of neighbors = 6234
Ave neighs/atom = 127.224
Neighbor list builds = 0
Dangerous builds = 0

###
fix 1 all box/relax aniso 0.0
min_style cg
minimize 1.0e-8 1.0e-8 100000 100000
WARNING: Using 'neigh_modify every 1 delay 0 check yes' setting during minimization (../min.cpp:190)
WARNING: Total cutoff < 2*bond cutoff. May need to use an increased neighbor list skin. (../pair_reaxc.cpp:413)
Per MPI rank memory allocation (min/avg/max) = 18.75 | 18.81 | 18.91 Mbytes
Step Temp E_pair E_mol TotEng Press Volume 
     319            0   -8755.1221            0   -8755.1221    42147.514     1331.242 
    1415            0   -8779.9529            0   -8779.9529    2154.2842    1351.3709 
Loop time of 14.6446 on 8 procs for 1096 steps with 49 atoms

98.8% CPU use with 8 MPI tasks x no OpenMP threads

Minimization stats:
  Stopping criterion = linesearch alpha is zero
  Energy initial, next-to-last, final = 
        -8755.12209828     -8779.95287541     -8779.95287541
  Force two-norm initial, final = 1426.45 90.8226
  Force max component initial, final = 861.956 46.5398
  Final line search alpha, max atom move = 1.02458e-12 4.76837e-11
  Iterations, force evaluations = 1096 1500

MPI task timing breakdown:
Section |  min time  |  avg time  |  max time  |%varavg| %total
---------------------------------------------------------------
Pair    | 11.416     | 11.584     | 11.876     |   4.3 | 79.10
Neigh   | 0          | 0          | 0          |   0.0 |  0.00
Comm    | 0.1805     | 0.47252    | 0.64166    |  21.4 |  3.23
Output  | 0.010261   | 0.013664   | 0.02       |   2.5 |  0.09
Modify  | 2.4341     | 2.4346     | 2.435      |   0.0 | 16.62
Other   |            | 0.1397     |            |       |  0.95

Nlocal:    6.125 ave 7 max 6 min
Histogram: 7 0 0 0 0 0 0 0 0 1
Nghost:    603.75 ave 608 max 599 min
Histogram: 2 0 1 1 0 0 0 1 1 2
Neighs:    791 ave 893 max 773 min
Histogram: 7 0 0 0 0 0 0 0 0 1

Total # of neighbors = 6328
Ave neighs/atom = 129.143
Neighbor list builds = 0
Dangerous builds = 0

unfix 1
###
min_style cg
minimize 1.0e-8 1.0e-8 100000 100000
WARNING: Using 'neigh_modify every 1 delay 0 check yes' setting during minimization (../min.cpp:190)
WARNING: Total cutoff < 2*bond cutoff. May need to use an increased neighbor list skin. (../pair_reaxc.cpp:413)
Per MPI rank memory allocation (min/avg/max) = 18.75 | 18.81 | 18.91 Mbytes
Step Temp E_pair E_mol TotEng Press 
    1415            0   -8779.9529            0   -8779.9529    2154.2842 
    1445            0   -8785.7948            0   -8785.7948    11854.024 
Loop time of 2.0328 on 8 procs for 30 steps with 49 atoms

98.8% CPU use with 8 MPI tasks x no OpenMP threads

Minimization stats:
  Stopping criterion = energy tolerance
  Energy initial, next-to-last, final = 
        -8779.95287541     -8785.79479294     -8785.79480748
  Force two-norm initial, final = 53.59 91.9656
  Force max component initial, final = 29.6627 29.002
  Final line search alpha, max atom move = 0.00119465 0.0346472
  Iterations, force evaluations = 30 189

MPI task timing breakdown:
Section |  min time  |  avg time  |  max time  |%varavg| %total
---------------------------------------------------------------
Pair    | 1.3774     | 1.403      | 1.4376     |   1.7 | 69.02
Neigh   | 0          | 0          | 0          |   0.0 |  0.00
Comm    | 0.025413   | 0.059805   | 0.085678   |   8.1 |  2.94
Output  | 0.00031038 | 0.00040454 | 0.00059495 |   0.0 |  0.02
Modify  | 0.56275    | 0.5629     | 0.563      |   0.0 | 27.69
Other   |            | 0.006665   |            |       |  0.33

Nlocal:    6.125 ave 7 max 6 min
Histogram: 7 0 0 0 0 0 0 0 0 1
Nghost:    573.125 ave 580 max 569 min
Histogram: 3 1 1 0 1 0 0 0 0 2
Neighs:    774 ave 860 max 754 min
Histogram: 3 4 0 0 0 0 0 0 0 1

Total # of neighbors = 6192
Ave neighs/atom = 126.367
Neighbor list builds = 0
Dangerous builds = 0

###
fix 1 all box/relax aniso 0.0
min_style cg
minimize 1.0e-8 1.0e-8 100000 100000
WARNING: Using 'neigh_modify every 1 delay 0 check yes' setting during minimization (../min.cpp:190)
WARNING: Total cutoff < 2*bond cutoff. May need to use an increased neighbor list skin. (../pair_reaxc.cpp:413)
Per MPI rank memory allocation (min/avg/max) = 18.75 | 18.81 | 18.91 Mbytes
Step Temp E_pair E_mol TotEng Press Volume 
    1445            0   -8785.7948            0   -8785.7948    11854.024    1351.3709 
    1951            0   -8789.0469            0   -8789.0469   -776.01772    1353.2463 
Loop time of 7.91689 on 8 procs for 506 steps with 49 atoms

98.8% CPU use with 8 MPI tasks x no OpenMP threads

Minimization stats:
  Stopping criterion = energy tolerance
  Energy initial, next-to-last, final = 
        -8785.79480748      -8789.0468908     -8789.04693222
  Force two-norm initial, final = 419.547 34.8446
  Force max component initial, final = 279.128 15.7219
  Final line search alpha, max atom move = 7.65465e-06 0.000120346
  Iterations, force evaluations = 506 842

MPI task timing breakdown:
Section |  min time  |  avg time  |  max time  |%varavg| %total
---------------------------------------------------------------
Pair    | 6.1398     | 6.2432     | 6.4076     |   3.6 | 78.86
Neigh   | 0          | 0          | 0          |   0.0 |  0.00
Comm    | 0.099426   | 0.26389    | 0.3668     |  17.6 |  3.33
Output  | 0.0047217  | 0.0058759  | 0.0083953  |   1.4 |  0.07
Modify  | 1.3324     | 1.3326     | 1.333      |   0.0 | 16.83
Other   |            | 0.0713     |            |       |  0.90

Nlocal:    6.125 ave 7 max 6 min
Histogram: 7 0 0 0 0 0 0 0 0 1
Nghost:    570.625 ave 576 max 565 min
Histogram: 1 0 2 0 1 1 0 1 1 1
Neighs:    774.75 ave 860 max 754 min
Histogram: 5 2 0 0 0 0 0 0 0 1

Total # of neighbors = 6198
Ave neighs/atom = 126.49
Neighbor list builds = 0
Dangerous builds = 0

unfix 1
###
min_style cg
minimize 1.0e-8 1.0e-8 100000 100000
WARNING: Using 'neigh_modify every 1 delay 0 check yes' setting during minimization (../min.cpp:190)
WARNING: Total cutoff < 2*bond cutoff. May need to use an increased neighbor list skin. (../pair_reaxc.cpp:413)
Per MPI rank memory allocation (min/avg/max) = 18.75 | 18.81 | 18.91 Mbytes
Step Temp E_pair E_mol TotEng Press 
    1951            0   -8789.0469            0   -8789.0469   -776.01772 
    1989            0     -8789.53            0     -8789.53   -536.44028 
Loop time of 4.04368 on 8 procs for 38 steps with 49 atoms

98.8% CPU use with 8 MPI tasks x no OpenMP threads

Minimization stats:
  Stopping criterion = energy tolerance
  Energy initial, next-to-last, final = 
        -8789.04693222     -8789.52992841     -8789.52998418
  Force two-norm initial, final = 22.6046 13.5132
  Force max component initial, final = 7.45841 6.28091
  Final line search alpha, max atom move = 7.16331e-06 4.49921e-05
  Iterations, force evaluations = 38 399

MPI task timing breakdown:
Section |  min time  |  avg time  |  max time  |%varavg| %total
---------------------------------------------------------------
Pair    | 2.8901     | 2.9539     | 3.0161     |   2.3 | 73.05
Neigh   | 0          | 0          | 0          |   0.0 |  0.00
Comm    | 0.052056   | 0.11407    | 0.17821    |  11.5 |  2.82
Output  | 0.0002897  | 0.00036066 | 0.00052066 |   0.0 |  0.01
Modify  | 0.96357    | 0.96367    | 0.96375    |   0.0 | 23.83
Other   |            | 0.01164    |            |       |  0.29

Nlocal:    6.125 ave 7 max 6 min
Histogram: 7 0 0 0 0 0 0 0 0 1
Nghost:    572.5 ave 580 max 566 min
Histogram: 1 1 1 1 1 1 0 0 0 2
Neighs:    774.75 ave 865 max 753 min
Histogram: 5 2 0 0 0 0 0 0 0 1

Total # of neighbors = 6198
Ave neighs/atom = 126.49
Neighbor list builds = 0
Dangerous builds = 0

undump 1
#############
#----------- Thermo ------------
reset_timestep 0
thermo  200

thermo_style    custom step temp etotal ke pe press
velocity all create 300 12345 mom yes rot yes
fix 1 all npt temp 300 300 25.0 iso 0.0 0.0 250.0

variable vpe equal pe
variable vtemp equal temp
variable vstep equal step

fix output all print 2500 "${vstep} ${vtemp} ${vpe}" file temp-tpdh-Pt.dat screen no

dump 1 all custom 2500 thermo-tpdh-Pt.lammpstrj id type x y z

run 1000000
WARNING: Total cutoff < 2*bond cutoff. May need to use an increased neighbor list skin. (../pair_reaxc.cpp:413)
Per MPI rank memory allocation (min/avg/max) = 17.63 | 17.68 | 17.78 Mbytes
Step Temp TotEng KinEng PotEng Press 
       0          300   -8746.6063    42.923665     -8789.53    913.50898 
     200    196.76071   -8728.4547    28.152302    -8756.607   -22458.442 
     400    330.82821    -8701.582    47.334531   -8748.9165   -4879.2977 
     600    325.13202   -8699.6037    46.519526   -8746.1232   -24756.962 
     800    276.24384   -8707.1864    39.524659    -8746.711   -25861.413 
    1000    332.51082   -8692.3156    47.575277   -8739.8908   -53718.932 
    1200    311.58029   -8702.7757    44.580559   -8747.3563    24016.392 
    1400    244.90256   -8718.9268    35.040385   -8753.9672   -42546.596 
    1600    308.88874   -8708.7375    44.195455   -8752.9329    23303.868 
    1800    332.78826   -8697.4302    47.614972   -8745.0451    1112.3328 
    2000     287.3657   -8703.1276    41.115963   -8744.2436    10019.011 
    2200    380.94947   -8682.6099    54.505825   -8737.1157    16743.323 
    2400    347.36634   -8696.7329    49.700787   -8746.4337    9884.5006 
    2600      279.192   -8708.9859     39.94648   -8748.9324    1352.8904 
    2800    338.78031   -8693.7161    48.472308   -8742.1884    5230.1047 
    3000    296.54078   -8694.1781    42.428724   -8736.6068    10266.404 
    3200    303.51869   -8702.0928    43.427116   -8745.5199   -17783.875 
    3400    264.90972   -8714.0183    37.902987   -8751.9213   -2277.2371 
    3600     282.7303   -8706.2223    40.452735    -8746.675   -13053.803 
    3800    280.89981   -8699.2677    40.190831   -8739.4585   -16680.554 
    4000    269.90253   -8703.8185    38.617352   -8742.4359    16727.505 
    4200    295.18461   -8706.4556    42.234684   -8748.6903    15722.924 
    4400    332.08015     -8690.74    47.513657   -8738.2536    16339.058 
    4600    304.97376    -8711.695    43.635305   -8755.3303    6727.2293 
    4800    221.73194   -8708.3885    31.725158   -8740.1137    17228.956 
    5000    277.76405   -8694.4331     39.74217   -8734.1753   -10934.922 
    5200    319.51313   -8702.3696    45.715581   -8748.0852    6519.4603 
    5400      267.309   -8712.9818    38.246273    -8751.228   -14373.787 
    5600    286.42938    -8701.371    40.981996    -8742.353    3036.2392 
    5800    276.88218   -8703.5736    39.615993   -8743.1896    17375.139 
    6000    228.49106   -8719.9966    32.692246   -8752.6889   -17309.466 
    6200    270.91059    -8703.328    38.761584   -8742.0896   -28034.172 
    6400    288.28271   -8692.6153    41.247168   -8733.8625    26632.422 
    6600    229.78526   -8711.1994    32.877418   -8744.0768   -6253.4725 
    6800    306.64492   -8703.3037    43.874412   -8747.1781   -1530.2296 
    7000    342.52826   -8689.5613     49.00856   -8738.5698     9856.703 
    7200    310.20216   -8687.8247    44.383378    -8732.208    7356.8794 
    7400    314.74059   -8700.7968    45.032732   -8745.8296    958.02999 
    7600    251.39208   -8712.3795    35.968897   -8748.3484   -2866.9591 
    7800    289.64101   -8702.3997    41.441512   -8743.8412   -21559.297 
    8000     332.9389    -8699.734    47.636526   -8747.3705   -16009.955 
    8200    251.87673   -8708.1072    36.038241   -8744.1454    20547.767 
    8400    340.56161   -8693.0564    48.727175   -8741.7836   -948.01613 
    8600    305.83922   -8706.0017    43.759133   -8749.7608    941.52192 
    8800    300.33197     -8704.39    42.971162   -8747.3612   -12963.217 
    9000    358.47657   -8694.8821    51.290428   -8746.1725    32143.654 
    9200    284.44429    -8700.887    40.697971    -8741.585     2535.402 
    9400    319.88465   -8701.2931    45.768738   -8747.0618   -1933.4325 
    9600    300.10062   -8699.5435    42.938062   -8742.4815   -32518.726 
    9800    261.10903   -8713.3662    37.359188   -8750.7254    15603.518 
   10000    300.91657   -8703.3887    43.054806   -8746.4435    6289.1204 
   10200    305.53001   -8693.4958    43.714892   -8737.2107    11674.877 
   10400    258.14047   -8703.6285     36.93445    -8740.563   -39243.296 
   10600    306.88809    -8709.824    43.909205   -8753.7332   -8842.7572 
   10800    297.10699   -8705.0257    42.509737   -8747.5355    4095.8876 
   11000    286.02162   -8698.3677    40.923654   -8739.2913    -45818.56 
   11200    251.12441   -8709.9429    35.930599   -8745.8735   -6137.7614 
   11400    286.49681   -8688.6679    40.991644   -8729.6596     7004.401 
   11600    310.52687   -8700.8698    44.429837   -8745.2996    16948.519 
   11800    281.31668    -8715.135    40.250476   -8755.3854   -22621.598 
   12000    378.98906   -8696.2859    54.225331   -8750.5112   -5625.1912 
   12200    274.97118   -8704.7055    39.342569   -8744.0481     24677.32 
   12400    307.99175   -8705.5469    44.067116   -8749.6141    33959.787 
   12600    342.09039   -8689.1311     48.94591    -8738.077    37594.616 
   12800    311.03235   -8705.6139    44.502161   -8750.1161   -5522.4907 
   13000    328.43097   -8704.1627    46.991537   -8751.1542   -35779.354 
   13200    248.45556   -8706.9453    35.548743    -8742.494   -52947.231 
   13400    357.67792   -8692.1058    51.176156    -8743.282    5231.1162 
   13600    288.81754    -8703.359    41.323691   -8744.6827    394.53263 
   13800    285.53893   -8707.2231    40.854591   -8748.0777   -11760.889 
   14000    335.36919   -8700.4776    47.984249   -8748.4619   -9329.6263 
   14200    286.88801   -8697.6403    41.047615    -8738.688     18808.65 
   14400    309.66439   -8704.9394    44.306435   -8749.2459   -40854.346 
   14600    336.76036   -8698.8973    48.183295   -8747.0805    20.351584 
   14800    408.68771   -8688.7134    58.474581    -8747.188   -1611.2491 
   15000    328.31219   -8705.8445    46.974541   -8752.8191    22284.585 
   15200    251.81988   -8703.0119    36.030107    -8739.042   -20161.016 
   15400    300.99056   -8687.2653    43.065392   -8730.3307    25367.636 
   15600    299.48173   -8705.1104    42.849511   -8747.9599   -12232.706 
   15800    284.01261   -8701.2673    40.636207   -8741.9035   -16706.413 
   16000    312.18265    -8702.445    44.666745   -8747.1118    11879.143 
   16200    264.33099   -8714.2128    37.820182    -8752.033      19282.2 
   16400    317.83619   -8698.7989    45.475647   -8744.2745   -12075.375 
   16600    259.76493   -8699.8441    37.166876    -8737.011    4320.8708 
   16800    313.29664   -8695.5463    44.826133   -8740.3724    -28737.15 
   17000    259.50226   -8704.2469    37.129294   -8741.3762     37302.64 
   17200     284.1911   -8707.6398    40.661745   -8748.3016     27552.55 
   17400     367.2203   -8687.0362     52.54147   -8739.5777   -21624.697 
   17600    323.99371   -8687.2953    46.356658    -8733.652   -27548.749 
   17800    269.21485   -8702.9336    38.518959   -8741.4525     27200.03 
   18000    315.72611   -8703.3826    45.173738   -8748.5564   -23799.395 
   18200     343.2113   -8690.6788    49.106289   -8739.7851    -22883.23 
   18400    278.50762   -8708.3713    39.848559   -8748.2199   -28157.988 
   18600    271.27589   -8709.0474    38.813851   -8747.8613    1032.4289 
   18800    360.71196   -8699.8262    51.610264   -8751.4364    15707.114 
   19000    267.31276   -8701.4379    38.246811   -8739.6848    31904.319 
   19200     268.7548   -8713.1644    38.453136   -8751.6175   -3062.7903 
   19400    269.44824   -8696.8317    38.552353    -8735.384    -6988.204 
   19600    281.88128   -8699.4407    40.331258   -8739.7719    8782.2049 
   19800    255.52837   -8701.8969    36.560713   -8738.4576    8997.4581 
   20000    328.15696    -8702.304    46.952331   -8749.2564   -26481.772 
   20200    244.05185   -8711.4446    34.918666   -8746.3633    -30127.29 
   20400    296.05813   -8693.4339    42.359666   -8735.7936   -5167.9506 
   20600    287.30071   -8704.4621    41.106665   -8745.5688   -21526.386 
   20800    292.24159    -8700.531    41.813599   -8742.3446    2237.8228 
   21000    339.43285   -8700.9356    48.565673   -8749.5013    28566.308 
   21200     252.5901   -8706.2936     36.14031   -8742.4339   -6002.3613 
   21400     305.8595   -8699.7124    43.762036   -8743.4744   -7644.3155 
   21600    330.98316   -8695.5176    47.356701   -8742.8743   -19790.641 
   21800    269.60481   -8704.5186    38.574755   -8743.0934   -18157.241 
   22000    353.96095   -8700.1195    50.644337   -8750.7638   -14101.801 
   22200    385.61395      -8695.6    55.173212   -8750.7732   -6149.1445 
   22400    239.95349   -8708.6278    34.332277   -8742.9601   -12754.883 
   22600    283.29315   -8697.8869    40.533268   -8738.4201    27035.805 
   22800    309.02672   -8699.8054    44.215198   -8744.0206   -44389.394 
   23000    330.32986   -8700.6967    47.263227     -8747.96    11283.551 
   23200    310.30625    -8710.635    44.398272   -8755.0332    15093.172 
   23400    248.69775   -8712.1036    35.583396    -8747.687   -11874.654 
   23600     314.3171   -8697.0578    44.972139   -8742.0299   -13136.629 
   23800    293.60527   -8698.9183    42.008713    -8740.927    1885.9433 
   24000    325.12205   -8696.5809    46.518099    -8743.099    9490.2716 
   24200     270.7614   -8710.9503    38.740238   -8749.6905    1907.1773 
   24400    358.34667    -8693.397    51.271842   -8744.6688     48788.86 
   24600    322.83694   -8701.0831    46.191149   -8747.2742   -4740.8034 
   24800    323.22983   -8705.6535    46.247362   -8751.9009    10136.428 
   25000    327.88883   -8693.0232    46.913967   -8739.9371   -19783.373 
   25200    311.97618   -8703.7729    44.637203   -8748.4101   -20437.944 
   25400     245.3337   -8711.1655    35.102072   -8746.2675    3442.9308 
   25600    362.47262   -8693.2445    51.862177   -8745.1066    26188.566 
   25800    245.97839   -8706.5232    35.194313   -8741.7175    4231.1959 
   26000    289.23669      -8692.2    41.383663   -8733.5836    9864.5907 
   26200    288.18587    -8694.444    41.233312   -8735.6773    9592.8331 
   26400    303.06151   -8703.8594    43.361702   -8747.2211   -20604.357 
   26600     309.5992   -8701.5978    44.297107   -8745.8949   -7320.8811 
   26800    359.63223   -8690.2572    51.455777    -8741.713   -20544.228 
   27000    264.59364   -8706.5675    37.857762   -8744.4252     18471.63 
   27200    308.43226   -8701.4112    44.130142   -8745.5414    9535.4171 
   27400    354.39025   -8678.2854    50.705761   -8728.9912    -12018.53 
   27600    314.11082   -8700.7207    44.942625   -8745.6633   -6647.0962 
   27800    286.36621   -8706.3049    40.972957   -8747.2779   -3763.4684 
   28000     328.5045   -8690.9293    47.002057   -8737.9314   -3430.1398 
   28200    299.34089   -8697.7075     42.82936   -8740.5368   -22729.387 
   28400    308.02024   -8702.4609    44.071192   -8746.5321   -15004.779 
   28600    307.14562   -8708.3247    43.946052   -8752.2707   -2656.7909 
   28800    352.61458   -8694.5601      50.4517   -8745.0118   -26621.327 
   29000    339.99894   -8696.7325    48.646668   -8745.3791   -30443.405 
   29200    271.62419   -8708.3229    38.863686   -8747.1866    12304.107 
   29400    311.35772   -8702.1708    44.548715   -8746.7195   -6025.4071 
   29600    284.72103    -8696.025    40.737566   -8736.7625     23081.65 
   29800    309.80041    -8702.183    44.325896   -8746.5089   -18999.787 
   30000    276.87306   -8710.4567    39.614688   -8750.0714    11124.987 
   30200     325.0575   -8692.5808    46.508864   -8739.0897   -34320.108 
   30400     297.7811   -8707.6281    42.606187   -8750.2343    13860.473 
   30600    308.84999   -8703.7077    44.189911   -8747.8976    23897.596 
   30800    397.10857   -8689.8135     56.81785   -8746.6314   -22010.508 
   31000     320.5448   -8701.4543    45.863191   -8747.3175   -4012.0578 
   31200    284.70107   -8699.0946     40.73471   -8739.8293   -31896.675 
   31400    330.35598   -8702.3187    47.266964   -8749.5857   -11698.992 
   31600    248.35691   -8713.5618    35.534629   -8749.0964    4803.3814 
   31800    304.42858   -8697.1561    43.557301   -8740.7134    9339.2152 
   32000    282.15956   -8697.4158    40.371075   -8737.7869   -16974.983 
   32200    284.53901   -8707.5454    40.711524    -8748.257   -4576.3457 
   32400    228.52429   -8712.6061    32.697001   -8745.3031   -11425.028 
   32600    347.38307   -8701.2288    49.703181   -8750.9319    14233.822 
   32800    324.86221   -8702.1958    46.480922   -8748.6768    7451.8788 
   33000     267.9633   -8713.5156     38.33989   -8751.8555   -21745.222 
   33200     304.8247   -8698.1378    43.613977   -8741.7518    2683.7525 
   33400    283.80881   -8699.9147    40.607048   -8740.5218   -33388.751 
   33600    241.15035   -8715.5661    34.503522   -8750.0697   -5863.0971 
   33800    304.89638   -8702.1389    43.624233   -8745.7632   -3483.2413 
   34000    270.39961    -8696.271    38.688475   -8734.9595    35132.271 
   34200    310.20376   -8695.2272    44.383607   -8739.6108   -7923.5503 
   34400    303.39511   -8710.6145    43.409434   -8754.0239   -33010.388 
   34600    374.11352    -8696.805    53.527745   -8750.3327    29691.706 
   34800    293.63488   -8699.0337    42.012951   -8741.0467    2147.2644 
   35000    256.21965    -8706.755    36.659621   -8743.4146   -11336.433 
   35200    356.21207   -8689.4399    50.966424   -8740.4063   -23643.738 
   35400    331.82792   -8697.5385    47.477567    -8745.016   -16316.964 
   35600    258.89456   -8708.0657    37.042344    -8745.108    -15094.48 
   35800    312.53146   -8705.9075    44.716652   -8750.6241    4590.4497 
   36000     318.8135   -8698.3539     45.61548   -8743.9694   -2846.0234 
   36200    341.31658    -8685.156    48.835195   -8733.9912   -12671.974 
   36400    271.98845   -8698.6119    38.915803   -8737.5277    6755.6735 
   36600    278.16415   -8703.9636    39.799415    -8743.763   -2189.2804 
   36800    294.31034   -8716.1596    42.109594   -8758.2692   -7137.8024 
   37000    271.62025   -8705.1502    38.863122   -8744.0133    20079.933 
   37200    297.27089   -8698.5422    42.533187   -8741.0754   -28447.414 
   37400    284.78099   -8707.3042    40.746146   -8748.0504   -26677.273 
   37600    281.14493   -8703.0522    40.225902   -8743.2781    37371.288 
   37800    315.10443   -8700.6915    45.084789   -8745.7763    8017.1035 
   38000     269.2792   -8709.0577    38.528167   -8747.5859   -2230.3015 
   38200    289.41618   -8710.2701    41.409344   -8751.6794    6753.0459 
   38400    346.35462   -8694.0698    49.556031   -8743.6259    14660.729 
   38600    348.66857   -8692.3369     49.88711    -8742.224    11785.907 
   38800    285.75132   -8711.6892    40.884979   -8752.5742   -16951.633 
   39000    301.15676   -8699.2508    43.089173     -8742.34    14495.305 
   39200     313.6057   -8683.7529    44.870353   -8728.6233   -35873.865 
   39400    277.92834   -8703.9992    39.765676   -8743.7648   -24057.977 
   39600    350.10742   -8694.3715    50.092978   -8744.4644    10274.184 
   39800    284.62454   -8700.2638    40.723762   -8740.9875   -12947.285 
   40000    289.65715   -8707.8244    41.443821   -8749.2682    20459.648 
   40200    289.78892   -8703.6866    41.462675   -8745.1493    3375.8988 
   40400    291.55357   -8698.6805     41.71516   -8740.3956   -19772.347 
   40600     343.6703   -8688.8006    49.171963   -8737.9726    3171.3603 
   40800    320.32292   -8703.9735    45.831445   -8749.8049   -1847.9316 
   41000    278.14101   -8704.0088    39.796105   -8743.8049     9515.517 
   41200    362.17346   -8695.8573    51.819374   -8747.6767   -18638.175 
   41400    251.90287   -8711.1703    36.041982   -8747.2123    -1440.407 
   41600    312.31581   -8700.1055    44.685796   -8744.7913    -23474.41 
   41800    374.26234   -8693.6209    53.549037   -8747.1699        10701 
   42000    295.51699   -8708.1082    42.282241   -8750.3904   -14244.165 
   42200    240.17723   -8726.2336    34.364289   -8760.5978    24911.969 
   42400    280.52853   -8710.7283    40.137709    -8750.866   -18167.389 
   42600    349.08354   -8696.3043    49.946482   -8746.2508   -14866.346 
   42800    339.93667   -8691.4412     48.63776    -8740.079    5792.8709 
   43000    236.37688   -8708.8659     33.82054   -8742.6864     10040.49 
   43200    348.71168   -8698.5402    49.893277   -8748.4335   -6845.4397 
   43400    284.18387    -8716.119     40.66071   -8756.7797    3915.0802 
   43600    259.80837   -8710.9002    37.173091   -8748.0733    17176.664 
   43800    319.80857   -8697.3128    45.757852   -8743.0707   -15515.642 
   44000    326.12001   -8699.2125    46.660887   -8745.8734   -29451.648 
   44200    316.53067   -8712.7352    45.288855    -8758.024   -9529.1109 
   44400    319.55364   -8691.4495    45.721378   -8737.1709    13590.903 
   44600    350.77424   -8698.6011    50.188386   -8748.7894    20895.061 
   44800    258.13829   -8708.7867    36.934139   -8745.7208   -3112.8719 
   45000    287.12417    -8701.503    41.081405   -8742.5844   -15484.021 
   45200    346.88832   -8689.9276    49.632393     -8739.56   -16986.418 
   45400    300.38619   -8706.6614     42.97892   -8749.6403    5262.9481 
   45600    323.15223   -8704.0149     46.23626   -8750.2512   -28315.397 
   45800    361.34832   -8687.0457    51.701314    -8738.747    22981.492 
   46000    280.82381   -8696.2956    40.179957   -8736.4756    10866.776 
   46200    279.44205   -8705.5806    39.982256   -8745.5628   -3366.4228 
   46400    265.90156   -8714.1232    38.044898   -8752.1681    32328.258 
   46600    302.51644   -8694.2883    43.283715    -8737.572    6604.5673 
   46800    302.41917   -8706.5097    43.269797   -8749.7795   -15468.909 
   47000    331.10711     -8697.94    47.374435   -8745.3144   -42072.619 
   47200    366.28657   -8691.4995    52.407873   -8743.9074    28959.692 
   47400    283.74266   -8704.7406    40.597582   -8745.3381    6184.1156 
   47600    323.96708    -8700.738    46.352848   -8747.0909   -9580.4127 
   47800    297.02494   -8709.5319    42.497996   -8752.0299    10953.936 
   48000    329.02506   -8702.6315    47.076539   -8749.7081   -7133.3121 
   48200    384.53017   -8689.1968    55.018147    -8744.215   -2439.9947 
   48400    282.62144   -8702.1971     40.43716   -8742.6343   -23869.513 
   48600    287.94864   -8706.6649    41.199369   -8747.8643     26199.98 
   48800    329.79382   -8694.7725    47.186531    -8741.959   -39486.183 
   49000    322.82492   -8699.8879    46.189429   -8746.0773    9420.6175 
   49200    288.86051   -8707.4035    41.329839   -8748.7333    5786.0681 
   49400     295.8745   -8697.6753    42.333393   -8740.0087   -10060.729 
   49600    334.26972   -8698.8601    47.826938    -8746.687     2897.969 
   49800    281.16761   -8704.0176    40.229147   -8744.2468    10146.126 
   50000    309.30119   -8702.9848    44.254469   -8747.2393   -8308.5855 
   50200    346.65182   -8692.0431    49.598555   -8741.6417   -4426.8113 
   50400    301.14767    -8707.382    43.087872   -8750.4698    11209.804 
   50600    280.69173   -8708.0804     40.16106   -8748.2415   -8161.0513 
   50800    278.67478   -8701.6431    39.872476   -8741.5155   -39242.467 
   51000    355.34705   -8698.6044    50.842658   -8749.4471   -3396.0652 
   51200     289.0169   -8688.6827    41.352215   -8730.0349   -861.63887 
   51400    242.58212   -8706.6538    34.708378   -8741.3621   -28685.166 
   51600     375.7198   -8701.7072    53.757568   -8755.4648   -7984.5994 
   51800    329.83341   -8684.1242    47.192196   -8731.3164    8999.5463 
   52000    324.05796   -8698.0572     46.36585    -8744.423   -8339.8668 
   52200    331.72992    -8700.439    47.463547   -8747.9025   -7216.1454 
   52400    316.32524   -8699.5837    45.259462   -8744.8432   -2669.2821 
   52600    263.53214   -8700.4873    37.705884   -8738.1931    11285.938 
   52800    313.10903   -8711.3981     44.79929   -8756.1974    12358.758 
   53000    329.96583   -8709.4546    47.211142   -8756.6658   -3828.3002 
   53200    379.97516   -8693.5276    54.366421    -8747.894   -34813.851 
   53400     295.5537   -8704.0478    42.287494   -8746.3353    9502.7341 
   53600    289.69534   -8710.4737    41.449285    -8751.923   -5953.9118 
   53800    362.22464   -8693.5275    51.826697   -8745.3542   -6815.7453 
   54000    355.28708   -8701.6741    50.834078   -8752.5082    32451.491 
   54200    283.53403   -8708.6095    40.567732   -8749.1773   -6367.6411 
   54400     339.5045   -8689.5417    48.575925   -8738.1177    24120.196 
   54600    253.29661   -8703.3575    36.241395   -8739.5989    26316.832 
   54800    276.22978   -8705.8935    39.522648   -8745.4161    33344.289 
   55000    362.36744   -8687.1559    51.847128    -8739.003    43101.422 
   55200    320.05216    -8689.734    45.792706   -8735.5267   -7506.2185 
   55400    322.57445   -8700.9159    46.153592   -8747.0695     12868.32 
   55600    299.99113   -8711.9126    42.922396    -8754.835   -6844.4975 
   55800    344.37909   -8695.2754    49.273376   -8744.5488   -18485.036 
   56000    277.50238   -8703.2012     39.70473   -8742.9059   -4233.8564 
   56200     278.9935   -8706.4333    39.918078   -8746.3514   -4734.1271 
   56400     317.0532   -8683.8105    45.363617   -8729.1742    39358.171 
   56600     293.4604   -8701.2688    41.987986   -8743.2568    480.89823 
   56800     270.3717   -8707.7092     38.68448   -8746.3937    7130.2852 
   57000     331.0686   -8690.3019    47.368925   -8737.6708    -40918.03 
   57200    331.61987   -8700.8557      47.4478   -8748.3035   -6600.0781 
   57400    292.16107   -8700.7433     41.80208   -8742.5454    31706.917 
   57600    346.33557   -8692.2083    49.553306   -8741.7616    27285.951 
   57800    334.69996    -8690.384    47.888496   -8738.2724    -6598.166 
   58000    275.53002   -8704.0502    39.422528   -8743.4727    20528.511 
   58200    294.34425   -8709.3846    42.114447    -8751.499   -47857.837 
   58400    320.52253   -8691.2448    45.860006   -8737.1048    12721.406 
   58600    291.82148   -8702.5335    41.753491    -8744.287    8353.0239 
   58800    268.61135   -8703.0235    38.432612   -8741.4561   -5061.4272 
   59000    287.78271   -8702.9611    41.175628   -8744.1367   -6306.0963 
   59200    283.60858   -8712.3139    40.578399   -8752.8923   -12920.523 
   59400    317.52467   -8694.9079    45.431075    -8740.339    28679.624 
   59600    279.81622   -8700.2959    40.035792   -8740.3316   -14046.107 
   59800    219.89568   -8719.8921    31.462428   -8751.3545   -48270.281 
   60000    292.87173   -8706.9671    41.903759   -8748.8709   -22067.839 
   60200    314.69413   -8697.7681    45.026084   -8742.7941   -8585.9185 
   60400     280.6609   -8700.6943    40.156648   -8740.8509   -32024.229 
   60600    271.02907   -8709.3383    38.778537   -8748.1169     21288.67 
   60800    338.17484   -8690.3186    48.385677   -8738.7042   -28913.012 
   61000    279.28463   -8704.7617    39.959732   -8744.7214    21367.164 
   61200    259.67704   -8710.1992    37.154301   -8747.3535   -7305.6311 
   61400    346.53544   -8693.8347    49.581904   -8743.4166    -7325.558 
   61600    330.39548   -8697.0006    47.272616   -8744.2732   -6191.5093 
   61800    278.70974    -8708.955    39.877477   -8748.8325     2857.981 
   62000    304.83976   -8700.6225    43.616132   -8744.2386    5461.0146 
   62200    251.18202   -8712.5986    35.938842   -8748.5375   -1681.0195 
   62400     276.1896   -8709.2042      39.5169   -8748.7211    10874.436 
   62600    343.36723   -8700.4164    49.128599    -8749.545   -42018.656 
   62800    322.66495   -8686.9655    46.166541    -8733.132   -25291.283 
   63000    288.89336   -8701.0427    41.334539   -8742.3772    -7683.543 
   63200    293.60202   -8703.1806    42.008249   -8745.1888    -6672.847 
   63400    370.59699   -8692.3571    53.024603   -8745.3817   -15793.202 
   63600    245.90968   -8705.2446    35.184483   -8740.4291    20158.155 
   63800    288.68142   -8710.1941    41.304214   -8751.4983   -17073.966 
   64000    380.06653   -8689.8771    54.379494   -8744.2566   -3202.0873 
   64200    291.61072   -8701.6196    41.723336    -8743.343    14075.939 
   64400    299.34556   -8706.3209    42.830028    -8749.151   -45203.991 
   64600    292.40227   -8705.9489     41.83659   -8747.7855   -7973.4479 
   64800     326.6354   -8694.0606    46.734628   -8740.7952    -5204.276 
   65000    263.96636   -8712.8353    37.768011   -8750.6033    22916.666 
   65200    272.32215   -8704.8085    38.963549   -8743.7721    8715.7279 
   65400    275.07518   -8697.0303    39.357449   -8736.3877    8848.8539 
   65600    340.89169   -8698.1641    48.774402   -8746.9385   -18344.742 
   65800    276.80738   -8702.7995    39.605291   -8742.4048   -34509.641 
   66000    272.23521   -8712.9727    38.951109   -8751.9238   -10100.181 
   66200    292.60272   -8712.9135    41.865271   -8754.7788   -21591.857 
   66400    314.13696   -8699.2796    44.946364   -8744.2259    -28716.56 
   66600    330.43534   -8699.4237    47.278319    -8746.702   -3869.9685 
   66800    323.67196   -8711.9625    46.310623   -8758.2731    8587.1854 
   67000    288.57743    -8690.903    41.289335   -8732.1923    -15858.39 
   67200    273.84175   -8699.0865    39.180971   -8738.2675   -10875.465 
   67400    279.19613   -8708.9729     39.94707     -8748.92   -3290.8942 
   67600    283.44626   -8701.1864    40.555175   -8741.7416   -22019.748 
   67800    346.19738   -8701.5301    49.533534   -8751.0636   -12001.094 
   68000    263.76251   -8704.6653    37.738845   -8742.4041   -11606.153 
   68200    261.18275   -8701.4754    37.369735   -8738.8452    7687.8482 
   68400      241.886   -8706.3396    34.608778   -8740.9484   -15372.628 
   68600    291.95507   -8695.4262    41.772605   -8737.1988   -3424.4476 
   68800    288.10964   -8702.0743    41.222406   -8743.2967    27295.879 
   69000    260.35409   -8706.6294    37.251172   -8743.8806    23210.162 
   69200     315.9715   -8694.8838    45.208849   -8740.0926    14867.243 
   69400    310.74513    -8694.701    44.461066   -8739.1621     2905.424 
   69600    285.06689   -8703.0209    40.787051    -8743.808    1558.3482 
   69800    307.76848   -8699.7571     44.03517   -8743.7923    5986.9939 
   70000    364.10076    -8691.584    52.095129   -8743.6792   -7467.7067 
   70200    302.99632    -8708.772    43.352375   -8752.1244   -31118.911 
   70400    262.39255   -8699.4187    37.542833   -8736.9615    19506.498 
   70600    251.60952   -8695.9165    36.000009   -8731.9165   -18777.624 
   70800    279.06724   -8703.8462    39.928628   -8743.7748   -16829.874 
   71000    228.38598   -8717.6747    32.677211   -8750.3519    23985.764 
   71200    316.29346   -8698.0309    45.254914   -8743.2858      1298.91 
   71400    309.81595   -8703.7367     44.32812   -8748.0648   -1733.9375 
   71600    269.05275    -8710.808    38.495766   -8749.3038    1794.2857 
   71800    346.55005   -8692.8932    49.583994   -8742.4772   -47779.756 
   72000    310.49792   -8703.5073    44.425695    -8747.933    27448.121 
   72200    237.42292   -8719.0104    33.970206   -8752.9806   -15900.058 
   72400    250.53289   -8706.2367    35.845965   -8742.0826    23841.926 
   72600    307.78642   -8697.6088    44.037737   -8741.6465   -1257.6421 
   72800    284.03508   -8706.0555    40.639422   -8746.6949    -19655.81 
   73000    293.01124   -8709.1321    41.923721   -8751.0558    3210.4946 
   73200    326.88252   -8693.2183    46.769986   -8739.9882    11512.511 
   73400    281.98646   -8705.7291    40.346308   -8746.0754   -1489.8583 
   73600    220.39037   -8721.3851    31.533207   -8752.9183   -13782.536 
   73800    331.15618   -8704.9267    47.381456   -8752.3082     -13520.1 
   74000    344.45493   -8697.8226    49.284227   -8747.1069   -2514.8867 
   74200    276.03628   -8706.7684    39.494963   -8746.2633   -14083.008 
   74400    294.06116   -8709.8983    42.073942   -8751.9723   -19024.837 
   74600    317.39153    -8694.822    45.412026   -8740.2341    -31740.17 
   74800    284.53917   -8704.2835    40.711546   -8744.9951   -20654.671 
   75000    261.08385   -8714.0254    37.355586    -8751.381    -25769.39 
   75200    288.07137   -8692.6536    41.216929   -8733.8706    27339.406 
   75400    288.27304   -8706.7952    41.245784   -8748.0409   -19721.634 
   75600    277.34977   -8706.5318    39.682896   -8746.2147    -9322.247 
   75800    306.12232   -8700.4003    43.799639   -8744.1999    29733.116 
   76000    276.96033   -8702.1302    39.627175   -8741.7574   -3281.8992 
   76200    315.29233   -8687.9485    45.111674   -8733.0602   -5011.5472 
   76400    267.19767   -8703.3098    38.230343   -8741.5402   -26899.711 
   76600    277.92382   -8704.3986    39.765029   -8744.1637    7566.5055 
   76800    305.45365   -8707.4629    43.703967   -8751.1668   -15558.847 
   77000    319.92382   -8693.5441    45.774342   -8739.3185    24957.864 
   77200     256.6056   -8705.1879    36.714843   -8741.9028    2718.1284 
   77400    256.93994    -8710.237    36.762679   -8746.9997   -33956.623 
   77600    314.66833   -8695.0194    45.022393   -8740.0418   -2937.8012 
   77800    255.92315   -8706.0253    36.617198   -8742.6425    34678.393 
   78000    305.36174   -8706.4859    43.690817   -8750.1767     3590.931 
   78200    331.37655   -8689.1907    47.412986   -8736.6037    32118.258 
   78400    309.77306   -8705.2637    44.321983   -8749.5857   -18693.983 
   78600    262.14621   -8704.0301    37.507587   -8741.5377     19169.96 
   78800    330.82588   -8694.7633    47.334197   -8742.0975   -3052.7919 
   79000    288.75708   -8699.9155    41.315041   -8741.2306   -11791.461 
   79200    271.44496   -8705.1574    38.838041   -8743.9954   -22749.475 
   79400    335.01409   -8688.7236    47.933442    -8736.657    22188.174 
   79600     275.2259   -8702.8633    39.379014   -8742.2424   -4470.1141 
   79800    274.95592   -8705.0753    39.340386   -8744.4157   -10717.686 
   80000    324.39509   -8685.1709    46.414086    -8731.585    4843.7974 
   80200    278.92377   -8702.7266    39.908102   -8742.6347    6079.7424 
   80400    326.43963   -8703.0917    46.706617   -8749.7983   -43204.289 
   80600    400.74719   -8679.3724     57.33846   -8736.7108    16263.173 
   80800    309.57039   -8694.2054    44.292985   -8738.4984   -29313.164 
   81000    296.20393   -8701.8166    42.380527   -8744.1971     6837.868 
   81200    355.64862   -8693.8505    50.885807   -8744.7363   -9054.9667 
   81400    269.67283   -8696.1764    38.584486   -8734.7609    19458.891 
   81600    301.11482   -8706.8488    43.083172    -8749.932    8094.1581 
   81800    321.71126   -8699.3619    46.030088    -8745.392    31232.402 
   82000    252.33948   -8701.3685    36.104451   -8737.4729    11569.214 
   82200    283.05543   -8711.4512    40.499255   -8751.9505    6851.7016 
   82400    304.44898   -8699.3597     43.56022   -8742.9199   -22398.837 
   82600    317.67907   -8692.6318    45.453166   -8738.0849   -1021.0903 
   82800    295.04314   -8705.3602    42.214443   -8747.5746    35893.787 
   83000    312.73177   -8694.1172    44.745312   -8738.8626   -15663.298 
   83200    242.85804   -8703.7921    34.747857     -8738.54   -33922.943 
   83400    302.15472   -8699.9593    43.231959   -8743.1913   -8640.7461 
   83600    316.75929   -8682.6698    45.321565   -8727.9914    17807.482 
   83800    297.66948   -8700.7298    42.590216     -8743.32    26040.351 
   84000    314.37348   -8702.5566    44.980206   -8747.5368   -16526.829 
   84200    254.17364   -8708.1443    36.366881   -8744.5112    16003.697 
   84400     302.2539   -8693.2177    43.246151   -8736.4638    4052.1358 
   84600    282.11346   -8704.2268    40.364478   -8744.5913    25419.472 
   84800    258.55496   -8706.4179    36.993755   -8743.4116   -24046.096 
   85000    275.26021   -8695.0029    39.383924   -8734.3869   -20523.348 
   85200    355.78929   -8692.7123    50.905934   -8743.6182    20970.181 
   85400    272.67765   -8699.6898    39.014414   -8738.7042    31829.372 
   85600    301.51255    -8698.277    43.140079    -8741.417   -12420.601 
   85800    202.68986   -8712.9361    29.000639   -8741.9367    36831.465 
   86000    325.20628   -8697.3812    46.530151   -8743.9113   -8915.5484 
   86200    333.29182   -8699.7527    47.687022   -8747.4397   -19378.941 
   86400    264.57494   -8711.1843    37.855087   -8749.0394    17155.949 
   86600    325.98957   -8704.1196    46.642223   -8750.7618   -11006.049 
   86800    298.08854   -8694.4481    42.650175   -8737.0982    34659.864 
   87000    282.25955    -8707.141     40.38538   -8747.5264   -2671.1005 
   87200     286.5075   -8703.5756    40.993172   -8744.5688   -5044.9635 
   87400     308.1527   -8695.6037    44.090144   -8739.6938   -9546.9621 
   87600    291.05825   -8705.9279    41.644289   -8747.5722   -9720.1686 
   87800    276.37119   -8703.2327    39.542881   -8742.7755   -12790.107 
   88000    317.90128   -8688.8746    45.484961   -8734.3596     -12933.6 
   88200    289.62323   -8706.2699    41.438968   -8747.7089    30296.013 
   88400    299.24253   -8706.2164    42.815286   -8749.0317    19432.275 
   88600    308.18315   -8699.2099    44.094501   -8743.3044    11385.495 
   88800    353.27411   -8691.4158    50.546064   -8741.9619   -13025.411 
   89000    275.56597   -8703.5155    39.427671   -8742.9432    30247.759 
   89200    335.88583   -8698.5424    48.058169   -8746.6006    5804.5841 
   89400    326.32631   -8691.0949    46.690404   -8737.7853   -31401.683 
   89600    290.69858   -8701.5023    41.592828   -8743.0951   -12386.476 
   89800    238.70466   -8719.6178    34.153595   -8753.7714   -12897.051 
   90000    262.63838   -8712.2303    37.578005   -8749.8083    7807.7611 
   90200    300.84662   -8701.2525    43.044799   -8744.2973   -14146.822 
   90400    335.77905   -8689.4575    48.042891   -8737.5004    12330.904 
   90600    289.91483   -8705.0859    41.480689   -8746.5666    25723.638 
   90800    253.48897   -8704.7259    36.268918   -8740.9948    31144.766 
   91000    308.45592   -8691.6684    44.133529   -8735.8019    11626.562 
   91200    310.19688   -8699.9325    44.382623   -8744.3151    9826.0421 
   91400    291.25091   -8704.4642    41.671855    -8746.136    13327.273 
   91600    354.86321   -8690.4975    50.773431   -8741.2709    -31428.49 
   91800    318.91421   -8693.2116    45.629889   -8738.8415    25255.322 
   92000    228.39215   -8706.7953    32.678094   -8739.4734   -4005.2013 
   92200    302.89841   -8691.9376    43.338366    -8735.276    13560.318 
   92400    308.90319   -8698.4147    44.197523   -8742.6123   -3678.9605 
   92600     262.6999   -8711.7669    37.586808   -8749.3538   -16822.894 
   92800    322.04497    -8696.596    46.077834   -8742.6739   -37349.336 
   93000    299.06682   -8701.4366    42.790146   -8744.2267    15056.814 
   93200    232.90583   -8715.0027    33.323906   -8748.3266    520.16684 
   93400    267.09204   -8709.9608    38.215231   -8748.1761    9519.6071 
   93600    321.29882   -8696.9031    45.971076   -8742.8742   -307.59616 
   93800    201.45774   -8706.0418    28.824348   -8734.8662     2726.491 
   94000    404.74557   -8693.5572    57.910544   -8751.4677   -8722.5357 
   94200    277.16102   -8702.2187    39.655889   -8741.8746   -16887.743 
   94400    254.12653   -8709.4723     36.36014   -8745.8324    10196.243 
   94600     369.1267    -8688.681    52.814236   -8741.4953   -43745.459 
   94800    333.70859   -8701.1023    47.746653   -8748.8489   -12437.541 
   95000    319.79462   -8701.9169    45.755856   -8747.6728   -24122.508 
   95200    257.51238   -8715.5836    36.844584   -8752.4282      29256.7 
   95400    295.41806   -8701.5405    42.268086   -8743.8086    36105.986 
   95600    308.24052   -8699.3298    44.102709   -8743.4326   -35047.983 
   95800    268.11312   -8709.4829    38.361325   -8747.8442     4126.633 
   96000    263.24936   -8701.6946    37.665424     -8739.36    5765.7195 
   96200    269.68956   -8702.2964    38.586881   -8740.8833   -20639.949 
   96400    295.03204   -8699.0238    42.212855   -8741.2367   -14481.843 
   96600    312.76187   -8693.0183    44.749619   -8737.7679    20834.296 
   96800    286.65848    -8709.453    41.014775   -8750.4678   -3235.1408 
   97000     265.2309   -8707.7767     37.94894   -8745.7256    2116.5036 
   97200    314.95932   -8701.5867    45.064027   -8746.6507   -39196.478 
   97400    267.79964   -8703.2302    38.316473   -8741.5467    24827.027 
   97600    294.44202   -8697.2582    42.128435   -8739.3866    8576.0275 
   97800    282.47346   -8713.1014    40.415987   -8753.5174   -2568.5047 
   98000    265.56559    -8697.941    37.996828   -8735.9379    -31585.22 
   98200    322.56468   -8701.4955    46.152194   -8747.6477   -8631.3705 
   98400    296.46374   -8706.0976    42.417701   -8748.5153    3268.3676 
   98600     364.9646    -8690.134    52.218727   -8742.3527   -1303.0925 
   98800     380.1147   -8688.9219    54.386387   -8743.3083   -15160.531 
   99000    300.04363    -8701.839    42.929907   -8744.7689   -53179.006 
   99200    384.81619    -8694.986     55.05907   -8750.0451   -4805.6622 
   99400    271.41211   -8708.1731    38.833342   -8747.0065    24554.945 
   99600    275.13369   -8708.4221     39.36582   -8747.7879    23986.836 
   99800    319.03844   -8700.3511    45.647663   -8745.9988   -15212.493 
  100000     278.1838   -8704.6825    39.802227   -8744.4848   -8237.8946 
  100200    281.69962   -8710.1405    40.305267   -8750.4458   -19333.449 
  100400    309.36599   -8696.7545     44.26374   -8741.0182   -27361.535 
  100600    315.03786   -8697.9852    45.075264   -8743.0604    1867.0763 
  100800    262.01397   -8710.3674    37.488666    -8747.856   -13848.735 
  101000    305.12219   -8697.0961    43.656542   -8740.7527   -1171.3915 
  101200    306.87214   -8701.6796    43.906923   -8745.5865    14938.567 
  101400    286.43373   -8701.8001    40.982619   -8742.7827      46028.9 
  101600    382.51358   -8696.4228    54.729615   -8751.1524    16878.457 
  101800    293.31294   -8710.5172    41.966887   -8752.4841    148.79999 
  102000    311.12357   -8694.2918    44.515212    -8738.807     29388.13 
  102200    247.33036   -8700.3899    35.387751   -8735.7777   -15746.311 
  102400    286.53511   -8715.9725    40.997124   -8756.9696   -2382.0624 
  102600    277.78928   -8718.6989     39.74578   -8758.4447    3259.3205 
  102800    293.06888   -8702.9409    41.931968   -8744.8729   -30706.558 
  103000    302.36398   -8697.5461      43.2619    -8740.808    7669.6589 
  103200    313.07886   -8708.9243    44.794973   -8753.7193   -191.33214 
  103400    244.24938   -8714.0696    34.946928   -8749.0165   -14969.089 
  103600    328.65194   -8701.6678    47.023152   -8748.6909   -5592.3317 
  103800    305.57936   -8704.8314    43.721953   -8748.5533    21453.394 
  104000    313.34652   -8699.3854    44.833269   -8744.2187   -5076.9635 
  104200    338.59107    -8696.259    48.445232   -8744.7042   -2403.6691 
  104400    270.88785   -8713.0919    38.758331   -8751.8502    2064.3797 
  104600    305.06837   -8703.3332    43.648842    -8746.982   -11755.181 
  104800    334.10898   -8699.4899     47.80394   -8747.2939    1592.9682 
  105000    290.24132   -8703.2555    41.527403   -8744.7829    -7842.438 
  105200    308.94127   -8705.1991    44.202972    -8749.402    16367.601 
  105400    301.23057   -8693.2128    43.099733   -8736.3125   -1312.2084 
  105600    262.68082   -8702.1646    37.584078   -8739.7487   -22293.807 
  105800    278.29379   -8709.0114    39.817965   -8748.8293     22517.36 
  106000      333.306   -8696.1822     47.68905   -8743.8713    20728.491 
  106200     245.5683   -8710.2675    35.135638   -8745.4031    5549.0836 
  106400    274.61441   -8705.5939    39.291523   -8744.8854    5516.3386 
  106600    334.28013   -8693.2614    47.828428   -8741.0898    8794.7198 
  106800    382.35871   -8685.9874    54.707457   -8740.6948     60197.27 
  107000     331.2268   -8705.4537     47.39156   -8752.8453     484.7176 
  107200    271.20149    -8700.546    38.803206   -8739.3492    20106.146 
  107400    382.87637   -8688.3452    54.781523   -8743.1267   -5575.7391 
  107600    324.26471   -8702.9741    46.395432   -8749.3695   -7339.3378 
  107800    307.27527   -8703.2661    43.964602   -8747.2307    12391.368 
  108000     350.2995   -8687.3271     50.12046   -8737.4475    11529.734 
  108200    321.10701   -8701.2759    45.943632   -8747.2195    7592.2843 
  108400    297.90554   -8707.3439    42.623992   -8749.9679   -15933.883 
  108600    344.15548   -8695.4659    49.241381   -8744.7073      17895.2 
  108800    320.00797   -8690.9707    45.786383    -8736.757     17218.94 
  109000    275.91192   -8706.5045    39.477169   -8745.9816    20443.758 
  109200     322.0735   -8694.0335    46.081917   -8740.1155    21526.603 
  109400    315.06131   -8700.2042     45.07862   -8745.2828   -16804.196 
  109600    265.71175   -8705.4554     38.01774   -8743.4732    15368.563 
  109800     306.8418   -8703.5953    43.902582   -8747.4979    -15353.64 
  110000    345.89494   -8689.2338    49.490261   -8738.7241    26132.344 
  110200    263.44723   -8706.9414    37.693736   -8744.6351    4210.7039 
  110400     304.9006   -8699.1248    43.624837   -8742.7497   -9361.1685 
  110600    252.54575   -8705.2277    36.133963   -8741.3617    3786.3853 
  110800     300.0036   -8703.6584    42.924181   -8746.5826   -16355.326 
  111000    333.24111    -8689.757    47.679766   -8737.4367   -32188.916 
  111200    325.79749   -8701.7422     46.61474   -8748.3569   -3731.4342 
  111400    293.54159   -8711.8793    41.999603   -8753.8789   -5887.0217 
  111600    347.13298    -8692.392    49.667399   -8742.0594   -30012.976 
  111800    327.01985   -8698.3672    46.789634   -8745.1568    25982.965 
  112000    269.17829   -8706.3714    38.513729   -8744.8851    41542.096 
  112200    344.15188   -8685.9956    49.240866   -8735.2364    42362.763 
  112400    356.36321   -8695.7785    50.988049   -8746.7665     28236.85 
  112600    321.53064   -8705.0175    46.004245   -8751.0218   -5616.8476 
  112800     299.4422   -8702.8152    42.843855   -8745.6591   -43734.878 
  113000    317.07018   -8690.6944    45.366047   -8736.0604   -33123.936 
  113200     278.7515   -8705.8404    39.883453   -8745.7238    20283.089 
  113400    315.81492   -8698.7718    45.186445   -8743.9582    44498.486 
  113600    345.34853   -8699.9606    49.412082   -8749.3726   -2566.4669 
  113800    316.84407    -8697.225    45.333696   -8742.5587   -3055.5993 
  114000    260.59346   -8706.5769    37.285421   -8743.8624   -13848.211 
  114200    318.19629   -8705.2626     45.52717   -8750.7898   -11793.542 
  114400    322.37509   -8690.5769    46.125068    -8736.702    33759.283 
  114600     289.1619   -8713.1092    41.372962   -8754.4822    21152.336 
  114800    311.91907   -8702.5502    44.629032   -8747.1792    2867.9279 
  115000    302.76488   -8697.0443    43.319261   -8740.3636   -19704.856 
  115200    299.62332   -8703.9845     42.86977   -8746.8543   -11105.986 
  115400    345.14155   -8692.6838    49.382468   -8742.0663   -6650.4748 
  115600    313.71884   -8695.4592    44.886541   -8740.3457    32913.538 
  115800    297.67333   -8709.6399    42.590767   -8752.2307   -19882.425 
  116000    297.23703   -8695.5431    42.528342   -8738.0714    5563.0607 
  116200    357.20232   -8693.3139    51.108109    -8744.422   -13667.009 
  116400    249.17309   -8706.3253    35.651407   -8741.9767   -20886.215 
  116600    278.75904   -8694.1396    39.884532   -8734.0242   -16994.134 
  116800    303.66334   -8682.7552    43.447812    -8726.203    2475.7198 
  117000    269.99514   -8706.8698    38.630603   -8745.5004     5454.125 
  117200    278.29007   -8705.3782    39.817432   -8745.1956   -15492.988 
  117400    365.89078   -8691.6216    52.351244   -8743.9728   -11954.712 
  117600    301.52746   -8701.2622    43.142212   -8744.4044    14115.327 
  117800     276.7344   -8704.2329    39.594849   -8743.8278    10817.856 
  118000    339.59412   -8688.9012    48.588747   -8737.4899    15228.631 
  118200    336.28898    -8697.337    48.115852   -8745.4529    21933.242 
  118400    306.11048   -8705.8137    43.797945   -8749.6117   -38075.859 
  118600    299.96323   -8692.1208    42.918404   -8735.0392    21490.135 
  118800    296.12573   -8704.6166    42.369338    -8746.986    9112.7361 
  119000    336.81846   -8701.8472    48.191608   -8750.0388    -34660.44 
  119200    213.61395    -8702.952    30.563645   -8733.5157    24819.771 
  119400    290.96723    -8704.657    41.631266   -8746.2882   -10912.154 
  119600    286.51521   -8698.3287    40.994275   -8739.3229    22761.527 
  119800    282.77704    -8688.814    40.459423   -8729.2735   -27661.431 
  120000    257.50621   -8708.5995    36.843701   -8745.4432   -40195.976 
  120200    295.11104   -8702.7007    42.224158   -8744.9249    10712.668 
  120400    347.11806   -8689.7329    49.665264   -8739.3981   -712.49383 
  120600    333.22922    -8698.734    47.678065   -8746.4121    5777.9321 
  120800    315.70355   -8708.6419    45.170511   -8753.8124    2253.6608 
  121000    345.07777   -8692.8061    49.373341   -8742.1794   -5810.8283 
  121200    284.67061   -8698.6013    40.730353   -8739.3317   -26924.537 
  121400    276.96068   -8716.2573    39.627225   -8755.8845    16754.115 
  121600    257.46083   -8710.6213    36.837208   -8747.4585    21407.908 
  121800    317.94295   -8698.4624    45.490922   -8743.9534   -15536.685 
  122000    250.54432    -8711.778    35.847601   -8747.6256   -19143.595 
  122200    288.50757   -8708.8733     41.27934   -8750.1526   -15276.492 
  122400    254.27023   -8696.7579    36.380701   -8733.1386    9927.4665 
  122600    314.20214   -8702.1656    44.955691   -8747.1213   -21706.171 
  122800    260.41328   -8705.1326    37.259641   -8742.3922   -10814.441 
  123000    301.55251   -8693.6271    43.145797   -8736.7729   -2327.6427 
  123200    288.02184   -8705.5638    41.209843   -8746.7736   -28572.052 
  123400    266.43594   -8718.9624    38.121356   -8757.0838   -27350.047 
  123600    299.84641   -8705.9077    42.901689   -8748.8094   -33763.635 
  123800    323.74851   -8699.5067    46.321575   -8745.8283   -10520.608 
  124000    245.37387   -8709.0194    35.107819   -8744.1272    7547.4609 
  124200     340.8691   -8701.6977     48.77117   -8750.4689    11959.865 
  124400    292.45741   -8696.3061     41.84448   -8738.1506   -27672.813 
  124600    287.78653   -8703.2435    41.176175   -8744.4196   -32910.252 
  124800    269.77484   -8705.9076    38.599083   -8744.5067    32715.725 
  125000    291.12681   -8701.4461    41.654098   -8743.1002   -10933.594 
  125200    266.06517   -8709.9204    38.068307   -8747.9888   -15358.334 
  125400    255.99618   -8708.2426    36.627647   -8744.8703    15554.529 
  125600    349.87452   -8695.9645    50.059656   -8746.0242   -18620.467 
  125800    295.89373   -8706.2218    42.336144   -8748.5579    10060.573 
  126000    236.07549    -8715.318    33.777417   -8749.0954    6478.7666 
  126200    287.93812   -8702.3088    41.197864   -8743.5067   -5827.5914 
  126400    258.20115   -8702.2029    36.943132   -8739.1461   -547.84786 
  126600    299.41929    -8700.741    42.840578   -8743.5816   -4910.0728 
  126800    247.03967   -8707.1489     35.34616    -8742.495    45880.422 
  127000    307.78804   -8699.8612    44.037969   -8743.8992    6779.2715 
  127200    294.91342   -8703.9274    42.195882   -8746.1233   -14020.552 
  127400    248.35774   -8702.9841    35.534748   -8738.5189    17468.944 
  127600    340.46572    -8699.557    48.713455   -8748.2704    7045.9418 
  127800    261.78833   -8715.5358    37.456382   -8752.9921   -711.65571 
  128000    314.01868   -8697.9021    44.929442   -8742.8316     46182.41 
  128200     285.3261   -8700.2474     40.82414   -8741.0715   -7216.1825 
  128400    283.36362   -8708.3183    40.543349   -8748.8617   -14120.245 
  128600    354.57294   -8690.8939      50.7319   -8741.6258   -3522.6411 
  128800      289.886   -8703.1283    41.476565   -8744.6048   -16187.083 
  129000    323.21498   -8702.8431    46.245238   -8749.0883    8673.6751 
  129200    299.24687   -8705.2137    42.815907   -8748.0296    14883.991 
  129400    336.41215   -8691.2544    48.133475   -8739.3879    29190.956 
  129600    255.50301   -8704.4787    36.557085   -8741.0358    6988.4671 
  129800    305.27964   -8703.4675    43.679069   -8747.1466   -26682.064 
  130000    251.22425   -8702.0437    35.944884   -8737.9886    12533.871 
  130200    264.24915   -8702.4006    37.808474   -8740.2091   -19820.241 
  130400    356.44249   -8688.1372    50.999392   -8739.1366    13691.096 
  130600    307.81784   -8702.5976    44.042232   -8746.6398    10694.714 
  130800    299.42659   -8699.5923    42.841622    -8742.434   -1836.3264 
  131000    292.71439    -8696.298    41.881248   -8738.1792    1192.0091 
  131200    269.48116   -8708.8543    38.557063   -8747.4114   -3492.8995 
  131400    352.59372   -8698.7277    50.448715   -8749.1764    10723.867 
  131600    346.37092   -8684.5525    49.558364   -8734.1109   -26135.273 
  131800    303.73701   -8709.4728    43.458351   -8752.9312    11723.999 
  132000    304.78858   -8707.0131    43.608809   -8750.6219    16236.137 
  132200    329.41268   -8697.6855    47.131998   -8744.8175    -35484.15 
  132400    208.62912   -8711.9399    29.850421   -8741.7903   -1649.3218 
  132600    330.61477   -8689.5037    47.303992   -8736.8077   -13961.524 
  132800    295.81517   -8700.3025    42.324905   -8742.6274   -1966.3449 
  133000    278.92245    -8706.821    39.907912   -8746.7289    -8731.518 
  133200    364.58723   -8687.2848    52.164734   -8739.4495   -21694.125 
  133400    301.22995    -8695.736    43.099645   -8738.8357    22697.671 
  133600    334.49293   -8706.2971    47.858875    -8754.156   -7362.4549 
  133800    307.84891   -8699.9323    44.046678   -8743.9789    1556.7733 
  134000    273.36199   -8701.3439    39.112328   -8740.4562    18026.349 
  134200    312.62519   -8711.9563    44.730063   -8756.6864    354.43332 
  134400     347.3821    -8696.354    49.703043   -8746.0571   -3850.4463 
  134600    323.23975   -8699.3663    46.248782   -8745.6151   -9346.6392 
  134800    235.86637   -8708.7155    33.747496    -8742.463   -5572.7619 
  135000    279.45307   -8699.2201    39.983833   -8739.2039    14910.704 
  135200    271.56134   -8711.1204    38.854693   -8749.9751    15084.714 
  135400    328.22199   -8702.1734    46.961635   -8749.1351    34429.233 
  135600    318.10283    -8691.923    45.513797   -8737.4368   -47196.895 
  135800    332.86084   -8701.6614    47.625356   -8749.2868    3298.2659 
  136000    264.46825   -8703.2587    37.839821   -8741.0985    -13522.99 
  136200    325.91499   -8686.8903    46.631552   -8733.5219   -2686.8537 
  136400      296.204   -8701.1745    42.380538    -8743.555    60239.738 
  136600    296.79683   -8702.3224    42.465359   -8744.7877    23195.367 
  136800    337.42727   -8694.6976    48.278716   -8742.9763    4184.5614 
  137000    286.73563   -8708.7957    41.025814   -8749.8215   -7782.6978 
  137200    274.28768   -8709.7788    39.244775   -8749.0236   -5905.7061 
  137400    305.43722   -8695.5001    43.701616   -8739.2017    -39258.78 
  137600     265.5478   -8707.6337    37.994283    -8745.628   -1186.6951 
  137800    282.19071   -8698.5988    40.375531   -8738.9743    18081.849 
  138000    290.99052   -8694.1453    41.634598   -8735.7799    -43331.78 
  138200    281.54353   -8706.5347    40.282933   -8746.8176    16866.807 
  138400    304.26445   -8703.3606    43.533817   -8746.8944    21245.948 
  138600    300.54848   -8701.0268    43.002141    -8744.029   -35318.072 
  138800    346.61824   -8694.6904     49.59375   -8744.2842   -17548.983 
  139000    271.64021   -8705.5699    38.865977   -8744.4359    9984.8519 
  139200     302.7819   -8704.5651    43.321696   -8747.8868    9887.7454 
  139400    379.21233   -8690.6651    54.257277   -8744.9224   -41368.769 
  139600    260.62784   -8704.3402     37.29034   -8741.6305    28895.442 
  139800    252.80853   -8704.8537    36.171562   -8741.0253   -31126.743 
  140000    352.60938   -8691.5934    50.450956   -8742.0444   -4486.8348 
  140200    332.08442   -8693.5308    47.514267   -8741.0451    33424.753 
  140400    276.40328   -8709.0773    39.547472   -8748.6248    18860.343 
  140600    306.00215   -8694.7417    43.782445   -8738.5242    1778.8209 
  140800    284.07566   -8698.0932    40.645228   -8738.7384    35523.692 
  141000    271.05327   -8705.0647    38.781999   -8743.8467   -3993.8924 
  141200    303.10946   -8700.2865    43.368563    -8743.655     22174.21 
  141400    326.87138   -8689.3899    46.768392   -8736.1583    33924.803 
  141600     282.5056   -8707.5676    40.420585   -8747.9882   -3425.6354 
  141800    300.67748   -8705.5374    43.020598    -8748.558    878.91909 
  142000     313.8352   -8696.6318     44.90319    -8741.535    7118.0459 
  142200    269.54306   -8705.7544    38.565919   -8744.3203   -20935.843 
  142400    381.89401   -8695.4499    54.640968   -8750.0909   -8292.7485 
  142600    348.57796   -8692.3055    49.874145   -8742.1797   -57455.522 
  142800      321.329    -8702.977    45.975394   -8748.9524   -17248.271 
  143000    312.92969   -8697.1118     44.77363   -8741.8855    23475.652 
  143200    291.57977   -8694.0342    41.718908   -8735.7531    8589.9782 
  143400    285.23665   -8708.8082    40.811341   -8749.6195     24935.17 
  143600    255.47025   -8708.7571    36.552397   -8745.3095    26412.081 
  143800    344.15217   -8688.7222    49.240908   -8737.9631    -22352.17 
  144000    287.80344     -8703.66    41.178594   -8744.8386    12552.903 
  144200    301.03691   -8703.3356    43.072025   -8746.4077   -9794.0374 
  144400    272.59548   -8695.7965    39.002657   -8734.7991   -200.54625 
  144600    264.69968   -8716.6138    37.872934   -8754.4868    28062.019 
  144800     300.5642   -8707.6334     43.00439   -8750.6378   -20526.541 
  145000    280.45197   -8697.4544    40.126755   -8737.5812   -6663.8059 
  145200        216.3    -8711.794    30.947962   -8742.7419   -11042.411 
  145400    223.95043   -8724.6966    32.042577   -8756.7392   -132.70951 
  145600    284.68504    -8708.721    40.732417   -8749.4534   -758.11998 
  145800     355.1535   -8694.8472    50.814965   -8745.6622   -37623.653 
  146000    271.59125   -8709.0489    38.858973   -8747.9078   -7267.6779 
  146200    298.36463   -8707.3524    42.689678   -8750.0421   -16898.034 
  146400    303.15966   -8700.2839    43.375746   -8743.6597   -9534.7834 
  146600    263.03515   -8704.2189    37.634776   -8741.8536    18663.774 
  146800    300.66033   -8710.0456    43.018144   -8753.0638    -9682.384 
  147000    295.90011    -8695.277    42.337056    -8737.614   -3816.6666 
  147200    231.47474     -8706.31    33.119147   -8739.4291     -17510.6 
  147400    280.66534   -8712.2972    40.157283   -8752.4544    6283.3647 
  147600    294.15526   -8699.4969    42.087406   -8741.5843   -23653.908 
  147800    285.64592   -8702.7289    40.869899   -8743.5988    16038.434 
  148000    251.96043   -8707.0199    36.050217   -8743.0701   -13220.336 
  148200    267.95028   -8705.1955    38.338026   -8743.5336   -12240.896 
  148400    292.08454   -8694.1902    41.791129   -8735.9813    -37966.86 
  148600    325.15337   -8709.0428     46.52258   -8755.5654    19205.925 
  148800    303.94462   -8703.2574    43.488056   -8746.7455   -15600.022 
  149000    287.40818   -8704.2098    41.122041   -8745.3318    817.27433 
  149200    276.03194   -8710.8338    39.494341   -8750.3281   -17552.596 
  149400    296.54491   -8698.7826    42.429314   -8741.2119   -1526.7288 
  149600    343.60604   -8692.1673    49.162768   -8741.3301     5223.178 
  149800    320.09154   -8713.0707    45.798339    -8758.869   -23791.024 
  150000    317.18073   -8701.5221    45.381864   -8746.9039    21312.808 
  150200    357.79781   -8696.1429    51.193311   -8747.3362    17406.363 
  150400    225.11518   -8714.8968    32.209228    -8747.106    42444.139 
  150600    276.28881   -8701.1719    39.531093    -8740.703   -686.53839 
  150800     291.5315   -8702.9747    41.712001   -8744.6867    10930.051 
  151000    313.49716   -8699.0936    44.854823   -8743.9484   -31303.707 
  151200    347.32604   -8694.5483    49.695021   -8744.2433   -4736.8472 
  151400    316.52789   -8704.7091    45.288456   -8749.9975    3674.6806 
  151600    320.78599    -8700.564    45.897701   -8746.4617    25349.794 
  151800    281.13667   -8709.4658     40.22472   -8749.6905   -1397.7449 
  152000    335.81241   -8696.0327    48.047664   -8744.0803   -1458.3777 
  152200    293.07905   -8694.2369    41.933422   -8736.1703    12119.954 
  152400    285.23277   -8708.4469    40.810786   -8749.2577   -14199.881 
  152600    314.75076   -8695.1322    45.034187   -8740.1664   -10874.656 
  152800    301.13627      -8692.8    43.086241   -8735.8862    9880.4111 
  153000    288.60364   -8703.1714    41.293086   -8744.4644    54303.837 
  153200    248.26171   -8708.0662    35.521008   -8743.5872    3561.1451 
  153400    350.53977   -8692.6914    50.154839   -8742.8462   -10763.849 
  153600    314.81402   -8703.4088    45.043238    -8748.452    8410.9469 
  153800    220.15735   -8720.1081    31.499868    -8751.608    8547.8442 
  154000    315.82919   -8709.6138    45.188488   -8754.8023   -8957.7336 
  154200    288.04282   -8700.8213    41.212845   -8742.0341   -13834.649 
  154400     284.5636   -8698.3065    40.715042   -8739.0215    9040.4315 
  154600    253.73379   -8713.4343    36.303947   -8749.7382    11660.238 
  154800    313.01745   -8698.9274    44.786187   -8743.7136   -9875.2355 
  155000     293.2793   -8699.8232    41.962075   -8741.7853    11942.179 
  155200    228.59577   -8713.3786    32.707227   -8746.0858    23376.979 
  155400    286.56018   -8705.3463     41.00071    -8746.347   -8686.8851 
  155600    308.98325   -8697.3026    44.208977   -8741.5115   -26993.926 
  155800    278.96698   -8707.4603    39.914283   -8747.3746   -3859.4092 
  156000    363.08321   -8690.1375     51.94954   -8742.0871    13024.711 
  156200    303.20726   -8697.0688    43.382556   -8740.4514    1157.1303 
  156400    285.27265   -8706.7029    40.816492   -8747.5194    14377.084 
  156600     262.4627   -8710.7343    37.552869   -8748.2872    18910.368 
  156800    309.97046   -8694.1303    44.350228   -8738.4805    7236.6195 
  157000    336.40571    -8707.792    48.132554   -8755.9245   -22079.966 
  157200    274.67389   -8707.2112    39.300033   -8746.5112   -1296.2251 
  157400    337.47226   -8699.5676    48.285154   -8747.8528   -26719.747 
  157600    241.35808   -8710.8664    34.533245   -8745.3997   -19495.352 
  157800    282.68867   -8706.9577    40.446779   -8747.4044   -578.55294 
  158000    301.91217   -8696.4492    43.197257   -8739.6464    49912.746 
  158200    295.58595    -8714.409    42.292107   -8756.7011    4390.6874 
  158400    256.33998   -8709.3607    36.676838   -8746.0376    561.86219 
  158600    300.39524    -8697.398    42.980215   -8740.3782    1789.6715 
  158800    349.52159   -8693.0998    50.009159    -8743.109    27734.506 
  159000    212.41274   -8710.4421    30.391777   -8740.8339    3029.8136 
  159200    309.99517   -8698.5791    44.353762   -8742.9328    14708.123 
  159400    268.35439   -8707.5962    38.395846   -8745.9921    1340.3136 
  159600    276.10442    -8720.128    39.504712   -8759.6327    8731.9761 
  159800    285.79559   -8703.8878    40.891313   -8744.7792   -41657.396 
  160000    345.05113   -8696.7379     49.36953   -8746.1074    1523.2388 
  160200    273.01553   -8708.0349    39.062757   -8747.0976   -23178.652 
  160400     388.4297   -8690.2352    55.576088   -8745.8113   -13693.443 
  160600     270.3706   -8703.4708    38.684324   -8742.1551    1845.0178 
  160800    303.38623   -8711.9776    43.408162   -8755.3857      19898.9 
  161000    363.51111   -8698.0672    52.010763    -8750.078   -10431.118 
  161200    335.87556     -8698.82    48.056699   -8746.8767   -167.13999 
  161400    271.55889   -8711.7839    38.854342   -8750.6382   -11139.638 
  161600    294.81468   -8700.4191    42.181755   -8742.6009   -10193.862 
  161800    334.80017   -8696.5006    47.902835   -8744.4034    9175.2755 
  162000     298.4347   -8703.4521    42.699704   -8746.1518    25332.569 
  162200    209.93874   -8713.0403      30.0378   -8743.0781    19171.578 
  162400    315.74386   -8700.6676    45.176278   -8745.8439    19610.259 
  162600    361.81943   -8695.8607     51.76872   -8747.6295   -12247.933 
  162800    210.36591   -8714.1274    30.098919   -8744.2263   -17466.091 
  163000    246.95104   -8707.2768    35.333479   -8742.6103   -12293.977 
  163200    310.76779   -8701.7969    44.464308   -8746.2613    11038.016 
  163400    294.26522    -8699.763    42.103139   -8741.8662     15857.44 
  163600    273.11443   -8702.3996    39.076907   -8741.4765   -1745.4137 
  163800    282.10027   -8699.2108    40.362592   -8739.5734   -23268.727 
  164000    322.01181   -8701.8527     46.07309   -8747.9257   -4358.2192 
  164200    238.58641   -8713.6971    34.136677   -8747.8338     9165.263 
  164400    304.56011   -8699.3937     43.57612   -8742.9699   -37613.969 
  164600    290.75464   -8707.1132    41.600848   -8748.7141   -8508.5375 
  164800    263.42927   -8712.7061    37.691165   -8750.3972    -20745.76 
  165000    311.54006   -8699.3505    44.574804   -8743.9253   -3140.6021 
  165200     374.7258    -8685.934    53.615348   -8739.5493   -6491.7735 
  165400    280.92909   -8694.0505    40.195021   -8734.2456    12687.987 
  165600    290.43472   -8705.1884    41.555075   -8746.7434   -9015.3185 
  165800    265.26111   -8705.3913    37.953264   -8743.3446   -14235.023 
  166000    302.97116   -8694.5221    43.348775   -8737.8709   -17843.741 
  166200    334.10792   -8702.3708    47.803788   -8750.1746    12523.562 
  166400    279.34009   -8709.9374    39.967668   -8749.9051    1140.3725 
  166600    276.50075   -8698.1191    39.561418   -8737.6805    16443.846 
  166800    300.55214   -8699.8692    43.002664   -8742.8719    20863.633 
  167000    256.19781   -8714.4271    36.656496   -8751.0836    21524.785 
  167200    234.55117   -8718.6247    33.559319    -8752.184   -435.06738 
  167400    287.40091   -8704.9534    41.121002   -8746.0744   -12617.546 
  167600    346.89755   -8695.9203    49.633714    -8745.554     33866.34 
  167800    251.99391   -8707.5862    36.055008   -8743.6412    6342.2931 
  168000    298.31976   -8702.5255    42.683257   -8745.2088   -32765.987 
  168200    280.13041   -8700.3687    40.080746   -8740.4495    12838.372 
  168400    315.45203   -8691.1181    45.134524   -8736.2526    15876.139 
  168600    300.81623   -8706.4315     43.04045   -8749.4719    658.01971 
  168800    328.13927   -8705.3037      46.9498   -8752.2535    3306.0442 
  169000    407.69719   -8690.2942    58.332858    -8748.627   -20678.801 
  169200    234.74063   -8705.9083    33.586426   -8739.4947   -16090.262 
  169400    312.15233   -8697.8344    44.662407   -8742.4968   -15180.983 
  169600    372.98363    -8683.963    53.366081   -8737.3291   -23009.373 
  169800    309.74837   -8705.3356    44.318451   -8749.6541    45539.606 
  170000     352.2051   -8702.7746    50.393113   -8753.1677    852.63993 
  170200    301.88168    -8693.741    43.192893   -8736.9339   -1968.2259 
  170400    287.80375   -8708.3607    41.178638   -8749.5393    110.52231 
  170600    317.14865   -8703.6278    45.377274   -8749.0051    15505.013 
  170800    361.16934   -8688.5646    51.675705   -8740.2403   -31438.969 
  171000    315.21766   -8703.4018     45.10099   -8748.5027   -8646.7225 
  171200    295.70827   -8703.4926    42.309609   -8745.8022   -1237.7261 
  171400    363.28835   -8691.3835    51.978891   -8743.3624   -16096.256 
  171600    296.24816   -8701.5711    42.386855    -8743.958   -11655.154 
  171800    346.59605   -8705.6295    49.590575     -8755.22   -12491.231 
  172000    268.28774   -8705.2423     38.38631   -8743.6287    28838.677 
  172200      368.195   -8689.7547    52.680929   -8742.4357    10575.391 
  172400    307.42344   -8704.2185    43.985803   -8748.2043    2629.3817 
  172600    288.62756   -8704.8101    41.296508   -8746.1066   -3309.1672 
  172800    304.76208   -8690.8577    43.605018   -8734.4628   -8070.9946 
  173000     338.0816   -8699.2018    48.372337   -8747.5741   -37185.379 
  173200    250.77614   -8713.0831    35.880769   -8748.9639   -961.94441 
  173400     282.9301   -8689.5516    40.481322    -8730.033     23027.92 
  173600    320.86499   -8702.5602    45.909004   -8748.4692    15401.001 
  173800     279.4633   -8710.9393    39.985297   -8750.9246    22315.193 
  174000     288.8131   -8701.9519    41.323055   -8743.2749    11740.815 
  174200    341.87045   -8700.2705    48.914442   -8749.1849   -34976.214 
  174400    285.47627   -8707.1165    40.845626   -8747.9621    17776.894 
  174600    292.63052   -8691.8793    41.869248   -8733.7486   -31418.202 
  174800    283.47938   -8702.1303    40.559913   -8742.6902    9109.0092 
  175000    265.39177    -8703.316    37.971957   -8741.2879    3832.5101 
  175200     287.1591   -8694.7331    41.086403   -8735.8195    8083.1682 
  175400    319.86461   -8701.3404     45.76587   -8747.1063   -12550.972 
  175600    260.10885   -8707.1134    37.216084   -8744.3295    5028.9904 
  175800    257.83153   -8693.5971    36.890248   -8730.4873    40870.222 
  176000    294.14045   -8700.0993    42.085286   -8742.1846      1856.01 
  176200    277.10479   -8707.8625    39.647843   -8747.5103   -7506.6693 
  176400    300.24063   -8700.7782    42.958093   -8743.7362    25835.368 
  176600    311.27887   -8699.4057    44.537432   -8743.9432    18460.305 
  176800    254.22495   -8706.9617    36.374222   -8743.3359     13932.92 
  177000    302.51635   -8699.8846    43.283701   -8743.1683   -25974.806 
  177200    327.26578   -8698.0887    46.824822   -8744.9136    2568.7368 
  177400    286.09128   -8715.2134    40.933621   -8756.1471   -994.32519 
  177600    329.66434   -8694.7619    47.168006   -8741.9299    2105.1259 
  177800    296.38583   -8701.4329    42.406553   -8743.8395   -5156.6627 
  178000    284.41195   -8709.7506    40.693343   -8750.4439    6614.5394 
[...]
  950000    263.75704   -8794.2267    37.738063   -8831.9647    -9767.882 
  950200    321.35979   -8776.5431      45.9798   -8822.5229    31062.662 
  950400    316.61694   -8784.5809    45.301198   -8829.8821    7778.8852 
  950600    248.77375   -8795.9999    35.594271   -8831.5942   -25708.529 
  950800    325.12994   -8782.0364    46.519228   -8828.5556    3084.7492 
  951000    342.67442   -8779.4813    49.029474   -8828.5108    17139.954 
  951200    331.23967   -8772.5757    47.393402   -8819.9691   -7135.9342 
  951400     344.4286   -8788.5119    49.280459   -8837.7923    6009.0776 
  951600    346.22114   -8781.9621    49.536933   -8831.4991    14614.502 
  951800    351.10619   -8769.5199    50.235882   -8819.7558    15180.412 
  952000    318.73413   -8788.8611    45.604123   -8834.4653   -809.35988 
  952200    256.57906   -8785.3718    36.711046   -8822.0828   -9525.1102 
  952400    365.59387   -8771.1902    52.308763    -8823.499   -7620.2598 
  952600    325.47433   -8784.3759    46.568503   -8830.9444   -3099.1654 
  952800    307.05716   -8788.1807    43.933395   -8832.1141    230.61774 
  953000    287.53291   -8775.6424    41.139887   -8816.7823    12943.369 
  953200    284.65933   -8778.6666    40.728738   -8819.3954   -5536.7643 
  953400    286.30404   -8788.4161    40.964063   -8829.3802   -4974.8188 
  953600    346.90256   -8783.3777    49.634431   -8833.0121    28771.854 
  953800    289.17855   -8783.4352    41.375344   -8824.8106    21362.501 
  954000    272.29361    -8793.415    38.959465   -8832.3745   -2899.9169 
  954200    303.43637   -8780.1169    43.415337   -8823.5322    14032.507 
  954400    328.29893   -8780.1548    46.972644   -8827.1275     3314.089 
  954600    281.01988   -8793.2198     40.20801   -8833.4278   -42720.623 
  954800    277.28017   -8786.6701    39.672936   -8826.3431   -760.11448 
  955000    312.35543   -8779.6843    44.691466   -8824.3758   -17699.409 
  955200    286.63643   -8775.5175     41.01162   -8816.5291   -4211.1254 
  955400    291.82284   -8790.9508    41.753686   -8832.7045    8692.3521 
  955600    318.98071   -8785.6079    45.639404   -8831.2473     5170.808 
  955800    385.25035   -8756.4719     55.12119    -8811.593   -44751.153 
  956000    314.63133    -8779.219    45.017099   -8824.2361   -5713.6708 
  956200    298.46911   -8788.0274    42.704626    -8830.732   -609.20521 
  956400    349.84319   -8772.9405    50.055172   -8822.9956   -14586.733 
  956600    297.12331   -8787.8424    42.512071   -8830.3545    833.40917 
  956800    306.76183   -8788.6204     43.89114   -8832.5116   -6233.9554 
  957000    321.20439   -8772.7711    45.957566   -8818.7286     540.4786 
  957200    286.53801    -8782.142    40.997538   -8823.1395   -22003.294 
  957400    339.25682   -8781.7869    48.540487   -8830.3274   -11452.725 
  957600     348.5145   -8775.2839    49.865065   -8825.1489    16578.088 
  957800    243.66933   -8793.7043    34.863936   -8828.5682   -2632.7106 
  958000    309.38434   -8784.1293    44.266366   -8828.3957   -7469.2962 
  958200    365.57344   -8774.1456    52.305839   -8826.4515   -13442.174 
  958400     330.4849    -8782.062     47.28541   -8829.3474   -602.77328 
  958600    251.93644   -8795.5237    36.046785   -8831.5705   -16358.165 
  958800    277.97592   -8797.0578    39.772484   -8836.8303    35869.254 
  959000    331.97146   -8781.0938    47.498106   -8828.5919   -30059.113 
  959200    271.83723   -8790.0065    38.894167   -8828.9006   -14194.439 
  959400    319.37955   -8783.5571    45.696468   -8829.2535    28530.838 
  959600    370.66369   -8770.9648    53.034147    -8823.999   -5880.4464 
  959800    256.21754   -8788.5824    36.659319   -8825.2418    8705.2734 
  960000    317.64744   -8787.4953    45.448641    -8832.944   -8000.7945 
  960200     321.7402   -8791.3634    46.034228   -8837.3976   -10403.955 
  960400      306.009   -8776.9791    43.783426   -8820.7626    15559.982 
  960600    304.17252   -8781.1148    43.520664   -8824.6355    8194.1321 
  960800    286.00143   -8791.9503    40.920765    -8832.871     19494.86 
  961000    334.87999   -8785.7321    47.914255   -8833.6464    18340.231 
  961200    349.05457   -8770.1111    49.942338   -8820.0534   -6221.4415 
  961400    270.05244   -8785.7757    38.638802   -8824.4145    16732.798 
  961600    326.10096   -8778.1992    46.658161   -8824.8574   -13409.054 
  961800    282.43343    -8788.439    40.410259   -8828.8492   -18050.844 
  962000    259.30439   -8792.8288    37.100983   -8829.9298    1980.3224 
  962200    300.34834    -8778.727    42.973504   -8821.7005    44178.282 
  962400    318.85735   -8786.3383    45.621753     -8831.96   -28611.299 
  962600    274.33595   -8779.0784    39.251682   -8818.3301   -19283.629 
  962800    371.37782   -8772.7997    53.136323    -8825.936   -2445.5343 
  963000    278.20489   -8785.7485    39.805245   -8825.5538   -14299.885 
  963200    260.60569   -8800.3975    37.287171   -8837.6847    8971.5159 
  963400    248.96153   -8792.9579    35.621137    -8828.579   -22522.295 
  963600    265.73841   -8781.0606    38.021555   -8819.0822    7192.8078 
  963800    351.90736   -8773.9124    50.350512   -8824.2629    20048.929 
  964000    257.88159   -8794.1604    36.897409   -8831.0578    3696.0644 
  964200    297.65961   -8783.9743    42.588804   -8826.5631   -4632.3221 
  964400    336.84144   -8782.5255    48.194897   -8830.7204    6165.7664 
  964600    270.17804   -8783.6606    38.656771   -8822.3174    9043.7582 
  964800    333.52322    -8778.854     47.72013   -8826.5741   -14967.693 
  965000     310.6184   -8781.6759    44.442934   -8826.1188     836.3079 
  965200     272.2728   -8788.4341    38.956488   -8827.3906    -27120.25 
  965400    301.72118   -8782.3928    43.169929   -8825.5627   -33673.191 
  965600    318.00596   -8774.9056    45.499938   -8820.4055   -26517.108 
  965800    291.52336   -8787.4566    41.710837   -8829.1674     14640.09 
  966000    249.86188   -8799.4263    35.749958   -8835.1763    9455.1506 
  966200    330.58358   -8777.2668    47.299529   -8824.5664   -9831.0075 
  966400     262.5006    -8790.353    37.558292   -8827.9113    12455.024 
  966600    300.88615   -8787.8257    43.050454   -8830.8762    17863.163 
  966800    294.05145   -8778.5974    42.072553     -8820.67   -7806.5475 
  967000    277.07197   -8788.8084    39.643148   -8828.4515    10856.533 
  967200    263.88178   -8798.0884     37.75591   -8835.8443   -2254.6294 
  967400    275.85984   -8780.3676    39.469718   -8819.8374    6373.7146 
  967600    299.54489   -8788.6434    42.858548    -8831.502    2872.9153 
  967800    241.87224   -8798.5608     34.60681   -8833.1676    1684.9707 
  968000    308.54648   -8780.1327    44.146486   -8824.2792    14025.421 
  968200    300.79704   -8783.5884    43.037704   -8826.6261   -24802.648 
  968400    236.88675   -8798.2609    33.893492   -8832.1544    1547.3347 
  968600    353.33301   -8777.6911    50.554492   -8828.2455   -18511.849 
  968800     279.8939   -8783.4152    40.046907   -8823.4621    11240.708 
  969000    260.56134   -8790.3295    37.280825   -8827.6103    1969.4411 
  969200    355.25654   -8773.4805    50.829708   -8824.3102    21754.291 
  969400    281.87202   -8786.0737    40.329934   -8826.4036    38083.437 
  969600    314.91092   -8787.3712    45.057103   -8832.4283    1619.4276 
  969800    249.88544   -8797.3465    35.753329   -8833.0998   -11343.001 
  970000    297.54027   -8779.0642     42.57173   -8821.6359   -10149.123 
  970200    319.09257   -8783.8206    45.655408    -8829.476    180.85493 
  970400    225.71164   -8798.9826    32.294569   -8831.2771   -13597.863 
  970600    370.51643    -8786.861    53.013076   -8839.8741    26788.159 
  970800    293.36958   -8779.3101    41.974992   -8821.2851     19930.07 
  971000    318.47133   -8781.2256    45.566521   -8826.7921     5977.101 
  971200    263.29075   -8789.1284    37.671346   -8826.7998    -5851.901 
  971400    344.66036   -8780.8545    49.313619   -8830.1681   -16858.606 
  971600    310.83301   -8783.4449    44.473639   -8827.9186    21803.746 
  971800    274.46185   -8792.3254    39.269695    -8831.595    28156.941 
  972000    286.34566   -8771.5983    40.970016   -8812.5683   -5494.3138 
  972200    302.78614    -8777.298    43.322302   -8820.6203    43593.309 
  972400    293.79433   -8788.3974    42.035764   -8830.4332    8307.5989 
  972600    261.87032    -8784.744    37.468113   -8822.2121   -14085.657 
  972800    353.02313    -8768.965    50.510155   -8819.4751   -14325.914 
  973000    283.66356   -8788.4087    40.586265    -8828.995   -13924.519 
  973200    263.86633   -8781.2546      37.7537   -8819.0083   -317.76432 
  973400    352.41562   -8767.9146    50.423234   -8818.3378    2201.3553 
  973600    297.77977   -8788.4261    42.605997   -8831.0321   -24532.041 
  973800    266.38143    -8789.997    38.113557   -8828.1105    21086.151 
  974000    342.52016   -8774.2394    49.007402   -8823.2468    -9488.511 
  974200    303.61581   -8781.4201    43.441011   -8824.8611   -8861.4592 
  974400    279.52837   -8786.2747    39.994606   -8826.2693    9224.5511 
  974600    316.31531   -8784.1461     45.25804   -8829.4041    420.98918 
  974800    258.72539   -8786.5061    37.018139   -8823.5243    17208.391 
  975000    275.82132   -8780.9229    39.464206   -8820.3872   -3137.3831 
  975200    258.56763   -8783.9972    36.995567   -8820.9927    -19442.79 
  975400    331.28966   -8789.2844    47.400554   -8836.6849    19936.457 
  975600     329.3513   -8771.1771    47.123216   -8818.3003    12483.127 
  975800    291.11949   -8779.3688    41.653051   -8821.0219   -7452.8595 
  976000    340.95138    -8782.496    48.782942   -8831.2789    6536.1239 
  976200    247.18509    -8795.389    35.366967   -8830.7559    -9855.774 
  976400    342.26559   -8777.9545    48.970978   -8826.9255    -1154.978 
  976600    307.85882   -8792.4586    44.048096   -8836.5067    6810.6883 
  976800      311.315   -8789.2057    44.542602   -8833.7483     52140.23 
  977000    289.97063   -8777.3776    41.488674   -8818.8662    8079.3853 
  977200    254.77287   -8788.3407    36.452617   -8824.7933   -28296.681 
  977400    321.80412   -8781.0955    46.043373   -8827.1389   -14818.578 
  977600    311.73636   -8778.1897    44.602889   -8822.7926    30035.288 
  977800      288.911   -8794.9343    41.337064   -8836.2714    927.68124 
  978000    277.94973   -8789.1776    39.768737   -8828.9464   -2652.1447 
  978200    345.24245   -8781.9348    49.396905   -8831.3317    7171.1608 
  978400    286.12676   -8783.9462    40.938697   -8824.8849    9083.8764 
  978600    306.53489   -8774.9199     43.85867   -8818.7786   -646.04097 
  978800    319.56923   -8782.3327    45.723608   -8828.0563    17929.269 
  979000    319.98998   -8789.5701    45.783809   -8835.3539    3279.2626 
  979200    304.83748   -8786.0984    43.615805   -8829.7143    8545.2759 
  979400    289.84884   -8772.8637    41.471249   -8814.3349   -33082.342 
  979600    306.58305    -8787.115     43.86556   -8830.9805    5344.0412 
  979800    255.03147   -8788.8491    36.489618   -8825.3387   -13110.107 
  980000    288.38814   -8781.8599    41.262253   -8823.1222    20810.533 
  980200    284.97799   -8792.7897    40.774333   -8833.5641    10152.404 
  980400    253.20664   -8788.5453    36.228524   -8824.7738   -4085.3124 
  980600    306.85493   -8780.7882     43.90446   -8824.6926   -10739.249 
  980800    267.96717   -8789.9408    38.340444   -8828.2813    29669.312 
  981000     265.3559   -8789.9496    37.966825   -8827.9164    3773.6028 
  981200    294.45183   -8773.8904    42.129838   -8816.0203    10401.837 
  981400    277.98389   -8787.2601    39.773625   -8827.0337    -13516.34 
  981600    217.08821   -8805.9129    31.060739   -8836.9736    14232.735 
  981800    234.31831   -8798.9741    33.526002   -8832.5001   -36031.104 
  982000    344.84416    -8784.193    49.339917    -8833.533   -26399.246 
  982200    312.10186   -8783.1225    44.655186   -8827.7776   -9729.5691 
  982400    248.13835   -8796.5589    35.503358   -8832.0622     20092.75 
  982600    334.39616   -8777.9216    47.845029   -8825.7666   -15099.286 
  982800    294.31427   -8784.4188    42.110156    -8826.529    25584.182 
  983000     293.4907   -8792.2011    41.992321   -8834.1934    7156.1596 
  983200    317.99438   -8784.3253    45.498281   -8829.8236    7240.4177 
  983400    358.24673   -8764.1108    51.257541   -8815.3683   -21353.948 
  983600    314.28184    -8784.119    44.967094   -8829.0861     13700.06 
  983800    296.34671   -8786.7359    42.400955   -8829.1369    18235.599 
  984000    380.37351   -8773.2592    54.423417   -8827.6826    9527.2592 
  984200    278.00977   -8793.7742    39.777327   -8833.5515   -6376.3823 
  984400    272.04597    -8789.084    38.924034    -8828.008    964.46989 
  984600    279.46125   -8777.2109    39.985004   -8817.1959    18470.347 
  984800    229.69077   -8794.9648    32.863898   -8827.8287   -5027.8833 
  985000    334.53025     -8786.21    47.864214   -8834.0742    1990.3674 
  985200    276.22132   -8782.6066    39.521437    -8822.128    9165.7758 
  985400    278.53871    -8785.009    39.853008    -8824.862   -13451.297 
  985600    195.60486   -8793.9555    27.986925   -8821.9424    3391.5889 
  985800     308.2705   -8791.8943    44.106998   -8836.0013   -423.42338 
  986000    347.09397   -8780.0811    49.661817    -8829.743   -5118.7594 
  986200     296.6597   -8789.2599    42.445739   -8831.7056    23164.531 
  986400    313.12707   -8782.8678    44.801871   -8827.6697   -35269.112 
  986600     319.5245    -8779.093    45.717209   -8824.8102    29765.046 
  986800    328.15016   -8781.4536    46.951359    -8828.405    14421.203 
  987000    333.13642   -8790.2711    47.664786   -8837.9359    35131.832 
  987200    275.71316   -8786.2764    39.448731   -8825.7252   -13040.786 
  987400    338.09381    -8777.178    48.374084   -8825.5521   -23365.232 
  987600    273.03202   -8784.7839    39.065117    -8823.849    28235.707 
  987800    274.25304   -8785.7684    39.239819   -8825.0083   -2251.5639 
  988000    315.78246   -8782.3041    45.181801   -8827.4859    24501.391 
  988200    277.45988   -8794.9366    39.698649   -8834.6352   -10763.163 
  988400    286.69467   -8785.1165    41.019952   -8826.1364    32984.143 
  988600    337.34247   -8778.2685    48.266584   -8826.5351   -9256.7452 
  988800    262.46833   -8790.7336    37.553676   -8828.2873   -5112.9023 
  989000    318.78615    -8771.676    45.611566   -8817.2876    23923.183 
  989200    303.36227   -8784.1595    43.404735   -8827.5642   -15571.369 
  989400    302.19613   -8787.1849    43.237884   -8830.4228   -9368.8272 
  989600    276.32968    -8787.888    39.536942   -8827.4249    18272.647 
  989800    304.18012   -8790.9933    43.521752    -8834.515   -6967.4309 
  990000    386.06417   -8774.1153     55.23763   -8829.3529   -5526.1236 
  990200    289.04011   -8782.5721    41.355535   -8823.9277   -18588.182 
  990400    317.06908    -8785.222    45.365889   -8830.5879    8941.7056 
  990600    247.06991   -8795.7669    35.350487   -8831.1173    3803.6048 
  990800    269.08829   -8789.5264    38.500852   -8828.0272   -6464.7761 
  991000    303.11891   -8784.7098    43.369915   -8828.0797   -8115.6035 
  991200    266.27679    -8793.674    38.098585   -8831.7726    6189.1609 
  991400    328.81742   -8768.0942    47.046829    -8815.141    5104.5135 
  991600    285.93388    -8772.914      40.9111   -8813.8251    -15074.87 
  991800     284.0736   -8783.9338    40.644933   -8824.5787   -21581.916 
  992000     234.3128   -8799.3079    33.525213   -8832.8331   -30708.155 
  992200    286.56146   -8791.5713    41.000894   -8832.5722    34106.959 
  992400    310.53608   -8789.7631    44.431156   -8834.1942   -21435.081 
  992600    248.15896   -8792.0809    35.506306   -8827.5872    38794.913 
  992800     301.2723   -8774.3831    43.105704   -8817.4888    6988.5042 
  993000    272.35662   -8785.5726    38.968481   -8824.5411    12972.725 
  993200    222.66128   -8797.5563    31.858128   -8829.4144     7593.888 
  993400    363.21194   -8785.0008    51.967958   -8836.9687    35206.956 
  993600    301.17363   -8789.0749    43.091586   -8832.1665   -21225.411 
  993800    269.68714   -8799.9071    38.586535   -8838.4937   -27479.629 
  994000    287.19497   -8786.4378    41.091535   -8827.5293    44195.934 
  994200    329.44966    -8777.308    47.137289   -8824.4453    1871.2247 
  994400    278.08181   -8790.5942    39.787635   -8830.3818   -27178.557 
  994600     294.7276   -8790.0556    42.169295   -8832.2249   -31142.266 
  994800    297.18569   -8781.0024    42.520996   -8823.5234   -25428.947 
  995000    285.10606    -8791.946    40.792656   -8832.7387   -7679.2246 
  995200    297.98809    -8788.319    42.635803   -8830.9548    15142.184 
  995400    316.81372   -8787.5337    45.329353    -8832.863     11871.42 
  995600    385.76989   -8768.5614    55.195525   -8823.7569   -17597.853 
  995800    324.81668   -8784.6586    46.474408    -8831.133    -13296.53 
  996000    306.65174   -8789.4827    43.875389   -8833.3581   -2427.3455 
  996200    320.70729   -8773.5189     45.88644   -8819.4053   -5538.9156 
  996400    255.87098   -8786.9066    36.609733   -8823.5163   -18343.971 
  996600    275.02726   -8787.3698    39.350593   -8826.7204   -13996.741 
  996800    337.24628   -8774.2535    48.252821   -8822.5063    -20706.23 
  997000      326.219   -8775.6315     46.67505   -8822.3066   -30406.643 
  997200    261.22967   -8788.8482     37.37645   -8826.2246      28896.6 
  997400    333.35787   -8778.3075    47.696472    -8826.004    19440.893 
  997600    241.54807   -8797.0651    34.560427   -8831.6255    18059.662 
  997800    284.88852   -8788.0658    40.761531   -8828.8273    8192.3226 
  998000    332.40336   -8778.1765    47.559901   -8825.7364    31369.061 
  998200    315.96284   -8783.0536     45.20761   -8828.2612    21896.058 
  998400    279.90383     -8787.45    40.048327   -8827.4984    4533.3026 
  998600    353.13031   -8782.9925    50.525489    -8833.518    -1733.574 
  998800    318.39572   -8787.3146    45.555704   -8832.8703   -3850.2651 
  999000    279.03166   -8796.4339    39.923539   -8836.3575   -31454.122 
  999200    320.66989   -8778.5453    45.881089   -8824.4264   -13985.455 
  999400     277.5101   -8781.3769    39.705836   -8821.0828   -17831.273 
  999600    323.18922    -8794.723    46.241553   -8840.9645   -9514.5551 
  999800    300.45622   -8776.1256     42.98894   -8819.1146    20701.736 
 1000000    348.75672   -8780.4641    49.899722   -8830.3638    16162.128 
Loop time of 9294.69 on 8 procs for 1000000 steps with 49 atoms

Performance: 2.324 ns/day, 10.327 hours/ns, 107.588 timesteps/s
98.8% CPU use with 8 MPI tasks x no OpenMP threads

MPI task timing breakdown:
Section |  min time  |  avg time  |  max time  |%varavg| %total
---------------------------------------------------------------
Pair    | 7385.1     | 7479.9     | 7579.5     |  77.7 | 80.48
Neigh   | 1.0338     | 1.0443     | 1.0567     |   0.7 |  0.01
Comm    | 165.57     | 264.89     | 359.58     | 412.8 |  2.85
Output  | 0.4198     | 0.45355    | 0.63972    |  10.5 |  0.00
Modify  | 1538.4     | 1539.1     | 1540.1     |   1.5 | 16.56
Other   |            | 9.286      |            |       |  0.10

Nlocal:    6.125 ave 7 max 6 min
Histogram: 7 0 0 0 0 0 0 0 0 1
Nghost:    588.625 ave 606 max 574 min
Histogram: 2 0 0 1 1 2 0 0 1 1
Neighs:    801.25 ave 922 max 773 min
Histogram: 4 3 0 0 0 0 0 0 0 1

Total # of neighbors = 6410
Ave neighs/atom = 130.816
Neighbor list builds = 411
Dangerous builds = 0

unfix 1
unfix output
undump 1

Please see the log.cite file for references relevant to this simulation

Total wall time: 2:35:48
