ITEM: TIMESTEP
0
ITEM: NUMBER OF ATOMS
67
ITEM: BOX BOUNDS pp pp pp
0.0000000000000000e+00 1.4190000000000000e+01
0.0000000000000000e+00 1.4190000000000000e+01
0.0000000000000000e+00 1.4190000000000000e+01
ITEM: ATOMS id type x y z 
57 1 2.098 0.759 2.098 
58 1 2.801 0.056 2.801 
59 1 0.759 0.759 0.759 
60 1 0.056 0.056 0.056 
61 1 0.759 2.098 2.098 
62 1 0.056 2.801 2.801 
63 1 2.098 2.098 0.759 
64 1 2.801 2.801 0.056 
41 1 4.307 4.307 12.741 
42 1 3.604 3.604 13.443 
43 1 4.307 5.646 11.401 
44 1 3.604 6.348 10.699 
45 1 5.646 5.646 12.741 
46 1 6.348 6.348 13.443 
47 1 5.646 4.307 11.401 
48 1 6.348 3.604 10.699 
25 1 4.307 12.741 4.307 
26 1 3.604 13.443 3.604 
27 1 5.646 11.401 4.307 
28 1 6.348 10.699 3.604 
29 1 5.646 12.741 5.646 
30 1 6.348 13.443 6.348 
31 1 4.307 11.401 5.646 
32 1 3.604 10.699 6.348 
1 1 0.759 9.193 9.193 
2 1 0.056 9.896 9.896 
3 1 2.098 7.854 9.193 
4 1 2.801 7.151 9.896 
5 1 0.759 7.854 7.854 
6 1 0.056 7.151 7.151 
7 1 2.098 9.193 7.854 
8 1 2.801 9.896 7.151 
65 2 6.348 7.698 13.443 
67 3 6.746 9.388 13.176 
33 1 12.741 4.307 4.307 
34 1 13.443 3.604 3.604 
35 1 11.401 4.307 5.646 
36 1 10.699 3.604 6.348 
37 1 12.741 5.646 5.646 
38 1 13.443 6.348 6.348 
39 1 11.401 5.646 4.307 
40 1 10.699 6.348 3.604 
9 1 9.193 0.759 9.193 
10 1 9.896 0.056 9.896 
11 1 9.193 2.098 7.854 
12 1 9.896 2.801 7.151 
13 1 7.854 0.759 7.854 
14 1 7.151 0.056 7.151 
15 1 7.854 2.098 9.193 
16 1 7.151 2.801 9.896 
17 1 9.193 9.193 0.759 
18 1 9.896 9.896 0.056 
19 1 7.854 9.193 2.098 
20 1 7.151 9.896 2.801 
21 1 7.854 7.854 0.759 
22 1 7.151 7.151 0.056 
23 1 9.193 7.854 2.098 
24 1 9.896 7.151 2.801 
49 1 12.741 12.741 12.741 
50 1 13.443 13.443 13.443 
51 1 12.74 11.401 11.401 
52 1 13.443 10.699 10.699 
53 1 11.401 11.401 12.741 
54 1 10.699 10.699 13.443 
55 1 11.401 12.74 11.401 
56 1 10.699 13.443 10.699 
66 2 7.411 8.679 12.999 
ITEM: TIMESTEP
10
ITEM: NUMBER OF ATOMS
67
ITEM: BOX BOUNDS pp pp pp
0.0000000000000000e+00 1.4190000000000000e+01
0.0000000000000000e+00 1.4190000000000000e+01
0.0000000000000000e+00 1.4190000000000000e+01
ITEM: ATOMS id type x y z 
57 1 2.07675 0.779382 2.07668 
58 1 2.79234 0.0659337 2.79173 
59 1 0.78079 0.780826 0.777543 
60 1 0.0632125 0.0631582 0.0697646 
61 1 0.779407 2.07675 2.0766 
62 1 0.0658692 2.79236 2.79182 
63 1 2.07694 2.0773 0.778503 
64 1 2.79308 2.79283 0.065298 
41 1 4.33548 4.33306 12.7245 
42 1 3.61482 3.6142 13.435 
43 1 4.33469 5.62868 11.4275 
44 1 3.61509 6.34191 10.7099 
45 1 5.59904 5.58595 12.689 
46 1 6.29893 6.31627 13.4043 
47 1 5.6275 4.33306 11.4287 
48 1 6.34189 3.6148 10.7095 
25 1 4.32711 12.7186 4.32742 
26 1 3.61447 13.4359 3.61334 
27 1 5.62473 11.4202 4.32818 
28 1 6.34213 10.7081 3.61229 
29 1 5.62529 12.7181 5.62474 
30 1 6.33847 13.4363 6.33821 
31 1 4.32868 11.4205 5.62344 
32 1 3.61295 10.7087 6.34082 
1 1 0.778649 9.1713 9.17167 
2 1 0.0674611 9.88745 9.88752 
3 1 2.07752 7.87279 9.17063 
4 1 2.79242 7.16141 9.8901 
5 1 0.779758 7.87477 7.87558 
6 1 0.0646826 7.16014 7.15997 
7 1 2.0782 9.1706 7.87502 
8 1 2.79072 9.88802 7.16102 
65 2 6.34963 7.6685 13.4558 
67 3 6.7621 9.38851 13.167 
33 1 12.7183 4.32737 4.32732 
34 1 13.4359 3.61446 3.61341 
35 1 11.4204 4.32891 5.6232 
36 1 10.7087 3.61292 6.34081 
37 1 12.7179 5.62529 5.62455 
38 1 13.4363 6.33847 6.33819 
39 1 11.4204 5.62455 4.32835 
40 1 10.7087 6.34197 3.61254 
9 1 9.17119 0.778793 9.1717 
10 1 9.8874 0.0674769 9.88751 
11 1 9.17047 2.07818 7.87517 
12 1 9.88799 2.79081 7.16103 
13 1 7.87477 0.779889 7.87559 
14 1 7.16011 0.0647169 7.16019 
15 1 7.87298 2.07768 9.17038 
16 1 7.16156 2.79183 9.8902 
17 1 9.16506 9.16644 0.773711 
18 1 9.8851 9.88583 0.0661178 
19 1 7.87064 9.16645 2.07154 
20 1 7.15952 9.88647 2.7881 
21 1 7.9046 7.87446 0.808123 
22 1 7.18315 7.21865 0.0967084 
23 1 9.16475 7.86947 2.07168 
24 1 9.88669 7.15856 2.78915 
49 1 12.7188 12.7188 12.7215 
50 1 13.4361 13.4361 13.4296 
51 1 12.7182 11.4219 11.4221 
52 1 13.4339 10.7073 10.7079 
53 1 11.4204 11.4204 12.7175 
54 1 10.7088 10.7086 13.4396 
55 1 11.422 12.7182 11.4221 
56 1 10.7073 13.4339 10.7079 
66 2 7.40323 8.71081 12.9936 
ITEM: TIMESTEP
20
ITEM: NUMBER OF ATOMS
67
ITEM: BOX BOUNDS pp pp pp
0.0000000000000000e+00 1.4190000000000000e+01
0.0000000000000000e+00 1.4190000000000000e+01
0.0000000000000000e+00 1.4190000000000000e+01
ITEM: ATOMS id type x y z 
57 1 2.07722 0.780782 2.0763 
58 1 2.79147 0.0662401 2.79108 
59 1 0.780855 0.780845 0.779464 
60 1 0.065901 0.0659186 0.065481 
61 1 0.780828 2.07718 2.0764 
62 1 0.0661654 2.79163 2.79094 
63 1 2.07565 2.07664 0.778121 
64 1 2.79253 2.79188 0.0663712 
41 1 4.33554 4.33216 12.7242 
42 1 3.61629 3.6145 13.4381 
43 1 4.33434 5.63038 11.4282 
44 1 3.61597 6.34377 10.7104 
45 1 5.59408 5.5817 12.6845 
46 1 6.29143 6.31107 13.397 
47 1 5.62874 4.33232 11.4296 
48 1 6.34343 3.61431 10.7108 
25 1 4.32825 12.7193 4.32801 
26 1 3.61414 13.4338 3.61323 
27 1 5.62656 11.4222 4.32877 
28 1 6.33889 10.7073 3.61234 
29 1 5.62476 12.7187 5.62371 
30 1 6.33871 13.4338 6.33843 
31 1 4.32856 11.4221 5.62426 
32 1 3.61359 10.7078 6.33843 
1 1 0.780815 9.17137 9.17191 
2 1 0.0658677 9.88567 9.88639 
3 1 2.07615 7.87331 9.17128 
4 1 2.79242 7.16157 9.88726 
5 1 0.780418 7.87477 7.87583 
6 1 0.0661216 7.16036 7.16081 
7 1 2.07701 9.17151 7.87623 
8 1 2.79174 9.88582 7.16163 
65 2 6.35124 7.66015 13.4602 
67 3 6.76424 9.39071 13.165 
33 1 12.719 4.32859 4.32787 
34 1 13.4336 3.61411 3.61336 
35 1 11.422 4.32875 5.62397 
36 1 10.7077 3.61378 6.33831 
37 1 12.7184 5.62486 5.62346 
38 1 13.4337 6.33869 6.33826 
39 1 11.4229 5.62631 4.3291 
40 1 10.7076 6.33853 3.61292 
9 1 9.17122 0.780904 9.17192 
10 1 9.88554 0.0660264 9.88651 
11 1 9.17142 2.07706 7.8764 
12 1 9.88575 2.79181 7.16169 
13 1 7.87473 0.78062 7.87596 
14 1 7.16038 0.0661957 7.16092 
15 1 7.87379 2.07653 9.17073 
16 1 7.16165 2.79194 9.88722 
17 1 9.16583 9.1676 0.775108 
18 1 9.88402 9.88494 0.0634974 
19 1 7.871 9.16843 2.07091 
20 1 7.15803 9.88459 2.78866 
21 1 7.91077 7.87519 0.814545 
22 1 7.18399 7.2283 0.0995223 
23 1 9.16635 7.86943 2.07121 
24 1 9.88504 7.15643 2.78991 
49 1 12.7189 12.7189 12.7194 
50 1 13.4334 13.4334 13.4339 
51 1 12.7184 11.4224 11.4228 
52 1 13.4333 10.708 10.7084 
53 1 11.4222 11.4219 12.72 
54 1 10.7081 10.7081 13.4358 
55 1 11.4223 12.7183 11.4227 
56 1 10.7081 13.4334 10.7084 
66 2 7.40297 8.71654 12.992 
ITEM: TIMESTEP
30
ITEM: NUMBER OF ATOMS
67
ITEM: BOX BOUNDS pp pp pp
0.0000000000000000e+00 1.4190000000000000e+01
0.0000000000000000e+00 1.4190000000000000e+01
0.0000000000000000e+00 1.4190000000000000e+01
ITEM: ATOMS id type x y z 
57 1 2.07683 0.783556 2.07387 
58 1 2.79174 0.06788 2.78863 
59 1 0.783194 0.784003 0.780028 
60 1 0.0686751 0.0668247 0.0656272 
61 1 0.781498 2.07451 2.07459 
62 1 0.0704244 2.79465 2.78834 
63 1 2.07129 2.0744 0.78 
64 1 2.79091 2.78827 0.0700776 
41 1 4.33965 4.33049 12.7328 
42 1 3.61763 3.61322 13.4425 
43 1 4.33787 5.64125 11.4293 
44 1 3.61575 6.3493 10.7121 
45 1 5.57273 5.56075 12.6618 
46 1 6.24774 6.28141 13.3605 
47 1 5.63594 4.32956 11.4337 
48 1 6.3511 3.61495 10.7127 
25 1 4.33075 12.7173 4.32812 
26 1 3.61339 13.433 3.61508 
27 1 5.62424 11.425 4.33045 
28 1 6.33783 10.708 3.61574 
29 1 5.62456 12.7174 5.62108 
30 1 6.34016 13.4294 6.33812 
31 1 4.32716 11.4244 5.62053 
32 1 3.61782 10.7061 6.33855 
1 1 0.782645 9.1683 9.17145 
2 1 0.0688408 9.88617 9.8856 
3 1 2.07429 7.87438 9.16699 
4 1 2.78829 7.16524 9.88581 
5 1 0.782255 7.87534 7.8793 
6 1 0.0688047 7.16006 7.16169 
7 1 2.07344 9.16974 7.87641 
8 1 2.79439 9.88433 7.166 
65 2 6.35937 7.62048 13.4819 
67 3 6.77322 9.4038 13.1555 
33 1 12.7155 4.32902 4.3282 
34 1 13.433 3.61589 3.61413 
35 1 11.4224 4.33001 5.6204 
36 1 10.7086 3.61585 6.33881 
37 1 12.7151 5.62516 5.62145 
38 1 13.4328 6.33833 6.33627 
39 1 11.4295 5.62724 4.33372 
40 1 10.7076 6.333 3.61474 
9 1 9.16824 0.783661 9.17215 
10 1 9.88546 0.0677546 9.885 
11 1 9.1695 2.07615 7.87886 
12 1 9.88308 2.79232 7.16281 
13 1 7.87697 0.781601 7.87881 
14 1 7.15641 0.0723231 7.16242 
15 1 7.87578 2.07408 9.16676 
16 1 7.16375 2.78749 9.88445 
17 1 9.16811 9.17191 0.776166 
18 1 9.8831 9.8854 0.0569626 
19 1 7.86586 9.17041 2.06954 
20 1 7.15375 9.88644 2.78841 
21 1 7.93281 7.87377 0.838057 
22 1 7.19427 7.27549 0.11745 
23 1 9.16985 7.86514 2.07217 
24 1 9.88293 7.14494 2.7907 
49 1 12.7163 12.7159 12.7194 
50 1 13.4321 13.4337 13.4327 
51 1 12.7169 11.4239 11.4239 
52 1 13.4306 10.7066 10.7104 
53 1 11.4303 11.4289 12.7272 
54 1 10.7029 10.7041 13.4214 
55 1 11.4237 12.7167 11.4239 
56 1 10.7071 13.4316 10.7106 
66 2 7.4033 8.74388 12.9833 
ITEM: TIMESTEP
40
ITEM: NUMBER OF ATOMS
67
ITEM: BOX BOUNDS pp pp pp
0.0000000000000000e+00 1.4190000000000000e+01
0.0000000000000000e+00 1.4190000000000000e+01
0.0000000000000000e+00 1.4190000000000000e+01
ITEM: ATOMS id type x y z 
57 1 2.07697 0.783919 2.0737 
58 1 2.79182 0.0681155 2.78874 
59 1 0.78423 0.784162 0.779185 
60 1 0.0677827 0.0680086 0.0653996 
61 1 0.782818 2.07579 2.07403 
62 1 0.0692383 2.79354 2.78879 
63 1 2.06945 2.07235 0.780638 
64 1 2.79073 2.78904 0.0709425 
41 1 4.33841 4.32768 12.7352 
42 1 3.61635 3.61013 13.4472 
43 1 4.33547 5.64459 11.4285 
44 1 3.61473 6.35409 10.7092 
45 1 5.56535 5.55203 12.6519 
46 1 6.2404 6.2827 13.3593 
47 1 5.64026 4.32788 11.4328 
48 1 6.3526 3.60981 10.7104 
25 1 4.3298 12.7172 4.32857 
26 1 3.61478 13.4329 3.61387 
27 1 5.62428 11.4252 4.33266 
28 1 6.3359 10.7092 3.61395 
29 1 5.62568 12.7156 5.62132 
30 1 6.3377 13.4334 6.33701 
31 1 4.32827 11.4234 5.62072 
32 1 3.61688 10.7075 6.33884 
1 1 0.78333 9.16874 9.17167 
2 1 0.0674799 9.88423 9.88625 
3 1 2.07149 7.87511 9.16577 
4 1 2.78948 7.1657 9.88561 
5 1 0.784172 7.87392 7.87888 
6 1 0.0670724 7.16079 7.16259 
7 1 2.07505 9.16955 7.87778 
8 1 2.79345 9.88342 7.16427 
65 2 6.36184 7.60447 13.4896 
67 3 6.7755 9.41002 13.152 
33 1 12.7154 4.3294 4.32823 
34 1 13.433 3.61641 3.61311 
35 1 11.4224 4.33062 5.62114 
36 1 10.7075 3.61564 6.33711 
37 1 12.7159 5.62514 5.62028 
38 1 13.4317 6.33907 6.33686 
39 1 11.4298 5.62515 4.33491 
40 1 10.7097 6.33311 3.61573 
9 1 9.16859 0.783958 9.17208 
10 1 9.88383 0.0676864 9.8866 
11 1 9.16905 2.07738 7.87972 
12 1 9.88367 2.79198 7.16289 
13 1 7.87495 0.78343 7.87924 
14 1 7.15925 0.0686909 7.16318 
15 1 7.87641 2.07222 9.16452 
16 1 7.1662 2.78902 9.88519 
17 1 9.16932 9.17442 0.775126 
18 1 9.88304 9.8855 0.0540651 
19 1 7.86412 9.1722 2.07033 
20 1 7.15265 9.88747 2.78967 
21 1 7.94149 7.87563 0.847326 
22 1 7.19241 7.28369 0.117405 
23 1 9.17025 7.86069 2.07309 
24 1 9.88516 7.14311 2.79244 
49 1 12.7162 12.7162 12.7195 
50 1 13.4324 13.4324 13.4335 
51 1 12.716 11.4231 11.4241 
52 1 13.4322 10.7083 10.71 
53 1 11.431 11.4295 12.7266 
54 1 10.7039 10.7051 13.4212 
55 1 11.4232 12.7161 11.4241 
56 1 10.7083 13.432 10.7098 
66 2 7.40445 8.75324 12.9796 
ITEM: TIMESTEP
50
ITEM: NUMBER OF ATOMS
67
ITEM: BOX BOUNDS pp pp pp
0.0000000000000000e+00 1.4190000000000000e+01
0.0000000000000000e+00 1.4190000000000000e+01
0.0000000000000000e+00 1.4190000000000000e+01
ITEM: ATOMS id type x y z 
57 1 2.07803 0.783317 2.07436 
58 1 2.79229 0.0675329 2.78943 
59 1 0.783545 0.783638 0.777885 
60 1 0.0673424 0.0674109 0.0647438 
61 1 0.783437 2.07834 2.07455 
62 1 0.0672064 2.79265 2.78944 
63 1 2.06904 2.07193 0.781713 
64 1 2.78999 2.78844 0.0714101 
41 1 4.3349 4.32335 12.7385 
42 1 3.61421 3.60743 13.4491 
43 1 4.33142 5.64794 11.4251 
44 1 3.61267 6.35607 10.7068 
45 1 5.56976 5.55505 12.6528 
46 1 6.238 6.2914 13.365 
47 1 5.64366 4.32347 11.4292 
48 1 6.3546 3.60693 10.7082 
25 1 4.32874 12.7178 4.32816 
26 1 3.61493 13.4335 3.61292 
27 1 5.62358 11.4255 4.33297 
28 1 6.33566 10.7095 3.61454 
29 1 5.62569 12.7171 5.62181 
30 1 6.33886 13.4331 6.33778 
31 1 4.32943 11.4221 5.62253 
32 1 3.61481 10.7075 6.33825 
1 1 0.782746 9.16961 9.17275 
2 1 0.0667662 9.88457 9.88689 
3 1 2.07032 7.87569 9.16558 
4 1 2.78985 7.1667 9.88468 
5 1 0.783236 7.87274 7.87833 
6 1 0.0668612 7.16007 7.16182 
7 1 2.07811 9.16955 7.87843 
8 1 2.7919 9.8846 7.16223 
65 2 6.362 7.59084 13.4935 
67 3 6.7755 9.41659 13.1494 
33 1 12.7168 4.32978 4.3272 
34 1 13.4327 3.61527 3.61246 
35 1 11.4212 4.32995 5.62138 
36 1 10.7071 3.61525 6.33781 
37 1 12.7161 5.62655 5.6208 
38 1 13.4324 6.33949 6.33739 
39 1 11.4291 5.6223 4.33562 
40 1 10.7113 6.33331 3.61661 
9 1 9.16923 0.783333 9.17334 
10 1 9.88439 0.0671467 9.88718 
11 1 9.16954 2.07858 7.87898 
12 1 9.88423 2.79286 7.16252 
13 1 7.8725 0.78369 7.87883 
14 1 7.15974 0.0674046 7.16229 
15 1 7.87751 2.07178 9.16386 
16 1 7.16686 2.78836 9.88456 
17 1 9.16871 9.17493 0.770689 
18 1 9.88479 9.88808 0.0559302 
19 1 7.86307 9.1745 2.07131 
20 1 7.15204 9.88886 2.7901 
21 1 7.93988 7.8749 0.846484 
22 1 7.19174 7.27952 0.11688 
23 1 9.17007 7.85507 2.07462 
24 1 9.88948 7.14495 2.7943 
49 1 12.7168 12.7168 12.7208 
50 1 13.433 13.433 13.4338 
51 1 12.7167 11.4227 11.4234 
52 1 13.4325 10.7077 10.7094 
53 1 11.4287 11.4276 12.7212 
54 1 10.7074 10.7079 13.4268 
55 1 11.4227 12.7167 11.4232 
56 1 10.7077 13.4327 10.7094 
66 2 7.4068 8.7591 12.976 
ITEM: TIMESTEP
60
ITEM: NUMBER OF ATOMS
67
ITEM: BOX BOUNDS pp pp pp
0.0000000000000000e+00 1.4190000000000000e+01
0.0000000000000000e+00 1.4190000000000000e+01
0.0000000000000000e+00 1.4190000000000000e+01
ITEM: ATOMS id type x y z 
57 1 2.0782 0.783228 2.07443 
58 1 2.7924 0.0674869 2.78951 
59 1 0.78346 0.783559 0.777725 
60 1 0.0672575 0.0673306 0.06465 
61 1 0.783297 2.07844 2.07468 
62 1 0.0671904 2.7928 2.78948 
63 1 2.06889 2.0719 0.782006 
64 1 2.78985 2.78819 0.071485 
41 1 4.33476 4.3231 12.7388 
42 1 3.61407 3.60713 13.4491 
43 1 4.33121 5.6482 11.4249 
44 1 3.61253 6.35633 10.7067 
45 1 5.56997 5.55517 12.6526 
46 1 6.23711 6.29233 13.3654 
47 1 5.64392 4.32316 11.429 
48 1 6.35484 3.60666 10.7081 
25 1 4.32876 12.718 4.32802 
26 1 3.61473 13.4335 3.61297 
27 1 5.62353 11.4253 4.33332 
28 1 6.3355 10.7098 3.61436 
29 1 5.62587 12.7171 5.62178 
30 1 6.33886 13.4331 6.33792 
31 1 4.32921 11.4221 5.62254 
32 1 3.61479 10.7074 6.33826 
1 1 0.782596 9.1697 9.17282 
2 1 0.0667555 9.8846 9.88707 
3 1 2.07014 7.87583 9.16544 
4 1 2.78976 7.1669 9.88449 
5 1 0.783111 7.87269 7.87821 
6 1 0.0667972 7.15984 7.16187 
7 1 2.07795 9.16975 7.87817 
8 1 2.79236 9.88454 7.1624 
65 2 6.3619 7.58858 13.4941 
67 3 6.77555 9.4177 13.149 
33 1 12.7169 4.32967 4.32711 
34 1 13.4328 3.61525 3.61234 
35 1 11.4213 4.32975 5.62148 
36 1 10.7068 3.61536 6.3378 
37 1 12.7161 5.6267 5.6209 
38 1 13.4325 6.33964 6.33733 
39 1 11.4296 5.62261 4.33589 
40 1 10.7111 6.33257 3.61667 
9 1 9.16935 0.783232 9.17343 
10 1 9.8844 0.0671414 9.88737 
11 1 9.16973 2.07864 7.87894 
12 1 9.88423 2.79302 7.16244 
13 1 7.87248 0.783571 7.87865 
14 1 7.15946 0.0674251 7.16234 
15 1 7.87775 2.0717 9.16364 
16 1 7.16701 2.78809 9.88442 
17 1 9.16844 9.17476 0.769942 
18 1 9.88509 9.88866 0.0565196 
19 1 7.86309 9.17456 2.07161 
20 1 7.15192 9.88925 2.78985 
21 1 7.94 7.87515 0.846733 
22 1 7.19184 7.2788 0.117014 
23 1 9.17056 7.85509 2.07489 
24 1 9.88943 7.14436 2.79441 
49 1 12.7169 12.7169 12.7209 
50 1 13.433 13.4331 13.4339 
51 1 12.7168 11.4226 11.4234 
52 1 13.4326 10.7077 10.7093 
53 1 11.4284 11.4272 12.7203 
54 1 10.7079 10.7084 13.4276 
55 1 11.4227 12.7168 11.4231 
56 1 10.7077 13.4327 10.7093 
66 2 7.40717 8.76018 12.9753 
ITEM: TIMESTEP
70
ITEM: NUMBER OF ATOMS
67
ITEM: BOX BOUNDS pp pp pp
0.0000000000000000e+00 1.4190000000000000e+01
0.0000000000000000e+00 1.4190000000000000e+01
0.0000000000000000e+00 1.4190000000000000e+01
ITEM: ATOMS id type x y z 
57 1 2.07823 0.783173 2.07442 
58 1 2.79242 0.0675051 2.78957 
59 1 0.78343 0.783528 0.777698 
60 1 0.0672487 0.06733 0.0645938 
61 1 0.783251 2.07845 2.07471 
62 1 0.0671877 2.79285 2.78948 
63 1 2.06885 2.07187 0.782074 
64 1 2.7898 2.78815 0.071514 
41 1 4.33472 4.32303 12.7389 
42 1 3.61406 3.60705 13.4492 
43 1 4.33118 5.64829 11.4249 
44 1 3.61248 6.35636 10.7067 
45 1 5.57001 5.55519 12.6525 
46 1 6.23686 6.29257 13.3655 
47 1 5.644 4.32308 11.429 
48 1 6.35489 3.60659 10.708 
25 1 4.32875 12.718 4.32798 
26 1 3.61471 13.4335 3.61298 
27 1 5.6235 11.4253 4.33337 
28 1 6.33547 10.7098 3.61436 
29 1 5.62591 12.7171 5.62178 
30 1 6.33883 13.4332 6.33794 
31 1 4.32918 11.4221 5.62254 
32 1 3.61481 10.7074 6.33831 
1 1 0.782577 9.1697 9.17289 
2 1 0.0667225 9.88465 9.88705 
3 1 2.07011 7.87589 9.16538 
4 1 2.7897 7.16693 9.88447 
5 1 0.78308 7.87263 7.8782 
6 1 0.0667965 7.15986 7.1618 
7 1 2.07797 9.16979 7.87815 
8 1 2.79237 9.88454 7.16235 
65 2 6.36186 7.58797 13.4942 
67 3 6.77557 9.418 13.1488 
33 1 12.7168 4.32962 4.32708 
34 1 13.4329 3.61526 3.61233 
35 1 11.4212 4.32971 5.62147 
36 1 10.7067 3.61537 6.33783 
37 1 12.7161 5.62675 5.62089 
38 1 13.4325 6.33963 6.33739 
39 1 11.4297 5.6225 4.3359 
40 1 10.7111 6.33256 3.61675 
9 1 9.16936 0.783205 9.17347 
10 1 9.88443 0.0671306 9.88739 
11 1 9.16973 2.07867 7.87889 
12 1 9.88428 2.79306 7.16247 
13 1 7.87244 0.783555 7.87862 
14 1 7.15945 0.0673909 7.16233 
15 1 7.87782 2.07167 9.16358 
16 1 7.16705 2.78803 9.88439 
17 1 9.16838 9.17473 0.769776 
18 1 9.88514 9.88877 0.0566185 
19 1 7.86308 9.17461 2.07163 
20 1 7.15191 9.88931 2.78983 
21 1 7.94001 7.87521 0.846788 
22 1 7.19189 7.27862 0.117082 
23 1 9.17056 7.8549 2.0749 
24 1 9.88954 7.14442 2.79449 
49 1 12.7169 12.717 12.7209 
50 1 13.433 13.4331 13.4339 
51 1 12.7168 11.4226 11.4234 
52 1 13.4326 10.7077 10.7092 
53 1 11.4283 11.4271 12.72 
54 1 10.7081 10.7086 13.4278 
55 1 11.4226 12.7168 11.4231 
56 1 10.7077 13.4327 10.7093 
66 2 7.40726 8.76048 12.9752 
ITEM: TIMESTEP
80
ITEM: NUMBER OF ATOMS
67
ITEM: BOX BOUNDS pp pp pp
0.0000000000000000e+00 1.4190000000000000e+01
0.0000000000000000e+00 1.4190000000000000e+01
0.0000000000000000e+00 1.4190000000000000e+01
ITEM: ATOMS id type x y z 
57 1 2.07824 0.783174 2.07442 
58 1 2.79242 0.0675033 2.78957 
59 1 0.783431 0.78353 0.777693 
60 1 0.0672462 0.0673272 0.0645966 
61 1 0.78325 2.07845 2.07471 
62 1 0.0671878 2.79285 2.78949 
63 1 2.06884 2.07187 0.782075 
64 1 2.7898 2.78815 0.0715181 
41 1 4.33472 4.32303 12.7389 
42 1 3.61406 3.60705 13.4492 
43 1 4.33118 5.64829 11.4249 
44 1 3.61248 6.35635 10.7067 
45 1 5.57001 5.55519 12.6525 
46 1 6.23685 6.29257 13.3655 
47 1 5.644 4.32308 11.429 
48 1 6.35489 3.60659 10.708 
25 1 4.32875 12.718 4.32798 
26 1 3.61471 13.4335 3.61298 
27 1 5.6235 11.4253 4.33337 
28 1 6.33546 10.7098 3.61436 
29 1 5.62592 12.7171 5.62178 
30 1 6.33882 13.4332 6.33795 
31 1 4.32918 11.4221 5.62254 
32 1 3.61481 10.7074 6.33831 
1 1 0.782576 9.1697 9.17288 
2 1 0.0667229 9.88464 9.88705 
3 1 2.07011 7.87589 9.16538 
4 1 2.78971 7.16694 9.88447 
5 1 0.78308 7.87263 7.8782 
6 1 0.0667958 7.15986 7.1618 
7 1 2.07797 9.16979 7.87815 
8 1 2.79237 9.88454 7.16235 
65 2 6.36186 7.58795 13.4942 
67 3 6.77557 9.41801 13.1488 
33 1 12.7168 4.32962 4.32708 
34 1 13.4329 3.61526 3.61233 
35 1 11.4212 4.32971 5.62147 
36 1 10.7067 3.61537 6.33783 
37 1 12.7161 5.62675 5.62089 
38 1 13.4325 6.33963 6.3374 
39 1 11.4297 5.6225 4.3359 
40 1 10.7111 6.33256 3.61674 
9 1 9.16936 0.783204 9.17347 
10 1 9.88443 0.0671305 9.88739 
11 1 9.16974 2.07867 7.87888 
12 1 9.88427 2.79306 7.16247 
13 1 7.87245 0.783552 7.87862 
14 1 7.15944 0.0673927 7.16233 
15 1 7.87782 2.07167 9.16357 
16 1 7.16705 2.78803 9.88439 
17 1 9.16837 9.17473 0.769768 
18 1 9.88514 9.88877 0.0566252 
19 1 7.86308 9.17461 2.07163 
20 1 7.15191 9.88932 2.78984 
21 1 7.94002 7.87521 0.84679 
22 1 7.19189 7.27861 0.117085 
23 1 9.17056 7.8549 2.0749 
24 1 9.88955 7.14441 2.79449 
49 1 12.7169 12.717 12.7209 
50 1 13.433 13.4331 13.4339 
51 1 12.7168 11.4226 11.4234 
52 1 13.4326 10.7077 10.7092 
53 1 11.4283 11.4271 12.72 
54 1 10.7081 10.7086 13.4279 
55 1 11.4226 12.7168 11.4231 
56 1 10.7077 13.4327 10.7093 
66 2 7.40727 8.76049 12.9752 
ITEM: TIMESTEP
82
ITEM: NUMBER OF ATOMS
67
ITEM: BOX BOUNDS pp pp pp
0.0000000000000000e+00 1.4190000000000000e+01
0.0000000000000000e+00 1.4190000000000000e+01
0.0000000000000000e+00 1.4190000000000000e+01
ITEM: ATOMS id type x y z 
57 1 2.07824 0.783174 2.07442 
58 1 2.79242 0.067503 2.78957 
59 1 0.783431 0.78353 0.777693 
60 1 0.0672461 0.0673273 0.0645965 
61 1 0.78325 2.07845 2.07471 
62 1 0.0671878 2.79285 2.78949 
63 1 2.06884 2.07187 0.782075 
64 1 2.7898 2.78815 0.0715179 
41 1 4.33472 4.32303 12.7389 
42 1 3.61406 3.60705 13.4492 
43 1 4.33118 5.64829 11.4249 
44 1 3.61248 6.35636 10.7067 
45 1 5.57001 5.55519 12.6525 
46 1 6.23685 6.29257 13.3655 
47 1 5.644 4.32308 11.429 
48 1 6.35489 3.60659 10.708 
25 1 4.32875 12.718 4.32798 
26 1 3.61471 13.4335 3.61298 
27 1 5.6235 11.4253 4.33337 
28 1 6.33546 10.7098 3.61436 
29 1 5.62592 12.7171 5.62178 
30 1 6.33882 13.4332 6.33795 
31 1 4.32918 11.4221 5.62254 
32 1 3.61481 10.7074 6.33831 
1 1 0.782576 9.1697 9.17288 
2 1 0.0667228 9.88464 9.88705 
3 1 2.07011 7.87589 9.16538 
4 1 2.78971 7.16694 9.88447 
5 1 0.78308 7.87263 7.8782 
6 1 0.0667961 7.15986 7.1618 
7 1 2.07797 9.16979 7.87815 
8 1 2.79237 9.88454 7.16235 
65 2 6.36186 7.58795 13.4942 
67 3 6.77557 9.41801 13.1488 
33 1 12.7168 4.32962 4.32708 
34 1 13.4329 3.61526 3.61233 
35 1 11.4212 4.32971 5.62147 
36 1 10.7067 3.61537 6.33783 
37 1 12.7161 5.62675 5.62089 
38 1 13.4325 6.33963 6.3374 
39 1 11.4297 5.6225 4.3359 
40 1 10.7111 6.33256 3.61674 
9 1 9.16936 0.783204 9.17347 
10 1 9.88443 0.0671305 9.88739 
11 1 9.16974 2.07867 7.87888 
12 1 9.88427 2.79306 7.16247 
13 1 7.87245 0.783552 7.87862 
14 1 7.15944 0.0673928 7.16233 
15 1 7.87782 2.07167 9.16357 
16 1 7.16705 2.78803 9.88439 
17 1 9.16837 9.17473 0.769768 
18 1 9.88514 9.88877 0.0566249 
19 1 7.86308 9.17461 2.07163 
20 1 7.15191 9.88932 2.78984 
21 1 7.94002 7.87521 0.84679 
22 1 7.19189 7.27861 0.117085 
23 1 9.17056 7.8549 2.0749 
24 1 9.88954 7.14441 2.79449 
49 1 12.7169 12.717 12.7209 
50 1 13.433 13.4331 13.4339 
51 1 12.7168 11.4226 11.4234 
52 1 13.4326 10.7077 10.7092 
53 1 11.4283 11.4271 12.72 
54 1 10.7081 10.7086 13.4279 
55 1 11.4226 12.7168 11.4231 
56 1 10.7077 13.4327 10.7093 
66 2 7.40727 8.76049 12.9752 
ITEM: TIMESTEP
90
ITEM: NUMBER OF ATOMS
67
ITEM: BOX BOUNDS pp pp pp
5.6760000000000005e-03 1.4184324000000005e+01
5.3756937395507340e-03 1.4184624306260448e+01
5.6130682259289844e-03 1.4184386931774071e+01
ITEM: ATOMS id type x y z 
57 1 2.08224 0.787965 2.07839 
58 1 2.79587 0.0728124 2.79299 
59 1 0.78849 0.788319 0.782699 
60 1 0.0728514 0.0726394 0.0701436 
61 1 0.788308 2.08225 2.07867 
62 1 0.072796 2.79613 2.79291 
63 1 2.07285 2.07567 0.787081 
64 1 2.79326 2.79142 0.0770605 
41 1 4.33694 4.32514 12.7344 
42 1 3.61683 3.60967 13.4442 
43 1 4.33341 5.64938 11.4214 
44 1 3.61524 6.35694 10.7038 
45 1 5.57121 5.55633 12.6481 
46 1 6.23756 6.29322 13.3605 
47 1 5.64515 4.32519 11.4255 
48 1 6.35551 3.60921 10.7051 
25 1 4.33097 12.7137 4.33018 
26 1 3.61748 13.4287 3.61571 
27 1 5.62467 11.4221 4.33556 
28 1 6.33608 10.7071 3.6171 
29 1 5.62709 12.7129 5.62293 
30 1 6.33944 13.4284 6.33856 
31 1 4.3314 11.4188 5.6237 
32 1 3.61758 10.7046 6.33893 
1 1 0.787635 9.16812 9.17123 
2 1 0.0723286 9.88254 9.88486 
3 1 2.07412 7.87531 9.16373 
4 1 2.79317 7.16688 9.88227 
5 1 0.788138 7.87205 7.87759 
6 1 0.0724026 7.1598 7.16174 
7 1 2.08198 9.16821 7.87754 
8 1 2.79583 9.88244 7.16228 
65 2 6.36245 7.58756 13.4892 
67 3 6.77582 9.41626 13.144 
33 1 12.7123 4.33173 4.32927 
34 1 13.4278 3.61788 3.61507 
35 1 11.4178 4.33182 5.62262 
36 1 10.7038 3.61799 6.33844 
37 1 12.7116 5.62786 5.62205 
38 1 13.4275 6.34021 6.33801 
39 1 11.4262 5.6236 4.3381 
40 1 10.7082 6.33315 3.61948 
9 1 9.16769 0.787995 9.17182 
10 1 9.88221 0.0724403 9.8852 
11 1 9.16807 2.08246 7.87827 
12 1 9.88206 2.79634 7.1624 
13 1 7.87184 0.78834 7.87801 
14 1 7.15937 0.0727069 7.16226 
15 1 7.87721 2.07546 9.16193 
16 1 7.16698 2.79131 9.88219 
17 1 9.1667 9.17314 0.77478 
18 1 9.88293 9.88667 0.0621752 
19 1 7.86248 9.17303 2.07559 
20 1 7.15185 9.88722 2.79326 
21 1 7.93934 7.87462 0.851735 
22 1 7.19182 7.27847 0.12261 
23 1 9.16889 7.85433 2.07886 
24 1 9.88733 7.14435 2.79791 
49 1 12.7124 12.7127 12.7165 
50 1 13.4279 13.4283 13.4289 
51 1 12.7123 11.4193 11.4199 
52 1 13.4276 10.705 10.7063 
53 1 11.4249 11.4238 12.7156 
54 1 10.7052 10.7058 13.4229 
55 1 11.4192 12.7125 11.4197 
56 1 10.7048 13.4279 10.7064 
66 2 7.40702 8.75924 12.9705 
ITEM: TIMESTEP
100
ITEM: NUMBER OF ATOMS
67
ITEM: BOX BOUNDS pp pp pp
1.2770999999999998e-02 1.4177229000000013e+01
9.4532037889236507e-03 1.4180546796211075e+01
1.2032775551491777e-02 1.4177967224448508e+01
ITEM: ATOMS id type x y z 
57 1 2.08705 0.791815 2.08271 
58 1 2.80051 0.0765077 2.79723 
59 1 0.795027 0.792168 0.788629 
60 1 0.0795291 0.0763425 0.076161 
61 1 0.794843 2.08491 2.08299 
62 1 0.0794848 2.79896 2.79714 
63 1 2.07764 2.07832 0.793034 
64 1 2.79786 2.7942 0.0831036 
41 1 4.34002 4.32703 12.729 
42 1 3.61984 3.61121 13.4389 
43 1 4.33648 5.64994 11.4178 
44 1 3.61826 6.35784 10.7001 
45 1 5.57231 5.55673 12.6425 
46 1 6.23878 6.29424 13.3554 
47 1 5.64632 4.32708 11.422 
48 1 6.35675 3.61073 10.7014 
25 1 4.33396 12.7102 4.33291 
26 1 3.62063 13.4254 3.61852 
27 1 5.62591 11.4198 4.33829 
28 1 6.33714 10.7047 3.61993 
29 1 5.62833 12.7094 5.62404 
30 1 6.34054 13.4251 6.33959 
31 1 4.33439 11.4166 5.6248 
32 1 3.62072 10.7022 6.33996 
1 1 0.794171 9.16671 9.16913 
2 1 0.0790073 9.88127 9.88267 
3 1 2.0789 7.87509 9.16162 
4 1 2.79779 7.16653 9.88005 
5 1 0.794677 7.87182 7.8771 
6 1 0.0790823 7.15942 7.16134 
7 1 2.08678 9.1668 7.87706 
8 1 2.80047 9.88117 7.16187 
65 2 6.36317 7.5871 13.4834 
67 3 6.77614 9.41504 13.1385 
33 1 12.7065 4.33354 4.33199 
34 1 13.4218 3.61953 3.61788 
35 1 11.4137 4.33363 5.62373 
36 1 10.6999 3.61964 6.33946 
37 1 12.7058 5.62848 5.62316 
38 1 13.4215 6.34099 6.33902 
39 1 11.4221 5.62421 4.34084 
40 1 10.7043 6.33389 3.62231 
9 1 9.1654 0.791848 9.16973 
10 1 9.87977 0.0761372 9.883 
11 1 9.16577 2.08512 7.87779 
12 1 9.87961 2.79916 7.162 
13 1 7.87127 0.792191 7.87752 
14 1 7.15896 0.0764112 7.16185 
15 1 7.87667 2.07811 9.15981 
16 1 7.1666 2.79408 9.87997 
17 1 9.1643 9.17164 0.780723 
18 1 9.88056 9.88551 0.0681425 
19 1 7.86197 9.17156 2.07983 
20 1 7.15138 9.88604 2.79758 
21 1 7.9385 7.87417 0.857403 
22 1 7.19173 7.2783 0.12893 
23 1 9.16651 7.85416 2.08309 
24 1 9.88499 7.14385 2.80227 
49 1 12.7066 12.7092 12.7111 
50 1 13.422 13.425 13.4235 
51 1 12.7064 11.4171 11.4163 
52 1 13.4216 10.7025 10.7027 
53 1 11.4207 11.4215 12.7102 
54 1 10.7013 10.7035 13.4176 
55 1 11.4151 12.709 11.416 
56 1 10.7008 13.4246 10.7028 
66 2 7.40675 8.75839 12.9651 
ITEM: TIMESTEP
110
ITEM: NUMBER OF ATOMS
67
ITEM: BOX BOUNDS pp pp pp
1.9865999999999984e-02 1.4170134000000020e+01
1.3032668436145325e-02 1.4176967331563855e+01
1.8405579670684818e-02 1.4171594420329317e+01
ITEM: ATOMS id type x y z 
57 1 2.09173 0.795339 2.08688 
58 1 2.80531 0.0795594 2.80159 
59 1 0.80168 0.795694 0.794632 
60 1 0.0860618 0.0793932 0.081978 
61 1 0.801498 2.08711 2.08716 
62 1 0.0860178 2.80162 2.8015 
63 1 2.08231 2.08052 0.79905 
64 1 2.80261 2.79679 0.0889926 
41 1 4.34322 4.32884 12.7236 
42 1 3.6227 3.61235 13.4338 
43 1 4.33967 5.6503 11.4144 
44 1 3.62113 6.35885 10.6962 
45 1 5.57348 5.55708 12.6371 
46 1 6.23995 6.29522 13.3503 
47 1 5.64739 4.32889 11.4185 
48 1 6.35812 3.61186 10.6975 
25 1 4.33706 12.7071 4.33574 
26 1 3.62362 13.4227 3.62116 
27 1 5.62705 11.4179 4.34112 
28 1 6.33834 10.7024 3.62261 
29 1 5.62946 12.7062 5.62501 
30 1 6.34178 13.4224 6.34077 
31 1 4.3375 11.4147 5.62578 
32 1 3.62371 10.6999 6.34113 
1 1 0.800823 9.16533 9.16693 
2 1 0.0855414 9.88036 9.88065 
3 1 2.08357 7.87503 9.15941 
4 1 2.80252 7.16609 9.87797 
5 1 0.801332 7.87176 7.87674 
6 1 0.0856157 7.15889 7.16079 
7 1 2.09146 9.16541 7.87669 
8 1 2.80526 9.88026 7.16132 
65 2 6.36387 7.58658 13.4778 
67 3 6.77646 9.41403 13.133 
33 1 12.7005 4.33528 4.33481 
34 1 13.416 3.62079 3.62051 
35 1 11.4097 4.33537 5.62471 
36 1 10.6958 3.62091 6.34063 
37 1 12.6998 5.6289 5.62414 
38 1 13.4156 6.34187 6.3402 
39 1 11.4181 5.62461 4.34368 
40 1 10.7002 6.33469 3.62501 
9 1 9.16298 0.795375 9.16753 
10 1 9.87747 0.0791908 9.88099 
11 1 9.16335 2.08732 7.87743 
12 1 9.87731 2.80183 7.16145 
13 1 7.87082 0.795721 7.87716 
14 1 7.1584 0.0794619 7.1613 
15 1 7.87623 2.0803 9.15758 
16 1 7.16612 2.79666 9.87791 
17 1 9.16178 9.17017 0.786723 
18 1 9.87835 9.88469 0.0739211 
19 1 7.86159 9.17013 2.08392 
20 1 7.15075 9.88521 2.80201 
21 1 7.93774 7.87385 0.863114 
22 1 7.19153 7.27802 0.13509 
23 1 9.16403 7.85413 2.0872 
24 1 9.88279 7.14321 2.80673 
49 1 12.7006 12.7061 12.7058 
50 1 13.4161 13.4222 13.4183 
51 1 12.7005 11.4152 11.4127 
52 1 13.4157 10.7002 10.699 
53 1 11.4167 11.4196 12.7047 
54 1 10.6973 10.7013 13.4125 
55 1 11.4111 12.7059 11.4125 
56 1 10.6967 13.4219 10.6991 
66 2 7.40649 8.75769 12.9598 
ITEM: TIMESTEP
120
ITEM: NUMBER OF ATOMS
67
ITEM: BOX BOUNDS pp pp pp
2.6960999999999968e-02 1.4163039000000028e+01
1.6795860543345396e-02 1.4173204139456654e+01
2.4843751491003097e-02 1.4165156248509001e+01
ITEM: ATOMS id type x y z 
57 1 2.09639 0.799055 2.09107 
58 1 2.81012 0.0827818 2.80601 
59 1 0.808361 0.799413 0.800722 
60 1 0.0925832 0.0826151 0.0878494 
61 1 0.808183 2.08941 2.09135 
62 1 0.0925401 2.80441 2.80592 
63 1 2.08694 2.08279 0.805143 
64 1 2.80738 2.79952 0.0949655 
41 1 4.34641 4.33072 12.7181 
42 1 3.62559 3.6136 13.4286 
43 1 4.34287 5.65068 11.4109 
44 1 3.62402 6.35985 10.6923 
45 1 5.57468 5.55752 12.6316 
46 1 6.24109 6.2962 13.3451 
47 1 5.64845 4.33076 11.415 
48 1 6.35946 3.6131 10.6937 
25 1 4.3402 12.7037 4.33863 
26 1 3.6266 13.4198 3.62382 
27 1 5.62815 11.416 4.344 
28 1 6.33956 10.7001 3.62532 
29 1 5.63057 12.7029 5.62597 
30 1 6.34303 13.4195 6.34196 
31 1 4.34063 11.4128 5.62674 
32 1 3.62669 10.6975 6.34232 
1 1 0.807503 9.16386 9.16468 
2 1 0.0920642 9.87939 9.87862 
3 1 2.08821 7.87499 9.15715 
4 1 2.80727 7.16562 9.87588 
5 1 0.808016 7.87171 7.87641 
6 1 0.0921381 7.15835 7.16022 