
     Program PWSCF v.7.1 starts on 25May2025 at  0:10: 5 

     This program is part of the open-source Quantum ESPRESSO suite
     for quantum simulation of materials; please cite
         "P. Giannozzi et al., J. Phys.:Condens. Matter 21 395502 (2009);
         "P. Giannozzi et al., J. Phys.:Condens. Matter 29 465901 (2017);
         "P. Giannozzi et al., J. Chem. Phys. 152 154105 (2020);
          URL http://www.quantum-espresso.org", 
     in publications or presentations arising from this work. More details at
     http://www.quantum-espresso.org/quote

     Parallel version (MPI), running on    16 processors

     MPI processes distributed on     1 nodes
     246530 MiB available memory on the printing compute node when the environment starts

     Reading input from input.pwi
Warning: card &CELL ignored
Warning: card / ignored
Warning: card &FCP ignored
Warning: card / ignored
Warning: card &RISM ignored
Warning: card / ignored

     Current dimensions of program PWSCF are:
     Max number of different atomic species (ntypx) = 10
     Max number of k-points (npk) =  40000
     Max angular momentum in pseudopotentials (lmaxx) =  4
     file C.pbe-n-kjpaw_psl.1.0.0.UPF: wavefunction(s)  2S 2P renormalized
     file O.pbe-n-kjpaw_psl.0.1.UPF: wavefunction(s)  2P renormalized

     IMPORTANT: XC functional enforced from input :
     Exchange-correlation= PBE
                           (   1   4   3   4   0   0   0)
     Any further DFT definition will be discarded
     Please, verify this is what you really want


     gamma-point specific algorithms are used
     Message from routine  set_nelup_neldw :
     BEWARE: non-integer number of up and down electrons!

     R & G space division:  proc/nbgrp/npool/nimage =      16
     Subspace diagonalization in iterative solution of the eigenvalue problem:
     a serial algorithm will be used


     Parallelization info
     --------------------
     sticks:   dense  smooth     PW     G-vecs:    dense   smooth      PW
     Min         858     428    106                75870    26832    3354
     Max         860     430    108                75880    26846    3360
     Sum       13753    6869   1725              1214029   429409   53715

     Using Slab Decomposition



     bravais-lattice index     =            0
     lattice parameter (alat)  =      20.7870  a.u.
     unit-cell volume          =    8983.6663 (a.u.)^3
     number of atoms/cell      =           50
     number of atomic types    =            3
     number of electrons       =       199.00 (up:  99.50, down:  99.50)
     number of Kohn-Sham states=          119
     kinetic-energy cutoff     =      50.0000  Ry
     charge density cutoff     =     400.0000  Ry
     scf convergence threshold =      1.0E-06
     mixing beta               =       0.3000
     number of iterations used =            8  plain     mixing
     energy convergence thresh.=      1.0E-04
     force convergence thresh. =      1.0E-03
     Exchange-correlation= PBE
                           (   1   4   3   4   0   0   0)
     nstep                     =         1000


     celldm(1)=  20.786987  celldm(2)=   0.000000  celldm(3)=   0.000000
     celldm(4)=   0.000000  celldm(5)=   0.000000  celldm(6)=   0.000000

     crystal axes: (cart. coord. in units of alat)
               a(1) = (   1.000000   0.000000   0.000000 )  
               a(2) = (   0.000000   1.000182   0.000000 )  
               a(3) = (   0.000000   0.000000   1.000000 )  

     reciprocal axes: (cart. coord. in units 2 pi/alat)
               b(1) = (  1.000000  0.000000  0.000000 )  
               b(2) = (  0.000000  0.999818  0.000000 )  
               b(3) = (  0.000000  0.000000  1.000000 )  


     PseudoPot. # 1 for C  read from file:
     /home/ana.bisette/espresso/pseudo/C.pbe-n-kjpaw_psl.1.0.0.UPF
     MD5 check sum: 5d2aebdfa2cae82b50a7e79e9516da0f
     Pseudo is Projector augmented-wave + core cor, Zval =  4.0
     Generated using "atomic" code by A. Dal Corso  v.5.1
     Shape of augmentation charge: PSQ
     Using radial grid of 1073 points,  4 beta functions with: 
                l(1) =   0
                l(2) =   0
                l(3) =   1
                l(4) =   1
     Q(r) pseudized with 0 coefficients 


     PseudoPot. # 2 for O  read from file:
     /home/ana.bisette/espresso/pseudo/O.pbe-n-kjpaw_psl.0.1.UPF
     MD5 check sum: 0234752ac141de4415c5fc33072bef88
     Pseudo is Projector augmented-wave + core cor, Zval =  6.0
     Generated using "atomic" code by A. Dal Corso  v.5.0.99 svn rev. 10869
     Shape of augmentation charge: BESSEL
     Using radial grid of 1095 points,  4 beta functions with: 
                l(1) =   0
                l(2) =   0
                l(3) =   1
                l(4) =   1
     Q(r) pseudized with 0 coefficients 


     PseudoPot. # 3 for H  read from file:
     /home/ana.bisette/espresso/pseudo/H.pbe-rrkjus_psl.1.0.0.UPF
     MD5 check sum: f52b6d4d1c606e5624b1dc7b2218f220
     Pseudo is Ultrasoft, Zval =  1.0
     Generated using "atomic" code by A. Dal Corso  v.5.1
     Using radial grid of  929 points,  2 beta functions with: 
                l(1) =   0
                l(2) =   0
     Q(r) pseudized with 0 coefficients 


     atomic species   valence    mass     pseudopotential
        C              4.00    12.01100     C ( 1.00)
        O              6.00    15.99900     O ( 1.00)
        H              1.00     1.00800     H ( 1.00)

     Starting magnetic structure 
     atomic species   magnetization
        C            0.000
        O            0.000
        H            0.000

     No symmetry found



   Cartesian axes

     site n.     atom                  positions (alat units)
         1           C   tau(   1) = (   0.5607273   0.4189091   0.5608182  )
         2           C   tau(   2) = (   0.6985455   0.2805455   0.6985455  )
         3           C   tau(   3) = (   0.6340000   0.3453636   0.6340000  )
         4           C   tau(   4) = (   0.4189091   0.5608182   0.5608182  )
         5           C   tau(   5) = (   0.2805455   0.6985455   0.6985455  )
         6           C   tau(   6) = (   0.3453636   0.6340000   0.6340000  )
         7           C   tau(   7) = (   0.5608182   0.5608182   0.4189091  )
         8           C   tau(   8) = (   0.6985455   0.6985455   0.2805455  )
         9           C   tau(   9) = (   0.6340000   0.6340000   0.3453636  )
        10           C   tau(  10) = (   0.4184545   0.4184545   0.4184545  )
        11           C   tau(  11) = (   0.2804545   0.2804545   0.2804545  )
        12           C   tau(  12) = (   0.3450909   0.3450909   0.3450909  )
        13           C   tau(  13) = (   0.5659091   0.4132727   0.4132727  )
        14           C   tau(  14) = (   0.7058182   0.2739091   0.2739091  )
        15           C   tau(  15) = (   0.6411818   0.3382727   0.3383636  )
        16           C   tau(  16) = (   0.4132727   0.5659091   0.4132727  )
        17           C   tau(  17) = (   0.2739091   0.7059091   0.2739091  )
        18           C   tau(  18) = (   0.3382727   0.6411818   0.3383636  )
        19           C   tau(  19) = (   0.4132727   0.4131818   0.5660000  )
        20           C   tau(  20) = (   0.2739091   0.2739091   0.7058182  )
        21           C   tau(  21) = (   0.3382727   0.3382727   0.6411818  )
        22           C   tau(  22) = (   0.5662727   0.5662727   0.5662727  )
        23           C   tau(  23) = (   0.7058182   0.7059091   0.7059091  )
        24           C   tau(  24) = (   0.6413636   0.6414545   0.6413636  )
        25           C   tau(  25) = (   0.0607273   0.9184545   0.0607273  )
        26           C   tau(  26) = (   0.1989091   0.7808182   0.1989091  )
        27           C   tau(  27) = (   0.1341818   0.8452727   0.1341818  )
        28           C   tau(  28) = (   0.9183636   0.0606364   0.0607273  )
        29           C   tau(  29) = (   0.7808182   0.1988182   0.1989091  )
        30           C   tau(  30) = (   0.8452727   0.1340909   0.1341818  )
        31           C   tau(  31) = (   0.0607273   0.0606364   0.9184545  )
        32           C   tau(  32) = (   0.1988182   0.1988182   0.7808182  )
        33           C   tau(  33) = (   0.1341818   0.1340909   0.8452727  )
        34           C   tau(  34) = (   0.9189091   0.9189091   0.9188182  )
        35           C   tau(  35) = (   0.7809091   0.7809091   0.7809091  )
        36           C   tau(  36) = (   0.8455455   0.8455455   0.8454545  )
        37           C   tau(  37) = (   0.0662727   0.9132727   0.9132727  )
        38           C   tau(  38) = (   0.2053636   0.7735455   0.7734545  )
        39           C   tau(  39) = (   0.1410909   0.8380909   0.8380909  )
        40           C   tau(  40) = (   0.9131818   0.0661818   0.9132727  )
        41           C   tau(  41) = (   0.7734545   0.2053636   0.7734545  )
        42           C   tau(  42) = (   0.8380000   0.1410000   0.8380000  )
        43           C   tau(  43) = (   0.9132727   0.9133636   0.0662727  )
        44           C   tau(  44) = (   0.7734545   0.7735455   0.2053636  )
        45           C   tau(  45) = (   0.8380909   0.8380909   0.1410909  )
        46           C   tau(  46) = (   0.0660000   0.0659091   0.0659091  )
        47           C   tau(  47) = (   0.2054545   0.2053636   0.2054545  )
        48           C   tau(  48) = (   0.1410000   0.1409091   0.1409091  )
        49           O   tau(  49) = (   0.5319091   0.5522727   0.6832727  )
        50           H   tau(  50) = (   0.5319091   0.5522727   0.7720000  )

     number of k points=     1  Gaussian smearing, width (Ry)=  0.0001
                       cart. coord. in units 2pi/alat
        k(    1) = (   0.0000000   0.0000000   0.0000000), wk =   1.0000000

     Dense  grid:   607015 G-vectors     FFT dimensions: ( 135, 135, 135)

     Smooth grid:   214705 G-vectors     FFT dimensions: (  96,  96,  96)

     Estimated max dynamical RAM per process >     175.34 MB

     Estimated total dynamical RAM >       2.74 GB

     Check: negative core charge=   -0.000004
     Generating pointlists ...
     new r_m :   0.0461 (alat units)  0.9573 (a.u.) for type    1
     new r_m :   0.0366 (alat units)  0.7608 (a.u.) for type    2
     new r_m :   0.0366 (alat units)  0.7608 (a.u.) for type    3

     Initial potential from superposition of free atoms

     starting charge     198.9980, renormalised to     199.0000
     Starting wfcs are  197 randomized atomic wfcs
     Checking if some PAW data can be deallocated... 

     total cpu time spent up to now is        3.2 secs

     Self-consistent Calculation

     iteration #  1     ecut=    50.00 Ry     beta= 0.30
     Davidson diagonalization with overlap
     ethr =  1.00E-02,  avg # of iterations =  2.0

     total cpu time spent up to now is        5.6 secs

     total energy              =    -924.33004317 Ry
     estimated scf accuracy    <       5.48521330 Ry

     total magnetization       =     0.00 Bohr mag/cell
     absolute magnetization    =     0.07 Bohr mag/cell

     iteration #  2     ecut=    50.00 Ry     beta= 0.30
     Davidson diagonalization with overlap
     ethr =  2.76E-03,  avg # of iterations =  1.0

     negative rho (up, down):  3.438E-07 3.478E-07

     total cpu time spent up to now is        7.5 secs

     total energy              =    -923.46273423 Ry
     estimated scf accuracy    <       1.89614708 Ry

     total magnetization       =     0.00 Bohr mag/cell
     absolute magnetization    =     0.05 Bohr mag/cell

     iteration #  3     ecut=    50.00 Ry     beta= 0.30
     Davidson diagonalization with overlap
     ethr =  9.53E-04,  avg # of iterations =  3.0

     negative rho (up, down):  7.313E-07 7.397E-07

     total cpu time spent up to now is        9.9 secs

     total energy              =    -923.82261115 Ry
     estimated scf accuracy    <       0.33360392 Ry

     total magnetization       =     0.00 Bohr mag/cell
     absolute magnetization    =     0.03 Bohr mag/cell

     iteration #  4     ecut=    50.00 Ry     beta= 0.30
     Davidson diagonalization with overlap
     ethr =  1.68E-04,  avg # of iterations = 12.0

     negative rho (up, down):  5.964E-07 6.008E-07

     total cpu time spent up to now is       12.4 secs

     total energy              =    -923.81289305 Ry
     estimated scf accuracy    <       0.12584741 Ry

     total magnetization       =    -0.00 Bohr mag/cell
     absolute magnetization    =     0.02 Bohr mag/cell

     iteration #  5     ecut=    50.00 Ry     beta= 0.30
     Davidson diagonalization with overlap
     ethr =  6.32E-05,  avg # of iterations =  2.0

     negative rho (up, down):  6.820E-07 6.835E-07

     total cpu time spent up to now is       14.4 secs

     total energy              =    -923.80346202 Ry
     estimated scf accuracy    <       0.05615678 Ry

     total magnetization       =    -0.00 Bohr mag/cell
     absolute magnetization    =     0.02 Bohr mag/cell

     iteration #  6     ecut=    50.00 Ry     beta= 0.30
     Davidson diagonalization with overlap
     ethr =  2.82E-05,  avg # of iterations = 12.0

     negative rho (up, down):  7.558E-07 7.567E-07

     total cpu time spent up to now is       17.2 secs

     total energy              =    -923.81969235 Ry
     estimated scf accuracy    <       0.17793400 Ry

     total magnetization       =    -0.00 Bohr mag/cell
     absolute magnetization    =     0.01 Bohr mag/cell

     iteration #  7     ecut=    50.00 Ry     beta= 0.30
     Davidson diagonalization with overlap
     ethr =  2.82E-05,  avg # of iterations =  3.0

     negative rho (up, down):  1.015E-06 1.016E-06

     total cpu time spent up to now is       19.2 secs

     total energy              =    -923.80035649 Ry
     estimated scf accuracy    <       0.09146481 Ry

     total magnetization       =     0.00 Bohr mag/cell
     absolute magnetization    =     0.01 Bohr mag/cell

     iteration #  8     ecut=    50.00 Ry     beta= 0.30
     Davidson diagonalization with overlap
     ethr =  2.82E-05,  avg # of iterations =  9.0

     negative rho (up, down):  1.167E-06 1.168E-06

     total cpu time spent up to now is       21.6 secs

     total energy              =    -923.81943033 Ry
     estimated scf accuracy    <       0.03836986 Ry

     total magnetization       =     0.00 Bohr mag/cell
     absolute magnetization    =     0.01 Bohr mag/cell

     iteration #  9     ecut=    50.00 Ry     beta= 0.30
     Davidson diagonalization with overlap
     ethr =  1.93E-05,  avg # of iterations =  2.0

     negative rho (up, down):  1.254E-06 1.255E-06

     total cpu time spent up to now is       23.7 secs

     total energy              =    -923.81578245 Ry
     estimated scf accuracy    <       0.02180535 Ry

     total magnetization       =     0.00 Bohr mag/cell
     absolute magnetization    =     0.01 Bohr mag/cell

     iteration # 10     ecut=    50.00 Ry     beta= 0.30
     Davidson diagonalization with overlap
     ethr =  1.10E-05,  avg # of iterations = 11.0

     negative rho (up, down):  1.252E-06 1.252E-06

     total cpu time spent up to now is       26.1 secs

     total energy              =    -923.81441310 Ry
     estimated scf accuracy    <       0.03724053 Ry

     total magnetization       =    -0.00 Bohr mag/cell
     absolute magnetization    =     0.01 Bohr mag/cell

     iteration # 11     ecut=    50.00 Ry     beta= 0.30
     Davidson diagonalization with overlap
     ethr =  1.10E-05,  avg # of iterations =  1.0

     negative rho (up, down):  1.269E-06 1.268E-06

     total cpu time spent up to now is       28.0 secs

     total energy              =    -923.81772314 Ry
     estimated scf accuracy    <       0.01423302 Ry

     total magnetization       =    -0.00 Bohr mag/cell
     absolute magnetization    =     0.01 Bohr mag/cell

     iteration # 12     ecut=    50.00 Ry     beta= 0.30
     Davidson diagonalization with overlap
     ethr =  7.15E-06,  avg # of iterations =  1.0

     negative rho (up, down):  1.271E-06 1.271E-06

     total cpu time spent up to now is       30.0 secs

     total energy              =    -923.81670160 Ry
     estimated scf accuracy    <       0.01069244 Ry

     total magnetization       =    -0.00 Bohr mag/cell
     absolute magnetization    =     0.01 Bohr mag/cell

     iteration # 13     ecut=    50.00 Ry     beta= 0.30
     Davidson diagonalization with overlap
     ethr =  5.37E-06,  avg # of iterations =  1.0

     negative rho (up, down):  1.292E-06 1.292E-06

     total cpu time spent up to now is       31.9 secs

     total energy              =    -923.81594448 Ry
     estimated scf accuracy    <       0.03944529 Ry

     total magnetization       =     0.00 Bohr mag/cell
     absolute magnetization    =     0.00 Bohr mag/cell

     iteration # 14     ecut=    50.00 Ry     beta= 0.30
     Davidson diagonalization with overlap
     ethr =  5.37E-06,  avg # of iterations =  1.0

     negative rho (up, down):  1.304E-06 1.303E-06

     total cpu time spent up to now is       33.8 secs

     total energy              =    -923.81746179 Ry
     estimated scf accuracy    <       0.00960776 Ry

     total magnetization       =    -0.00 Bohr mag/cell
     absolute magnetization    =     0.00 Bohr mag/cell

     iteration # 15     ecut=    50.00 Ry     beta= 0.30
     Davidson diagonalization with overlap
     ethr =  4.83E-06,  avg # of iterations =  1.0

     negative rho (up, down):  1.305E-06 1.305E-06

     total cpu time spent up to now is       35.7 secs

     total energy              =    -923.81727904 Ry
     estimated scf accuracy    <       0.00894966 Ry

     total magnetization       =     0.00 Bohr mag/cell
     absolute magnetization    =     0.00 Bohr mag/cell

     iteration # 16     ecut=    50.00 Ry     beta= 0.30
     Davidson diagonalization with overlap
     ethr =  4.50E-06,  avg # of iterations =  1.0

     negative rho (up, down):  1.306E-06 1.306E-06

     total cpu time spent up to now is       37.6 secs

     total energy              =    -923.81732980 Ry
     estimated scf accuracy    <       0.00634070 Ry

     total magnetization       =     0.00 Bohr mag/cell
     absolute magnetization    =     0.00 Bohr mag/cell

     iteration # 17     ecut=    50.00 Ry     beta= 0.30
     Davidson diagonalization with overlap
     ethr =  3.19E-06,  avg # of iterations =  1.0

     negative rho (up, down):  1.304E-06 1.304E-06

     total cpu time spent up to now is       39.6 secs

     total energy              =    -923.81710705 Ry
     estimated scf accuracy    <       0.00814366 Ry

     total magnetization       =     0.00 Bohr mag/cell
     absolute magnetization    =     0.00 Bohr mag/cell

     iteration # 18     ecut=    50.00 Ry     beta= 0.30
     Davidson diagonalization with overlap
     ethr =  3.19E-06,  avg # of iterations =  1.0

     negative rho (up, down):  1.303E-06 1.303E-06

     total cpu time spent up to now is       41.5 secs

     total energy              =    -923.81716224 Ry
     estimated scf accuracy    <       0.00069831 Ry

     total magnetization       =     0.00 Bohr mag/cell
     absolute magnetization    =     0.01 Bohr mag/cell

     iteration # 19     ecut=    50.00 Ry     beta= 0.30
     Davidson diagonalization with overlap
     ethr =  3.51E-07,  avg # of iterations =  1.0

     negative rho (up, down):  1.301E-06 1.301E-06

     total cpu time spent up to now is       43.4 secs

     total energy              =    -923.81716616 Ry
     estimated scf accuracy    <       0.00041367 Ry

     total magnetization       =     0.00 Bohr mag/cell
     absolute magnetization    =     0.02 Bohr mag/cell

     iteration # 20     ecut=    50.00 Ry     beta= 0.30
     Davidson diagonalization with overlap
     ethr =  2.08E-07,  avg # of iterations =  1.0

     negative rho (up, down):  1.301E-06 1.301E-06

     total cpu time spent up to now is       45.3 secs

     total energy              =    -923.81716625 Ry
     estimated scf accuracy    <       0.00073771 Ry

     total magnetization       =     0.00 Bohr mag/cell
     absolute magnetization    =     0.02 Bohr mag/cell

     iteration # 21     ecut=    50.00 Ry     beta= 0.30
     Davidson diagonalization with overlap
     ethr =  2.08E-07,  avg # of iterations =  1.0

     negative rho (up, down):  1.299E-06 1.299E-06

     total cpu time spent up to now is       47.2 secs

     total energy              =    -923.81717189 Ry
     estimated scf accuracy    <       0.00071198 Ry

     total magnetization       =    -0.00 Bohr mag/cell
     absolute magnetization    =     0.01 Bohr mag/cell

     iteration # 22     ecut=    50.00 Ry     beta= 0.30
     Davidson diagonalization with overlap
     ethr =  2.08E-07,  avg # of iterations =  1.0

     negative rho (up, down):  1.302E-06 1.302E-06

     total cpu time spent up to now is       49.1 secs

     total energy              =    -923.81720327 Ry
     estimated scf accuracy    <       0.00160004 Ry

     total magnetization       =    -0.00 Bohr mag/cell
     absolute magnetization    =     0.01 Bohr mag/cell

     iteration # 23     ecut=    50.00 Ry     beta= 0.30
     Davidson diagonalization with overlap
     ethr =  2.08E-07,  avg # of iterations =  1.0

     negative rho (up, down):  1.305E-06 1.304E-06

     total cpu time spent up to now is       51.1 secs

     total energy              =    -923.81717316 Ry
     estimated scf accuracy    <       0.00833277 Ry

     total magnetization       =    -0.00 Bohr mag/cell
     absolute magnetization    =     0.00 Bohr mag/cell

     iteration # 24     ecut=    50.00 Ry     beta= 0.30
     Davidson diagonalization with overlap
     ethr =  2.08E-07,  avg # of iterations =  1.0

     negative rho (up, down):  1.305E-06 1.304E-06

     total cpu time spent up to now is       53.0 secs

     total energy              =    -923.81709930 Ry
     estimated scf accuracy    <       0.00611663 Ry

     total magnetization       =     0.00 Bohr mag/cell
     absolute magnetization    =     0.01 Bohr mag/cell

     iteration # 25     ecut=    50.00 Ry     beta= 0.30
     Davidson diagonalization with overlap
     ethr =  2.08E-07,  avg # of iterations =  1.0

     negative rho (up, down):  1.304E-06 1.303E-06

     total cpu time spent up to now is       54.8 secs

     total energy              =    -923.81710336 Ry
     estimated scf accuracy    <       0.00187069 Ry

     total magnetization       =     0.00 Bohr mag/cell
     absolute magnetization    =     0.01 Bohr mag/cell

     iteration # 26     ecut=    50.00 Ry     beta= 0.30
     Davidson diagonalization with overlap
     ethr =  2.08E-07,  avg # of iterations =  1.0

     negative rho (up, down):  1.304E-06 1.303E-06

     total cpu time spent up to now is       56.6 secs

     total energy              =    -923.81709625 Ry
     estimated scf accuracy    <       0.00429604 Ry

     total magnetization       =    -0.00 Bohr mag/cell
     absolute magnetization    =     0.02 Bohr mag/cell

     iteration # 27     ecut=    50.00 Ry     beta= 0.30
     Davidson diagonalization with overlap
     ethr =  2.08E-07,  avg # of iterations =  1.0

     negative rho (up, down):  1.304E-06 1.303E-06

     total cpu time spent up to now is       58.5 secs

     total energy              =    -923.81709358 Ry
     estimated scf accuracy    <       0.00264533 Ry

     total magnetization       =    -0.00 Bohr mag/cell
     absolute magnetization    =     0.04 Bohr mag/cell

     iteration # 28     ecut=    50.00 Ry     beta= 0.30
     Davidson diagonalization with overlap
     ethr =  2.08E-07,  avg # of iterations =  1.0

     negative rho (up, down):  1.302E-06 1.302E-06

     total cpu time spent up to now is       60.4 secs

     total energy              =    -923.81706331 Ry
     estimated scf accuracy    <       0.00111972 Ry

     total magnetization       =    -0.00 Bohr mag/cell
     absolute magnetization    =     0.11 Bohr mag/cell

     iteration # 29     ecut=    50.00 Ry     beta= 0.30
     Davidson diagonalization with overlap
     ethr =  2.08E-07,  avg # of iterations =  1.0

     negative rho (up, down):  1.300E-06 1.299E-06

     total cpu time spent up to now is       62.4 secs

     total energy              =    -923.81680155 Ry
     estimated scf accuracy    <       0.06058286 Ry

     total magnetization       =    -0.00 Bohr mag/cell
     absolute magnetization    =     0.01 Bohr mag/cell

     iteration # 30     ecut=    50.00 Ry     beta= 0.30
     Davidson diagonalization with overlap
     ethr =  2.08E-07,  avg # of iterations =  1.5

     negative rho (up, down):  1.297E-06 1.297E-06

     total cpu time spent up to now is       64.4 secs

     total energy              =    -923.81710565 Ry
     estimated scf accuracy    <       0.00028001 Ry

     total magnetization       =     0.00 Bohr mag/cell
     absolute magnetization    =     0.07 Bohr mag/cell

     iteration # 31     ecut=    50.00 Ry     beta= 0.30
     Davidson diagonalization with overlap
     ethr =  1.41E-07,  avg # of iterations =  1.0

     negative rho (up, down):  1.298E-06 1.297E-06

     total cpu time spent up to now is       66.3 secs

     total energy              =    -923.81707365 Ry
     estimated scf accuracy    <       0.00253596 Ry

     total magnetization       =     0.00 Bohr mag/cell
     absolute magnetization    =     0.13 Bohr mag/cell

     iteration # 32     ecut=    50.00 Ry     beta= 0.30
     Davidson diagonalization with overlap
     ethr =  1.41E-07,  avg # of iterations =  1.0

     negative rho (up, down):  1.297E-06 1.296E-06

     total cpu time spent up to now is       68.2 secs

     total energy              =    -923.81713243 Ry
     estimated scf accuracy    <       0.00401467 Ry

     total magnetization       =     0.00 Bohr mag/cell
     absolute magnetization    =     0.02 Bohr mag/cell

     iteration # 33     ecut=    50.00 Ry     beta= 0.30
     Davidson diagonalization with overlap
     ethr =  1.41E-07,  avg # of iterations =  1.0

     negative rho (up, down):  1.297E-06 1.297E-06

     total cpu time spent up to now is       70.1 secs

     total energy              =    -923.81712640 Ry
     estimated scf accuracy    <       0.00305443 Ry

     total magnetization       =     0.00 Bohr mag/cell
     absolute magnetization    =     0.02 Bohr mag/cell

     iteration # 34     ecut=    50.00 Ry     beta= 0.30
     Davidson diagonalization with overlap
     ethr =  1.41E-07,  avg # of iterations =  1.0

     negative rho (up, down):  1.297E-06 1.297E-06

     total cpu time spent up to now is       72.0 secs

     total energy              =    -923.81710191 Ry
     estimated scf accuracy    <       0.00211718 Ry

     total magnetization       =     0.00 Bohr mag/cell
     absolute magnetization    =     0.02 Bohr mag/cell

     iteration # 35     ecut=    50.00 Ry     beta= 0.30
     Davidson diagonalization with overlap
     ethr =  1.41E-07,  avg # of iterations =  1.0

     negative rho (up, down):  1.297E-06 1.296E-06

     total cpu time spent up to now is       74.0 secs

     total energy              =    -923.81710666 Ry
     estimated scf accuracy    <       0.00039554 Ry

     total magnetization       =    -0.00 Bohr mag/cell
     absolute magnetization    =     0.02 Bohr mag/cell

     iteration # 36     ecut=    50.00 Ry     beta= 0.30
     Davidson diagonalization with overlap
     ethr =  1.41E-07,  avg # of iterations =  1.0

     negative rho (up, down):  1.297E-06 1.296E-06

     total cpu time spent up to now is       75.9 secs

     total energy              =    -923.81710818 Ry
     estimated scf accuracy    <       0.00066718 Ry

     total magnetization       =     0.00 Bohr mag/cell
     absolute magnetization    =     0.01 Bohr mag/cell

     iteration # 37     ecut=    50.00 Ry     beta= 0.30
     Davidson diagonalization with overlap
     ethr =  1.41E-07,  avg # of iterations =  1.0

     negative rho (up, down):  1.296E-06 1.296E-06

     total cpu time spent up to now is       77.8 secs

     total energy              =    -923.81711144 Ry
     estimated scf accuracy    <       0.00061190 Ry

     total magnetization       =    -0.00 Bohr mag/cell
     absolute magnetization    =     0.01 Bohr mag/cell

     iteration # 38     ecut=    50.00 Ry     beta= 0.30
     Davidson diagonalization with overlap
     ethr =  1.41E-07,  avg # of iterations =  1.0

     negative rho (up, down):  1.292E-06 1.291E-06

     total cpu time spent up to now is       79.7 secs

     total energy              =    -923.81703045 Ry
     estimated scf accuracy    <       0.00055299 Ry

     total magnetization       =     0.00 Bohr mag/cell
     absolute magnetization    =     0.02 Bohr mag/cell

     iteration # 39     ecut=    50.00 Ry     beta= 0.30
     Davidson diagonalization with overlap
     ethr =  1.41E-07,  avg # of iterations =  2.0

     negative rho (up, down):  1.297E-06 1.297E-06

     total cpu time spent up to now is       81.7 secs

     total energy              =    -923.81670056 Ry
     estimated scf accuracy    <       0.05338911 Ry

     total magnetization       =    -0.00 Bohr mag/cell
     absolute magnetization    =     0.03 Bohr mag/cell

     iteration # 40     ecut=    50.00 Ry     beta= 0.30
     Davidson diagonalization with overlap
     ethr =  1.41E-07,  avg # of iterations =  2.0

     negative rho (up, down):  1.297E-06 1.296E-06

     total cpu time spent up to now is       83.8 secs

     total energy              =    -923.81711669 Ry
     estimated scf accuracy    <       0.00068969 Ry

     total magnetization       =     0.00 Bohr mag/cell
     absolute magnetization    =     0.01 Bohr mag/cell

     iteration # 41     ecut=    50.00 Ry     beta= 0.30
     Davidson diagonalization with overlap
     ethr =  1.41E-07,  avg # of iterations =  1.0

     negative rho (up, down):  1.297E-06 1.296E-06

     total cpu time spent up to now is       85.7 secs

     total energy              =    -923.81711246 Ry
     estimated scf accuracy    <       0.00129688 Ry

     total magnetization       =     0.00 Bohr mag/cell
     absolute magnetization    =     0.03 Bohr mag/cell

     iteration # 42     ecut=    50.00 Ry     beta= 0.30
     Davidson diagonalization with overlap
     ethr =  1.41E-07,  avg # of iterations =  1.0

     negative rho (up, down):  1.297E-06 1.296E-06

     total cpu time spent up to now is       87.7 secs

     total energy              =    -923.81711277 Ry
     estimated scf accuracy    <       0.00129275 Ry

     total magnetization       =    -0.00 Bohr mag/cell
     absolute magnetization    =     0.04 Bohr mag/cell

     iteration # 43     ecut=    50.00 Ry     beta= 0.30
     Davidson diagonalization with overlap
     ethr =  1.41E-07,  avg # of iterations =  1.0

     negative rho (up, down):  1.298E-06 1.296E-06

     total cpu time spent up to now is       89.6 secs

     total energy              =    -923.81709970 Ry
     estimated scf accuracy    <       0.00139402 Ry

     total magnetization       =     0.00 Bohr mag/cell
     absolute magnetization    =     0.04 Bohr mag/cell

     iteration # 44     ecut=    50.00 Ry     beta= 0.30
     Davidson diagonalization with overlap
     ethr =  1.41E-07,  avg # of iterations =  1.0

     negative rho (up, down):  1.296E-06 1.295E-06

     total cpu time spent up to now is       91.5 secs

     total energy              =    -923.81709731 Ry
     estimated scf accuracy    <       0.00074600 Ry

     total magnetization       =     0.00 Bohr mag/cell
     absolute magnetization    =     0.03 Bohr mag/cell

     iteration # 45     ecut=    50.00 Ry     beta= 0.30
     Davidson diagonalization with overlap
     ethr =  1.41E-07,  avg # of iterations =  1.0

     negative rho (up, down):  1.296E-06 1.295E-06

     total cpu time spent up to now is       93.3 secs

     total energy              =    -923.81709877 Ry
     estimated scf accuracy    <       0.00015795 Ry

     total magnetization       =    -0.00 Bohr mag/cell
     absolute magnetization    =     0.04 Bohr mag/cell

     iteration # 46     ecut=    50.00 Ry     beta= 0.30
     Davidson diagonalization with overlap
     ethr =  7.94E-08,  avg # of iterations =  1.0

     negative rho (up, down):  1.295E-06 1.295E-06

     total cpu time spent up to now is       95.1 secs

     total energy              =    -923.81709442 Ry
     estimated scf accuracy    <       0.00021079 Ry

     total magnetization       =     0.00 Bohr mag/cell
     absolute magnetization    =     0.03 Bohr mag/cell

     iteration # 47     ecut=    50.00 Ry     beta= 0.30
     Davidson diagonalization with overlap
     ethr =  7.94E-08,  avg # of iterations =  1.0

     negative rho (up, down):  1.295E-06 1.294E-06

     total cpu time spent up to now is       97.1 secs

     total energy              =    -923.81709573 Ry
     estimated scf accuracy    <       0.00006531 Ry

     total magnetization       =     0.00 Bohr mag/cell
     absolute magnetization    =     0.11 Bohr mag/cell

     iteration # 48     ecut=    50.00 Ry     beta= 0.30
     Davidson diagonalization with overlap
     ethr =  3.28E-08,  avg # of iterations =  1.0

     negative rho (up, down):  1.300E-06 1.296E-06

     total cpu time spent up to now is       99.0 secs

     total energy              =    -923.81717262 Ry
     estimated scf accuracy    <       0.00059323 Ry

     total magnetization       =    -0.00 Bohr mag/cell
     absolute magnetization    =     0.20 Bohr mag/cell

     iteration # 49     ecut=    50.00 Ry     beta= 0.30
     Davidson diagonalization with overlap
     ethr =  3.28E-08,  avg # of iterations =  2.0

     negative rho (up, down):  1.302E-06 1.295E-06

     total cpu time spent up to now is      101.1 secs

     total energy              =    -923.81739934 Ry
     estimated scf accuracy    <       0.00965347 Ry

     total magnetization       =     0.00 Bohr mag/cell
     absolute magnetization    =     0.52 Bohr mag/cell

     iteration # 50     ecut=    50.00 Ry     beta= 0.30
     Davidson diagonalization with overlap
     ethr =  3.28E-08,  avg # of iterations =  1.0

     negative rho (up, down):  1.304E-06 1.293E-06

     total cpu time spent up to now is      103.0 secs

     total energy              =    -923.81744333 Ry
     estimated scf accuracy    <       0.01013592 Ry

     total magnetization       =    -0.00 Bohr mag/cell
     absolute magnetization    =     0.55 Bohr mag/cell

     iteration # 51     ecut=    50.00 Ry     beta= 0.30
     Davidson diagonalization with overlap
     ethr =  3.28E-08,  avg # of iterations =  1.0

     negative rho (up, down):  1.306E-06 1.291E-06

     total cpu time spent up to now is      105.0 secs

     total energy              =    -923.81727155 Ry
     estimated scf accuracy    <       0.01242147 Ry

     total magnetization       =    -0.00 Bohr mag/cell
     absolute magnetization    =     0.55 Bohr mag/cell

     iteration # 52     ecut=    50.00 Ry     beta= 0.30
     Davidson diagonalization with overlap
     ethr =  3.28E-08,  avg # of iterations =  1.5

     negative rho (up, down):  1.309E-06 1.290E-06

     total cpu time spent up to now is      107.0 secs

     total energy              =    -923.81728964 Ry
     estimated scf accuracy    <       0.00872425 Ry

     total magnetization       =     0.00 Bohr mag/cell
     absolute magnetization    =     0.57 Bohr mag/cell

     iteration # 53     ecut=    50.00 Ry     beta= 0.30
     Davidson diagonalization with overlap
     ethr =  3.28E-08,  avg # of iterations =  1.5

     negative rho (up, down):  1.312E-06 1.290E-06

     total cpu time spent up to now is      108.9 secs

     total energy              =    -923.81733272 Ry
     estimated scf accuracy    <       0.00714861 Ry

     total magnetization       =     0.00 Bohr mag/cell
     absolute magnetization    =     0.57 Bohr mag/cell

     iteration # 54     ecut=    50.00 Ry     beta= 0.30
     Davidson diagonalization with overlap
     ethr =  3.28E-08,  avg # of iterations =  1.0

     negative rho (up, down):  1.316E-06 1.292E-06

     total cpu time spent up to now is      110.9 secs

     total energy              =    -923.81734116 Ry
     estimated scf accuracy    <       0.00796751 Ry

     total magnetization       =     0.00 Bohr mag/cell
     absolute magnetization    =     0.59 Bohr mag/cell

     iteration # 55     ecut=    50.00 Ry     beta= 0.30
     Davidson diagonalization with overlap
     ethr =  3.28E-08,  avg # of iterations =  1.0

     negative rho (up, down):  1.315E-06 1.290E-06

     total cpu time spent up to now is      112.8 secs

     total energy              =    -923.81733114 Ry
     estimated scf accuracy    <       0.00804850 Ry

     total magnetization       =    -0.00 Bohr mag/cell
     absolute magnetization    =     0.60 Bohr mag/cell

     iteration # 56     ecut=    50.00 Ry     beta= 0.30
     Davidson diagonalization with overlap
     ethr =  3.28E-08,  avg # of iterations =  1.0

     negative rho (up, down):  1.324E-06 1.297E-06

     total cpu time spent up to now is      114.7 secs

     total energy              =    -923.81735096 Ry
     estimated scf accuracy    <       0.00727815 Ry

     total magnetization       =     0.00 Bohr mag/cell
     absolute magnetization    =     0.58 Bohr mag/cell

     iteration # 57     ecut=    50.00 Ry     beta= 0.30
     Davidson diagonalization with overlap
     ethr =  3.28E-08,  avg # of iterations =  1.0

     negative rho (up, down):  1.381E-06 1.334E-06

     total cpu time spent up to now is      116.6 secs

     total energy              =    -923.81687111 Ry
     estimated scf accuracy    <       0.00483113 Ry

     total magnetization       =     0.00 Bohr mag/cell
     absolute magnetization    =     0.54 Bohr mag/cell

     iteration # 58     ecut=    50.00 Ry     beta= 0.30
     Davidson diagonalization with overlap
     ethr =  3.28E-08,  avg # of iterations =  6.0

     negative rho (up, down):  1.348E-06 1.310E-06

     total cpu time spent up to now is      119.9 secs

     total energy              =    -923.81759008 Ry
     estimated scf accuracy    <       0.00685476 Ry

     total magnetization       =     0.00 Bohr mag/cell
     absolute magnetization    =     0.81 Bohr mag/cell

     iteration # 59     ecut=    50.00 Ry     beta= 0.30
     Davidson diagonalization with overlap
     ethr =  3.28E-08,  avg # of iterations =  4.0

     negative rho (up, down):  1.347E-06 1.310E-06

     total cpu time spent up to now is      122.3 secs

     total energy              =    -923.81750711 Ry
     estimated scf accuracy    <       0.00864337 Ry

     total magnetization       =    -0.00 Bohr mag/cell
     absolute magnetization    =     0.84 Bohr mag/cell

     iteration # 60     ecut=    50.00 Ry     beta= 0.30
     Davidson diagonalization with overlap
     ethr =  3.28E-08,  avg # of iterations =  2.5

     negative rho (up, down):  1.344E-06 1.308E-06

     total cpu time spent up to now is      124.4 secs

     total energy              =    -923.81757396 Ry
     estimated scf accuracy    <       0.00458929 Ry

     total magnetization       =     0.00 Bohr mag/cell
     absolute magnetization    =     0.81 Bohr mag/cell

     iteration # 61     ecut=    50.00 Ry     beta= 0.30
     Davidson diagonalization with overlap
     ethr =  3.28E-08,  avg # of iterations =  1.0

     negative rho (up, down):  1.345E-06 1.306E-06

     total cpu time spent up to now is      126.4 secs

     total energy              =    -923.81760273 Ry
     estimated scf accuracy    <       0.00636217 Ry

     total magnetization       =    -0.00 Bohr mag/cell
     absolute magnetization    =     0.83 Bohr mag/cell

     iteration # 62     ecut=    50.00 Ry     beta= 0.30
     Davidson diagonalization with overlap
     ethr =  3.28E-08,  avg # of iterations =  1.5

     negative rho (up, down):  1.347E-06 1.310E-06

     total cpu time spent up to now is      128.4 secs

     total energy              =    -923.81752946 Ry
     estimated scf accuracy    <       0.00735065 Ry

     total magnetization       =     0.00 Bohr mag/cell
     absolute magnetization    =     0.82 Bohr mag/cell

     iteration # 63     ecut=    50.00 Ry     beta= 0.30
     Davidson diagonalization with overlap
     ethr =  3.28E-08,  avg # of iterations =  1.5

     negative rho (up, down):  1.337E-06 1.300E-06

     total cpu time spent up to now is      130.4 secs

     total energy              =    -923.81760001 Ry
     estimated scf accuracy    <       0.00407227 Ry

     total magnetization       =    -0.00 Bohr mag/cell
     absolute magnetization    =     0.82 Bohr mag/cell

     iteration # 64     ecut=    50.00 Ry     beta= 0.30
     Davidson diagonalization with overlap
     ethr =  3.28E-08,  avg # of iterations =  2.5

     negative rho (up, down):  1.365E-06 1.315E-06

     total cpu time spent up to now is      132.5 secs

     total energy              =    -923.81721123 Ry
     estimated scf accuracy    <       0.00662920 Ry

     total magnetization       =     0.00 Bohr mag/cell
     absolute magnetization    =     0.83 Bohr mag/cell

     iteration # 65     ecut=    50.00 Ry     beta= 0.30
     Davidson diagonalization with overlap
     ethr =  3.28E-08,  avg # of iterations =  4.5

     negative rho (up, down):  1.359E-06 1.309E-06

     total cpu time spent up to now is      135.1 secs

     total energy              =    -923.81724253 Ry
     estimated scf accuracy    <       0.00125080 Ry

     total magnetization       =    -0.00 Bohr mag/cell
     absolute magnetization    =     0.74 Bohr mag/cell

     iteration # 66     ecut=    50.00 Ry     beta= 0.30
     Davidson diagonalization with overlap
     ethr =  3.28E-08,  avg # of iterations =  3.0

     negative rho (up, down):  1.345E-06 1.303E-06

     total cpu time spent up to now is      137.3 secs

     total energy              =    -923.81730953 Ry
     estimated scf accuracy    <       0.00028218 Ry

     total magnetization       =     0.00 Bohr mag/cell
     absolute magnetization    =     0.61 Bohr mag/cell

     iteration # 67     ecut=    50.00 Ry     beta= 0.30
     Davidson diagonalization with overlap
     ethr =  3.28E-08,  avg # of iterations =  3.5

     negative rho (up, down):  1.331E-06 1.296E-06

     total cpu time spent up to now is      139.7 secs

     total energy              =    -923.81734185 Ry
     estimated scf accuracy    <       0.00018661 Ry

     total magnetization       =    -0.00 Bohr mag/cell
     absolute magnetization    =     0.59 Bohr mag/cell

     iteration # 68     ecut=    50.00 Ry     beta= 0.30
     Davidson diagonalization with overlap
     ethr =  3.28E-08,  avg # of iterations =  2.5

     negative rho (up, down):  1.326E-06 1.296E-06

     total cpu time spent up to now is      141.8 secs

     total energy              =    -923.81734252 Ry
     estimated scf accuracy    <       0.00029497 Ry

     total magnetization       =     0.00 Bohr mag/cell
     absolute magnetization    =     0.54 Bohr mag/cell

     iteration # 69     ecut=    50.00 Ry     beta= 0.30
     Davidson diagonalization with overlap
     ethr =  3.28E-08,  avg # of iterations =  3.0

     negative rho (up, down):  1.331E-06 1.298E-06

     total cpu time spent up to now is      144.0 secs

     total energy              =    -923.81735490 Ry
     estimated scf accuracy    <       0.00008729 Ry

     total magnetization       =    -0.00 Bohr mag/cell
     absolute magnetization    =     0.56 Bohr mag/cell

     iteration # 70     ecut=    50.00 Ry     beta= 0.30
     Davidson diagonalization with overlap
     ethr =  3.28E-08,  avg # of iterations =  1.5

     negative rho (up, down):  1.331E-06 1.299E-06

     total cpu time spent up to now is      146.0 secs

     total energy              =    -923.81735464 Ry
     estimated scf accuracy    <       0.00005578 Ry

     total magnetization       =     0.00 Bohr mag/cell
     absolute magnetization    =     0.56 Bohr mag/cell

     iteration # 71     ecut=    50.00 Ry     beta= 0.30
     Davidson diagonalization with overlap
     ethr =  2.80E-08,  avg # of iterations =  1.0

     negative rho (up, down):  1.333E-06 1.299E-06

     total cpu time spent up to now is      147.9 secs

     total energy              =    -923.81735443 Ry
     estimated scf accuracy    <       0.00000375 Ry

     total magnetization       =     0.00 Bohr mag/cell
     absolute magnetization    =     0.56 Bohr mag/cell

     iteration # 72     ecut=    50.00 Ry     beta= 0.30
     Davidson diagonalization with overlap
     ethr =  1.89E-09,  avg # of iterations =  3.0

     negative rho (up, down):  1.334E-06 1.300E-06

     total cpu time spent up to now is      150.1 secs

     total energy              =    -923.81735525 Ry
     estimated scf accuracy    <       0.00000364 Ry

     total magnetization       =    -0.00 Bohr mag/cell
     absolute magnetization    =     0.56 Bohr mag/cell

     iteration # 73     ecut=    50.00 Ry     beta= 0.30
     Davidson diagonalization with overlap
     ethr =  1.83E-09,  avg # of iterations =  1.5

     negative rho (up, down):  1.334E-06 1.300E-06

     total cpu time spent up to now is      152.1 secs

     total energy              =    -923.81735554 Ry
     estimated scf accuracy    <       0.00000187 Ry

     total magnetization       =     0.00 Bohr mag/cell
     absolute magnetization    =     0.57 Bohr mag/cell

     iteration # 74     ecut=    50.00 Ry     beta= 0.30
     Davidson diagonalization with overlap
     ethr =  9.42E-10,  avg # of iterations =  1.5

     negative rho (up, down):  1.335E-06 1.300E-06

     Magnetic moment per site  (integrated on atomic sphere of radius R)
     atom   1 (R=0.046)  charge=  1.1362  magn=  0.0036
     atom   2 (R=0.046)  charge=  1.1722  magn=  0.0026
     atom   3 (R=0.046)  charge=  1.1950  magn= -0.0014
     atom   4 (R=0.046)  charge=  1.1347  magn=  0.0047
     atom   5 (R=0.046)  charge=  1.1726  magn=  0.0045
     atom   6 (R=0.046)  charge=  1.1965  magn= -0.0025
     atom   7 (R=0.046)  charge=  1.1361  magn=  0.0169
     atom   8 (R=0.046)  charge=  1.1726  magn=  0.0077
     atom   9 (R=0.046)  charge=  1.1932  magn= -0.0040
     atom  10 (R=0.046)  charge=  1.1262  magn=  0.0008
     atom  11 (R=0.046)  charge=  1.1723  magn=  0.0006
     atom  12 (R=0.046)  charge=  1.1940  magn= -0.0007
     atom  13 (R=0.046)  charge=  1.1192  magn= -0.0001
     atom  14 (R=0.046)  charge=  1.1732  magn=  0.0007
     atom  15 (R=0.046)  charge=  1.1830  magn= -0.0007
     atom  16 (R=0.046)  charge=  1.1215  magn= -0.0045
     atom  17 (R=0.046)  charge=  1.1736  magn= -0.0023
     atom  18 (R=0.046)  charge=  1.1823  magn= -0.0001
     atom  19 (R=0.046)  charge=  1.1164  magn= -0.0010
     atom  20 (R=0.046)  charge=  1.1720  magn= -0.0016
     atom  21 (R=0.046)  charge=  1.1845  magn= -0.0004
     atom  22 (R=0.046)  charge=  1.1444  magn= -0.0072
     atom  23 (R=0.046)  charge=  1.1833  magn=  0.0016
     atom  24 (R=0.046)  charge=  1.1879  magn= -0.0029
     atom  25 (R=0.046)  charge=  1.1272  magn= -0.0002
     atom  26 (R=0.046)  charge=  1.1717  magn= -0.0001
     atom  27 (R=0.046)  charge=  1.1971  magn= -0.0017
     atom  28 (R=0.046)  charge=  1.1274  magn= -0.0007
     atom  29 (R=0.046)  charge=  1.1714  magn= -0.0011
     atom  30 (R=0.046)  charge=  1.1971  magn=  0.0004
     atom  31 (R=0.046)  charge=  1.1277  magn= -0.0006
     atom  32 (R=0.046)  charge=  1.1723  magn= -0.0007
     atom  33 (R=0.046)  charge=  1.1961  magn= -0.0010
     atom  34 (R=0.046)  charge=  1.1261  magn= -0.0003
     atom  35 (R=0.046)  charge=  1.1663  magn= -0.0059
     atom  36 (R=0.046)  charge=  1.2006  magn= -0.0002
     atom  37 (R=0.046)  charge=  1.1195  magn= -0.0029
     atom  38 (R=0.046)  charge=  1.1707  magn= -0.0026
     atom  39 (R=0.046)  charge=  1.1848  magn=  0.0028
     atom  40 (R=0.046)  charge=  1.1188  magn= -0.0013
     atom  41 (R=0.046)  charge=  1.1709  magn= -0.0014
     atom  42 (R=0.046)  charge=  1.1846  magn=  0.0014
     atom  43 (R=0.046)  charge=  1.1198  magn= -0.0046
     atom  44 (R=0.046)  charge=  1.1702  magn= -0.0041
     atom  45 (R=0.046)  charge=  1.1847  magn=  0.0051
     atom  46 (R=0.046)  charge=  1.1189  magn= -0.0013
     atom  47 (R=0.046)  charge=  1.1708  magn= -0.0009
     atom  48 (R=0.046)  charge=  1.1857  magn=  0.0005
     atom  49 (R=0.037)  charge=  1.9988  magn=  0.0066
     atom  50 (R=0.037)  charge=  0.3717  magn= -0.0004

     total cpu time spent up to now is      153.9 secs

     End of self-consistent calculation

 ------ SPIN UP ------------


          k = 0.0000 0.0000 0.0000 ( 26858 PWs)   bands (ev):

   -26.1937 -21.5264 -21.0822 -17.6329 -17.5469 -17.4695 -17.4454 -17.3806
   -17.2328 -16.8361 -16.7878 -16.7390 -16.6640 -16.6205 -16.1573 -16.1313
   -16.0107 -16.0063 -15.8965 -15.8258 -15.6878 -15.6126 -14.9460 -14.6520
   -14.5861 -14.5375 -14.1279 -14.0668 -13.5844 -13.3130 -13.0465 -12.9380
   -12.8702 -12.3193 -12.1803 -11.9095 -11.7837 -11.7071 -11.2784 -10.8713
   -10.8465 -10.6772 -10.6035 -10.4766 -10.1487 -10.0249  -9.8808  -9.8580
    -9.5645  -9.4617  -9.4583  -9.4223  -9.3787  -8.2171  -8.0820  -6.9743
    -6.8802  -6.7904  -6.7583  -6.5685  -6.2980  -6.2802  -6.1263  -6.0355
    -5.9638  -5.6993  -5.5591  -5.5539  -5.4950  -5.4317  -5.4231  -5.3918
    -5.3554  -5.3262  -5.1749  -5.0239  -4.7805  -4.6985  -4.4696  -4.4423
    -4.3176  -4.2377  -3.9373  -3.8848  -3.8598  -3.7002  -3.6228  -3.5598
    -3.4175  -3.3569  -3.1555  -3.0174  -2.9950  -2.9243  -2.7745  -2.6198
    -2.0240  -1.9958  -1.6970  -1.6871  -0.2321  -0.1735   0.1224   0.5828
     0.6605   0.8984   1.2068   1.2467   1.3007   1.3728   1.5910   1.6806
     2.0687   2.1805   2.2814   2.4413   2.5773   2.6152   2.6976

 ------ SPIN DOWN ----------


          k = 0.0000 0.0000 0.0000 ( 26858 PWs)   bands (ev):

   -26.1579 -21.5308 -21.0722 -17.6277 -17.5468 -17.4699 -17.4457 -17.3793
   -17.2344 -16.8366 -16.7886 -16.7412 -16.6633 -16.6274 -16.1645 -16.1322
   -16.0115 -16.0072 -15.8952 -15.8263 -15.6900 -15.6147 -14.9589 -14.6539
   -14.5874 -14.5254 -14.1260 -14.0635 -13.5821 -13.3097 -13.0468 -12.9376
   -12.8684 -12.3168 -12.1846 -11.9028 -11.7830 -11.7045 -11.2786 -10.8709
   -10.8455 -10.6764 -10.6037 -10.4713 -10.1434 -10.0179  -9.8790  -9.8536
    -9.5637  -9.4683  -9.4637  -9.4198  -9.3777  -8.2116  -8.0744  -6.9906
    -6.8840  -6.7966  -6.7604  -6.5664  -6.2994  -6.2817  -6.1325  -6.0365
    -5.9646  -5.7072  -5.5593  -5.5551  -5.4965  -5.4264  -5.4219  -5.3931
    -5.3556  -5.3257  -5.1744  -5.0290  -4.7815  -4.7041  -4.4729  -4.4421
    -4.3230  -4.2377  -3.9347  -3.8863  -3.8628  -3.7001  -3.6252  -3.5607
    -3.4200  -3.3585  -3.1562  -3.0209  -2.9960  -2.9279  -2.7722  -2.6217
    -2.0249  -1.9983  -1.7228  -1.6240  -0.2295  -0.1697   0.1230   0.5869
     0.6608   0.8986   1.2085   1.2486   1.3031   1.3740   1.5928   1.6837
     2.0640   2.1864   2.2818   2.4439   2.5781   2.6142   2.6891

     the spin up/dw Fermi energies are    -1.6871   -1.6240 ev

!    total energy              =    -923.81735536 Ry
     estimated scf accuracy    <       0.00000034 Ry
     smearing contrib. (-TS)   =      -0.00005642 Ry
     internal energy E=F+TS    =    -923.81729894 Ry

     The total energy is F=E-TS. E is the sum of the following terms:
     one-electron contribution =   -1331.76303706 Ry
     hartree contribution      =     712.66464189 Ry
     xc contribution           =    -226.73344208 Ry
     ewald contribution        =     227.57177200 Ry
     one-center paw contrib.   =    -305.55723369 Ry

     total magnetization       =     0.00 Bohr mag/cell
     absolute magnetization    =     0.56 Bohr mag/cell

     convergence has been achieved in  74 iterations

     negative rho (up, down):  1.335E-06 1.300E-06

     Forces acting on atoms (cartesian axes, Ry/au):

     atom    1 type  1   force =     0.04587537   -0.08570542   -0.08574693
     atom    2 type  1   force =     0.05310051   -0.05366453    0.05362552
     atom    3 type  1   force =     0.03323627   -0.02887548    0.02590656
     atom    4 type  1   force =    -0.14439312    0.02668786   -0.12231009
     atom    5 type  1   force =    -0.05827414    0.05639682    0.05409823
     atom    6 type  1   force =    -0.04347997    0.04176440    0.01505358
     atom    7 type  1   force =     0.00373497    0.00917064   -0.15023009
     atom    8 type  1   force =     0.06841045    0.06854399   -0.06343005
     atom    9 type  1   force =     0.01077625    0.01046379   -0.01846251
     atom   10 type  1   force =    -0.01326074   -0.00768725   -0.02449115
     atom   11 type  1   force =    -0.04884468   -0.04892819   -0.04891653
     atom   12 type  1   force =    -0.03758296   -0.03811434   -0.03584963
     atom   13 type  1   force =    -0.04641800    0.04642898    0.04218774
     atom   14 type  1   force =     0.05372402   -0.05351576   -0.05341803
     atom   15 type  1   force =    -0.01013394    0.00737988    0.00426662
     atom   16 type  1   force =     0.03888349   -0.05005078    0.02637208
     atom   17 type  1   force =    -0.05360428    0.05354328   -0.05302695
     atom   18 type  1   force =     0.00885842   -0.01263631    0.00303911
     atom   19 type  1   force =     0.07123641    0.07347534   -0.05116970
     atom   20 type  1   force =    -0.05486614   -0.05499726    0.05534133
     atom   21 type  1   force =     0.00891976    0.01019126   -0.00635555
     atom   22 type  1   force =     0.04480381   -0.06543677   -0.23612967
     atom   23 type  1   force =     0.12633710    0.12482292    0.11138054
     atom   24 type  1   force =     0.05219305    0.03634953   -0.09011521
     atom   25 type  1   force =     0.02118745   -0.01661498    0.02073997
     atom   26 type  1   force =     0.04870639   -0.04846530    0.04897303
     atom   27 type  1   force =     0.03670964   -0.03574792    0.03760305
     atom   28 type  1   force =    -0.01888476    0.01837257    0.01840777
     atom   29 type  1   force =    -0.04870556    0.04894222    0.04880766
     atom   30 type  1   force =    -0.03703556    0.03780753    0.03803376
     atom   31 type  1   force =     0.01767397    0.01668141   -0.02242230
     atom   32 type  1   force =     0.05062510    0.05041025   -0.05076020
     atom   33 type  1   force =     0.03544074    0.03549557   -0.03579078
     atom   34 type  1   force =    -0.03347349   -0.02791094   -0.04077614
     atom   35 type  1   force =    -0.08026006   -0.08060651   -0.08111640
     atom   36 type  1   force =    -0.01429976   -0.01213010   -0.01735775
     atom   37 type  1   force =    -0.04369020    0.04877139    0.05079450
     atom   38 type  1   force =     0.05737480   -0.05691628   -0.05694461
     atom   39 type  1   force =    -0.01060131    0.01191464    0.01160435
     atom   40 type  1   force =     0.04722721   -0.05073015    0.05025744
     atom   41 type  1   force =    -0.05389388    0.05442659   -0.05426237
     atom   42 type  1   force =     0.00928707   -0.00876938    0.00974699
     atom   43 type  1   force =     0.05161891    0.05092976   -0.03736020
     atom   44 type  1   force =    -0.06147941   -0.06178460    0.06279639
     atom   45 type  1   force =     0.01552525    0.01608387   -0.01352661
     atom   46 type  1   force =    -0.05128247   -0.05495503   -0.04621111
     atom   47 type  1   force =     0.05274661    0.05290514    0.05239174
     atom   48 type  1   force =    -0.00655281   -0.00662556   -0.00637997
     atom   49 type  2   force =    -0.11550186   -0.04484277    0.64366590
     atom   50 type  3   force =     0.02230609   -0.00224802    0.01746669

     Total force =     0.925030     Total SCF correction =     0.001101

     BFGS Geometry Optimization
     Energy error            =      0.0E+00 Ry
     Gradient error          =      6.4E-01 Ry/Bohr

     number of scf cycles    =   1
     number of bfgs steps    =   0

     energy             new  =    -923.8173553575 Ry

     new trust radius        =       0.5000000000 bohr
     new conv_thr            =       0.0000010000 Ry


ATOMIC_POSITIONS (angstrom)
C             6.1865178077        4.5734046061        6.1343878475
C             7.7054342705        3.0643380613        7.7056461935
C             6.9874159751        3.7873442751        6.9844573043
C             4.5497150362        6.1797726791        6.1196289566
C             3.0624773678        7.7067648428        7.7058370041
C             3.7814491068        6.9908583959        6.9800764485
C             6.1705076395        6.1727017732        4.5473589163
C             7.7116141999        7.7116681051        3.0603961629
C             6.9783498824        6.9782237584        3.7915475195
C             4.5976472407        4.5998970048        4.5931140309
C             3.0652836138        3.0652499076        3.0652546125
C             3.7808294617        3.7806149694        3.7815291271
C             6.2062631541        4.5647412744        4.5630292777
C             7.7856859520        2.9913981106        2.9914375625
C             7.0489093866        3.7239789228        3.7237222425
C             4.5616955041        6.2047967681        4.5566452125
C             2.9913623792        7.7866129981        2.9915954228
C             3.7245757423        7.0478992927        3.7232267517
C             4.5747549124        4.5746586661        6.2053451115
C             2.9908530246        2.9908000991        7.7863387872
C             3.7246005041        3.7251137511        7.0504345525
C             6.2470852690        6.2025861394        6.1336851467
C             7.8149965629        7.8153853580        7.8099592794
C             7.0760679701        7.0706726605        7.0186245715
C             0.6765524154       10.0962932842        0.6763717871
C             2.2076605618        8.5694367548        2.2077681953
C             1.4908180196        9.2835701838        1.4911786466
C            10.0943770771        0.6744161749        0.6754303820
C             8.5693397734        2.2067557558        2.2077014434
C             9.2830504229        1.4902611859        1.4913525041
C             0.6751341829        0.6737335297       10.0939491336
C             2.2074350605        2.2073483355        8.5685104056
C             1.4903058212        1.4893279531        9.2835528842
C            10.0944882702       10.0967336169       10.0905405185
C             8.5576026498        8.5574628049        8.5572569857
C             9.2952278361        9.2961036265        9.2929934629
C             0.7113642462       10.0656868000       10.0665034371
C             2.2821596060        8.4860254741        8.4850140384
C             1.5477207297        9.2238094003        9.2236841520
C            10.0640634846        0.7075225354       10.0662866519
C             8.4862454809        2.2809695488        8.4860967382
C             9.2217487690        1.5474601976        9.2219344169
C            10.0668362159       10.0675580385        0.7139193778
C             8.4831835486        8.4840603560        2.2843480580
C             9.2252668382        9.2254923315        1.5465399205
C             0.7052995907        0.7028171436        0.7063466690
C             2.2812914155        2.2803554100        2.2811481735
C             1.5483549287        1.5473255604        1.5474246966
O             5.8043771320        6.0568990034        7.7758187681
H             5.8600039592        6.0740925745        8.4990505107



     Writing config-only to output data dir ./pwscf.save/
     NEW-OLD atomic charge density approx. for the potential

     Check: negative core charge=   -0.000004

     negative rho (up, down):  1.970E-06 5.626E-06
     Generating pointlists ...
     new r_m :   0.0272 (alat units)  0.5656 (a.u.) for type    2
     new r_m :   0.0272 (alat units)  0.5656 (a.u.) for type    3

     total cpu time spent up to now is      158.4 secs

     Self-consistent Calculation

     iteration #  1     ecut=    50.00 Ry     beta= 0.30
     Davidson diagonalization with overlap
     ethr =  1.00E-06,  avg # of iterations = 15.0

     negative rho (up, down):  2.209E-06 4.734E-06

     total cpu time spent up to now is      164.8 secs

     total energy              =    -923.84140573 Ry
     estimated scf accuracy    <       0.66652462 Ry

     total magnetization       =    -0.00 Bohr mag/cell
     absolute magnetization    =     0.19 Bohr mag/cell

     iteration #  2     ecut=    50.00 Ry     beta= 0.30
     Davidson diagonalization with overlap
     ethr =  3.35E-04,  avg # of iterations =  3.0

     negative rho (up, down):  1.808E-06 3.524E-06

     total cpu time spent up to now is      166.9 secs

     total energy              =    -923.93400348 Ry
     estimated scf accuracy    <       0.17521098 Ry

     total magnetization       =    -0.00 Bohr mag/cell
     absolute magnetization    =     0.17 Bohr mag/cell

     iteration #  3     ecut=    50.00 Ry     beta= 0.30
     Davidson diagonalization with overlap
     ethr =  8.80E-05,  avg # of iterations =  2.0

     negative rho (up, down):  1.645E-06 2.942E-06

     total cpu time spent up to now is      169.0 secs

     total energy              =    -923.94238620 Ry
     estimated scf accuracy    <       0.11089032 Ry

     total magnetization       =    -0.00 Bohr mag/cell
     absolute magnetization    =     0.15 Bohr mag/cell

     iteration #  4     ecut=    50.00 Ry     beta= 0.30
     Davidson diagonalization with overlap
     ethr =  5.57E-05,  avg # of iterations =  1.0

     negative rho (up, down):  1.377E-06 2.112E-06

     total cpu time spent up to now is      171.0 secs

     total energy              =    -923.94506298 Ry
     estimated scf accuracy    <       0.02338947 Ry

     total magnetization       =     0.00 Bohr mag/cell
     absolute magnetization    =     0.14 Bohr mag/cell

     iteration #  5     ecut=    50.00 Ry     beta= 0.30
     Davidson diagonalization with overlap
     ethr =  1.18E-05,  avg # of iterations =  2.0

     negative rho (up, down):  1.306E-06 1.671E-06

     total cpu time spent up to now is      173.0 secs

     total energy              =    -923.94299201 Ry
     estimated scf accuracy    <       0.00916992 Ry

     total magnetization       =     0.00 Bohr mag/cell
     absolute magnetization    =     0.12 Bohr mag/cell

     iteration #  6     ecut=    50.00 Ry     beta= 0.30
     Davidson diagonalization with overlap
     ethr =  4.61E-06,  avg # of iterations =  2.0

     negative rho (up, down):  1.307E-06 1.487E-06

     total cpu time spent up to now is      175.1 secs

     total energy              =    -923.94298533 Ry
     estimated scf accuracy    <       0.00257438 Ry

     total magnetization       =     0.00 Bohr mag/cell
     absolute magnetization    =     0.10 Bohr mag/cell

     iteration #  7     ecut=    50.00 Ry     beta= 0.30
     Davidson diagonalization with overlap
     ethr =  1.29E-06,  avg # of iterations =  3.0

     negative rho (up, down):  1.314E-06 1.398E-06

     total cpu time spent up to now is      177.2 secs

     total energy              =    -923.94315680 Ry
     estimated scf accuracy    <       0.00056633 Ry

     total magnetization       =    -0.00 Bohr mag/cell
     absolute magnetization    =     0.09 Bohr mag/cell

     iteration #  8     ecut=    50.00 Ry     beta= 0.30
     Davidson diagonalization with overlap
     ethr =  2.85E-07,  avg # of iterations =  2.0

     negative rho (up, down):  1.332E-06 1.361E-06

     total cpu time spent up to now is      179.3 secs

     total energy              =    -923.94312304 Ry
     estimated scf accuracy    <       0.00011301 Ry

     total magnetization       =    -0.00 Bohr mag/cell
     absolute magnetization    =     0.08 Bohr mag/cell

     iteration #  9     ecut=    50.00 Ry     beta= 0.30
     Davidson diagonalization with overlap
     ethr =  5.68E-08,  avg # of iterations =  2.5

     negative rho (up, down):  1.327E-06 1.342E-06

     total cpu time spent up to now is      181.5 secs

     total energy              =    -923.94313627 Ry
     estimated scf accuracy    <       0.00001605 Ry

     total magnetization       =    -0.00 Bohr mag/cell
     absolute magnetization    =     0.06 Bohr mag/cell

     iteration # 10     ecut=    50.00 Ry     beta= 0.30
     Davidson diagonalization with overlap
     ethr =  8.07E-09,  avg # of iterations =  4.0

     negative rho (up, down):  1.322E-06 1.328E-06

     total cpu time spent up to now is      183.8 secs

     total energy              =    -923.94314071 Ry
     estimated scf accuracy    <       0.00000404 Ry

     total magnetization       =    -0.00 Bohr mag/cell
     absolute magnetization    =     0.05 Bohr mag/cell

     iteration # 11     ecut=    50.00 Ry     beta= 0.30
     Davidson diagonalization with overlap
     ethr =  2.03E-09,  avg # of iterations =  3.0

     negative rho (up, down):  1.318E-06 1.319E-06

     total cpu time spent up to now is      186.2 secs

     total energy              =    -923.94314289 Ry
     estimated scf accuracy    <       0.00000102 Ry

     total magnetization       =     0.00 Bohr mag/cell
     absolute magnetization    =     0.04 Bohr mag/cell

     iteration # 12     ecut=    50.00 Ry     beta= 0.30
     Davidson diagonalization with overlap
     ethr =  5.13E-10,  avg # of iterations =  3.0

     negative rho (up, down):  1.315E-06 1.315E-06

     Magnetic moment per site  (integrated on atomic sphere of radius R)
     atom   1 (R=0.046)  charge=  1.1348  magn=  0.0002
     atom   2 (R=0.046)  charge=  1.1871  magn=  0.0002
     atom   3 (R=0.046)  charge=  1.1796  magn= -0.0003
     atom   4 (R=0.046)  charge=  1.1297  magn=  0.0003
     atom   5 (R=0.046)  charge=  1.1908  magn=  0.0004
     atom   6 (R=0.046)  charge=  1.1771  magn= -0.0005
     atom   7 (R=0.046)  charge=  1.1570  magn=  0.0003
     atom   8 (R=0.046)  charge=  1.1816  magn=  0.0006
     atom   9 (R=0.046)  charge=  1.1802  magn= -0.0008
     atom  10 (R=0.046)  charge=  1.1295  magn=  0.0001
     atom  11 (R=0.046)  charge=  1.1901  magn=  0.0001
     atom  12 (R=0.046)  charge=  1.1839  magn= -0.0001
     atom  13 (R=0.046)  charge=  1.1244  magn= -0.0002
     atom  14 (R=0.046)  charge=  1.1706  magn=  0.0000
     atom  15 (R=0.046)  charge=  1.1507  magn= -0.0001
     atom  16 (R=0.046)  charge=  1.1284  magn= -0.0003
     atom  17 (R=0.046)  charge=  1.1705  magn= -0.0002
     atom  18 (R=0.046)  charge=  1.1518  magn=  0.0002
     atom  19 (R=0.046)  charge=  1.1115  magn= -0.0002
     atom  20 (R=0.046)  charge=  1.1699  magn= -0.0001
     atom  21 (R=0.046)  charge=  1.1456  magn=  0.0001
     atom  22 (R=0.046)  charge=  1.0900  magn= -0.0005
     atom  23 (R=0.046)  charge=  1.1880  magn=  0.0006
     atom  24 (R=0.046)  charge=  1.1099  magn= -0.0002
     atom  25 (R=0.046)  charge=  1.1296  magn=  0.0001
     atom  26 (R=0.046)  charge=  1.1901  magn=  0.0002
     atom  27 (R=0.046)  charge=  1.1876  magn= -0.0002
     atom  28 (R=0.046)  charge=  1.1290  magn=  0.0000
     atom  29 (R=0.046)  charge=  1.1902  magn= -0.0001
     atom  30 (R=0.046)  charge=  1.1875  magn=  0.0000
     atom  31 (R=0.046)  charge=  1.1290  magn=  0.0001
     atom  32 (R=0.046)  charge=  1.1896  magn=  0.0000
     atom  33 (R=0.046)  charge=  1.1860  magn= -0.0001
     atom  34 (R=0.046)  charge=  1.1346  magn=  0.0001
     atom  35 (R=0.046)  charge=  1.1955  magn= -0.0003
     atom  36 (R=0.046)  charge=  1.1757  magn=  0.0005
     atom  37 (R=0.046)  charge=  1.1135  magn= -0.0002
     atom  38 (R=0.046)  charge=  1.1683  magn= -0.0004
     atom  39 (R=0.046)  charge=  1.1512  magn=  0.0004
     atom  40 (R=0.046)  charge=  1.1139  magn= -0.0000
     atom  41 (R=0.046)  charge=  1.1700  magn= -0.0002
     atom  42 (R=0.046)  charge=  1.1515  magn=  0.0002
     atom  43 (R=0.046)  charge=  1.1141  magn= -0.0001
     atom  44 (R=0.046)  charge=  1.1693  magn= -0.0006
     atom  45 (R=0.046)  charge=  1.1484  magn=  0.0007
     atom  46 (R=0.046)  charge=  1.1149  magn= -0.0001
     atom  47 (R=0.046)  charge=  1.1700  magn= -0.0001
     atom  48 (R=0.046)  charge=  1.1521  magn=  0.0001
     atom  49 (R=0.027)  charge=  0.9672  magn=  0.0002
     atom  50 (R=0.027)  charge=  0.3828  magn= -0.0000

     total cpu time spent up to now is      188.5 secs

     End of self-consistent calculation

 ------ SPIN UP ------------


          k = 0.0000 0.0000 0.0000 ( 26858 PWs)   bands (ev):

   -23.5605 -21.8088 -21.4881 -17.6695 -17.5971 -17.5764 -17.4692 -17.3955
   -17.3187 -17.0458 -16.8869 -16.8176 -16.7830 -16.7495 -16.2752 -16.1598
   -16.1204 -15.9499 -15.8126 -15.7554 -15.5622 -15.3995 -14.5896 -14.5270
   -14.4779 -14.4618 -14.2782 -14.1824 -13.7710 -13.3072 -12.9901 -12.7689
   -12.7110 -12.3042 -12.2481 -12.1397 -12.1320 -11.4942 -11.2952 -11.0762
   -11.0100 -10.7933 -10.4963 -10.2883 -10.0010  -9.9201  -9.8959  -9.6387
    -9.6339  -9.5736  -9.5445  -9.4228  -9.3880  -7.8063  -7.2728  -6.9425
    -6.8476  -6.7809  -6.5990  -6.4637  -6.3597  -6.3268  -6.1242  -6.0764
    -5.9590  -5.8322  -5.7192  -5.6322  -5.6109  -5.5673  -5.5377  -5.4871
    -5.4539  -5.4261  -5.3328  -5.1835  -4.9246  -4.8937  -4.7149  -4.5820
    -4.5334  -4.4897  -4.1898  -3.7336  -3.6869  -3.5626  -3.4796  -3.3681
    -3.2133  -3.1562  -3.0695  -2.9068  -2.8873  -2.8533  -2.7707  -2.5633
    -2.0368  -1.9539  -1.8778  -1.7272  -0.5388  -0.4054  -0.0614   0.2928
     0.4471   0.6571   0.9104   0.9706   1.0107   1.0835   1.2409   1.2617
     1.4832   2.1865   2.2033   2.2201   2.3628   2.4344   2.4570

 ------ SPIN DOWN ----------


          k = 0.0000 0.0000 0.0000 ( 26858 PWs)   bands (ev):

   -23.5590 -21.8087 -21.4882 -17.6694 -17.5970 -17.5764 -17.4695 -17.3957
   -17.3191 -17.0454 -16.8869 -16.8177 -16.7830 -16.7496 -16.2753 -16.1599
   -16.1204 -15.9498 -15.8127 -15.7555 -15.5623 -15.3997 -14.5895 -14.5267
   -14.4780 -14.4621 -14.2781 -14.1823 -13.7710 -13.3070 -12.9901 -12.7690
   -12.7110 -12.3042 -12.2482 -12.1398 -12.1320 -11.4942 -11.2951 -11.0763
   -11.0100 -10.7934 -10.4966 -10.2885 -10.0010  -9.9201  -9.8958  -9.6387
    -9.6336  -9.5736  -9.5447  -9.4228  -9.3882  -7.8065  -7.2731  -6.9425
    -6.8472  -6.7808  -6.5993  -6.4635  -6.3597  -6.3270  -6.1240  -6.0761
    -5.9590  -5.8322  -5.7191  -5.6324  -5.6111  -5.5673  -5.5380  -5.4871
    -5.4540  -5.4262  -5.3328  -5.1836  -4.9246  -4.8937  -4.7151  -4.5818
    -4.5328  -4.4897  -4.1900  -3.7337  -3.6872  -3.5628  -3.4799  -3.3682
    -3.2134  -3.1563  -3.0697  -2.9069  -2.8873  -2.8533  -2.7710  -2.5631
    -2.0343  -1.9538  -1.8775  -1.7256  -0.5386  -0.4054  -0.0616   0.2928
     0.4470   0.6566   0.9103   0.9704   1.0106   1.0834   1.2406   1.2616
     1.4829   2.1862   2.2031   2.2199   2.3627   2.4344   2.4571

     the spin up/dw Fermi energies are    -1.7272   -1.7256 ev

!    total energy              =    -923.94314422 Ry
     estimated scf accuracy    <       0.00000041 Ry
     smearing contrib. (-TS)   =      -0.00005642 Ry
     internal energy E=F+TS    =    -923.94308781 Ry

     The total energy is F=E-TS. E is the sum of the following terms:
     one-electron contribution =   -1308.90692299 Ry
     hartree contribution      =     701.18532240 Ry
     xc contribution           =    -226.48953060 Ry
     ewald contribution        =     215.80591474 Ry
     one-center paw contrib.   =    -305.53787136 Ry

     total magnetization       =    -0.00 Bohr mag/cell
     absolute magnetization    =     0.03 Bohr mag/cell

     convergence has been achieved in  12 iterations

     negative rho (up, down):  1.315E-06 1.315E-06

     Forces acting on atoms (cartesian axes, Ry/au):

     atom    1 type  1   force =     0.01210622    0.01748996    0.00414128
     atom    2 type  1   force =    -0.03522806    0.03453153   -0.03594522
     atom    3 type  1   force =     0.05350215   -0.05357546    0.03964489
     atom    4 type  1   force =     0.01329637    0.01473102   -0.01200327
     atom    5 type  1   force =     0.02640299   -0.02833689   -0.03403114
     atom    6 type  1   force =    -0.04941583    0.04521627    0.02371730
     atom    7 type  1   force =    -0.01032536   -0.01415725   -0.02140293
     atom    8 type  1   force =    -0.06597687   -0.06555523    0.06645430
     atom    9 type  1   force =     0.09572798    0.09501461   -0.11488163
     atom   10 type  1   force =    -0.02073940   -0.02360621   -0.03135880
     atom   11 type  1   force =     0.01618155    0.01626250    0.01611436
     atom   12 type  1   force =    -0.02936767   -0.03004633   -0.03009166
     atom   13 type  1   force =    -0.00130789   -0.01239180   -0.02750848
     atom   14 type  1   force =    -0.07465162    0.07417955    0.07346968
     atom   15 type  1   force =     0.04648374   -0.05213247   -0.05304821
     atom   16 type  1   force =    -0.00501551   -0.00529057   -0.02511856
     atom   17 type  1   force =     0.07737185   -0.07832007    0.07650550
     atom   18 type  1   force =    -0.05771872    0.05178157   -0.06123864
     atom   19 type  1   force =     0.00635303    0.00807068   -0.01045722
     atom   20 type  1   force =     0.07578155    0.07566622   -0.07496385
     atom   21 type  1   force =    -0.03944130   -0.03932533    0.04094193
     atom   22 type  1   force =    -0.00920245   -0.00805640   -0.10046905
     atom   23 type  1   force =    -0.09284022   -0.09843903   -0.12596451
     atom   24 type  1   force =    -0.01828310   -0.00841475    0.06674933
     atom   25 type  1   force =     0.01474723   -0.01426948    0.01752996
     atom   26 type  1   force =    -0.01805671    0.01865022   -0.01809216
     atom   27 type  1   force =     0.03227381   -0.03189040    0.03446495
     atom   28 type  1   force =    -0.01649677    0.01510743    0.01612813
     atom   29 type  1   force =     0.01559938   -0.01510207   -0.01550533
     atom   30 type  1   force =    -0.03012023    0.02943819    0.03104467
     atom   31 type  1   force =     0.01201630    0.01515434   -0.01972347
     atom   32 type  1   force =    -0.01863484   -0.01884808    0.01848284
     atom   33 type  1   force =     0.03187709    0.03206847   -0.03376008
     atom   34 type  1   force =    -0.02223014   -0.01030612   -0.04167914
     atom   35 type  1   force =     0.08324522    0.08373131    0.07990923
     atom   36 type  1   force =    -0.05242983   -0.05125044   -0.05836420
     atom   37 type  1   force =     0.00399353   -0.00267933    0.00289958
     atom   38 type  1   force =    -0.08006669    0.08122196    0.08329829
     atom   39 type  1   force =     0.04873412   -0.04727791   -0.04782614
     atom   40 type  1   force =    -0.00046459   -0.00268148    0.00113263
     atom   41 type  1   force =     0.07857395   -0.07800018    0.08043515
     atom   42 type  1   force =    -0.04635483    0.04635875   -0.04663228
     atom   43 type  1   force =     0.00652917    0.00217689    0.01931918
     atom   44 type  1   force =     0.09423224    0.09361966   -0.09195644
     atom   45 type  1   force =    -0.04923634   -0.04888589    0.05786086
     atom   46 type  1   force =    -0.00197044   -0.00650567    0.00286433
     atom   47 type  1   force =    -0.07225753   -0.07220206   -0.07244429
     atom   48 type  1   force =     0.04340419    0.04345345    0.04424734
     atom   49 type  2   force =    -0.08060436   -0.00245016   -0.92056021
     atom   50 type  3   force =     0.11000359    0.02607249    1.22767121

     Total force =     1.650152     Total SCF correction =     0.000542
     Energy error            =      1.3E-01 Ry
     Gradient error          =      1.2E+00 Ry/Bohr

     number of scf cycles    =   2
     number of bfgs steps    =   1

     energy             old  =    -923.8173553575 Ry
     energy             new  =    -923.9431442240 Ry

     CASE: energy            _new < energy            _old

     new trust radius        =       0.6952474683 bohr
     new conv_thr            =       0.0000010000 Ry


ATOMIC_POSITIONS (angstrom)
C             6.2111000523        4.5391553838        6.0962335292
C             7.7195531705        3.0497574917        7.7197973074
C             7.0182476628        3.7584929517        7.0078903816
C             4.4873059047        6.1963115172        6.0599912939
C             3.0434145090        7.7244029738        7.7207623274
C             3.7471049128        7.0231925340        6.9938909384
C             6.1692161838        6.1727898903        4.4721688845
C             7.7238092049        7.7240471557        3.0506262733
C             7.0111645744        7.0106873502        3.7496286730
C             4.5855226292        4.5894961775        4.5727428876
C             3.0475734607        3.0475249902        3.0474919204
C             3.7550285163        3.7543725404        3.7563130555
C             6.1845754148        4.5824458238        4.5743862579
C             7.7886141502        2.9884280769        2.9883057352
C             7.0577899126        3.7121897678        3.7102374394
C             4.5780838652        6.1802820680        4.5614381714
C             2.9892810478        7.7883902864        2.9895268924
C             3.7118390161        7.0571734624        3.7067941097
C             4.6093036339        4.6107351462        6.1788126970
C             2.9877295071        2.9875828207        7.7899184771
C             3.7172128225        3.7183434792        7.0594361314
C             6.2649723060        6.1702037141        5.9960475596
C             7.8459608983        7.8440247335        7.8244151180
C             7.0947033075        7.0849082929        6.9966914348
C             0.6905711547       10.0845125027        0.6909952230
C             2.2247613425        8.5526194237        2.2249810516
C             1.5170641216        9.2578771531        1.5184727217
C            10.0809060081        0.6872476732        0.6885751817
C             8.5515240012        2.2248249354        2.2255914643
C             9.2572816657        1.5161857418        1.5178485796
C             0.6867451249        0.6858024029       10.0779148980
C             2.2252482720        2.2250008473        8.5505909284
C             1.5158539727        1.5149569870        9.2572958843
C            10.0726515358       10.0809215205       10.0596897363
C             8.5449955153        8.5448381511        8.5432856041
C             9.2734006370        9.2756156918        9.2680349705
C             0.6924719748       10.0872940492       10.0906634612
C             2.2851871766        8.4835446893        8.4831247084
C             1.5570418463        9.2155150616        9.2150877844
C            10.0856066683        0.6834555403       10.0896857627
C             8.4843811700        2.2832454218        8.4846051084
C             9.2125170368        1.5569307038        9.2128330270
C            10.0924313059       10.0915697646        0.7023942990
C             8.4823957080        8.4829540908        2.2864029516
C             9.2180597197        9.2186436586        1.5571752140
C             0.6811860655        0.6756975346        0.6859685078
C             2.2844679228        2.2836208364        2.2841074209
C             1.5579827712        1.5569343460        1.5573773318
O             5.7278936046        6.0356017966        7.8032854208
H             5.9022670144        6.0806508474        8.8644652627



     Writing config-only to output data dir ./pwscf.save/
     NEW-OLD atomic charge density approx. for the potential

     Check: negative core charge=   -0.000004

     negative rho (up, down):  2.063E-06 1.187E-06
     Generating pointlists ...

[...]
     absolute magnetization    =     0.01 Bohr mag/cell

     iteration #  7     ecut=    50.00 Ry     beta= 0.30
     Davidson diagonalization with overlap
     ethr =  5.77E-07,  avg # of iterations =  2.0

     negative rho (up, down):  1.480E-06 1.480E-06

     total cpu time spent up to now is     1399.1 secs

     total energy              =    -924.53647276 Ry
     estimated scf accuracy    <       0.00078631 Ry

     total magnetization       =     0.00 Bohr mag/cell
     absolute magnetization    =     0.01 Bohr mag/cell

     iteration #  8     ecut=    50.00 Ry     beta= 0.30
     Davidson diagonalization with overlap
     ethr =  3.95E-07,  avg # of iterations =  2.0

     negative rho (up, down):  1.437E-06 1.437E-06

     total cpu time spent up to now is     1401.2 secs

     total energy              =    -924.53657789 Ry
     estimated scf accuracy    <       0.00005937 Ry

     total magnetization       =    -0.00 Bohr mag/cell
     absolute magnetization    =     0.01 Bohr mag/cell

     iteration #  9     ecut=    50.00 Ry     beta= 0.30
     Davidson diagonalization with overlap
     ethr =  2.98E-08,  avg # of iterations =  4.0

     negative rho (up, down):  1.414E-06 1.414E-06

     total cpu time spent up to now is     1403.5 secs

     total energy              =    -924.53659169 Ry
     estimated scf accuracy    <       0.00002152 Ry

     total magnetization       =    -0.00 Bohr mag/cell
     absolute magnetization    =     0.01 Bohr mag/cell

     iteration # 10     ecut=    50.00 Ry     beta= 0.30
     Davidson diagonalization with overlap
     ethr =  1.08E-08,  avg # of iterations =  3.0

     negative rho (up, down):  1.392E-06 1.392E-06

     total cpu time spent up to now is     1405.8 secs

     total energy              =    -924.53659890 Ry
     estimated scf accuracy    <       0.00000120 Ry

     total magnetization       =     0.00 Bohr mag/cell
     absolute magnetization    =     0.01 Bohr mag/cell

     iteration # 11     ecut=    50.00 Ry     beta= 0.30
     Davidson diagonalization with overlap
     ethr =  6.05E-10,  avg # of iterations =  4.0

     negative rho (up, down):  1.380E-06 1.380E-06

     total cpu time spent up to now is     1408.2 secs

     total energy              =    -924.53660072 Ry
     estimated scf accuracy    <       0.00000071 Ry

     total magnetization       =    -0.00 Bohr mag/cell
     absolute magnetization    =     0.00 Bohr mag/cell

     iteration # 12     ecut=    50.00 Ry     beta= 0.30
     Davidson diagonalization with overlap
     ethr =  3.56E-10,  avg # of iterations =  2.0

     negative rho (up, down):  1.376E-06 1.376E-06

     total cpu time spent up to now is     1410.3 secs

     total energy              =    -924.53660222 Ry
     estimated scf accuracy    <       0.00000011 Ry

     total magnetization       =    -0.00 Bohr mag/cell
     absolute magnetization    =     0.00 Bohr mag/cell

     iteration # 13     ecut=    50.00 Ry     beta= 0.30
     Davidson diagonalization with overlap
     ethr =  5.57E-11,  avg # of iterations =  2.0

     negative rho (up, down):  1.372E-06 1.373E-06

     total cpu time spent up to now is     1412.5 secs

     total energy              =    -924.53660287 Ry
     estimated scf accuracy    <       0.00000002 Ry

     total magnetization       =     0.00 Bohr mag/cell
     absolute magnetization    =     0.00 Bohr mag/cell

     iteration # 14     ecut=    50.00 Ry     beta= 0.30
     Davidson diagonalization with overlap
     ethr =  8.80E-12,  avg # of iterations =  4.0

     negative rho (up, down):  1.364E-06 1.364E-06

     Magnetic moment per site  (integrated on atomic sphere of radius R)
     atom   1 (R=0.042)  charge=  0.8924  magn=  0.0000
     atom   2 (R=0.042)  charge=  0.9485  magn= -0.0000
     atom   3 (R=0.042)  charge=  0.9412  magn=  0.0000
     atom   4 (R=0.042)  charge=  0.8940  magn=  0.0000
     atom   5 (R=0.042)  charge=  0.9478  magn= -0.0000
     atom   6 (R=0.042)  charge=  0.9412  magn=  0.0000
     atom   7 (R=0.042)  charge=  0.8853  magn= -0.0000
     atom   8 (R=0.042)  charge=  0.9469  magn= -0.0000
     atom   9 (R=0.042)  charge=  0.9408  magn=  0.0000
     atom  10 (R=0.042)  charge=  0.8878  magn=  0.0000
     atom  11 (R=0.042)  charge=  0.9447  magn= -0.0000
     atom  12 (R=0.042)  charge=  0.9391  magn=  0.0000
     atom  13 (R=0.042)  charge=  0.8884  magn=  0.0000
     atom  14 (R=0.042)  charge=  0.9448  magn=  0.0000
     atom  15 (R=0.042)  charge=  0.9399  magn= -0.0000
     atom  16 (R=0.042)  charge=  0.8883  magn=  0.0000
     atom  17 (R=0.042)  charge=  0.9451  magn=  0.0000
     atom  18 (R=0.042)  charge=  0.9403  magn= -0.0000
     atom  19 (R=0.042)  charge=  0.8902  magn= -0.0000
     atom  20 (R=0.042)  charge=  0.9472  magn= -0.0000
     atom  21 (R=0.042)  charge=  0.9414  magn=  0.0000
     atom  22 (R=0.042)  charge=  0.8862  magn= -0.0000
     atom  23 (R=0.042)  charge=  0.9335  magn= -0.0000
     atom  24 (R=0.042)  charge=  0.8988  magn=  0.0000
     atom  25 (R=0.042)  charge=  0.8887  magn= -0.0000
     atom  26 (R=0.042)  charge=  0.9451  magn= -0.0000
     atom  27 (R=0.042)  charge=  0.9389  magn=  0.0000
     atom  28 (R=0.042)  charge=  0.8889  magn= -0.0000
     atom  29 (R=0.042)  charge=  0.9450  magn=  0.0000
     atom  30 (R=0.042)  charge=  0.9396  magn= -0.0000
     atom  31 (R=0.042)  charge=  0.8897  magn=  0.0000
     atom  32 (R=0.042)  charge=  0.9468  magn=  0.0000
     atom  33 (R=0.042)  charge=  0.9406  magn= -0.0000
     atom  34 (R=0.042)  charge=  0.8832  magn=  0.0000
     atom  35 (R=0.042)  charge=  0.9386  magn=  0.0000
     atom  36 (R=0.042)  charge=  0.9350  magn= -0.0000
     atom  37 (R=0.042)  charge=  0.8899  magn= -0.0000
     atom  38 (R=0.042)  charge=  0.9469  magn=  0.0000
     atom  39 (R=0.042)  charge=  0.9417  magn= -0.0000
     atom  40 (R=0.042)  charge=  0.8898  magn= -0.0000
     atom  41 (R=0.042)  charge=  0.9469  magn=  0.0000
     atom  42 (R=0.042)  charge=  0.9413  magn= -0.0000
     atom  43 (R=0.042)  charge=  0.8871  magn=  0.0000
     atom  44 (R=0.042)  charge=  0.9464  magn=  0.0000
     atom  45 (R=0.042)  charge=  0.9416  magn= -0.0000
     atom  46 (R=0.042)  charge=  0.8879  magn=  0.0000
     atom  47 (R=0.042)  charge=  0.9482  magn=  0.0000
     atom  48 (R=0.042)  charge=  0.9396  magn= -0.0000
     atom  49 (R=0.027)  charge=  0.9268  magn=  0.0000
     atom  50 (R=0.027)  charge=  0.2023  magn=  0.0000

     total cpu time spent up to now is     1414.9 secs

     End of self-consistent calculation

 ------ SPIN UP ------------


          k = 0.0000 0.0000 0.0000 ( 26858 PWs)   bands (ev):

   -23.5204 -21.4457 -21.3421 -17.5058 -17.4654 -17.3843 -17.2672 -17.2364
   -17.1275 -16.8887 -16.8460 -16.8242 -16.7603 -16.6884 -16.0681 -16.0218
   -15.9863 -15.8690 -15.8276 -15.7694 -15.5768 -15.4348 -14.5872 -14.5600
   -14.4699 -14.1781 -14.0509 -14.0339 -13.5671 -13.1324 -12.8027 -12.7341
   -12.6540 -12.2015 -12.0476 -12.0207 -12.0081 -11.4385 -11.0267 -10.9928
   -10.9201 -10.7198 -10.6223 -10.2421  -9.8271  -9.7626  -9.5759  -9.4152
    -9.4011  -9.3722  -9.3386  -9.2700  -9.1863  -8.9335  -7.1980  -6.8889
    -6.7980  -6.7213  -6.6903  -6.5254  -6.3532  -6.3484  -6.2240  -6.1411
    -6.0057  -5.7997  -5.7355  -5.6988  -5.6359  -5.5927  -5.5722  -5.5157
    -5.4847  -5.4795  -5.3717  -5.3542  -5.0457  -4.9555  -4.8238  -4.7342
    -4.6844  -4.4251  -4.3925  -4.2395  -3.7593  -3.6853  -3.6595  -3.4232
    -3.3567  -3.3340  -3.1365  -3.1268  -2.9958  -2.9665  -2.9042  -2.5503
    -2.2968  -2.0403  -1.8130  -1.3192  -0.2388  -0.1986  -0.0449   0.6136
     0.6272   0.7461   1.1527   1.1664   1.1920   1.1991   1.4065   1.4886
     1.9781   2.2360   2.3514   2.3770   2.3908   2.4186   2.4863

 ------ SPIN DOWN ----------


          k = 0.0000 0.0000 0.0000 ( 26858 PWs)   bands (ev):

   -23.5204 -21.4457 -21.3421 -17.5058 -17.4654 -17.3843 -17.2672 -17.2364
   -17.1275 -16.8887 -16.8460 -16.8242 -16.7603 -16.6884 -16.0681 -16.0218
   -15.9863 -15.8690 -15.8276 -15.7694 -15.5768 -15.4348 -14.5872 -14.5600
   -14.4699 -14.1781 -14.0509 -14.0339 -13.5671 -13.1324 -12.8027 -12.7341
   -12.6540 -12.2015 -12.0476 -12.0207 -12.0081 -11.4385 -11.0267 -10.9928
   -10.9201 -10.7198 -10.6223 -10.2421  -9.8271  -9.7626  -9.5759  -9.4152
    -9.4011  -9.3722  -9.3386  -9.2700  -9.1862  -8.9335  -7.1980  -6.8889
    -6.7980  -6.7213  -6.6903  -6.5254  -6.3532  -6.3484  -6.2240  -6.1411
    -6.0057  -5.7997  -5.7355  -5.6988  -5.6359  -5.5927  -5.5722  -5.5157
    -5.4847  -5.4795  -5.3717  -5.3542  -5.0457  -4.9555  -4.8238  -4.7342
    -4.6844  -4.4251  -4.3925  -4.2395  -3.7592  -3.6853  -3.6595  -3.4232
    -3.3567  -3.3340  -3.1365  -3.1268  -2.9958  -2.9665  -2.9042  -2.5504
    -2.2968  -2.0403  -1.8131  -1.3194  -0.2388  -0.1986  -0.0449   0.6136
     0.6272   0.7461   1.1527   1.1665   1.1920   1.1992   1.4065   1.4886
     1.9781   2.2360   2.3514   2.3770   2.3908   2.4186   2.4863

     the spin up/dw Fermi energies are    -1.3192   -1.3194 ev

!    total energy              =    -924.53660295 Ry
     estimated scf accuracy    <          5.2E-09 Ry
     smearing contrib. (-TS)   =      -0.00005642 Ry
     internal energy E=F+TS    =    -924.53654653 Ry

     The total energy is F=E-TS. E is the sum of the following terms:
     one-electron contribution =   -1257.08449893 Ry
     hartree contribution      =     675.26415297 Ry
     xc contribution           =    -226.22738958 Ry
     ewald contribution        =     189.05717688 Ry
     one-center paw contrib.   =    -305.54598787 Ry

     total magnetization       =     0.00 Bohr mag/cell
     absolute magnetization    =     0.00 Bohr mag/cell

     convergence has been achieved in  14 iterations

     negative rho (up, down):  1.364E-06 1.364E-06

     Forces acting on atoms (cartesian axes, Ry/au):

     atom    1 type  1   force =    -0.00003160    0.00001473    0.00013143
     atom    2 type  1   force =     0.00046777   -0.00013824    0.00066753
     atom    3 type  1   force =    -0.00022080    0.00041285   -0.00043174
     atom    4 type  1   force =     0.00008636    0.00007060    0.00003502
     atom    5 type  1   force =     0.00033914   -0.00012482    0.00015823
     atom    6 type  1   force =    -0.00006076    0.00018971   -0.00016380
     atom    7 type  1   force =    -0.00000784    0.00007938   -0.00002072
     atom    8 type  1   force =     0.00024807    0.00021671    0.00020131
     atom    9 type  1   force =     0.00014766    0.00008131   -0.00000561
     atom   10 type  1   force =     0.00000545   -0.00000670    0.00012938
     atom   11 type  1   force =     0.00014913    0.00011835    0.00027891
     atom   12 type  1   force =     0.00002402   -0.00003581   -0.00048353
     atom   13 type  1   force =    -0.00014806   -0.00001599    0.00017199
     atom   14 type  1   force =    -0.00037458    0.00045629    0.00055340
     atom   15 type  1   force =     0.00043070   -0.00029720   -0.00043531
     atom   16 type  1   force =    -0.00005920   -0.00003638   -0.00006078
     atom   17 type  1   force =    -0.00033478    0.00038868   -0.00017353
     atom   18 type  1   force =     0.00033455   -0.00035680    0.00020984
     atom   19 type  1   force =    -0.00016073   -0.00017444    0.00025544
     atom   20 type  1   force =    -0.00010764   -0.00019468    0.00044037
     atom   21 type  1   force =    -0.00010760   -0.00016016   -0.00024532
     atom   22 type  1   force =     0.00000114    0.00016137   -0.00009607
     atom   23 type  1   force =     0.00023761    0.00008669   -0.00000813
     atom   24 type  1   force =    -0.00005039    0.00015268    0.00002402
     atom   25 type  1   force =     0.00004528    0.00013893    0.00006441
     atom   26 type  1   force =     0.00008303    0.00005071    0.00003909
     atom   27 type  1   force =    -0.00003826    0.00032601    0.00020195
     atom   28 type  1   force =    -0.00010966    0.00007165   -0.00012042
     atom   29 type  1   force =    -0.00005796    0.00008822   -0.00014491
     atom   30 type  1   force =     0.00007598   -0.00010642   -0.00009762
     atom   31 type  1   force =    -0.00020263   -0.00013471   -0.00000053
     atom   32 type  1   force =    -0.00054077   -0.00067023    0.00026386
     atom   33 type  1   force =    -0.00003200   -0.00000501   -0.00028521
     atom   34 type  1   force =    -0.00002891   -0.00014141    0.00017933
     atom   35 type  1   force =     0.00009624   -0.00023202    0.00010312
     atom   36 type  1   force =     0.00029260   -0.00019357   -0.00002358
     atom   37 type  1   force =     0.00003228   -0.00006633    0.00010933
     atom   38 type  1   force =    -0.00025892    0.00003629    0.00026282
     atom   39 type  1   force =     0.00023860   -0.00026246    0.00001514
     atom   40 type  1   force =    -0.00012016   -0.00014227   -0.00007017
     atom   41 type  1   force =    -0.00029765    0.00006808   -0.00033533
     atom   42 type  1   force =     0.00002757   -0.00020632    0.00004047
     atom   43 type  1   force =    -0.00000157    0.00002043   -0.00052342
     atom   44 type  1   force =     0.00030344    0.00028483   -0.00060750
     atom   45 type  1   force =    -0.00029469   -0.00029355   -0.00008379
     atom   46 type  1   force =    -0.00010071    0.00013759   -0.00001853
     atom   47 type  1   force =     0.00020450    0.00028410    0.00011681
     atom   48 type  1   force =    -0.00026372    0.00006599   -0.00027663
     atom   49 type  2   force =    -0.00006154    0.00021562   -0.00018012
     atom   50 type  3   force =     0.00020203   -0.00022223    0.00023909

     Total force =     0.002798     Total SCF correction =     0.000115
     Energy error            =      1.7E-05 Ry
     Gradient error          =      6.7E-04 Ry/Bohr

     bfgs converged in  50 scf cycles and  46 bfgs steps
     (criteria: energy <  1.0E-04 Ry, force <  1.0E-03 Ry/Bohr)

     End of BFGS Geometry Optimization

     Final energy             =    -924.5366029520 Ry

     File ./pwscf.bfgs deleted, as requested
Begin final coordinates

ATOMIC_POSITIONS (angstrom)
C             6.1434779910        4.5360936673        6.1659979676
C             7.6837693364        2.9785518394        7.6953342448
C             6.9646030734        3.6838992266        6.9846522093
C             4.5257854803        6.1519497227        6.1613028409
C             2.9615992223        7.6962698971        7.6802217185
C             3.6703932668        6.9746654219        6.9750787000
C             6.2161608534        6.2220319412        4.6203199537
C             7.7571062502        7.7624402388        3.0719125376
C             7.0554919114        7.0608988181        3.8069796366
C             4.5835017439        4.5875097602        4.4950106526
C             3.0469812267        3.0448814838        2.9365779638
C             3.7653272375        3.7663059043        3.6357221990
C             6.2034474738        4.5903065340        4.5525954394
C             7.7518988881        3.0497442257        3.0035766692
C             7.0497413273        3.7703636812        3.7195837820
C             4.5846422651        6.2075095514        4.5480082038
C             3.0474687196        7.7488584151        2.9886758701
C             3.7664965346        7.0507811521        3.7097559321
C             4.5261343920        4.5347724568        6.1193433744
C             2.9720085719        2.9850814879        7.6403990319
C             3.6809207707        3.6918549229        6.9198425282
C             6.1408505969        6.1512478155        6.2332867357
C             7.7541311163        7.7756182729        7.6006828238
C             6.8176129745        6.8343986664        7.4142547923
C             0.6725663162       10.0567840273        0.6466073519
C             2.2416150489        8.5281463469        2.1895324625
C             1.5163077992        9.2265222739        1.4750706824
C            10.0566139392        0.6764000376        0.6573820914
C             8.5336837120        2.2431665661        2.2080811651
C             9.2325874552        1.5182445705        1.4938452925
C             0.6627554523        0.6720203505       10.0238660776
C             2.1861025837        2.2002428518        8.4468780611
C             1.4838952244        1.4961263506        9.1772974451
C            10.0416774976       10.0590775346        9.9703268767
C             8.5116533955        8.5361084460        8.3867224035
C             9.2460345290        9.2711275505        9.1147787935
C             0.6645324015       10.0540043771       10.0281321544
C             2.1848656468        8.4987813672        8.4776532575
C             1.4937518229        9.2240057748        9.1974655042
C            10.0428972993        0.6790248338       10.0391885096
C             8.4848482502        2.2047147856        8.4972835542
C             9.2101764899        1.5139839862        9.2170926474
C            10.0639243002       10.0695473321        0.6997456267
C             8.5405685817        8.5455519977        2.2660376926
C             9.2548584894        9.2591235488        1.5513143421
C             0.6807319731        0.6790411233        0.6473541624
C             2.2447545125        2.2398239780        2.1596206701
C             1.5235931049        1.5167104438        1.4656626047
O             6.2171708635        6.2377441083        8.5211452290
H             6.5922820869        6.6389403338        9.3267995348
End final coordinates



     Writing all to output data dir ./pwscf.save/

     init_run     :      2.88s CPU      2.99s WALL (       1 calls)
     electrons    :   1143.07s CPU   1193.08s WALL (      51 calls)
     update_pot   :     88.34s CPU     89.37s WALL (      49 calls)
     forces       :     85.90s CPU     89.22s WALL (      51 calls)

     Called by init_run:
     wfcinit      :      0.67s CPU      0.70s WALL (       1 calls)
     potinit      :      2.35s CPU      2.41s WALL (       2 calls)
     hinit0       :      0.73s CPU      0.74s WALL (       1 calls)

     Called by electrons:
     c_bands      :    623.81s CPU    642.87s WALL (     527 calls)
     sum_band     :    161.85s CPU    167.16s WALL (     527 calls)
     v_of_rho     :    130.07s CPU    134.10s WALL (     568 calls)
     newd         :     60.79s CPU     62.13s WALL (     568 calls)
     PAW_pot      :    187.73s CPU    188.94s WALL (     617 calls)
     mix_rho      :     13.85s CPU     14.86s WALL (     527 calls)

     Called by c_bands:
     init_us_2    :      9.39s CPU      9.61s WALL (    2310 calls)
     init_us_2:cp :      9.37s CPU      9.60s WALL (    2310 calls)
     regterg      :    608.22s CPU    626.84s WALL (    1054 calls)

     Called by *egterg:
     rdiaghg      :     39.68s CPU     39.96s WALL (    3890 calls)
     h_psi        :    347.76s CPU    363.92s WALL (    4012 calls)
     s_psi        :     57.57s CPU     58.01s WALL (    4012 calls)
     g_psi        :      1.20s CPU      1.21s WALL (    2956 calls)

     Called by h_psi:
     h_psi:calbec :     58.54s CPU     59.52s WALL (    4012 calls)
     vloc_psi     :    227.98s CPU    242.67s WALL (    4012 calls)
     add_vuspsi   :     58.10s CPU     58.55s WALL (    4012 calls)

     General routines
     calbec       :     91.58s CPU     93.08s WALL (    5572 calls)
     fft          :     54.81s CPU     60.79s WALL (   12403 calls)
     ffts         :      2.72s CPU      3.05s WALL (    2190 calls)
     fftw         :    237.37s CPU    253.02s WALL (  373258 calls)
     interpolate  :      7.47s CPU      8.12s WALL (    1136 calls)

     Parallel routines

     PWSCF        :  22m35.47s CPU  23m38.80s WALL


   This run was terminated on:   0:33:44  25May2025            

=------------------------------------------------------------------------------=
   JOB DONE.
=------------------------------------------------------------------------------=
