ITEM: TIMESTEP
0
ITEM: NUMBER OF ATOMS
96
ITEM: BOX BOUNDS pp pp pp
0.0000000000000000e+00 1.5897210747100001e+01
0.0000000000000000e+00 1.5897210747100001e+01
0.0000000000000000e+00 1.5897210747100001e+01
ITEM: ATOMS id type x y z 
1 1 2.04511 2.04511 2.04511 
10 1 5.9035 5.9035 5.9035 
17 1 3.58597 3.58597 3.58597 
26 1 4.36263 4.36263 4.36263 
33 1 0.603682 2.27803 2.27803 
41 1 2.27803 0.603682 2.27803 
49 1 2.27803 2.27803 0.603682 
58 1 7.34492 5.67058 5.67058 
66 1 5.67058 7.34492 5.67058 
74 1 5.67058 5.67058 7.34492 
81 1 2.88581 2.88581 2.88581 
90 1 5.06279 5.06279 5.06279 
4 1 2.04511 2.04511 13.8521 
11 1 5.9035 5.9035 9.99372 
20 1 3.58597 3.58597 12.3112 
27 1 4.36263 4.36263 11.5346 
36 1 0.603682 2.27803 13.6192 
46 1 2.27803 0.603682 13.6192 
56 1 2.27803 2.27803 15.2935 
59 1 7.34492 5.67058 10.2266 
69 1 5.67058 7.34492 10.2266 
79 1 5.67058 5.67058 8.55229 
84 1 2.88581 2.88581 13.0114 
91 1 5.06279 5.06279 10.8344 
6 1 2.04511 13.8521 2.04511 
13 1 5.9035 9.99372 5.9035 
22 1 3.58597 12.3112 3.58597 
29 1 4.36263 11.5346 4.36263 
38 1 0.603682 13.6192 2.27803 
48 1 2.27803 15.2935 2.27803 
52 1 2.27803 13.6192 0.603682 
61 1 7.34492 10.2266 5.67058 
71 1 5.67058 8.55229 5.67058 
75 1 5.67058 10.2266 7.34492 
86 1 2.88581 13.0114 2.88581 
93 1 5.06279 10.8344 5.06279 
7 1 2.04511 13.8521 13.8521 
16 1 5.9035 9.99372 9.99372 
23 1 3.58597 12.3112 12.3112 
32 1 4.36263 11.5346 11.5346 
39 1 0.603682 13.6192 13.6192 
43 1 2.27803 15.2935 13.6192 
53 1 2.27803 13.6192 15.2935 
64 1 7.34492 10.2266 10.2266 
68 1 5.67058 8.55229 10.2266 
78 1 5.67058 10.2266 8.55229 
87 1 2.88581 13.0114 13.0114 
96 1 5.06279 10.8344 10.8344 
8 1 13.8521 2.04511 2.04511 
15 1 9.99372 5.9035 5.9035 
24 1 12.3112 3.58597 3.58597 
31 1 11.5346 4.36263 4.36263 
40 1 15.2935 2.27803 2.27803 
44 1 13.6192 0.603682 2.27803 
54 1 13.6192 2.27803 0.603682 
63 1 8.55229 5.67058 5.67058 
67 1 10.2266 7.34492 5.67058 
77 1 10.2266 5.67058 7.34492 
88 1 13.0114 2.88581 2.88581 
95 1 10.8344 5.06279 5.06279 
5 1 13.8521 2.04511 13.8521 
14 1 9.99372 5.9035 9.99372 
21 1 12.3112 3.58597 12.3112 
30 1 11.5346 4.36263 11.5346 
37 1 15.2935 2.27803 13.6192 
47 1 13.6192 0.603682 13.6192 
51 1 13.6192 2.27803 15.2935 
62 1 8.55229 5.67058 10.2266 
72 1 10.2266 7.34492 10.2266 
76 1 10.2266 5.67058 8.55229 
85 1 13.0114 2.88581 13.0114 
94 1 10.8344 5.06279 10.8344 
3 1 13.8521 13.8521 2.04511 
12 1 9.99372 9.99372 5.9035 
19 1 12.3112 12.3112 3.58597 
28 1 11.5346 11.5346 4.36263 
35 1 15.2935 13.6192 2.27803 
45 1 13.6192 15.2935 2.27803 
55 1 13.6192 13.6192 0.603682 
60 1 8.55229 10.2266 5.67058 
70 1 10.2266 8.55229 5.67058 
80 1 10.2266 10.2266 7.34492 
83 1 13.0114 13.0114 2.88581 
92 1 10.8344 10.8344 5.06279 
2 1 13.8521 13.8521 13.8521 
9 1 9.99372 9.99372 9.99372 
18 1 12.3112 12.3112 12.3112 
25 1 11.5346 11.5346 11.5346 
34 1 15.2935 13.6192 13.6192 
42 1 13.6192 15.2935 13.6192 
50 1 13.6192 13.6192 15.2935 
57 1 8.55229 10.2266 10.2266 
65 1 10.2266 8.55229 10.2266 
73 1 10.2266 10.2266 8.55229 
82 1 13.0114 13.0114 13.0114 
89 1 10.8344 10.8344 10.8344 
ITEM: TIMESTEP
10
ITEM: NUMBER OF ATOMS
96
ITEM: BOX BOUNDS pp pp pp
0.0000000000000000e+00 1.5897210747100001e+01
0.0000000000000000e+00 1.5897210747100001e+01
0.0000000000000000e+00 1.5897210747100001e+01
ITEM: ATOMS id type x y z 
1 1 2.10706 2.10706 2.10689 
10 1 5.84159 5.84159 5.84165 
17 1 3.59269 3.59269 3.59272 
26 1 4.35589 4.35589 4.35594 
33 1 0.594114 2.3152 2.31522 
41 1 2.3152 0.594114 2.31522 
49 1 2.31515 2.31515 0.594084 
58 1 7.35456 5.63341 5.63341 
66 1 5.63341 7.35456 5.63341 
74 1 5.63343 5.63343 7.35451 
81 1 2.90236 2.90236 2.90213 
90 1 5.04628 5.04628 5.04639 
4 1 2.10704 2.10703 13.7903 
11 1 5.84155 5.84161 10.0555 
20 1 3.59271 3.5927 12.3045 
27 1 4.35586 4.35594 11.5413 
36 1 0.594081 2.3152 13.582 
46 1 2.3152 0.594081 13.582 
56 1 2.31517 2.31517 15.3032 
59 1 7.35452 5.63341 10.2638 
69 1 5.63341 7.35452 10.2638 
79 1 5.63343 5.63343 8.54268 
84 1 2.90227 2.90229 12.9949 
91 1 5.04639 5.04625 10.8509 
6 1 2.10692 13.7901 2.10698 
13 1 5.84134 10.0554 5.8417 
22 1 3.59278 12.3045 3.59265 
29 1 4.35566 11.5411 4.356 
38 1 0.594139 13.582 2.31517 
48 1 2.31522 15.3031 2.31521 
52 1 2.31521 13.582 0.594097 
61 1 7.3545 10.2638 5.63341 
71 1 5.63342 8.54268 5.63342 
75 1 5.63341 10.2638 7.35447 
86 1 2.90211 12.9949 2.9024 
93 1 5.04682 10.8512 5.04613 
7 1 2.10698 13.7905 13.7899 
16 1 5.84165 10.0555 10.0558 
23 1 3.59267 12.3048 12.3042 
32 1 4.35595 11.5411 11.5415 
39 1 0.594054 13.5821 13.5821 
43 1 2.3152 15.3031 13.582 
53 1 2.3152 13.582 15.3031 
64 1 7.35453 10.2638 10.2638 
68 1 5.63339 8.54269 10.2638 
78 1 5.63339 10.2638 8.54271 
87 1 2.90215 12.9943 12.9954 
96 1 5.04643 10.8513 10.8506 
8 1 13.7901 2.10692 2.10698 
15 1 10.0554 5.84134 5.8417 
24 1 12.3045 3.59278 3.59265 
31 1 11.5411 4.35566 4.356 
40 1 15.3031 2.31522 2.31521 
44 1 13.582 0.594139 2.31517 
54 1 13.582 2.31521 0.594097 
63 1 8.54268 5.63342 5.63342 
67 1 10.2638 7.3545 5.63341 
77 1 10.2638 5.63341 7.35447 
88 1 12.9949 2.90211 2.9024 
95 1 10.8512 5.04682 5.04613 
5 1 13.7905 2.10698 13.7899 
14 1 10.0555 5.84165 10.0558 
21 1 12.3048 3.59267 12.3042 
30 1 11.5411 4.35595 11.5415 
37 1 15.3031 2.3152 13.582 
47 1 13.5821 0.594054 13.5821 
51 1 13.582 2.3152 15.3031 
62 1 8.54269 5.6334 10.2638 
72 1 10.2638 7.35453 10.2638 
76 1 10.2638 5.63339 8.54271 
85 1 12.9943 2.90215 12.9954 
94 1 10.8513 5.04643 10.8506 
3 1 13.7902 13.7902 2.10692 
12 1 10.0556 10.0556 5.84172 
19 1 12.3045 12.3045 3.59263 
28 1 11.5413 11.5413 4.35597 
35 1 15.3032 13.582 2.3152 
45 1 13.582 15.3032 2.3152 
55 1 13.5821 13.5821 0.594041 
60 1 8.54274 10.2638 5.6334 
70 1 10.2638 8.54274 5.6334 
80 1 10.2637 10.2637 7.35461 
83 1 12.9949 12.9949 2.90219 
92 1 10.8509 10.8509 5.04641 
2 1 13.7902 13.7902 13.7903 
9 1 10.0556 10.0556 10.0555 
18 1 12.3045 12.3045 12.3045 
25 1 11.5413 11.5413 11.5413 
34 1 15.3032 13.582 13.582 
42 1 13.582 15.3032 13.582 
50 1 13.5821 13.5821 15.3031 
57 1 8.54264 10.2638 10.2638 
65 1 10.2638 8.54264 10.2638 
73 1 10.2637 10.2637 8.54266 
82 1 12.9949 12.9949 12.995 
89 1 10.8509 10.8509 10.8508 
ITEM: TIMESTEP
20
ITEM: NUMBER OF ATOMS
96
ITEM: BOX BOUNDS pp pp pp
0.0000000000000000e+00 1.5897210747100001e+01
0.0000000000000000e+00 1.5897210747100001e+01
0.0000000000000000e+00 1.5897210747100001e+01
ITEM: ATOMS id type x y z 
1 1 2.09344 2.0934 2.0931 
10 1 5.85527 5.85508 5.85541 
17 1 3.58559 3.58559 3.58588 
26 1 4.36282 4.36282 4.36303 
33 1 0.59291 2.35414 2.35418 
41 1 2.35414 0.592911 2.35418 
49 1 2.35407 2.35406 0.593042 
58 1 7.35579 5.59447 5.59449 
66 1 5.5944 7.35587 5.59444 
74 1 5.59438 5.59438 7.35551 
81 1 2.89599 2.89606 2.89598 
90 1 5.0529 5.05284 5.05203 
4 1 2.09341 2.09368 13.8043 
11 1 5.85528 5.85564 10.0422 
20 1 3.58581 3.5854 12.3113 
27 1 4.36287 4.36257 11.5338 
36 1 0.592823 2.35418 13.5428 
46 1 2.35423 0.59285 13.5428 
56 1 2.35395 2.35395 15.3043 
59 1 7.35556 5.59443 10.3028 
69 1 5.59477 7.35558 10.3025 
79 1 5.59441 5.59432 8.54169 
84 1 2.89644 2.89619 13.0018 
91 1 5.05213 5.05331 10.8448 
6 1 2.09356 13.8038 2.09276 
13 1 5.85561 10.0419 5.85509 
22 1 3.58491 12.3115 3.58629 
29 1 4.3626 11.5345 4.3635 
38 1 0.593026 13.5431 2.35418 
48 1 2.35422 15.3042 2.35425 
52 1 2.35369 13.5436 0.593045 
61 1 7.35557 10.3025 5.59484 
71 1 5.59434 8.54157 5.59449 
75 1 5.59441 10.3028 7.35565 
86 1 2.89646 13.0003 2.89452 
93 1 5.05369 10.8453 5.05237 
7 1 2.09356 13.8038 13.8044 
16 1 5.85481 10.0415 10.0418 
23 1 3.58583 12.3119 12.3113 
32 1 4.36224 11.5341 11.5337 
39 1 0.593068 13.5429 13.5429 
43 1 2.35421 15.3042 13.5429 
53 1 2.3536 13.5436 15.3042 
64 1 7.35548 10.3028 10.303 
68 1 5.59459 8.54139 10.3027 
78 1 5.59466 10.3025 8.5417 
87 1 2.89702 13.0002 13.0033 
96 1 5.05259 10.8454 10.8437 
8 1 13.8038 2.09356 2.09277 
15 1 10.0419 5.8556 5.85508 
24 1 12.3115 3.58491 3.58629 
31 1 11.5345 4.3626 4.36349 
40 1 15.3042 2.35422 2.35425 
44 1 13.5431 0.593088 2.35418 
54 1 13.5436 2.35369 0.593041 
63 1 8.54148 5.59433 5.59449 
67 1 10.3025 7.3556 5.59484 
77 1 10.3028 5.59441 7.3556 
88 1 13.0003 2.89646 2.89452 
95 1 10.8453 5.05369 5.05237 
5 1 13.8037 2.09355 13.8044 
14 1 10.0417 5.85482 10.0417 
21 1 12.3119 3.58582 12.3113 
30 1 11.5341 4.3622 11.5338 
37 1 15.3043 2.3542 13.5429 
47 1 13.5429 0.593046 13.5429 
51 1 13.5436 2.35361 15.3042 
62 1 8.5414 5.59447 10.3028 
72 1 10.3029 7.35549 10.303 
76 1 10.3025 5.59465 8.54165 
85 1 13.0003 2.89702 13.0033 
94 1 10.8455 5.05261 10.8437 
3 1 13.804 13.804 2.09363 
12 1 10.0421 10.0417 5.85545 
19 1 12.3117 12.3118 3.58627 
28 1 11.5346 11.5342 4.36323 
35 1 15.3043 13.5431 2.3542 
45 1 13.5431 15.3044 2.35422 
55 1 13.543 13.543 0.593054 
60 1 8.54156 10.3026 5.59455 
70 1 10.3025 8.5416 5.59457 
80 1 10.3027 10.3028 7.35556 
83 1 13.0009 13.0008 2.89543 
92 1 10.8437 10.8445 5.05166 
2 1 13.8039 13.8037 13.804 
9 1 10.0423 10.0419 10.0417 
18 1 12.3116 12.3114 12.3113 
25 1 11.5345 11.534 11.5346 
34 1 15.3043 13.5431 13.543 
42 1 13.543 15.3043 13.543 
50 1 13.543 13.543 15.3042 
57 1 8.54143 10.3029 10.3028 
65 1 10.3029 8.5415 10.3028 
73 1 10.3028 10.3028 8.54162 
82 1 13.001 13.0014 13.0011 
89 1 10.8443 10.8451 10.8446 
ITEM: TIMESTEP
30
ITEM: NUMBER OF ATOMS
96
ITEM: BOX BOUNDS pp pp pp
0.0000000000000000e+00 1.5897210747100001e+01
0.0000000000000000e+00 1.5897210747100001e+01
0.0000000000000000e+00 1.5897210747100001e+01
ITEM: ATOMS id type x y z 
1 1 2.09363 2.09356 2.09374 
10 1 5.85497 5.85499 5.85499 
17 1 3.58612 3.58608 3.58668 
26 1 4.36237 4.36235 4.36217 
33 1 0.592698 2.35439 2.35448 
41 1 2.35439 0.592693 2.35448 
49 1 2.35431 2.3543 0.592956 
58 1 7.3559 5.59416 5.59423 
66 1 5.59415 7.3559 5.59422 
74 1 5.59419 5.59413 7.35583 
81 1 2.89643 2.89658 2.89582 
90 1 5.05232 5.0523 5.05235 
4 1 2.09361 2.09369 13.8037 
11 1 5.85493 5.8549 10.0422 
20 1 3.58659 3.58611 12.311 
27 1 4.36218 4.36213 11.5346 
36 1 0.592737 2.35441 13.5427 
46 1 2.35442 0.592781 13.5426 
56 1 2.3543 2.3543 15.3046 
59 1 7.35576 5.5942 10.3031 
69 1 5.59439 7.35592 10.3029 
79 1 5.59416 5.59415 8.54139 
84 1 2.89634 2.89623 13.001 
91 1 5.05203 5.05269 10.845 
6 1 2.09385 13.8035 2.09335 
13 1 5.85513 10.0423 5.85488 
22 1 3.58595 12.3105 3.58622 
29 1 4.36238 11.5353 4.36269 
38 1 0.592848 13.5428 2.35438 
48 1 2.35451 15.3044 2.35446 
52 1 2.35408 13.5432 0.592832 
61 1 7.35594 10.3028 5.59443 
71 1 5.59412 8.54143 5.59419 
75 1 5.59425 10.303 7.3557 
86 1 2.89609 13.0006 2.89614 
93 1 5.05255 10.8452 5.05244 
7 1 2.09382 13.8034 13.8039 
16 1 5.85482 10.0422 10.0421 
23 1 3.58679 12.3108 12.3116 
32 1 4.36175 11.5351 11.5341 
39 1 0.592849 13.5427 13.5427 
43 1 2.35447 15.3045 13.5426 
53 1 2.35399 13.5432 15.3044 
64 1 7.35577 10.3031 10.3032 
68 1 5.59431 8.54149 10.3029 
78 1 5.5943 10.3028 8.54125 
87 1 2.89665 13.0008 13.0015 
96 1 5.05206 10.8451 10.8444 
8 1 13.8035 2.09386 2.09335 
15 1 10.0423 5.8551 5.85487 
24 1 12.3105 3.58595 3.58621 
31 1 11.5354 4.36238 4.36269 
40 1 15.3044 2.35451 2.35446 
44 1 13.5428 0.592858 2.35439 
54 1 13.5432 2.35409 0.592835 
63 1 8.54144 5.59413 5.59419 
67 1 10.3028 7.35592 5.59442 
77 1 10.303 5.59424 7.3557 
88 1 13.0006 2.8961 2.89615 
95 1 10.8452 5.05253 5.05242 
5 1 13.8034 2.09382 13.8039 
14 1 10.0423 5.85494 10.0422 
21 1 12.3108 3.58678 12.3116 
30 1 11.5352 4.36179 11.5341 
37 1 15.3044 2.35445 13.5426 
47 1 13.5427 0.592803 13.5427 
51 1 13.5432 2.354 15.3044 
62 1 8.54134 5.59417 10.303 
72 1 10.3031 7.35576 10.3031 
76 1 10.3028 5.59429 8.54124 
85 1 13.0008 2.89663 13.0015 
94 1 10.8451 5.05198 10.8444 
3 1 13.8036 13.8036 2.09363 
12 1 10.0423 10.0422 5.85491 
19 1 12.3111 12.311 3.58657 
28 1 11.535 11.5347 4.3623 
35 1 15.3045 13.5429 2.35447 
45 1 13.5428 15.3045 2.35448 
55 1 13.5428 13.5428 0.59283 
60 1 8.54154 10.3028 5.59434 
70 1 10.3029 8.54149 5.5943 
80 1 10.303 10.303 7.35582 
83 1 13.0009 13.0009 2.89621 
92 1 10.8444 10.845 5.05203 
2 1 13.8035 13.8036 13.8036 
9 1 10.0422 10.0422 10.0423 
18 1 12.311 12.3109 12.3109 
25 1 11.5348 11.5348 11.5351 
34 1 15.3045 13.5428 13.5427 
42 1 13.5428 15.3045 13.5427 
50 1 13.5428 13.5427 15.3045 
57 1 8.54134 10.303 10.303 
65 1 10.3031 8.54133 10.3031 
73 1 10.3031 10.3031 8.54136 
82 1 13.0009 13.0011 13.0008 
89 1 10.8449 10.845 10.8447 
ITEM: TIMESTEP
40
ITEM: NUMBER OF ATOMS
96
ITEM: BOX BOUNDS pp pp pp
0.0000000000000000e+00 1.5897210747100001e+01
0.0000000000000000e+00 1.5897210747100001e+01
0.0000000000000000e+00 1.5897210747100001e+01
ITEM: ATOMS id type x y z 
1 1 2.09367 2.09367 2.09369 
10 1 5.85494 5.85494 5.85497 
17 1 3.58617 3.58621 3.58658 
26 1 4.36233 4.3623 4.36217 
33 1 0.592688 2.35441 2.35451 
41 1 2.35442 0.592688 2.35451 
49 1 2.35434 2.35433 0.592933 
58 1 7.3559 5.59413 5.59421 
66 1 5.59412 7.3559 5.5942 
74 1 5.59416 5.59411 7.35584 
81 1 2.89641 2.89642 2.89605 
90 1 5.05233 5.05232 5.05229 
4 1 2.09363 2.09372 13.8036 
11 1 5.85486 5.85497 10.0423 
20 1 3.58659 3.58615 12.3109 
27 1 4.36211 4.36221 11.5347 
36 1 0.592727 2.35443 13.5426 
46 1 2.35444 0.592759 13.5426 
56 1 2.35432 2.35433 15.3046 
59 1 7.35579 5.59417 10.3031 
69 1 5.59436 7.3559 10.303 
79 1 5.59414 5.59412 8.54138 
84 1 2.89641 2.89622 13.001 
91 1 5.05209 5.05249 10.8449 
6 1 2.09385 13.8034 2.09345 
13 1 5.85511 10.0424 5.85484 
22 1 3.58599 12.3105 3.58624 
29 1 4.36239 11.5354 4.36264 
38 1 0.592842 13.5428 2.35441 
48 1 2.35453 15.3044 2.35448 
52 1 2.35412 13.5431 0.592824 
61 1 7.35595 10.3028 5.59439 
71 1 5.59409 8.54142 5.59416 
75 1 5.59423 10.303 7.3557 
86 1 2.89611 13.0006 2.89618 
93 1 5.05245 10.8452 5.05244 
7 1 2.09382 13.8034 13.8038 
16 1 5.85485 10.0423 10.0422 
23 1 3.58681 12.3107 12.3115 
32 1 4.36176 11.5352 11.5342 
39 1 0.592835 13.5427 13.5427 
43 1 2.35449 15.3045 13.5426 
53 1 2.35404 13.5432 15.3044 
64 1 7.35579 10.3031 10.3032 
68 1 5.59428 8.54146 10.303 
78 1 5.59427 10.3028 8.54125 
87 1 2.89666 13.0008 13.0014 
96 1 5.05198 10.845 10.8444 
8 1 13.8034 2.09384 2.09346 
15 1 10.0423 5.85506 5.85483 
24 1 12.3105 3.58596 3.58625 
31 1 11.5354 4.36238 4.36263 
40 1 15.3044 2.35453 2.35448 
44 1 13.5428 0.592842 2.35441 
54 1 13.5431 2.35413 0.592826 
63 1 8.54143 5.5941 5.59416 
67 1 10.3029 7.35591 5.59438 
77 1 10.303 5.59422 7.35571 
88 1 13.0006 2.89616 2.89616 
95 1 10.8452 5.05246 5.05244 
5 1 13.8034 2.09382 13.8038 
14 1 10.0423 5.85486 10.0422 
21 1 12.3107 3.58681 12.3116 
30 1 11.5352 4.36171 11.5341 
37 1 15.3044 2.35447 13.5426 
47 1 13.5427 0.592814 13.5427 
51 1 13.5432 2.35405 15.3044 
62 1 8.54132 5.59415 10.303 
72 1 10.3031 7.35578 10.3032 
76 1 10.3029 5.59427 8.54125 
85 1 13.0008 2.89662 13.0014 
94 1 10.8451 5.05208 10.8445 
3 1 13.8036 13.8035 2.09362 
12 1 10.0423 10.0423 5.85485 
19 1 12.311 12.3109 3.58652 
28 1 11.5349 11.5348 4.36222 
35 1 15.3045 13.5428 2.35449 
45 1 13.5428 15.3045 2.3545 
55 1 13.5428 13.5428 0.5928 
60 1 8.54152 10.3028 5.59431 
70 1 10.3029 8.54149 5.59427 
80 1 10.3031 10.303 7.35583 
83 1 13.001 13.0009 2.89637 
92 1 10.8446 10.845 5.05211 
2 1 13.8035 13.8036 13.8035 
9 1 10.0422 10.0423 10.0422 
18 1 12.3109 12.3109 12.3108 
25 1 11.5349 11.5349 11.535 
34 1 15.3045 13.5428 13.5427 
42 1 13.5428 15.3045 13.5427 
50 1 13.5427 13.5427 15.3045 
57 1 8.54131 10.3031 10.3031 
65 1 10.3031 8.54131 10.3031 
73 1 10.3031 10.3031 8.54136 
82 1 13.0009 13.001 13.0009 
89 1 10.8449 10.8449 10.8449 
ITEM: TIMESTEP
50
ITEM: NUMBER OF ATOMS
96
ITEM: BOX BOUNDS pp pp pp
0.0000000000000000e+00 1.5897210747100001e+01
0.0000000000000000e+00 1.5897210747100001e+01
0.0000000000000000e+00 1.5897210747100001e+01
ITEM: ATOMS id type x y z 
1 1 2.09372 2.09371 2.09367 
10 1 5.85492 5.85492 5.85495 
17 1 3.58623 3.58626 3.58652 
26 1 4.36231 4.36228 4.36217 
33 1 0.592689 2.35443 2.35453 
41 1 2.35444 0.592689 2.35453 
49 1 2.35436 2.35435 0.592918 
58 1 7.35589 5.59411 5.59419 
66 1 5.5941 7.3559 5.59418 
74 1 5.59415 5.59409 7.35585 
81 1 2.89634 2.89636 2.8962 
90 1 5.05233 5.05232 5.05227 
4 1 2.09365 2.09374 13.8036 
11 1 5.85481 5.855 10.0424 
20 1 3.5866 3.58616 12.3109 
27 1 4.36206 4.36226 11.5347 
36 1 0.592722 2.35445 13.5426 
46 1 2.35445 0.592757 13.5426 
56 1 2.35433 2.35434 15.3046 
59 1 7.35579 5.59416 10.3031 
69 1 5.59434 7.3559 10.303 
79 1 5.59412 5.59411 8.54138 
84 1 2.89642 2.89623 13.001 
91 1 5.05215 5.05234 10.8448 
6 1 2.09383 13.8034 2.09352 
13 1 5.85507 10.0424 5.85482 
22 1 3.58598 12.3104 3.58627 
29 1 4.36238 11.5354 4.36262 
38 1 0.592836 13.5428 2.35443 
48 1 2.35455 15.3044 2.3545 
52 1 2.35415 13.5431 0.592819 
61 1 7.35594 10.3029 5.59437 
71 1 5.59408 8.54142 5.59414 
75 1 5.59421 10.303 7.35571 
86 1 2.89618 13.0006 2.89618 
93 1 5.05242 10.8452 5.05243 
7 1 2.09384 13.8034 13.8037 
16 1 5.85483 10.0423 10.0422 
23 1 3.58685 12.3107 12.3115 
32 1 4.36174 11.5352 11.5342 
39 1 0.59283 13.5427 13.5427 
43 1 2.35451 15.3045 13.5426 
53 1 2.35407 13.5431 15.3044 
64 1 7.35579 10.3031 10.3032 
68 1 5.59426 8.54145 10.303 
78 1 5.59425 10.3029 8.54125 
87 1 2.89663 13.0008 13.0014 
96 1 5.05198 10.845 10.8445 
8 1 13.8034 2.09384 2.09352 
15 1 10.0424 5.85503 5.85481 
24 1 12.3104 3.58598 3.58627 
31 1 11.5354 4.36237 4.36261 
40 1 15.3044 2.35455 2.3545 
44 1 13.5428 0.592836 2.35443 
54 1 13.5431 2.35415 0.592821 
63 1 8.54142 5.59408 5.59414 
67 1 10.3029 7.35592 5.59435 
77 1 10.303 5.5942 7.35571 
88 1 13.0006 2.89617 2.89618 
95 1 10.8452 5.05243 5.05244 
5 1 13.8034 2.09382 13.8037 
14 1 10.0423 5.85488 10.0422 
21 1 12.3107 3.58683 12.3115 
30 1 11.5352 4.36174 11.5342 
37 1 15.3044 2.35449 13.5426 
47 1 13.5427 0.59282 13.5427 
51 1 13.5431 2.35408 15.3044 
62 1 8.54132 5.59413 10.3031 
72 1 10.3032 7.35579 10.3032 
76 1 10.3029 5.59425 8.54125 
85 1 13.0008 2.89663 13.0014 
94 1 10.845 5.05199 10.8445 
3 1 13.8035 13.8035 2.09365 
12 1 10.0423 10.0424 5.85481 
19 1 12.311 12.3109 3.58652 
28 1 11.5349 11.5349 4.36216 
35 1 15.3045 13.5428 2.3545 
45 1 13.5428 15.3045 2.35451 
55 1 13.5427 13.5427 0.59279 
60 1 8.54152 10.3029 5.59429 
70 1 10.3029 8.54148 5.59425 
80 1 10.3031 10.3031 7.35583 
83 1 13.001 13.0009 2.89639 
92 1 10.8448 10.8449 5.05218 
2 1 13.8035 13.8036 13.8035 
9 1 10.0423 10.0423 10.0422 
18 1 12.3109 12.3109 12.3108 
25 1 11.5349 11.5349 11.5351 
34 1 15.3045 13.5428 13.5427 
42 1 13.5428 15.3045 13.5427 
50 1 13.5427 13.5427 15.3045 
57 1 8.54131 10.3031 10.3031 
65 1 10.3031 8.54131 10.3031 
73 1 10.3031 10.3031 8.54136 
82 1 13.0009 13.001 13.0009 
89 1 10.8449 10.8449 10.845 
ITEM: TIMESTEP
51
ITEM: NUMBER OF ATOMS
96
ITEM: BOX BOUNDS pp pp pp
0.0000000000000000e+00 1.5897210747100001e+01
0.0000000000000000e+00 1.5897210747100001e+01
0.0000000000000000e+00 1.5897210747100001e+01
ITEM: ATOMS id type x y z 
1 1 2.09372 2.09371 2.09367 
10 1 5.85492 5.85492 5.85495 
17 1 3.58623 3.58626 3.58652 
26 1 4.36231 4.36228 4.36217 
33 1 0.592689 2.35443 2.35453 
41 1 2.35444 0.592689 2.35453 
49 1 2.35436 2.35435 0.592918 
58 1 7.35589 5.59411 5.59419 
66 1 5.5941 7.3559 5.59418 
74 1 5.59415 5.59409 7.35585 
81 1 2.89634 2.89636 2.8962 
90 1 5.05233 5.05232 5.05227 
4 1 2.09365 2.09374 13.8036 
11 1 5.85481 5.855 10.0424 
20 1 3.5866 3.58616 12.3109 
27 1 4.36206 4.36226 11.5347 
36 1 0.592722 2.35445 13.5426 
46 1 2.35445 0.592757 13.5426 
56 1 2.35433 2.35434 15.3046 
59 1 7.35579 5.59416 10.3031 
69 1 5.59434 7.3559 10.303 
79 1 5.59412 5.59411 8.54138 
84 1 2.89642 2.89623 13.001 
91 1 5.05215 5.05234 10.8448 
6 1 2.09383 13.8034 2.09352 
13 1 5.85507 10.0424 5.85482 
22 1 3.58598 12.3104 3.58627 
29 1 4.36238 11.5354 4.36262 
38 1 0.592836 13.5428 2.35443 
48 1 2.35455 15.3044 2.3545 
52 1 2.35415 13.5431 0.592819 
61 1 7.35594 10.3029 5.59437 
71 1 5.59408 8.54142 5.59414 
75 1 5.59421 10.303 7.35571 
86 1 2.89617 13.0006 2.89618 
93 1 5.05242 10.8452 5.05243 
7 1 2.09383 13.8034 13.8037 
16 1 5.85483 10.0423 10.0422 
23 1 3.58685 12.3107 12.3115 
32 1 4.36174 11.5352 11.5342 
39 1 0.59283 13.5427 13.5427 
43 1 2.35451 15.3045 13.5426 
53 1 2.35407 13.5431 15.3044 
64 1 7.35579 10.3031 10.3032 
68 1 5.59426 8.54145 10.303 
78 1 5.59425 10.3029 8.54125 
87 1 2.89663 13.0008 13.0014 
96 1 5.05198 10.845 10.8445 
8 1 13.8034 2.09384 2.09352 
15 1 10.0424 5.85503 5.85481 
24 1 12.3104 3.58598 3.58627 
31 1 11.5354 4.36237 4.36261 
40 1 15.3044 2.35455 2.3545 
44 1 13.5428 0.592836 2.35443 
54 1 13.5431 2.35415 0.592821 
63 1 8.54142 5.59408 5.59414 
67 1 10.3029 7.35592 5.59435 
77 1 10.303 5.5942 7.35571 
88 1 13.0006 2.89617 2.89618 
95 1 10.8452 5.05243 5.05244 
5 1 13.8034 2.09382 13.8037 
14 1 10.0423 5.85488 10.0422 
21 1 12.3107 3.58683 12.3115 
30 1 11.5352 4.36174 11.5342 
37 1 15.3044 2.35449 13.5426 
47 1 13.5427 0.59282 13.5427 
51 1 13.5431 2.35408 15.3044 
62 1 8.54132 5.59413 10.3031 
72 1 10.3032 7.35579 10.3032 
76 1 10.3029 5.59425 8.54125 
85 1 13.0008 2.89663 13.0014 
94 1 10.845 5.05199 10.8445 
3 1 13.8035 13.8035 2.09365 
12 1 10.0423 10.0424 5.85481 
19 1 12.311 12.3109 3.58652 
28 1 11.5349 11.5349 4.36216 
35 1 15.3045 13.5428 2.3545 
45 1 13.5428 15.3045 2.35451 
55 1 13.5427 13.5427 0.59279 
60 1 8.54152 10.3029 5.59429 
70 1 10.3029 8.54148 5.59425 
80 1 10.3031 10.3031 7.35583 
83 1 13.001 13.0009 2.89639 
92 1 10.8448 10.8449 5.05218 
2 1 13.8035 13.8036 13.8035 
9 1 10.0423 10.0423 10.0422 
18 1 12.3109 12.3109 12.3108 
25 1 11.5349 11.5349 11.5351 
34 1 15.3045 13.5428 13.5427 
42 1 13.5428 15.3045 13.5427 
50 1 13.5427 13.5427 15.3045 
57 1 8.54131 10.3031 10.3031 
65 1 10.3031 8.54131 10.3031 
73 1 10.3031 10.3031 8.54136 
82 1 13.0009 13.001 13.0009 
89 1 10.8449 10.8449 10.845 
ITEM: TIMESTEP
60
ITEM: NUMBER OF ATOMS
96
ITEM: BOX BOUNDS pp pp pp
-7.1456647541681632e-03 1.5904356411854168e+01
-7.1458961875433269e-03 1.5904356643287548e+01
-7.1537448361950031e-03 1.5904364491936189e+01
ITEM: ATOMS id type x y z 
1 1 2.08845 2.08845 2.0884 
10 1 5.85304 5.85304 5.85307 
17 1 3.58231 3.58234 3.58259 
26 1 4.35908 4.35906 4.35894 
33 1 0.586076 2.3494 2.34949 
41 1 2.34941 0.586075 2.3495 
49 1 2.34933 2.34932 0.586297 
58 1 7.35536 5.592 5.59208 
66 1 5.59198 7.35537 5.59207 
74 1 5.59203 5.59197 7.35531 
81 1 2.8918 2.89182 2.89166 
90 1 5.04973 5.04971 5.04966 
4 1 2.08839 2.08847 13.8089 
11 1 5.85293 5.85312 10.0442 
20 1 3.58268 3.58224 12.3148 
27 1 4.35883 4.35904 11.5379 
36 1 0.586108 2.34942 13.5476 
46 1 2.34942 0.586143 13.5476 
56 1 2.3493 2.34931 15.3112 
59 1 7.35526 5.59204 10.3053 
69 1 5.59222 7.35537 10.3051 
79 1 5.59201 5.59199 8.54191 
84 1 2.89188 2.89168 13.0055 
91 1 5.04955 5.04974 10.8474 
6 1 2.08857 13.8087 2.08825 
13 1 5.85319 10.0443 5.85294 
22 1 3.58206 12.3144 3.58234 
29 1 4.35915 11.5386 4.35939 
38 1 0.586222 13.5478 2.34939 
48 1 2.34952 15.311 2.34947 
52 1 2.34912 13.5481 0.586198 
61 1 7.35541 10.305 5.59225 
71 1 5.59196 8.54195 5.59202 
75 1 5.59209 10.3051 7.35517 
86 1 2.89163 13.0052 2.89163 
93 1 5.04982 10.8478 5.04983 
7 1 2.08857 13.8087 13.809 
16 1 5.85295 10.0442 10.0441 
23 1 3.58293 12.3146 12.3155 
32 1 4.35851 11.5384 11.5374 
39 1 0.586217 13.5477 13.5477 
43 1 2.34948 15.3111 13.5476 
53 1 2.34904 13.5482 15.311 
64 1 7.35526 10.3053 10.3053 
68 1 5.59214 8.54199 10.3051 
78 1 5.59213 10.305 8.54178 
87 1 2.89209 13.0053 13.0059 
96 1 5.04938 10.8477 10.8471 
8 1 13.8087 2.08858 2.08825 
15 1 10.0442 5.85315 5.85292 
24 1 12.3144 3.58206 3.58234 
31 1 11.5386 4.35914 4.35938 
40 1 15.311 2.34952 2.34947 
44 1 13.5478 0.586222 2.3494 
54 1 13.5481 2.34912 0.5862 
63 1 8.54195 5.59197 5.59202 
67 1 10.305 7.35539 5.59223 
77 1 10.3051 5.59209 7.35518 
88 1 13.0052 2.89163 2.89164 
95 1 10.8478 5.04982 5.04983 
5 1 13.8087 2.08856 13.809 
14 1 10.0442 5.853 10.0441 
21 1 12.3147 3.5829 12.3155 
30 1 11.5385 4.35851 11.5374 
37 1 15.311 2.34946 13.5476 
47 1 13.5477 0.586207 13.5477 
51 1 13.5482 2.34905 15.311 
62 1 8.54185 5.59201 10.3052 
72 1 10.3053 7.35526 10.3053 
76 1 10.305 5.59213 8.54178 
85 1 13.0053 2.89209 13.0059 
94 1 10.8476 5.04939 10.8471 
3 1 13.8088 13.8088 2.08838 
12 1 10.0441 10.0443 5.85292 
19 1 12.3149 12.3148 3.5826 
28 1 11.5381 11.5381 4.35893 
35 1 15.3111 13.5479 2.34947 
45 1 13.5478 15.3111 2.34948 
55 1 13.5478 13.5478 0.586169 
60 1 8.54205 10.305 5.59217 
70 1 10.3051 8.54202 5.59213 
80 1 10.3052 10.3052 7.35529 
83 1 13.0055 13.0055 2.89184 
92 1 10.8474 10.8475 5.04957 
2 1 13.8088 13.8088 13.8088 
9 1 10.0441 10.0442 10.0441 
18 1 12.3148 12.3148 12.3147 
25 1 11.5381 11.5381 11.5383 
34 1 15.3111 13.5478 13.5477 
42 1 13.5478 15.3111 13.5477 
50 1 13.5477 13.5477 15.3111 
57 1 8.54184 10.3052 10.3052 
65 1 10.3052 8.54184 10.3052 
73 1 10.3052 10.3052 8.54189 
82 1 13.0055 13.0055 13.0054 
89 1 10.8475 10.8475 10.8476 
ITEM: TIMESTEP
70
ITEM: NUMBER OF ATOMS
96
ITEM: BOX BOUNDS pp pp pp
-1.5083303670889767e-02 1.5912294050770893e+01
-1.5083906045411322e-02 1.5912294653145414e+01
-1.5102350209745008e-02 1.5912313097309731e+01
ITEM: ATOMS id type x y z 
1 1 2.0826 2.0826 2.08254 
10 1 5.85095 5.85095 5.85097 
17 1 3.57795 3.57798 3.57823 
26 1 4.3555 4.35548 4.35536 
33 1 0.578727 2.34382 2.3439 
41 1 2.34382 0.578726 2.3439 
49 1 2.34374 2.34373 0.578938 
58 1 7.35477 5.58965 5.58972 
66 1 5.58963 7.35478 5.58971 
74 1 5.58968 5.58962 7.35472 
81 1 2.88675 2.88677 2.8866 
90 1 5.04683 5.04682 5.04676 
4 1 2.08254 2.08262 13.8147 
11 1 5.85084 5.85103 10.0463 
20 1 3.57832 3.57788 12.3192 
27 1 4.35525 4.35546 11.5415 
36 1 0.578759 2.34384 13.5532 
46 1 2.34384 0.578794 13.5532 
56 1 2.34372 2.34373 15.3186 
59 1 7.35467 5.58969 10.3076 
69 1 5.58987 7.35478 10.3075 
79 1 5.58965 5.58964 8.5425 
84 1 2.88684 2.88664 13.0106 
91 1 5.04665 5.04685 10.8503 
6 1 2.08272 13.8145 2.0824 
13 1 5.8511 10.0464 5.85084 
22 1 3.5777 12.3187 3.57798 
29 1 4.35557 11.5422 4.3558 
38 1 0.578873 13.5534 2.3438 
48 1 2.34394 15.3183 2.34387 
52 1 2.34353 13.5537 0.578839 
61 1 7.35482 10.3073 5.5899 
71 1 5.58961 8.54254 5.58967 
75 1 5.58974 10.3075 7.35458 
86 1 2.88659 13.0102 2.88658 
93 1 5.04693 10.8507 5.04693 
7 1 2.08272 13.8145 13.8149 
16 1 5.85086 10.0463 10.0462 
23 1 3.57857 12.319 12.3198 
32 1 4.35493 11.542 11.541 
39 1 0.578868 13.5533 13.5533 
43 1 2.34389 15.3184 13.5532 
53 1 2.34346 13.5537 15.3184 
64 1 7.35467 10.3076 10.3077 
68 1 5.58979 8.54257 10.3075 
78 1 5.58978 10.3073 8.54237 
87 1 2.88705 13.0104 13.011 
96 1 5.04649 10.8505 10.85 
8 1 13.8145 2.08273 2.0824 
15 1 10.0463 5.85106 5.85083 
24 1 12.3187 3.5777 3.57798 
31 1 11.5422 4.35556 4.35579 
40 1 15.3183 2.34394 2.34387 
44 1 13.5534 0.578873 2.3438 
54 1 13.5537 2.34354 0.578842 
63 1 8.54254 5.58962 5.58966 
67 1 10.3073 7.3548 5.58988 
77 1 10.3075 5.58973 7.35459 
88 1 13.0102 2.88659 2.88658 
95 1 10.8507 5.04693 5.04693 
5 1 13.8145 2.08271 13.8148 
14 1 10.0463 5.85091 10.0462 
21 1 12.319 3.57855 12.3198 
30 1 11.5421 4.35493 11.541 
37 1 15.3184 2.34387 13.5532 
47 1 13.5533 0.578857 13.5533 
51 1 13.5537 2.34346 15.3184 
62 1 8.54244 5.58966 10.3075 
72 1 10.3076 7.35467 10.3077 
76 1 10.3074 5.58978 8.54237 
85 1 13.0103 2.88705 13.011 
94 1 10.8505 5.04649 10.85 
3 1 13.8146 13.8146 2.08252 
12 1 10.0462 10.0463 5.85083 
19 1 12.3192 12.3192 3.57824 
28 1 11.5417 11.5417 4.35534 
35 1 15.3185 13.5534 2.34387 
45 1 13.5534 15.3185 2.34389 
55 1 13.5534 13.5534 0.57881 
60 1 8.54264 10.3073 5.58981 
70 1 10.3074 8.5426 5.58978 
80 1 10.3076 10.3075 7.3547 
83 1 13.0105 13.0105 2.88679 
92 1 10.8503 10.8504 5.04667 
2 1 13.8146 13.8147 13.8147 
9 1 10.0462 10.0463 10.0462 
18 1 12.3192 12.3192 12.3191 
25 1 11.5417 11.5417 11.5419 
34 1 15.3185 13.5534 13.5533 
42 1 13.5534 15.3185 13.5533 
50 1 13.5533 13.5533 15.3184 
57 1 8.54243 10.3076 10.3076 
65 1 10.3076 8.54243 10.3076 
73 1 10.3076 10.3076 8.54248 
82 1 13.0105 13.0106 13.0105 
89 1 10.8504 10.8504 10.8505 
ITEM: TIMESTEP
80
ITEM: NUMBER OF ATOMS
96
ITEM: BOX BOUNDS pp pp pp
-2.3019599852201672e-02 1.5920230346952202e+01
-2.3020574197653552e-02 1.5920231321297658e+01
-2.3050955583295028e-02 1.5920261702683273e+01
ITEM: ATOMS id type x y z 
1 1 2.07676 2.07675 2.07668 
10 1 5.84886 5.84886 5.84888 
17 1 3.5736 3.57363 3.57387 
26 1 4.35192 4.3519 4.35177 
33 1 0.571377 2.33823 2.3383 
41 1 2.33823 0.571376 2.33831 
49 1 2.33816 2.33815 0.571577 
58 1 7.35419 5.5873 5.58737 
66 1 5.58728 7.35419 5.58736 
74 1 5.58733 5.58727 7.35414 
81 1 2.88171 2.88173 2.88155 
90 1 5.04394 5.04393 5.04387 
4 1 2.07669 2.07678 13.8206 
11 1 5.84875 5.84894 10.0484 
20 1 3.57396 3.57353 12.3236 
27 1 4.35167 4.35188 11.5451 
36 1 0.571409 2.33825 13.5588 
46 1 2.33825 0.571444 13.5588 
56 1 2.33813 2.33814 15.3259 
59 1 7.35409 5.58734 10.31 
69 1 5.58752 7.35419 10.3098 
79 1 5.5873 5.58729 8.54309 
84 1 2.88179 2.8816 13.0156 
91 1 5.04376 5.04396 10.8532 
6 1 2.07687 13.8204 2.07654 
13 1 5.84901 10.0484 5.84875 
22 1 3.57334 12.3231 3.57362 
29 1 4.35199 11.5458 4.35222 
38 1 0.571524 13.559 2.3382 
48 1 2.33835 15.3257 2.33828 
52 1 2.33795 13.5593 0.571478 
61 1 7.35423 10.3097 5.58754 
71 1 5.58726 8.54313 5.58731 
75 1 5.58739 10.3098 7.354 
86 1 2.88154 13.0153 2.88153 
93 1 5.04404 10.8536 5.04403 
7 1 2.07688 13.8204 13.8207 
16 1 5.84877 10.0484 10.0483 
23 1 3.57422 12.3234 12.3242 
32 1 4.35135 11.5456 11.5446 
39 1 0.571518 13.5589 13.5589 
43 1 2.33831 15.3258 13.5588 
53 1 2.33787 13.5593 15.3257 
64 1 7.35408 10.31 10.31 
68 1 5.58744 8.54316 10.3098 
78 1 5.58743 10.3097 8.54296 
87 1 2.88201 13.0154 13.016 
96 1 5.04359 10.8534 10.8528 
8 1 13.8204 2.07688 2.07654 
15 1 10.0484 5.84897 5.84874 
24 1 12.3231 3.57335 3.57362 
31 1 11.5458 4.35198 4.35221 
40 1 15.3257 2.33835 2.33828 
44 1 13.559 0.571523 2.33821 
54 1 13.5593 2.33795 0.57148 
63 1 8.54313 5.58727 5.58731 
67 1 10.3097 7.35421 5.58753 
77 1 10.3098 5.58738 7.354 
88 1 13.0153 2.88154 2.88153 
95 1 10.8536 5.04404 5.04404 
5 1 13.8204 2.07686 13.8207 
14 1 10.0484 5.84882 10.0483 
21 1 12.3234 3.57419 12.3242 
30 1 11.5456 4.35135 11.5446 
37 1 15.3257 2.33829 13.5588 