LAMMPS (3 Mar 2020)
# Alpha
clear
units		real
dimension 3
boundary        p p p
atom_style	charge
newton on
read_data       O_2.lmp
  orthogonal box = (0 0 0) to (16.114 16.113 16.112)
  2 by 2 by 2 MPI processor grid
  reading atoms ...
  201 atoms
  read_data CPU = 0.029867 secs

timestep 0.25

# ---------- Define Interatomic Potential ---------------------
pair_style      reax/c NULL checkqeq no
pair_coeff      * * ffield.reax C O
fix             2 all qeq/reax 1 0.0 10.0 1.0e-6 reax/c

#------------ Equilibration of the system -------------------------
reset_timestep 0

dump 1 all custom 10 min.lammpstrj id type x y z

minimize 1.0e-8 1.0e-8 100000 100000
WARNING: Using 'neigh_modify every 1 delay 0 check yes' setting during minimization (../min.cpp:190)
WARNING: Total cutoff < 2*bond cutoff. May need to use an increased neighbor list skin. (../pair_reaxc.cpp:413)
Neighbor list info ...
  update every 1 steps, delay 0 steps, check yes
  max neighbors/atom: 2000, page size: 100000
  master list distance cutoff = 9.5
  ghost atom cutoff = 9.5
  binsize = 4.75, bins = 4 4 4
  2 neighbor lists, perpetual/occasional/extra = 2 0 0
  (1) pair reax/c, perpetual
      attributes: half, newton off, ghost
      pair build: half/bin/newtoff/ghost
      stencil: half/ghost/bin/3d/newtoff
      bin: standard
  (2) fix qeq/reax, perpetual, copy from (1)
      attributes: half, newton off, ghost
      pair build: copy
      stencil: none
      bin: none
Per MPI rank memory allocation (min/avg/max) = 25.32 | 25.49 | 25.69 Mbytes
Step Temp E_pair E_mol TotEng Press 
       0            0   -38839.539            0   -38839.539    41919.482 
      19            0   -38986.379            0   -38986.379     25830.53 
Loop time of 0.774841 on 8 procs for 19 steps with 201 atoms

99.2% CPU use with 8 MPI tasks x no OpenMP threads

Minimization stats:
  Stopping criterion = energy tolerance
  Energy initial, next-to-last, final = 
        -38839.5389968     -38986.3791215     -38986.3793508
  Force two-norm initial, final = 2048.06 241.319
  Force max component initial, final = 1503.82 89.7488
  Final line search alpha, max atom move = 0.000296957 0.0266515
  Iterations, force evaluations = 19 88

MPI task timing breakdown:
Section |  min time  |  avg time  |  max time  |%varavg| %total
---------------------------------------------------------------
Pair    | 0.60034    | 0.61687    | 0.62882    |   1.2 | 79.61
Neigh   | 0          | 0          | 0          |   0.0 |  0.00
Comm    | 0.004503   | 0.016482   | 0.032957   |   7.1 |  2.13
Output  | 4.5084e-05 | 5.3019e-05 | 7.8807e-05 |   0.0 |  0.01
Modify  | 0.14008    | 0.14016    | 0.14022    |   0.0 | 18.09
Other   |            | 0.001275   |            |       |  0.16

Nlocal:    25.125 ave 29 max 22 min
Histogram: 1 0 3 0 0 3 0 0 0 1
Nghost:    964.875 ave 972 max 958 min
Histogram: 1 0 2 0 0 2 0 2 0 1
Neighs:    4314.75 ave 4867 max 3867 min
Histogram: 1 0 3 0 0 3 0 0 0 1

Total # of neighbors = 34518
Ave neighs/atom = 171.731
Neighbor list builds = 0
Dangerous builds = 0

###
min_style cg
minimize 1.0e-8 1.0e-8 100000 100000
WARNING: Using 'neigh_modify every 1 delay 0 check yes' setting during minimization (../min.cpp:190)
WARNING: Total cutoff < 2*bond cutoff. May need to use an increased neighbor list skin. (../pair_reaxc.cpp:413)
Per MPI rank memory allocation (min/avg/max) = 25.32 | 25.49 | 25.69 Mbytes
Step Temp E_pair E_mol TotEng Press 
      19            0   -38986.379            0   -38986.379     25830.53 
     132            0   -39020.426            0   -39020.426    14627.735 
Loop time of 6.20221 on 8 procs for 113 steps with 201 atoms

99.2% CPU use with 8 MPI tasks x no OpenMP threads

Minimization stats:
  Stopping criterion = energy tolerance
  Energy initial, next-to-last, final = 
        -38986.3793508     -39020.4263605     -39020.4264838
  Force two-norm initial, final = 241.319 88.9877
  Force max component initial, final = 89.7488 32.1559
  Final line search alpha, max atom move = 0.00176581 0.0567812
  Iterations, force evaluations = 113 726

MPI task timing breakdown:
Section |  min time  |  avg time  |  max time  |%varavg| %total
---------------------------------------------------------------
Pair    | 4.8793     | 5.017      | 5.1057     |   3.2 | 80.89
Neigh   | 0          | 0          | 0          |   0.0 |  0.00
Comm    | 0.035463   | 0.12439    | 0.2617     |  20.2 |  2.01
Output  | 0.00055127 | 0.00065452 | 0.00096579 |   0.0 |  0.01
Modify  | 1.0504     | 1.0509     | 1.0514     |   0.0 | 16.94
Other   |            | 0.009222   |            |       |  0.15

Nlocal:    25.125 ave 29 max 22 min
Histogram: 1 0 3 0 0 3 0 0 0 1
Nghost:    964.875 ave 972 max 958 min
Histogram: 1 0 2 0 0 2 0 2 0 1
Neighs:    4309.25 ave 4855 max 3869 min
Histogram: 1 0 3 0 0 3 0 0 0 1

Total # of neighbors = 34474
Ave neighs/atom = 171.512
Neighbor list builds = 0
Dangerous builds = 0

###
fix 1 all box/relax aniso 0.0
min_style cg
minimize 1.0e-8 1.0e-8 100000 100000
WARNING: Using 'neigh_modify every 1 delay 0 check yes' setting during minimization (../min.cpp:190)
WARNING: Total cutoff < 2*bond cutoff. May need to use an increased neighbor list skin. (../pair_reaxc.cpp:413)
Per MPI rank memory allocation (min/avg/max) = 25.32 | 25.49 | 25.69 Mbytes
Step Temp E_pair E_mol TotEng Press Volume 
     132            0   -39020.426            0   -39020.426    14627.735    4183.3983 
     243            0   -39022.544            0   -39022.544    315.72547     4193.036 
Loop time of 1.6085 on 8 procs for 111 steps with 201 atoms

99.2% CPU use with 8 MPI tasks x no OpenMP threads

Minimization stats:
  Stopping criterion = energy tolerance
  Energy initial, next-to-last, final = 
        -39020.4264838     -39022.5434042     -39022.5437563
  Force two-norm initial, final = 1549.72 54.5959
  Force max component initial, final = 936.441 23.0388
  Final line search alpha, max atom move = 2.94869e-06 6.79345e-05
  Iterations, force evaluations = 111 203

MPI task timing breakdown:
Section |  min time  |  avg time  |  max time  |%varavg| %total
---------------------------------------------------------------
Pair    | 1.3835     | 1.4081     | 1.4267     |   1.2 | 87.54
Neigh   | 0          | 0          | 0          |   0.0 |  0.00
Comm    | 0.0090659  | 0.027673   | 0.05227    |   8.6 |  1.72
Output  | 0.00044907 | 0.00052805 | 0.00079292 |   0.0 |  0.03
Modify  | 0.1656     | 0.16572    | 0.16585    |   0.0 | 10.30
Other   |            | 0.006449   |            |       |  0.40

Nlocal:    25.125 ave 29 max 22 min
Histogram: 1 0 3 0 0 3 0 0 0 1
Nghost:    966 ave 972 max 962 min
Histogram: 1 2 0 1 0 1 2 0 0 1
Neighs:    4308.25 ave 4852 max 3855 min
Histogram: 1 0 1 2 0 3 0 0 0 1

Total # of neighbors = 34466
Ave neighs/atom = 171.473
Neighbor list builds = 0
Dangerous builds = 0

unfix 1
###
min_style cg
minimize 1.0e-8 1.0e-8 100000 100000
WARNING: Using 'neigh_modify every 1 delay 0 check yes' setting during minimization (../min.cpp:190)
WARNING: Total cutoff < 2*bond cutoff. May need to use an increased neighbor list skin. (../pair_reaxc.cpp:413)
Per MPI rank memory allocation (min/avg/max) = 25.32 | 25.49 | 25.69 Mbytes
Step Temp E_pair E_mol TotEng Press 
     243            0   -39022.544            0   -39022.544    315.72547 
     270            0   -39022.792            0   -39022.792    11632.652 
Loop time of 2.22262 on 8 procs for 27 steps with 201 atoms

99.2% CPU use with 8 MPI tasks x no OpenMP threads

Minimization stats:
  Stopping criterion = energy tolerance
  Energy initial, next-to-last, final = 
        -39022.5437563     -39022.7922072     -39022.7923069
  Force two-norm initial, final = 42.4582 44.4286
  Force max component initial, final = 12.3508 23.7913
  Final line search alpha, max atom move = 0.00118108 0.0280994
  Iterations, force evaluations = 27 263

MPI task timing breakdown:
Section |  min time  |  avg time  |  max time  |%varavg| %total
---------------------------------------------------------------
Pair    | 1.7953     | 1.8249     | 1.8451     |   1.2 | 82.11
Neigh   | 0          | 0          | 0          |   0.0 |  0.00
Comm    | 0.014684   | 0.034781   | 0.064349   |   8.9 |  1.56
Output  | 9.9545e-05 | 0.00011749 | 0.00016932 |   0.0 |  0.01
Modify  | 0.35921    | 0.3594     | 0.35956    |   0.0 | 16.17
Other   |            | 0.003416   |            |       |  0.15

Nlocal:    25.125 ave 29 max 22 min
Histogram: 1 0 3 0 0 3 0 0 0 1
Nghost:    966 ave 972 max 962 min
Histogram: 1 2 0 1 0 1 2 0 0 1
Neighs:    4302.75 ave 4846 max 3848 min
Histogram: 1 0 1 2 0 3 0 0 0 1

Total # of neighbors = 34422
Ave neighs/atom = 171.254
Neighbor list builds = 0
Dangerous builds = 0

###
fix 1 all box/relax aniso 0.0
min_style cg
minimize 1.0e-8 1.0e-8 100000 100000
WARNING: Using 'neigh_modify every 1 delay 0 check yes' setting during minimization (../min.cpp:190)
WARNING: Total cutoff < 2*bond cutoff. May need to use an increased neighbor list skin. (../pair_reaxc.cpp:413)
Per MPI rank memory allocation (min/avg/max) = 25.32 | 25.49 | 25.69 Mbytes
Step Temp E_pair E_mol TotEng Press Volume 
     270            0   -39022.792            0   -39022.792    11632.652     4193.036 
     352            0   -39024.042            0   -39024.042     399.5287    4202.2671 
Loop time of 1.23329 on 8 procs for 82 steps with 201 atoms

99.3% CPU use with 8 MPI tasks x no OpenMP threads

Minimization stats:
  Stopping criterion = energy tolerance
  Energy initial, next-to-last, final = 
        -39022.7923069     -39024.0421633     -39024.0423676
  Force two-norm initial, final = 1233.11 54.9898
  Force max component initial, final = 721.056 28.1583
  Final line search alpha, max atom move = 4.67658e-06 0.000131685
  Iterations, force evaluations = 82 155

MPI task timing breakdown:
Section |  min time  |  avg time  |  max time  |%varavg| %total
---------------------------------------------------------------
Pair    | 1.0591     | 1.0758     | 1.0896     |   1.0 | 87.23
Neigh   | 0          | 0          | 0          |   0.0 |  0.00
Comm    | 0.0066022  | 0.020446   | 0.037236   |   7.4 |  1.66
Output  | 0.00032969 | 0.00038564 | 0.00057059 |   0.0 |  0.03
Modify  | 0.13154    | 0.13163    | 0.13171    |   0.0 | 10.67
Other   |            | 0.004985   |            |       |  0.40

Nlocal:    25.125 ave 29 max 22 min
Histogram: 1 0 3 0 0 3 0 0 0 1
Nghost:    966 ave 972 max 962 min
Histogram: 1 2 0 1 0 1 2 0 0 1
Neighs:    4305 ave 4847 max 3851 min
Histogram: 1 0 1 2 0 3 0 0 0 1

Total # of neighbors = 34440
Ave neighs/atom = 171.343
Neighbor list builds = 0
Dangerous builds = 0

unfix 1
###
min_style cg
minimize 1.0e-8 1.0e-8 100000 100000
WARNING: Using 'neigh_modify every 1 delay 0 check yes' setting during minimization (../min.cpp:190)
WARNING: Total cutoff < 2*bond cutoff. May need to use an increased neighbor list skin. (../pair_reaxc.cpp:413)
Per MPI rank memory allocation (min/avg/max) = 25.32 | 25.49 | 25.69 Mbytes
Step Temp E_pair E_mol TotEng Press 
     352            0   -39024.042            0   -39024.042     399.5287 
     403            0   -39024.262            0   -39024.262    6512.5912 
Loop time of 3.6357 on 8 procs for 51 steps with 201 atoms

99.1% CPU use with 8 MPI tasks x no OpenMP threads

Minimization stats:
  Stopping criterion = energy tolerance
  Energy initial, next-to-last, final = 
        -39024.0423676     -39024.2615165     -39024.2615578
  Force two-norm initial, final = 34.6865 22.6325
  Force max component initial, final = 13.7438 8.87738
  Final line search alpha, max atom move = 0.0147569 0.131003
  Iterations, force evaluations = 51 450

MPI task timing breakdown:
Section |  min time  |  avg time  |  max time  |%varavg| %total
---------------------------------------------------------------
Pair    | 2.9234     | 2.9735     | 3.0067     |   1.6 | 81.79
Neigh   | 0          | 0          | 0          |   0.0 |  0.00
Comm    | 0.025287   | 0.058584   | 0.10856    |  11.0 |  1.61
Output  | 0.00022028 | 0.00026194 | 0.00040454 |   0.0 |  0.01
Modify  | 0.59752    | 0.59799    | 0.59834    |   0.0 | 16.45
Other   |            | 0.005324   |            |       |  0.15

Nlocal:    25.125 ave 29 max 22 min
Histogram: 1 0 3 0 0 3 0 0 0 1
Nghost:    966 ave 972 max 962 min
Histogram: 1 2 0 1 0 1 2 0 0 1
Neighs:    4299 ave 4838 max 3845 min
Histogram: 1 0 1 2 0 3 0 0 0 1

Total # of neighbors = 34392
Ave neighs/atom = 171.104
Neighbor list builds = 0
Dangerous builds = 0

undump 1
#############
#----------- Thermo ------------
reset_timestep 0
thermo  200

thermo_style    custom step temp etotal ke pe press
velocity all create 300 12345 mom yes rot yes
fix 1 all npt temp 300 300 25.0 iso 0.0 0.0 250.0

variable vpe equal pe
variable vtemp equal temp
variable vstep equal step

fix output all print 2500 "${vstep} ${vtemp} ${vpe}" file temp-tpdh-Pt.dat screen no

dump 1 all custom 2500 thermo-tpdh-Pt.lammpstrj id type x y z

run 1000000
WARNING: Total cutoff < 2*bond cutoff. May need to use an increased neighbor list skin. (../pair_reaxc.cpp:413)
Per MPI rank memory allocation (min/avg/max) = 24.19 | 24.37 | 24.57 Mbytes
Step Temp TotEng KinEng PotEng Press 
       0          300   -38845.413     178.8486   -39024.262     8458.107 
     200    207.02007   -38787.028     123.4175   -38910.446    1308.4364 
     400    251.95452   -38693.784    150.20572   -38843.989   -6705.9719 
     600    335.82566   -38620.249     200.2065   -38820.455     4001.734 
     800    317.56676   -38641.236    189.32124   -38830.557    19604.087 
    1000    252.24563   -38676.056    150.37926   -38826.435   -9419.0307 
    1200    307.24398   -38637.315    183.16719   -38820.482    -1378.345 
    1400    320.02611   -38631.768    190.78741   -38822.555    7083.6273 
    1600    300.14684   -38667.525    178.93614   -38846.461   -13590.014 
    1800    301.09127       -38653    179.49918   -38832.499   -1543.6731 
    2000    315.03741   -38638.201    187.81333   -38826.014    -23532.27 
    2200     317.1694   -38654.067    189.08435   -38843.151    7209.9649 
    2400    295.60539   -38645.551     176.2287    -38821.78    6848.1922 
    2600    287.31658   -38629.585    171.28723   -38800.872    39272.932 
    2800     274.6496   -38662.634    163.73566   -38826.369    16943.938 
    3000    307.60194   -38646.786    183.38059   -38830.167    22724.057 
    3200    318.29532   -38643.793    189.75558   -38833.549   -13452.651 
    3400    325.36031   -38648.857    193.96746   -38842.824    -4924.803 
    3600    274.52291   -38673.207    163.66013   -38836.867    5652.8533 
    3800    302.81931   -38647.849    180.52937   -38828.378   -17922.386 
    4000    315.27531   -38642.133    187.95516   -38830.088   -29294.113 
    4200    270.94294   -38672.132    161.52589   -38833.658   -7118.3319 
    4400    294.15654   -38657.827    175.36496   -38833.192   -22892.753 
    4600    318.45748   -38639.281    189.85225   -38829.133    359.51786 
    4800    271.83606   -38664.679    162.05833   -38826.737    4395.8585 
    5000    312.88177   -38624.611    186.52823   -38811.139    520.52124 
    5200    320.03657   -38643.731    190.79364   -38834.524   -6306.1102 
    5400    290.86424    -38651.78    173.40221   -38825.182   -12654.066 
    5600    282.36044   -38648.605    168.33257   -38816.938   -13750.509 
    5800    324.14932   -38625.923    193.24551   -38819.169    9233.8607 
    6000    320.97729   -38657.621    191.35446   -38848.975    6249.8405 
    6200    303.80982   -38654.374    181.11987   -38835.494    -20530.94 
    6400    293.38239   -38646.092    174.90344   -38820.996    -5204.342 
    6600    317.31584    -38619.67    189.17165   -38808.841   -24264.448 
    6800    317.16396    -38640.13     189.0811   -38829.211   -34528.207 
    7000     286.3922   -38662.033    170.73615   -38832.769    13873.081 
    7200    312.91489   -38631.832    186.54797    -38818.38   -15323.288 
    7400    328.67403   -38616.184    195.94297   -38812.126    31263.584 
    7600    274.36165   -38654.231    163.56399   -38817.795    5091.8909 
    7800    277.75113    -38658.84    165.58467   -38824.425    2186.7188 
    8000     325.9449   -38622.807    194.31597   -38817.123    4750.4059 
    8200    286.56725   -38645.818    170.84051   -38816.658    10529.155 
    8400    299.01255   -38646.782    178.25992   -38825.042   -26860.018 
    8600    285.29677    -38624.87     170.0831   -38794.953   -46318.941 
    8800    294.94111   -38633.097    175.83269   -38808.929    55070.881 
    9000     274.9434   -38655.368    163.91081   -38819.279   -32293.359 
    9200     330.6975    -38629.05    197.14929   -38826.199    24745.706 
    9400    297.06585   -38622.466    177.09938   -38799.566    52070.905 
    9600    286.11707   -38663.284    170.57213   -38833.856    33935.595 
    9800    313.19484   -38640.744    186.71487   -38827.459   -27648.345 
   10000    350.03236    -38628.06      208.676   -38836.736   -9447.9642 
   10200    292.98999    -38646.63     174.6695   -38821.299    8181.2965 
   10400    285.64648   -38651.836    170.29158   -38822.127    1711.9949 
   10600    291.42716   -38654.065     173.7378   -38827.803   -12164.891 
   10800    298.77165   -38634.842    178.11631   -38812.958   -16648.789 
   11000     324.0044   -38644.803    193.15911   -38837.962    41603.976 
   11200    303.54092   -38663.885    180.95957   -38844.844    14402.466 
   11400    323.96085   -38625.227    193.13315   -38818.361     11846.68 
   11600    275.56874   -38648.974    164.28361   -38813.258   -6623.4288 
   11800    301.39043   -38656.139    179.67753   -38835.816    -18146.72 
   12000    335.75092   -38616.015    200.16195   -38816.177    -8168.155 
   12200    316.97137   -38639.459    188.96629   -38828.426   -3451.4173 
   12400    284.19445    -38661.96    169.42593   -38831.386   -5036.9219 
   12600    287.02529   -38647.475    171.11357   -38818.589    9471.4471 
   12800    292.01542   -38647.595     174.0885   -38821.684     565.4905 
   13000    306.68631   -38658.045    182.83473   -38840.879    2914.6094 
   13200    254.92149   -38667.575    151.97451    -38819.55   -25362.714 
   13400    304.71281   -38636.298     181.6582   -38817.956    1370.7539 
   13600    309.09879   -38657.782    184.27296   -38842.055    6818.9593 
   13800    273.09527   -38675.374    162.80902   -38838.183   -28167.766 
   14000    303.20836   -38636.381     180.7613   -38817.142    49781.761 
   14200    304.74166   -38653.234     181.6754   -38834.909    5839.1905 
   14400    301.19266   -38664.344    179.55962   -38843.904     6238.154 
   14600    299.75674   -38633.674    178.70358   -38812.377   -11547.475 
   14800    303.28333    -38655.54      180.806   -38836.346   -20553.788 
   15000    292.13345   -38641.689    174.15886   -38815.848    -15027.83 
   15200    317.93516    -38622.67    189.54086   -38812.211    -24936.63 
   15400    287.84813   -38655.187    171.60412   -38826.791   -6437.5279 
   15600    285.69491   -38644.607    170.32045   -38814.928    1473.3989 
   15800    314.42679   -38610.226    187.44931   -38797.675    5586.0534 
   16000    289.42226   -38649.644    172.54256   -38822.186    5331.8044 
   16200    285.85908   -38645.361    170.41832    -38815.78   -8824.5907 
   16400    289.67032   -38642.322    172.69044   -38815.012    7146.3954 
   16600     301.4886   -38647.844    179.73605    -38827.58    19092.987 
   16800    256.73156   -38667.869    153.05361   -38820.923   -5492.2858 
   17000    327.09024   -38632.991    194.99878    -38827.99   -28911.972 
   17200    315.75352   -38644.179    188.24025   -38832.419    2567.5418 
   17400    278.06368   -38674.042      165.771   -38839.813    28718.764 
   17600    273.20947   -38654.391    162.87711   -38817.268    16132.781 
   17800    297.20787   -38635.815    177.18404   -38812.999   -2660.3024 
   18000      325.693   -38628.905     194.1658    -38823.07   -8.9839563 
   18200    281.70812    -38662.05    167.94368   -38829.994    3341.2265 
   18400    290.12648   -38638.508    172.96239    -38811.47    4124.8067 
   18600    313.94883   -38628.187    187.16437   -38815.351   -26914.496 
   18800    303.40358   -38649.243    180.87769   -38830.121   -11592.965 
   19000    264.60875   -38668.343    157.74969   -38826.093    8569.7277 
   19200    315.39405   -38629.515    188.02595   -38817.541   -10173.703 
   19400    280.68575   -38656.056    167.33418    -38823.39   -22743.561 
   19600    313.66813   -38648.206    186.99702   -38835.203     3194.049 
   19800    313.95648   -38627.697    187.16893   -38814.866    -5503.947 
   20000    306.50138   -38662.431    182.72448   -38845.156    6309.9506 
   20200    286.62133   -38649.128    170.87275   -38820.001   -28281.215 
   20400    300.06313   -38640.165    178.88624   -38819.051    31532.983 
   20600    286.79748   -38648.976    170.97776   -38819.954    2747.2725 
   20800    291.20352   -38640.893    173.60448   -38814.498   -28244.882 
   21000    295.17452    -38643.62    175.97184   -38819.592    9840.5924 
   21200    283.85385   -38669.097    169.22288    -38838.32    23918.251 
   21400    317.45815   -38649.732    189.25649   -38838.988   -4311.6155 
   21600     319.6075    -38640.69    190.53785   -38831.228   -12081.699 
   21800    291.89097   -38668.196    174.01431   -38842.211    6142.5471 
   22000    279.86528   -38677.843    166.84505   -38844.689   -22174.705 
   22200    317.43812    -38637.42    189.24455   -38826.665   -4235.1174 
   22400    298.28525   -38648.849    177.82633   -38826.675    24821.206 
   22600    269.64462   -38675.813    160.75188   -38836.565    47576.654 
   22800    303.84071   -38634.342    181.13829    -38815.48    8461.7952 
   23000    325.03745   -38648.745    193.77498   -38842.519    6348.3621 
   23200    285.80833   -38669.738    170.38807   -38840.126    1445.0827 
   23400    335.20292   -38629.201    199.83525   -38829.036    25845.363 
   23600    308.40532   -38655.785    183.85953   -38839.645    15694.058 
   23800    282.34513   -38656.842    168.32344   -38825.166    16606.114 
   24000    351.92772   -38612.722    209.80594   -38822.528   -15735.821 
   24200    320.32242   -38640.012    190.96406   -38830.976    20337.971 
   24400    292.58874    -38658.34    174.43029    -38832.77    -7903.373 
   24600    325.23472   -38626.157    193.89258   -38820.049    9992.1275 
   24800    324.66402   -38647.352    193.55236   -38840.904    17153.814 
   25000    293.01013   -38651.798    174.68151   -38826.479     5855.911 
   25200    306.42854   -38647.951    182.68105   -38830.632   -20836.341 
   25400    330.96906   -38632.518    197.31118   -38829.829    21696.314 
   25600    267.06294   -38660.756    159.21278   -38819.969   -1371.1691 
   25800    288.04086   -38661.946    171.71902   -38833.665   -16495.155 
   26000    319.87688   -38632.557    190.69845   -38823.255    14845.336 
   26200    322.52125   -38648.883    192.27491   -38841.158    4519.1949 
   26400    283.92438   -38662.525    169.26493   -38831.789   -954.63624 
   26600    321.07689   -38623.556    191.41385    -38814.97    29226.387 
   26800    275.64773   -38650.064    164.33071   -38814.395    7092.2802 
   27000    319.88086   -38656.355    190.70082   -38847.055   -9158.4514 
   27200    302.48484   -38625.805    180.32997   -38806.135    23398.156 
   27400    298.44189   -38651.796    177.91972   -38829.716     -3970.77 
   27600    286.26324   -38655.807    170.65927   -38826.466    5952.6859 
   27800     329.3953   -38622.049    196.37297   -38818.422   -11807.916 
   28000    267.93781   -38659.152    159.73434   -38818.887   -22318.953 
   28200    301.67406   -38657.095    179.84661   -38836.942   -3352.2168 
   28400    307.26642   -38631.378    183.18057   -38814.558    25234.887 
   28600    304.46278   -38653.837    181.50915   -38835.346    10753.694 
   28800    301.08009   -38652.272    179.49251   -38831.765   -58111.289 
   29000    285.27519   -38641.266    170.07023   -38811.337   -7.2564564 
   29200    285.22336   -38658.896    170.03933   -38828.936    10774.003 
   29400     280.3881   -38668.819    167.15674   -38835.975   -8487.1583 
   29600    310.04125   -38636.963    184.83481   -38821.798    15171.637 
   29800    282.14811   -38665.644    168.20599    -38833.85    4542.6873 
   30000    317.12858   -38660.937    189.06001   -38849.997   -19615.047 
   30200    294.61594   -38643.627    175.63883   -38819.266    13918.066 
   30400    282.57314   -38645.421    168.45937   -38813.881   -15555.929 
   30600    283.65524   -38651.557    169.10448   -38820.661    10248.112 
   30800    272.20915    -38664.37    162.28075   -38826.651     5411.129 
   31000    276.91687   -38659.696    165.08732   -38824.783     22232.49 
   31200    298.11838   -38640.218    177.72685   -38817.945    920.22823 
   31400    297.94547   -38671.264    177.62377   -38848.888    14587.746 
   31600      288.293   -38673.727    171.86934   -38845.597    23847.992 
   31800    292.91232   -38651.042     174.6232   -38825.665   -20245.414 
   32000     319.4902   -38636.332    190.46792     -38826.8   -1848.9048 
   32200    295.16137   -38673.491    175.96399   -38849.455   -9528.5035 
   32400    296.64996   -38651.309    176.85143    -38828.16    14620.985 
   32600    293.56838    -38643.32    175.01432   -38818.334   -36151.444 
   32800    303.81391   -38658.046    181.12231   -38839.168   -30771.637 
   33000    286.62215   -38665.955    170.87323   -38836.829   -10284.873 
   33200    293.66117    -38637.42    175.06963    -38812.49   -16068.256 
   33400    270.97026   -38656.511    161.54217   -38818.053    266.29211 
   33600    291.99434   -38670.239    174.07594   -38844.315    9554.3453 
   33800    302.45172   -38648.334    180.31022   -38828.645   -11604.037 
   34000    271.45554   -38653.483    161.83148   -38815.314   -14869.735 
   34200    288.43536   -38643.119    171.95421   -38815.074      2608.19 
   34400    310.82677   -38650.903    185.30311   -38836.206     -3884.03 
   34600    262.67761   -38675.202    156.59841   -38831.801    3551.0255 
   34800    307.10842   -38635.587    183.08637   -38818.673   -62249.749 
   35000    312.41266   -38651.164    186.24856   -38837.413    4367.3216 
   35200    282.79371   -38660.845    168.59087   -38829.436   -17825.959 
   35400    301.69398   -38636.123    179.85849   -38815.981   -1541.7639 
   35600    309.91671   -38624.897    184.76057   -38809.658    18381.825 
   35800    296.32114   -38660.221    176.65541   -38836.876    26831.862 
   36000    283.55589    -38646.43    169.04525   -38815.476     6724.995 
   36200    327.28184   -38632.252      195.113   -38827.365   -7434.4484 
   36400     295.9271   -38648.282    176.42049   -38824.702    45.068377 
   36600    298.99599   -38645.232    178.25005   -38823.482   -3161.8938 
   36800    317.37927   -38613.666    189.20947   -38802.876   -3765.0253 
   37000      285.336   -38646.157    170.10648   -38816.263   -18282.965 
   37200    284.38839   -38651.095    169.54155   -38820.636    10252.878 
   37400     315.1789   -38627.909    187.89769   -38815.807   -4346.2736 
   37600    291.01538   -38632.152    173.49231   -38805.644    17679.359 
   37800    284.17065   -38655.705    169.41175   -38825.117   -2018.0829 
   38000    301.84445   -38633.584    179.94819   -38813.532   -9538.8116 
   38200    329.30481   -38601.942    196.31902   -38798.261   -21244.033 
   38400    303.46437   -38642.379    180.91393   -38823.293    14974.026 
   38600    295.00749   -38654.544    175.87226   -38830.416   -30005.799 
   38800    315.90786   -38629.009    188.33226   -38817.342   -20285.496 
   39000    296.87995   -38635.892    176.98855    -38812.88    -17904.07 
   39200    304.92423   -38658.245    181.78424   -38840.029   -7062.2142 
   39400    315.79821   -38634.118    188.26689   -38822.385     18023.52 
   39600    336.71708   -38607.586    200.73793   -38808.324     2663.597 
   39800    298.57176   -38652.501    177.99714   -38830.498   -8268.9561 
   40000    304.36133   -38648.374    181.44866   -38829.823   -6396.4883 
   40200    331.60163   -38618.649     197.6883   -38816.337   -5360.5152 
   40400    320.63859   -38651.464    191.15255   -38842.616    13221.996 
   40600    324.21289   -38653.714    193.28341   -38846.997    10569.306 
   40800    301.11185   -38621.112    179.51144   -38800.623   -10660.851 
   41000    295.99559   -38645.944    176.46133   -38822.406    7992.1939 
   41200    290.88154   -38656.189    173.41252   -38829.601    -21544.14 
   41400    320.47309   -38626.526    191.05388   -38817.579   -13600.301 
   41600    296.77392   -38663.288    176.92534   -38840.213     7955.027 
   41800    315.77812   -38656.171    188.25492   -38844.426    13273.594 
   42000    318.43169   -38636.446    189.83688   -38826.283    7725.9086 
   42200    292.70264   -38654.648     174.4982   -38829.146   -14316.254 
   42400    259.08641   -38695.466    154.45747   -38849.923    13833.233 
   42600    302.27741   -38660.943    180.20631   -38841.149   -42098.664 
   42800     304.8749   -38638.519    181.75484   -38820.274    2031.9642 
   43000    296.48469   -38664.306    176.75291   -38841.059    1965.0857 
   43200    283.32318   -38663.939    168.90652   -38832.846    16413.947 
   43400    294.83986   -38644.513    175.77233   -38820.286   -10668.368 
   43600    296.35369   -38653.846    176.67481   -38830.521    32883.592 
   43800     269.8138   -38674.828    160.85274   -38835.681   -16456.571 
   44000    309.03437   -38635.852    184.23455   -38820.086    18143.243 
   44200    307.60766   -38652.845      183.384   -38836.229   -12948.163 
   44400    270.07537   -38682.243    161.00867   -38843.252   -1298.8683 
   44600    299.56487   -38656.158    178.58919   -38834.747    -17987.48 
   44800    308.66547   -38643.319    184.01463   -38827.333   -14216.515 
   45000    298.91197   -38662.904    178.19996   -38841.103    8230.5031 
   45200    290.68415   -38667.098    173.29485   -38840.393    -29052.58 
   45400    311.47618   -38634.235    185.69026   -38819.926    27801.219 
   45600    298.72693   -38662.168    178.08965   -38840.258    38062.413 
   45800    308.08318   -38652.053    183.66749   -38835.721    23066.985 
   46000    305.76705   -38644.523     182.2867    -38826.81    7373.9716 
   46200    314.70398   -38654.051    187.61456   -38841.665   -5559.1474 
   46400     293.5769   -38667.052     175.0194   -38842.071   -15546.944 
   46600    294.22499   -38629.631    175.40576   -38805.036    16813.801 
   46800     305.2528    -38649.32    181.98013   -38831.301   -19332.764 
   47000    315.34787   -38656.676    187.99842   -38844.674    5235.5615 
   47200    286.34687   -38650.766    170.70913   -38821.475   -1001.8676 
   47400    331.58145   -38622.054    197.67626    -38819.73    7312.6408 
   47600    280.19489   -38649.421    167.04155   -38816.462    18987.284 
   47800    288.98414   -38658.697    172.28137   -38830.978   -23923.453 
   48000    297.78655   -38627.909    177.52903   -38805.438   -23783.612 
   48200    302.25562   -38668.953    180.19332   -38849.146    22858.809 
   48400      316.297   -38653.912    188.56426   -38842.476   -11638.824 
   48600    319.71564   -38637.397    190.60232   -38827.999   -10578.318 
   48800    273.90897   -38677.667    163.29412   -38840.961    16413.761 
   49000    275.53443   -38662.835    164.26316   -38827.099    2267.0624 
   49200    311.39288   -38641.366    185.64061   -38827.007    7144.0409 
   49400    291.84887   -38657.651    173.98921   -38831.641   -10350.628 
   49600    292.30904   -38669.389    174.26355   -38843.652    3459.6807 
   49800    292.94402   -38641.434     174.6421   -38816.076    9034.8937 
   50000    308.65118   -38653.921    184.00611   -38837.927   -2463.4657 
   50200    295.02655   -38687.493    175.88362   -38863.377   -9415.2568 
   50400    295.42445   -38658.422    176.12083   -38834.543   -4724.6805 
   50600    303.46889   -38641.403    180.91662   -38822.319    16923.192 
   50800    280.26336   -38651.206    167.08237   -38818.289    6753.6067 
   51000    276.00972   -38670.732    164.54651   -38835.278    990.43876 
   51200    328.94273   -38630.241    196.10316   -38826.344    3093.8275 
   51400    319.37801   -38656.642    190.40104   -38847.043   -14678.257 
   51600    275.77591   -38667.207    164.40712   -38831.614    32696.359 
   51800    296.08176   -38631.499     176.5127   -38808.012    1650.8351 
   52000    295.87958   -38660.251    176.39217   -38836.643    34177.726 
   52200    300.02983    -38660.13    178.86639   -38838.997   -22817.653 
   52400    296.60456   -38648.422    176.82437   -38825.246    -25277.54 
   52600    315.48712   -38638.149    188.08144    -38826.23   -20059.905 
   52800    341.19684   -38620.911     203.4086   -38824.319   -8301.7033 
   53000    283.07318   -38659.496    168.75748   -38828.254   -30718.945 
   53200    322.89817   -38642.951    192.49962   -38835.451    20054.666 
   53400    306.74691   -38631.015    182.87085   -38813.886   -3758.2475 
   53600    280.55223   -38646.784    167.25458   -38814.039    7124.7406 
   53800     298.4888   -38667.382    177.94768    -38845.33    15770.234 
   54000    269.92503   -38670.092    160.91905   -38831.011   -33907.995 
   54200    300.40144   -38643.243    179.08793   -38822.331   -16287.283 
   54400    296.50301   -38640.071    176.76383   -38816.835    17148.732 
   54600    263.17274   -38674.595    156.89359   -38831.489   -26497.405 
   54800    294.44328   -38647.967     175.5359   -38823.503     23519.87 
   55000    317.16864   -38645.806     189.0839    -38834.89    5441.1825 
   55200    293.62648   -38648.028    175.04895   -38823.077   -27624.477 
   55400    285.84069   -38645.585    170.40736   -38815.993    -39488.84 
   55600    315.43373   -38647.435    188.04961   -38835.485    517.67898 
   55800    284.24458   -38673.149    169.45582   -38842.605    13039.843 
   56000    308.60528   -38633.674    183.97874   -38817.653   -16509.405 
   56200    316.03747   -38649.678    188.40954   -38838.088    14549.129 
   56400    265.16298   -38676.953    158.08009   -38835.033   -2281.8924 
   56600    277.62722    -38669.12     165.5108   -38834.631    14530.595 
   56800    321.81918   -38639.008    191.85637   -38830.865    17704.917 
   57000    298.28265   -38648.511    177.82478   -38826.335   -12897.044 
   57200    271.84386   -38671.062    162.06298   -38833.125     7220.396 
   57400    312.72393   -38632.773    186.43413   -38819.207   -17079.964 
   57600    277.00529   -38658.389    165.14003   -38823.529    4266.4649 
   57800    299.53655   -38649.303    178.57231   -38827.875    9261.8876 
   58000    311.13575   -38625.767    185.48731   -38811.255   -15353.553 
   58200    285.44111   -38652.705    170.16915   -38822.874    21581.793 
   58400      281.407   -38655.771    167.76416   -38823.535   -3752.5398 
   58600    335.64757   -38629.359    200.10033   -38829.459    9474.3073 
   58800    308.99904   -38651.352    184.21349   -38835.565    1366.8909 
   59000    295.53287   -38663.154    176.18547   -38839.339    52181.553 
   59200    317.77911   -38630.216    189.44784   -38819.664    13436.074 
   59400    310.57392   -38644.983    185.15237   -38830.135    21019.119 
   59600    266.44439   -38693.067    158.84402   -38851.911    17480.933 
   59800     280.0866   -38661.561    166.97699   -38828.538    4234.0314 
   60000    307.21161   -38634.369    183.14789   -38817.517    3738.2439 
   60200     294.1558   -38661.066    175.36451   -38836.431    4893.8476 
   60400    285.92735   -38663.429    170.45902   -38833.888   -191.57874 
   60600    298.38866   -38645.619    177.88798   -38823.507    9426.2686 
   60800    290.69815   -38650.454    173.30319   -38823.758   -509.42065 
   61000    276.29958   -38669.795    164.71931   -38834.514    9726.5043 
   61200    324.75527   -38636.969    193.60676   -38830.576    16222.357 
   61400    295.96632   -38644.261    176.44388   -38820.705   -8107.7734 
   61600    254.91944   -38675.767    151.97328    -38827.74    2520.1415 
   61800    280.42048   -38658.958    167.17604   -38826.134   -14585.262 
   62000    327.62308   -38639.796    195.31644   -38835.113    9097.8171 
   62200    295.27051   -38655.918    176.02906   -38831.947   -16284.493 
   62400     287.5107   -38667.786    171.40295   -38839.189    12011.775 
   62600    311.58553   -38637.117    185.75546   -38822.872   -18464.745 
   62800     305.8441   -38645.757    182.33263    -38828.09    15713.189 
   63000    269.80161   -38683.609    160.84547   -38844.454    9009.3436 
   63200    293.39645   -38664.308    174.91181    -38839.22   -8453.8911 
   63400     293.7242   -38647.491    175.10721   -38822.598   -26150.584 
   63600    311.38942    -38629.74    185.63854   -38815.379    3391.9069 
   63800    290.49837   -38663.069    173.18409   -38836.253    3684.9595 
   64000    313.16466   -38646.844    186.69687   -38833.541    41107.838 
   64200    326.08524   -38621.834    194.39963   -38816.233   -37855.287 
   64400    324.95277   -38645.984     193.7245   -38839.708    8282.3841 
   64600    313.63402    -38654.52    186.97669   -38841.496   -31695.976 
   64800    339.03886   -38617.725    202.12209   -38819.847   -34846.207 
   65000    304.48185   -38642.508    181.52051   -38824.028    8438.6874 
   65200    288.79185   -38652.809    172.16673   -38824.975      750.261 
   65400    301.36803    -38635.42    179.66417   -38815.084   -14269.716 
   65600    329.21446   -38622.883    196.26516   -38819.148   -2834.8659 
   65800     308.2287   -38645.561    183.75424   -38829.315    10721.137 
   66000    274.05487   -38665.806     163.3811   -38829.187    5280.4824 
   66200    283.83251   -38659.203    169.21016   -38828.413   -964.98538 
   66400    324.17468   -38630.044    193.26063   -38823.305   -26329.601 
   66600    273.09985   -38663.037    162.81176   -38825.848   -22294.694 
   66800    287.19619   -38670.274    171.21546    -38841.49    18963.974 
   67000    280.76831   -38645.619     167.3834   -38813.003   -16906.568 
   67200    302.88288   -38645.311    180.56727   -38825.878   -26986.274 
   67400    301.03819   -38645.842    179.46753   -38825.309   -20945.783 
   67600    307.45374   -38664.735    183.29224   -38848.028   -5197.8108 
   67800     304.6718   -38650.343    181.63375   -38831.977   -2108.4156 
   68000     290.9857   -38634.288    173.47462   -38807.763    2422.1166 
   68200    294.27815   -38667.628    175.43745   -38843.065   -3195.5697 
   68400    294.19576   -38648.775    175.38833   -38824.163   -48.336496 
   68600    310.92076   -38638.727    185.35915   -38824.086    25041.616 
   68800    280.28253   -38665.938     167.0938   -38833.032     7668.603 
   69000     315.1064   -38635.804    187.85446   -38823.659   -17649.621 
   69200    319.75728   -38636.202    190.62715   -38826.829   -12735.467 
   69400     300.4374   -38649.009    179.10937   -38828.118   -69.787825 
   69600    280.96993   -38657.825     167.5036   -38825.328   -29812.533 
   69800    288.84062   -38656.146     172.1958   -38828.342    470.50868 
   70000    309.69882   -38625.015    184.63067   -38809.646   -33568.477 
   70200    291.45773   -38661.463    173.75602   -38835.219     34805.43 
   70400    295.09036   -38652.844    175.92166   -38828.766    25475.335 
   70600     343.9982   -38622.363    205.07866   -38827.442    16299.849 
   70800    277.22877   -38652.064    165.27326   -38817.337    -13633.31 
   71000    292.49103   -38660.593    174.37204   -38834.965    255.03172 
   71200    321.60747    -38626.43    191.73015    -38818.16   -31078.696 
   71400    281.85411   -38644.189    168.03071    -38812.22   -9174.1327 
   71600    289.52167   -38647.713    172.60182   -38820.315    3958.1388 
   71800    329.60578   -38647.178    196.49844   -38843.676    22253.519 
   72000    272.66721   -38685.237    162.55383   -38847.791   -491.47124 
   72200    290.35652   -38656.002    173.09952   -38829.102    4749.3758 
   72400    299.50147   -38641.974     178.5514   -38820.525   -29615.188 
   72600    302.62737   -38660.205    180.41494    -38840.62    28110.513 
   72800    289.81399   -38666.267    172.77609   -38839.043   -22000.452 
   73000    324.00682    -38646.36    193.16056   -38839.521   -5388.9827 
   73200    319.09508   -38643.925    190.23237   -38834.157   -1442.0273 
   73400    274.24379   -38665.619    163.49373   -38829.112    28483.432 
   73600    309.25887   -38648.065    184.36839   -38832.433    31062.553 
   73800    339.33735   -38635.396    202.30004   -38837.696     17695.06 
   74000    313.72462    -38650.01     187.0307   -38837.041    4334.8724 
   74200    284.84262   -38655.593    169.81235   -38825.406    15520.183 
   74400    301.44176    -38649.44    179.70812   -38829.148   -17537.211 
   74600    292.53108   -38647.257    174.39592   -38821.652   -7445.5279 
   74800    312.59498   -38655.195    186.35725   -38841.552   -6465.2698 
   75000    275.88548   -38661.099    164.47244   -38825.571   -15285.194 
   75200    354.37284   -38624.824    211.26363   -38836.087   -13581.346 
   75400    315.82561   -38646.527    188.28323   -38834.811   -5606.0232 
   75600    307.98136    -38653.07    183.60678   -38836.677   -6652.9348 
   75800    282.58325   -38646.949     168.4654   -38815.414    3281.9047 
   76000    351.21211   -38606.027    209.37932   -38815.407   -847.32409 
   76200    301.05384   -38645.877    179.47686   -38825.354   -2860.4433 
   76400    283.46698   -38663.667    168.99224    -38832.66    5243.5468 
   76600    302.37983   -38654.515    180.26737   -38834.782    10441.089 
   76800    297.98639   -38637.399    177.64816   -38815.047   -30031.139 
   77000     272.5097   -38668.579    162.45993   -38831.039    26184.528 
   77200    301.17337   -38654.563    179.54812   -38834.111   -21557.518 
   77400    306.95803   -38644.237    182.99671   -38827.233    627.41807 
   77600    286.15635   -38653.448    170.59554   -38824.044    300.26495 
   77800    291.84947   -38662.387    173.98957   -38836.377    7969.7392 
   78000    296.60441   -38625.671    176.82428   -38802.496   -18130.338 
   78200    301.83204   -38650.616    179.94079   -38830.557   -4004.9863 
   78400    272.12614   -38661.592    162.23127   -38823.823     14193.97 
   78600    322.40812   -38636.693    192.20747   -38828.901    11558.875 
   78800     292.1086   -38658.848    174.14405   -38832.992   -5545.4244 
   79000    296.20275   -38662.056    176.58483    -38838.64    25376.455 
   79200    316.35696    -38643.84        188.6    -38832.44   -11125.839 
   79400     303.2484   -38640.324    180.78518    -38821.11    34553.613 
   79600    286.00634   -38660.514    170.50611    -38831.02    13181.077 
   79800    307.79715   -38647.579    183.49697   -38831.076    1372.4285 
   80000    346.73926   -38626.216    206.71277   -38832.929    23918.997 
   80200    297.12723   -38667.587    177.13597   -38844.723    4696.6102 
   80400    307.38601   -38649.691    183.25186   -38832.943    10805.882 
   80600    292.99777   -38638.933    174.67414   -38813.607   -5001.5428 
   80800    288.48359     -38674.3    171.98296   -38846.283    14860.949 
   81000    315.70682   -38645.335    188.21241   -38833.548   -847.51658 
   81200     322.8879   -38641.989     192.4935   -38834.482    39121.415 
   81400    261.41867   -38681.355    155.84788   -38837.203   -14781.813 
   81600    281.87877   -38654.883    168.04541   -38822.928    25766.064 
   81800    306.60043   -38640.943    182.78353   -38823.727   -38773.567 
   82000    270.66653   -38667.976     161.3611   -38829.337    19444.756 
   82200    312.63772   -38652.571    186.38273   -38838.954   -540.40849 
   82400    312.98041   -38637.061    186.58703   -38823.648   -12937.992 
   82600     283.9378   -38666.217    169.27293    -38835.49    52552.241 
   82800    322.77295   -38631.093    192.42497   -38823.518    15753.111 
   83000     313.2065   -38641.906    186.72182   -38828.628   -22842.899 
   83200    315.00181   -38658.654    187.79211   -38846.446   -41020.329 
   83400     330.9765   -38620.617    197.31562   -38817.932    35881.107 
   83600    292.23955    -38638.28    174.22212   -38812.502    23523.125 
   83800    314.85077    -38650.81    187.70207   -38838.512   -6891.1135 
   84000    308.90468   -38635.592    184.15724    -38819.75    1725.5904 
   84200    320.65282   -38628.156    191.16103   -38819.317   -23835.466 
   84400    296.60613    -38657.28    176.82531   -38834.105   -35437.264 
   84600    298.70427   -38641.534    178.07614    -38819.61   -34398.678 
   84800    326.28037   -38599.229    194.51596   -38793.745    1872.1568 
   85000    293.99844   -38632.732     175.2707   -38808.003    2954.5627 
   85200    298.80686   -38652.542     178.1373   -38830.679    -10173.87 
   85400    292.03343   -38666.107    174.09923   -38840.206    28989.808 
   85600    330.14542   -38631.114    196.82016   -38827.934    1260.2215 
   85800    296.80892   -38645.828     176.9462   -38822.774    948.34758 
   86000    298.95547   -38666.406     178.2259   -38844.632    6104.6651 
   86200    296.34998   -38651.806     176.6726   -38828.479    18849.999 
   86400      300.965   -38637.799     179.4239   -38817.222   -2923.0301 
   86600    281.28393   -38658.781    167.69079   -38826.471   -28980.362 
   86800    297.96866   -38665.123    177.63759    -38842.76    1706.9532 
   87000    285.84233   -38636.097    170.40834   -38806.506   -2716.6903 
   87200    301.81997   -38644.539     179.9336   -38824.473    17950.499 
   87400    257.98609   -38677.666    153.80151   -38831.468    30556.539 
   87600    305.84482   -38653.342    182.33306   -38835.675    29911.277 
   87800    294.13891   -38640.441    175.35444   -38815.795   -13644.432 
   88000    315.12793   -38636.262     187.8673   -38824.129    3764.0504 
   88200    305.25037   -38656.947    181.97867   -38838.925   -21130.542 
   88400    287.52481   -38663.036    171.41137   -38834.448    24276.143 
   88600    309.93412   -38625.028    184.77095   -38809.799   -17508.603 
   88800    291.55675   -38649.141    173.81506   -38822.956    -2448.273 
   89000    295.26191   -38657.109    176.02394   -38833.133   -26344.378 
   89200    311.90728   -38644.825    185.94727   -38830.773    53881.744 
   89400    317.55122   -38602.204    189.31197   -38791.516    33286.915 
   89600    290.81386   -38636.786    173.37218   -38810.158    2006.8225 
   89800    285.36184   -38659.618    170.12189    -38829.74   -14780.804 
   90000    318.57266   -38648.973    189.92092   -38838.894    3357.8954 
   90200    315.27152   -38628.016     187.9529   -38815.969   -9861.4962 
   90400    288.58785    -38661.97    172.04511   -38834.016   -13998.688 
   90600    295.62097   -38648.539    176.23799   -38824.777    1836.5592 
   90800    340.18458   -38614.003    202.80512   -38816.808    2372.8652 
   91000    314.49021   -38626.219    187.48712   -38813.706    11503.719 
   91200    304.97303   -38650.546    181.81333    -38832.36   -21587.653 
   91400    300.42849   -38656.524    179.10405   -38835.628    4027.6878 
   91600    325.53749   -38622.599    194.07308   -38816.672   -38641.903 
   91800    297.57926    -38650.99    177.40545   -38828.395    5748.4732 
   92000    296.29968    -38655.06    176.64261   -38831.703    450.29837 
   92200    317.92198    -38634.12    189.53301   -38823.653    25084.369 
   92400    321.79526   -38601.492    191.84211   -38793.334    7445.1324 
   92600    317.53211   -38647.043    189.30058   -38836.343   -16176.868 
   92800    272.27456   -38661.897    162.31975   -38824.217    26538.484 
   93000    330.80588   -38629.681     197.2139   -38826.895    -16883.18 
   93200    287.82035   -38642.786    171.58756   -38814.373    22934.015 
   93400     300.9756   -38664.538    179.43022   -38843.968   -176.36429 
   93600    310.47961    -38639.28    185.09615   -38824.376   -6417.8075 
   93800     317.2803   -38633.005    189.15046   -38822.155   -1787.6309 
   94000    275.54039   -38664.991    164.26671   -38829.258    13055.572 
   94200    306.66202   -38636.559    182.82025   -38819.379    13487.271 
   94400    340.89747   -38626.013    203.23012   -38829.243    25806.458 
   94600    314.25052   -38647.261    187.34422   -38834.606    51573.728 
   94800    281.07775   -38652.019    167.56787   -38819.587   -15373.915 
   95000    286.04041   -38665.851    170.52643   -38836.378    12752.546 
   95200    294.23382   -38657.486    175.41103   -38832.897   -11854.153 
   95400     295.2093   -38636.525    175.99257   -38812.517   -10920.418 
   95600    290.43481   -38667.331     173.1462   -38840.477    11766.581 
   95800    287.76239   -38671.897    171.55301    -38843.45    29952.351 
   96000    305.92816   -38640.828    182.38275   -38823.211    -1695.644 
   96200    298.82481   -38648.262      178.148    -38826.41    51122.163 
   96400    275.29528   -38680.142    164.12059   -38844.263   -49439.375 
   96600    280.71605   -38657.154    167.35224   -38824.506   -1326.5156 
   96800    294.87118   -38640.678      175.791   -38816.469   -29564.363 
   97000    272.76044   -38670.413    162.60941   -38833.023   -6990.3819 
   97200     310.7733   -38662.728    185.27124   -38847.999   -26533.183 
   97400     310.6527   -38637.397    185.19934   -38822.596    2263.2199 
   97600    278.19629   -38655.402    165.85006   -38821.252   -5903.3109 
   97800    287.18418   -38647.815     171.2083   -38819.023    37054.524 
   98000    302.83351   -38633.931    180.53784   -38814.469    5264.8811 
   98200    268.16722   -38655.128    159.87111   -38814.999    7743.0263 
   98400    310.85057   -38634.265     185.3173   -38819.582    1722.6936 
   98600    326.89396   -38629.733    194.88176   -38824.615    40071.011 
   98800     296.2808   -38657.098    176.63136   -38833.729   -16779.131 
   99000    327.37337   -38632.577    195.16756   -38827.744    21192.511 
   99200    283.68817   -38665.105    169.12411   -38834.229    5184.3337 
   99400    277.05305   -38654.224     165.1685   -38819.392   -8961.0553 
   99600     299.5782   -38637.385    178.59714   -38815.982    55744.067 
   99800    283.26709   -38656.229    168.87308   -38825.102   -27027.704 
  100000    268.64257   -38676.643    160.15449   -38836.797    19076.763 
  100200    290.35773   -38641.951    173.10025   -38815.051    32914.132 
  100400     313.6142   -38640.399    186.96487   -38827.363    23874.978 
  100600    283.18142   -38673.879      168.822   -38842.701   -3204.2059 
  100800    277.61662   -38649.364    165.50448   -38814.868   -4190.1381 
  101000    297.63834   -38645.572    177.44067   -38823.013   -11339.345 
  101200    289.37286   -38664.177     172.5131    -38836.69    35239.521 
  101400    307.59178   -38648.036    183.37453    -38831.41   -29800.027 
  101600    315.07752   -38625.489    187.83725   -38813.326   -4113.9349 
  101800    312.41842   -38666.772      186.252   -38853.024    7082.1502 
  102000    293.51242   -38645.192    174.98095   -38820.173    30352.771 
  102200    281.52444   -38640.457    167.83418   -38808.292    15108.148 
  102400    286.95074   -38649.207    171.06913   -38820.276   -14562.529 
  102600    310.39339   -38650.051    185.04475   -38835.096   -29170.483 
  102800    306.08597   -38639.389    182.47683   -38821.866   -4129.0052 
  103000    293.59709   -38647.433    175.03143   -38822.464    9701.7159 
  103200    289.37144   -38666.935    172.51226   -38839.447   -12647.921 
  103400    296.05065    -38635.74    176.49415   -38812.234    12914.715 
  103600    300.75178   -38638.991    179.29679   -38818.287   -11305.839 
  103800     286.0343    -38647.88    170.52279   -38818.403    10763.867 
  104000    321.07562   -38645.961    191.41308   -38837.374   -34774.817 
  104200    286.78988   -38668.542    170.97323   -38839.515   -17485.437 
  104400    302.24874   -38639.853    180.18922   -38820.042   -19295.438 
  104600    299.14107   -38637.957    178.33654   -38816.293   -21876.625 
  104800    278.23711   -38677.817     165.8744   -38843.691    11396.815 
  105000    284.33992    -38659.83    169.51266   -38829.342   -10268.802 
  105200    325.52858   -38639.712    194.06777    -38833.78   -16155.216 
  105400    279.80538   -38668.111    166.80934    -38834.92   -23176.803 
  105600    273.41424   -38673.486    162.99918   -38836.485    13040.552 
  105800    311.65546   -38638.278    185.79714   -38824.075    -4894.455 
  106000    290.24721   -38656.339    173.03436   -38829.374    22860.987 
  106200    283.50927   -38661.718    169.01745   -38830.735   -37486.326 
  106400    314.34615   -38628.404    187.40123   -38815.805    9174.8134 
  106600    291.81369    -38659.03    173.96823   -38832.998    16471.607 
  106800    277.15582   -38665.241    165.22977   -38830.471    16498.413 
  107000    333.72983   -38642.973    198.95704    -38841.93    7693.9035 
  107200    309.27309   -38650.347    184.37687   -38834.724   -20276.875 
  107400    291.70907   -38672.032    173.90587   -38845.937    -4555.844 
  107600    296.62546   -38636.454    176.83683   -38813.291   -16429.031 
  107800    307.19602       -38649     183.1386   -38832.139   -12700.887 
  108000    299.41134    -38661.86    178.49766   -38840.357   -15165.248 
  108200    300.86501   -38648.543    179.36429   -38827.908    4372.6443 
  108400     327.6631   -38640.367    195.34029   -38835.707    13641.733 
  108600    318.62407   -38665.557    189.95157   -38855.508   -9151.5423 
  108800    305.94254   -38647.302    182.39132   -38829.694    1422.2178 
  109000    335.05844   -38639.037    199.74911   -38838.786   -17564.525 
  109200    309.91149   -38664.707    184.75745   -38849.465   -3872.6317 
  109400    278.53041   -38654.957    166.04925   -38821.006   -11746.899 
  109600     277.3821   -38634.325    165.36467    -38799.69   -6113.0696 
  109800     279.1572   -38626.356    166.42292   -38792.779    -16683.99 
  110000    313.28236   -38655.949    186.76704   -38842.716     41935.75 
  110200    293.25551   -38644.092    174.82779    -38818.92     22281.42 
  110400    313.61987   -38637.403    186.96825   -38824.371    4269.4933 
  110600    303.85662   -38666.484    181.14778   -38847.631    4758.8967 
  110800    319.13788   -38636.348    190.25788   -38826.606   -20185.134 
  111000     320.8704   -38639.019    191.29074    -38830.31   -35448.087 
  111200    301.66839   -38652.484    179.84324   -38832.328    232.82109 
  111400    281.78473   -38649.373    167.98935   -38817.362    19484.724 
  111600    327.77239   -38626.284    195.40545    -38821.69     -7312.29 
  111800    274.10034     -38657.8    163.40821   -38821.208    4559.6321 
  112000    295.08725   -38657.938    175.91981   -38833.858   -26179.106 
  112200    322.58835   -38627.657    192.31492   -38819.972    31846.432 
  112400    267.49304   -38662.627    159.46919   -38822.096   -3226.4546 
  112600    317.30686   -38649.866    189.16629   -38839.032    43464.446 
  112800    308.99147   -38626.382    184.20898   -38810.591    26784.967 
  113000    321.89912   -38655.885    191.90402   -38847.789   -19702.603 
  113200    288.38865   -38660.896    171.92636   -38832.823   -7145.1213 
  113400    288.98489   -38635.775    172.28181   -38808.057    30938.253 
  113600    286.04437   -38677.557    170.52879   -38848.085    12783.577 
  113800    302.35669   -38650.497    180.25357    -38830.75    4351.7638 
  114000    331.23786   -38640.411    197.47143   -38837.883      28198.9 
  114200    288.15187   -38680.012     171.7852   -38851.797   -1852.1819 
  114400    288.56309   -38652.207    172.03035   -38824.237   -6604.2741 
  114600    299.96861   -38644.205    178.82989   -38823.035   -19283.272 
  114800    290.97015   -38667.745    173.46535   -38841.211   -5280.4349 
  115000    257.59594   -38674.697    153.56891   -38828.266   -2717.0112 
  115200    298.66533    -38644.94    178.05292   -38822.993    -20617.88 
  115400    305.16227   -38649.751    181.92615   -38831.677   -12015.191 
  115600    276.65546   -38671.642    164.93147   -38836.573    18127.611 
  115800    332.20694   -38634.683    198.04916   -38832.732    3957.0961 
  116000    315.79645   -38641.451    188.26585   -38829.716   -10949.979 
  116200    266.95188   -38654.749    159.14657   -38813.895    7533.5351 
  116400    308.19911     -38636.3     183.7366   -38820.036   -23795.956 
  116600    284.34234   -38635.498     169.5141   -38805.012    -4192.363 
  116800    307.46022    -38659.02     183.2961   -38842.316   -12810.989 
  117000     312.4225   -38644.433    186.25443   -38830.688   -4966.0165 
  117200    341.61962   -38605.284    203.66064   -38808.945   -5535.9492 
  117400    299.27842   -38645.881    178.41842   -38824.299   -34900.474 
  117600    304.56958   -38658.769    181.57281   -38840.341    18674.763 
  117800    343.30545   -38618.769    204.66567   -38823.434   -8545.9307 
  118000    291.78612   -38646.785     173.9518   -38820.737    21868.295 
  118200    315.19431   -38647.918    187.90687   -38835.824   -10778.381 
  118400    300.12145   -38630.068    178.92101   -38808.989    15045.671 
  118600    319.27594   -38657.297    190.34019   -38847.637    36106.177 
  118800    297.11668   -38658.048    177.12967   -38835.178   -10164.673 
  119000    310.41913   -38622.806    185.06009   -38807.866    4847.3452 
  119200    292.64827   -38657.195    174.46578   -38831.661    5985.4824 
  119400    310.94334   -38652.782    185.37261   -38838.155    1199.7769 
  119600    332.03023    -38618.82    197.94381   -38816.764     33164.26 
  119800    317.01455   -38646.075    188.99203   -38835.067    23156.661 
  120000    294.93487   -38656.899    175.82896   -38832.728    -12671.11 
  120200    305.16517   -38644.402    181.92788    -38826.33   -10036.578 
  120400    296.28907   -38644.241    176.63628   -38820.877    26556.065 
  120600     265.5344    -38671.93    158.30152   -38830.231    15870.942 
  120800    288.59351   -38652.269    172.04849   -38824.318    6002.7464 
  121000    308.89536   -38638.492    184.15168   -38822.644    13340.783 
  121200    312.72698   -38660.529    186.43594   -38846.965   -14952.632 
  121400    274.48039   -38676.986    163.63478   -38840.621    23154.688 
  121600    312.45742   -38639.419    186.27524   -38825.694   -14285.052 
  121800    317.27459   -38640.895    189.14706   -38830.042    14331.264 
  122000    288.28452   -38672.514    171.86428   -38844.378   -10591.511 
  122200    301.59379     -38648.4    179.79876   -38828.199    8060.4075 
  122400    334.35994   -38637.559    199.33269   -38836.891    5471.0217 
  122600    275.33318   -38668.451    164.14318   -38832.595      19191.5 
  122800    301.95845   -38661.914    180.01616    -38841.93    30425.774 
  123000    305.15429   -38648.027     181.9214   -38829.949    13565.681 
  123200      308.424   -38640.913    183.87067   -38824.783   -36486.195 
  123400    299.96773   -38649.353    178.82937   -38828.182   -6988.3014 
  123600    290.19288   -38666.227    173.00197   -38839.229   -15496.506 
  123800    305.39179   -38629.833    182.06298   -38811.896   -43822.097 
  124000     305.3052   -38651.619    182.01136    -38833.63   -11964.187 
  124200    293.33514   -38660.873    174.87527   -38835.749   -14158.624 
  124400    321.17739   -38626.183    191.47376   -38817.657   -8890.8541 
  124600    276.01048   -38658.437    164.54696   -38822.984    -25694.45 
  124800    293.65295   -38655.113    175.06473   -38830.177    7893.1525 
  125000    284.14616   -38643.039    169.39715   -38812.436    27473.343 
  125200    316.94065   -38647.263    188.94798   -38836.211    1348.5473 
  125400    297.74564   -38671.054    177.50464   -38848.559   -420.24513 
  125600    268.30721   -38663.655    159.95456   -38823.609    6830.4084 
  125800    347.95747   -38634.098    207.43903   -38841.537   -15103.262 
  126000    270.34082   -38663.494    161.16692   -38824.661   -288.04172 
  126200    293.69872    -38667.48    175.09202   -38842.572   -5861.6277 
  126400    292.01656   -38652.605    174.08918   -38826.694   -550.10248 
  126600    322.85964   -38618.842    192.47665   -38811.318    7813.3676 
  126800    313.11692   -38641.625    186.66841   -38828.293   -20138.394 
  127000    283.36055   -38657.337     168.9288   -38826.266   -5599.9511 
  127200    277.30495   -38642.105    165.31867   -38807.423     37309.69 
  127400    315.49719   -38625.593    188.08744   -38813.681   -14571.199 
  127600    291.75134   -38661.914    173.93107   -38835.846   -7740.5468 
  127800    288.49969   -38659.627    171.99256   -38831.619   -699.83786 
  128000    310.25353   -38628.918    184.96137   -38813.879    13042.092 
  128200    270.14116   -38659.144     161.0479   -38820.192    34520.052 
  128400    280.49572   -38654.371    167.22089   -38821.592    -24576.46 
  128600    288.58964   -38630.307    172.04618   -38802.353    47924.161 
  128800    295.79206   -38657.018    176.33999   -38833.358   -29236.413 
  129000    310.09403   -38660.348    184.86628   -38845.215    23243.306 
  129200    287.65384    -38649.05    171.48829   -38820.538   -13398.407 
  129400    277.04062   -38659.523    165.16109   -38824.685   -18970.184 
  129600    304.25343   -38670.262    181.38434   -38851.646   -16275.346 
  129800    302.48079   -38648.945    180.32756   -38829.272    14628.018 
  130000    304.40049   -38647.035    181.47201   -38828.507   -4977.7125 
  130200    275.71239   -38675.527    164.36925   -38839.896   -30347.961 
  130400    325.88353   -38641.349    194.27938   -38835.629    35826.329 
  130600    319.28116   -38648.924     190.3433   -38839.267    9194.3842 
  130800    300.20921    -38654.77    178.97333   -38833.743    35605.067 
  131000    281.46245   -38659.126    167.79722   -38826.923    -5529.763 
  131200    331.22926   -38631.295     197.4663   -38828.761    14570.727 
  131400    282.23988    -38671.27     168.2607    -38839.53   -898.47137 
  131600    325.64815   -38651.816    194.13905   -38845.955   -9907.7169 
  131800     294.2838   -38638.402    175.44082   -38813.843    3731.2456 
  132000    283.05117   -38676.955    168.74435   -38845.699    19753.097 
  132200    303.37655   -38650.716    180.86157   -38831.578    15473.403 
  132400    300.03577   -38643.066    178.86993   -38821.936    9479.0343 
  132600    265.45419   -38677.587    158.25371    -38835.84    755.96601 
  132800    295.54243   -38651.174    176.19117   -38827.365    4727.3153 
  133000    302.85506   -38644.955    180.55068   -38825.506   -4740.0667 
  133200     290.8566    -38658.62    173.39765   -38832.018    58043.167 
  133400     296.8089   -38670.986    176.94619   -38847.932    18382.152 
  133600    285.05088   -38635.549    169.93651   -38805.486   -9540.7029 
  133800    301.82193   -38657.977    179.93477   -38837.911    2020.5308 
  134000    295.48961   -38663.832    176.15968   -38839.992   -11625.807 
  134200    293.63075   -38641.084     175.0515   -38816.135   -32026.808 
  134400    277.66248   -38657.872    165.53182   -38823.404   -9530.6918 
  134600    288.74648   -38667.644    172.13968   -38839.784    1974.3551 
  134800    328.63369   -38641.429    195.91892   -38837.348    25406.799 
  135000    336.07826   -38650.584    200.35709   -38850.941     15403.33 
  135200    264.51719   -38685.184     157.6951   -38842.879   -8389.3697 
  135400    281.90647   -38651.986    168.06193   -38820.048    15791.571 
  135600    333.80538    -38642.06    199.00209   -38841.062   -15671.645 
  135800    280.53544   -38662.025    167.24457   -38829.269   -11578.944 
  136000    283.49964   -38658.547    169.01172   -38827.559    1576.2086 
  136200    318.34071   -38634.556    189.78264   -38824.339   -22247.709 
  136400    302.27339   -38665.812    180.20391   -38846.015   -3240.5035 
  136600    284.11836   -38654.463    169.38057   -38823.844    22006.945 
  136800    307.55006   -38644.287    183.34966   -38827.637    12055.142 
  137000    290.63867   -38663.027    173.26773   -38836.295    30234.969 
  137200    278.00906   -38670.823    165.73844   -38836.561    7827.6171 
  137400    297.89389   -38636.763    177.59302   -38814.356   -817.68162 
  137600    289.88258   -38649.537    172.81698   -38822.354     5061.553 
  137800     289.3298   -38676.105    172.48743   -38848.592    29264.721 
  138000    281.07744   -38652.055    167.56769   -38819.623    9356.7346 
  138200    303.66792   -38637.176    181.03528   -38818.211    8473.2947 
  138400    282.38308   -38668.576    168.34607   -38836.923   -13256.364 
  138600    305.14788   -38649.831    181.91758   -38831.748   -16275.778 
  138800    302.25206   -38644.748     180.1912   -38824.939    16311.902 
  139000      288.311   -38662.477    171.88006   -38834.357   -4988.2829 
  139200    281.99485   -38684.184    168.11461   -38852.299    210.94389 
  139400    292.40213   -38649.658    174.31904   -38823.977   -6290.8031 
  139600    293.46338   -38643.748    174.95172     -38818.7    19434.651 
  139800    290.51138   -38677.339    173.19185   -38850.531   -22951.561 
  140000    306.19004    -38649.94    182.53887   -38832.479     14831.14 
  140200    285.31062   -38646.636    170.09135   -38816.727   -7168.7344 
  140400     275.7431   -38669.357    164.38756   -38833.745   -3769.6834 
  140600    316.56684   -38650.872    188.72513   -38839.597   -5225.8195 
  140800    294.87591   -38642.341    175.79382   -38818.135   -29007.832 
  141000    268.57662   -38676.252    160.11517   -38836.367    27862.644 
  141200    281.91134   -38655.003    168.06483   -38823.068   -9163.9393 
  141400    298.32534   -38644.887    177.85023   -38822.737    17204.951 
  141600     300.2672   -38655.164     179.0079   -38834.172   -20342.973 
  141800    327.18322   -38613.663     195.0542   -38808.717    7638.7929 
  142000    302.20259   -38647.357     180.1617   -38827.518    19027.357 
  142200    300.41635   -38661.603    179.09681     -38840.7    6150.0738 
  142400    312.97824   -38629.439    186.58573   -38816.025    9997.0251 
  142600    331.00615    -38631.88    197.33329   -38829.213    35421.146 
  142800    301.11827   -38656.058    179.51527   -38835.573   -37805.465 
  143000     298.6112   -38645.065    178.02066   -38823.085   -47148.698 
  143200    295.63344   -38628.508    176.24543   -38804.753    16199.121 
  143400     283.0736   -38658.401    168.75772   -38827.159   -22515.835 
  143600    311.84748   -38651.063    185.91162   -38836.975    6786.3368 
  143800    333.03702   -38613.131    198.54402   -38811.675   -28599.551 
  144000    332.51879   -38639.914    198.23507   -38838.149    25075.626 
  144200    320.60902   -38659.597    191.13492   -38850.732   -16343.237 
  144400    304.47889   -38646.218    181.51875   -38827.736    24295.058 
  144600    303.75198   -38626.574    181.08539    -38807.66   -938.73832 
  144800      286.192   -38666.888     170.6168   -38837.505    -16953.38 
  145000    298.21954   -38646.793    177.78716   -38824.581    37028.143 
  145200     337.6271   -38627.078    201.28045   -38828.359    -18597.29 
  145400    290.37147   -38657.179    173.10844   -38830.288      2756.08 
  145600      268.938   -38665.153    160.33062   -38825.483   -25140.291 
  145800    325.28051   -38627.387    193.91988   -38821.307   -1528.3823 
  146000    302.12959   -38648.432    180.11818    -38828.55    9884.4158 
  146200    299.30253   -38656.086     178.4328   -38834.519   -27058.638 
  146400    280.52098   -38649.323    167.23595   -38816.559    43751.997 
  146600    303.00922   -38654.845    180.64259   -38835.487    2781.5695 
  146800    273.18322   -38658.634    162.86146   -38821.495    14320.298 
  147000    307.43637   -38632.229    183.28188   -38815.511    41456.865 
  147200    285.42515   -38670.999    170.15963   -38841.158    6903.6854 
  147400    269.14552    -38665.82    160.45433   -38826.274    16179.942 
  147600    306.22772   -38640.482    182.56133   -38823.043    4903.8478 
  147800    313.96401   -38645.479    187.17341   -38832.653    21939.794 
  148000    290.46191   -38663.981    173.16236   -38837.143    39710.767 
  148200    313.34094   -38637.206    186.80196   -38824.008    4615.4806 
  148400    300.47512   -38650.661    179.13185   -38829.793   -13280.797 
  148600    291.48834   -38653.475    173.77428    -38827.25     27233.84 
  148800    316.38995   -38637.913    188.61967   -38826.533      427.906 
  149000    325.91877   -38616.508    194.30039   -38810.808   -4760.0494 
  149200    284.29696   -38659.829    169.48705   -38829.317   -20026.461 
  149400    288.02776    -38654.13    171.71121   -38825.841    15048.696 
  149600    318.40516   -38630.596    189.82106   -38820.417     13255.56 
  149800     304.1092   -38650.065    181.29835   -38831.363   -9810.1066 
  150000    293.16546   -38657.013    174.77411   -38831.788   -18362.895 
  150200    320.52326   -38629.205    191.08379   -38820.289   -4203.4359 
  150400    305.17931   -38644.603    181.93631   -38826.539    -19070.55 
  150600    305.19291   -38650.937    181.94442   -38832.881    3886.1298 
  150800    312.12473   -38638.486    186.07691   -38824.563    20716.427 
  151000    290.12676    -38656.32    172.96255   -38829.283   -1051.2359 
  151200    293.27533   -38660.881    174.83961   -38835.721    24673.448 
  151400    321.26153   -38622.639    191.52392   -38814.162   -894.28639 
  151600    298.45337    -38652.61    177.92656   -38830.537   -30559.937 
  151800    310.37077   -38656.836    185.03126   -38841.867   -29912.238 
  152000     325.5714   -38617.268     194.0933   -38811.362    9533.6168 
  152200    319.94456   -38639.573    190.73879   -38830.312    13230.202 
  152400    296.91519   -38656.577    177.00956   -38833.586   -4674.5294 
  152600    312.67394   -38642.874    186.40433   -38829.279   -16725.879 
  152800     316.1187   -38628.007    188.45796   -38816.465    11074.861 
  153000    302.32961   -38653.208    180.23743   -38833.446   -28506.693 
  153200     309.6799   -38649.796    184.61939   -38834.415    -26849.42 
  153400    335.96624   -38627.368    200.29031   -38827.658   -12856.674 
  153600    291.80745   -38656.434    173.96452   -38830.398   -20118.391 
  153800    304.68853   -38659.348    181.64373   -38840.992    12047.112 
  154000    319.69207   -38649.455    190.58827   -38840.043    -33799.73 
  154200    301.55171   -38648.836    179.77367    -38828.61    5342.9836 
  154400    282.53229   -38682.105    168.43502    -38850.54    17926.979 
  154600    287.78437    -38652.43    171.56611   -38823.996   -11218.811 
  154800    305.01332   -38639.364    181.83735   -38821.201    8002.4568 
  155000    298.67338   -38652.424    178.05772   -38830.481    22520.533 
  155200    305.63903   -38668.477    182.21038   -38850.687    18072.501 
  155400    303.41118   -38646.159    180.88222   -38827.041    2484.8796 
  155600    297.12259   -38644.478     177.1332   -38821.611   -16690.587 
  155800    318.13132   -38653.769    189.65781   -38843.427   -24588.112 
  156000    288.12598   -38666.265    171.76977   -38838.035   -11004.199 
  156200    274.01169   -38634.163    163.35536   -38797.519   -22204.352 
  156400    304.16325   -38643.764    181.33057   -38825.095    1689.3022 
  156600    303.99324   -38653.645    181.22922   -38834.874    80.345962 
  156800    299.92005   -38650.947    178.80094   -38829.748    18442.443 
  157000    296.08805   -38645.582    176.51645   -38822.099   -11228.334 
  157200    313.35341   -38635.004     186.8094   -38821.814   -18404.526 
  157400    271.36381    -38662.57    161.77679   -38824.346   -7351.0498 
  157600    301.06879   -38654.092    179.48577   -38833.578    -33727.58 
  157800    308.56016    -38636.82    183.95185   -38820.771    17255.244 
  158000    284.99927   -38659.624    169.90574   -38829.529    12971.174 
  158200    286.56142   -38655.855    170.83703   -38826.692     22528.34 
  158400    327.89311   -38630.947    195.47742   -38826.424    11379.598 
  158600    288.50484   -38663.274    171.99563   -38835.269   -818.39943 
  158800    276.64992   -38657.635    164.92817   -38822.563    1247.9314 
  159000    297.49211   -38647.519    177.35349   -38824.872    12400.454 
  159200    307.05834   -38648.616    183.05652   -38831.672    38356.764 
  159400    266.96593   -38682.441    159.15495   -38841.596    2537.1746 
  159600    283.51689   -38652.067      169.022   -38821.089    21008.732 
  159800    310.16827   -38643.337    184.91054   -38828.247   -16152.257 
  160000    275.60176   -38662.166     164.3033   -38826.469   -7673.5757 
  160200    288.18813    -38662.02    171.80682   -38833.827   -16994.269 
  160400     294.7334   -38635.375    175.70885   -38811.084     1801.827 
  160600    292.72503   -38664.542    174.51154   -38839.053    29225.418 
  160800    262.49287   -38698.615    156.48828   -38855.103    36340.769 
  161000     285.6292   -38655.751    170.28128   -38826.032   -10694.144 
  161200    323.34886   -38636.886    192.76831   -38829.654    11975.314 
  161400    282.49064   -38665.811    168.41019   -38834.221    11108.814 
  161600    299.84393   -38643.265    178.75556    -38822.02   -12394.787 
  161800    301.20241   -38640.352    179.56543   -38819.917    22423.457 
  162000    273.76597   -38661.436    163.20887   -38824.645    23360.146 
  162200    315.29863   -38647.746    187.96906   -38835.715    35594.874 
  162400    315.99991   -38611.964    188.38714   -38800.351    4520.6059 
  162600     301.1629   -38650.583    179.54188   -38830.125   -3613.5393 
  162800    278.07412    -38663.62    165.77723   -38829.397    1937.0861 
  163000    294.98366   -38669.139    175.85805   -38844.997     8882.013 
  163200    327.05239   -38635.715    194.97621   -38830.691    1586.6455 
  163400    284.06259   -38650.193    169.34732   -38819.541    9915.1882 
  163600    282.43401   -38685.538    168.37643   -38853.915    19915.305 
  163800    324.24267    -38656.57    193.30116   -38849.871   -1615.4585 
  164000    298.14158   -38647.346    177.74069   -38825.086    23723.482 
  164200    324.00349   -38629.243    193.15857   -38822.402    -8413.023 
  164400    288.74782   -38651.046    172.14048   -38823.187   -1409.6073 
  164600    304.35457   -38658.814    181.44463   -38840.259    50.770685 
  164800    338.84774   -38623.418    202.00815   -38825.426    7966.4291 
  165000    318.02045   -38633.642    189.59171   -38823.234    324.05589 
  165200    293.50726   -38655.574    174.97788   -38830.552    -37545.63 
  165400    279.65926   -38649.897    166.72223    -38816.62    5082.6674 
  165600    311.21605   -38624.577    185.53519   -38810.112     14776.56 
  165800    311.92474   -38656.357    185.95768   -38842.314   -25218.213 
  166000    305.02492   -38655.502    181.84427   -38837.346   -24643.034 
  166200    287.31744   -38647.784    171.28774   -38819.072    33068.699 
  166400    286.04048   -38658.919    170.52647   -38829.446    14284.037 
  166600    307.13424   -38639.173    183.10177   -38822.275    15250.194 
  166800     295.0406   -38638.607      175.892   -38814.499    4123.0774 
  167000    288.61363   -38664.609    172.06048   -38836.669    690.82191 
  167200    286.25383   -38645.902    170.65366   -38816.555    9038.4293 
  167400    272.63634   -38632.706    162.53543   -38795.241    31789.214 
  167600    306.58191   -38664.185    182.77249   -38846.958   -803.63328 
  167800    309.03106   -38638.093    184.23258   -38822.325   -37667.237 
  168000    281.46058   -38638.951    167.79611   -38806.747    -6513.698 
  168200    289.00403   -38670.265    172.29322   -38842.559    26370.691 
  168400    311.05352   -38636.139    185.43829   -38821.578   -23438.023 
  168600    311.95058   -38646.593    185.97309   -38832.566   -6477.6056 
  168800    274.36491   -38679.815    163.56594   -38843.381    14793.183 
  169000    290.76195     -38652.9    173.34123   -38826.241    8000.2366 
  169200    322.42128   -38632.212    192.21532   -38824.427   -22234.546 
  169400    288.29213   -38661.746    171.86882   -38833.615   -4710.6046 
  169600    306.14206    -38635.99    182.51027     -38818.5   -2341.4328 
  169800    297.56265   -38639.051    177.39555   -38816.447    24096.986 
  170000    299.77528   -38652.533    178.71463   -38831.248    -49204.11 
  170200     293.0033   -38617.765    174.67744   -38792.443    9432.6717 
  170400    327.55039    -38632.16     195.2731   -38827.433    29152.802 
  170600    305.41372   -38654.412    182.07606   -38836.488    1807.8838 
  170800    261.23821   -38668.291     155.7403   -38824.031    16710.145 
  171000    337.14102    -38630.39    200.99067   -38831.381    -18340.36 
  171200    297.75574   -38653.079    177.51066    -38830.59    35592.536 
  171400    269.43539   -38659.041    160.62714   -38819.668    13865.044 
  171600    315.93463   -38614.782    188.34822    -38803.13    17880.381 
  171800     332.2242   -38632.116    198.05945   -38830.175    1590.4774 
  172000    285.21906   -38659.145    170.03677   -38829.181    -72141.17 
  172200    288.18366   -38638.253    171.80415   -38810.058   -6020.0752 
  172400    311.56977   -38631.895    185.74606   -38817.641    35236.658 
  172600    303.36913   -38651.636    180.85715   -38832.493   -24194.052 
  172800    283.17682   -38662.687    168.81926   -38831.507    18742.045 
  173000    313.07945   -38645.672    186.64608   -38832.318    19385.801 
  173200    310.01834   -38643.776    184.82116   -38828.597   -11429.858 
  173400    281.80293   -38666.398     168.0002   -38834.399     5197.812 
  173600    284.18852   -38647.505     169.4224   -38816.928    -12387.62 
  173800    317.22408   -38644.547    189.11695   -38833.664   -4397.3932 
  174000    299.65162   -38651.327    178.64091   -38829.968    7923.8616 
  174200    310.40724   -38658.576      185.053   -38843.629    28385.129 
  174400    286.19036    -38657.42    170.61582   -38828.036    21541.107 
  174600    307.91626   -38636.385    183.56798   -38819.953     -24259.9 
  174800     293.0572   -38674.367    174.70957   -38849.076    11388.104 
  175000    309.32429   -38656.233    184.40739    -38840.64   -13544.993 
  175200    333.27141   -38635.187    198.68375    -38833.87   -8573.4492 
  175400    285.80734   -38673.493    170.38748    -38843.88   -21561.075 
  175600    276.47755    -38674.45    164.82541   -38839.276   -12599.846 
  175800    304.17867   -38645.055    181.33977   -38826.394    20090.804 
  176000    310.13973   -38631.827    184.89353   -38816.721   -24825.727 
  176200    284.99927   -38651.441    169.90574   -38821.347   -28820.319 
  176400    308.26528   -38661.452    183.77605   -38845.228    1497.4669 
  176600    327.82853   -38627.083    195.43892   -38822.522   -6348.0635 
  176800    298.20181   -38644.225    177.77659   -38822.002   -20344.567 
  177000    291.73299   -38655.499    173.92013   -38829.419   -16735.566 
  177200    337.80516    -38616.12    201.38661   -38817.506   -2820.9641 
  177400    296.74299   -38651.132     176.9069   -38828.039    25420.685 
  177600    288.66595    -38656.05    172.09167   -38828.142    -36662.81 
  177800      303.909   -38636.933      181.179   -38818.112   -10049.395 
[...]
  950000    328.25879   -38638.768    195.69542   -38834.463    12616.443 
  950200    280.00416   -38648.188    166.92784   -38815.116   -23419.082 
  950400    269.24824   -38670.452    160.51557   -38830.968     4463.287 
  950600    310.72494   -38647.491    185.24241   -38832.734   -2937.0744 
  950800    300.07464   -38637.323     178.8931   -38816.216    14653.775 
  951000    300.23753   -38654.023    178.99021   -38833.013       -23836 
  951200    324.30702   -38617.582    193.33952   -38810.922    1702.1853 
  951400    310.04781   -38643.615    184.83873   -38828.454   -44169.661 
  951600    285.42716    -38653.09    170.16083   -38823.251    16027.261 
  951800    339.21173   -38618.916    202.22515   -38821.141    17952.382 
  952000    317.90054   -38642.202    189.52022   -38831.723    6553.3437 
  952200    279.97154   -38654.311    166.90839    -38821.22    24057.619 
  952400    300.25678   -38651.623    179.00169   -38830.624   -15651.277 
  952600    316.37034   -38630.422    188.60798    -38819.03    16932.272 
  952800    272.88749   -38662.961    162.68515   -38825.646    4686.8439 
  953000    306.55518   -38642.839    182.75655   -38825.596   -24822.396 
  953200    331.80233   -38637.618    197.80794   -38835.426   -10114.691 
  953400    293.00063   -38671.113    174.67584   -38845.789    2021.8439 
  953600    306.99891   -38645.826    183.02109   -38828.847   -16316.686 
  953800    320.81403   -38639.458    191.25714   -38830.715   -17477.521 
  954000    281.39054   -38674.209    167.75435   -38841.963   -16736.286 
  954200    307.09462   -38659.769    183.07815   -38842.847    17867.741 
  954400    312.37004   -38644.824    186.22315   -38831.047   -7524.9617 
  954600    335.29944    -38605.61    199.89279   -38805.503   -11925.653 
  954800    299.02295   -38652.854    178.26613    -38831.12    29243.906 
  955000    305.08577   -38651.669    181.88055   -38833.549    20792.148 
  955200    321.24727   -38635.437    191.51542   -38826.952   -21261.816 
  955400     289.9664   -38646.304    172.86695   -38819.171    -33358.12 
  955600    302.45517   -38658.233    180.31228   -38838.545    -19854.02 
  955800    316.32206   -38621.501     188.5792    -38810.08   -6464.8918 
  956000    307.01075   -38634.876    183.02815   -38817.904     3630.867 
  956200    280.75192   -38658.966    167.37363   -38826.339    1915.6014 
  956400    305.85611   -38638.793    182.33979   -38821.133    39936.163 
  956600    309.30205   -38629.835    184.39413    -38814.23   -17893.986 
  956800    306.32193   -38654.227     182.6175   -38836.844    14591.307 
  957000    292.87116   -38646.122    174.59866   -38820.721    5233.4619 
  957200    336.66928   -38621.017    200.70943   -38821.727   -27367.057 
  957400    301.38874   -38661.517    179.67652   -38841.193    1141.0581 
  957600     303.3567    -38651.42    180.84974    -38832.27    -14049.96 
  957800    317.59875   -38627.825    189.34031   -38817.165   -821.85086 
  958000    288.90221   -38644.487    172.23252    -38816.72   -2291.1413 
  958200    299.35818   -38662.332    178.46598   -38840.798   -25947.746 
  958400    284.55846   -38676.614    169.64294   -38846.257   -3995.2534 
  958600    299.27153   -38640.972    178.41432   -38819.387   -17426.919 
  958800     296.8184   -38649.451    176.95185   -38826.403   -5395.0919 
  959000     274.0638   -38686.123    163.38642   -38849.509   -28539.821 
  959200    291.62807   -38663.052    173.85758   -38836.909   -4081.0711 
  959400    345.57715   -38635.962    206.01997   -38841.982    3372.1484 
  959600    295.23254   -38652.942    176.00643   -38828.949     2761.613 
  959800    316.90914   -38670.348    188.92919   -38859.277    15491.005 
  960000    278.04324   -38661.889    165.75882   -38827.648   -23374.065 
  960200    302.40631   -38637.436    180.28315    -38817.72   -14904.294 
  960400    285.75849   -38670.743    170.35836   -38841.101   -18461.906 
  960600    310.21672   -38643.729    184.93943   -38828.668   -6619.2399 
  960800    305.66431   -38635.269    182.22545   -38817.494    37320.711 
  961000    277.34149   -38665.376    165.34046   -38830.716   -7205.2583 
  961200    290.83988   -38636.542    173.38769    -38809.93    22810.432 
  961400     301.2736   -38634.775    179.60787   -38814.383    13233.891 
  961600    291.00361   -38660.119     173.4853   -38833.605   -11624.391 
  961800    311.27563   -38642.791     185.5707   -38828.361   -24947.046 
  962000    313.33022   -38630.722    186.79557   -38817.517   -13229.653 
  962200    285.13351   -38656.139    169.98577   -38826.125   -62045.323 
  962400    306.12175   -38643.484    182.49816   -38825.982   -41781.668 
  962600    327.36354   -38620.838     195.1617   -38815.999    -6000.666 
  962800    276.74026   -38660.076    164.98203   -38825.058   -26810.136 
  963000    301.46288   -38646.412    179.72072   -38826.133    7830.8464 
  963200    318.50865   -38624.787    189.88276   -38814.669   -15323.744 
  963400    293.44465   -38647.502    174.94055   -38822.443   -4387.1668 
  963600    288.96754   -38654.665    172.27147   -38826.937    7650.2964 
  963800    315.96995   -38626.377    188.36928   -38814.746    18286.548 
  964000    308.64376   -38643.718    184.00168    -38827.72    10596.787 
  964200    274.89209   -38659.328    163.88022   -38823.208   -15929.037 
  964400    322.50347   -38636.644    192.26431   -38828.908    27624.405 
  964600    297.18154   -38638.906    177.16834   -38816.074    9124.3057 
  964800    291.14176   -38666.889    173.56766   -38840.457   -37342.698 
  965000    312.10889   -38636.427    186.06746   -38822.495   -112.95078 
  965200    316.71402   -38641.939    188.81287   -38830.752    33339.933 
  965400    320.84176    -38648.79    191.27367   -38840.063   -6307.7503 
  965600    299.16459   -38652.553    178.35057   -38830.903   -1010.9553 
  965800    311.49582    -38644.24    185.70197   -38829.942    14404.754 
  966000    301.93702   -38650.957    180.00338    -38830.96    39763.163 
  966200    266.91777   -38677.201    159.12623   -38836.327    30374.254 
  966400    298.34331   -38640.045    177.86095   -38817.906    6786.7449 
  966600    315.26819   -38648.434    187.95092   -38836.385    4854.4061 
  966800    309.42195    -38651.42    184.46561   -38835.885   -13181.999 
  967000     320.4429   -38620.698    191.03588   -38811.734   -14417.819 
  967200    321.32821   -38653.516    191.56367    -38845.08     16628.71 
  967400     309.3862   -38656.649     184.4443   -38841.093    5443.7334 
  967600    328.67128   -38618.924    195.94133   -38814.865    12588.999 
  967800    319.29811   -38646.716     190.3534    -38837.07     21126.01 
  968000    293.70681   -38654.823    175.09684    -38829.92   -53.730494 
  968200    307.94915   -38632.758    183.58759   -38816.346   -28591.146 
  968400    305.04159   -38636.163    181.85421   -38818.017    22465.111 
  968600    310.03848   -38656.962    184.83316   -38841.796    8324.5279 
  968800    321.91488   -38640.916    191.91342   -38832.829    2809.0491 
  969000     301.6638   -38632.135    179.84049   -38811.975    8521.9161 
  969200    306.18315   -38648.904    182.53476   -38831.439   -10272.946 
  969400    307.97449   -38659.013    183.60269   -38842.616   -6050.5237 
  969600    324.18227    -38626.23    193.26516   -38819.495   -12488.821 
  969800    284.11791   -38654.977     169.3803   -38824.358     34112.46 
  970000    284.18221   -38658.742    169.41864    -38828.16     633.3625 
  970200      326.032   -38625.566    194.36789   -38819.934   -37964.362 
  970400    311.80312   -38635.095    185.88518    -38820.98   -18638.994 
  970600    301.60181   -38650.433    179.80354   -38830.237    26721.818 
  970800    302.26128   -38660.303    180.19669   -38840.499   -11070.441 
  971000    284.75888   -38667.907    169.76243   -38837.669   -7228.4601 
  971200     313.3254    -38634.05     186.7927   -38820.842   -12826.249 
  971400    311.99582   -38656.423    186.00006   -38842.423   -7581.9189 
  971600    295.32031   -38668.251    176.05875    -38844.31   -278.92903 
  971800    313.35171   -38629.298    186.80838   -38816.107    13234.005 
  972000    304.84853   -38658.894    181.73911   -38840.633    19235.174 
  972200    293.31962   -38667.819    174.86601   -38842.685   -17458.872 
  972400    307.31155   -38635.054    183.20747   -38818.262   -19308.977 
  972600    296.91294   -38656.191    177.00822   -38833.199    22906.338 
  972800     294.6859   -38658.778    175.68054   -38834.459    34142.238 
  973000    315.11023   -38639.363    187.85675    -38827.22   -13000.408 
  973200    322.47066   -38641.013    192.24475   -38833.258     24712.68 
  973400    295.89434    -38667.94    176.40096   -38844.341     23476.08 
  973600    304.72126   -38634.595    181.66324   -38816.258   -175.54754 
  973800     304.5133   -38646.975    181.53926   -38828.515   -6413.0099 
  974000    308.18593   -38655.784    183.72874   -38839.513    1483.1817 
  974200    329.74613   -38621.762    196.58211   -38818.344    14556.599 
  974400    310.50022   -38649.542    185.10843    -38834.65    15165.993 
  974600     289.0962   -38660.122    172.34817    -38832.47   -17140.118 
  974800    314.59608   -38625.091    187.55023   -38812.641    3448.8473 
  975000    284.87832   -38654.053    169.83363   -38823.887   -24883.076 
  975200    290.60233   -38665.576    173.24607   -38838.822    33236.056 
  975400    314.82416   -38636.591     187.6862   -38824.277    12258.434 
  975600    274.17888   -38653.385    163.45503    -38816.84    16211.965 
  975800    302.73297   -38666.418     180.4779   -38846.896     15939.45 
  976000    292.76083   -38643.864    174.53288   -38818.397     13752.95 
  976200    326.76436   -38634.502     194.8045   -38829.307   -35600.696 
  976400    278.99398   -38664.169    166.32561   -38830.495    -26496.26 
  976600    297.31849   -38650.444    177.24999   -38827.694     3728.921 
  976800    332.43764   -38629.545    198.18669   -38827.732    16089.321 
  977000      299.926   -38648.382    178.80449   -38827.187   -9623.1981 
  977200    271.62833   -38658.991    161.93449   -38820.925    4676.3494 
  977400    276.63075   -38676.182    164.91675   -38841.098   -18461.004 
  977600    307.95969   -38642.588    183.59387   -38826.182    64238.392 
  977800    315.18128    -38644.17    187.89911   -38832.069   -14526.505 
  978000    285.27962   -38678.989    170.07287   -38849.062    15005.932 
  978200    288.21613   -38648.788    171.82351   -38820.612   -33940.336 
  978400    297.61073   -38649.151    177.42421   -38826.575    605.05332 
  978600    274.85047   -38682.149    163.85541   -38846.005   -34563.566 
  978800    294.63081    -38657.16    175.64769   -38832.807   -2031.7036 
  979000    311.66861   -38638.759    185.80498   -38824.564   -3986.4748 
  979200    294.79863   -38664.293    175.74774   -38840.041   -18153.669 
  979400    314.26167   -38658.089    187.35087    -38845.44   -7958.7811 
  979600    287.90309   -38640.791    171.63689   -38812.427    19627.375 
  979800    270.75394   -38666.647    161.41321    -38828.06    18154.882 
  980000    308.52335   -38638.975     183.9299   -38822.905    32290.462 
  980200    302.01516   -38634.064    180.04996   -38814.114    28599.633 
  980400    292.04664   -38657.944    174.10711   -38832.052   -40839.966 
  980600     304.1593   -38645.397    181.32822   -38826.725    5651.8963 
  980800    298.10492   -38625.473    177.71883   -38803.192    7092.4864 
  981000    298.76593   -38655.487    178.11289     -38833.6    14440.829 
  981200    292.98757   -38651.088    174.66806   -38825.756   -24459.669 
  981400    339.35267   -38613.149    202.30917   -38815.458    3429.3337 
  981600    316.66656   -38644.704    188.78457   -38833.488   -19154.287 
  981800    296.34204   -38658.576    176.66787   -38835.244    12144.705 
  982000    303.70254   -38631.786    181.05592   -38812.842    2047.9848 
  982200    300.14953   -38644.183    178.93775   -38823.121    42569.544 
  982400      304.459   -38658.854    181.50689   -38840.361    33221.167 
  982600    317.55711   -38642.166    189.31549   -38831.481   -4488.6171 
  982800    354.17728   -38621.641    211.14704   -38832.788   -3013.6366 
  983000    318.40713   -38651.786    189.82224   -38841.609    -570.2857 
  983200    278.61214    -38663.36    166.09797   -38829.458    29977.332 
  983400    293.32567   -38626.323    174.86962   -38801.193   -23936.528 
  983600    308.47541   -38649.139    183.90132   -38833.041    12464.834 
  983800    305.73805   -38654.391    182.26941   -38836.661   -34483.271 
  984000    312.96515   -38629.431    186.57793   -38816.009    18355.219 
  984200    291.50558   -38641.293    173.78455   -38815.077   -16310.036 
  984400    309.47157   -38661.219     184.4952   -38845.714   -46468.269 
  984600    302.87095   -38645.527    180.56015   -38826.087    14776.117 
  984800     356.4469   -38606.155     212.5001   -38818.656     1010.122 
  985000    323.65411   -38633.872    192.95029   -38826.822    1735.3446 
  985200    283.48569   -38660.386     169.0034    -38829.39    1490.7175 
  985400    331.74513   -38642.885    197.77384   -38840.659    1931.2243 
  985600    292.06662   -38635.114    174.11903   -38809.233    20225.565 
  985800    280.44627   -38664.276    167.19141   -38831.468   -24203.404 
  986000    266.02626   -38681.015    158.59475    -38839.61    39735.243 
  986200    273.37862   -38644.279    162.97795   -38807.257    21778.875 
  986400    299.35307   -38640.202    178.46293   -38818.665   -19946.468 
  986600     295.3214   -38672.953     176.0594   -38849.013    2586.0753 
  986800    323.03138   -38635.793    192.57904   -38828.372   -30908.914 
  987000    303.58431   -38644.874    180.98543    -38825.86   -5905.2041 
  987200    277.18065    -38669.15    165.24458   -38834.395    25636.086 
  987400    327.42908   -38634.759    195.20078   -38829.959    20180.647 
  987600    289.54993   -38649.288    172.61867   -38821.906   -7609.6756 
  987800    308.06351   -38659.705    183.65576   -38843.361    754.57495 
  988000    287.23581   -38650.315    171.23908   -38821.554   -15096.954 
  988200    307.78588   -38649.421    183.49025   -38832.911    2795.1338 
  988400    259.21962   -38672.028    154.53689   -38826.564    14449.111 
  988600    280.99656   -38671.071    167.51948    -38838.59    8242.9144 
  988800    286.29134   -38644.414    170.67602    -38815.09   -18922.943 
  989000    295.23696   -38660.189    176.00906   -38836.199    23811.031 
  989200    279.19198   -38684.721    166.44365   -38851.165   -17568.949 
  989400    305.74604    -38641.65    182.27418   -38823.924   -4892.3413 
  989600    304.50258   -38654.258    181.53287   -38835.791   -30481.903 
  989800      284.943   -38674.467    169.87219   -38844.339    -28914.55 
  990000    305.76573   -38632.795    182.28591   -38815.081    11580.903 
  990200    298.33822   -38658.295    177.85791   -38836.153    13764.136 
  990400    301.05899   -38666.377    179.47993   -38845.857    19005.421 
  990600    318.52184   -38651.156    189.89062   -38841.047   -339.05307 
  990800    302.82264   -38647.713    180.53135   -38828.244    4362.5387 
  991000    289.22959   -38634.572     172.4277       -38807   -23001.335 
  991200    300.46215   -38660.799    179.12412   -38839.923    14522.274 
  991400    313.56932   -38659.807    186.93812   -38846.746   -854.30889 
  991600    317.84386   -38631.703    189.48643    -38821.19    3112.8425 
  991800    262.74787   -38662.559     156.6403   -38819.199   -32529.502 
  992000    312.41015   -38649.343    186.24706    -38835.59   -3597.4247 
  992200    314.26645   -38627.077    187.35372    -38814.43    -17783.91 
  992400    291.35745   -38654.405    173.69624   -38828.101    11797.428 
  992600    289.58233   -38653.271    172.63799   -38825.909    10421.233 
  992800    324.97751   -38623.395    193.73925   -38817.134   -28066.535 
  993000    281.51367   -38660.639    167.82776   -38828.466   -25846.957 
  993200    291.24407   -38651.735    173.62865   -38825.364    -34918.96 
  993400    308.64594   -38632.184    184.00299   -38816.187   -14467.288 
  993600    309.27463   -38655.269    184.37779   -38839.646    -17211.19 
  993800    298.11644   -38666.088    177.72569   -38843.813    12723.954 
  994000    307.83866   -38632.992    183.52171   -38816.513     11090.96 
  994200    312.32758   -38654.542    186.19784    -38840.74   -38906.205 
  994400    288.07264   -38657.623    171.73796   -38829.361    13120.468 
  994600    305.91877   -38647.472    182.37715   -38829.849   -20391.335 
  994800     306.0875   -38654.447    182.47774   -38836.925    10412.932 
  995000    300.60718   -38673.643    179.21058   -38852.854   -19116.918 
  995200    311.69189   -38639.972    185.81886   -38825.791    10911.128 
  995400    292.55599   -38646.793    174.41077   -38821.204   -11821.221 
  995600    282.74817   -38679.637    168.56372     -38848.2   -24009.936 
  995800    313.39061   -38655.284    186.83158   -38842.116    1991.2876 
  996000    314.62446   -38640.145    187.56715   -38827.712    4146.8403 
  996200     288.7965   -38682.294     172.1695   -38854.463   -32683.376 
  996400    266.41825   -38662.701    158.82844   -38821.529    4423.0779 
  996600     303.5093   -38643.406    180.94071   -38824.346   -7195.9594 
  996800    309.28668   -38652.127    184.38497   -38836.512   -4255.7577 
  997000    294.32518   -38665.975    175.46549    -38841.44    9158.0336 
  997200    341.57682   -38628.588    203.63512   -38832.223   -6323.1069 
  997400    298.24015   -38643.012    177.79945   -38820.812   -12216.894 
  997600    266.91489   -38654.094    159.12452   -38813.218   -1015.4268 
  997800    300.32079   -38652.632    179.03985   -38831.672    17220.886 
  998000    300.59359   -38631.316    179.20248   -38810.518   -34876.021 
  998200    327.12848   -38634.063    195.02157   -38829.084   -15043.142 
  998400    298.75181   -38661.818    178.10448   -38839.922    6005.9591 
  998600    297.91798   -38635.398    177.60738   -38813.005   -1201.9887 
  998800    295.40166   -38663.224    176.10725   -38839.331   -3.6570753 
  999000    305.91842   -38662.931    182.37694   -38845.307   -5083.6272 
  999200    288.30649   -38641.643    171.87738   -38813.521    26281.413 
  999400    311.10919   -38638.656    185.47148   -38824.127    8035.5916 
  999600     282.6328   -38662.367    168.49494   -38830.861    3422.1424 
  999800    323.22059     -38629.8    192.69184   -38822.492    9812.5245 
 1000000    268.90638   -38661.944    160.31177   -38822.255    31660.284 
Loop time of 7852.04 on 8 procs for 1000000 steps with 201 atoms

Performance: 2.751 ns/day, 8.724 hours/ns, 127.355 timesteps/s
99.3% CPU use with 8 MPI tasks x no OpenMP threads

MPI task timing breakdown:
Section |  min time  |  avg time  |  max time  |%varavg| %total
---------------------------------------------------------------
Pair    | 6826.6     | 6945.5     | 7017.8     |  75.7 | 88.45
Neigh   | 0          | 0          | 0          |   0.0 |  0.00
Comm    | 53.956     | 126.49     | 245.48     | 560.0 |  1.61
Output  | 0.13432    | 0.14667    | 0.22625    |   7.9 |  0.00
Modify  | 773.91     | 774.46     | 775.14     |   1.4 |  9.86
Other   |            | 5.485      |            |       |  0.07

Nlocal:    25.125 ave 29 max 22 min
Histogram: 1 0 3 0 0 3 0 0 0 1
Nghost:    966 ave 972 max 962 min
Histogram: 1 2 0 1 0 1 2 0 0 1
Neighs:    4300.25 ave 4838 max 3849 min
Histogram: 1 0 1 2 0 3 0 0 0 1

Total # of neighbors = 34402
Ave neighs/atom = 171.154
Neighbor list builds = 0
Dangerous builds = 0

unfix 1
unfix output
undump 1

Please see the log.cite file for references relevant to this simulation

Total wall time: 2:11:07
