ITEM: TIMESTEP
0
ITEM: NUMBER OF ATOMS
201
ITEM: BOX BOUNDS pp pp pp
0.0000000000000000e+00 1.6114000000000001e+01
0.0000000000000000e+00 1.6113000000000000e+01
0.0000000000000000e+00 1.6111999999999998e+01
ITEM: ATOMS id type x y z 
5 1 5.384 5.384 5.384 
65 1 5.66 6.662 2.461 
66 1 5.336 7.323 3.711 
68 1 4.865 6.606 4.866 
79 1 5.364 7.322 1.219 
89 1 6.662 2.461 5.66 
90 1 7.323 3.711 5.336 
92 1 6.606 4.866 4.866 
101 1 7.322 1.219 5.364 
109 1 2.461 5.66 6.662 
110 1 3.71 5.336 7.323 
112 1 4.865 4.866 6.606 
121 1 1.218 5.364 7.322 
129 1 6.662 5.66 2.461 
130 1 7.323 5.336 3.711 
137 1 7.322 5.364 1.219 
141 1 2.461 6.662 5.66 
142 1 3.71 7.323 5.336 
149 1 1.218 7.322 5.364 
153 1 5.66 2.461 6.662 
154 1 5.336 3.711 7.323 
161 1 5.364 1.219 7.322 
7 1 6.662 5.66 13.616 
8 1 7.323 5.336 12.366 
10 1 6.606 4.866 11.211 
21 1 7.322 5.364 14.858 
32 1 1.218 7.322 10.713 
40 1 2.461 6.662 10.417 
41 1 3.71 7.323 10.741 
43 1 4.865 6.606 11.211 
47 1 5.364 1.219 8.755 
55 1 5.66 2.461 9.415 
56 1 5.336 3.711 8.754 
58 1 4.865 4.866 9.471 
64 1 5.629 6.643 16.094 
75 1 5.384 5.384 10.693 
118 1 6.643 5.629 16.094 
168 1 5.66 6.662 13.616 
169 1 5.336 7.323 12.366 
176 1 5.364 7.322 14.858 
182 1 7.322 1.219 10.713 
186 1 6.662 2.461 10.417 
187 1 7.323 3.711 10.741 
191 1 1.218 5.364 8.755 
195 1 2.461 5.66 9.415 
196 1 3.71 5.336 8.754 
9 1 7.322 10.713 1.219 
19 1 6.662 10.417 2.461 
20 1 7.323 10.741 3.711 
22 1 6.606 11.211 4.866 
27 1 1.218 8.755 5.364 
35 1 2.461 9.415 5.66 
36 1 3.71 8.754 5.336 
38 1 4.865 9.471 4.866 
44 1 6.643 16.095 5.63 
50 1 5.66 13.616 6.662 
51 1 5.336 12.366 7.323 
53 1 4.865 11.211 6.606 
62 1 5.364 14.858 7.322 
76 1 5.629 16.095 6.643 
81 1 5.384 10.693 5.384 
167 1 5.364 8.755 1.219 
171 1 5.66 9.415 2.461 
172 1 5.336 8.754 3.711 
180 1 6.662 13.616 5.66 
181 1 7.323 12.366 5.336 
188 1 7.322 14.858 5.364 
194 1 1.218 10.713 7.322 
198 1 2.461 10.417 6.662 
199 1 3.71 10.741 7.323 
17 1 5.384 10.693 10.693 
39 1 6.643 16.095 10.448 
49 1 5.629 9.434 16.095 
73 1 5.364 8.755 14.858 
82 1 5.629 16.095 9.434 
83 1 5.66 9.415 13.616 
84 1 5.336 8.754 12.366 
86 1 4.865 9.471 11.211 
91 1 7.322 14.858 10.713 
99 1 6.662 13.616 10.417 
100 1 7.323 12.366 10.741 
102 1 6.606 11.211 11.211 
113 1 6.643 10.448 16.094 
114 1 2.461 10.417 9.415 
115 1 3.71 10.741 8.754 
117 1 4.865 11.211 9.471 
126 1 1.218 10.713 8.755 
131 1 7.322 10.713 14.858 
135 1 6.662 10.417 13.616 
136 1 7.323 10.741 12.366 
144 1 2.461 9.415 10.417 
145 1 3.71 8.754 10.741 
152 1 1.218 8.755 10.713 
158 1 5.364 14.858 8.755 
162 1 5.66 13.616 9.415 
163 1 5.336 12.366 8.754 
3 1 8.755 5.364 1.219 
13 1 9.415 5.66 2.461 
14 1 8.754 5.336 3.711 
16 1 9.471 4.866 4.866 
24 1 16.095 5.629 6.643 
30 1 13.616 6.662 5.66 
31 1 12.367 7.323 5.336 
33 1 11.212 6.606 4.866 
42 1 14.859 7.322 5.364 
52 1 10.713 1.219 7.322 
60 1 10.417 2.461 6.662 
61 1 10.741 3.711 7.323 
63 1 11.212 4.866 6.606 
87 1 10.693 5.384 5.384 
98 1 16.095 6.643 5.63 
170 1 10.713 7.322 1.219 
174 1 10.417 6.662 2.461 
175 1 10.741 7.323 3.711 
179 1 8.755 1.219 5.364 
183 1 9.415 2.461 5.66 
184 1 8.754 3.711 5.336 
192 1 13.616 5.66 6.662 
193 1 12.367 5.336 7.323 
200 1 14.859 5.364 7.322 
6 1 16.096 5.629 9.434 
23 1 10.693 5.384 10.693 
59 1 10.448 6.643 16.095 
67 1 10.713 7.322 14.858 
77 1 10.417 6.662 13.616 
78 1 10.741 7.323 12.366 
80 1 11.212 6.606 11.211 
93 1 16.096 6.643 10.448 
94 1 9.415 2.461 10.417 
95 1 8.754 3.711 10.741 
97 1 9.471 4.866 11.211 
106 1 8.755 1.219 10.713 
116 1 14.859 5.364 8.755 
123 1 9.434 5.629 16.094 
124 1 13.616 5.66 9.415 
125 1 12.367 5.336 8.754 
127 1 11.212 4.866 9.471 
134 1 8.755 5.364 14.858 
138 1 9.415 5.66 13.616 
139 1 8.754 5.336 12.366 
143 1 14.859 7.322 10.713 
147 1 13.616 6.662 10.417 
148 1 12.367 7.323 10.741 
156 1 10.417 2.461 9.415 
157 1 10.741 3.711 8.754 
164 1 10.713 1.219 8.755 
11 1 10.693 10.693 5.384 
18 1 16.096 10.448 6.643 
29 1 9.434 16.095 5.63 
70 1 10.448 16.095 6.643 
71 1 10.417 9.415 2.461 
72 1 10.741 8.754 3.711 
74 1 11.212 9.471 4.866 
85 1 10.713 8.755 1.219 
96 1 8.755 14.858 5.364 
103 1 16.095 9.434 5.63 
104 1 9.415 13.616 5.66 
105 1 8.754 12.366 5.336 
107 1 9.471 11.211 4.866 
111 1 14.859 10.713 7.322 
119 1 13.616 10.417 6.662 
120 1 12.367 10.741 7.323 
122 1 11.212 11.211 6.606 
132 1 9.415 10.417 2.461 
133 1 8.754 10.741 3.711 
140 1 8.755 10.713 1.219 
146 1 14.859 8.755 5.364 
150 1 13.616 9.415 5.66 
151 1 12.367 8.754 5.336 
155 1 10.713 14.858 7.322 
159 1 10.417 13.616 6.662 
160 1 10.741 12.366 7.323 
1 1 9.415 10.417 13.616 
2 1 8.754 10.741 12.366 
4 1 9.471 11.211 11.211 
12 1 16.096 10.448 9.434 
15 1 8.755 10.713 14.858 
25 1 13.616 9.415 10.417 
26 1 12.367 8.754 10.741 
28 1 11.212 9.471 11.211 
34 1 9.434 16.095 10.448 
37 1 14.859 8.755 10.713 
45 1 10.417 13.616 9.415 
46 1 10.741 12.366 8.754 
48 1 11.212 11.211 9.471 
54 1 10.448 9.434 16.094 
57 1 10.713 14.858 8.755 
69 1 10.693 10.693 10.693 
88 1 10.448 16.095 9.434 
108 1 16.096 9.434 10.448 
128 1 9.434 10.448 16.094 
165 1 10.417 9.415 13.616 
166 1 10.741 8.754 12.366 
173 1 10.713 8.755 14.858 
177 1 9.415 13.616 10.417 
178 1 8.754 12.366 10.741 
185 1 8.755 14.858 10.713 
189 1 13.616 10.417 9.415 
190 1 12.367 10.741 8.754 
197 1 14.859 10.713 8.755 
201 2 8.754 12.091 12.366 
ITEM: TIMESTEP
10
ITEM: NUMBER OF ATOMS
201
ITEM: BOX BOUNDS pp pp pp
0.0000000000000000e+00 1.6114000000000001e+01
0.0000000000000000e+00 1.6113000000000000e+01
0.0000000000000000e+00 1.6111999999999998e+01
ITEM: ATOMS id type x y z 
5 1 5.38388 5.38379 5.38397 
65 1 5.65918 6.66197 2.46081 
66 1 5.33611 7.32269 3.71148 
68 1 4.86561 6.6065 4.86557 
79 1 5.36363 7.32344 1.21881 
89 1 6.6619 2.46103 5.6596 
90 1 7.32274 3.71084 5.33654 
92 1 6.60605 4.86609 4.86629 
101 1 7.32207 1.21903 5.36354 
109 1 2.46058 5.65961 6.66172 
110 1 3.7102 5.33637 7.32303 
112 1 4.8655 4.86591 6.60621 
121 1 1.21846 5.36329 7.32217 
129 1 6.66211 5.65937 2.46155 
130 1 7.3226 5.33661 3.71063 
137 1 7.3215 5.36316 1.21883 
141 1 2.46063 6.66188 5.65954 
142 1 3.7101 7.32321 5.33636 
149 1 1.21845 7.32214 5.36352 
153 1 5.65963 2.4612 6.66169 
154 1 5.33635 3.71097 7.3228 
161 1 5.36336 1.21888 7.32202 
7 1 6.66161 5.65941 13.6158 
8 1 7.32265 5.33681 12.3665 
10 1 6.60599 4.86617 11.2106 
21 1 7.32169 5.36287 14.8583 
32 1 1.21791 7.32194 10.7134 
40 1 2.46109 6.66228 10.4178 
41 1 3.71003 7.32287 10.7406 
43 1 4.86417 6.60649 11.2098 
47 1 5.3629 1.21925 8.75443 
55 1 5.65925 2.46093 9.41506 
56 1 5.33641 3.71103 8.75346 
58 1 4.8653 4.86602 9.47055 
64 1 5.62899 6.64088 16.0966 
75 1 5.38369 5.38335 10.6928 
118 1 6.64267 5.62869 16.0946 
168 1 5.66002 6.65934 13.6155 
169 1 5.33649 7.32214 12.3663 
176 1 5.36224 7.32062 14.8575 
182 1 7.3228 1.22123 10.7147 
186 1 6.66091 2.46229 10.4174 
187 1 7.32263 3.7113 10.7403 
191 1 1.21863 5.36336 8.75501 
195 1 2.46043 5.6594 9.41491 
196 1 3.70987 5.33653 8.75375 
9 1 7.32129 10.7155 1.21909 
19 1 6.65947 10.4168 2.4655 
20 1 7.32199 10.7402 3.71073 
22 1 6.6063 11.211 4.8662 
27 1 1.21859 8.75504 5.36356 
35 1 2.46048 9.41515 5.65971 
36 1 3.71017 8.75404 5.33642 
38 1 4.86499 9.47102 4.86669 
44 1 6.643 16.095 5.62912 
50 1 5.65954 13.615 6.66165 
51 1 5.33637 12.366 7.32262 
53 1 4.86476 11.211 6.60717 
62 1 5.36289 14.8583 7.31904 
76 1 5.62883 16.0956 6.64201 
81 1 5.38301 10.6923 5.38378 
167 1 5.36275 8.75284 1.22123 
171 1 5.65971 9.41519 2.45965 
172 1 5.33641 8.75363 3.71115 
180 1 6.66182 13.6161 5.65952 
181 1 7.32293 12.3665 5.33669 
188 1 7.32219 14.8583 5.36356 
194 1 1.21834 10.7135 7.32211 
198 1 2.46116 10.4175 6.66229 
199 1 3.71001 10.7407 7.32324 
17 1 5.38146 10.6911 10.691 
39 1 6.64048 16.0974 10.4496 
49 1 5.62903 9.43614 16.0942 
73 1 5.35778 8.75067 14.8596 
82 1 5.62763 16.097 9.43413 
83 1 5.6456 9.40584 13.6195 
84 1 5.33252 8.75108 12.3635 
86 1 4.86559 9.47222 11.2099 
91 1 7.32119 14.8665 10.7155 
99 1 6.65852 13.6177 10.4151 
100 1 7.28896 12.3639 10.6826 
102 1 6.60917 11.2184 11.2122 
113 1 6.6401 10.4503 16.0967 
114 1 2.46023 10.417 9.41534 
115 1 3.71088 10.7409 8.75402 
117 1 4.86585 11.2093 9.47309 
126 1 1.21896 10.7135 8.75483 
131 1 7.32131 10.7169 14.8703 
135 1 6.6466 10.4193 13.6258 
136 1 7.2885 10.6551 12.3571 
144 1 2.45959 9.41587 10.4166 
145 1 3.7092 8.75325 10.7397 
152 1 1.21886 8.75479 10.7135 
158 1 5.35988 14.8605 8.75295 
162 1 5.64993 13.6191 9.41011 
163 1 5.33487 12.3643 8.75363 
3 1 8.75508 5.36312 1.2193 
13 1 9.41485 5.65903 2.46103 
14 1 8.75375 5.33651 3.71109 
16 1 9.47023 4.86588 4.86597 
24 1 16.0955 5.62851 6.64261 
30 1 13.6167 6.66164 5.65927 
31 1 12.3666 7.32291 5.33654 
33 1 11.2118 6.60633 4.86623 
42 1 14.8589 7.32203 5.36323 
52 1 10.7134 1.2187 7.32231 
60 1 10.4174 2.46056 6.66189 
61 1 10.7404 3.71056 7.32269 
63 1 11.2116 4.86566 6.60661 
87 1 10.6932 5.38375 5.38367 
98 1 16.0956 6.64263 5.62907 
170 1 10.714 7.32074 1.22028 
174 1 10.4177 6.66147 2.46069 
175 1 10.7405 7.32261 3.71143 
179 1 8.75499 1.21889 5.36356 
183 1 9.41512 2.46087 5.65961 
184 1 8.75393 3.71062 5.33666 
192 1 13.6166 5.65924 6.66174 
193 1 12.3668 5.33651 7.32304 
200 1 14.8589 5.36308 7.32217 
6 1 16.0959 5.62901 9.43478 
23 1 10.6935 5.38313 10.6928 
59 1 10.4487 6.64074 16.0972 
67 1 10.7158 7.31673 14.8589 
77 1 10.4169 6.65917 13.6177 
78 1 10.7389 7.31992 12.3651 
80 1 11.211 6.60526 11.21 
93 1 16.097 6.64233 10.4481 
94 1 9.4162 2.46085 10.4172 
95 1 8.75406 3.71181 10.7404 
97 1 9.46948 4.86571 11.2114 
106 1 8.75521 1.22037 10.7142 
116 1 14.8596 5.36293 8.75458 
123 1 9.43346 5.62726 16.0948 
124 1 13.6173 5.65889 9.41547 
125 1 12.366 5.33618 8.75363 
127 1 11.2121 4.86539 9.46944 
134 1 8.75495 5.3629 14.8584 
138 1 9.41483 5.65825 13.6166 
139 1 8.75395 5.33642 12.3653 
143 1 14.8599 7.32076 10.714 
147 1 13.6198 6.65924 10.4171 
148 1 12.368 7.31683 10.7387 
156 1 10.4177 2.46016 9.41477 
157 1 10.7405 3.71063 8.75412 
164 1 10.7133 1.21768 8.75553 
11 1 10.6936 10.6936 5.38435 
18 1 16.0968 10.4482 6.64246 
29 1 9.43405 16.0952 5.62929 
70 1 10.448 16.0964 6.64226 
71 1 10.4186 9.41491 2.46259 
72 1 10.7406 8.75439 3.71148 
74 1 11.2122 9.46972 4.86589 
85 1 10.7148 8.75512 1.21892 
96 1 8.75453 14.8588 5.36338 
103 1 16.0958 9.43458 5.62941 
104 1 9.41554 13.6169 5.6594 
105 1 8.75382 12.3657 5.33661 
107 1 9.47007 11.2118 4.86672 
111 1 14.8596 10.714 7.32089 
119 1 13.6197 10.4171 6.65941 
120 1 12.3672 10.7393 7.31696 
122 1 11.2105 11.2112 6.60599 
132 1 9.41672 10.4177 2.46116 
133 1 8.7531 10.7407 3.71375 
140 1 8.75572 10.7159 1.22488 
146 1 14.8594 8.75456 5.36298 
150 1 13.6172 9.41556 5.65899 
151 1 12.366 8.75377 5.33626 
155 1 10.7144 14.8585 7.32023 
159 1 10.4167 13.6182 6.65994 
160 1 10.7392 12.3666 7.32174 
1 1 9.41768 10.397 13.6397 
2 1 8.72751 10.7277 12.3807 
4 1 9.45741 11.1945 11.1923 
12 1 16.0969 10.4481 9.4347 
15 1 8.75469 10.7193 14.8633 
25 1 13.6217 9.4159 10.4184 
26 1 12.3747 8.7484 10.7386 
28 1 11.2228 9.46437 11.2066 
34 1 9.43472 16.0988 10.4478 
37 1 14.8611 8.75506 10.7144 
45 1 10.4136 13.615 9.40676 
46 1 10.7449 12.3692 8.7503 
48 1 11.2224 11.2088 9.46173 
54 1 10.4509 9.43292 16.0959 
57 1 10.7178 14.8598 8.75321 
69 1 10.7173 10.6757 10.6738 
88 1 10.4476 16.0937 9.43332 
108 1 16.0967 9.43488 10.448 
128 1 9.43646 10.4503 16.102 
165 1 10.422 9.40502 13.6163 
166 1 10.7456 8.74818 12.3652 
173 1 10.7227 8.75078 14.8641 
177 1 9.422 13.6216 10.4239 
178 1 8.74505 12.3974 10.8158 
185 1 8.75268 14.8605 10.7147 
189 1 13.6211 10.4186 9.41564 
190 1 12.3745 10.739 8.74827 
197 1 14.861 10.7144 8.75498 
201 2 8.81729 12.242 12.343 
ITEM: TIMESTEP
19
ITEM: NUMBER OF ATOMS
201
ITEM: BOX BOUNDS pp pp pp
0.0000000000000000e+00 1.6114000000000001e+01
0.0000000000000000e+00 1.6113000000000000e+01
0.0000000000000000e+00 1.6111999999999998e+01
ITEM: ATOMS id type x y z 
5 1 5.38402 5.38367 5.38398 
65 1 5.65927 6.66181 2.46137 
66 1 5.33625 7.323 3.71128 
68 1 4.86576 6.60674 4.86547 
79 1 5.36327 7.32264 1.2193 
89 1 6.66198 2.46115 5.65945 
90 1 7.32289 3.71089 5.33663 
92 1 6.60628 4.86602 4.86633 
101 1 7.32219 1.21916 5.36329 
109 1 2.46044 5.65942 6.66175 
110 1 3.71022 5.33648 7.32301 
112 1 4.86556 4.86591 6.60637 
121 1 1.2184 5.36319 7.32206 
129 1 6.66195 5.65944 2.46171 
130 1 7.32256 5.33674 3.71064 
137 1 7.3216 5.3628 1.21957 
141 1 2.46053 6.66185 5.6594 
142 1 3.71007 7.32315 5.33649 
149 1 1.21836 7.3221 5.36341 
153 1 5.65946 2.46108 6.66162 
154 1 5.33643 3.71097 7.32284 
161 1 5.36321 1.21913 7.32189 
7 1 6.66173 5.65892 13.6157 
8 1 7.32279 5.33689 12.3662 
10 1 6.60619 4.86628 11.2106 
21 1 7.32195 5.3625 14.8583 
32 1 1.21866 7.32187 10.7138 
40 1 2.46105 6.66186 10.4176 
41 1 3.71024 7.32361 10.7404 
43 1 4.86469 6.60659 11.2102 
47 1 5.36251 1.21942 8.75447 
55 1 5.65926 2.46109 9.41517 
56 1 5.33648 3.71107 8.75343 
58 1 4.86538 4.86606 9.47041 
64 1 5.62837 6.64059 16.096 
75 1 5.38351 5.38329 10.6925 
118 1 6.64283 5.62788 16.0947 
168 1 5.6593 6.66002 13.6155 
169 1 5.33618 7.32212 12.3656 
176 1 5.36158 7.31801 14.8581 
182 1 7.32212 1.22126 10.7147 
186 1 6.66098 2.46213 10.4177 
187 1 7.32259 3.71146 10.74 
191 1 1.21894 5.36307 8.75481 
195 1 2.46039 5.65947 9.41502 
196 1 3.70995 5.33663 8.7538 
9 1 7.32204 10.7154 1.22115 
19 1 6.66033 10.4175 2.46379 
20 1 7.3221 10.7401 3.71121 
22 1 6.60638 11.211 4.86645 
27 1 1.2188 8.75486 5.36332 
35 1 2.46035 9.41512 5.6596 
36 1 3.71018 8.75395 5.33656 
38 1 4.86527 9.4708 4.86652 
44 1 6.64317 16.0952 5.62851 
50 1 5.6594 13.6154 6.66127 
51 1 5.3365 12.3659 7.32318 
53 1 4.86504 11.2107 6.6069 
62 1 5.36223 14.8585 7.31853 
76 1 5.6285 16.0959 6.64141 
81 1 5.38301 10.6923 5.38381 
167 1 5.36254 8.754 1.22015 
171 1 5.65951 9.41538 2.46062 
172 1 5.33646 8.75317 3.71114 
180 1 6.6619 13.6159 5.65929 
181 1 7.3228 12.3665 5.3369 
188 1 7.32217 14.8584 5.36326 
194 1 1.21878 10.7138 7.32195 
198 1 2.46112 10.4175 6.66196 
199 1 3.7103 10.7405 7.32403 
17 1 5.38513 10.6926 10.6926 
39 1 6.64074 16.097 10.4503 
49 1 5.6284 9.43531 16.0961 
73 1 5.3555 8.75026 14.8626 
82 1 5.62776 16.0971 9.43422 
83 1 5.64313 9.40863 13.6214 
84 1 5.33197 8.75149 12.3651 
86 1 4.86614 9.4724 11.2096 
91 1 7.32202 14.8641 10.7141 
99 1 6.65816 13.6149 10.4123 
100 1 7.29274 12.358 10.6806 
102 1 6.61161 11.2161 11.2154 
113 1 6.64036 10.4511 16.0963 
114 1 2.46107 10.4174 9.41539 
115 1 3.71095 10.7406 8.75402 
117 1 4.8665 11.2097 9.47292 
126 1 1.21953 10.7142 8.75452 
131 1 7.3203 10.716 14.865 
135 1 6.65038 10.4141 13.6198 
136 1 7.2813 10.647 12.3523 
144 1 2.46061 9.41555 10.4171 
145 1 3.71052 8.7539 10.74 
152 1 1.21962 8.75457 10.7141 
158 1 5.35776 14.8621 8.75201 
162 1 5.64683 13.6201 9.40964 
163 1 5.33399 12.3659 8.7531 
3 1 8.75485 5.36265 1.21985 
13 1 9.41503 5.65906 2.46116 
14 1 8.7537 5.33654 3.71136 
16 1 9.47 4.86579 4.86606 
24 1 16.0958 5.62848 6.64251 
30 1 13.6168 6.66148 5.65937 
31 1 12.3667 7.32268 5.33668 
33 1 11.2116 6.60634 4.86628 
42 1 14.8589 7.32172 5.36311 
52 1 10.7136 1.21882 7.32237 
60 1 10.4174 2.46078 6.66185 
61 1 10.7403 3.71065 7.32254 
63 1 11.2115 4.86565 6.60671 
87 1 10.6932 5.38368 5.3838 
98 1 16.0957 6.64254 5.62892 
170 1 10.7142 7.32131 1.22033 
174 1 10.4177 6.66133 2.46114 
175 1 10.7403 7.32261 3.71142 
179 1 8.75484 1.21921 5.36334 
183 1 9.41514 2.46092 5.65955 
184 1 8.75378 3.71088 5.3367 
192 1 13.6167 5.65933 6.66156 
193 1 12.3667 5.33659 7.32266 
200 1 14.8589 5.3629 7.32182 
6 1 16.096 5.62837 9.43435 
23 1 10.6935 5.38295 10.6927 
59 1 10.4491 6.64047 16.0969 
67 1 10.7166 7.31667 14.8593 
77 1 10.4171 6.65974 13.6176 
78 1 10.7389 7.32122 12.3654 
80 1 11.2105 6.60509 11.2104 
93 1 16.0973 6.64182 10.4485 
94 1 9.41659 2.46161 10.4171 
95 1 8.75371 3.7116 10.74 
97 1 9.46949 4.86594 11.2114 
106 1 8.75451 1.22162 10.7149 
116 1 14.8598 5.3623 8.75419 
123 1 9.43369 5.62692 16.0951 
124 1 13.6177 5.65752 9.41469 
125 1 12.3662 5.33618 8.75333 
127 1 11.212 4.86523 9.46922 
134 1 8.75472 5.36246 14.8583 
138 1 9.4151 5.65821 13.6167 
139 1 8.75356 5.33668 12.3655 
143 1 14.8603 7.32082 10.7145 
147 1 13.6206 6.65761 10.4176 
148 1 12.3684 7.3158 10.7386 
156 1 10.4179 2.45999 9.41479 
157 1 10.7405 3.71035 8.75377 
164 1 10.7133 1.21746 8.75553 
11 1 10.6934 10.6936 5.38422 
18 1 16.0971 10.4486 6.64196 
29 1 9.43415 16.0953 5.62893 
70 1 10.4482 16.0965 6.64213 
71 1 10.4184 9.415 2.462 
72 1 10.7405 8.75408 3.7113 
74 1 11.212 9.46956 4.86592 
85 1 10.7146 8.75558 1.21846 
96 1 8.75453 14.8587 5.36309 
103 1 16.0959 9.43421 5.62876 
104 1 9.41556 13.6172 5.65914 
105 1 8.75354 12.366 5.3369 
107 1 9.46999 11.2117 4.867 
111 1 14.8601 10.7145 7.32083 
119 1 13.6205 10.4177 6.65779 
120 1 12.3677 10.7392 7.31597 
122 1 11.2101 11.2114 6.60587 
132 1 9.41684 10.4175 2.46202 
133 1 8.75316 10.7402 3.71335 
140 1 8.75472 10.7159 1.2245 
146 1 14.8597 8.75417 5.36245 
150 1 13.6176 9.41478 5.65773 
151 1 12.3662 8.75357 5.33639 
155 1 10.7152 14.8586 7.3203 
159 1 10.4167 13.618 6.6601 
160 1 10.7392 12.3668 7.32252 
1 1 9.41067 10.3963 13.6305 
2 1 8.73308 10.7485 12.392 
4 1 9.44633 11.1812 11.1906 
12 1 16.0974 10.4488 9.43479 
15 1 8.75036 10.7159 14.8675 
25 1 13.6226 9.41555 10.4187 
26 1 12.3782 8.74592 10.7376 
28 1 11.2229 9.46673 11.2045 
34 1 9.4336 16.0972 10.4475 
37 1 14.8623 8.75428 10.7154 
45 1 10.4064 13.6139 9.40791 
46 1 10.7452 12.3713 8.75102 
48 1 11.222 11.2065 9.46547 
54 1 10.4494 9.433 16.0953 
57 1 10.7166 14.8566 8.75413 
69 1 10.7174 10.6694 10.6686 
88 1 10.4483 16.0932 9.43254 
108 1 16.0973 9.43497 10.4488 
128 1 9.43544 10.4491 16.1008 
165 1 10.4205 9.39963 13.6163 
166 1 10.7475 8.74808 12.3677 
173 1 10.724 8.75018 14.8632 
177 1 9.41881 13.6231 10.424 
178 1 8.73918 12.4085 10.8254 
185 1 8.75297 14.8605 10.714 
189 1 13.6221 10.419 9.41513 
190 1 12.3781 10.7381 8.74563 
197 1 14.8622 10.7154 8.75422 
201 2 8.83387 12.2697 12.3512 
ITEM: TIMESTEP
20
ITEM: NUMBER OF ATOMS
201
ITEM: BOX BOUNDS pp pp pp
0.0000000000000000e+00 1.6114000000000001e+01
0.0000000000000000e+00 1.6113000000000000e+01
0.0000000000000000e+00 1.6111999999999998e+01
ITEM: ATOMS id type x y z 
5 1 5.38396 5.38375 5.38401 
65 1 5.6593 6.66176 2.46142 
66 1 5.33626 7.32307 3.71128 
68 1 4.86564 6.60668 4.86564 
79 1 5.36319 7.32232 1.21944 
89 1 6.66193 2.46116 5.6595 
90 1 7.3229 3.71092 5.33663 
92 1 6.60626 4.86603 4.86636 
101 1 7.32219 1.21919 5.36327 
109 1 2.46046 5.65946 6.66177 
110 1 3.71023 5.33645 7.32298 
112 1 4.86551 4.86593 6.6064 
121 1 1.21843 5.36324 7.322 
129 1 6.66182 5.65949 2.46165 
130 1 7.32267 5.3367 3.71081 
137 1 7.32169 5.36275 1.21961 
141 1 2.46054 6.66186 5.65945 
142 1 3.71012 7.32311 5.33646 
149 1 1.21838 7.32205 5.36346 
153 1 5.65948 2.46112 6.66163 
154 1 5.33641 3.711 7.32288 
161 1 5.3632 1.21922 7.32173 
7 1 6.66176 5.65884 13.6158 
8 1 7.32283 5.33685 12.3661 
10 1 6.60618 4.86632 11.2106 
21 1 7.32199 5.36247 14.8582 
32 1 1.21884 7.32184 10.7138 
40 1 2.461 6.66175 10.4176 
41 1 3.71028 7.32357 10.7403 
43 1 4.86482 6.60642 11.2102 
47 1 5.36247 1.21938 8.75457 
55 1 5.65918 2.4613 9.41508 
56 1 5.33644 3.71109 8.75345 
58 1 4.86538 4.86599 9.47032 
64 1 5.62829 6.64053 16.0959 
75 1 5.38349 5.38336 10.6925 
118 1 6.64284 5.62776 16.0947 
168 1 5.65925 6.65998 13.6155 
169 1 5.33618 7.32204 12.3655 
176 1 5.3615 7.31769 14.8581 
182 1 7.3222 1.22096 10.7147 
186 1 6.66095 2.46203 10.4177 
187 1 7.32272 3.71162 10.7401 
191 1 1.21886 5.36306 8.75476 
195 1 2.46044 5.65947 9.41503 
196 1 3.71005 5.33658 8.75372 
9 1 7.32198 10.7153 1.22126 
19 1 6.66045 10.4177 2.46327 
20 1 7.32238 10.7402 3.7116 
22 1 6.60626 11.211 4.8666 
27 1 1.21878 8.7548 5.36331 
35 1 2.4604 9.41514 5.65961 
36 1 3.71022 8.75387 5.33654 
38 1 4.86532 9.47067 4.86636 
44 1 6.64318 16.0952 5.62846 
50 1 5.65939 13.6155 6.66125 
51 1 5.33648 12.3658 7.32303 
53 1 4.86513 11.2107 6.60679 
62 1 5.36222 14.8585 7.31851 
76 1 5.62846 16.0959 6.64139 
81 1 5.38311 10.6925 5.3839 
167 1 5.36245 8.75429 1.21985 
171 1 5.6593 9.41526 2.46104 
172 1 5.33638 8.75328 3.71127 
180 1 6.66186 13.616 5.65929 
181 1 7.3228 12.3664 5.33686 
188 1 7.32214 14.8583 5.36325 
194 1 1.21894 10.7139 7.3219 
198 1 2.46109 10.4175 6.66187 
199 1 3.71039 10.7405 7.32392 
17 1 5.38524 10.6927 10.6927 
39 1 6.64112 16.0964 10.4504 
49 1 5.62833 9.43524 16.0962 
73 1 5.35533 8.75047 14.8629 
82 1 5.62797 16.097 9.43441 
83 1 5.64308 9.40881 13.6212 
84 1 5.33193 8.75166 12.365 
86 1 4.8661 9.47236 11.2096 
91 1 7.32086 14.8642 10.7136 
99 1 6.65809 13.6161 10.4121 
100 1 7.29268 12.3577 10.6804 
102 1 6.61161 11.2153 11.2161 
113 1 6.64042 10.4512 16.0964 
114 1 2.46115 10.4176 9.41534 
115 1 3.7111 10.7406 8.75418 
117 1 4.86646 11.2097 9.47289 
126 1 1.21958 10.7142 8.75453 
131 1 7.32005 10.7159 14.8646 
135 1 6.65079 10.4141 13.6195 
136 1 7.28164 10.6472 12.3522 
144 1 2.46072 9.41555 10.4172 
145 1 3.71071 8.75408 10.74 
152 1 1.21961 8.75459 10.7142 
158 1 5.35776 14.8621 8.75211 
162 1 5.64687 13.6202 9.40969 
163 1 5.33398 12.3661 8.7533 
3 1 8.75484 5.36262 1.21984 
13 1 9.41503 5.65906 2.46128 
14 1 8.75372 5.33654 3.71134 
16 1 9.47009 4.86584 4.86609 
24 1 16.0958 5.62852 6.64252 
30 1 13.6168 6.66148 5.65942 
31 1 12.3667 7.32269 5.33667 
33 1 11.2116 6.60633 4.86623 
42 1 14.8589 7.32164 5.36314 
52 1 10.7136 1.21888 7.32236 
60 1 10.4174 2.46086 6.66182 
61 1 10.7404 3.7107 7.32259 
63 1 11.2115 4.86568 6.60664 
87 1 10.6932 5.38368 5.38387 
98 1 16.0957 6.64255 5.62896 
170 1 10.7142 7.32139 1.2203 
174 1 10.4177 6.66137 2.4613 
175 1 10.7404 7.32259 3.71146 
179 1 8.75486 1.21923 5.36333 
183 1 9.41515 2.46096 5.65957 
184 1 8.75379 3.71087 5.3367 
192 1 13.6167 5.65938 6.66155 
193 1 12.3667 5.33657 7.32266 
200 1 14.8589 5.36294 7.32172 
6 1 16.096 5.62829 9.43425 
23 1 10.6934 5.38285 10.6926 
59 1 10.449 6.64036 16.097 
67 1 10.7168 7.31686 14.8593 
77 1 10.417 6.65965 13.6175 
78 1 10.7388 7.32139 12.3656 
80 1 11.2105 6.60488 11.2102 
93 1 16.0971 6.6417 10.4485 
94 1 9.41646 2.46163 10.4172 
95 1 8.7537 3.71155 10.74 
97 1 9.46963 4.86596 11.2112 
106 1 8.75464 1.22124 10.7147 
116 1 14.8598 5.36227 8.75418 
123 1 9.43377 5.62697 16.0951 
124 1 13.6176 5.65735 9.41449 
125 1 12.3663 5.33619 8.75328 
127 1 11.2119 4.86525 9.46932 
134 1 8.7547 5.36241 14.8583 
138 1 9.41511 5.6582 13.6166 
139 1 8.75353 5.33671 12.3656 
143 1 14.8605 7.32076 10.7146 
147 1 13.6206 6.65754 10.4177 
148 1 12.3684 7.3158 10.7386 
156 1 10.4179 2.46008 9.41479 
157 1 10.7405 3.71036 8.75366 
164 1 10.7133 1.21725 8.75563 
11 1 10.6935 10.6934 5.38406 
18 1 16.097 10.4486 6.64185 
29 1 9.43415 16.0954 5.6289 
70 1 10.4483 16.0962 6.6422 
71 1 10.4185 9.41496 2.4619 
72 1 10.7405 8.75391 3.71135 
74 1 11.2119 9.46969 4.86602 
85 1 10.7146 8.75545 1.21864 
96 1 8.75452 14.8587 5.36304 
103 1 16.0959 9.43413 5.62867 
104 1 9.41543 13.6171 5.65899 
105 1 8.75348 12.3661 5.33692 
107 1 9.46999 11.2115 4.86689 
111 1 14.8602 10.7146 7.32076 
119 1 13.6204 10.4177 6.65772 
120 1 12.3678 10.7392 7.31601 
122 1 11.21 11.2115 6.60582 
132 1 9.41686 10.4175 2.46261 
133 1 8.75325 10.7401 3.71325 
140 1 8.75452 10.716 1.22414 
146 1 14.8597 8.75416 5.36243 
150 1 13.6175 9.41461 5.65756 
151 1 12.3662 8.75351 5.33638 
155 1 10.7151 14.8587 7.32076 
159 1 10.4169 13.618 6.66031 
160 1 10.7392 12.3669 7.32319 
1 1 9.41033 10.3964 13.6299 
2 1 8.73269 10.7495 12.3925 
4 1 9.44551 11.1811 11.1908 
12 1 16.0976 10.4489 9.43487 
15 1 8.75033 10.7159 14.8676 
25 1 13.6226 9.41562 10.4188 
26 1 12.3784 8.74555 10.7375 
28 1 11.2228 9.46655 11.2047 
34 1 9.43393 16.0983 10.447 
37 1 14.8624 8.75408 10.7156 
45 1 10.4081 13.6137 9.40624 
46 1 10.7455 12.3707 8.75034 
48 1 11.2219 11.2069 9.4651 
54 1 10.4493 9.43318 16.0951 
57 1 10.7167 14.8574 8.7535 
69 1 10.7173 10.6695 10.6685 
88 1 10.448 16.0929 9.43265 
108 1 16.0975 9.43505 10.4489 
128 1 9.43547 10.449 16.1008 
165 1 10.4203 9.39969 13.6164 
166 1 10.7476 8.74786 12.3677 
173 1 10.7241 8.75 14.8633 
177 1 9.41914 13.6219 10.425 
178 1 8.73885 12.4069 10.8267 
185 1 8.75142 14.8629 10.7148 
189 1 13.6221 10.4191 9.41521 
190 1 12.3781 10.7382 8.74537 
197 1 14.8623 10.7156 8.75406 
201 2 8.83424 12.2699 12.351 
ITEM: TIMESTEP
30
ITEM: NUMBER OF ATOMS
201
ITEM: BOX BOUNDS pp pp pp
0.0000000000000000e+00 1.6114000000000001e+01
0.0000000000000000e+00 1.6113000000000000e+01
0.0000000000000000e+00 1.6111999999999998e+01
ITEM: ATOMS id type x y z 
5 1 5.38419 5.38386 5.38411 
65 1 5.65915 6.66134 2.4612 
66 1 5.33629 7.32321 3.71177 
68 1 4.86528 6.60682 4.86635 
79 1 5.36296 7.32214 1.21952 
89 1 6.66175 2.46118 5.65942 
90 1 7.32277 3.71107 5.33694 
92 1 6.60578 4.8662 4.86701 
101 1 7.32218 1.21925 5.36265 
109 1 2.4606 5.65932 6.66194 
110 1 3.71012 5.33658 7.32304 
112 1 4.86547 4.86612 6.60665 
121 1 1.2187 5.36312 7.32196 
129 1 6.66142 5.65941 2.46169 
130 1 7.32288 5.33704 3.71102 
137 1 7.32185 5.36188 1.21982 
141 1 2.46072 6.66199 5.65934 
142 1 3.71019 7.32301 5.33658 
149 1 1.21838 7.32201 5.3634 
153 1 5.65922 2.46106 6.66153 
154 1 5.3364 3.71121 7.32312 
161 1 5.36307 1.2191 7.32208 
7 1 6.66167 5.65908 13.6154 
8 1 7.32283 5.33687 12.3656 
10 1 6.60611 4.86686 11.2106 
21 1 7.32206 5.36223 14.8582 
32 1 1.21961 7.32156 10.714 
40 1 2.46153 6.66182 10.4173 
41 1 3.7109 7.32357 10.7401 
43 1 4.8654 6.60632 11.21 
47 1 5.36251 1.21985 8.75429 
55 1 5.6597 2.46129 9.41555 
56 1 5.33643 3.71152 8.75348 
58 1 4.86561 4.86615 9.47021 
64 1 5.62796 6.63905 16.0964 
75 1 5.38385 5.38368 10.6923 
118 1 6.64297 5.62696 16.0945 
168 1 5.65917 6.66013 13.6156 
169 1 5.33586 7.32165 12.3656 
176 1 5.36003 7.31632 14.8586 
182 1 7.32091 1.22119 10.7146 
186 1 6.66125 2.46155 10.4178 
187 1 7.32281 3.71144 10.7398 
191 1 1.21919 5.36284 8.7546 
195 1 2.46061 5.65973 9.41509 
196 1 3.71032 5.33666 8.75356 
9 1 7.32181 10.7154 1.22149 
19 1 6.6606 10.4178 2.46274 
20 1 7.3228 10.7398 3.71187 
22 1 6.60601 11.2113 4.86757 
27 1 1.21932 8.75456 5.36312 
35 1 2.4604 9.41534 5.66008 
36 1 3.71039 8.75363 5.33676 
38 1 4.86564 9.47068 4.8666 
44 1 6.64323 16.0949 5.62775 
50 1 5.65926 13.6157 6.6611 
51 1 5.3363 12.366 7.32208 
53 1 4.86555 11.2105 6.60695 
62 1 5.36105 14.8589 7.3176 
76 1 5.62821 16.0964 6.64035 
81 1 5.38349 10.6923 5.38412 
167 1 5.36225 8.75395 1.22079 
171 1 5.6598 9.41608 2.46165 
172 1 5.33635 8.7538 3.71203 
180 1 6.66184 13.6161 5.65939 
181 1 7.32267 12.3659 5.33698 
188 1 7.32199 14.8585 5.36309 
194 1 1.2195 10.7141 7.32152 
198 1 2.46162 10.4172 6.66185 
199 1 3.71089 10.7403 7.32377 
17 1 5.38498 10.6925 10.6921 
39 1 6.64113 16.0946 10.4509 
49 1 5.62792 9.43491 16.0974 
73 1 5.3513 8.74896 14.866 
82 1 5.62756 16.0975 9.43384 
83 1 5.63594 9.40947 13.6244 
84 1 5.32892 8.752 12.3674 
86 1 4.86695 9.47209 11.2099 
91 1 7.31829 14.8609 10.7101 
99 1 6.65848 13.6119 10.406 
100 1 7.2927 12.3545 10.6806 
102 1 6.61423 11.2114 11.2142 
113 1 6.63962 10.4516 16.0953 
114 1 2.46157 10.4178 9.41556 
115 1 3.71201 10.7402 8.7546 
117 1 4.86677 11.2105 9.47197 
126 1 1.22061 10.7147 8.75449 
131 1 7.31542 10.7131 14.8601 
135 1 6.6532 10.404 13.6136 
136 1 7.28634 10.6448 12.3491 
144 1 2.46166 9.41565 10.4174 
145 1 3.71218 8.75461 10.7398 
152 1 1.22074 8.7545 10.7146 
158 1 5.35431 14.8637 8.75106 
162 1 5.64155 13.6223 9.40876 
163 1 5.33108 12.3679 8.75267 
3 1 8.7552 5.36206 1.21993 
13 1 9.41485 5.6587 2.46165 
14 1 8.75391 5.33682 3.71138 
16 1 9.46978 4.86613 4.86601 
24 1 16.096 5.62844 6.64231 
30 1 13.6168 6.66144 5.65953 
31 1 12.3669 7.32307 5.33694 
33 1 11.2112 6.60682 4.86589 
42 1 14.8589 7.3213 5.36285 
52 1 10.7136 1.21864 7.32231 
60 1 10.4179 2.46031 6.66218 
61 1 10.7404 3.71113 7.32249 
63 1 11.2113 4.86568 6.60682 
87 1 10.6935 5.38385 5.38429 
98 1 16.0963 6.64244 5.62869 
170 1 10.7139 7.32116 1.22022 
174 1 10.4182 6.66219 2.46153 
175 1 10.7404 7.32234 3.71176 
179 1 8.75531 1.21882 5.36302 
183 1 9.41507 2.46113 5.6592 
184 1 8.75365 3.71076 5.33708 
192 1 13.6169 5.65951 6.66128 
193 1 12.3667 5.33673 7.32291 
200 1 14.8591 5.36263 7.32121 
6 1 16.0964 5.62796 9.43398 
23 1 10.6933 5.38286 10.6919 
59 1 10.4496 6.64 16.0974 
67 1 10.7186 7.31571 14.8596 
77 1 10.4169 6.66043 13.6173 
78 1 10.7398 7.32173 12.3653 
80 1 11.2104 6.60412 11.2102 
93 1 16.0978 6.64105 10.4486 
94 1 9.41699 2.46368 10.4167 
95 1 8.75326 3.71241 10.7397 
97 1 9.46952 4.86609 11.2109 
106 1 8.75397 1.22203 10.715 
116 1 14.8603 5.36122 8.75352 
123 1 9.43352 5.62635 16.0955 
124 1 13.6179 5.65557 9.41377 
125 1 12.3663 5.33576 8.75331 
127 1 11.212 4.86567 9.46964 
134 1 8.75486 5.36221 14.8582 
138 1 9.41498 5.65839 13.6166 
139 1 8.75321 5.33696 12.3661 
143 1 14.8615 7.31973 10.7149 
147 1 13.6219 6.65493 10.4184 
148 1 12.3701 7.3134 10.7388 
156 1 10.4181 2.45972 9.41443 
157 1 10.7406 3.70957 8.75408 
164 1 10.7137 1.21753 8.75497 
11 1 10.6935 10.6928 5.38476 
18 1 16.0976 10.4485 6.64117 
29 1 9.4342 16.0956 5.62873 
70 1 10.4484 16.0964 6.64227 
71 1 10.4183 9.41466 2.46171 
72 1 10.7405 8.75416 3.71097 
74 1 11.2121 9.47032 4.86717 
85 1 10.7143 8.75557 1.21872 
96 1 8.75481 14.8586 5.36291 
103 1 16.096 9.43399 5.62832 
104 1 9.41566 13.6169 5.65956 
105 1 8.75347 12.3668 5.3374 
107 1 9.47 11.2108 4.86713 
111 1 14.8611 10.7149 7.31955 
119 1 13.6215 10.4184 6.65546 
120 1 12.3695 10.7397 7.31422 
122 1 11.21 11.2117 6.60548 
132 1 9.41695 10.4171 2.46402 
133 1 8.75337 10.7398 3.71442 
140 1 8.75396 10.7158 1.22457 
146 1 14.8602 8.7537 5.36164 
150 1 13.6179 9.41404 5.65613 
151 1 12.3659 8.75375 5.33606 
155 1 10.7159 14.858 7.32122 
159 1 10.4164 13.6171 6.66118 
160 1 10.7401 12.3664 7.3248 
1 1 9.40676 10.3939 13.6304 
2 1 8.73204 10.7931 12.4063 
4 1 9.43283 11.1623 11.1735 
12 1 16.0989 10.4493 9.43486 
15 1 8.7456 10.7099 14.8687 
25 1 13.6255 9.41478 10.4178 
26 1 12.3825 8.74285 10.7363 
28 1 11.2262 9.46458 11.2023 
34 1 9.43301 16.1004 10.4453 
37 1 14.8647 8.75322 10.7164 
45 1 10.3983 13.6108 9.406 
46 1 10.7465 12.3688 8.75149 