ITEM: TIMESTEP
0
ITEM: NUMBER OF ATOMS
33
ITEM: BOX BOUNDS pp pp pp
0.0000000000000000e+00 7.0970000000000004e+00
0.0000000000000000e+00 7.0970000000000004e+00
0.0000000000000000e+00 2.4588000000000001e+01
ITEM: ATOMS id type x y z 
2 1 3.339 1.632 13.319 
5 1 4.651 1.581 18.133 
7 1 3.391 1.602 15.981 
8 1 2.166 1.581 18.134 
18 1 3.408 1.581 17.416 
21 1 3.338 2.875 12.602 
23 1 3.367 1.619 14.753 
24 1 3.338 0.39 12.601 
17 1 7.023 2.875 24.28 
19 1 6.997 1.619 22.129 
20 1 7.023 0.39 24.281 
22 1 6.957 1.581 19.466 
25 1 5.714 1.581 18.748 
27 1 6.974 1.602 20.9 
28 1 1.102 1.581 18.748 
30 1 7.024 1.631 23.563 
10 1 6.954 5.232 5.122 
13 1 7.023 3.938 0.307 
15 1 6.994 5.194 2.459 
16 1 7.023 6.423 0.307 
26 1 7.022 5.181 1.025 
29 1 5.711 5.232 5.839 
31 1 6.97 5.211 3.688 
32 1 1.098 5.232 5.84 
33 2 6.451 6.202 5.017 
1 1 4.647 5.232 6.454 
3 1 3.388 5.211 8.606 
4 1 2.163 5.232 6.454 
6 1 3.338 5.182 11.269 
9 1 3.338 3.939 11.986 
11 1 3.365 5.194 9.834 
12 1 3.338 6.423 11.987 
14 1 3.404 5.232 7.171 
ITEM: TIMESTEP
10
ITEM: NUMBER OF ATOMS
33
ITEM: BOX BOUNDS pp pp pp
0.0000000000000000e+00 7.0970000000000004e+00
0.0000000000000000e+00 7.0970000000000004e+00
0.0000000000000000e+00 2.4588000000000001e+01
ITEM: ATOMS id type x y z 
2 1 3.33942 1.63169 13.3192 
5 1 4.65497 1.58092 18.1339 
7 1 3.39135 1.60156 15.9803 
8 1 2.16184 1.58078 18.1379 
18 1 3.40776 1.58138 17.4165 
21 1 3.33678 2.87467 12.6054 
23 1 3.36784 1.61972 14.7545 
24 1 3.33713 0.390527 12.5976 
17 1 7.0233 2.8643 24.2712 
19 1 6.99563 1.6202 22.1267 
20 1 7.02606 0.397487 24.2828 
22 1 6.95716 1.58138 19.4629 
25 1 5.70977 1.58085 18.7469 
27 1 6.97363 1.60123 20.8965 
28 1 1.10661 1.58078 18.7439 
30 1 7.02383 1.63824 23.5623 
10 1 6.91405 5.2288 5.14569 
13 1 7.0229 3.92547 0.297705 
15 1 7.00141 5.18857 2.40507 
16 1 7.02056 6.43841 0.29052 
26 1 7.02085 5.17335 0.955828 
29 1 5.59507 5.10808 5.9194 
31 1 6.98899 5.1705 3.621 
32 1 1.16228 5.22247 5.8813 
33 2 6.51418 6.39145 4.95993 
1 1 4.59862 5.21901 6.50182 
3 1 3.39101 5.21471 8.62234 
4 1 2.18678 5.22886 6.46308 
6 1 3.33536 5.18208 11.2789 
9 1 3.33831 3.93671 11.9845 
11 1 3.36769 5.19117 9.8444 
12 1 3.33861 6.42523 11.9921 
14 1 3.42922 5.24043 7.21689 
ITEM: TIMESTEP
20
ITEM: NUMBER OF ATOMS
33
ITEM: BOX BOUNDS pp pp pp
0.0000000000000000e+00 7.0970000000000004e+00
0.0000000000000000e+00 7.0970000000000004e+00
0.0000000000000000e+00 2.4588000000000001e+01
ITEM: ATOMS id type x y z 
2 1 3.3391 1.63245 13.3232 
5 1 4.65342 1.58084 18.1327 
7 1 3.39142 1.60167 15.9779 
8 1 2.16571 1.58056 18.1362 
18 1 3.40811 1.58148 17.416 
21 1 3.3366 2.87489 12.6053 
23 1 3.36834 1.61971 14.7602 
24 1 3.33826 0.394524 12.5996 
17 1 7.02355 2.86368 24.2718 
19 1 6.99616 1.62038 22.1123 
20 1 7.02517 0.404151 24.28 
22 1 6.95676 1.58118 19.4588 
25 1 5.70941 1.58074 18.7468 
27 1 6.97262 1.60145 20.8941 
28 1 1.10472 1.58069 18.7441 
30 1 7.02453 1.63229 23.5506 
10 1 6.91997 5.27688 5.13236 
13 1 7.0226 3.92407 0.292227 
15 1 7.00231 5.18293 2.40089 
16 1 7.02106 6.4347 0.288212 
26 1 7.02224 5.1795 0.948431 
29 1 5.64963 5.07488 5.90146 
31 1 6.99079 5.16043 3.61307 
32 1 1.12746 5.21784 5.86163 
33 2 6.54011 6.40476 4.94758 
1 1 4.60656 5.19659 6.49634 
3 1 3.39117 5.21767 8.64304 
4 1 2.18653 5.22692 6.46474 
6 1 3.33538 5.18088 11.2922 
9 1 3.33836 3.92753 11.9908 
11 1 3.36681 5.18864 9.87049 
12 1 3.33654 6.43019 11.9965 
14 1 3.36761 5.25594 7.26951 
ITEM: TIMESTEP
30
ITEM: NUMBER OF ATOMS
33
ITEM: BOX BOUNDS pp pp pp
0.0000000000000000e+00 7.0970000000000004e+00
0.0000000000000000e+00 7.0970000000000004e+00
0.0000000000000000e+00 2.4588000000000001e+01
ITEM: ATOMS id type x y z 
2 1 3.33819 1.63095 13.3341 
5 1 4.65341 1.57977 18.1301 
7 1 3.39339 1.60236 15.9876 
8 1 2.16923 1.58052 18.1409 
18 1 3.40753 1.58044 17.4193 
21 1 3.3381 2.86817 12.6164 
23 1 3.36834 1.62135 14.7655 
24 1 3.33692 0.400621 12.6042 
17 1 7.02422 2.85712 24.268 
19 1 6.99613 1.62016 22.1047 
20 1 7.02413 0.410979 24.2748 
22 1 6.95693 1.58011 19.4507 
25 1 5.70808 1.58126 18.7466 
27 1 6.97107 1.60221 20.8817 
28 1 1.10248 1.58072 18.7364 
30 1 7.02536 1.63206 23.5389 
10 1 6.91534 5.33892 5.1098 
13 1 7.02296 3.92215 0.282146 
15 1 7.00558 5.17017 2.39019 
16 1 7.02328 6.43755 0.281149 
26 1 7.02198 5.18037 0.934933 
29 1 5.64889 5.04505 5.9063 
31 1 6.99518 5.13831 3.59961 
32 1 1.12329 5.21701 5.85004 
33 2 6.5622 6.42988 4.95154 
1 1 4.60578 5.16322 6.51678 
3 1 3.38836 5.22286 8.66891 
4 1 2.16757 5.2244 6.46701 
6 1 3.33564 5.17979 11.3104 
9 1 3.33775 3.91996 11.995 
11 1 3.36541 5.18646 9.89115 
12 1 3.3358 6.4375 12.0019 
14 1 3.37048 5.26858 7.26221 
ITEM: TIMESTEP
40
ITEM: NUMBER OF ATOMS
33
ITEM: BOX BOUNDS pp pp pp
0.0000000000000000e+00 7.0970000000000004e+00
0.0000000000000000e+00 7.0970000000000004e+00
0.0000000000000000e+00 2.4588000000000001e+01
ITEM: ATOMS id type x y z 
2 1 3.33742 1.63094 13.3416 
5 1 4.65561 1.57939 18.1239 
7 1 3.39537 1.60328 15.9939 
8 1 2.17076 1.57793 18.1428 
18 1 3.4075 1.58 17.4241 
21 1 3.33546 2.86629 12.6228 
23 1 3.36921 1.62273 14.7712 
24 1 3.33741 0.401651 12.6061 
17 1 7.02529 2.85465 24.2643 
19 1 6.99616 1.61981 22.0969 
20 1 7.02532 0.413206 24.2703 
22 1 6.95679 1.57951 19.4438 
25 1 5.70559 1.57993 18.7495 
27 1 6.97021 1.60311 20.8734 
28 1 1.10032 1.5824 18.7329 
30 1 7.02567 1.63218 23.5304 
10 1 6.90025 5.38281 5.098 
13 1 7.02311 3.92361 0.271872 
15 1 7.00707 5.15077 2.3894 
16 1 7.0232 6.43829 0.273965 
26 1 7.024 5.18074 0.926745 
29 1 5.64729 5.02573 5.90648 
31 1 6.99833 5.11583 3.59558 
32 1 1.12411 5.21563 5.84149 
33 2 6.57797 6.47435 4.96297 
1 1 4.61712 5.12621 6.5272 
3 1 3.38302 5.22715 8.67307 
4 1 2.15475 5.22746 6.47549 
6 1 3.33749 5.17792 11.3178 
9 1 3.33727 3.91843 12.0012 
11 1 3.36322 5.18662 9.89642 
12 1 3.33495 6.43819 12.0059 
14 1 3.37174 5.27426 7.26754 
ITEM: TIMESTEP
50
ITEM: NUMBER OF ATOMS
33
ITEM: BOX BOUNDS pp pp pp
0.0000000000000000e+00 7.0970000000000004e+00
0.0000000000000000e+00 7.0970000000000004e+00
0.0000000000000000e+00 2.4588000000000001e+01
ITEM: ATOMS id type x y z 
2 1 3.33634 1.63056 13.3424 
5 1 4.65432 1.57958 18.1261 
7 1 3.39543 1.60283 15.9938 
8 1 2.17114 1.57944 18.1431 
18 1 3.40876 1.5794 17.4239 
21 1 3.33703 2.86728 12.6239 
23 1 3.36857 1.62249 14.7719 
24 1 3.33615 0.401286 12.6075 
17 1 7.02502 2.8564 24.2625 
19 1 6.99551 1.62057 22.0963 
20 1 7.02513 0.410912 24.2689 
22 1 6.95566 1.58032 19.443 
25 1 5.70724 1.57989 18.7468 
27 1 6.96997 1.60216 20.8733 
28 1 1.10003 1.57989 18.7314 
30 1 7.0266 1.63207 23.53 
10 1 6.89481 5.39947 5.09472 
13 1 7.02429 3.92642 0.267804 
15 1 7.00892 5.14006 2.39343 
16 1 7.02433 6.4367 0.27201 
26 1 7.02379 5.18029 0.929832 
29 1 5.65233 5.01547 5.90485 
31 1 6.9964 5.10787 3.59985 
32 1 1.12121 5.21687 5.83911 
33 2 6.58673 6.49541 4.97008 
1 1 4.61831 5.1196 6.52496 
3 1 3.38026 5.2261 8.67071 
4 1 2.15101 5.23033 6.47865 
6 1 3.33738 5.17761 11.3171 
9 1 3.33672 3.91958 12.0043 
11 1 3.36157 5.18878 9.89544 
12 1 3.3364 6.43658 12.0073 
14 1 3.37162 5.26877 7.264 
ITEM: TIMESTEP
60
ITEM: NUMBER OF ATOMS
33
ITEM: BOX BOUNDS pp pp pp
0.0000000000000000e+00 7.0970000000000004e+00
0.0000000000000000e+00 7.0970000000000004e+00
0.0000000000000000e+00 2.4588000000000001e+01
ITEM: ATOMS id type x y z 
2 1 3.33165 1.62731 13.3393 
5 1 4.65059 1.57874 18.134 
7 1 3.39427 1.60147 15.9921 
8 1 2.16946 1.57802 18.1405 
18 1 3.40874 1.57882 17.4242 
21 1 3.3387 2.87485 12.6303 
23 1 3.36969 1.62226 14.7719 
24 1 3.33748 0.395983 12.6116 
17 1 7.02596 2.8659 24.2528 
19 1 6.99497 1.62527 22.0971 
20 1 7.02665 0.399474 24.2622 
22 1 6.95629 1.57776 19.4431 
25 1 5.7127 1.57889 18.7372 
27 1 6.96995 1.60251 20.8764 
28 1 1.10022 1.57859 18.7309 
30 1 7.02698 1.62944 23.5341 
10 1 6.87413 5.48006 5.08702 
13 1 7.02912 3.93966 0.25016 
15 1 7.01205 5.08196 2.41492 
16 1 7.02708 6.42769 0.268588 
26 1 7.0266 5.17806 0.945866 
29 1 5.66196 4.98074 5.89614 
31 1 6.98551 5.0763 3.61875 
32 1 1.10872 5.23126 5.83554 
33 2 6.63257 6.58874 5.00712 
1 1 4.63009 5.07943 6.51089 
3 1 3.36753 5.21864 8.65795 
4 1 2.13107 5.24048 6.48292 
6 1 3.3418 5.17877 11.3087 
9 1 3.33253 3.92695 12.013 
11 1 3.35659 5.19883 9.88266 
12 1 3.33423 6.42799 12.0147 
14 1 3.37312 5.24015 7.24628 
ITEM: TIMESTEP
70
ITEM: NUMBER OF ATOMS
33
ITEM: BOX BOUNDS pp pp pp
0.0000000000000000e+00 7.0970000000000004e+00
0.0000000000000000e+00 7.0970000000000004e+00
0.0000000000000000e+00 2.4588000000000001e+01
ITEM: ATOMS id type x y z 
2 1 3.33176 1.62867 13.3388 
5 1 4.65063 1.579 18.1348 
7 1 3.39478 1.60181 15.9909 
8 1 2.16882 1.57789 18.1402 
18 1 3.40879 1.57847 17.423 
21 1 3.33623 2.87715 12.632 
23 1 3.36888 1.62256 14.7704 
24 1 3.3366 0.396257 12.6092 
17 1 7.02632 2.86744 24.2518 
19 1 6.99533 1.62446 22.0989 
20 1 7.02673 0.396228 24.2626 
22 1 6.95633 1.5783 19.4452 
25 1 5.71308 1.57731 18.7367 
27 1 6.96972 1.6032 20.8791 
28 1 1.10041 1.57821 18.7311 
30 1 7.02677 1.62995 23.5357 
10 1 6.87449 5.48639 5.08747 
13 1 7.02893 3.94167 0.247897 
15 1 7.01139 5.07541 2.41943 
16 1 7.02779 6.42632 0.271041 
26 1 7.02796 5.17564 0.950981 
29 1 5.6617 4.98521 5.89109 
31 1 6.98171 5.07776 3.62298 
32 1 1.10491 5.24083 5.8381 
33 2 6.63985 6.59497 5.01169 
1 1 4.62975 5.07096 6.5092 
3 1 3.36704 5.21765 8.65455 
4 1 2.13283 5.23626 6.47668 
6 1 3.33938 5.17949 11.3048 
9 1 3.33525 3.92744 12.0109 
11 1 3.35623 5.19759 9.87905 
12 1 3.33678 6.4246 12.0193 
14 1 3.37183 5.2359 7.24343 
ITEM: TIMESTEP
80
ITEM: NUMBER OF ATOMS
33
ITEM: BOX BOUNDS pp pp pp
0.0000000000000000e+00 7.0970000000000004e+00
0.0000000000000000e+00 7.0970000000000004e+00
0.0000000000000000e+00 2.4588000000000001e+01
ITEM: ATOMS id type x y z 
2 1 3.33255 1.63352 13.3351 
5 1 4.64608 1.57856 18.145 
7 1 3.39628 1.60118 15.9877 
8 1 2.16684 1.57725 18.1386 
18 1 3.40826 1.57862 17.4209 
21 1 3.33459 2.87786 12.6278 
23 1 3.36671 1.62113 14.7673 
24 1 3.33406 0.391074 12.6125 
17 1 7.02792 2.87174 24.2461 
19 1 6.99516 1.62259 22.1052 
20 1 7.02764 0.388229 24.2644 
22 1 6.95679 1.57879 19.4503 
25 1 5.71976 1.57634 18.726 
27 1 6.96945 1.60312 20.8854 
28 1 1.10063 1.57734 18.7333 
30 1 7.02555 1.62668 23.5425 
10 1 6.87179 5.51461 5.09099 
13 1 7.03011 3.94567 0.243175 
15 1 7.00823 5.05469 2.43045 
16 1 7.02948 6.42234 0.279856 
26 1 7.03198 5.17101 0.959922 
29 1 5.66144 4.9949 5.87686 
31 1 6.97099 5.07865 3.63173 
32 1 1.10066 5.25964 5.83757 
33 2 6.66098 6.62409 5.02545 
1 1 4.62994 5.04381 6.50041 
3 1 3.36695 5.20988 8.64677 
4 1 2.13043 5.23717 6.47383 
6 1 3.33956 5.17512 11.2988 
9 1 3.33848 3.93261 12.0127 
11 1 3.35161 5.20857 9.87111 
12 1 3.33675 6.42339 12.0175 
14 1 3.37136 5.21084 7.23391 
ITEM: TIMESTEP
90
ITEM: NUMBER OF ATOMS
33
ITEM: BOX BOUNDS pp pp pp
0.0000000000000000e+00 7.0970000000000004e+00
0.0000000000000000e+00 7.0970000000000004e+00
0.0000000000000000e+00 2.4588000000000001e+01
ITEM: ATOMS id type x y z 
2 1 3.33437 1.62862 13.3347 
5 1 4.65163 1.58118 18.1366 
7 1 3.3972 1.6013 15.9882 
8 1 2.16633 1.57895 18.1388 
18 1 3.40872 1.57529 17.4223 
21 1 3.33144 2.88058 12.625 
23 1 3.36702 1.61976 14.7679 
24 1 3.33211 0.391386 12.6139 
17 1 7.0306 2.87222 24.2419 
19 1 6.99467 1.62042 22.107 
20 1 7.02677 0.38336 24.2705 
22 1 6.95652 1.57943 19.4517 
25 1 5.7152 1.57371 18.7355 
27 1 6.96846 1.60005 20.8872 
28 1 1.10039 1.57762 18.7335 
30 1 7.02423 1.62179 23.5448 
10 1 6.86888 5.54646 5.08989 
13 1 7.03117 3.94649 0.237412 
15 1 7.00365 5.0378 2.43873 
16 1 7.03301 6.41931 0.288431 
26 1 7.03606 5.16536 0.966362 
29 1 5.66275 5.00355 5.86408 
31 1 6.96015 5.08112 3.63902 
32 1 1.09697 5.27792 5.84045 
33 2 6.67909 6.66037 5.03674 
1 1 4.63362 5.01762 6.48932 
3 1 3.36042 5.20154 8.64133 
4 1 2.12896 5.23532 6.47066 
6 1 3.34031 5.18608 11.2933 
9 1 3.33741 3.93331 12.0094 
11 1 3.35451 5.20791 9.86608 
12 1 3.33683 6.42213 12.0184 
14 1 3.36955 5.18306 7.22974 
ITEM: TIMESTEP
94
ITEM: NUMBER OF ATOMS
33
ITEM: BOX BOUNDS pp pp pp
0.0000000000000000e+00 7.0970000000000004e+00
0.0000000000000000e+00 7.0970000000000004e+00
0.0000000000000000e+00 2.4588000000000001e+01
ITEM: ATOMS id type x y z 
2 1 3.33268 1.6294 13.3345 
5 1 4.65098 1.57752 18.1373 
7 1 3.39678 1.6006 15.9881 
8 1 2.16642 1.57769 18.1387 
18 1 3.40869 1.57719 17.4218 
21 1 3.33341 2.88083 12.6251 
23 1 3.36783 1.62009 14.7677 
24 1 3.33337 0.391319 12.6139 
17 1 7.029 2.8718 24.2417 
19 1 6.99439 1.61977 22.1073 
20 1 7.02836 0.383432 24.2708 
22 1 6.95653 1.57789 19.4522 
25 1 5.71587 1.57723 18.7348 
27 1 6.96861 1.60079 20.8874 
28 1 1.1003 1.57855 18.7336 
30 1 7.02442 1.62159 23.5451 
10 1 6.86881 5.54769 5.09006 
13 1 7.03241 3.94672 0.237312 
15 1 7.00345 5.03731 2.43855 
16 1 7.03177 6.41902 0.288875 
26 1 7.03637 5.16506 0.96688 
29 1 5.6621 5.00428 5.86408 
31 1 6.95983 5.08156 3.63957 
32 1 1.09615 5.27951 5.84003 
33 2 6.67974 6.66149 5.03705 
1 1 4.63412 5.01666 6.48872 
3 1 3.36004 5.19859 8.6412 
4 1 2.12918 5.23374 6.47094 
6 1 3.34128 5.18486 11.2933 
9 1 3.33581 3.93344 12.0091 
11 1 3.35385 5.20945 9.86586 
12 1 3.33598 6.42249 12.0185 
14 1 3.37049 5.18343 7.22889 
ITEM: TIMESTEP
95
ITEM: NUMBER OF ATOMS
33
ITEM: BOX BOUNDS pp pp pp
0.0000000000000000e+00 7.0970000000000004e+00
0.0000000000000000e+00 7.0970000000000004e+00
0.0000000000000000e+00 2.4588000000000001e+01
ITEM: ATOMS id type x y z 
2 1 3.33268 1.6294 13.3345 
5 1 4.65098 1.57752 18.1373 
7 1 3.39678 1.6006 15.9881 
8 1 2.16642 1.57769 18.1387 
18 1 3.40869 1.57719 17.4218 
21 1 3.33341 2.88083 12.6251 
23 1 3.36783 1.62009 14.7677 
24 1 3.33337 0.391319 12.6139 
17 1 7.029 2.8718 24.2417 
19 1 6.99439 1.61977 22.1073 
20 1 7.02836 0.383432 24.2708 
22 1 6.95653 1.57789 19.4522 
25 1 5.71587 1.57723 18.7348 
27 1 6.96861 1.60079 20.8874 
28 1 1.1003 1.57855 18.7336 
30 1 7.02442 1.62159 23.5451 
10 1 6.86881 5.54769 5.09006 
13 1 7.03241 3.94672 0.237312 
15 1 7.00345 5.03731 2.43855 
16 1 7.03177 6.41902 0.288875 
26 1 7.03637 5.16506 0.96688 
29 1 5.6621 5.00428 5.86408 
31 1 6.95983 5.08156 3.63957 
32 1 1.09615 5.27951 5.84003 
33 2 6.67974 6.66149 5.03705 
1 1 4.63412 5.01666 6.48872 
3 1 3.36004 5.19859 8.6412 
4 1 2.12918 5.23374 6.47094 
6 1 3.34128 5.18486 11.2933 
9 1 3.33581 3.93344 12.0091 
11 1 3.35385 5.20945 9.86586 
12 1 3.33598 6.42249 12.0185 
14 1 3.37049 5.18343 7.22889 
ITEM: TIMESTEP
100
ITEM: NUMBER OF ATOMS
33
ITEM: BOX BOUNDS pp pp pp
-9.1320700089431747e-04 7.0979132070008948e+00
-9.9352547821489182e-04 7.0979935254782145e+00
-6.1470000000000006e-03 2.4594147000000000e+01
ITEM: ATOMS id type x y z 
2 1 3.33263 1.62887 13.335 
5 1 4.65127 1.57697 18.1403 
7 1 3.39674 1.60005 15.9899 
8 1 2.16606 1.57714 18.1417 
18 1 3.40865 1.57664 17.4244 
21 1 3.33335 2.88064 12.6253 
23 1 3.36778 1.61955 14.7689 
24 1 3.33332 0.390433 12.6141 
17 1 7.02989 2.87162 24.2477 
19 1 6.99528 1.61923 22.1122 
20 1 7.02926 0.382541 24.2768 
22 1 6.95741 1.57734 19.4558 
25 1 5.71642 1.57668 18.7381 
27 1 6.96949 1.60024 20.8917 
28 1 1.09968 1.578 18.7368 
30 1 7.02532 1.62105 23.5507 
10 1 6.86966 5.54825 5.08646 
13 1 7.03331 3.94683 0.231281 
15 1 7.00434 5.03773 2.43365 
16 1 7.03266 6.41983 0.282871 
26 1 7.03727 5.16551 0.96122 
29 1 5.66264 5.00469 5.86087 
31 1 6.96071 5.08199 3.63522 
32 1 1.09553 5.28 5.83681 
33 2 6.68055 6.66237 5.03343 
1 1 4.6344 5.01707 6.48582 
3 1 3.35999 5.19904 8.63938 
4 1 2.12881 5.23421 6.46802 
6 1 3.34122 5.18531 11.2928 
9 1 3.33575 3.93355 12.0089 
11 1 3.3538 5.20992 9.86464 
12 1 3.33592 6.4233 12.0183 
14 1 3.37044 5.18388 7.22636 
ITEM: TIMESTEP
110
ITEM: NUMBER OF ATOMS
33
ITEM: BOX BOUNDS pp pp pp
-2.9656825504644551e-03 7.0999656825504651e+00
-3.3042072678289959e-03 7.1003042072678291e+00
-1.8441000000000009e-02 2.4606440999999997e+01
ITEM: ATOMS id type x y z 
2 1 3.3325 1.62763 13.336 
5 1 4.65193 1.57568 18.1461 
7 1 3.39666 1.59879 15.9936 
8 1 2.16523 1.57586 18.1475 
18 1 3.40857 1.57536 17.4295 
21 1 3.33323 2.88023 12.6256 
23 1 3.36767 1.61829 14.7715 
24 1 3.3332 0.388354 12.6144 
17 1 7.03191 2.87121 24.2596 
19 1 6.99727 1.61797 22.122 
20 1 7.03127 0.380447 24.2888 
22 1 6.95938 1.57606 19.463 
25 1 5.71764 1.5754 18.7445 
27 1 6.97147 1.59897 20.9004 
28 1 1.09829 1.57671 18.7433 
30 1 7.02733 1.61979 23.562 
10 1 6.87157 5.54955 5.07924 
13 1 7.03533 3.94705 0.219205 
15 1 7.00633 5.0387 2.42391 
16 1 7.03468 6.42173 0.270853 
26 1 7.03929 5.16655 0.949912 
29 1 5.66382 5.00565 5.85446 
31 1 6.96268 5.083 3.62645 
32 1 1.09416 5.28113 5.8304 
33 2 6.68237 6.6644 5.02617 
1 1 4.63507 5.01802 6.47998 
3 1 3.35988 5.20009 8.63577 
4 1 2.12795 5.23532 6.46216 
6 1 3.3411 5.18637 11.2918 
9 1 3.33564 3.93378 12.0087 
11 1 3.35368 5.21102 9.86215 
12 1 3.3358 6.4252 12.0181 
14 1 3.37033 5.18494 7.22129 
ITEM: TIMESTEP
120
ITEM: NUMBER OF ATOMS
33
ITEM: BOX BOUNDS pp pp pp
-5.8234985846886715e-03 7.1028234985846890e+00
-5.9188402759121038e-03 7.1029188402759118e+00
-2.8937441232484786e-02 2.4616937441232476e+01
ITEM: ATOMS id type x y z 
2 1 3.33232 1.62624 13.3369 
5 1 4.65295 1.57422 18.1512 
7 1 3.39653 1.59735 15.9965 
8 1 2.16399 1.57441 18.1526 
18 1 3.40846 1.57391 17.4339 
21 1 3.33306 2.87989 12.6258 
23 1 3.36752 1.61686 14.7738 
24 1 3.33303 0.385851 12.6146 
17 1 7.03471 2.87088 24.2699 
19 1 7.00003 1.61654 22.1302 
20 1 7.03408 0.377952 24.2991 
22 1 6.96213 1.57461 19.4691 
25 1 5.71926 1.57396 18.7499 
27 1 6.97423 1.59754 20.9079 
28 1 1.09644 1.57524 18.7487 
30 1 7.03013 1.61837 23.5716 
10 1 6.87424 5.55101 5.07305 
13 1 7.03814 3.94717 0.208819 
15 1 7.00909 5.03982 2.41586 
16 1 7.03748 6.424 0.260521 
26 1 7.0421 5.16772 0.940304 
29 1 5.66535 5.00677 5.84907 
31 1 6.96542 5.08416 3.61866 
32 1 1.09241 5.28241 5.82505 
33 2 6.68491 6.66671 5.01999 
1 1 4.63609 5.01908 6.47493 
3 1 3.35971 5.20124 8.63296 
4 1 2.12664 5.23658 6.45706 
6 1 3.34093 5.18756 11.2909 
9 1 3.33548 3.93393 12.0085 
11 1 3.35352 5.21226 9.85977 
12 1 3.33563 6.42748 12.0179 
14 1 3.37017 5.18611 7.21694 
ITEM: TIMESTEP
127
ITEM: NUMBER OF ATOMS
33
ITEM: BOX BOUNDS pp pp pp
-6.1861455817589844e-03 7.1031861455817591e+00
-6.0809831828022238e-03 7.1030809831828021e+00
-2.9554002739803104e-02 2.4617554002739798e+01
ITEM: ATOMS id type x y z 
2 1 3.3323 1.62616 13.337 
5 1 4.65309 1.57413 18.1515 
7 1 3.39652 1.59726 15.9967 
8 1 2.16383 1.57432 18.1529 
18 1 3.40845 1.57382 17.4341 
21 1 3.33304 2.8799 12.6258 
23 1 3.3675 1.61677 14.7739 
24 1 3.33301 0.385664 12.6145 
17 1 7.03506 2.87089 24.2705 
19 1 7.00038 1.61645 22.1307 
20 1 7.03443 0.377768 24.2997 
22 1 6.96247 1.57452 19.4695 
25 1 5.71945 1.57387 18.7502 
27 1 6.97458 1.59745 20.9084 
28 1 1.09622 1.57515 18.749 
30 1 7.03048 1.61828 23.5721 
10 1 6.87458 5.5511 5.07269 
13 1 7.03849 3.94715 0.208191 
15 1 7.00944 5.03989 2.41543 
16 1 7.03784 6.42418 0.259898 
26 1 7.04245 5.16779 0.939747 
29 1 5.66553 5.00685 5.84876 
31 1 6.96577 5.08423 3.61816 
32 1 1.09221 5.2825 5.82476 
33 2 6.68524 6.66686 5.01962 
1 1 4.63622 5.01914 6.47462 
3 1 3.35969 5.20131 8.63285 
4 1 2.12646 5.23666 6.45674 
6 1 3.34091 5.18763 11.2908 
9 1 3.33546 3.93391 12.0085 
11 1 3.3535 5.21234 9.85957 
12 1 3.33561 6.42765 12.0179 
14 1 3.37015 5.18618 7.21668 
ITEM: TIMESTEP
130
ITEM: NUMBER OF ATOMS
33
ITEM: BOX BOUNDS pp pp pp
-6.1861455817589844e-03 7.1031861455817591e+00
-6.0809831828022238e-03 7.1030809831828021e+00
-2.9554002739803104e-02 2.4617554002739798e+01
ITEM: ATOMS id type x y z 
2 1 3.33225 1.62635 13.337 
5 1 4.65396 1.57406 18.1519 
7 1 3.39651 1.59728 15.9954 
8 1 2.16299 1.57437 18.1533 
18 1 3.40844 1.57386 17.4341 
21 1 3.33305 2.88064 12.6253 
23 1 3.36748 1.61673 14.7751 
24 1 3.33304 0.384877 12.6142 
17 1 7.03504 2.87173 24.2709 
19 1 7.00032 1.61637 22.1296 
20 1 7.03445 0.376929 24.3002 
22 1 6.96248 1.57457 19.4695 
25 1 5.71858 1.57392 18.7498 
27 1 6.97464 1.59746 20.9096 
28 1 1.09706 1.57506 18.7486 
30 1 7.03048 1.61825 23.5721 
10 1 6.87459 5.55096 5.07245 
13 1 7.03853 3.94623 0.207712 
15 1 7.00932 5.03997 2.41723 
16 1 7.03785 6.42498 0.2595 
26 1 7.04246 5.16766 0.940099 
29 1 5.66457 5.00721 5.84926 
31 1 6.96574 5.08448 3.61625 
32 1 1.09338 5.28261 5.82566 
33 2 6.68539 6.66695 5.01968 
1 1 4.63687 5.019 6.47415 
3 1 3.35965 5.2009 8.63394 
4 1 2.12565 5.23681 6.45605 
6 1 3.34087 5.18749 11.2908 
9 1 3.33555 3.93326 12.0089 
11 1 3.35341 5.2125 9.85839 
12 1 3.33564 6.42838 12.0183 
14 1 3.37009 5.18592 7.21647 
ITEM: TIMESTEP
140
ITEM: NUMBER OF ATOMS
33
ITEM: BOX BOUNDS pp pp pp
-6.1861455817589844e-03 7.1031861455817591e+00
-6.0809831828022238e-03 7.1030809831828021e+00
-2.9554002739803104e-02 2.4617554002739798e+01
ITEM: ATOMS id type x y z 
2 1 3.33113 1.63139 13.3363 
5 1 4.65497 1.57354 18.1505 
7 1 3.39673 1.5971 15.9945 
8 1 2.16215 1.57405 18.152 
18 1 3.40827 1.57447 17.433 
21 1 3.33401 2.88113 12.6234 
23 1 3.36594 1.6161 14.7741 
24 1 3.33375 0.38376 12.616 
17 1 7.03465 2.87159 24.2677 
19 1 6.99995 1.61352 22.1312 
20 1 7.03473 0.374159 24.3031 
22 1 6.96278 1.57546 19.4715 
25 1 5.71759 1.57491 18.7519 
27 1 6.97529 1.59663 20.9115 
28 1 1.0979 1.57415 18.7503 
30 1 7.02992 1.61581 23.5731 
10 1 6.87566 5.55385 5.07179 
13 1 7.03997 3.94413 0.207421 
15 1 7.00696 5.03913 2.41717 
16 1 7.03876 6.42353 0.26347 
26 1 7.04334 5.16364 0.943659 
29 1 5.66243 5.02276 5.8458 
31 1 6.96186 5.09582 3.61624 
32 1 1.09334 5.29361 5.82903 
33 2 6.69327 6.67136 5.02291 
1 1 4.63331 5.01175 6.47282 
3 1 3.36094 5.19227 8.63209 
4 1 2.12785 5.23482 6.45495 
6 1 3.33958 5.18444 11.2893 
9 1 3.33759 3.93468 12.0076 
11 1 3.34985 5.21355 9.85589 
12 1 3.33667 6.43004 12.0168 
14 1 3.3692 5.17066 7.21444 
ITEM: TIMESTEP
150
ITEM: NUMBER OF ATOMS
33
ITEM: BOX BOUNDS pp pp pp
-6.1861455817589844e-03 7.1031861455817591e+00
-6.0809831828022238e-03 7.1030809831828021e+00
-2.9554002739803104e-02 2.4617554002739798e+01
ITEM: ATOMS id type x y z 
2 1 3.33209 1.62979 13.3355 
5 1 4.65601 1.57439 18.1497 
7 1 3.39567 1.59678 15.9936 
8 1 2.16126 1.57438 18.1512 
18 1 3.40841 1.57358 17.4327 
21 1 3.33379 2.88204 12.6211 
23 1 3.36665 1.61629 14.7737 
24 1 3.33393 0.383987 12.6172 
17 1 7.03658 2.86988 24.2638 
19 1 7.00003 1.61009 22.1321 
20 1 7.03487 0.372378 24.3063 
22 1 6.96275 1.57584 19.4724 
25 1 5.7166 1.57501 18.7536 
27 1 6.97556 1.59461 20.9125 
28 1 1.09889 1.57467 18.7518 
30 1 7.02861 1.61137 23.5748 
10 1 6.87735 5.56742 5.07351 
13 1 7.03967 3.94107 0.206454 
15 1 7.00446 5.03857 2.41678 
16 1 7.03941 6.42175 0.267425 
26 1 7.04529 5.1605 0.941313 
29 1 5.66036 5.0347 5.84228 
31 1 6.95812 5.10462 3.61577 
32 1 1.09346 5.30218 5.82839 
33 2 6.70132 6.68248 5.02598 
1 1 4.63414 5.00454 6.46896 
3 1 3.35816 5.18436 8.63224 
4 1 2.12542 5.23319 6.45784 
6 1 3.33956 5.18887 11.288 
9 1 3.33613 3.93553 12.0064 
11 1 3.35248 5.21149 9.85637 
12 1 3.33587 6.43121 12.0157 
14 1 3.36749 5.1502 7.216 
ITEM: TIMESTEP
160
ITEM: NUMBER OF ATOMS
33
ITEM: BOX BOUNDS pp pp pp
-6.1861455817589844e-03 7.1031861455817591e+00
-6.0809831828022238e-03 7.1030809831828021e+00
-2.9554002739803104e-02 2.4617554002739798e+01
ITEM: ATOMS id type x y z 
2 1 3.33296 1.6347 13.335 
5 1 4.65608 1.57533 18.1501 
7 1 3.39568 1.59568 15.9933 
8 1 2.16133 1.57739 18.1515 
18 1 3.40828 1.57059 17.4317 
21 1 3.33207 2.88378 12.6182 
23 1 3.36461 1.61859 14.7736 
24 1 3.33581 0.385438 12.6176 
17 1 7.03782 2.86679 24.2575 
19 1 6.99867 1.60095 22.132 
20 1 7.03453 0.367133 24.3149 
22 1 6.96292 1.57646 19.4748 
25 1 5.71611 1.57842 18.7543 
27 1 6.97634 1.58874 20.9121 
28 1 1.09977 1.57304 18.753 
30 1 7.02791 1.60266 23.5756 
10 1 6.87803 5.59702 5.07339 
13 1 7.04128 3.93605 0.203695 
15 1 6.99916 5.04062 2.41949 
16 1 7.0425 6.41599 0.274403 
26 1 7.04761 5.15003 0.947303 
29 1 5.65747 5.06203 5.83584 
31 1 6.95074 5.12695 3.6168 
32 1 1.08814 5.32244 5.83492 
33 2 6.71883 6.71214 5.03168 
1 1 4.63193 4.99236 6.46301 
3 1 3.36586 5.17085 8.63083 
4 1 2.12601 5.22136 6.45219 
6 1 3.34053 5.1896 11.2862 
9 1 3.33874 3.9373 12.0034 
11 1 3.3418 5.20204 9.85465 
12 1 3.33592 6.43413 12.0151 
14 1 3.36489 5.10114 7.21357 
ITEM: TIMESTEP
170
ITEM: NUMBER OF ATOMS
33
ITEM: BOX BOUNDS pp pp pp
-6.1861455817589844e-03 7.1031861455817591e+00
-6.0809831828022238e-03 7.1030809831828021e+00
-2.9554002739803104e-02 2.4617554002739798e+01
ITEM: ATOMS id type x y z 
2 1 3.33234 1.63425 13.335 
5 1 4.65579 1.57394 18.1504 
7 1 3.39479 1.59775 15.993 
8 1 2.16183 1.57401 18.1523 
18 1 3.40834 1.57298 17.4322 
21 1 3.33441 2.88418 12.6187 
23 1 3.36607 1.61783 14.773 
24 1 3.33478 0.386255 12.617 
17 1 7.03594 2.86532 24.2566 
19 1 6.99962 1.59852 22.1337 
20 1 7.03586 0.36614 24.3157 
22 1 6.96294 1.57819 19.4732 
25 1 5.7165 1.57551 18.754 
27 1 6.97569 1.58946 20.914 
28 1 1.09924 1.57531 18.7526 
30 1 7.02795 1.60216 23.5755 
10 1 6.8772 5.59905 5.07396 
13 1 7.04274 3.93422 0.203091 
15 1 6.99869 5.04119 2.42181 
16 1 7.04141 6.41495 0.275346 
26 1 7.04814 5.15046 0.945441 
29 1 5.65673 5.06595 5.83549 
31 1 6.94984 5.13079 3.61892 
32 1 1.09072 5.32465 5.83381 
33 2 6.72057 6.7185 5.03194 
1 1 4.63253 4.99156 6.46131 
3 1 3.36164 5.15721 8.62922 
4 1 2.12436 5.21844 6.45606 
6 1 3.33712 5.19029 11.2867 
9 1 3.33644 3.93725 12.0027 
11 1 3.35012 5.20733 9.85237 
12 1 3.33616 6.43401 12.015 
14 1 3.36386 5.10013 7.21155 
ITEM: TIMESTEP
180
ITEM: NUMBER OF ATOMS
33
ITEM: BOX BOUNDS pp pp pp
-6.1861455817589844e-03 7.1031861455817591e+00
-6.0809831828022238e-03 7.1030809831828021e+00
-2.9554002739803104e-02 2.4617554002739798e+01
ITEM: ATOMS id type x y z 
2 1 3.33298 1.6347 13.3344 
5 1 4.65615 1.57433 18.15 
7 1 3.39451 1.59745 15.9929 
8 1 2.16161 1.57399 18.152 
18 1 3.40834 1.57266 17.4323 
21 1 3.33475 2.88475 12.6175 
23 1 3.36637 1.61834 14.773 
24 1 3.33417 0.386373 12.6168 
17 1 7.03616 2.86426 24.2565 
19 1 6.99952 1.59615 22.1339 
20 1 7.03586 0.364748 24.3169 
22 1 6.963 1.57795 19.4736 
25 1 5.71622 1.57589 18.7547 
27 1 6.97548 1.58816 20.9141 
28 1 1.09952 1.57588 18.7531 
30 1 7.0281 1.60028 23.5763 
10 1 6.87728 5.60583 5.07461 
13 1 7.0429 3.93317 0.203013 
15 1 6.998 5.04267 2.42277 
16 1 7.04175 6.4135 0.276481 
26 1 7.04845 5.14864 0.94645 
29 1 5.65698 5.07164 5.83424 
31 1 6.94856 5.13604 3.61977 
32 1 1.0909 5.32575 5.83349 
33 2 6.72357 6.72534 5.03267 
1 1 4.63254 4.99042 6.45978 
3 1 3.35918 5.15343 8.6279 
4 1 2.12296 5.21807 6.45809 
6 1 3.33795 5.19106 11.285 
9 1 3.33567 3.93828 12.0026 
11 1 3.35096 5.20406 9.85146 
12 1 3.33586 6.4346 12.0142 
14 1 3.36413 5.08937 7.21114 
ITEM: TIMESTEP
190
ITEM: NUMBER OF ATOMS
33
ITEM: BOX BOUNDS pp pp pp
-6.1861455817589844e-03 7.1031861455817591e+00
-6.0809831828022238e-03 7.1030809831828021e+00
-2.9554002739803104e-02 2.4617554002739798e+01
ITEM: ATOMS id type x y z 
2 1 3.33299 1.63511 13.334 
5 1 4.65633 1.5744 18.1497 
7 1 3.39443 1.59749 15.9927 
8 1 2.16153 1.57408 18.1519 
18 1 3.40836 1.57257 17.4321 
21 1 3.3348 2.88508 12.6169 
23 1 3.36633 1.61862 14.7728 
24 1 3.33428 0.386604 12.6167 
17 1 7.0363 2.8634 24.2564 
19 1 6.99948 1.59432 22.1341 
20 1 7.03596 0.363662 24.3178 
22 1 6.96303 1.57809 19.4739 
25 1 5.71605 1.57604 18.755 
27 1 6.9753 1.5872 20.9144 
28 1 1.09969 1.57598 18.7534 
30 1 7.02816 1.59892 23.5767 
10 1 6.8776 5.61075 5.07491 
13 1 7.04308 3.93218 0.203052 
15 1 6.99736 5.0439 2.42385 
16 1 7.04195 6.41242 0.277265 
26 1 7.04864 5.14733 0.94729 
29 1 5.65665 5.07603 5.83363 
31 1 6.94773 5.14013 3.62004 
32 1 1.09113 5.32781 5.83353 
33 2 6.72593 6.73054 5.03329 
1 1 4.63278 4.98965 6.45851 
3 1 3.35822 5.14844 8.62723 
4 1 2.1214 5.21565 6.45955 
6 1 3.338 5.19151 11.2842 
9 1 3.33587 3.93895 12.0025 
11 1 3.35081 5.20267 9.85036 
12 1 3.33591 6.43508 12.0135 
14 1 3.36428 5.08317 7.21024 
ITEM: TIMESTEP
200
ITEM: NUMBER OF ATOMS
33
ITEM: BOX BOUNDS pp pp pp
-6.1861455817589844e-03 7.1031861455817591e+00
-6.0809831828022238e-03 7.1030809831828021e+00
-2.9554002739803104e-02 2.4617554002739798e+01
ITEM: ATOMS id type x y z 
2 1 3.33296 1.63604 13.3332 
5 1 4.65666 1.57451 18.1494 
7 1 3.39419 1.59783 15.992 
8 1 2.16142 1.57395 18.1517 
18 1 3.4084 1.57253 17.4316 
21 1 3.33542 2.88619 12.6158 
23 1 3.36632 1.61929 14.7721 
24 1 3.3343 0.387306 12.616 
17 1 7.03665 2.86098 24.2562 
19 1 6.99933 1.58961 22.135 
20 1 7.03633 0.360901 24.3199 
22 1 6.96308 1.57842 19.4746 
25 1 5.71573 1.57625 18.7558 
27 1 6.97484 1.58487 20.9153 
28 1 1.10005 1.57645 18.754 
30 1 7.02834 1.59566 23.5777 
10 1 6.8781 5.62326 5.07632 
13 1 7.04356 3.92949 0.203467 
15 1 6.9958 5.047 2.42518 
16 1 7.04237 6.4095 0.279215 
26 1 7.04905 5.14421 0.949147 
29 1 5.65597 5.08745 5.83184 
31 1 6.94578 5.15078 3.62229 
32 1 1.08897 5.33691 5.83883 
33 2 6.73205 6.74371 5.03497 
1 1 4.63237 4.98793 6.45621 
3 1 3.35585 5.14451 8.62576 
4 1 2.12297 5.20202 6.45391 
6 1 3.33865 5.1925 11.2822 
9 1 3.3358 3.94029 12.0017 
11 1 3.34986 5.19434 9.84883 
12 1 3.33638 6.43636 12.0118 
14 1 3.36282 5.0667 7.20963 
ITEM: TIMESTEP
207
ITEM: NUMBER OF ATOMS
33
ITEM: BOX BOUNDS pp pp pp
-6.1861455817589844e-03 7.1031861455817591e+00
-6.0809831828022238e-03 7.1030809831828021e+00
-2.9554002739803104e-02 2.4617554002739798e+01
ITEM: ATOMS id type x y z 
2 1 3.33296 1.63604 13.3332 
5 1 4.65666 1.57451 18.1494 
7 1 3.39419 1.59783 15.992 
8 1 2.16142 1.57396 18.1517 
18 1 3.4084 1.57252 17.4316 
21 1 3.33539 2.88619 12.6158 
23 1 3.36632 1.61929 14.7721 
24 1 3.33431 0.387306 12.616 
17 1 7.03665 2.86098 24.2562 
19 1 6.99933 1.58961 22.135 
20 1 7.03633 0.360895 24.3199 
22 1 6.96308 1.57843 19.4746 
25 1 5.71573 1.57626 18.7558 
27 1 6.97484 1.58487 20.9153 
28 1 1.10005 1.57644 18.754 
30 1 7.02834 1.59566 23.5777 
10 1 6.8781 5.62327 5.07632 
13 1 7.04356 3.92948 0.203465 
15 1 6.99579 5.04701 2.42526 
16 1 7.04237 6.4095 0.279214 
26 1 7.04905 5.14421 0.949158 
29 1 5.65592 5.08746 5.83187 
31 1 6.94578 5.15078 3.62221 
32 1 1.08897 5.33691 5.83882 
33 2 6.73205 6.74372 5.03497 
1 1 4.63242 4.98793 6.45618 
3 1 3.35585 5.14446 8.62575 
4 1 2.12297 5.20204 6.45391 