ITEM: TIMESTEP
0
ITEM: NUMBER OF ATOMS
49
ITEM: BOX BOUNDS pp pp pp
0.0000000000000000e+00 1.1000000000000000e+01
0.0000000000000000e+00 1.1002000000000001e+01
0.0000000000000000e+00 1.1000000000000000e+01
ITEM: ATOMS id type x y z 
10 1 4.603 4.603 4.603 
11 1 3.085 3.085 3.085 
12 1 3.796 3.796 3.796 
46 1 0.726 0.725 0.725 
47 1 2.26 2.259 2.26 
48 1 1.551 1.55 1.55 
49 2 0.539 0.602 2.065 
19 1 4.546 4.545 6.226 
20 1 3.013 3.013 7.764 
21 1 3.721 3.721 7.053 
31 1 0.668 0.667 10.103 
32 1 2.187 2.187 8.589 
33 1 1.476 1.475 9.298 
16 1 4.546 6.225 4.546 
17 1 3.013 7.765 3.013 
18 1 3.721 7.053 3.722 
25 1 0.668 10.103 0.668 
26 1 2.188 8.589 2.188 
27 1 1.476 9.298 1.476 
4 1 4.608 6.169 6.169 
5 1 3.086 7.684 7.684 
6 1 3.799 6.974 6.974 
37 1 0.729 10.046 10.046 
38 1 2.259 8.509 8.508 
39 1 1.552 9.219 9.219 
13 1 6.225 4.546 4.546 
14 1 7.764 3.013 3.013 
15 1 7.053 3.721 3.722 
28 1 10.102 0.667 0.668 
29 1 8.589 2.187 2.188 
30 1 9.298 1.475 1.476 
1 1 6.168 4.608 6.169 
2 1 7.684 3.086 7.684 
3 1 6.974 3.799 6.974 
40 1 10.045 0.728 10.046 
41 1 8.508 2.259 8.508 
42 1 9.218 1.551 9.218 
7 1 6.169 6.169 4.608 
8 1 7.684 7.684 3.086 
9 1 6.974 6.974 3.799 
43 1 10.046 10.047 0.729 
44 1 8.508 8.509 2.259 
45 1 9.219 9.219 1.552 
22 1 6.229 6.229 6.229 
23 1 7.764 7.765 7.765 
24 1 7.055 7.056 7.055 
34 1 10.108 10.108 10.107 
35 1 8.59 8.59 8.59 
36 1 9.301 9.301 9.3 
ITEM: TIMESTEP
10
ITEM: NUMBER OF ATOMS
49
ITEM: BOX BOUNDS pp pp pp
0.0000000000000000e+00 1.1000000000000000e+01
0.0000000000000000e+00 1.1002000000000001e+01
0.0000000000000000e+00 1.1000000000000000e+01
ITEM: ATOMS id type x y z 
10 1 4.5953 4.59417 4.59359 
11 1 3.07677 3.0772 3.0767 
12 1 3.7905 3.7923 3.7906 
46 1 0.691113 0.694125 0.677798 
47 1 2.30639 2.30421 2.29051 
48 1 1.59895 1.59343 1.56466 
49 2 0.562977 0.607737 2.21524 
19 1 4.53811 4.53766 6.23456 
20 1 3.00533 3.00537 7.77108 
21 1 3.71108 3.71084 7.06398 
31 1 0.693726 0.689491 10.0978 
32 1 2.19174 2.1922 8.58024 
33 1 1.48767 1.48593 9.29466 
16 1 4.53839 6.23384 4.53845 
17 1 3.00414 7.77336 3.00445 
18 1 3.70912 7.06601 3.70957 
25 1 0.677144 10.0727 0.65191 
26 1 2.18186 8.59535 2.18328 
27 1 1.47526 9.28875 1.46371 
4 1 4.60154 6.17348 6.1724 
5 1 3.08364 7.68568 7.68602 
6 1 3.79388 6.98016 6.9795 
37 1 0.747643 10.0249 10.0509 
38 1 2.27149 8.49642 8.49412 
39 1 1.56924 9.20214 9.2044 
13 1 6.23388 4.53856 4.53846 
14 1 7.7735 3.00338 3.00378 
15 1 7.06608 3.70882 3.70906 
28 1 10.0611 0.673399 0.641924 
29 1 8.59679 2.17938 2.18152 
30 1 9.28503 1.47243 1.4583 
1 1 6.17321 4.60202 6.17208 
2 1 7.68577 3.08462 7.68559 
3 1 6.97819 3.79378 6.9786 
40 1 10.0213 0.748633 10.0478 
41 1 8.49321 2.27363 8.49096 
42 1 9.19825 1.57129 9.20176 
7 1 6.17237 6.17199 4.60138 
8 1 7.68592 7.6859 3.08358 
9 1 6.97947 6.97959 3.79425 
43 1 10.0421 10.0459 0.746072 
44 1 8.49466 8.49461 2.27128 
45 1 9.20158 9.20338 1.57139 
22 1 6.23676 6.23716 6.23638 
23 1 7.77168 7.77288 7.77226 
24 1 7.06633 7.06683 7.0668 
34 1 10.0899 10.0872 10.0963 
35 1 8.58603 8.58692 8.58493 
36 1 9.29498 9.29334 9.29643 
ITEM: TIMESTEP
20
ITEM: NUMBER OF ATOMS
49
ITEM: BOX BOUNDS pp pp pp
0.0000000000000000e+00 1.1000000000000000e+01
0.0000000000000000e+00 1.1002000000000001e+01
0.0000000000000000e+00 1.1000000000000000e+01
ITEM: ATOMS id type x y z 
10 1 4.59176 4.59361 4.58762 
11 1 3.08371 3.0878 3.08602 
12 1 3.80351 3.79874 3.79972 
46 1 0.66936 0.675576 0.716671 
47 1 2.31926 2.3178 2.28918 
48 1 1.59497 1.5871 1.58083 
49 2 0.596234 0.634674 2.21025 
19 1 4.53504 4.5351 6.2404 
20 1 2.99973 2.99958 7.77688 
21 1 3.71096 3.71109 7.0633 
31 1 0.695807 0.694695 10.0909 
32 1 2.19888 2.19945 8.57568 
33 1 1.49245 1.49043 9.28625 
16 1 4.53586 6.23947 4.53616 
17 1 2.99721 7.78025 2.99837 
18 1 3.70688 7.0687 3.70627 
25 1 0.677331 10.053 0.643495 
26 1 2.18839 8.59015 2.18678 
27 1 1.47487 9.27947 1.46242 
4 1 4.59957 6.17852 6.17309 
5 1 3.08695 7.68607 7.68611 
6 1 3.79155 6.97534 6.9749 
37 1 0.743132 10.0206 10.0479 
38 1 2.27431 8.49445 8.48934 
39 1 1.57144 9.1987 9.20625 
13 1 6.23999 4.53589 4.53532 
14 1 7.78033 2.99693 2.9981 
15 1 7.0692 3.70557 3.70514 
28 1 10.0428 0.6731 0.631552 
29 1 8.59061 2.18648 2.18654 
30 1 9.27076 1.47483 1.45518 
1 1 6.17672 4.59819 6.1726 
2 1 7.68249 3.0875 7.68418 
3 1 6.97701 3.79534 6.97372 
40 1 10.0177 0.743421 10.0434 
41 1 8.4932 2.27458 8.48818 
42 1 9.19721 1.57105 9.20578 
7 1 6.17335 6.17306 4.59898 
8 1 7.6847 7.68507 3.0882 
9 1 6.97546 6.97474 3.7916 
43 1 10.0355 10.0381 0.741437 
44 1 8.49125 8.49134 2.27277 
45 1 9.20409 9.20575 1.57297 
22 1 6.23991 6.23986 6.24014 
23 1 7.77842 7.77846 7.77969 
24 1 7.06638 7.069 7.06529 
34 1 10.0906 10.0883 10.0978 
35 1 8.58606 8.58383 8.58173 
36 1 9.28806 9.29223 9.29595 
ITEM: TIMESTEP
30
ITEM: NUMBER OF ATOMS
49
ITEM: BOX BOUNDS pp pp pp
0.0000000000000000e+00 1.1000000000000000e+01
0.0000000000000000e+00 1.1002000000000001e+01
0.0000000000000000e+00 1.1000000000000000e+01
ITEM: ATOMS id type x y z 
10 1 4.6045 4.60183 4.59594 
11 1 3.09385 3.09446 3.0927 
12 1 3.80416 3.8106 3.80623 
46 1 0.637477 0.652768 0.723529 
47 1 2.34699 2.34487 2.28052 
48 1 1.62804 1.6114 1.61131 
49 2 0.609671 0.639949 2.25091 
19 1 4.53592 4.53663 6.24402 
20 1 3.00569 3.00553 7.76897 
21 1 3.7154 3.71573 7.06217 
31 1 0.697395 0.692224 10.0802 
32 1 2.20392 2.20422 8.57283 
33 1 1.49521 1.49339 9.28208 
16 1 4.53391 6.24606 4.53313 
17 1 3.00056 7.77556 3.00025 
18 1 3.70835 7.07199 3.71063 
25 1 0.672512 10.0229 0.63456 
26 1 2.18764 8.59136 2.18734 
27 1 1.47595 9.2626 1.45057 
4 1 4.60055 6.17336 6.16709 
5 1 3.08365 7.6798 7.68092 
6 1 3.80377 6.98124 6.97682 
37 1 0.743658 10.0204 10.0426 
38 1 2.27637 8.49701 8.49029 
39 1 1.56799 9.1933 9.20537 
13 1 6.24633 4.53351 4.53179 
14 1 7.77613 2.99923 2.99954 
15 1 7.07188 3.70878 3.71028 
28 1 10.01 0.672001 0.62588 
29 1 8.58824 2.18847 2.18204 
30 1 9.25677 1.47037 1.4488 
1 1 6.17411 4.60471 6.1685 
2 1 7.68035 3.08879 7.6823 
3 1 6.97655 3.79775 6.97112 
40 1 10.018 0.742303 10.0364 
41 1 8.49176 2.27999 8.4877 
42 1 9.19169 1.56861 9.19941 
7 1 6.16823 6.16761 4.59881 
8 1 7.68019 7.67949 3.08412 
9 1 6.9775 6.97869 3.80442 
43 1 10.0273 10.029 0.739183 
44 1 8.48953 8.48996 2.2796 
45 1 9.19683 9.19798 1.57228 
22 1 6.2387 6.24154 6.23744 
23 1 7.77142 7.77413 7.77024 
24 1 7.06415 7.06174 7.06653 
34 1 10.0825 10.0863 10.0982 
35 1 8.57923 8.58674 8.58463 
36 1 9.30043 9.28597 9.29079 
ITEM: TIMESTEP
40
ITEM: NUMBER OF ATOMS
49
ITEM: BOX BOUNDS pp pp pp
0.0000000000000000e+00 1.1000000000000000e+01
0.0000000000000000e+00 1.1002000000000001e+01
0.0000000000000000e+00 1.1000000000000000e+01
ITEM: ATOMS id type x y z 
10 1 4.61965 4.62301 4.61255 
11 1 3.12035 3.13865 3.12697 
12 1 3.85242 3.84272 3.82337 
46 1 0.653773 0.665247 0.756531 
47 1 2.45023 2.44132 2.17111 
48 1 1.59314 1.55945 1.77735 
49 2 0.62671 0.648319 2.28994 
19 1 4.54251 4.54403 6.26045 
20 1 3.00551 3.00541 7.76598 
21 1 3.72399 3.72411 7.0618 
31 1 0.688713 0.692773 10.0682 
32 1 2.22127 2.21535 8.56039 
33 1 1.49604 1.50562 9.28072 
16 1 4.53281 6.27041 4.53367 
17 1 2.9908 7.78435 2.9936 
18 1 3.71062 7.08502 3.70541 
25 1 0.633936 9.96091 0.60652 
26 1 2.19329 8.58837 2.16994 
27 1 1.45039 9.22621 1.44456 
4 1 4.60077 6.18722 6.17335 
5 1 3.08626 7.67392 7.67965 
6 1 3.80799 6.98786 6.96852 
37 1 0.734467 9.99861 10.0194 
38 1 2.28372 8.4931 8.48406 
39 1 1.567 9.18278 9.20181 
13 1 6.26911 4.53389 4.53495 
14 1 7.78042 2.99403 2.99819 
15 1 7.08189 3.71492 3.70626 
28 1 9.94972 0.640002 0.595484 
29 1 8.58254 2.19613 2.16316 
30 1 9.21525 1.44036 1.4388 
1 1 6.19004 4.60479 6.16183 
2 1 7.68121 3.0864 7.67631 
3 1 6.97452 3.80733 6.97718 
40 1 9.9946 0.726823 10.015 
41 1 8.48881 2.28535 8.48544 
42 1 9.18666 1.56412 9.1933 
7 1 6.17709 6.17007 4.60176 
8 1 7.67789 7.67447 3.09576 
9 1 6.96242 6.96912 3.80362 
43 1 9.99657 9.99918 0.722864 
44 1 8.47947 8.4817 2.28837 
45 1 9.19037 9.18764 1.57917 
22 1 6.24444 6.24742 6.24105 
23 1 7.77029 7.77338 7.76903 
24 1 7.06326 7.06052 7.06446 
34 1 10.0806 10.0775 10.0889 
35 1 8.58974 8.58188 8.57125 
36 1 9.27776 9.29118 9.31292 
ITEM: TIMESTEP
50
ITEM: NUMBER OF ATOMS
49
ITEM: BOX BOUNDS pp pp pp
0.0000000000000000e+00 1.1000000000000000e+01
0.0000000000000000e+00 1.1002000000000001e+01
0.0000000000000000e+00 1.1000000000000000e+01
ITEM: ATOMS id type x y z 
10 1 4.63314 4.63162 4.61761 
11 1 3.12962 3.13624 3.10234 
12 1 3.83245 3.84368 3.82719 
46 1 0.659477 0.670008 0.734949 
47 1 2.44423 2.43234 2.15669 
48 1 1.60346 1.57475 1.8175 
49 2 0.636114 0.653849 2.3154 
19 1 4.54826 4.55006 6.2576 
20 1 3.00844 3.00745 7.76324 
21 1 3.7204 3.72097 7.06715 
31 1 0.681852 0.685375 10.0803 
32 1 2.20465 2.20424 8.57781 
33 1 1.49194 1.49272 9.28267 
16 1 4.53722 6.27121 4.53632 
17 1 2.9965 7.78423 2.99487 
18 1 3.70618 7.08536 3.70651 
25 1 0.626264 9.96771 0.601599 
26 1 2.18783 8.58111 2.17233 
27 1 1.45583 9.22715 1.43177 
4 1 4.60409 6.18838 6.16661 
5 1 3.08856 7.6812 7.68073 
6 1 3.80063 6.98056 6.97011 
37 1 0.731947 10.0175 10.0137 
38 1 2.28334 8.48942 8.4865 
39 1 1.56809 9.18551 9.19446 
13 1 6.26988 4.538 4.53555 
14 1 7.78398 2.99617 2.99459 
15 1 7.08537 3.70756 3.70572 
28 1 9.95813 0.626781 0.595438 
29 1 8.57317 2.19008 2.16718 
30 1 9.21372 1.45151 1.42709 
1 1 6.18631 4.60541 6.16721 
2 1 7.67926 3.09069 7.67968 
3 1 6.97794 3.80277 6.96922 
40 1 10.0135 0.726158 10.0045 
41 1 8.48615 2.28526 8.48574 
42 1 9.18619 1.56668 9.18673 
7 1 6.16918 6.17087 4.6001 
8 1 7.67479 7.67506 3.09647 
9 1 6.96584 6.96695 3.80433 
43 1 9.99196 9.99434 0.725294 
44 1 8.47786 8.4782 2.29578 
45 1 9.18057 9.17956 1.57891 
22 1 6.24366 6.24537 6.24248 
23 1 7.77589 7.77595 7.77437 
24 1 7.06781 7.06894 7.06628 
34 1 10.0854 10.083 10.092 
35 1 8.58114 8.57954 8.57595 
36 1 9.28274 9.28553 9.29452 
ITEM: TIMESTEP
60
ITEM: NUMBER OF ATOMS
49
ITEM: BOX BOUNDS pp pp pp
0.0000000000000000e+00 1.1000000000000000e+01
0.0000000000000000e+00 1.1002000000000001e+01
0.0000000000000000e+00 1.1000000000000000e+01
ITEM: ATOMS id type x y z 
10 1 4.62959 4.63087 4.62564 
11 1 3.13783 3.14515 3.09197 
12 1 3.84158 3.84826 3.81919 
46 1 0.656055 0.665479 0.742344 
47 1 2.45849 2.44386 2.14254 
48 1 1.60666 1.58365 1.85341 
49 2 0.634395 0.649526 2.3235 
19 1 4.54817 4.55014 6.25869 
20 1 3.00414 3.00324 7.76852 
21 1 3.71602 3.71645 7.07264 
31 1 0.677217 0.679636 10.0915 
32 1 2.19565 2.19529 8.58658 
33 1 1.48436 1.48531 9.29175 
16 1 4.53595 6.27101 4.53697 
17 1 2.99659 7.78654 2.99388 
18 1 3.70657 7.08732 3.70557 
25 1 0.624178 9.97811 0.60069 
26 1 2.18161 8.57481 2.16329 
27 1 1.4515 9.23167 1.4293 
4 1 4.60408 6.18619 6.16638 
5 1 3.09107 7.68059 7.67907 
6 1 3.80222 6.97829 6.96883 
37 1 0.733506 10.026 10.0016 
38 1 2.28293 8.4837 8.48853 
39 1 1.56939 9.1932 9.186 
13 1 6.2698 4.5373 4.53652 
14 1 7.78519 2.99798 2.99443 
15 1 7.08604 3.70802 3.70591 
28 1 9.96728 0.622623 0.594298 
29 1 8.56597 2.1807 2.15802 
30 1 9.22094 1.45105 1.42215 
1 1 6.18369 4.60618 6.16583 
2 1 7.67837 3.09319 7.67849 
3 1 6.9763 3.80394 6.96767 
40 1 10.0232 0.728464 9.99375 
41 1 8.48211 2.28479 8.48626 
42 1 9.19109 1.568 9.18084 
7 1 6.16662 6.16761 4.60233 
8 1 7.67227 7.67287 3.09984 
9 1 6.96352 6.96451 3.80686 
43 1 9.98808 9.99068 0.722674 
44 1 8.47916 8.47837 2.29942 
45 1 9.176 9.17644 1.57279 
22 1 6.24582 6.24749 6.24484 
23 1 7.7759 7.77607 7.77423 
24 1 7.06804 7.06896 7.06593 
34 1 10.0853 10.0837 10.0897 
35 1 8.58017 8.58017 8.58201 
36 1 9.29038 9.28958 9.28772 
ITEM: TIMESTEP
70
ITEM: NUMBER OF ATOMS
49
ITEM: BOX BOUNDS pp pp pp
0.0000000000000000e+00 1.1000000000000000e+01
0.0000000000000000e+00 1.1002000000000001e+01
0.0000000000000000e+00 1.1000000000000000e+01
ITEM: ATOMS id type x y z 
10 1 4.62909 4.63137 4.62815 
11 1 3.14099 3.1483 3.08876 
12 1 3.84499 3.84993 3.81696 
46 1 0.655714 0.664359 0.747154 
47 1 2.46098 2.44611 2.13849 
48 1 1.60641 1.58483 1.86127 
49 2 0.635066 0.649813 2.32649 
19 1 4.54705 4.54905 6.26057 
20 1 3.00314 3.00219 7.76996 
21 1 3.71484 3.71539 7.07405 
31 1 0.67684 0.679082 10.0948 
32 1 2.19431 2.194 8.58781 
33 1 1.4835 1.48439 9.29367 
16 1 4.53558 6.27112 4.53718 
17 1 2.99662 7.78706 2.99324 
18 1 3.70608 7.08812 3.70529 
25 1 0.623019 9.98013 0.60002 
26 1 2.18014 8.57276 2.16055 
27 1 1.4503 9.23239 1.42914 
4 1 4.60447 6.18473 6.16578 
5 1 3.09168 7.68031 7.67895 
6 1 3.80239 6.97791 6.96842 
37 1 0.734153 10.0274 10.0002 
38 1 2.28335 8.48269 8.48816 
39 1 1.56987 9.19373 9.18431 
13 1 6.26967 4.53709 4.53687 
14 1 7.78583 2.99779 2.99356 
15 1 7.0867 3.70757 3.70547 
28 1 9.96926 0.62191 0.59344 
29 1 8.5635 2.17956 2.15503 
30 1 9.22199 1.44953 1.42276 
1 1 6.18246 4.60645 6.16507 
2 1 7.67821 3.09386 7.67808 
3 1 6.9755 3.80432 6.96762 
40 1 10.0244 0.729196 9.99248 
41 1 8.48122 2.285 8.48567 
42 1 9.19153 1.56857 9.17957 
7 1 6.16509 6.16655 4.60261 
8 1 7.67172 7.67285 3.10007 
9 1 6.9642 6.96409 3.80775 
43 1 9.98796 9.99049 0.720194 
44 1 8.47934 8.47848 2.29971 
45 1 9.1751 9.17572 1.57179 
22 1 6.2456 6.2474 6.24445 
23 1 7.77634 7.77656 7.77415 
24 1 7.06801 7.06891 7.0669 
34 1 10.0865 10.0846 10.0879 
35 1 8.58086 8.58077 8.5808 
36 1 9.28943 9.28859 9.28969 
ITEM: TIMESTEP
80
ITEM: NUMBER OF ATOMS
49
ITEM: BOX BOUNDS pp pp pp
0.0000000000000000e+00 1.1000000000000000e+01
0.0000000000000000e+00 1.1002000000000001e+01
0.0000000000000000e+00 1.1000000000000000e+01
ITEM: ATOMS id type x y z 
10 1 4.6311 4.63549 4.64606 
11 1 3.17727 3.17668 3.04798 
12 1 3.86151 3.86402 3.80643 
46 1 0.652257 0.657857 0.786158 
47 1 2.48142 2.46567 2.10827 
48 1 1.60981 1.60006 1.92492 
49 2 0.639207 0.649566 2.3589 
19 1 4.53908 4.5412 6.2737 
20 1 2.99442 2.99283 7.78235 
21 1 3.70439 3.7067 7.08669 
31 1 0.67236 0.673906 10.1229 
32 1 2.18202 2.1818 8.59917 
33 1 1.47625 1.47689 9.3132 
16 1 4.53176 6.27096 4.53785 
17 1 2.99662 7.79025 2.98621 
18 1 3.70223 7.09525 3.70519 
25 1 0.616391 9.99777 0.59682 
26 1 2.16678 8.55756 2.14132 
27 1 1.44142 9.23054 1.41853 
4 1 4.60532 6.17317 6.16252 
5 1 3.0981 7.67717 7.67592 
6 1 3.80524 6.9715 6.96577 
37 1 0.741588 10.042 9.98884 
38 1 2.28508 8.48044 8.48539 
39 1 1.57016 9.19552 9.17513 
13 1 6.26787 4.5337 4.53721 
14 1 7.78727 2.9981 2.98539 
15 1 7.0935 3.70341 3.70564 
28 1 9.99137 0.617859 0.592647 
29 1 8.55063 2.16718 2.13805 
30 1 9.214 1.43988 1.40851 
1 1 6.17092 4.607 6.16132 
2 1 7.67501 3.10043 7.67525 
3 1 6.96971 3.80735 6.96473 
40 1 10.0382 0.73658 9.98425 
41 1 8.47949 2.28442 8.48201 
42 1 9.19383 1.56996 9.17317 
7 1 6.15777 6.15852 4.60571 
8 1 7.67085 7.67135 3.10665 
9 1 6.96082 6.96141 3.80956 
43 1 9.98011 9.98363 0.697966 
44 1 8.47893 8.47819 2.29765 
45 1 9.17342 9.17399 1.56808 
22 1 6.24333 6.24592 6.24523 
23 1 7.77636 7.7767 7.77378 
24 1 7.06789 7.06907 7.06704 
34 1 10.0928 10.0911 10.0769 
35 1 8.58183 8.58142 8.58236 
36 1 9.2932 9.29109 9.28574 
ITEM: TIMESTEP
90
ITEM: NUMBER OF ATOMS
49
ITEM: BOX BOUNDS pp pp pp
0.0000000000000000e+00 1.1000000000000000e+01
0.0000000000000000e+00 1.1002000000000001e+01
0.0000000000000000e+00 1.1000000000000000e+01
ITEM: ATOMS id type x y z 
10 1 4.63008 4.63477 4.64783 
11 1 3.18155 3.18013 3.04122 
12 1 3.86584 3.86732 3.80024 
46 1 0.651221 0.657166 0.791192 
47 1 2.48118 2.46634 2.10891 
48 1 1.60976 1.60031 1.92499 
49 2 0.640673 0.651205 2.36145 
19 1 4.53836 4.54096 6.27372 
20 1 2.99276 2.99232 7.78342 
21 1 3.70493 3.70538 7.08825 
31 1 0.674458 0.67566 10.1274 
32 1 2.18152 2.18148 8.60096 
33 1 1.47601 1.47622 9.31516 
16 1 4.53166 6.27246 4.53963 
17 1 2.9962 7.7908 2.98757 
18 1 3.70297 7.09212 3.70211 
25 1 0.616522 9.99725 0.597204 
26 1 2.16638 8.55483 2.14018 
27 1 1.44154 9.2288 1.41788 
4 1 4.60414 6.17276 6.16255 
5 1 3.09798 7.6772 7.67659 
6 1 3.8046 6.9716 6.96607 
37 1 0.740827 10.0412 9.99095 
38 1 2.28288 8.48029 8.48394 
39 1 1.57366 9.19836 9.17696 
13 1 6.26928 4.53328 4.53937 
14 1 7.78756 2.99783 2.98722 
15 1 7.09024 3.70474 3.70236 
28 1 9.98939 0.616655 0.592006 
29 1 8.54543 2.16585 2.13612 
30 1 9.21633 1.44198 1.41012 
1 1 6.17068 4.606 6.16116 
2 1 7.6757 3.10014 7.67574 
3 1 6.96923 3.8064 6.9657 
40 1 10.0379 0.737012 9.98639 
41 1 8.47928 2.28327 8.48105 
42 1 9.19579 1.57223 9.1734 
7 1 6.1576 6.15845 4.60375 
8 1 7.67135 7.6716 3.10667 
9 1 6.96113 6.9619 3.80966 
43 1 9.9808 9.98372 0.698994 
44 1 8.48034 8.47954 2.2993 
45 1 9.17098 9.17188 1.56251 
22 1 6.24299 6.24511 6.24434 
23 1 7.7755 7.77586 7.77306 
24 1 7.06707 7.06823 7.06642 
34 1 10.0945 10.0925 10.0742 
35 1 8.58128 8.58043 8.58157 
36 1 9.29298 9.29146 9.28345 
ITEM: TIMESTEP
100
ITEM: NUMBER OF ATOMS
49
ITEM: BOX BOUNDS pp pp pp
0.0000000000000000e+00 1.1000000000000000e+01
0.0000000000000000e+00 1.1002000000000001e+01
0.0000000000000000e+00 1.1000000000000000e+01
ITEM: ATOMS id type x y z 
10 1 4.62997 4.63465 4.64899 
11 1 3.19181 3.18851 3.02773 
12 1 3.87102 3.87173 3.79471 
46 1 0.649731 0.655558 0.797027 
47 1 2.48126 2.46775 2.10859 
48 1 1.60995 1.60123 1.92546 
49 2 0.641815 0.652454 2.36756 
19 1 4.53711 4.53948 6.27442 
20 1 2.99208 2.99157 7.7852 
21 1 3.70359 3.70443 7.08938 
31 1 0.676152 0.676907 10.1346 
32 1 2.1804 2.18009 8.60289 
33 1 1.47656 1.4772 9.32101 
16 1 4.5317 6.27198 4.53953 
17 1 2.99637 7.78896 2.98705 
18 1 3.70322 7.09102 3.70173 
25 1 0.615965 9.99576 0.59912 
26 1 2.16596 8.55003 2.13815 
27 1 1.44096 9.22612 1.4178 
4 1 4.60269 6.17144 6.16336 
5 1 3.09747 7.67762 7.67721 
6 1 3.80361 6.97109 6.96709 
37 1 0.742756 10.0428 9.9936 
38 1 2.28184 8.48239 8.48352 
39 1 1.57408 9.19989 9.17786 
13 1 6.26897 4.5335 4.53939 
14 1 7.78601 2.99787 2.98679 
15 1 7.0878 3.70483 3.70156 
28 1 9.98668 0.616823 0.594008 
29 1 8.53961 2.16583 2.13229 
30 1 9.21641 1.44073 1.41297 
1 1 6.16925 4.60428 6.16276 
2 1 7.67582 3.09963 7.67648 
3 1 6.96917 3.80556 6.96617 
40 1 10.0394 0.739171 9.98875 
41 1 8.48077 2.28247 8.48059 
42 1 9.19784 1.57259 9.17374 
7 1 6.1577 6.15882 4.60218 
8 1 7.67303 7.67297 3.10719 
9 1 6.96157 6.96247 3.80811 
43 1 9.97944 9.9821 0.69487 
44 1 8.48072 8.48013 2.29772 
45 1 9.17094 9.17179 1.55983 
22 1 6.24204 6.24401 6.24279 
23 1 7.77425 7.7746 7.77206 
24 1 7.06579 7.06691 7.06545 
34 1 10.0957 10.0939 10.0705 
35 1 8.58092 8.58 8.58006 
36 1 9.29304 9.29137 9.28113 
ITEM: TIMESTEP
110
ITEM: NUMBER OF ATOMS
49
ITEM: BOX BOUNDS pp pp pp
0.0000000000000000e+00 1.1000000000000000e+01
0.0000000000000000e+00 1.1002000000000001e+01
0.0000000000000000e+00 1.1000000000000000e+01
ITEM: ATOMS id type x y z 
10 1 4.62984 4.63445 4.64933 
11 1 3.19228 3.18899 3.02693 
12 1 3.87172 3.87217 3.79375 
46 1 0.649629 0.655555 0.797522 
47 1 2.48124 2.46779 2.10847 
48 1 1.60993 1.60128 1.92565 
49 2 0.641985 0.652601 2.36796 
19 1 4.53707 4.53944 6.27453 
20 1 2.992 2.99149 7.78529 
21 1 3.7035 3.70433 7.08958 
31 1 0.67612 0.677342 10.1354 
32 1 2.18052 2.1803 8.60349 
33 1 1.47633 1.47679 9.32055 
16 1 4.53171 6.27216 4.53961 
17 1 2.99632 7.78901 2.9869 
18 1 3.70311 7.09077 3.70165 
25 1 0.616031 9.99552 0.599244 
26 1 2.16596 8.54964 2.13788 
27 1 1.44084 9.22606 1.41803 
4 1 4.60275 6.17135 6.16357 
5 1 3.09745 7.67767 7.67726 
6 1 3.80352 6.97101 6.96715 
37 1 0.742831 10.0429 9.99367 
38 1 2.28191 8.48239 8.48336 
39 1 1.57413 9.20004 9.17791 
13 1 6.26906 4.53353 4.5395 
14 1 7.78584 2.9979 2.98673 
15 1 7.08767 3.70476 3.70148 
28 1 9.98666 0.616664 0.594087 
29 1 8.53932 2.16567 2.13251 
30 1 9.2161 1.44106 1.41241 
1 1 6.16917 4.60432 6.16276 
2 1 7.6759 3.09957 7.67646 
3 1 6.96908 3.80548 6.96637 
40 1 10.0397 0.739153 9.98895 
41 1 8.48113 2.28225 8.48052 
42 1 9.19788 1.5726 9.17414 
7 1 6.1577 6.15882 4.60201 
8 1 7.67294 7.67303 3.10699 
9 1 6.96199 6.96257 3.80845 
43 1 9.97931 9.98203 0.694613 
44 1 8.48076 8.48015 2.2977 
45 1 9.17073 9.17165 1.55962 
22 1 6.24183 6.24379 6.24277 
23 1 7.77407 7.77443 7.77207 
24 1 7.06579 7.06689 7.06515 
34 1 10.0957 10.0941 10.0703 
35 1 8.58091 8.5798 8.58009 
36 1 9.29303 9.29168 9.28065 
ITEM: TIMESTEP
120
ITEM: NUMBER OF ATOMS
49
ITEM: BOX BOUNDS pp pp pp
0.0000000000000000e+00 1.1000000000000000e+01
0.0000000000000000e+00 1.1002000000000001e+01
0.0000000000000000e+00 1.1000000000000000e+01
ITEM: ATOMS id type x y z 
10 1 4.62989 4.63445 4.64938 
11 1 3.19284 3.18943 3.02608 
12 1 3.87197 3.87243 3.79336 
46 1 0.649555 0.655513 0.797915 
47 1 2.48128 2.46788 2.10839 
48 1 1.6099 1.6013 1.92579 
49 2 0.6421 0.652699 2.36831 
19 1 4.53699 4.53937 6.2746 
20 1 2.99188 2.9914 7.78537 
21 1 3.70347 3.70426 7.08976 
31 1 0.676193 0.677426 10.1357 
32 1 2.1805 2.1803 8.60367 
33 1 1.47634 1.47677 9.32077 
16 1 4.53172 6.2722 4.53967 
17 1 2.99632 7.7889 2.98683 
18 1 3.70313 7.09068 3.70166 
25 1 0.616014 9.99544 0.599328 
26 1 2.16597 8.54942 2.1378 
27 1 1.44073 9.22582 1.41798 
4 1 4.60265 6.1713 6.16359 
5 1 3.09739 7.67769 7.67725 
6 1 3.80353 6.97099 6.96727 
37 1 0.742887 10.043 9.9938 
38 1 2.28186 8.4825 8.48334 
39 1 1.57417 9.20014 9.17794 
13 1 6.26909 4.53355 4.53955 
14 1 7.7857 2.9979 2.98664 
15 1 7.08758 3.70474 3.70148 
28 1 9.98648 0.616642 0.59407 
29 1 8.53897 2.16569 2.13228 
30 1 9.2161 1.44098 1.41269 
1 1 6.16906 4.60416 6.16275 
2 1 7.67587 3.09942 7.67645 
3 1 6.96918 3.80561 6.96654 
40 1 10.0398 0.739208 9.9891 
41 1 8.48124 2.28217 8.48052 
42 1 9.19799 1.57269 9.17414 
7 1 6.15773 6.15881 4.6019 
8 1 7.67301 7.67306 3.10698 
9 1 6.96202 6.96267 3.80848 
43 1 9.97923 9.98196 0.694366 
44 1 8.48078 8.48013 2.29767 
45 1 9.17067 9.17166 1.55942 
22 1 6.24172 6.24369 6.24272 
23 1 7.77399 7.77436 7.77204 
24 1 7.06579 7.06685 7.0651 
34 1 10.0958 10.0942 10.0701 
35 1 8.5809 8.57974 8.58005 
36 1 9.29302 9.29177 9.28042 
ITEM: TIMESTEP
130
ITEM: NUMBER OF ATOMS
49
ITEM: BOX BOUNDS pp pp pp
0.0000000000000000e+00 1.1000000000000000e+01
0.0000000000000000e+00 1.1002000000000001e+01
0.0000000000000000e+00 1.1000000000000000e+01
ITEM: ATOMS id type x y z 
10 1 4.6306 4.63263 4.65878 
11 1 3.26721 3.25289 2.91365 
12 1 3.90677 3.90321 3.74034 
46 1 0.63639 0.643437 0.845882 
47 1 2.48648 2.47847 2.09662 
48 1 1.61124 1.60992 1.94439 
49 2 0.653216 0.657266 2.41242 
19 1 4.52894 4.53146 6.28306 
20 1 2.98493 2.9846 7.79856 
21 1 3.6941 3.69587 7.09923 
31 1 0.685069 0.687721 10.1838 
32 1 2.17705 2.17712 8.62635 
33 1 1.48008 1.47979 9.35645 
16 1 4.53322 6.27232 4.54805 
17 1 2.99661 7.7722 2.97889 
18 1 3.70417 7.0825 3.70143 
25 1 0.607836 9.98641 0.610618 
26 1 2.16069 8.51777 2.12568 
27 1 1.43382 9.20399 1.41561 
4 1 4.59244 6.16136 6.17159 
5 1 3.09189 7.68173 7.68044 
6 1 3.79671 6.9669 6.97741 
37 1 0.752494 10.0561 10.0075 
38 1 2.27807 8.49694 8.47977 
39 1 1.57728 9.21379 9.18188 
13 1 6.26936 4.53494 4.54647 
14 1 7.76362 2.99717 2.97546 
15 1 7.07709 3.70551 3.70077 
28 1 9.98145 0.608901 0.610229 
29 1 8.50662 2.16284 2.12006 
30 1 9.1963 1.43617 1.4135 
1 1 6.15815 4.59567 6.17375 
2 1 7.6795 3.09454 7.67981 
3 1 6.96657 3.79805 6.97366 
40 1 10.053 0.751191 10.0034 
41 1 8.49568 2.27693 8.47726 
42 1 9.21226 1.57482 9.17906 
7 1 6.16011 6.1624 4.59422 
8 1 7.68146 7.68096 3.10881 
9 1 6.96818 6.96775 3.80556 
43 1 9.96637 9.97067 0.662908 
44 1 8.4821 8.48165 2.28763 
45 1 9.16593 9.16789 1.53872 
22 1 6.2346 6.23557 6.23814 
23 1 7.76764 7.76709 7.76632 
24 1 7.05743 7.0591 7.06208 
34 1 10.1054 10.1053 10.0384 
35 1 8.57909 8.57713 8.56808 
36 1 9.29577 9.29437 9.25831 
ITEM: TIMESTEP
140
ITEM: NUMBER OF ATOMS
49
ITEM: BOX BOUNDS pp pp pp
0.0000000000000000e+00 1.1000000000000000e+01
0.0000000000000000e+00 1.1002000000000001e+01
0.0000000000000000e+00 1.1000000000000000e+01
ITEM: ATOMS id type x y z 
10 1 4.62963 4.63246 4.65835 
11 1 3.26769 3.25502 2.9112 
12 1 3.9096 3.90412 3.73717 
46 1 0.63642 0.642603 0.847801 
47 1 2.48681 2.47825 2.096 
48 1 1.61082 1.60958 1.94674 
49 2 0.653842 0.658156 2.41088 
19 1 4.52832 4.531 6.2815 
20 1 2.98406 2.98413 7.79853 
21 1 3.69461 3.69573 7.10063 
31 1 0.685328 0.687909 10.1843 
32 1 2.17799 2.17742 8.62781 
33 1 1.47936 1.48027 9.35639 
16 1 4.53319 6.27191 4.54836 
17 1 2.99685 7.77147 2.97892 
18 1 3.70406 7.08145 3.70137 
25 1 0.607252 9.98598 0.610842 
26 1 2.15998 8.51767 2.12527 
27 1 1.43322 9.20464 1.41627 
4 1 4.59259 6.16082 6.17341 
5 1 3.0924 7.68079 7.68192 
6 1 3.79543 6.96842 6.9746 
37 1 0.752798 10.0566 10.0075 
38 1 2.27832 8.49755 8.47982 
39 1 1.5772 9.21415 9.18183 
13 1 6.26897 4.53528 4.54801 
14 1 7.76317 2.99735 2.97593 
15 1 7.07551 3.70548 3.69979 
28 1 9.98053 0.608895 0.609975 
29 1 8.50717 2.16187 2.11964 
30 1 9.19673 1.43503 1.41326 
1 1 6.15849 4.59516 6.17389 
2 1 7.67998 3.09408 7.68009 
3 1 6.96665 3.79743 6.97414 
40 1 10.0539 0.750721 10.0043 
41 1 8.49592 2.27735 8.47678 
42 1 9.21196 1.57568 9.17881 
7 1 6.16003 6.162 4.59482 
8 1 7.68149 7.68067 3.10896 
9 1 6.96791 6.9681 3.80591 
43 1 9.96638 9.97078 0.661985 
44 1 8.48175 8.48142 2.28727 
45 1 9.16586 9.16756 1.53843 
22 1 6.23379 6.23529 6.23932 
23 1 7.76744 7.76748 7.76741 
24 1 7.0588 7.05942 7.06145 
34 1 10.1053 10.1055 10.038 
35 1 8.57961 8.57742 8.56751 
36 1 9.29596 9.29492 9.25792 
ITEM: TIMESTEP
150
ITEM: NUMBER OF ATOMS
49
ITEM: BOX BOUNDS pp pp pp
0.0000000000000000e+00 1.1000000000000000e+01
0.0000000000000000e+00 1.1002000000000001e+01
0.0000000000000000e+00 1.1000000000000000e+01
ITEM: ATOMS id type x y z 
10 1 4.62953 4.6324 4.6584 
11 1 3.26776 3.2551 2.91103 
12 1 3.90977 3.90436 3.73681 
46 1 0.636396 0.642518 0.847837 
47 1 2.48688 2.47829 2.09597 
48 1 1.61088 1.60963 1.94686 
49 2 0.653772 0.658108 2.4109 
19 1 4.52831 4.53094 6.28144 
20 1 2.98414 2.98415 7.79853 
21 1 3.69453 3.69574 7.10061 
31 1 0.685347 0.687938 10.1843 
32 1 2.17802 2.17745 8.62792 
33 1 1.47936 1.48027 9.35642 
16 1 4.53322 6.27191 4.54843 
17 1 2.99687 7.77146 2.97892 
18 1 3.70404 7.08127 3.70136 
25 1 0.607218 9.98591 0.610808 
26 1 2.15993 8.51758 2.12521 
27 1 1.43322 9.2048 1.41642 
4 1 4.59252 6.16082 6.17334 
5 1 3.09234 7.68081 7.68184 
6 1 3.79551 6.96837 6.97475 
37 1 0.752824 10.0567 10.0075 
38 1 2.27833 8.49761 8.47978 
39 1 1.57722 9.21413 9.1819 
13 1 6.26899 4.5353 4.54807 
14 1 7.76318 2.99735 2.97591 
15 1 7.07539 3.70541 3.69972 
28 1 9.98053 0.608867 0.610007 
29 1 8.5072 2.16179 2.1197 
30 1 9.19669 1.43503 1.41316 
1 1 6.1584 4.59507 6.17396 
2 1 7.67993 3.09398 7.68009 
3 1 6.96677 3.79755 6.97416 
40 1 10.0539 0.750743 10.0043 
41 1 8.49595 2.27736 8.47675 
42 1 9.21199 1.57572 9.17884 
7 1 6.16002 6.16199 4.59488 
8 1 7.68152 7.6806 3.10896 
9 1 6.96781 6.96822 3.80599 
43 1 9.96638 9.97072 0.661951 
44 1 8.48174 8.48137 2.28725 
45 1 9.16578 9.16758 1.53841 
22 1 6.23376 6.23525 6.23941 
23 1 7.76744 7.76744 7.76744 
24 1 7.0588 7.05948 7.06141 
34 1 10.1053 10.1055 10.0379 
35 1 8.57964 8.57746 8.56747 
36 1 9.29599 9.29496 9.25789 
ITEM: TIMESTEP
160
ITEM: NUMBER OF ATOMS
49
ITEM: BOX BOUNDS pp pp pp
0.0000000000000000e+00 1.1000000000000000e+01
0.0000000000000000e+00 1.1002000000000001e+01
0.0000000000000000e+00 1.1000000000000000e+01
ITEM: ATOMS id type x y z 
10 1 4.62951 4.63239 4.6584 
11 1 3.26778 3.25512 2.911 
12 1 3.90981 3.9044 3.73674 
46 1 0.636391 0.6425 0.847845 
47 1 2.48689 2.47829 2.09596 
48 1 1.61089 1.60964 1.94689 
49 2 0.653759 0.658099 2.41091 
19 1 4.52831 4.53093 6.28143 
20 1 2.98414 2.98416 7.79854 
21 1 3.69452 3.69574 7.10061 
31 1 0.68535 0.687941 10.1843 
32 1 2.17803 2.17746 8.62794 
33 1 1.47936 1.48027 9.35644 
16 1 4.53322 6.27191 4.54844 
17 1 2.99687 7.77146 2.97892 
18 1 3.70403 7.08124 3.70135 
25 1 0.607215 9.98591 0.610811 
26 1 2.15992 8.51758 2.12522 
27 1 1.43321 9.2048 1.41643 
4 1 4.59252 6.16082 6.17334 
5 1 3.09234 7.68082 7.68183 
6 1 3.79551 6.96836 6.97476 
37 1 0.752829 10.0567 10.0075 
38 1 2.27833 8.49762 8.47977 
39 1 1.57723 9.21414 9.18191 
13 1 6.26899 4.5353 4.54808 
14 1 7.76318 2.99735 2.9759 
15 1 7.07536 3.7054 3.69971 
28 1 9.98052 0.608862 0.610002 
29 1 8.5072 2.16178 2.1197 
30 1 9.1967 1.43503 1.41317 
1 1 6.15839 4.59506 6.17397 
2 1 7.67993 3.09398 7.68009 
3 1 6.96677 3.79755 6.97416 
40 1 10.0539 0.750751 10.0044 
41 1 8.49596 2.27736 8.47675 
42 1 9.212 1.57572 9.17884 
7 1 6.16002 6.16199 4.59489 
8 1 7.68152 7.68059 3.10896 
9 1 6.9678 6.96823 3.806 
43 1 9.96638 9.97071 0.661947 
44 1 8.48174 8.48136 2.28725 
45 1 9.16577 9.16757 1.5384 
22 1 6.23376 6.23525 6.23942 
23 1 7.76744 7.76744 7.76744 
24 1 7.0588 7.05948 7.06141 
34 1 10.1053 10.1055 10.0379 
35 1 8.57965 8.57746 8.56746 
36 1 9.296 9.29496 9.25788 
ITEM: TIMESTEP
162
ITEM: NUMBER OF ATOMS
49
ITEM: BOX BOUNDS pp pp pp
0.0000000000000000e+00 1.1000000000000000e+01
0.0000000000000000e+00 1.1002000000000001e+01
0.0000000000000000e+00 1.1000000000000000e+01
ITEM: ATOMS id type x y z 
10 1 4.62951 4.63238 4.6584 
11 1 3.26778 3.25512 2.91099 
12 1 3.90981 3.90441 3.73673 
46 1 0.63639 0.642499 0.847845 
47 1 2.48689 2.47829 2.09596 
48 1 1.61089 1.60964 1.94689 
49 2 0.653758 0.658099 2.41091 
19 1 4.52831 4.53093 6.28143 
20 1 2.98414 2.98416 7.79854 
21 1 3.69452 3.69574 7.10061 
31 1 0.68535 0.687942 10.1843 
32 1 2.17803 2.17746 8.62794 
33 1 1.47936 1.48027 9.35644 
16 1 4.53322 6.27191 4.54844 
17 1 2.99687 7.77146 2.97892 
18 1 3.70403 7.08124 3.70135 
25 1 0.607213 9.98591 0.610813 
26 1 2.15992 8.51757 2.12522 
27 1 1.43321 9.2048 1.41643 
4 1 4.59252 6.16082 6.17334 
5 1 3.09234 7.68082 7.68183 
6 1 3.79551 6.96836 6.97476 
37 1 0.75283 10.0567 10.0075 
38 1 2.27833 8.49762 8.47978 
39 1 1.57723 9.21414 9.1819 
13 1 6.26899 4.5353 4.54808 
14 1 7.76318 2.99735 2.9759 
15 1 7.07536 3.70539 3.69971 
28 1 9.98052 0.608862 0.610002 
29 1 8.5072 2.16178 2.1197 
30 1 9.1967 1.43503 1.41317 
1 1 6.15839 4.59506 6.17397 
2 1 7.67993 3.09398 7.68009 
3 1 6.96677 3.79755 6.97416 
40 1 10.0539 0.750751 10.0044 
41 1 8.49596 2.27736 8.47675 
42 1 9.212 1.57572 9.17884 
7 1 6.16002 6.16199 4.59489 
8 1 7.68152 7.68059 3.10896 
9 1 6.9678 6.96823 3.806 
43 1 9.96638 9.97071 0.661946 
44 1 8.48174 8.48136 2.28725 
45 1 9.16577 9.16757 1.5384 