ITEM: TIMESTEP
0
ITEM: NUMBER OF ATOMS
49
ITEM: BOX BOUNDS pp pp pp
0.0000000000000000e+00 1.1000000000000000e+01
0.0000000000000000e+00 1.1002000000000001e+01
0.0000000000000000e+00 1.1000000000000000e+01
ITEM: ATOMS id type x y z 
10 1 4.603 4.603 4.603 
11 1 3.085 3.085 3.085 
12 1 3.796 3.796 3.796 
46 1 0.726 0.725 0.725 
47 1 2.26 2.259 2.26 
48 1 1.551 1.55 1.55 
19 1 4.546 4.545 6.226 
20 1 3.013 3.013 7.764 
21 1 3.721 3.721 7.053 
31 1 0.668 0.667 10.103 
32 1 2.187 2.187 8.589 
33 1 1.476 1.475 9.298 
16 1 4.546 6.225 4.546 
17 1 3.013 7.765 3.013 
18 1 3.721 7.053 3.722 
25 1 0.668 10.103 0.668 
26 1 2.188 8.589 2.188 
27 1 1.476 9.298 1.476 
4 1 4.608 6.169 6.169 
5 1 3.086 7.684 7.684 
6 1 3.799 6.974 6.974 
37 1 0.729 10.046 10.046 
38 1 2.259 8.509 8.508 
39 1 1.552 9.219 9.219 
49 2 1.725 8.766 10.203 
13 1 6.225 4.546 4.546 
14 1 7.764 3.013 3.013 
15 1 7.053 3.721 3.722 
28 1 10.102 0.667 0.668 
29 1 8.589 2.187 2.188 
30 1 9.298 1.475 1.476 
1 1 6.168 4.608 6.169 
2 1 7.684 3.086 7.684 
3 1 6.974 3.799 6.974 
40 1 10.045 0.728 10.046 
41 1 8.508 2.259 8.508 
42 1 9.218 1.551 9.218 
7 1 6.169 6.169 4.608 
8 1 7.684 7.684 3.086 
9 1 6.974 6.974 3.799 
43 1 10.046 10.047 0.729 
44 1 8.508 8.509 2.259 
45 1 9.219 9.219 1.552 
22 1 6.229 6.229 6.229 
23 1 7.764 7.765 7.765 
24 1 7.055 7.056 7.055 
34 1 10.108 10.108 10.107 
35 1 8.59 8.59 8.59 
36 1 9.301 9.301 9.3 
ITEM: TIMESTEP
10
ITEM: NUMBER OF ATOMS
49
ITEM: BOX BOUNDS pp pp pp
0.0000000000000000e+00 1.1000000000000000e+01
0.0000000000000000e+00 1.1002000000000001e+01
0.0000000000000000e+00 1.1000000000000000e+01
ITEM: ATOMS id type x y z 
10 1 4.59632 4.59816 4.59645 
11 1 3.08083 3.08075 3.08017 
12 1 3.78901 3.78912 3.79016 
46 1 0.730569 0.737397 0.748724 
47 1 2.26833 2.26642 2.26545 
48 1 1.5578 1.5585 1.56227 
19 1 4.53735 4.53114 6.23423 
20 1 3.00517 3.00645 7.7716 
21 1 3.71372 3.71147 7.0608 
31 1 0.692823 0.693118 10.0839 
32 1 2.20042 2.20243 8.57481 
33 1 1.49439 1.48817 9.28172 
16 1 4.53747 6.234 4.53129 
17 1 3.00387 7.77346 3.00556 
18 1 3.71256 7.06243 3.71068 
25 1 0.681552 10.0901 0.67544 
26 1 2.1998 8.5773 2.20144 
27 1 1.49175 9.28235 1.48551 
4 1 4.59484 6.18208 6.18092 
5 1 3.08207 7.69145 7.69016 
6 1 3.79624 6.9743 6.9756 
37 1 0.654701 10.1447 10.0172 
38 1 2.28052 8.49886 8.44795 
39 1 1.52918 9.22602 9.27546 
49 2 1.82352 8.63007 10.2428 
13 1 6.23521 4.53687 4.53648 
14 1 7.77426 3.00291 3.00342 
15 1 7.06467 3.70918 3.70929 
28 1 10.0932 0.674868 0.683488 
29 1 8.58248 2.19335 2.19283 
30 1 9.29112 1.48191 1.48605 
1 1 6.17419 4.60085 6.17598 
2 1 7.68783 3.08135 7.68855 
3 1 6.9801 3.79416 6.97888 
40 1 10.0135 0.755985 10.0413 
41 1 8.49726 2.27013 8.49492 
42 1 9.20353 1.56497 9.20799 
7 1 6.1742 6.17548 4.60148 
8 1 7.68936 7.68886 3.08131 
9 1 6.9807 6.98191 3.79071 
43 1 10.0344 10.042 0.747898 
44 1 8.50224 8.50166 2.26381 
45 1 9.21115 9.21372 1.56216 
22 1 6.24372 6.2381 6.23723 
23 1 7.77042 7.77288 7.77245 
24 1 7.06518 7.06371 7.06321 
34 1 10.0895 10.0828 10.0888 
35 1 8.57477 8.57757 8.57631 
36 1 9.28924 9.2815 9.28408 
ITEM: TIMESTEP
20
ITEM: NUMBER OF ATOMS
49
ITEM: BOX BOUNDS pp pp pp
0.0000000000000000e+00 1.1000000000000000e+01
0.0000000000000000e+00 1.1002000000000001e+01
0.0000000000000000e+00 1.1000000000000000e+01
ITEM: ATOMS id type x y z 
10 1 4.59503 4.59445 4.59019 
11 1 3.08032 3.08012 3.08025 
12 1 3.78872 3.78842 3.7873 
46 1 0.727251 0.732782 0.750406 
47 1 2.27233 2.26853 2.2669 
48 1 1.55641 1.56165 1.56834 
19 1 4.53925 4.5338 6.23153 
20 1 3.00817 3.00912 7.76867 
21 1 3.71601 3.71364 7.05792 
31 1 0.673423 0.72483 10.0929 
32 1 2.20771 2.19709 8.57039 
33 1 1.48762 1.50693 9.28441 
16 1 4.5397 6.23254 4.53259 
17 1 3.00539 7.77182 3.007 
18 1 3.71362 7.06162 3.71114 
25 1 0.67712 10.0964 0.690124 
26 1 2.19918 8.57749 2.19278 
27 1 1.48571 9.28906 1.49141 
4 1 4.59436 6.18169 6.1805 
5 1 3.07854 7.69485 7.68632 
6 1 3.79459 6.98052 6.97623 
37 1 0.669142 10.1277 10.0076 
38 1 2.27423 8.51518 8.41313 
39 1 1.58571 9.15302 9.28614 
49 2 1.83001 8.61426 10.2646 
13 1 6.23508 4.53762 4.53559 
14 1 7.77332 3.00357 3.0042 
15 1 7.06411 3.71042 3.71007 
28 1 10.0914 0.677803 0.681482 
29 1 8.58407 2.19165 2.19409 
30 1 9.2887 1.48409 1.48378 
1 1 6.17993 4.59689 6.17542 
2 1 7.68769 3.08201 7.68765 
3 1 6.98113 3.79211 6.9799 
40 1 10.0099 0.758387 10.0523 
41 1 8.49732 2.27058 8.49016 
42 1 9.19736 1.57023 9.2137 
7 1 6.17796 6.17731 4.59501 
8 1 7.68994 7.68995 3.08008 
9 1 6.9827 6.98268 3.78903 
43 1 10.0396 10.0437 0.747412 
44 1 8.50071 8.49998 2.26536 
45 1 9.20929 9.21279 1.56569 
22 1 6.24136 6.23623 6.23393 
23 1 7.76765 7.76973 7.76924 
24 1 7.06259 7.06123 7.06036 
34 1 10.0608 10.1006 10.0956 
35 1 8.58025 8.57165 8.5734 
36 1 9.27465 9.28821 9.28678 
ITEM: TIMESTEP
30
ITEM: NUMBER OF ATOMS
49
ITEM: BOX BOUNDS pp pp pp
0.0000000000000000e+00 1.1000000000000000e+01
0.0000000000000000e+00 1.1002000000000001e+01
0.0000000000000000e+00 1.1000000000000000e+01
ITEM: ATOMS id type x y z 
10 1 4.59564 4.59732 4.5886 
11 1 3.08238 3.08175 3.08151 
12 1 3.79043 3.79072 3.78847 
46 1 0.732354 0.732037 0.754214 
47 1 2.27341 2.27279 2.27122 
48 1 1.56211 1.56163 1.57113 
19 1 4.53993 4.53533 6.22939 
20 1 3.00942 3.00889 7.76766 
21 1 3.71567 3.71292 7.05774 
31 1 0.664195 0.708104 10.0964 
32 1 2.20301 2.19507 8.5769 
33 1 1.48291 1.50271 9.28631 
16 1 4.54 6.23326 4.53186 
17 1 3.00348 7.77423 3.0043 
18 1 3.71014 7.0634 3.70747 
25 1 0.669822 10.1048 0.664828 
26 1 2.19013 8.58647 2.18722 
27 1 1.48227 9.29348 1.47928 
4 1 4.5962 6.17955 6.17737 
5 1 3.07619 7.69998 7.6753 
6 1 3.79234 6.98369 6.9726 
37 1 0.666726 10.13 10.0109 
38 1 2.2584 8.5399 8.39625 
39 1 1.61448 9.11261 9.31188 
49 2 1.84385 8.58721 10.2952 
13 1 6.23684 4.53673 4.5326 
14 1 7.77429 3.00272 3.00336 
15 1 7.06456 3.70999 3.70885 
28 1 10.0909 0.677542 0.682195 
29 1 8.58225 2.19337 2.19425 
30 1 9.28927 1.48304 1.48777 
1 1 6.1799 4.59727 6.17293 
2 1 7.68579 3.08396 7.68438 
3 1 6.97896 3.79448 6.97736 
40 1 10.0041 0.764332 10.0542 
41 1 8.49389 2.2738 8.48738 
42 1 9.19272 1.57482 9.21251 
7 1 6.17574 6.17712 4.59391 
8 1 7.68917 7.68943 3.08109 
9 1 6.9812 6.9808 3.78809 
43 1 10.0421 10.0365 0.749598 
44 1 8.49751 8.49901 2.2687 
45 1 9.20939 9.20857 1.56828 
22 1 6.24049 6.23591 6.2321 
23 1 7.76819 7.7684 7.76903 
24 1 7.06367 7.06218 7.0594 
34 1 10.0781 10.1105 10.0987 
35 1 8.58234 8.57652 8.57993 
36 1 9.28012 9.29226 9.28835 
ITEM: TIMESTEP
40
ITEM: NUMBER OF ATOMS
49
ITEM: BOX BOUNDS pp pp pp
0.0000000000000000e+00 1.1000000000000000e+01
0.0000000000000000e+00 1.1002000000000001e+01
0.0000000000000000e+00 1.1000000000000000e+01
ITEM: ATOMS id type x y z 
10 1 4.5966 4.6034 4.59101 
11 1 3.0838 3.0815 3.08613 
12 1 3.7933 3.79745 3.78335 
46 1 0.731366 0.73427 0.754854 
47 1 2.27336 2.27184 2.27297 
48 1 1.56265 1.56268 1.57151 
19 1 4.53835 4.53603 6.22863 
20 1 3.00904 3.00572 7.7682 
21 1 3.71226 3.71103 7.06124 
31 1 0.656656 0.700125 10.0964 
32 1 2.19488 2.19707 8.58363 
33 1 1.48401 1.49186 9.28699 
16 1 4.53739 6.23706 4.53075 
17 1 2.99833 7.77889 2.99989 
18 1 3.70737 7.06686 3.70207 
25 1 0.673982 10.1077 0.642087 
26 1 2.18508 8.59641 2.18185 
27 1 1.47466 9.29231 1.46664 
4 1 4.59631 6.17957 6.17752 
5 1 3.07287 7.70796 7.65876 
6 1 3.78642 6.99479 6.96058 
37 1 0.676042 10.1177 10.0143 
38 1 2.24577 8.56132 8.37342 
39 1 1.64248 9.07155 9.35001 
49 2 1.85459 8.56022 10.3372 
13 1 6.23801 4.5391 4.53066 
14 1 7.77731 3.00268 3.00232 
15 1 7.06103 3.70823 3.70812 
28 1 10.0956 0.673919 0.684438 
29 1 8.58605 2.19095 2.19492 
30 1 9.28773 1.48109 1.48357 
1 1 6.17708 4.60242 6.16935 
2 1 7.68327 3.08696 7.68182 
3 1 6.97802 3.79525 6.97176 
40 1 10.0016 0.767353 10.0623 
41 1 8.49384 2.27249 8.48967 
42 1 9.19048 1.57868 9.21373 
7 1 6.17157 6.17635 4.59521 
8 1 7.69036 7.68663 3.08381 
9 1 6.97369 6.98216 3.78576 
43 1 10.0407 10.0362 0.749319 
44 1 8.49817 8.49879 2.26953 
45 1 9.20991 9.20833 1.56903 
22 1 6.23831 6.2386 6.23106 
23 1 7.76894 7.76942 7.7699 
24 1 7.06865 7.0635 7.06164 
34 1 10.089 10.1165 10.0959 
35 1 8.58308 8.58188 8.58521 
36 1 9.28709 9.29414 9.29001 
ITEM: TIMESTEP
50
ITEM: NUMBER OF ATOMS
49
ITEM: BOX BOUNDS pp pp pp
0.0000000000000000e+00 1.1000000000000000e+01
0.0000000000000000e+00 1.1002000000000001e+01
0.0000000000000000e+00 1.1000000000000000e+01
ITEM: ATOMS id type x y z 
10 1 4.59711 4.60901 4.59112 
11 1 3.08543 3.08309 3.08546 
12 1 3.79301 3.79798 3.78603 
46 1 0.732597 0.736243 0.752868 
47 1 2.27417 2.27193 2.27421 
48 1 1.56212 1.56248 1.57227 
19 1 4.53739 4.53823 6.22889 
20 1 3.00813 3.00475 7.77011 
21 1 3.71252 3.71008 7.05953 
31 1 0.657606 0.688576 10.0956 
32 1 2.19304 2.19595 8.58589 
33 1 1.48045 1.49039 9.28855 
16 1 4.53553 6.23857 4.52993 
17 1 2.99775 7.77951 2.99834 
18 1 3.70379 7.07107 3.69961 
25 1 0.672213 10.1066 0.628475 
26 1 2.18145 8.59896 2.1794 
27 1 1.47522 9.29338 1.46092 
4 1 4.59604 6.18017 6.17296 
5 1 3.06439 7.7223 7.64857 
6 1 3.78482 6.99471 6.95902 
37 1 0.682579 10.11 10.0167 
38 1 2.23888 8.57196 8.36677 
39 1 1.657 9.05075 9.36771 
49 2 1.85955 8.54615 10.3615 
13 1 6.23684 4.53943 4.52979 
14 1 7.77652 3.00308 3.00312 
15 1 7.06261 3.70726 3.70622 
28 1 10.0958 0.66951 0.686833 
29 1 8.5853 2.19086 2.19352 
30 1 9.29027 1.4798 1.48685 
1 1 6.17455 4.60405 6.16678 
2 1 7.6831 3.08723 7.67894 
3 1 6.97597 3.79743 6.972 
40 1 10.0024 0.768689 10.0627 
41 1 8.49106 2.27631 8.48663 
42 1 9.18844 1.5784 9.21684 
7 1 6.16618 6.17779 4.59401 
8 1 7.68908 7.68661 3.08292 
9 1 6.97485 6.98232 3.78672 
43 1 10.0406 10.0363 0.747697 
44 1 8.5006 8.50071 2.26961 
45 1 9.21017 9.20742 1.56717 
22 1 6.23764 6.23971 6.23134 
23 1 7.77213 7.77096 7.77203 
24 1 7.06792 7.06428 7.06169 
34 1 10.099 10.1148 10.0968 
35 1 8.58464 8.58295 8.58818 
36 1 9.28863 9.29828 9.29013 
ITEM: TIMESTEP
60
ITEM: NUMBER OF ATOMS
49
ITEM: BOX BOUNDS pp pp pp
0.0000000000000000e+00 1.1000000000000000e+01
0.0000000000000000e+00 1.1002000000000001e+01
0.0000000000000000e+00 1.1000000000000000e+01
ITEM: ATOMS id type x y z 
10 1 4.59576 4.61021 4.59075 
11 1 3.08624 3.08402 3.08399 
12 1 3.79152 3.7971 3.78836 
46 1 0.732374 0.736474 0.747911 
47 1 2.27267 2.26986 2.27431 
48 1 1.5622 1.56259 1.57037 
19 1 4.53613 4.54061 6.22898 
20 1 3.00837 3.00388 7.77003 
21 1 3.71159 3.7111 7.06067 
31 1 0.658378 0.68282 10.0951 
32 1 2.19243 2.19489 8.58694 
33 1 1.47798 1.49028 9.28877 
16 1 4.53383 6.24078 4.52998 
17 1 2.99616 7.78055 2.99581 
18 1 3.70273 7.07345 3.70126 
25 1 0.672996 10.1052 0.624903 
26 1 2.17792 8.5977 2.17766 
27 1 1.47963 9.29798 1.45664 
4 1 4.59533 6.18067 6.1759 
5 1 3.05857 7.73127 7.63788 
6 1 3.78093 7.00207 6.95306 
37 1 0.688624 10.1024 10.0155 
38 1 2.23775 8.5746 8.36683 
39 1 1.66375 9.03961 9.38209 
49 2 1.86212 8.53708 10.3788 
13 1 6.23388 4.53989 4.52962 
14 1 7.7735 3.00204 3.0037 
15 1 7.0655 3.71191 3.70668 
28 1 10.0975 0.669578 0.685643 
29 1 8.58472 2.19002 2.19303 
30 1 9.29269 1.47954 1.48907 
1 1 6.17255 4.60602 6.16732 
2 1 7.6826 3.08681 7.67785 
3 1 6.97691 3.79836 6.97199 
40 1 10.0058 0.764978 10.0616 
41 1 8.49125 2.27506 8.49093 
42 1 9.19081 1.57791 9.21618 
7 1 6.16455 6.17977 4.59453 
8 1 7.68768 7.68671 3.08163 
9 1 6.97648 6.98253 3.78901 
43 1 10.0397 10.0356 0.743462 
44 1 8.50119 8.50007 2.27042 
45 1 9.21055 9.20787 1.56621 
22 1 6.23572 6.24046 6.23049 
23 1 7.77309 7.76945 7.77138 
24 1 7.0656 7.06621 7.06258 
34 1 10.1032 10.1167 10.0945 
35 1 8.58446 8.58455 8.58903 
36 1 9.29115 9.29778 9.28974 
ITEM: TIMESTEP
70
ITEM: NUMBER OF ATOMS
49
ITEM: BOX BOUNDS pp pp pp
0.0000000000000000e+00 1.1000000000000000e+01
0.0000000000000000e+00 1.1002000000000001e+01
0.0000000000000000e+00 1.1000000000000000e+01
ITEM: ATOMS id type x y z 
10 1 4.59508 4.61119 4.59133 
11 1 3.08603 3.08412 3.08395 
12 1 3.79165 3.79707 3.78812 
46 1 0.732479 0.736783 0.746477 
47 1 2.27239 2.26937 2.27446 
48 1 1.56225 1.56251 1.56982 
19 1 4.53558 4.54157 6.22918 
20 1 3.00838 3.00385 7.77009 
21 1 3.71149 3.71128 7.06076 
31 1 0.659033 0.679923 10.0936 
32 1 2.19176 2.19493 8.58692 
33 1 1.47843 1.4897 9.2891 
16 1 4.53317 6.24171 4.53058 
17 1 2.99563 7.78109 2.99564 
18 1 3.70209 7.0738 3.70066 
25 1 0.673555 10.105 0.622963 
26 1 2.17802 8.59791 2.1771 
27 1 1.47968 9.29776 1.45547 
4 1 4.59414 6.18128 6.17668 
5 1 3.05606 7.7359 7.63285 
6 1 3.7786 7.00549 6.94986 
37 1 0.690914 10.0997 10.0155 
38 1 2.23707 8.57548 8.36836 
39 1 1.66697 9.03439 9.38842 
49 2 1.86344 8.53279 10.3862 
13 1 6.23359 4.54141 4.52994 
14 1 7.77362 3.003 3.00401 
15 1 7.06409 3.71142 3.70686 
28 1 10.0984 0.669021 0.685791 
29 1 8.58519 2.18993 2.19368 
30 1 9.29191 1.47921 1.48889 
1 1 6.17188 4.6068 6.16729 
2 1 7.68286 3.08719 7.67779 
3 1 6.97644 3.79754 6.97155 
40 1 10.0069 0.764002 10.0609 
41 1 8.49125 2.27519 8.49199 
42 1 9.19106 1.57746 9.2163 
7 1 6.16375 6.18024 4.59444 
8 1 7.68777 7.68686 3.08143 
9 1 6.97638 6.98296 3.78886 
43 1 10.0396 10.0357 0.741967 
44 1 8.50191 8.50025 2.27021 
45 1 9.21087 9.20815 1.56573 
22 1 6.23504 6.24123 6.23083 
23 1 7.77334 7.76956 7.77164 
24 1 7.06535 7.06641 7.06273 
34 1 10.1053 10.1163 10.0934 
35 1 8.58445 8.58505 8.58924 
36 1 9.29212 9.29763 9.28945 
ITEM: TIMESTEP
80
ITEM: NUMBER OF ATOMS
49
ITEM: BOX BOUNDS pp pp pp
0.0000000000000000e+00 1.1000000000000000e+01
0.0000000000000000e+00 1.1002000000000001e+01
0.0000000000000000e+00 1.1000000000000000e+01
ITEM: ATOMS id type x y z 
10 1 4.59468 4.61252 4.59102 
11 1 3.08643 3.0842 3.08333 
12 1 3.79056 3.79711 3.78903 
46 1 0.732513 0.737195 0.74466 
47 1 2.27203 2.26888 2.27436 
48 1 1.56221 1.56204 1.56936 
19 1 4.53492 4.5425 6.22948 
20 1 3.00843 3.00362 7.77015 
21 1 3.71094 3.71167 7.0612 
31 1 0.659859 0.677513 10.0929 
32 1 2.19127 2.19583 8.58792 
33 1 1.47857 1.48733 9.28745 
16 1 4.53261 6.24259 4.53117 
17 1 2.99527 7.78152 2.99533 
18 1 3.70154 7.07394 3.7008 
25 1 0.674744 10.1052 0.621057 
26 1 2.17837 8.59862 2.17621 
27 1 1.47901 9.29692 1.45432 
4 1 4.59265 6.18298 6.17626 
5 1 3.05268 7.74185 7.6259 
6 1 3.77681 7.00841 6.94794 
37 1 0.69338 10.0967 10.0155 
38 1 2.23654 8.57613 8.37032 
39 1 1.67038 9.02864 9.39602 
49 2 1.8651 8.52769 10.3946 
13 1 6.2327 4.5424 4.5301 
14 1 7.77302 3.00335 3.00431 
15 1 7.06395 3.71208 3.70709 
28 1 10.0989 0.668452 0.685718 
29 1 8.58525 2.18932 2.19431 
30 1 9.29212 1.47966 1.48867 
1 1 6.17166 4.60789 6.16767 
2 1 7.68313 3.08768 7.67779 
3 1 6.97591 3.7966 6.97094 
40 1 10.0082 0.762951 10.0605 
41 1 8.49106 2.27543 8.49367 
42 1 9.19189 1.57662 9.21568 
7 1 6.16249 6.18104 4.59431 
8 1 7.68767 7.68692 3.08091 
9 1 6.97667 6.98368 3.78927 
43 1 10.0394 10.0358 0.740445 
44 1 8.50264 8.5005 2.26997 
45 1 9.21123 9.20818 1.56528 
22 1 6.23358 6.24228 6.23112 
23 1 7.77288 7.7699 7.77179 
24 1 7.06597 7.06596 7.06281 
34 1 10.1077 10.1158 10.092 
35 1 8.58448 8.58537 8.58921 
36 1 9.29292 9.29748 9.28922 
ITEM: TIMESTEP
90
ITEM: NUMBER OF ATOMS
49
ITEM: BOX BOUNDS pp pp pp
0.0000000000000000e+00 1.1000000000000000e+01
0.0000000000000000e+00 1.1002000000000001e+01
0.0000000000000000e+00 1.1000000000000000e+01
ITEM: ATOMS id type x y z 
10 1 4.59221 4.61438 4.59338 
11 1 3.08619 3.08381 3.08325 
12 1 3.78919 3.79838 3.78818 
46 1 0.732728 0.738115 0.738428 
47 1 2.27087 2.26628 2.27441 
48 1 1.56194 1.5617 1.56652 
19 1 4.53296 4.54691 6.23037 
20 1 3.00866 3.00354 7.77024 
21 1 3.71002 3.71365 7.06181 
31 1 0.663451 0.665951 10.0875 
32 1 2.18976 2.19633 8.58846 
33 1 1.47929 1.48402 9.28608 
16 1 4.52925 6.2462 4.53243 
17 1 2.99301 7.78328 2.99339 
18 1 3.69874 7.07686 3.70044 
25 1 0.676023 10.1044 0.614908 
26 1 2.17756 8.59899 2.17309 
27 1 1.48049 9.29802 1.44965 
4 1 4.58786 6.18798 6.17654 
5 1 3.03934 7.76608 7.59889 
6 1 3.76872 7.02015 6.94075 
37 1 0.703291 10.0847 10.015 
38 1 2.23455 8.57808 8.37963 
39 1 1.6838 9.00614 9.42525 
49 2 1.87218 8.50694 10.4264 
13 1 6.22962 4.54651 4.53139 
14 1 7.77123 3.00508 3.00578 
15 1 7.06218 3.71421 3.70766 
28 1 10.1008 0.667133 0.684092 
29 1 8.58555 2.18853 2.19561 
30 1 9.29238 1.47884 1.49047 
1 1 6.16854 4.6099 6.16725 
2 1 7.68303 3.08656 7.67633 
3 1 6.97607 3.79808 6.97219 
40 1 10.0138 0.7579 10.0569 
41 1 8.49099 2.2755 8.49781 
42 1 9.19355 1.57565 9.21693 
7 1 6.16122 6.18394 4.59586 
8 1 7.68861 7.68786 3.08028 
9 1 6.97587 6.98586 3.78797 
43 1 10.0392 10.0367 0.734805 
44 1 8.50579 8.50145 2.26911 
45 1 9.21271 9.20891 1.56243 
22 1 6.22898 6.24464 6.23193 
23 1 7.77243 7.76994 7.772 
24 1 7.06535 7.06607 7.06322 
34 1 10.1163 10.1135 10.0874 
35 1 8.58423 8.58641 8.58952 
36 1 9.29652 9.2969 9.28701 
ITEM: TIMESTEP
100
ITEM: NUMBER OF ATOMS
49
ITEM: BOX BOUNDS pp pp pp
0.0000000000000000e+00 1.1000000000000000e+01
0.0000000000000000e+00 1.1002000000000001e+01
0.0000000000000000e+00 1.1000000000000000e+01
ITEM: ATOMS id type x y z 
10 1 4.59172 4.61467 4.59355 
11 1 3.0858 3.08373 3.08344 
12 1 3.7894 3.79835 3.78768 
46 1 0.732597 0.738353 0.737822 
47 1 2.27082 2.26635 2.27428 
48 1 1.56204 1.56128 1.56639 
19 1 4.53273 4.54744 6.23048 
20 1 3.00861 3.00367 7.77028 
21 1 3.70994 3.71393 7.06185 
31 1 0.663912 0.665036 10.0869 
32 1 2.18973 2.19636 8.58833 
33 1 1.47958 1.48358 9.28581 
16 1 4.52928 6.24631 4.53259 
17 1 2.99308 7.78332 2.99347 
18 1 3.69862 7.07675 3.70062 
25 1 0.676369 10.105 0.615002 
26 1 2.17796 8.59956 2.17301 
27 1 1.4798 9.29721 1.44945 
4 1 4.58779 6.1879 6.17758 
5 1 3.0384 7.76777 7.5979 
6 1 3.76675 7.02322 6.93693 
37 1 0.703964 10.0836 10.0151 
38 1 2.23466 8.57766 8.38176 
39 1 1.68445 9.00469 9.42815 
49 2 1.87336 8.50429 10.4284 
13 1 6.22948 4.54683 4.53148 
14 1 7.77124 3.0052 3.00594 
15 1 7.06181 3.71433 3.70754 
28 1 10.1007 0.667324 0.683755 
29 1 8.58553 2.18826 2.19601 
30 1 9.29243 1.47921 1.49022 
1 1 6.16801 4.61041 6.16864 
2 1 7.68239 3.08712 7.67767 
3 1 6.97729 3.79695 6.96996 
40 1 10.0143 0.757658 10.0567 
41 1 8.4909 2.27577 8.49841 
42 1 9.19394 1.57504 9.21643 
7 1 6.16103 6.18418 4.59571 
8 1 7.68877 7.68785 3.08012 
9 1 6.97576 6.98642 3.78811 
43 1 10.0392 10.0368 0.734539 
44 1 8.50618 8.50142 2.26905 
45 1 9.21252 9.20901 1.56204 
22 1 6.22929 6.2441 6.23183 
23 1 7.77324 7.76914 7.77186 
24 1 7.06342 7.06757 7.06348 
34 1 10.1168 10.1133 10.0871 
35 1 8.58377 8.58651 8.58975 
36 1 9.29768 9.29652 9.28599 
ITEM: TIMESTEP
110
ITEM: NUMBER OF ATOMS
49
ITEM: BOX BOUNDS pp pp pp
0.0000000000000000e+00 1.1000000000000000e+01
0.0000000000000000e+00 1.1002000000000001e+01
0.0000000000000000e+00 1.1000000000000000e+01
ITEM: ATOMS id type x y z 
10 1 4.59173 4.61496 4.59317 
11 1 3.08593 3.08366 3.08312 
12 1 3.78865 3.79835 3.78818 
46 1 0.732603 0.738291 0.737366 
47 1 2.27072 2.26584 2.27413 
48 1 1.56205 1.5617 1.56608 
19 1 4.53245 4.54799 6.23071 
20 1 3.00866 3.00386 7.77028 
21 1 3.70966 3.71416 7.06196 
31 1 0.664487 0.663977 10.0862 
32 1 2.18973 2.1963 8.58818 
33 1 1.47979 1.48322 9.28557 
16 1 4.52918 6.2463 4.53287 
17 1 2.99302 7.78319 2.99356 
18 1 3.69869 7.07699 3.70076 
25 1 0.675919 10.1049 0.61495 
26 1 2.17779 8.59921 2.17287 
27 1 1.48035 9.29795 1.44956 
4 1 4.58736 6.18821 6.17858 
5 1 3.03745 7.76933 7.59654 
6 1 3.76505 7.02637 6.93299 
37 1 0.704616 10.0827 10.0152 
38 1 2.23494 8.5771 8.38383 
39 1 1.68508 9.00317 9.43138 
49 2 1.87463 8.50145 10.4304 
13 1 6.22917 4.54711 4.53147 
14 1 7.77105 3.00528 3.00597 
15 1 7.06178 3.71455 3.7077 
28 1 10.1006 0.667666 0.68322 
29 1 8.58562 2.18839 2.19613 
30 1 9.29219 1.4789 1.49054 
1 1 6.16863 4.61001 6.16764 
2 1 7.68315 3.08654 7.67665 
3 1 6.97612 3.7978 6.97232 
40 1 10.015 0.757075 10.056 
41 1 8.49107 2.27559 8.49855 
42 1 9.19381 1.57527 9.21685 
7 1 6.16084 6.18457 4.59576 
8 1 7.68894 7.68811 3.08019 
9 1 6.97569 6.98654 3.78775 
43 1 10.0391 10.0372 0.734095 
44 1 8.50638 8.5015 2.26888 
45 1 9.21289 9.20905 1.56166 
22 1 6.2289 6.24437 6.2319 
23 1 7.77319 7.769 7.77169 
24 1 7.0628 7.06773 7.06369 
34 1 10.1179 10.1127 10.0866 
35 1 8.58403 8.58637 8.58941 
36 1 9.29762 9.2965 9.28595 
ITEM: TIMESTEP
120
ITEM: NUMBER OF ATOMS
49
ITEM: BOX BOUNDS pp pp pp
0.0000000000000000e+00 1.1000000000000000e+01
0.0000000000000000e+00 1.1002000000000001e+01
0.0000000000000000e+00 1.1000000000000000e+01
ITEM: ATOMS id type x y z 
10 1 4.59129 4.61516 4.59337 
11 1 3.08558 3.08353 3.08306 
12 1 3.7882 3.79834 3.78815 
46 1 0.732507 0.73839 0.73624 
47 1 2.27074 2.26528 2.274 
48 1 1.56184 1.56185 1.56516 
19 1 4.5321 4.54927 6.23099 
20 1 3.00872 3.00437 7.77013 
21 1 3.70953 3.71502 7.06206 
31 1 0.665658 0.661704 10.0848 
32 1 2.1898 2.19616 8.58773 
33 1 1.48034 1.48252 9.28502 
16 1 4.529 6.24665 4.5333 
17 1 2.99291 7.78342 2.9935 
18 1 3.69829 7.07709 3.70099 
25 1 0.67578 10.1054 0.615192 
26 1 2.17798 8.59933 2.17267 
27 1 1.48036 9.29813 1.44955 
4 1 4.5858 6.19008 6.17896 
5 1 3.03464 7.77441 7.59118 
6 1 3.76245 7.03065 6.92868 
37 1 0.706171 10.0804 10.0155 
38 1 2.23556 8.57571 8.38873 
39 1 1.68676 8.99951 9.43825 
49 2 1.87753 8.49497 10.435 
13 1 6.22857 4.54778 4.53163 
14 1 7.77061 3.00566 3.00611 
15 1 7.06152 3.71482 3.70818 
28 1 10.1005 0.668147 0.682227 
29 1 8.58565 2.18817 2.19673 
30 1 9.29207 1.47915 1.49051 
1 1 6.16824 4.61025 6.16794 
2 1 7.68308 3.08652 7.677 
3 1 6.97621 3.79767 6.97244 
40 1 10.0163 0.755982 10.0547 
41 1 8.49123 2.27556 8.49904 
42 1 9.19408 1.57512 9.2172 
7 1 6.16077 6.18516 4.59586 
8 1 7.68926 7.6885 3.08011 
9 1 6.97562 6.98715 3.78746 
43 1 10.0391 10.0376 0.7332 
44 1 8.50718 8.50156 2.2684 
45 1 9.21293 9.20931 1.56105 
22 1 6.22769 6.24473 6.23216 
23 1 7.77275 7.76884 7.77154 
24 1 7.06199 7.0679 7.06371 
34 1 10.1195 10.1118 10.0855 
35 1 8.58406 8.58629 8.589 
36 1 9.29854 9.29586 9.28509 
ITEM: TIMESTEP
130
ITEM: NUMBER OF ATOMS
49
ITEM: BOX BOUNDS pp pp pp
0.0000000000000000e+00 1.1000000000000000e+01
0.0000000000000000e+00 1.1002000000000001e+01
0.0000000000000000e+00 1.1000000000000000e+01
ITEM: ATOMS id type x y z 
10 1 4.59122 4.61514 4.59346 
11 1 3.08546 3.08351 3.08313 
12 1 3.7882 3.79833 3.78803 
46 1 0.732471 0.738602 0.735854 
47 1 2.27071 2.2653 2.27382 
48 1 1.56188 1.56162 1.56521 
19 1 4.53202 4.54956 6.23106 
20 1 3.00867 3.00441 7.77017 
21 1 3.70951 3.71529 7.06205 
31 1 0.665925 0.661168 10.0845 
32 1 2.18986 2.19616 8.58764 
33 1 1.48046 1.48228 9.2848 
16 1 4.52884 6.2467 4.53335 
17 1 2.99278 7.78339 2.99352 
18 1 3.69836 7.07729 3.70095 
25 1 0.675672 10.1054 0.615222 
26 1 2.17791 8.59926 2.17256 
27 1 1.48051 9.29843 1.44965 
4 1 4.58535 6.1905 6.17897 
5 1 3.03384 7.77563 7.58987 
6 1 3.76194 7.03181 6.9278 
37 1 0.706515 10.08 10.0156 
38 1 2.23575 8.57532 8.38989 
39 1 1.6872 8.99857 9.4399 
49 2 1.87825 8.49336 10.4361 
13 1 6.22846 4.54791 4.53181 
14 1 7.77048 3.00577 3.00638 
15 1 7.06136 3.71499 3.70801 
28 1 10.1004 0.668225 0.681963 
29 1 8.58564 2.18806 2.19686 
30 1 9.29209 1.47931 1.49048 
1 1 6.16826 4.61033 6.1679 
2 1 7.68314 3.08659 7.67703 
3 1 6.97602 3.79756 6.97256 
40 1 10.0165 0.755849 10.0547 
41 1 8.49109 2.27569 8.49957 
42 1 9.19456 1.57477 9.21657 
7 1 6.1607 6.1853 4.59586 
8 1 7.6892 7.68873 3.08007 
9 1 6.97585 6.98705 3.78743 
43 1 10.039 10.0378 0.732951 
44 1 8.50722 8.5016 2.2683 
45 1 9.21317 9.20929 1.5609 
22 1 6.22734 6.24486 6.23225 
23 1 7.7726 7.7689 7.77161 
24 1 7.06194 7.06785 7.06362 
34 1 10.1199 10.1116 10.0852 
35 1 8.58415 8.58615 8.58888 
36 1 9.2986 9.2959 9.28489 
ITEM: TIMESTEP
140
ITEM: NUMBER OF ATOMS
49
ITEM: BOX BOUNDS pp pp pp
0.0000000000000000e+00 1.1000000000000000e+01
0.0000000000000000e+00 1.1002000000000001e+01
0.0000000000000000e+00 1.1000000000000000e+01
ITEM: ATOMS id type x y z 
10 1 4.59117 4.61513 4.59352 
11 1 3.08542 3.08351 3.08314 
12 1 3.78818 3.79832 3.78801 
46 1 0.732455 0.738584 0.735764 
47 1 2.27071 2.2652 2.27382 
48 1 1.56183 1.5617 1.56505 
19 1 4.53198 4.5497 6.23107 
20 1 3.00866 3.00446 7.77015 
21 1 3.70952 3.7154 7.06207 
31 1 0.666 0.661191 10.0845 
32 1 2.18983 2.19636 8.58776 
33 1 1.48059 1.48182 9.2844 
16 1 4.52877 6.24671 4.53337 
17 1 2.99273 7.78337 2.99353 
18 1 3.69839 7.0774 3.70094 
25 1 0.675648 10.1054 0.615309 
26 1 2.17791 8.59928 2.17255 
27 1 1.48052 9.29846 1.44964 
4 1 4.5852 6.19068 6.17895 
5 1 3.03354 7.77618 7.58933 
6 1 3.76171 7.03217 6.92749 
37 1 0.706683 10.0797 10.0157 
38 1 2.23582 8.57518 8.39037 
39 1 1.68741 8.99816 9.44055 
49 2 1.87854 8.4927 10.4366 
13 1 6.22843 4.54797 4.53187 
14 1 7.77047 3.00578 3.00643 
15 1 7.06128 3.71504 3.70799 
28 1 10.1004 0.668272 0.681897 
29 1 8.58569 2.18804 2.19696 
30 1 9.29199 1.47934 1.49039 
1 1 6.16819 4.6103 6.1679 
2 1 7.68311 3.08654 7.67703 
3 1 6.97606 3.79767 6.97264 
40 1 10.0166 0.755726 10.0545 
41 1 8.49112 2.27566 8.49958 
42 1 9.19459 1.57478 9.21665 
7 1 6.1607 6.18535 4.59585 
8 1 7.68922 7.68876 3.08004 
9 1 6.97588 6.98712 3.78746 
43 1 10.039 10.0378 0.732871 
44 1 8.50733 8.50155 2.26827 
45 1 9.2131 9.20941 1.56082 
22 1 6.22724 6.24488 6.23227 
23 1 7.77257 7.76886 7.7716 
24 1 7.06182 7.06792 7.06363 
34 1 10.12 10.1115 10.0851 
35 1 8.58418 8.58617 8.58877 
36 1 9.29865 9.29577 9.28492 
ITEM: TIMESTEP
150
ITEM: NUMBER OF ATOMS
49
ITEM: BOX BOUNDS pp pp pp
0.0000000000000000e+00 1.1000000000000000e+01
0.0000000000000000e+00 1.1002000000000001e+01
0.0000000000000000e+00 1.1000000000000000e+01
ITEM: ATOMS id type x y z 
10 1 4.59118 4.61514 4.59351 
11 1 3.08542 3.08351 3.08313 
12 1 3.78816 3.79832 3.78803 
46 1 0.732452 0.738589 0.735755 
47 1 2.27071 2.2652 2.27382 
48 1 1.56184 1.5617 1.56504 
19 1 4.53198 4.54971 6.23108 
20 1 3.00866 3.00447 7.77015 
21 1 3.70951 3.7154 7.06206 
31 1 0.666013 0.661164 10.0845 
32 1 2.18984 2.19635 8.58776 
33 1 1.48059 1.48182 9.2844 
16 1 4.52877 6.2467 4.53337 
17 1 2.99273 7.78336 2.99353 
18 1 3.69839 7.07741 3.70094 
25 1 0.675646 10.1054 0.615308 
26 1 2.17791 8.59928 2.17255 
27 1 1.48052 9.29846 1.44964 
4 1 4.5852 6.1907 6.17895 
5 1 3.03352 7.77624 7.58929 
6 1 3.76167 7.03219 6.92746 
37 1 0.706695 10.0797 10.0157 
38 1 2.23582 8.57517 8.39041 
39 1 1.68743 8.99813 9.44061 
49 2 1.87857 8.49264 10.4366 
13 1 6.22843 4.54797 4.53187 
14 1 7.77047 3.00579 3.00643 
15 1 7.06128 3.71504 3.70799 
28 1 10.1004 0.668279 0.681868 
29 1 8.58567 2.18804 2.19694 
30 1 9.29203 1.47934 1.49043 
1 1 6.16818 4.61029 6.16789 
2 1 7.68311 3.08652 7.67702 
3 1 6.97606 3.7977 6.97267 
40 1 10.0166 0.755723 10.0545 
41 1 8.49112 2.27567 8.4996 
42 1 9.1946 1.57476 9.21664 
7 1 6.16071 6.18535 4.59585 
8 1 7.68922 7.68876 3.08004 
9 1 6.97588 6.98713 3.78746 
43 1 10.039 10.0378 0.732866 
44 1 8.50734 8.50155 2.26827 
45 1 9.2131 9.20941 1.5608 
22 1 6.22723 6.24488 6.23228 
23 1 7.77257 7.76886 7.7716 
24 1 7.06181 7.06793 7.06362 
34 1 10.12 10.1115 10.0851 
35 1 8.58417 8.58617 8.58878 
36 1 9.29867 9.29577 9.28489 
ITEM: TIMESTEP
151
ITEM: NUMBER OF ATOMS
49
ITEM: BOX BOUNDS pp pp pp
0.0000000000000000e+00 1.1000000000000000e+01
0.0000000000000000e+00 1.1002000000000001e+01
0.0000000000000000e+00 1.1000000000000000e+01
ITEM: ATOMS id type x y z 
10 1 4.59118 4.61514 4.59351 
11 1 3.08542 3.08351 3.08313 
12 1 3.78816 3.79832 3.78803 
46 1 0.732452 0.738589 0.735755 
47 1 2.27071 2.2652 2.27382 
48 1 1.56184 1.5617 1.56504 
19 1 4.53198 4.54971 6.23108 
20 1 3.00866 3.00447 7.77015 
21 1 3.70951 3.7154 7.06206 
31 1 0.666013 0.661164 10.0845 
32 1 2.18984 2.19635 8.58776 
33 1 1.48059 1.48182 9.2844 
16 1 4.52877 6.2467 4.53337 
17 1 2.99273 7.78336 2.99353 
18 1 3.69839 7.07741 3.70094 
25 1 0.675646 10.1054 0.615308 
26 1 2.17791 8.59928 2.17255 
27 1 1.48052 9.29846 1.44964 
4 1 4.5852 6.1907 6.17895 
5 1 3.03352 7.77624 7.58929 
6 1 3.76167 7.03219 6.92746 
37 1 0.706695 10.0797 10.0157 
38 1 2.23582 8.57517 8.39041 
39 1 1.68743 8.99813 9.44061 
49 2 1.87857 8.49264 10.4366 
13 1 6.22843 4.54797 4.53187 
14 1 7.77047 3.00579 3.00643 
15 1 7.06128 3.71504 3.70799 
28 1 10.1004 0.668279 0.681868 
29 1 8.58567 2.18804 2.19694 
30 1 9.29203 1.47934 1.49043 
1 1 6.16818 4.61029 6.16789 
2 1 7.68311 3.08652 7.67702 
3 1 6.97606 3.7977 6.97267 
40 1 10.0166 0.755722 10.0545 
41 1 8.49112 2.27567 8.4996 
42 1 9.1946 1.57476 9.21664 
7 1 6.16071 6.18535 4.59585 
8 1 7.68922 7.68876 3.08004 
9 1 6.97588 6.98713 3.78746 
43 1 10.039 10.0378 0.732866 
44 1 8.50734 8.50155 2.26827 
45 1 9.2131 9.20941 1.5608 
22 1 6.22723 6.24488 6.23228 
23 1 7.77257 7.76886 7.7716 
24 1 7.06181 7.06793 7.06362 
34 1 10.12 10.1115 10.0851 
35 1 8.58417 8.58617 8.58878 
36 1 9.29867 9.29577 9.28489 
ITEM: TIMESTEP
153
ITEM: NUMBER OF ATOMS
49
ITEM: BOX BOUNDS pp pp pp
0.0000000000000000e+00 1.1000000000000000e+01
0.0000000000000000e+00 1.1002000000000001e+01
0.0000000000000000e+00 1.1000000000000000e+01
ITEM: ATOMS id type x y z 
10 1 4.59118 4.61514 4.59351 
11 1 3.08542 3.08351 3.08313 
12 1 3.78816 3.79832 3.78803 
46 1 0.732452 0.738589 0.735755 
47 1 2.27071 2.2652 2.27382 
48 1 1.56184 1.5617 1.56504 
19 1 4.53198 4.54971 6.23108 
20 1 3.00866 3.00447 7.77015 
21 1 3.70951 3.7154 7.06206 
31 1 0.666013 0.661164 10.0845 
32 1 2.18984 2.19635 8.58776 
33 1 1.48059 1.48182 9.2844 
16 1 4.52877 6.2467 4.53337 
17 1 2.99273 7.78336 2.99353 
18 1 3.69839 7.07741 3.70094 
25 1 0.675646 10.1054 0.615308 
26 1 2.17791 8.59928 2.17255 
27 1 1.48052 9.29846 1.44964 
4 1 4.5852 6.1907 6.17895 
5 1 3.03352 7.77624 7.58928 
6 1 3.76168 7.03219 6.92746 
37 1 0.706695 10.0797 10.0157 
38 1 2.23582 8.57517 8.39041 
39 1 1.68743 8.99812 9.44061 
49 2 1.87857 8.49264 10.4366 
13 1 6.22843 4.54797 4.53187 
14 1 7.77047 3.00579 3.00643 
15 1 7.06128 3.71504 3.70799 
28 1 10.1004 0.668279 0.681868 
29 1 8.58567 2.18804 2.19694 
30 1 9.29203 1.47934 1.49043 
1 1 6.16818 4.61029 6.16789 
2 1 7.68311 3.08652 7.67701 
3 1 6.97606 3.7977 6.97267 
40 1 10.0166 0.755722 10.0545 
41 1 8.49112 2.27567 8.4996 
42 1 9.1946 1.57476 9.21664 
7 1 6.16071 6.18535 4.59585 
8 1 7.68922 7.68876 3.08004 
9 1 6.97588 6.98713 3.78746 
43 1 10.039 10.0378 0.732866 
44 1 8.50734 8.50155 2.26827 
45 1 9.2131 9.20941 1.5608 