LAMMPS (3 Mar 2020)
Reading data file ...
  orthogonal box = (0 0 0) to (11 11.002 11)
  2 by 2 by 2 MPI processor grid
  reading atoms ...
  49 atoms
  read_data CPU = 0.00254014 secs
WARNING: Changed valency_val to valency_boc for X (../reaxc_ffield.cpp:315)
WARNING: Using 'neigh_modify every 1 delay 0 check yes' setting during minimization (../min.cpp:190)
Neighbor list info ...
  update every 1 steps, delay 0 steps, check yes
  max neighbors/atom: 2000, page size: 100000
  master list distance cutoff = 12
  ghost atom cutoff = 12
  binsize = 6, bins = 2 2 2
  2 neighbor lists, perpetual/occasional/extra = 2 0 0
  (1) pair reax/c, perpetual
      attributes: half, newton off, ghost
      pair build: half/bin/newtoff/ghost
      stencil: half/ghost/bin/3d/newtoff
      bin: standard
  (2) fix qeq/reax, perpetual, copy from (1)
      attributes: half, newton off, ghost
      pair build: copy
      stencil: none
      bin: none
Setting up cg style minimization ...
  Unit style    : real
  Current step  : 0
Per MPI rank memory allocation (min/avg/max) = 24.7 | 24.82 | 24.96 Mbytes
Step Temp E_pair E_mol TotEng Press 
       0            0   -8557.0927            0   -8557.0927    117402.99 
     151            0    -8757.708            0    -8757.708      28430.1 
Loop time of 6.78403 on 8 procs for 151 steps with 49 atoms

99.0% CPU use with 8 MPI tasks x no OpenMP threads

Minimization stats:
  Stopping criterion = energy tolerance
  Energy initial, next-to-last, final = 
        -8557.09268151      -8757.7079651     -8757.70803287
  Force two-norm initial, final = 1206.1 57.3066
  Force max component initial, final = 287.84 13.4791
  Final line search alpha, max atom move = 1.53326e-07 2.06669e-06
  Iterations, force evaluations = 151 1358

MPI task timing breakdown:
Section |  min time  |  avg time  |  max time  |%varavg| %total
---------------------------------------------------------------
Pair    | 5.6626     | 5.7247     | 5.8764     |   2.6 | 84.39
Neigh   | 0          | 0          | 0          |   0.0 |  0.00
Comm    | 0.072006   | 0.22351    | 0.28587    |  12.9 |  3.29
Output  | 0.00040867 | 0.00057228 | 0.00093261 |   0.0 |  0.01
Modify  | 0.82145    | 0.82175    | 0.82212    |   0.0 | 12.11
Other   |            | 0.01349    |            |       |  0.20

Nlocal:    6.125 ave 7 max 6 min
Histogram: 7 0 0 0 0 0 0 0 0 1
Nghost:    944.625 ave 953 max 938 min
Histogram: 2 0 0 0 4 0 0 0 0 2
Neighs:    1696.75 ave 1939 max 1659 min
Histogram: 7 0 0 0 0 0 0 0 0 1

Total # of neighbors = 13574
Ave neighs/atom = 277.02
Neighbor list builds = 0
Dangerous builds = 0
WARNING: Using 'neigh_modify every 1 delay 0 check yes' setting during minimization (../min.cpp:190)
Setting up cg style minimization ...
  Unit style    : real
  Current step  : 151
Per MPI rank memory allocation (min/avg/max) = 24.7 | 24.82 | 24.96 Mbytes
Step Temp E_pair E_mol TotEng Press 
     151            0    -8757.708            0    -8757.708      28430.1 
     153            0   -8757.7082            0   -8757.7082    28429.928 
Loop time of 0.193157 on 8 procs for 2 steps with 49 atoms

98.5% CPU use with 8 MPI tasks x no OpenMP threads

Minimization stats:
  Stopping criterion = energy tolerance
  Energy initial, next-to-last, final = 
        -8757.70803309     -8757.70812775     -8757.70820762
  Force two-norm initial, final = 57.3067 56.2813
  Force max component initial, final = 13.4791 11.8018
  Final line search alpha, max atom move = 4.86453e-08 5.74102e-07
  Iterations, force evaluations = 2 39

MPI task timing breakdown:
Section |  min time  |  avg time  |  max time  |%varavg| %total
---------------------------------------------------------------
Pair    | 0.16613    | 0.16793    | 0.17236    |   0.5 | 86.94
Neigh   | 0          | 0          | 0          |   0.0 |  0.00
Comm    | 0.0019144  | 0.0063382  | 0.0081145  |   2.3 |  3.28
Output  | 0          | 0          | 0          |   0.0 |  0.00
Modify  | 0.018451   | 0.018459   | 0.018476   |   0.0 |  9.56
Other   |            | 0.0004318  |            |       |  0.22

Nlocal:    6.125 ave 7 max 6 min
Histogram: 7 0 0 0 0 0 0 0 0 1
Nghost:    944.625 ave 953 max 938 min
Histogram: 2 0 0 0 4 0 0 0 0 2
Neighs:    1696.75 ave 1930 max 1655 min
Histogram: 7 0 0 0 0 0 0 0 0 1

Total # of neighbors = 13574
Ave neighs/atom = 277.02
Neighbor list builds = 0
Dangerous builds = 0
WARNING: Using 'neigh_modify every 1 delay 0 check yes' setting during minimization (../min.cpp:190)
Setting up cg style minimization ...
  Unit style    : real
  Current step  : 153
WARNING: Energy due to 3 extra global DOFs will be included in minimizer energies
Per MPI rank memory allocation (min/avg/max) = 24.7 | 24.82 | 24.96 Mbytes
Step Temp E_pair E_mol TotEng Press Volume 
     153            0   -8757.7082            0   -8757.7082    28429.929     1331.242 
     289            0   -8760.9309            0   -8760.9309    -32.23402    1343.4525 
Loop time of 1.32676 on 8 procs for 136 steps with 49 atoms

99.0% CPU use with 8 MPI tasks x no OpenMP threads

Minimization stats:
  Stopping criterion = energy tolerance
  Energy initial, next-to-last, final = 
        -8757.70820772       -8760.930798     -8760.93085518
  Force two-norm initial, final = 957.77 45.8776
  Force max component initial, final = 562.238 12.0659
  Final line search alpha, max atom move = 1.12436e-06 1.35665e-05
  Iterations, force evaluations = 136 279

MPI task timing breakdown:
Section |  min time  |  avg time  |  max time  |%varavg| %total
---------------------------------------------------------------
Pair    | 1.1652     | 1.1763     | 1.2029     |   1.0 | 88.66
Neigh   | 0          | 0          | 0          |   0.0 |  0.00
Comm    | 0.013062   | 0.039614   | 0.050714   |   5.6 |  2.99
Output  | 0.00028869 | 0.00036618 | 0.00059098 |   0.0 |  0.03
Modify  | 0.10253    | 0.10271    | 0.1028     |   0.0 |  7.74
Other   |            | 0.007742   |            |       |  0.58

Nlocal:    6.125 ave 7 max 6 min
Histogram: 7 0 0 0 0 0 0 0 0 1
Nghost:    944.625 ave 953 max 938 min
Histogram: 2 0 0 0 4 0 0 0 0 2
Neighs:    1696.75 ave 1930 max 1655 min
Histogram: 7 0 0 0 0 0 0 0 0 1

Total # of neighbors = 13574
Ave neighs/atom = 277.02
Neighbor list builds = 0
Dangerous builds = 0
WARNING: Using 'neigh_modify every 1 delay 0 check yes' setting during minimization (../min.cpp:190)
Setting up cg style minimization ...
  Unit style    : real
  Current step  : 289
Per MPI rank memory allocation (min/avg/max) = 24.7 | 24.82 | 24.96 Mbytes
Step Temp E_pair E_mol TotEng Press 
     289            0   -8760.9309            0   -8760.9309   -32.236292 
     296            0   -8760.9324            0   -8760.9324   -29.400874 
Loop time of 0.597695 on 8 procs for 7 steps with 49 atoms

99.0% CPU use with 8 MPI tasks x no OpenMP threads

Minimization stats:
  Stopping criterion = energy tolerance
  Energy initial, next-to-last, final = 
        -8760.93085555     -8760.93234659     -8760.93236735
  Force two-norm initial, final = 45.8505 46.0702
  Force max component initial, final = 12.0659 11.4423
  Final line search alpha, max atom move = 1.3522e-07 1.54724e-06
  Iterations, force evaluations = 7 126

MPI task timing breakdown:
Section |  min time  |  avg time  |  max time  |%varavg| %total
---------------------------------------------------------------
Pair    | 0.50546    | 0.5122     | 0.52528    |   0.8 | 85.70
Neigh   | 0          | 0          | 0          |   0.0 |  0.00
Comm    | 0.010946   | 0.024004   | 0.030793   |   3.6 |  4.02
Output  | 2.4627e-05 | 3.0757e-05 | 4.6618e-05 |   0.0 |  0.01
Modify  | 0.060141   | 0.060188   | 0.060264   |   0.0 | 10.07
Other   |            | 0.001271   |            |       |  0.21

Nlocal:    6.125 ave 7 max 6 min
Histogram: 7 0 0 0 0 0 0 0 0 1
Nghost:    926.625 ave 935 max 920 min
Histogram: 2 0 0 0 4 0 0 0 0 2
Neighs:    1690.75 ave 1920 max 1650 min
Histogram: 7 0 0 0 0 0 0 0 0 1

Total # of neighbors = 13526
Ave neighs/atom = 276.041
Neighbor list builds = 0
Dangerous builds = 0
WARNING: Using 'neigh_modify every 1 delay 0 check yes' setting during minimization (../min.cpp:190)
Setting up cg style minimization ...
  Unit style    : real
  Current step  : 296
WARNING: Energy due to 3 extra global DOFs will be included in minimizer energies
Per MPI rank memory allocation (min/avg/max) = 24.7 | 24.82 | 24.96 Mbytes
Step Temp E_pair E_mol TotEng Press Volume 
     296            0   -8760.9324            0   -8760.9324   -29.401534    1343.4525 
     298            0   -8760.9325            0   -8760.9325   -22.864896    1343.4522 
Loop time of 0.128327 on 8 procs for 2 steps with 49 atoms

99.1% CPU use with 8 MPI tasks x no OpenMP threads

Minimization stats:
  Stopping criterion = energy tolerance
  Energy initial, next-to-last, final = 
        -8760.93236759     -8760.93245929     -8760.93249295
  Force two-norm initial, final = 46.0961 50.7171
  Force max component initial, final = 11.4423 10.9926
  Final line search alpha, max atom move = 2.5042e-08 2.75277e-07
  Iterations, force evaluations = 2 27

MPI task timing breakdown:
Section |  min time  |  avg time  |  max time  |%varavg| %total
---------------------------------------------------------------
Pair    | 0.1117     | 0.11365    | 0.11674    |   0.4 | 88.57
Neigh   | 0          | 0          | 0          |   0.0 |  0.00
Comm    | 0.0012867  | 0.0043947  | 0.006328   |   2.0 |  3.42
Output  | 0          | 0          | 0          |   0.0 |  0.00
Modify  | 0.0095249  | 0.0095567  | 0.0095746  |   0.0 |  7.45
Other   |            | 0.0007218  |            |       |  0.56

Nlocal:    6.125 ave 7 max 6 min
Histogram: 7 0 0 0 0 0 0 0 0 1
Nghost:    926.625 ave 935 max 920 min
Histogram: 2 0 0 0 4 0 0 0 0 2
Neighs:    1690.75 ave 1920 max 1650 min
Histogram: 7 0 0 0 0 0 0 0 0 1

Total # of neighbors = 13526
Ave neighs/atom = 276.041
Neighbor list builds = 0
Dangerous builds = 0
WARNING: Using 'neigh_modify every 1 delay 0 check yes' setting during minimization (../min.cpp:190)
Setting up cg style minimization ...
  Unit style    : real
  Current step  : 298
Per MPI rank memory allocation (min/avg/max) = 24.7 | 24.82 | 24.96 Mbytes
Step Temp E_pair E_mol TotEng Press 
     298            0   -8760.9325            0   -8760.9325   -22.864792 
     299            0   -8760.9325            0   -8760.9325   -22.795776 
Loop time of 0.102189 on 8 procs for 1 steps with 49 atoms

98.6% CPU use with 8 MPI tasks x no OpenMP threads

Minimization stats:
  Stopping criterion = energy tolerance
  Energy initial, next-to-last, final = 
        -8760.93249316     -8760.93249316     -8760.93253954
  Force two-norm initial, final = 50.6975 46.5378
  Force max component initial, final = 10.9926 12.5773
  Final line search alpha, max atom move = 3.47023e-08 4.36462e-07
  Iterations, force evaluations = 1 21

MPI task timing breakdown:
Section |  min time  |  avg time  |  max time  |%varavg| %total
---------------------------------------------------------------
Pair    | 0.087037   | 0.088498   | 0.090824   |   0.3 | 86.60
Neigh   | 0          | 0          | 0          |   0.0 |  0.00
Comm    | 0.0010553  | 0.0033805  | 0.0048431  |   1.7 |  3.31
Output  | 0          | 0          | 0          |   0.0 |  0.00
Modify  | 0.010037   | 0.010047   | 0.01006    |   0.0 |  9.83
Other   |            | 0.000263   |            |       |  0.26

Nlocal:    6.125 ave 7 max 6 min
Histogram: 7 0 0 0 0 0 0 0 0 1
Nghost:    926.625 ave 935 max 920 min
Histogram: 2 0 0 0 4 0 0 0 0 2
Neighs:    1690.75 ave 1920 max 1650 min
Histogram: 7 0 0 0 0 0 0 0 0 1

Total # of neighbors = 13526
Ave neighs/atom = 276.041
Neighbor list builds = 0
Dangerous builds = 0
Setting up Verlet run ...
  Unit style    : real
  Current step  : 0
  Time step     : 0.25
Per MPI rank memory allocation (min/avg/max) = 23.58 | 23.69 | 23.83 Mbytes
Step Temp TotEng KinEng PotEng Press 
       0          300   -8718.0089    42.923665   -8760.9325    1437.7236 
     200    216.65497   -8699.5791    30.998751   -8730.5778   -36184.094 
     400    372.33074   -8672.6217    53.272666   -8725.8943   -9291.8821 
     600    289.66266   -8676.8458    41.444609   -8718.2904   -520.85156 
     800    271.43284   -8686.1318    38.836307   -8724.9681     10312.39 
    1000    370.09974   -8672.4911    52.953457   -8725.4445     15461.92 
    1200    303.95755   -8681.3599    43.489907   -8724.8498    52003.283 
    1400     320.8676   -8671.7772    45.909378   -8717.6866   -26200.537 
    1600    317.91603   -8672.2697     45.48707   -8717.7568    25894.894 
    1800    282.72072   -8681.8834    40.451365   -8722.3347    20153.045 
    2000    330.74159   -8672.1021    47.322137   -8719.4242    18306.475 
    2200    411.53156   -8655.0454    58.881476   -8713.9269   -36557.727 
    2400    321.28783   -8677.3599    45.969504   -8723.3294    7732.6245 
    2600    278.63651   -8685.3787       39.867   -8725.2457    4312.6726 
    2800    340.90102   -8665.4662    48.775736    -8714.242   -15624.822 
    3000    351.25213   -8675.2616    50.256762   -8725.5184   -21218.275 
    3200    294.84171   -8680.4522    42.185623   -8722.6378   -27105.614 
    3400    289.99756   -8677.7361    41.492526   -8719.2286   -26238.517 
    3600    305.55606   -8671.1766     43.71862   -8714.8952   -841.75438 
    3800    316.99364   -8676.3142    45.355096   -8721.6693    43183.554 
    4000    275.66611   -8682.5781    39.441999   -8722.0201    17266.178 
    4200    337.41682   -8667.4262    48.277222   -8715.7034   -4360.8309 
    4400    257.99692   -8685.7102    36.913911   -8722.6241   -23260.241 
    4600    336.91162   -8679.0093    48.204938   -8727.2142    21497.004 
    4800    280.54347   -8668.6739    40.139846   -8708.8137    12314.168 
    5000    260.20611   -8680.6002    37.229999   -8717.8302     11850.69 
    5200    264.69196   -8698.2934     37.87183   -8736.1652    17996.812 
    5400    286.37075   -8683.0785    40.973606   -8724.0521    -17103.51 
    5600     315.3039   -8670.4993     45.11333   -8715.6126     2422.464 
    5800    246.30301   -8684.8904    35.240759   -8720.1311    6684.6169 
    6000    261.68252   -8686.6328    37.441243    -8724.074   -38366.514 
    6200    278.76465   -8677.8581    39.885334   -8717.7435   -31549.506 
    6400    345.40919   -8659.3305    49.420761   -8708.7513    29687.542 
    6600     264.0592   -8682.6464    37.781295   -8720.4277    43886.282 
    6800    271.42589   -8678.3545    38.835313   -8717.1898   -2660.2451 
    7000     328.1303   -8672.8548    46.948516   -8719.8034   -28994.718 
    7200    286.49545   -8684.6626    40.991449    -8725.654    56708.107 
    7400    283.22586   -8684.1713     40.52364    -8724.695   -3389.3518 
    7600    301.03072   -8674.0458    43.071139   -8717.1169   -25121.186 
    7800    256.71062   -8682.2701    36.729868        -8719   -2938.9785 
    8000    353.12635   -8664.3915    50.524924   -8714.9164    8291.7814 
    8200    257.67401   -8679.7193    36.867709    -8716.587   -3168.2462 
    8400    321.82661   -8676.8644    46.046591    -8722.911   -27731.361 
    8600     244.0268   -8693.4181    34.915082   -8728.3331    21271.914 
    8800    339.90465   -8681.0252    48.633178   -8729.6583    36311.826 
    9000    291.22639   -8675.0184    41.668346   -8716.6868   -36318.444 
    9200    350.78383   -8674.9941    50.189758   -8725.1838    3090.4706 
    9400    245.61608   -8686.6056    35.142474    -8721.748    20381.793 
    9600    312.79743   -8670.0488    44.754707   -8714.8035   -4534.0598 
    9800    311.57982   -8658.3129    44.580493   -8702.8934    4923.3845 
   10000    302.93451   -8679.4455    43.343531    -8722.789   -18541.321 
   10200    261.46662   -8684.8494    37.410352   -8722.2598   -54901.919 
   10400    341.15294   -8667.7237    48.811782   -8716.5355   -16106.978 
   10600    301.53014   -8679.3926    43.142595   -8722.5351    48446.105 
   10800    300.78943    -8683.649    43.036615   -8726.6857   -15987.351 
   11000    330.26681    -8670.835    47.254205   -8718.0892   -1371.0778 
   11200    262.14206   -8686.1625    37.506993   -8723.6695   -20465.657 
   11400    257.41664    -8682.016    36.830885   -8718.8469   -24220.276 
   11600    315.51362   -8671.9399    45.143336   -8717.0832   -58520.842 
   11800     266.3211   -8688.8402    38.104925   -8726.9452   -51168.543 
   12000    277.55345   -8685.9387    39.712038   -8725.6508    37992.596 
   12200    244.31762   -8674.6083    34.956692    -8709.565   -10637.681 
   12400    336.69141   -8672.1847     48.17343   -8720.3581    20880.518 
   12600    291.60061   -8684.6754     41.72189   -8726.3973     12125.27 
   12800    359.65378   -8672.8606    51.458861   -8724.3194    13252.807 
   13000    234.01869   -8688.4226    33.483133   -8721.9057    22192.233 
   13200    259.73612   -8689.6402    37.162754   -8726.8029    -14965.96 
   13400    267.13965   -8679.9637    38.222042   -8718.1857   -46376.733 
   13600    289.08929   -8675.4368    41.362572   -8716.7994   -13394.642 
   13800    324.94359    -8662.322    46.492565   -8708.8146    31099.849 
   14000    298.94576   -8682.6648    42.772825   -8725.4376   -196.00517 
   14200    339.13683    -8677.638    48.523318   -8726.1613    15259.253 
   14400    355.41247   -8670.3586    50.852018   -8721.2106   -21557.187 
   14600    401.92161   -8659.0151    57.506495   -8716.5216    19527.114 
   14800    307.00126   -8680.8918    43.925397   -8724.8172     46314.52 
   15000    302.53129   -8671.8044    43.285838   -8715.0902    5617.4244 
   15200    342.08826   -8675.4291    48.945605   -8724.3747   -2465.6023 
   15400    233.68624   -8694.6912    33.435566   -8728.1267    8428.1379 
   15600    251.77646        -8690    36.023894   -8726.0239    40884.901 
   15800    352.25794   -8671.4368    50.400672   -8721.8375    7183.9765 
   16000    320.63307   -8679.9884    45.875822   -8725.8642    72255.898 
   16200    353.18345   -8673.4201    50.533093   -8723.9532   -16688.813 
   16400    332.13912   -8676.4977    47.522094   -8724.0198    11062.757 
   16600     342.5636   -8683.3396    49.013616   -8732.3532   -15389.122 
   16800    363.32126   -8670.2458      51.9836   -8722.2294   -29167.451 
   17000    354.25548   -8675.1537    50.686479   -8725.8401    11371.117 
   17200     285.6527   -8688.4015    40.870869   -8729.2724    -22039.72 
   17400    302.90277   -8673.3309    43.338989   -8716.6699    -12454.97 
   17600    296.01983   -8674.9495    42.354186   -8717.3037   -25887.791 
   17800    285.74036    -8690.368    40.883411   -8731.2514   -1660.0697 
   18000    325.07136   -8673.3515    46.510846   -8719.8624    10686.419 
   18200    329.93755   -8670.1597    47.207096   -8717.3668   -15371.233 
   18400    286.25231   -8684.8301    40.956661   -8725.7868     15361.46 
   18600    252.97257    -8680.535    36.195032   -8716.7301   -27260.342 
   18800    221.28784   -8676.5843    31.661617   -8708.2459   -69851.419 
   19000    360.05577   -8672.9693    51.516377   -8724.4857    4043.7417 
   19200    250.43563   -8690.3806    35.832051   -8726.2126    26323.848 
   19400    348.25556   -8677.4231    49.828016   -8727.2512    12775.973 
   19600    255.99416    -8678.131    36.627359   -8714.7584   -24415.546 
   19800    305.90883   -8669.5313    43.769094   -8713.3004    -6352.861 
   20000    279.51189   -8676.4889    39.992249   -8716.4812    18186.681 
   20200    309.54448   -8682.6742    44.289278   -8726.9634   -33263.681 
   20400    344.46518   -8660.5177    49.285693   -8709.8034    29068.091 
   20600    368.67911   -8669.9867    52.750195   -8722.7369    7156.4003 
   20800    271.57141   -8680.7421    38.856134   -8719.5983   -37761.694 
   21000    289.91333   -8680.5414    41.480476   -8722.0218     26958.31 
   21200    350.17751   -8668.8271    50.103006   -8718.9302     52274.69 
   21400    286.61837   -8685.0703    41.009036   -8726.0793    41363.761 
   21600    296.34961   -8680.1403    42.401371   -8722.5417   -12650.834 
   21800    337.36515   -8678.1642    48.269829    -8726.434    6819.5742 
   22000    324.78774   -8678.0744    46.470267   -8724.5447   -6642.9538 
   22200    364.83309   -8667.0573    52.199911   -8719.2572   -9094.6617 
   22400    280.26196   -8682.2052    40.099568   -8722.3047    -30692.52 
   22600    290.03884    -8676.969    41.498433   -8718.4675   -11089.085 
   22800    336.96126   -8659.6316     48.21204   -8707.8436   -16503.412 
   23000    341.01418   -8674.0988    48.791927   -8722.8907    23196.969 
   23200     306.3622   -8681.0588    43.833961   -8724.8928    39964.041 
   23400    344.89223   -8667.7831    49.346795   -8717.1299    36864.164 
   23600    348.71714   -8668.7725    49.894059   -8718.6665   -45209.404 
   23800    307.29136   -8682.8679    43.966904   -8726.8348   -35420.516 
   24000    292.53828   -8678.6926     41.85605   -8720.5487    24402.528 
   24200    317.99847   -8672.8519    45.498865   -8718.3507    32018.797 
   24400    251.36783   -8682.9149    35.965428   -8718.8803   -7858.7712 
   24600    333.32226   -8670.7341    47.691376   -8718.4254   -8576.0051 
   24800    288.73482   -8675.7754    41.311856   -8717.0872    81198.142 
   25000     319.6442   -8678.8871    45.734335   -8724.6215    24598.517 
   25200    354.27438   -8676.4628    50.689182    -8727.152   -33737.199 
   25400     327.8567    -8673.339     46.90937   -8720.2483   -25885.915 
   25600    267.23666   -8684.7011    38.235923    -8722.937    31240.092 
   25800    339.55035   -8676.8916    48.582485   -8725.4741    44189.832 
   26000    293.35983   -8676.7244    41.973596    -8718.698    9304.3449 
   26200    319.50925   -8669.4655    45.715026   -8715.1806    9579.2231 
   26400    270.48971   -8689.0595    38.701365   -8727.7609   -43949.519 
   26600    251.02296   -8672.9379    35.916084    -8708.854   -30667.388 
   26800    294.65321   -8673.8071    42.158652   -8715.9658    -15267.67 
   27000    276.57994   -8688.7897    39.572749   -8728.3625   -5761.8807 
   27200    269.81752   -8675.3368    38.605189    -8713.942    -6924.587 
   27400    347.19113   -8673.5502    49.675719   -8723.2259   -25552.809 
   27600    283.43483    -8682.188    40.553539   -8722.7415    9721.9325 
   27800     352.9815    -8672.722    50.504199   -8723.2262   -3456.3034 
   28000    324.66466   -8679.8976    46.452657   -8726.3503    14589.735 
   28200    302.87235   -8685.6273    43.334638   -8728.9619     12554.46 
   28400    345.61387   -8670.4355    49.450046   -8719.8855    7765.7763 
   28600    331.46028   -8674.3856    47.424966   -8721.8106    3817.4488 
   28800    274.81545   -8688.8445    39.320287   -8728.1648    42433.755 
   29000    308.16809   -8677.8357    44.092345   -8721.9281   -44962.359 
   29200    360.59553   -8668.9519    51.593605   -8720.5455    3887.2253 
   29400    376.74703   -8665.1383    53.904544   -8719.0428     11714.87 
   29600    274.75945   -8681.3922    39.312275   -8720.7045    20991.969 
   29800    347.16002   -8673.3943    49.671267   -8723.0655   -38966.711 
   30000    308.46092    -8670.802    44.134243   -8714.9362   -23612.266 
   30200    286.02483   -8687.2883    40.924114   -8728.2124   -26578.738 
   30400     279.2916   -8674.3076    39.960731   -8714.2683     47586.65 
   30600    278.71414   -8682.3278    39.878107   -8722.2059   -33527.033 
   30800    277.14791     -8686.81    39.654014    -8726.464   -7959.6565 
   31000    303.57225   -8678.4886    43.434778   -8721.9234    8220.9745 
   31200    343.66632   -8663.8545    49.171393   -8713.0259    16390.319 
   31400    289.48681   -8680.7643    41.419449   -8722.1838    7673.7428 
   31600    351.52286   -8677.2449    50.295498   -8727.5404   -34140.594 
   31800    305.01869   -8667.6806    43.641733   -8711.3224   -36641.129 
   32000    345.46133   -8669.8702    49.428222   -8719.2984    7388.5135 
   32200    314.20862   -8685.1137    44.956619   -8730.0703    -692.9525 
   32400    369.18272   -8670.3315    52.822251   -8723.1538   -10627.457 
   32600    321.68348   -8673.8119    46.026113    -8719.838   -31499.353 
   32800    314.20255   -8681.8484    44.955749   -8726.8042    6593.4441 
   33000    263.66382    -8686.185    37.724725   -8723.9097   -18352.691 
   33200     281.4372   -8669.4013     40.26772    -8709.669    17124.637 
   33400     290.1996   -8678.3903    41.521434   -8719.9117   -7293.7685 
   33600    328.45873   -8680.9857    46.995508   -8727.9812    -12980.81 
   33800    356.77364   -8669.1124    51.046774   -8720.1591   -13721.266 
   34000    250.84192   -8682.0735    35.890181   -8717.9637   -34661.265 
   34200    341.85175   -8681.6161    48.911766   -8730.5279    25241.996 
   34400    289.96664   -8679.4128    41.488103   -8720.9009    10647.272 
   34600    294.39995   -8669.0836    42.122415    -8711.206    25773.945 
   34800    248.16364   -8684.5277    35.506976   -8720.0347    21314.656 
   35000    281.75921   -8678.8137    40.313792   -8719.1275    9044.9965 
   35200    333.69293   -8673.0355    47.744411   -8720.7799   -6012.9769 
   35400    281.06793   -8682.7094    40.214885   -8722.9242    30578.439 
   35600    314.78086   -8670.4377    45.038494   -8715.4762   -31001.779 
   35800    281.43121   -8676.8242    40.266863   -8717.0911    37454.929 
   36000    281.25165    -8682.023    40.241172   -8722.2642     4976.932 
   36200    285.24515   -8679.5054    40.812558   -8720.3179    9654.7544 
   36400    293.99656   -8664.8757      42.0647   -8706.9404   -13144.324 
   36600    259.43141    -8680.073    37.119156   -8717.1922    77362.888 
   36800    272.70362   -8681.5109    39.018129    -8720.529   -1995.9467 
   37000    317.87828   -8664.1325    45.481668   -8709.6142   -10714.462 
   37200    285.08218   -8676.4263     40.78924   -8717.2155    24405.247 
   37400    297.81538    -8679.672    42.611091   -8722.2831   -13506.626 
   37600    271.79956   -8682.4347    38.888777   -8721.3235    21467.475 
   37800    326.95922   -8666.1513     46.78096   -8712.9323    8440.9663 
   38000    272.25886    -8682.972    38.954494   -8721.9265   -19078.201 
   38200    280.29708   -8679.1234    40.104592    -8719.228     8917.128 
   38400    365.82623   -8671.5604    52.342008   -8723.9024    8032.7305 
   38600    263.13246   -8685.5684    37.648698   -8723.2171    4445.9065 
   38800    363.12918   -8671.2806    51.956117   -8723.2367   -519.07355 
   39000    279.06032   -8686.1796    39.927639   -8726.1072    9438.7111 
   39200    268.11652   -8687.3479    38.361813   -8725.7097   -10348.712 
   39400    257.70357   -8675.5186    36.871939   -8712.3905   -2761.4591 
   39600    319.15354   -8671.8893    45.664132   -8717.5534   -17954.379 
   39800    282.64117   -8681.0569    40.439983   -8721.4969    14553.065 
   40000    315.26191   -8678.8923    45.107322   -8723.9996    -2270.658 
   40200    339.31163   -8665.2221    48.548329   -8713.7704    30506.247 
   40400    285.72313   -8684.1509    40.880945   -8725.0318   -1544.5262 
   40600    283.10027   -8678.1163     40.50567    -8718.622   -6985.4686 
   40800    340.58489   -8672.5412    48.730505   -8721.2717     -27577.1 
   41000    284.17909   -8679.2372    40.660027   -8719.8972   -28037.537 
   41200    268.91547    -8675.356    38.476126   -8713.8321    55028.824 
   41400    264.08544    -8681.562     37.78505   -8719.3471    15138.161 
   41600    273.43168     -8679.41      39.1223   -8718.5323   -19089.672 
   41800    293.45344   -8679.3699    41.986991   -8721.3569    17379.449 
   42000    262.61981   -8682.7519    37.575349   -8720.3273    39011.694 
   42200    271.18939    -8682.998    38.801475   -8721.7994    -28046.33 
   42400    318.46753   -8667.3705    45.565978   -8712.9365   -2740.0913 
   42600    298.56782   -8679.5921     42.71875   -8722.3109    -27591.01 
   42800     292.2255     -8677.36    41.811298   -8719.1713   -21225.322 
   43000    261.02362   -8683.0403    37.346968   -8720.3873    8326.2831 
   43200    247.28146   -8688.6052    35.380755   -8723.9859    2041.4603 
   43400    301.71416   -8678.1132    43.168925   -8721.2822    -38244.07 
   43600    311.64881    -8677.344    44.590363   -8721.9344    8198.7376 
   43800    372.26835    -8664.727     53.26374   -8717.9907   -25944.879 
   44000    279.87477   -8683.1716     40.04417   -8723.2158    32660.518 
   44200    266.58172   -8679.6427    38.142215   -8717.7849    12162.319 
   44400    330.83528   -8662.1264    47.335542   -8709.4619    -30971.21 
   44600    317.27157   -8675.0223    45.394862   -8720.4172    22431.676 
   44800    270.48078   -8682.9972    38.700087   -8721.6973    5062.4273 
   45000    357.47326   -8667.2399    51.146874   -8718.3868   -40262.893 
   45200    298.64349   -8678.4592    42.729577   -8721.1888    20715.077 
   45400    287.24392   -8684.5079    41.098539   -8725.6064   -9913.4717 
   45600    303.01795   -8671.9911    43.355469   -8715.3466   -25282.445 
   45800    310.66598   -8668.4919    44.449742   -8712.9417    17875.031 
   46000    301.28747   -8676.9309    43.107874   -8720.0387   -22413.974 
   46200    245.60673   -8687.8158    35.141137   -8722.9569   -13219.766 
   46400    295.40454   -8678.0537    42.266152   -8720.3199    9849.7767 
   46600    271.97714   -8681.5106    38.914185   -8720.4247   -8103.0043 
   46800    253.24634   -8691.8221    36.234203   -8728.0563    12901.558 
   47000    353.58597   -8675.8108    50.590685   -8726.4015    3445.8339 
   47200    297.87052   -8678.9001     42.61898    -8721.519    24409.757 
   47400    350.66188   -8677.3027    50.172311    -8727.475    34313.562 
   47600    271.01698   -8684.3076    38.776807   -8723.0844    13289.115 
   47800    318.98215   -8673.5543    45.639609   -8719.1939    18658.981 
   48000    287.38252   -8671.6166    41.118369    -8712.735   -12103.672 
   48200    290.38598   -8683.3297    41.548101   -8724.8778    16044.301 
   48400    353.36854   -8673.1875    50.559575    -8723.747    8780.4136 
   48600    241.24533    -8683.744    34.517112   -8718.2611   -13856.465 
   48800    355.36905   -8675.0802    50.845807    -8725.926    1859.1802 
   49000    292.70294   -8682.9844    41.879609    -8724.864    8596.1435 
   49200    299.69759   -8683.4001    42.880397   -8726.2805    43270.477 
   49400    338.67532   -8670.3273    48.457286   -8718.7846    67220.257 
   49600    336.06097   -8674.6204    48.083228   -8722.7036    17101.954 
   49800    312.29452   -8674.5239    44.682751   -8719.2067   -8644.5753 
   50000    239.60507   -8689.2304    34.282426   -8723.5128   -22961.655 
   50200    302.88423   -8681.8888    43.336336   -8725.2251     5104.502 
   50400    281.54288   -8679.9699     40.28284   -8720.2527   -9398.2033 
   50600    234.62117    -8685.928    33.569334   -8719.4974    16301.078 
   50800    339.74854   -8671.4584    48.610841   -8720.0693   -3369.4761 
   51000    257.09521   -8684.6772    36.784895   -8721.4621    29979.869 
   51200    324.48963   -8672.3665    46.427613   -8718.7941    46320.146 
   51400    339.29215   -8668.7595    48.545542   -8717.3051    1304.7715 
   51600    273.96257   -8680.0543    39.198258   -8719.2525    6283.1839 
   51800    273.31839   -8679.5635    39.106089   -8718.6696    41605.726 
   52000    299.76389   -8668.3558    42.889882   -8711.2457     8686.313 
   52200    241.07628    -8687.713    34.492925   -8722.2059   -9069.1343 
   52400    295.35684    -8678.714    42.259327   -8720.9733   -23888.699 
   52600    351.78678   -8667.0791     50.33326   -8717.4124   -14467.225 
   52800    309.39018   -8672.3918    44.267201    -8716.659   -25758.078 
   53000    244.11451   -8682.0466    34.927631   -8716.9743     29070.18 
   53200    300.31972   -8668.5328     42.96941   -8711.5023    26485.309 
   53400    318.29694    -8662.961    45.541571   -8708.5025     29550.11 
   53600    294.98527   -8680.9764    42.206163   -8723.1826    6974.9542 
   53800    271.71651   -8682.7788    38.876895   -8721.6556    -15111.14 
   54000    354.94406     -8668.84       50.785    -8719.625   -4152.6417 
   54200    239.41349   -8685.3235    34.255015   -8719.5785    37064.417 
   54400    266.40724   -8681.0214     38.11725   -8719.1386    26498.588 
   54600    306.92026   -8671.9264    43.913808   -8715.8402    44242.559 
   54800    233.02249   -8687.0833    33.340598   -8720.4239   -15653.925 
   55000    310.75754   -8679.2393    44.462841   -8723.7021   -3275.0674 
   55200    315.65845   -8677.8697    45.164058   -8723.0337    8891.8161 
   55400    334.89448   -8674.2614    47.916329   -8722.1777    21834.251 
   55600    302.99078   -8679.5741    43.351582   -8722.9257    17102.378 
   55800    300.90099   -8675.7175    43.052578   -8718.7701     11706.62 
   56000    263.74148   -8670.6146    37.735836   -8708.3504    25733.422 
   56200    273.76293   -8681.9499    39.169694   -8721.1196    29396.044 
   56400    273.63013   -8682.5619    39.150693   -8721.7126    8168.1692 
   56600    275.06502   -8675.4709    39.355995   -8714.8269    56440.564 
   56800    273.96684   -8683.8063    39.198869   -8723.0052    36968.157 
   57000    279.51108   -8679.2215    39.992132   -8719.2137   -3339.6441 
   57200    331.84057   -8668.8235    47.479378   -8716.3029   -44.094228 
   57400    277.06825   -8686.6694    39.642615    -8726.312   -10185.286 
   57600    280.67794   -8685.5728    40.159086   -8725.7319    14248.185 
   57800     321.0457   -8674.6656     45.93486   -8720.6005    5086.5182 
   58000    291.37536   -8677.2962    41.689661   -8718.9859   -2737.4052 
   58200    254.69873   -8690.3635     36.44201   -8726.8055    14969.573 
   58400    311.11114   -8675.1435    44.513435    -8719.657    18319.076 
   58600    306.63129   -8676.0944    43.872463   -8719.9669   -8585.1756 
   58800     260.4986   -8691.3828    37.271849   -8728.6546    8866.6398 
   59000    323.77247   -8673.3946    46.325003   -8719.7196   -14807.813 
   59200    273.16591   -8674.7195    39.084273   -8713.8038   -34699.966 
   59400    247.89998   -8689.5508    35.469252   -8725.0201   -10351.681 
   59600    254.56208   -8682.0885    36.422457    -8718.511   -8850.9662 
   59800    277.27969   -8676.8194    39.672868   -8716.4923   -36649.755 
   60000     254.6594    -8682.794    36.436382   -8719.2303   -22370.942 
   60200    255.28947   -8689.7596    36.526532   -8726.2861    11562.413 
   60400    328.51911   -8671.1277    47.004147   -8718.1319    20374.971 
   60600    285.52771   -8680.9063    40.852985   -8721.7593    9676.5043 
   60800    296.35998   -8678.7056    42.402855   -8721.1084     10435.03 
   61000     322.9909   -8671.5875    46.213177   -8717.8007   -22314.911 
   61200    267.56129   -8683.7654     38.28237   -8722.0478   -8415.7486 
   61400    309.85302   -8673.3526    44.333424   -8717.6861    21866.582 
   61600    331.11043   -8667.7764    47.374911   -8715.1513    25803.589 
   61800    303.08263   -8679.7811    43.364724   -8723.1459    5106.6331 
   62000    307.53378   -8674.7454    44.001589    -8718.747   -27930.806 
   62200    285.30731   -8692.2277    40.821451   -8733.0491    56734.557 
   62400    304.75681   -8678.3726    43.604264   -8721.9769   -34948.868 
   62600    340.00692   -8675.7927    48.647811   -8724.4405    2825.8068 
   62800    230.80139   -8690.3882    33.022805    -8723.411   -276.75076 
   63000     263.7753   -8673.9059    37.740675   -8711.6466    43031.202 
   63200    285.13121   -8674.9486    40.796256   -8715.7448    21695.282 
   63400    257.35498   -8687.3945    36.822063   -8724.2166    8301.6611 
   63600    356.15249   -8675.8633      50.9579   -8726.8212   -2568.8179 
   63800    366.13715   -8668.7525    52.386494    -8721.139    -36698.23 
   64000    266.34115   -8685.3792    38.107795    -8723.487   -45313.411 
   64200    284.52039   -8679.6748    40.708859   -8720.3837    1440.9755 
   64400    318.13538   -8671.9684    45.518455   -8717.4868    40669.904 
   64600    293.55772   -8682.2208     42.00191   -8724.2227   -20910.338 
   64800     334.5812   -8682.8797    47.871504   -8730.7512   -52959.687 
   65000    314.21237   -8670.1923    44.957154   -8715.1495   -33054.083 
   65200    258.33945   -8683.4161     36.96292    -8720.379    12387.187 
   65400    313.44331   -8680.9269    44.847119    -8725.774    12748.077 
   65600    319.09387   -8674.4864    45.655594    -8720.142   -34699.355 
   65800    308.07308   -8668.9117    44.078751   -8712.9904   -34166.426 
   66000    268.90328   -8683.8621    38.474381   -8722.3365    -21077.87 
   66200    350.12421   -8672.4974    50.095381   -8722.5927    2653.4428 
   66400    282.90475   -8672.9399    40.477695   -8713.4176    11118.504 
   66600    303.41504   -8678.5926    43.412285   -8722.0049    22496.939 
   66800      333.576   -8668.8045    47.727681   -8716.5322    36041.475 
   67000    272.92857   -8671.4158    39.050315   -8710.4661   -32213.973 
   67200     319.9136   -8678.5592    45.772881   -8724.3321    32442.143 
   67400    283.47725   -8687.3948    40.559609   -8727.9544    3022.9258 
   67600    281.45257   -8684.2967    40.269919   -8724.5666   -2302.8563 
   67800    250.04064    -8677.983    35.775535   -8713.7585    -18532.37 
   68000    331.96672   -8679.4528    47.497427   -8726.9502   -41684.228 
   68200    203.99538   -8690.5676    29.187431    -8719.755    30888.764 
   68400    324.83646    -8673.973    46.477237   -8720.4503   -27904.417 
   68600     223.7853   -8682.6915    32.018951   -8714.7104   -10215.047 
   68800    299.04452   -8672.5818    42.786956   -8715.3687   -4376.5219 
   69000    265.26625   -8673.7516    37.953998   -8711.7056   -59677.447 
   69200    303.81923   -8683.0206    43.470115   -8726.4908    51176.104 
   69400    278.67267   -8681.0763    39.872175   -8720.9485   -50163.039 
   69600     364.6952   -8669.6004    52.180181   -8721.7806    -947.2093 
   69800    265.26678    -8682.552    37.954074   -8720.5061    51966.395 
   70000    270.98438   -8694.1525    38.772143   -8732.9247   -8626.4725 
   70200    231.02843    -8688.968    33.055289   -8722.0233   -16662.578 
   70400    341.01035   -8673.8988     48.79138   -8722.6902    16799.682 
   70600    298.01367   -8674.8143    42.639462   -8717.4538   -8400.5607 
   70800    253.84383   -8689.2085    36.319691   -8725.5282   -7140.2732 
   71000    277.70685   -8667.8967    39.733986   -8707.6307   -11667.072 
   71200     329.2103   -8676.3976    47.103042   -8723.5006    7224.3105 
   71400    301.01452   -8685.3696     43.06882   -8728.4385    9317.2109 
   71600    328.26439   -8669.3578    46.967702   -8716.3255     52919.04 
   71800    303.47897   -8672.1641    43.421432   -8715.5856    35825.084 
   72000    267.37176   -8689.1172    38.255252   -8727.3724    43026.128 
   72200    308.85729   -8679.7987    44.190955   -8723.9897    47.683704 
   72400    276.24093   -8671.2838    39.524244   -8710.8081   -29656.086 
   72600    253.64069   -8682.7943    36.290626   -8719.0849   -12793.516 
   72800    272.83609   -8685.7637    39.037082   -8724.8007    7762.0598 
   73000    303.18944    -8668.246    43.380007    -8711.626   -8815.0198 
   73200    292.73858   -8682.1314    41.884709   -8724.0161    33635.057 
   73400    297.60498   -8682.4543    42.580988   -8725.0353   -54977.072 
   73600    335.40564   -8677.0119    47.989465   -8725.0014    41485.782 
   73800    291.75545   -8678.2975    41.744044   -8720.0415    -38538.54 
   74000    377.44886   -8666.9326    54.004962   -8720.9375    26687.039 
   74200    270.98929   -8685.2497    38.772845   -8724.0225   -10446.276 
   74400    305.14892    -8675.776    43.660367   -8719.4364    33660.571 
   74600    302.96128   -8657.6146    43.347361   -8700.9619   -28939.604 
   74800    300.90288   -8674.2443    43.052848   -8717.2971   -8481.2266 
   75000    306.48258   -8676.4997    43.851185   -8720.3509     31330.13 
   75200    343.02707   -8668.5025    49.079929   -8717.5825   -3935.8144 
   75400    336.80635   -8685.8652    48.189877   -8734.0551    59832.319 
   75600    327.04933    -8682.089    46.793852   -8728.8828    -43615.54 
   75800    314.68904   -8673.0215    45.025356   -8718.0469    32806.936 
   76000      362.725   -8677.3115    51.898287   -8729.2098   -3789.6028 
   76200    272.43998   -8691.9485    38.980408   -8730.9289   -15441.659 
   76400    303.80949   -8678.1974    43.468723   -8721.6661   -30372.308 
   76600    303.99556   -8672.5785    43.495345   -8716.0738    10816.203 
   76800    318.74789   -8674.9259    45.606092    -8720.532   -21752.839 
   77000    268.06511   -8683.5329    38.354457   -8721.8874     626.6987 
   77200    333.61004   -8674.6671    47.732551   -8722.3996   -55078.738 
   77400    265.88717     -8680.23    38.042838   -8718.2728    14498.494 
   77600    238.72287   -8687.1355    34.156201   -8721.2917    -39542.43 
   77800    323.99538   -8673.3817    46.356897   -8719.7386    29054.428 
   78000    264.27045   -8681.2904    37.811521   -8719.1019   -29631.541 
   78200    253.82298   -8696.8394    36.316708   -8733.1561   -1961.8607 
   78400    285.70474   -8680.6371    40.878315   -8721.5154    9464.5592 
   78600    313.39056   -8673.5911    44.839571   -8718.4306   -34030.993 
   78800    256.92337   -8684.4916    36.760309   -8721.2519    -25985.57 
   79000     264.3097   -8682.7689    37.817137    -8720.586    15300.942 
   79200    293.57595   -8671.2507    42.004519   -8713.2552    40832.306 
   79400     310.1681   -8681.7978    44.378505   -8726.1763    34861.351 
   79600    273.09283   -8686.2386    39.073817   -8725.3124    62180.305 
   79800     325.8265    -8679.068    46.618892   -8725.6869   -6654.7595 
   80000    343.46697   -8676.2124     49.14287   -8725.3553   -9366.6788 
   80200    285.00163   -8681.3175    40.777715   -8722.0952      38707.2 
   80400    260.95573   -8686.0671    37.337255   -8723.4043    17832.735 
   80600    388.45307   -8668.2954    55.579431   -8723.8748   -26212.551 
   80800     313.8388   -8676.3073    44.903704    -8721.211    25739.767 
   81000    242.28927   -8684.3068    34.666478   -8718.9733   -41932.282 
   81200    244.74492   -8689.4187     35.01783   -8724.4366    63373.348 
   81400     320.4646    -8674.149    45.851717   -8720.0007   -43816.889 
   81600    322.31546   -8676.2567    46.116535   -8722.3732    63416.728 
   81800    270.25426   -8688.5805    38.667677   -8727.2482   -44763.243 
   82000    306.76886   -8669.8483    43.892146   -8713.7405    17673.783 
   82200    305.19833   -8681.3207    43.667435   -8724.9881   -18815.555 
   82400    328.35647   -8684.7844    46.980877   -8731.7653   -31699.538 
   82600     330.5411   -8666.6846    47.293451    -8713.978    4710.4993 
   82800    301.64657   -8680.6423    43.159255   -8723.8015     -5079.13 
   83000    330.04876   -8675.8038    47.223007   -8723.0268     19924.72 
   83200    303.56068    -8667.746    43.433123   -8711.1791   -8802.4971 
   83400    256.51667   -8682.6768    36.702118   -8719.3789    7704.2028 
   83600    281.35004   -8679.5162    40.255249   -8719.7714   -16112.614 
   83800    291.84402   -8674.2304    41.756716   -8715.9871    11378.157 
   84000    320.96687   -8671.8174    45.923581   -8717.7409    32646.427 
   84200    280.78134   -8687.9916     40.17388   -8728.1655   -10452.115 
   84400    283.81369   -8675.3739    40.607746   -8715.9816    24658.383 
   84600    286.79799   -8675.0788    41.034736   -8716.1135    42326.647 
   84800    277.30213   -8685.3378    39.676079   -8725.0139   -4558.6297 
   85000     358.5572   -8663.4879    51.301963   -8714.7899   -30589.112 
   85200     254.4967   -8672.0272    36.413103   -8708.4403   -4119.8305 
   85400    307.88028   -8682.4224    44.051166   -8726.4735    11972.919 
   85600    243.22176   -8699.3743    34.799897   -8734.1742    61752.519 
   85800    261.25711   -8686.8382    37.380376   -8724.2186    52581.405 
   86000    355.71063   -8672.3363     50.89468    -8723.231   -41708.229 
   86200    299.50999    -8680.393    42.853555   -8723.2466    6167.4258 
   86400    295.70186   -8686.8793    42.308692    -8729.188   -16948.105 
   86600    312.16823   -8672.9057    44.664681   -8717.5703    11880.764 
   86800     280.7675   -8673.9598    40.171899   -8714.1317    12770.385 
   87000    283.61846    -8684.408    40.579812   -8724.9878     25718.92 
   87200    257.55256   -8693.1625    36.850332   -8730.0129     13143.97 
   87400    339.54769   -8673.2526    48.582105   -8721.8347    14133.268 
   87600    265.49523   -8679.0515    37.986761   -8717.0383   -20716.878 
   87800    261.70052   -8690.6707    37.443818   -8728.1145   -6423.7525 
   88000     303.6631   -8669.2012    43.447777   -8712.6489   -38113.095 
   88200    285.39964   -8675.0004    40.834661    -8715.835   -23364.607 
   88400    263.78008   -8689.8427    37.741359    -8727.584   -26696.444 
   88600    258.85241   -8686.1111    37.036313   -8723.1475    9924.9936 
   88800    328.06292   -8668.0442    46.938877   -8714.9831    44510.136 
   89000    288.88959   -8678.3431    41.333999   -8719.6771    26566.687 
   89200    280.44651   -8683.2834    40.125973   -8723.4093   -2503.6633 
   89400    362.33615   -8670.6359    51.842651   -8722.4786    52730.721 
   89600    336.64174   -8666.2474    48.166324   -8714.4138    2196.3469 
   89800      316.646   -8685.0746    45.305356   -8730.3799   -4945.6286 
   90000     283.1614   -8679.0025    40.514416   -8719.5169    15531.163 
   90200    354.79508   -8666.9048    50.763684   -8717.6684   -18357.519 
   90400     269.9262   -8678.9652    38.620739    -8717.586   -28904.814 
   90600    274.48096   -8688.0567    39.272428   -8727.3291   -23668.845 
   90800    401.26855   -8670.3222    57.413055   -8727.7353    1481.9032 
   91000     275.4859   -8676.3974    39.416215   -8715.8136   -27168.196 
   91200    217.24503   -8690.9585    31.083176   -8722.0417   -35554.098 
   91400    255.04749    -8692.755     36.49191   -8729.2469   -36265.456 
   91600    294.09872   -8680.7627    42.079316   -8722.8421    46550.361 
   91800    266.52853   -8673.2145    38.134604   -8711.3491   -33241.318 
   92000    382.69253   -8669.6239     54.75522   -8724.3792    31480.507 
   92200    290.25392   -8682.6054    41.529206   -8724.1346    24169.323 
   92400    320.85271   -8670.4659    45.907247   -8716.3731   -68295.025 
   92600    318.47956    -8676.607      45.5677   -8722.1747    16700.826 
   92800    300.63034   -8680.9865    43.013853   -8724.0003   -21187.058 
   93000    323.60119   -8674.8452    46.300496   -8721.1457    14610.588 
   93200    306.45382   -8684.9766     43.84707   -8728.8237   -701.22757 
   93400    307.92931   -8681.1791    44.058181   -8725.2372   -12261.961 
   93600    339.08518    -8666.691    48.515929   -8715.2069    29391.849 
   93800    295.26197   -8683.1539    42.245753   -8725.3996    20613.059 
   94000    305.84783   -8682.3119    43.760366   -8726.0723    32023.116 
   94200    260.22375   -8672.4872    37.232523   -8709.7197   -13938.317 
   94400    283.80722    -8667.105     40.60682   -8707.7119    20765.158 
   94600    261.87363   -8678.7343    37.468587   -8716.2029    -36786.07 
   94800    260.60028   -8668.1176    37.286397    -8705.404    2578.7539 
   95000    294.04052   -8676.8265    42.070989   -8718.8975   -36188.434 
   95200    275.17557   -8677.8281    39.371813   -8717.1999   -56722.134 
   95400    316.05377   -8676.6543     45.22062    -8721.875    7377.2047 
   95600    266.39426   -8688.1937    38.115393   -8726.3091    15436.666 
   95800    343.67221   -8667.8261    49.172236   -8716.9984    34382.056 
   96000    372.68013    -8674.083    53.322656   -8727.4057    5751.4709 
   96200    251.17866   -8686.7864    35.938362   -8722.7247   -18667.792 
   96400     293.6238   -8677.1086    42.011365     -8719.12   -21334.507 
   96600    281.81521   -8672.1992    40.321806    -8712.521    26994.329 
   96800    229.32385   -8687.3491      32.8114   -8720.1605    8560.8891 
   97000    237.04958   -8686.0652    33.916788    -8719.982    1177.7882 
   97200    342.71318   -8673.5583    49.035018   -8722.5933   -26593.732 
   97400    267.05283   -8687.6141     38.20962   -8725.8238    6936.9489 
   97600    297.51144   -8684.7797    42.567605   -8727.3473    2780.2292 
   97800    309.63736   -8676.9257    44.302567   -8721.2283    4800.1577 
   98000    356.69366   -8666.8983     51.03533   -8717.9336    41445.017 
   98200     285.5106   -8671.8012    40.850537   -8712.6517    -5561.271 
   98400    302.04164   -8680.6757    43.215781   -8723.8915    14214.584 
   98600     259.9486   -8689.6197    37.193155   -8726.8129    32741.461 
   98800    329.26354   -8676.0569     47.11066   -8723.1676    7410.8912 
   99000    260.30001   -8667.7407    37.243434   -8704.9842    11894.667 
   99200    380.49709   -8662.1778    54.441099   -8716.6189    -17603.93 
   99400    291.46815   -8676.0424    41.702938   -8717.7453   -11542.196 
   99600    300.69265   -8682.2637    43.022768   -8725.2864    7034.3676 
   99800    255.42183   -8688.7803    36.545469   -8725.3258    3769.2686 
  100000    326.91513   -8676.1893    46.774651    -8722.964   -5773.1739 
  100200    294.15148   -8677.6855    42.086865   -8719.7723    23422.941 
  100400    231.40421   -8694.1965    33.109056   -8727.3055    12218.872 
  100600    271.66706   -8681.5485     38.86982   -8720.4183   -24826.736 
  100800    314.69339   -8675.1211    45.025979   -8720.1471   -11646.865 
  101000    268.15815   -8670.2691    38.367768   -8708.6369    -9721.409 
  101200    317.89808   -8666.9736    45.484502   -8712.4581    27792.171 
  101400    282.59125    -8683.277     40.43284   -8723.7098   -36711.343 
  101600    338.93506   -8672.7938     48.49445   -8721.2883   -31455.211 
  101800    266.99848   -8686.0382    38.201844     -8724.24    3874.1689 
  102000    301.82868   -8682.2733    43.185311   -8725.4586    34620.288 
  102200    270.16522   -8675.9921    38.654937    -8714.647    4838.4851 
  102400    308.33459   -8679.3772    44.116169   -8723.4933    18043.771 
  102600    247.13041   -8689.3683    35.359143   -8724.7274    5951.0103 
  102800    276.97149    -8677.459    39.628771   -8717.0878    33839.178 
  103000    313.59841   -8670.7628     44.86931   -8715.6321   -35750.265 
  103200      260.196   -8680.4733    37.228553   -8717.7019   -9556.9253 
  103400    256.08068   -8683.1715    36.639737   -8719.8113    3589.9265 
  103600    288.15203   -8668.8619    41.228471   -8710.0904   -8692.3386 
  103800    372.53495   -8650.5611    53.301885    -8703.863    4780.0218 
  104000    251.49722   -8678.3084    35.983941   -8714.2924   -33270.867 
  104200    331.84542   -8681.4465    47.480072   -8728.9266   -26128.074 
  104400    331.40752   -8673.0316    47.417418    -8720.449   -24241.314 
  104600     307.6947   -8675.0348    44.024613   -8719.0595   -22571.636 
  104800    288.37473   -8689.4324    41.260335   -8730.6927     26367.87 
  105000      312.528   -8672.0766    44.716158   -8716.7927   -3605.4656 
  105200    272.37407   -8676.6972    38.970978   -8715.6682    16569.709 
  105400    240.17028   -8686.3562    34.363296   -8720.7195    47112.268 
  105600    244.31335   -8682.2062     34.95608   -8717.1623   -4133.0284 
  105800    340.17558   -8669.1478    48.671942   -8717.8198    15651.912 
  106000    293.33133   -8685.9747    41.969519   -8727.9442    -19159.94 
  106200    322.46903   -8683.3122    46.138508   -8729.4507   -26467.752 
  106400     322.5378   -8672.6043    46.148349   -8718.7526   -8078.3337 
  106600    332.64655   -8659.7806    47.594696   -8707.3753    -15876.77 
  106800     287.1496   -8679.8196    41.085044   -8720.9046   -9399.1854 
  107000     285.8481   -8681.4909    40.898826   -8722.3897   -5599.6846 
  107200    311.60299   -8662.0352    44.583808    -8706.619   -10246.828 
  107400    281.98244   -8676.9283    40.345733    -8717.274    58606.895 
  107600    298.57597   -8681.8738    42.719917   -8724.5938    3848.7872 
  107800    245.77797   -8686.7056    35.165638   -8721.8713    30859.547 
  108000    341.86653   -8672.0293    48.913881   -8720.9431   -47352.721 
  108200    328.57769     -8678.88    47.012529   -8725.8925    44826.063 
  108400    271.46282   -8682.6916    38.840597   -8721.5322   -8340.9875 
  108600    392.02624   -8666.2747    56.090676   -8722.3654   -19274.778 
  108800    335.63194   -8678.2415    48.021843   -8726.2634    54773.681 
  109000    259.76676   -8685.8473    37.167138   -8723.0145   -29660.295 
  109200    295.05288   -8683.8504    42.215837   -8726.0662    25997.975 
  109400    311.71044   -8673.1446    44.599182   -8717.7438   -41649.337 
  109600     260.0681   -8687.3096    37.210253   -8724.5199   -34799.389 
  109800    249.88985   -8686.3194    35.753961   -8722.0734   -6160.1649 
  110000    272.14077   -8677.1778    38.937597   -8716.1154   -44066.089 
  110200    285.25885   -8673.9996    40.814517   -8714.8141    25682.519 
  110400    278.06752   -8682.9944     39.78559     -8722.78   -32836.871 
  110600    287.75182   -8682.6387    41.171208   -8723.8099   -4085.7616 
  110800    341.51292   -8668.1933    48.863287   -8717.0566    25516.884 
  111000    299.46412   -8687.9362    42.846992   -8730.7832   -22890.793 
  111200    285.79924   -8675.9372    40.891837    -8716.829    41388.173 
  111400    272.94013   -8675.1426    39.051969   -8714.1945   -9731.7675 
  111600    263.95144   -8678.9851    37.765877    -8716.751   -3263.8549 
  111800    241.17715   -8678.7301    34.507357   -8713.2374     41864.27 
  112000    257.10848   -8679.1409    36.786795   -8715.9277    34891.684 
  112200    264.92837   -8676.1654    37.905656   -8714.0711    54664.148 
  112400    286.92062   -8676.8309    41.052282   -8717.8832    -16151.83 
  112600    289.86916   -8684.3943    41.474156   -8725.8685     16410.73 
  112800    341.50689   -8671.7213    48.862424   -8720.5838    19898.186 
  113000    311.70199   -8676.3819    44.597973   -8720.9798   -25186.261 
  113200    324.07118   -8674.1879    46.367743   -8720.5556    23359.367 
  113400    372.64514   -8669.7549    53.317651   -8723.0725    1483.3688 
  113600    301.18318    -8683.754    43.092952    -8726.847    4255.3628 
  113800    337.64154   -8669.8678    48.309374   -8718.1771   -19348.825 
  114000    264.10793   -8676.1496    37.788267   -8713.9378   -13686.635 
  114200    328.04097    -8676.774    46.935735   -8723.7097    32531.415 
  114400    272.52813   -8683.3206     38.99302   -8722.3136    13884.788 
  114600    237.15227   -8684.5229    33.931481   -8718.4544    38932.377 
  114800    336.15401     -8673.55    48.096539   -8721.6466   -14092.053 
  115000    266.40156   -8687.2695    38.116438   -8725.3859    1118.4045 
  115200    274.83475   -8691.0883    39.323049   -8730.4113   -18558.183 
  115400    357.72289   -8673.2845    51.182592   -8724.4671   -11351.198 
  115600    293.68594   -8678.9313    42.020255   -8720.9515   -10410.661 
  115800    302.87118   -8676.4438     43.33447   -8719.7783    19718.517 
  116000     237.3561   -8689.7965    33.960645   -8723.7572    16218.496 
  116200    314.97764   -8674.5901    45.066649   -8719.6567    11813.198 
  116400    339.23117   -8677.0011    48.536817   -8725.5379   -20180.793 
  116600    300.20422   -8685.2844    42.952884   -8728.2373    -195.8924 
  116800    295.54168   -8670.3709    42.285774   -8712.6567    21250.015 
  117000    350.54823   -8680.2899    50.156049    -8730.446    10670.109 
  117200    291.58273   -8686.7929    41.719331   -8728.5122   -4065.6111 
  117400    292.81958   -8680.7388    41.896298   -8722.6351   -36220.291 
  117600    289.31988   -8678.7397    41.395566   -8720.1353   -4592.5507 
  117800    325.92092   -8665.9754    46.632401   -8712.6078    19043.878 
  118000    306.72702   -8677.6872     43.88616   -8721.5733   -2990.0006 
  118200    278.16247   -8675.8935    39.799176   -8715.6927    18339.532 
  118400    334.39917    -8669.916     47.84546   -8717.7614   -18684.651 
  118600    256.83112   -8680.4304     36.74711   -8717.1775   -10445.284 
  118800    256.71194   -8686.3115    36.730057   -8723.0415   -39735.417 
  119000    344.80269   -8667.5346    49.333984   -8716.8686   -23754.476 
  119200    270.35771   -8679.0984    38.682479   -8717.7808   -2720.1134 
  119400    333.92717   -8678.7355    47.777926   -8726.5134    7034.8294 
  119600    298.55308   -8665.9585    42.716641   -8708.6751    40465.124 
  119800    282.76742   -8681.0659    40.458047    -8721.524    11464.218 
  120000    255.24084   -8685.9859    36.519575   -8722.5055    19387.329 
  120200    288.34902   -8685.8829    41.256656   -8727.1396    40062.438 
  120400     317.0722   -8671.1714    45.366335   -8716.5378    22743.571 
  120600    249.20265   -8684.7065    35.655636   -8720.3622   -21128.447 
  120800    264.21747   -8685.1369     37.80394   -8722.9409   -18568.653 
  121000    296.83203   -8674.0737    42.470396   -8716.5441     35834.85 
  121200    320.30483   -8674.8507    45.828858   -8720.6795   -12011.729 
  121400    279.98957   -8681.9033    40.060594   -8721.9639    29193.214 
  121600    286.40703   -8672.0536    40.978798   -8713.0324   -30191.968 
  121800    331.53441   -8665.8992    47.435572   -8713.3348   -29860.862 
  122000    261.95409     -8686.48    37.480098   -8723.9601   -9484.7467 
  122200    334.61214   -8673.3871    47.875931    -8721.263   -20496.299 
  122400     314.0843     -8674.75    44.938831   -8719.6889   -9869.2577 
  122600    260.97312   -8686.9451    37.339743   -8724.2849   -11527.182 
  122800    337.74995   -8673.2883    48.324885   -8721.6132     -2029.79 
  123000    321.96146   -8667.2065    46.065885   -8713.2724    5542.9531 
  123200    289.85144    -8675.595     41.47162   -8717.0667   -19297.869 
  123400    271.94386   -8684.3982    38.909424   -8723.3076    29845.787 
  123600    340.48237   -8666.4583    48.715837   -8715.1741   -4910.9823 
  123800    331.66175   -8673.0828    47.453793   -8720.5366    22625.214 
  124000    268.72885   -8683.1418    38.449423   -8721.5912   -237.41906 
  124200    313.53209   -8681.0816    44.859821   -8725.9414   -9268.8859 
  124400    310.77823   -8668.6985    44.465802   -8713.1643    -30177.43 
  124600    253.93064   -8683.7571    36.332112   -8720.0893   -4370.5453 
  124800    290.61684   -8686.7265    41.581133   -8728.3076   -6788.3109 
  125000    314.13318   -8668.0664    44.945824   -8713.0122   -7175.9945 
  125200    335.15131   -8676.1622    47.953074   -8724.1152   -8357.0747 
  125400    274.62997    -8691.061    39.293749   -8730.3548   -8176.6448 
  125600    297.77233   -8684.6462    42.604933   -8727.2511    -28508.74 
  125800    291.89415   -8672.7942    41.763888    -8714.558    28666.099 
  126000    283.06629   -8682.5128    40.500809   -8723.0136    6979.0705 
  126200    228.09649   -8683.2844    32.635791   -8715.9202    28731.127 
  126400     319.0103   -8675.1978    45.643637   -8720.8414    -17019.74 
  126600     256.5791   -8683.4527    36.711051   -8720.1638    6011.5644 
  126800    298.52699   -8671.7383    42.712909   -8714.4512   -4967.1068 
  127000     269.1301   -8679.4048    38.506834   -8717.9116   -18267.365 
  127200    271.60126   -8675.4143    38.860404   -8714.2747   -31579.056 
  127400    326.51225   -8667.4363    46.717008   -8714.1533    38175.837 
  127600     278.8247   -8676.6182    39.893926   -8716.5121    423.01169 
  127800    322.29656   -8683.3237    46.113832   -8729.4375    4384.3103 
  128000    272.53826   -8687.2387    38.994469   -8726.2331   -24646.834 
  128200    304.16357   -8668.9552    43.519384   -8712.4746   -12883.897 
  128400    296.82254   -8677.3819    42.469038   -8719.8509    4300.0417 
  128600     268.1085   -8688.5228    38.360665   -8726.8835   -23997.106 
  128800    381.32065   -8673.8896    54.558933   -8728.4486   -1687.4802 
  129000    302.90068   -8680.2993    43.338691    -8723.638   -20110.454 
  129200    220.67655   -8694.3459    31.574154   -8725.9201    36770.888 
  129400    366.48456   -8672.0555    52.436201   -8724.4917    16298.322 
  129600     303.3655    -8676.127    43.405196   -8719.5321    385.92682 
  129800     270.6308   -8688.6389    38.721553   -8727.3605   -15359.239 
  130000    297.57722   -8681.7513    42.577016   -8724.3283     31512.42 
  130200    297.68102    -8669.844    42.591868   -8712.4359    37993.731 
  130400    310.91804   -8681.0004    44.485805   -8725.4862   -22465.425 
  130600    250.52752   -8686.0259    35.845198   -8721.8711   -25729.253 
  130800    318.83614   -8673.1522    45.618719   -8718.7709   -46551.236 
  131000    310.05597   -8674.4056    44.362462   -8718.7681   -32138.834 
  131200    274.00345   -8689.2777    39.204107   -8728.4818   -2099.9983 
  131400    243.33532   -8690.9462    34.816146   -8725.7624    44819.714 
  131600    298.36934   -8677.5559    42.690352   -8720.2463   -38081.693 
  131800    350.65979   -8670.5324    50.172011   -8720.7044    32430.365 
  132000    344.40449   -8670.9112    49.277009   -8720.1882    27544.641 
  132200    280.86607     -8683.79    40.186003    -8723.976   -49935.964 
  132400    297.67034   -8668.4557     42.59034   -8711.0461   -46591.688 
  132600     312.0119   -8669.9775    44.642313   -8714.6198    14559.462 
  132800    244.98471   -8678.5493    35.052139   -8713.6014     19387.68 
  133000    245.64304   -8685.6292    35.146331   -8720.7756   -22167.001 
  133200    255.70568   -8680.4781    36.586083   -8717.0642     5240.284 
  133400    292.23665   -8670.2422    41.812893   -8712.0551   -4078.7375 
  133600    260.47526   -8688.0959    37.268509   -8725.3644    48692.374 
  133800    307.73493    -8682.513     44.03037   -8726.5434    33909.545 
  134000    297.72312   -8660.4946    42.597891   -8703.0925    31389.578 
  134200    355.34604   -8668.8362    50.842515   -8719.6787   -7715.2402 
  134400    286.40363    -8682.318    40.978311   -8723.2963     10465.22 
  134600    332.52941   -8673.3007    47.577937   -8720.8786   -192.07935 
  134800    356.19504   -8665.7439    50.963988   -8716.7079    65835.231 
  135000    293.18072   -8680.3953    41.947969   -8722.3432      51035.6 
  135200    350.90731   -8670.4857    50.207425   -8720.6931    -44971.84 
  135400    335.05313   -8667.9016    47.939028   -8715.8406   -46342.042 
  135600    298.84327   -8677.3007    42.758161   -8720.0588   -60328.186 
  135800     288.3058   -8684.4386    41.250472   -8725.6891     36427.27 
  136000    267.89022   -8687.0916    38.329433    -8725.421    52925.224 
  136200    353.00309   -8672.2164    50.507288   -8722.7237    7585.4253 
  136400    270.38642   -8682.0952    38.686587   -8720.7818   -5070.3474 
  136600     281.7086   -8687.5628    40.306552   -8727.8694    7725.4568 
  136800    265.23142   -8670.4983    37.949015   -8708.4474   -48873.729 
  137000    344.90997   -8673.2428    49.349334   -8722.5921    18265.963 
  137200    248.96532   -8690.2631     35.62168   -8725.8848     433.8467 
  137400    277.49633   -8677.8197    39.703865   -8717.5236   -16809.433 
  137600    249.65719   -8674.3572    35.720671   -8710.0778    44082.058 
  137800     264.1598   -8683.4649    37.795688   -8721.2606    18728.481 
  138000    265.57314   -8684.7129    37.997908   -8722.7109   -34414.723 
  138200    278.78136   -8676.9206    39.887725   -8716.8083     35529.29 
  138400    284.24871    -8677.138    40.669988    -8717.808    43844.652 
  138600     243.1079   -8691.4166    34.783606   -8726.2002   -30253.734 
  138800    313.47953   -8679.2022    44.852301   -8724.0545    6536.7015 
  139000    321.37157   -8671.4996    45.981485   -8717.4811    13112.196 
  139200    292.00607   -8682.6251    41.779902    -8724.405    33245.469 
  139400    260.60272   -8686.6388    37.286746   -8723.9256    18031.676 
  139600    277.21942   -8668.3681    39.664245   -8708.0324   -10513.561 
  139800    287.41776   -8683.3961    41.123412   -8724.5195   -5694.5793 
  140000    249.57087   -8680.1461    35.708322   -8715.8544     14321.23 
  140200    313.79375   -8662.3786    44.897259   -8707.2759    41521.386 
  140400    277.69639   -8684.4021     39.73249   -8724.1346   -14207.473 
  140600    319.26956   -8680.7634    45.680731   -8726.4442    4063.9721 
  140800    314.29244   -8667.9764    44.968612    -8712.945    45916.019 
  141000    280.22207   -8683.1976    40.093861   -8723.2915   -4054.3139 
  141200    299.74587   -8683.6788    42.887304   -8726.5661    16502.713 
  141400    367.15397   -8668.4626    52.531979   -8720.9946    8294.1855 
  141600     319.2124   -8671.2971    45.672554   -8716.9696    -23573.18 
  141800    297.33443   -8684.8751    42.542278   -8727.4174    14772.281 
  142000     346.4499   -8679.1136    49.569664   -8728.6833   -8707.1927 
  142200    321.45229   -8670.8046    45.993034   -8716.7977    5689.6455 
  142400    300.78285    -8680.476    43.035674   -8723.5116    18120.968 
  142600    323.67966   -8667.7043    46.311724    -8714.016    29790.963 
  142800    312.84704   -8680.5679    44.761804   -8725.3297    27605.934 
  143000    300.70072   -8676.0022    43.023923   -8719.0261   -17048.772 
  143200    307.81894   -8668.6994    44.042389   -8712.7418   -26770.123 
  143400    297.06904   -8680.7373    42.504307   -8723.2416   -20724.053 
  143600    290.85021   -8667.7702    41.614524   -8709.3847   -7912.6108 
  143800    286.78779   -8678.1932    41.033276   -8719.2265   -21948.446 
  144000    343.78646   -8675.1087    49.188582   -8724.2972   -32569.368 
  144200    289.30948   -8685.9504    41.394078   -8727.3444    6196.8088 
  144400    267.89266   -8683.5683    38.329782   -8721.8981    -59082.32 
  144600    295.43089   -8675.6367    42.269921   -8717.9066   -6291.6023 
  144800    289.11367   -8680.8225    41.366061   -8722.1886    17682.225 
  145000    273.00335   -8671.6273    39.061014   -8710.6883   -566.93467 
  145200    307.98072   -8680.9777    44.065537   -8725.0432    18821.936 
  145400    308.84244   -8678.0889    44.188831   -8722.2777   -8350.7199 
  145600    302.52948   -8671.8215    43.285579   -8715.1071   -35133.895 
  145800    273.05478   -8682.0761    39.068372   -8721.1445     19130.15 
  146000    280.27951   -8668.8246     40.10208   -8708.9266   -17298.376 
  146200    342.72552   -8673.0119    49.036785   -8722.0487   -34257.301 
  146400     291.4502   -8683.8284    41.700368   -8725.5288    7517.8344 
  146600    368.01491   -8663.9527    52.655162   -8716.6079   -6517.2258 
  146800    307.53507   -8676.1681    44.001774   -8720.1698    23666.158 
  147000    254.91739     -8681.92    36.473295   -8718.3933    15590.048 
  147200    379.39145   -8661.8622    54.282905   -8716.1451   -3531.4744 
  147400    319.48367   -8676.9722    45.711366   -8722.6836    4428.5207 
  147600    266.07237   -8679.1786    38.069337    -8717.248     34807.45 
  147800    233.31838   -8677.6888    33.382933   -8711.0718   -46926.906 
  148000    370.24396    -8671.932    52.974091   -8724.9061    -13728.74 
  148200    290.14462   -8682.6549    41.513567   -8724.1684    11410.236 
  148400    294.37943   -8680.4258     42.11948   -8722.5452   -12182.619 
  148600    328.65181   -8673.5037    47.023134   -8720.5268    24038.936 
  148800    267.03494   -8685.3795    38.207061   -8723.5865   -13967.458 
  149000     321.1595   -8683.7171    45.951143   -8729.6683   -5123.8668 
  149200    336.40877   -8672.9498    48.132991   -8721.0828    25895.959 
  149400    277.69938   -8687.0922    39.732917   -8726.8251   -5826.7274 
  149600    267.44352    -8688.819     38.26552   -8727.0845    9167.1815 
  149800    357.10899   -8677.9804    51.094756   -8729.0751   -6235.2554 
  150000    342.63198   -8666.4329    49.023401   -8715.4563    53338.679 
  150200    311.86471   -8674.7795    44.621254   -8719.4008    -239.8517 
  150400    258.28781   -8679.8723    36.955532   -8716.8278    19582.074 
  150600    294.82542   -8672.6412    42.183292   -8714.8245    35160.234 
  150800    273.23292   -8690.8005    39.093861   -8729.8943   -1268.7516 
  151000    292.71783   -8685.0447     41.88174   -8726.9265    11040.157 
  151200    324.88394   -8671.3544    46.484031   -8717.8384   -9135.0925 
  151400    352.92301   -8657.3414     50.49583   -8707.8372   -29287.562 
  151600    282.98649   -8681.4456    40.489391    -8721.935   -17605.389 
  151800    311.68339   -8680.1116    44.595312   -8724.7069    29232.664 
  152000    337.45796   -8676.9812    48.283108   -8725.2643    11274.225 
  152200    254.02256   -8686.7474    36.345264   -8723.0926    35160.142 
  152400    331.05614   -8671.8578    47.367142    -8719.225    23404.984 
  152600    288.04808   -8681.6221    41.213597   -8722.8357   -31353.765 
  152800    322.22954   -8677.2812    46.104243   -8723.3854   -15731.038 
  153000    350.31494   -8675.6137     50.12267   -8725.7364   -29062.751 
  153200     274.3675   -8687.6244    39.256195   -8726.8806    36819.169 
  153400    379.14255   -8665.5577    54.247292   -8719.8049   -2238.9821 
  153600    292.65888     -8673.77    41.873306   -8715.6433    37104.712 
  153800    320.54723   -8674.3563     45.86354   -8720.2199   -22498.755 
  154000    233.07161   -8689.0939    33.347626   -8722.4415    -21199.15 
  154200    338.84636   -8672.6325    48.481759   -8721.1142      31674.6 
  154400    335.55056   -8680.7943    48.010199   -8728.8045   -4650.1979 
  154600    298.42127   -8688.8446    42.697781   -8731.5423   -11655.995 
  154800    331.01737   -8669.3661    47.361595   -8716.7277   -27813.311 
  155000     309.4912   -8679.8156    44.281655   -8724.0973    7893.0355 
  155200    285.96206   -8688.2927    40.915132   -8729.2078    4469.3911 
  155400    277.27387   -8678.7696    39.672036   -8718.4416    2690.3568 
  155600    298.00677   -8677.0153    42.638476   -8719.6538   -13838.499 
  155800    311.99627    -8668.348    44.640078    -8712.988    9619.0461 
  156000    280.73781   -8685.4988    40.167652   -8725.6665    25189.535 
  156200    330.47833   -8672.6641    47.284471   -8719.9486   -30258.681 
  156400    348.05067   -8675.1601    49.798701   -8724.9588    12114.479 
  156600    261.62298   -8681.4733    37.432723   -8718.9061   -15635.992 
  156800    291.82039   -8671.1464    41.753335   -8712.8998   -3842.3022 
  157000    333.03032   -8678.5536    47.649606   -8726.2032    12045.425 
  157200    252.09945   -8689.9086    36.070108   -8725.9787   -15564.918 
  157400     344.1455   -8682.2764    49.239954   -8731.5163   -25024.543 
  157600    337.39153   -8671.0595    48.273603   -8719.3331    10362.811 
  157800    284.97305   -8684.5926    40.773626   -8725.3663    -8335.297 
  158000    265.06807   -8688.2748    37.925644   -8726.2005   -29329.549 
  158200     259.5329   -8675.5863    37.133677   -8712.7199    3451.7247 
  158400    288.10281   -8674.9376    41.221428    -8716.159   -7615.3375 
  158600    246.75796   -8690.4212    35.305854    -8725.727    33397.556 
  158800    299.26098   -8676.4893    42.817926   -8719.3072   -15229.657 
  159000    286.02961   -8676.5539    40.924796   -8717.4787   -18103.776 
  159200    344.50534   -8670.5241    49.291439   -8719.8156   -20237.174 
  159400    299.46238   -8672.9321    42.846743   -8715.7788    18276.513 
  159600    272.99917   -8682.2556    39.060416    -8721.316   -28182.657 
  159800    315.40733    -8666.904    45.128128   -8712.0322    19200.539 
  160000    299.38724   -8680.7793    42.835991   -8723.6153    37618.876 
  160200    319.31832   -8680.4692    45.687708   -8726.1569   -33711.918 
  160400    327.52045   -8666.8871     46.86126   -8713.7483    24890.002 
  160600    289.58065    -8684.819    41.432876   -8726.2519   -3741.5443 
  160800    271.88397   -8680.8755    38.900855   -8719.7764   -4145.6588 
  161000    319.54268   -8673.0276    45.719809   -8718.7474     -17239.1 
  161200    223.22524   -8690.6349    31.938819   -8722.5737   -23923.438 
  161400    280.46301    -8678.125    40.128334   -8718.2533    20629.601 
  161600    314.98384   -8672.5587    45.067536   -8717.6262    21149.021 
  161800    359.46489   -8676.8316    51.431835   -8728.2634   -4402.5137 
  162000     319.9193   -8680.9073    45.773696    -8726.681   -10689.708 
  162200    247.47752   -8677.4483    35.408807   -8712.8571     28245.02 
  162400    335.22536   -8665.3148    47.963671   -8713.2784   -26230.705 
  162600    313.88643   -8681.7898    44.910519   -8726.7004    17759.531 
  162800     249.7529   -8680.7456    35.734366     -8716.48   -20478.535 
  163000    304.27604   -8667.9805    43.535476    -8711.516   -42633.047 
  163200    251.56393   -8688.3002    35.993486   -8724.2937    25668.079 
  163400    273.12264   -8675.7346    39.078082   -8714.8126   -12554.504 
  163600    307.26381   -8672.9649    43.962963   -8716.9279    21758.415 
  163800    286.16729   -8683.0565    40.944496    -8724.001   -13743.587 
  164000    279.04617   -8685.2206    39.925615   -8725.1462     3138.789 
  164200    313.39515    -8668.271    44.840228   -8713.1112     54072.25 
  164400     295.4779   -8677.4299    42.276648   -8719.7066    15701.354 
  164600    250.97031    -8688.932    35.908551   -8724.8405   -12742.284 
  164800    287.51391   -8676.8876    41.137169   -8718.0248   -36213.897 
  165000    274.61329   -8674.0518    39.291362   -8713.3431   -7671.2191 
  165200    225.56135   -8691.6083    32.273066   -8723.8814   -29921.057 
  165400    276.72593   -8689.0302    39.593636   -8728.6239   -9878.0505 
  165600    294.55116   -8676.0947    42.144051   -8718.2388    29014.084 
  165800    334.69038   -8673.5541    47.887126   -8721.4412    45408.879 
  166000    230.27509   -8682.3065    32.947502    -8715.254   -33704.454 
  166200    337.40663   -8673.2225    48.275764   -8721.4983   -27204.375 
  166400    319.98287   -8661.7463    45.782791   -8707.5291   -22895.869 
  166600    308.20691   -8673.1058      44.0979   -8717.2037   -3531.1877 
  166800     276.4625   -8681.8078    39.555946   -8721.3638   -22020.213 
  167000    342.83491    -8666.791    49.052436   -8715.8434   -8562.4933 
  167200    322.91622   -8674.3334    46.202492   -8720.5359   -8824.5372 
  167400    262.16045   -8682.0781    37.509625   -8719.5878    14756.841 
  167600    308.55534   -8667.5346    44.147753   -8711.6824    39462.675 
  167800    346.43989   -8672.7359    49.568233   -8722.3041   -37591.261 
  168000    281.96861   -8679.7402    40.343754    -8720.084   -19717.339 
  168200    288.93482   -8669.3084    41.340472   -8710.6489   -50524.143 
  168400    333.86203   -8677.8896    47.768606   -8725.6582   -16836.253 
  168600    289.53068   -8680.0039    41.425726   -8721.4297   -4203.1245 
  168800    327.03174   -8666.3411    46.791335   -8713.1325    -17486.83 
  169000    346.13283    -8657.912    49.524298   -8707.4363   -23735.395 
  169200    327.01738   -8677.2329    46.789281   -8724.0222    34108.296 
  169400    272.50764   -8680.3237    38.990089   -8719.3138   -50.970049 
  169600    279.44105   -8670.9626    39.982113   -8710.9447    6291.8945 
  169800    318.06993   -8675.3902     45.50909   -8720.8993   -39157.382 
  170000    282.61594   -8684.3088    40.436373   -8724.7451   -2489.0522 
  170200    336.78744   -8670.8017     48.18717   -8718.9889     2809.201 
  170400    258.29362   -8682.8324    36.956362   -8719.7887     14675.78 
  170600    294.96902   -8682.5223    42.203838   -8724.7262   -17859.249 
  170800    345.87133   -8667.9537    49.486884   -8717.4406   -13009.936 
  171000     244.9258   -8685.4934     35.04371   -8720.5371    40739.158 
  171200    297.77875    -8677.871     42.60585   -8720.4768   -1576.7435 
  171400     307.7558    -8670.091    44.033355   -8714.1244   -2740.8044 
  171600    262.50273   -8689.0631    37.558598   -8726.6217   -26473.117 
  171800    314.48433   -8679.4016    44.996066   -8724.3976   -12197.151 
  172000     345.5769   -8673.1321    49.444757   -8722.5768   -21866.476 
  172200    334.48861   -8679.1712    47.858257   -8727.0295   -14635.736 
  172400    306.91228   -8681.2462    43.912666   -8725.1589    37151.172 
  172600    332.09214   -8672.0908    47.515373   -8719.6062    4359.3365 
  172800    269.88742   -8676.8534     38.61519   -8715.4686    38605.738 
  173000    253.87936   -8682.4421    36.324775   -8718.7668   -20840.986 
  173200    325.41774   -8671.0639    46.560407   -8717.6243   -5205.2138 
  173400    289.52538   -8678.7674    41.424967   -8720.1924   -22622.109 
  173600    382.31479   -8663.6174    54.701172   -8718.3186    33705.899 
  173800    338.49635   -8674.7342     48.43168   -8723.1659   -14118.927 
  174000    341.25707   -8679.9671     48.82668   -8728.7938   -4401.3176 
  174200    326.20716   -8669.1237    46.673356   -8715.7971    23602.078 
  174400     343.8255   -8674.6453    49.194168   -8723.8395   -14121.702 
  174600    287.04034   -8681.7594    41.069411   -8722.8289    35762.383 
  174800     301.6484   -8670.3239    43.159516   -8713.4834    25024.874 
  175000    355.32143   -8668.8507    50.838993   -8719.6897     24018.49 
  175200    283.63117   -8678.9431    40.581631   -8719.5247   -27213.284 
  175400    283.41365   -8667.8908    40.550509   -8708.4413    23735.162 
  175600    263.67248   -8685.1546    37.725964   -8722.8806    9210.9334 
  175800    318.27589   -8680.0425    45.538559    -8725.581    13681.371 
  176000     344.7591   -8671.5328    49.327747   -8720.8605     3571.226 
  176200    293.19692    -8675.431    41.950288   -8717.3813   -67842.867 
  176400     277.8656   -8683.6798    39.756699   -8723.4365   -17563.582 
  176600    258.77026   -8690.9656     37.02456   -8727.9902    31096.614 
  176800    257.11245   -8675.8939    36.787361   -8712.6813   -3727.5783 
  177000    326.39102   -8677.4346    46.699662   -8724.1342   -15474.682 
  177200    267.16107   -8690.1924    38.225108   -8728.4176   -14864.374 
  177400    279.13738   -8678.1537    39.938664   -8718.0924    24699.954 
  177600    254.17763   -8676.8404    36.367452   -8713.2078    36857.261 
  177800    289.82409   -8667.2962    41.467707   -8708.7639   -13453.561 
  178000    268.06311   -8678.2344     38.35417   -8716.5885   -41388.516 
  178200    258.05967   -8682.4993    36.922888   -8719.4222    34497.642 
  178400    356.74927   -8670.8529    51.043287   -8721.8962    14377.561 
  178600    284.12353   -8680.4541    40.652077   -8721.1062   -47871.412 
  178800    375.71906   -8674.9514    53.757463   -8728.7089    32635.861 
  179000    337.57858   -8667.8815    48.300366   -8716.1818     30375.62 
  179200    290.52581    -8680.447    41.568108   -8722.0151    9332.6403 
  179400    217.69693   -8688.0785    31.147834   -8719.2263   -28360.923 
  179600    310.66862   -8679.3386    44.450119   -8723.7888    25601.276 
  179800    296.42528   -8672.9269    42.412197   -8715.3391   -18633.612 
  180000    317.76654   -8681.9338    45.465681   -8727.3995    -252.1322 
  180200    256.11426   -8691.1438    36.644542   -8727.7884    9999.6481 
  180400    303.28046   -8675.5155    43.393029   -8718.9085    -20358.77 
  180600    262.93138   -8682.3477    37.619928   -8719.9676   -29245.824 
  180800    345.22459   -8674.6944    49.394348   -8724.0887    19369.404 
  181000    273.73317   -8677.8617    39.165436   -8717.0271    13019.556 
  181200    271.34147   -8685.7009    38.823234   -8724.5242    -5336.108 
[...]
  950000    264.61181   -8681.3386    37.860362    -8719.199   -16309.029 
  950200     286.2588   -8679.3341    40.957589   -8720.2917     34527.47 
  950400    354.92388   -8675.8113    50.782112   -8726.5934    34272.261 
  950600    297.46195   -8680.6273    42.560523   -8723.1878   -32954.771 
  950800    317.01614   -8679.1979    45.358316   -8724.5563   -28565.654 
  951000    363.43287   -8665.0389    51.999569   -8717.0385   -13653.749 
  951200    291.24971   -8675.8078    41.671683   -8717.4795    43954.259 
  951400    376.32788   -8679.3282    53.844573   -8733.1728    -12463.89 
  951600    267.40783   -8690.2572    38.260414   -8728.5176   -32990.463 
  951800     339.1829   -8675.2579    48.529911   -8723.7878    8625.7513 
  952000    290.40003   -8686.1129    41.550112    -8727.663   -13905.902 
  952200    286.56475   -8690.9923    41.001364   -8731.9937   -16547.428 
  952400    276.07281   -8678.5097     39.50019   -8718.0099    30157.148 
  952600    303.05489   -8672.0023    43.360755   -8715.3631   -26666.469 
  952800    279.51399   -8689.1682     39.99255   -8729.1607   -7562.5569 
  953000    312.62588   -8678.2924    44.730162   -8723.0226   -35602.248 
  953200     287.7346   -8675.2676    41.168744   -8716.4363    25310.385 
  953400    424.32999   -8660.8176    60.712661   -8721.5303    17280.479 
  953600    343.07311    -8676.817    49.086518   -8725.9035     28930.48 
  953800    343.19138   -8678.6765    49.103439   -8727.7799    53799.947 
  954000      408.915    -8659.471    58.507101   -8717.9781   -38692.059 
  954200    266.46707   -8679.3861     38.12581   -8717.5119   -6344.2736 
  954400    311.06153   -8676.1945    44.506336   -8720.7008   -7073.1222 
  954600    244.92771   -8679.5538    35.043983   -8714.5978   -29760.577 
  954800     287.5066   -8678.9481    41.136123   -8720.0842    35750.561 
  955000     290.1469   -8671.7563    41.513894   -8713.2702    40067.593 
  955200    269.15119   -8687.0319    38.509851   -8725.5417    8003.0455 
  955400    351.05022   -8671.8245    50.227873   -8722.0523    5111.3335 
  955600    276.57037   -8677.0657     39.57138   -8716.6371   -14135.361 
  955800    302.75546   -8683.4322    43.317913   -8726.7501    6455.8499 
  956000    279.59433   -8675.1025    40.004044   -8715.1065    30704.349 
  956200    342.12758   -8669.7206    48.951232   -8718.6718   -7204.5189 
  956400    271.24509   -8687.9115    38.809444    -8726.721   -16744.604 
  956600    270.11216   -8678.9353    38.647345   -8717.5827    -5274.384 
  956800    354.10707   -8670.2949    50.665244   -8720.9601   -19442.083 
  957000    294.36283   -8684.3395    42.117104   -8726.4566   -15407.296 
  957200    301.27968   -8680.7469    43.106759   -8723.8536   -14846.283 
  957400    329.14491   -8678.2581    47.093685   -8725.3518   -3110.5243 
  957600      313.913   -8678.6075    44.914321   -8723.5219    -5782.061 
  957800    319.11965   -8660.7767    45.659283    -8706.436    -16447.41 
  958000    296.03067   -8677.4636    42.355737   -8719.8193    5409.0645 
  958200    291.73541   -8678.5966    41.741177   -8720.3378   -3318.7013 
  958400    357.84194   -8663.3758    51.199625   -8714.5754   -7387.8542 
  958600    265.22545   -8682.6826    37.948161   -8720.6307    10771.197 
  958800     303.5484   -8675.5267    43.431366   -8718.9581    13172.605 
  959000    286.07404   -8680.9938    40.931154    -8721.925   -4740.9943 
  959200    280.32836   -8686.9852    40.109069   -8727.0943   -18543.223 
  959400    315.65698   -8670.2938    45.163848   -8715.4576    3953.8107 
  959600     300.1272   -8679.3476    42.941864   -8722.2894    536.35315 
  959800    238.69222   -8695.2745    34.151816   -8729.4264    17552.973 
  960000    303.11709   -8675.1157    43.369654   -8718.4854   -24027.654 
  960200    309.28276   -8669.3675    44.251832   -8713.6193     28172.11 
  960400    300.68308   -8684.5187      43.0214   -8727.5401    16417.901 
  960600    256.67241   -8680.8425    36.724402   -8717.5669    3107.9135 
  960800    301.55778   -8671.3916     43.14655   -8714.5382    3412.4537 
  961000    267.91737   -8686.0222    38.333319   -8724.3555   -15866.268 
  961200    278.71673   -8683.3581    39.878478   -8723.2365   -11651.443 
  961400    247.27679   -8678.6896    35.380087   -8714.0697   -16411.209 
  961600    323.80668   -8667.0112    46.329897   -8713.3411    42864.101 
  961800    328.35357    -8668.389    46.980462   -8715.3695    35104.591 
  962000    282.13014   -8680.9742    40.366865   -8721.3411   -11649.646 
  962200    284.33815   -8677.4075    40.682785   -8718.0903    -25029.34 
  962400    291.69406    -8665.905    41.735261   -8707.6402    11600.551 
  962600    252.58722     -8685.21    36.139898   -8721.3499   -11200.341 
  962800    274.12722   -8682.5602    39.221817    -8721.782        51082 
  963000    372.74067   -8667.3004    53.331319   -8720.6317   -8970.9483 
  963200    320.88424   -8659.4279    45.911759   -8705.3397   -24023.153 
  963400    303.97911   -8677.6256    43.492991   -8721.1186    27142.751 
  963600    318.59118   -8685.4132     45.58367   -8730.9969   -42242.956 
  963800    314.69313   -8672.8674    45.025941   -8717.8933    26302.456 
  964000    345.79524   -8670.2722    49.475996   -8719.7482    24937.731 
  964200    301.87777   -8681.9371    43.192333   -8725.1294   -33757.756 
  964400     268.9089   -8677.6144    38.475186   -8716.0896    52658.917 
  964600    259.29404   -8686.8504    37.099501   -8723.9499   -17193.076 
  964800    331.54339   -8676.0974    47.436858   -8723.5343     3840.976 
  965000    273.84031   -8672.5253    39.180765    -8711.706   -5048.0983 
  965200    279.88145   -8688.8898    40.045125   -8728.9349    18337.399 
  965400     350.3828   -8675.1805    50.132379   -8725.3129   -15630.325 
  965600    305.54647   -8672.0833    43.717247   -8715.8005    16611.148 
  965800    266.44185   -8684.7327    38.122202   -8722.8549    23856.744 
  966000    287.93281   -8688.6709    41.197105    -8729.868   -25723.792 
  966200    329.59045   -8676.8936    47.157434    -8724.051    11265.702 
  966400    306.73446   -8677.5494    43.887224   -8721.4366   -16936.471 
  966600    273.05894   -8688.9287    39.068967   -8727.9976   -34853.831 
  966800    313.79577   -8672.9654    44.897547   -8717.8629   -11132.189 
  967000    254.70229   -8678.7352    36.442519   -8715.1777    24834.956 
  967200    317.13019   -8672.9589    45.374633   -8718.3335   -38878.292 
  967400    348.63102    -8670.337    49.881737   -8720.2188    48487.379 
  967600    275.40843   -8685.4861     39.40513   -8724.8912     26842.21 
  967800    298.71227   -8673.7813    42.739418   -8716.5207   -5919.0906 
  968000    307.45123   -8677.7929    43.989778   -8721.7827   -59295.111 
  968200    252.33649      -8684.1    36.104023    -8720.204   -29278.078 
  968400    322.58534   -8672.3899    46.155151    -8718.545    11881.356 
  968600    303.41624   -8671.5689    43.412457   -8714.9814    2547.5366 
  968800    281.66391   -8688.1332    40.300158   -8728.4334   -10815.008 
  969000    261.84572   -8674.3163    37.464592   -8711.7809   -21376.093 
  969200    313.36882   -8665.9854    44.836461   -8710.8219    5475.1614 
  969400    289.82598   -8687.3225    41.467978   -8728.7905   -44692.515 
  969600    264.15663   -8684.9998    37.795235    -8722.795     7139.065 
  969800    358.00145   -8671.1475    51.222447     -8722.37   -5888.0545 
  970000    259.42008   -8683.5222    37.117536   -8720.6397   -42992.519 
  970200    250.70049    -8686.482    35.869945   -8722.3519    35310.755 
  970400    331.55669   -8669.8776    47.438761   -8717.3163   -10409.659 
  970600    293.14155   -8687.0923    41.942365   -8729.0347   -12212.498 
  970800    304.91028   -8681.4548    43.626221    -8725.081    35081.711 
  971000     292.6266   -8676.6026    41.868687   -8718.4713   -1853.1437 
  971200    279.35673   -8676.3777    39.970048   -8716.3477    46216.777 
  971400    316.12303   -8675.6669     45.23053   -8720.8975    18724.916 
  971600    256.08565   -8690.2496    36.640448     -8726.89    -172.2502 
  971800    280.64989   -8675.4823    40.155073   -8715.6373    5714.0019 
  972000    314.81695   -8679.7429    45.043658   -8724.7866   -15291.617 
  972200    243.43078   -8690.5839    34.829804   -8725.4137   -1218.7416 
  972400     292.2704   -8679.7986    41.817723   -8721.6163    17079.908 
  972600    286.87732   -8679.0857    41.046086   -8720.1318   -43234.945 
  972800    260.64676   -8681.4632    37.293047   -8718.7563   -16962.113 
  973000    351.60779   -8668.7605     50.30765   -8719.0682    16143.174 
  973200    260.73582   -8685.2893     37.30579    -8722.595   -16505.548 
  973400      267.862   -8680.9257    38.325396   -8719.2511   -6454.5993 
  973600    268.71441   -8675.2666    38.447357    -8713.714    22994.521 
  973800    351.99467   -8668.8482    50.363003   -8719.2112    16066.606 
  974000    251.52006    -8684.157    35.987209   -8720.1443   -7956.7682 
  974200    337.95354   -8671.5694    48.354015   -8719.9234    11190.857 
  974400    326.75673   -8671.1348    46.751988   -8717.8867    25399.253 
  974600    289.97033   -8679.0509    41.488631   -8720.5396   -45821.087 
  974800    311.60363   -8675.5172    44.583899   -8720.1011    60645.635 
  975000    322.76687   -8666.9341    46.181124   -8713.1153   -21318.882 
  975200     288.5755   -8683.4684    41.289061   -8724.7574   -33788.452 
  975400    324.83887    -8677.043    46.477582   -8723.5206     -47450.7 
  975600    333.94472   -8665.1927    47.780438   -8712.9731    42681.292 
  975800    324.37493   -8682.0979    46.411203   -8728.5091   -27735.173 
  976000    258.48117   -8679.8012    36.983196   -8716.7844   -28688.714 
  976200    345.78047   -8663.7758    49.473883   -8713.2497   -45567.163 
  976400    305.63508   -8673.4195    43.729925   -8717.1495     18926.96 
  976600    289.35299   -8682.0678    41.400303   -8723.4681    9213.7872 
  976800    280.27013   -8686.9943    40.100736   -8727.0951    5016.1308 
  977000     329.7236   -8677.3531    47.176484   -8724.5296     980.0972 
  977200    295.82285    -8673.535    42.326003    -8715.861    45061.779 
  977400    341.49578   -8662.4595    48.860835   -8711.3203    1952.6777 
  977600    301.14575   -8682.7474    43.087597    -8725.835    20283.433 
  977800    286.76493   -8678.4455    41.030006   -8719.4755    3740.5318 
  978000     395.5167   -8663.6753    56.590087   -8720.2654   -2023.8319 
  978200     283.0701   -8682.7919    40.501353   -8723.2932    8517.1777 
  978400    334.09004   -8676.4147    47.801229   -8724.2159    8382.0598 
  978600    314.23601   -8668.3864    44.960537    -8713.347   -7585.9369 
  978800     304.3926   -8674.1099    43.552154   -8717.6621   -25562.465 
  979000    321.09353   -8682.1199    45.941704   -8728.0616    17634.738 
  979200     343.5063   -8673.4348    49.148497   -8722.5833    5823.5578 
  979400    317.85315   -8667.3316    45.478074   -8712.8097   -19126.145 
  979600    302.83165   -8680.4228    43.328814   -8723.7516    26868.963 
  979800    300.81362   -8680.8143    43.040077   -8723.8544   -37781.285 
  980000    323.76843   -8664.7933    46.324425   -8711.1177   -19573.277 
  980200    328.76922   -8675.1409    47.039932   -8722.1809    62453.665 
  980400    310.36013   -8675.8987    44.405981   -8720.3047   -29305.447 
  980600    274.57222    -8693.258    39.285487   -8732.5435    12171.232 
  980800    327.25109    -8679.783    46.822721   -8726.6057    17254.322 
  981000    352.80397   -8674.1309    50.478798   -8724.6097    6242.3259 
  981200    266.42529   -8683.0238    38.119833   -8721.1436   -2253.0065 
  981400    297.92428   -8683.4816    42.626673   -8726.1083    5895.7968 
  981600    283.50409   -8675.4514    40.563448   -8716.0149   -14431.373 
  981800    271.89941   -8678.0433    38.903063   -8716.9464    -16414.69 
  982000    369.54411   -8666.5202    52.873959   -8719.3942   -35926.291 
  982200    324.00543   -8679.8385    46.358335   -8726.1968    24081.909 
  982400    298.06405   -8678.6212    42.646671   -8721.2679   -478.37079 
  982600    275.38216   -8687.8271    39.401371   -8727.2285    23044.736 
  982800    291.70616   -8674.1838    41.736991   -8715.9208   -9751.0404 
  983000    337.13227   -8675.0069    48.236509   -8723.2434    6790.4453 
  983200    252.69576   -8692.5789    36.155426   -8728.7343    7844.9184 
  983400    282.55072   -8678.2938    40.427041   -8718.7209   -16939.695 
  983600    269.26208   -8679.8626    38.525717   -8718.3883   -12535.487 
  983800    335.88693   -8662.0699    48.058326   -8710.1283      9870.38 
  984000    300.20755   -8678.2058    42.953361   -8721.1592   -19501.588 
  984200    277.94765   -8675.6306    39.768439   -8715.3991    71550.456 
  984400    389.20481   -8662.8839    55.686989   -8718.5709   -15545.046 
  984600    297.84854   -8681.6682    42.615836    -8724.284    3943.7936 
  984800    290.45848   -8676.5745    41.558474    -8718.133   -19444.918 
  985000    339.73823   -8662.2054    48.609366   -8710.8148   -39961.204 
  985200    285.35674   -8680.9499    40.828524   -8721.7784     20335.44 
  985400    312.38199   -8675.3909    44.695266   -8720.0862    -42803.84 
  985600    196.69431   -8688.3524    28.142803   -8716.4952    62845.539 
  985800    340.33494   -8670.6759    48.694743   -8719.3707    19952.062 
  986000    288.06159   -8682.1445     41.21553     -8723.36   -30739.405 
  986200    391.35529   -8667.8248    55.994677   -8723.8195    27050.658 
  986400    338.72796   -8674.6503    48.464818   -8723.1151    18386.257 
  986600    288.31081   -8677.6895    41.251189   -8718.9407   -29958.281 
  986800    332.44495   -8670.5675    47.565852   -8718.1334   -38545.284 
  987000    317.37166   -8676.7374    45.409182   -8722.1465    19629.843 
  987200    277.98126   -8683.6506    39.773248   -8723.4238   -10317.016 
  987400    359.56832   -8664.9407    51.446634   -8716.3874   -19916.715 
  987600    262.62619    -8682.866    37.576261   -8720.4423    64618.766 
  987800    319.91925   -8676.9603    45.773689    -8722.734   -16989.812 
  988000    261.33862   -8687.1113    37.392038   -8724.5033   -6644.5641 
  988200     371.7394   -8677.1176    53.188057   -8730.3057    14780.993 
  988400    292.80315   -8675.8515    41.893948   -8717.7455    4041.1585 
  988600    258.36973   -8681.4438    36.967253   -8718.4111   -23860.225 
  988800    353.66848   -8676.2659    50.602492   -8726.8684   -35526.193 
  989000    299.74477   -8674.7994    42.887146   -8717.6865    50721.528 
  989200    313.44868   -8672.3165    44.847886   -8717.1644    41245.059 
  989400    256.42752   -8686.4892    36.689363   -8723.1786   -9169.8201 
  989600    295.62948   -8675.6175    42.298336   -8717.9158    10543.082 
  989800    319.17994   -8679.9928    45.667909   -8725.6607     2783.393 
  990000    243.32874   -8691.5475    34.815204   -8726.3627   -4832.6275 
  990200     295.6555   -8680.8419    42.302058    -8723.144    27292.779 
  990400    270.37155   -8673.6599    38.684459   -8712.3444   -2645.8772 
  990600    277.83361   -8686.3355    39.752122   -8726.0876    268.11166 
  990800       294.19   -8684.4561    42.092377   -8726.5484    42216.875 
  991000    294.61843    -8674.685    42.153676   -8716.8387   -33394.813 
  991200    246.89299    -8679.837    35.325173   -8715.1622    3769.9781 
  991400    246.42116   -8690.8146    35.257664   -8726.0723   -6054.7785 
  991600    220.83007   -8682.3083    31.596119   -8713.9044   -4665.6687 
  991800    337.43822   -8673.0891    48.280284   -8721.3694   -8905.2916 
  992000    277.55015   -8677.2345    39.711565    -8716.946    13760.434 
  992200    260.56176    -8686.095    37.280885   -8723.3759   -64445.373 
  992400    327.57788    -8668.591    46.869477   -8715.4605    18116.886 
  992600      343.592   -8675.3325    49.160759   -8724.4933   -19097.436 
  992800    319.17181   -8677.9767    45.666745   -8723.6434   -59024.168 
  993000    274.80338    -8679.851    39.318561   -8719.1696   -9413.6602 
  993200    201.66748   -8689.1353    28.854357   -8717.9897   -16635.196 
  993400    344.19831   -8674.1596    49.247509   -8723.4071   -44817.517 
  993600    288.53173   -8678.0411    41.282797   -8719.3239   -29899.176 
  993800    262.06896   -8664.2517    37.496534   -8701.7483   -53514.032 
  994000    246.42777   -8681.8282     35.25861   -8717.0868   -40361.698 
  994200     345.3093   -8675.1576    49.406469    -8724.564   -8087.6512 
  994400    299.03385   -8681.6043    42.785429   -8724.3897    19294.997 
  994600    272.58299   -8682.7609     39.00087   -8721.7617    35125.751 
  994800    304.02938   -8675.1142    43.500184   -8718.6144    -49334.69 
  995000    231.24229   -8683.3258    33.085889   -8716.4117   -8980.1026 
  995200    270.68538   -8689.4917    38.729361    -8728.221   -21463.279 
  995400    322.81866   -8676.3393    46.188533   -8722.5278   -21676.781 
  995600    269.51916   -8677.7149      38.5625   -8716.2774    -23502.49 
  995800    238.83175   -8687.1615     34.17178   -8721.3333   -22053.085 
  996000    270.64854   -8684.4775    38.724091   -8723.2016    -17907.84 
  996200    275.46964   -8671.6111    39.413889    -8711.025    -8616.571 
  996400    264.06708   -8684.7649    37.782423   -8722.5473    36269.145 
  996600    340.91887   -8671.8796    48.778291   -8720.6579    -28084.92 
  996800    323.26511   -8670.1381    46.252411   -8716.3906   -17893.515 
  997000    297.68781   -8679.5716    42.592839   -8722.1645    29825.828 
  997200     316.8578    -8681.466    45.335659   -8726.8016    232.82704 
  997400    237.56752   -8678.8835    33.990895   -8712.8744    34804.511 
  997600    340.87756   -8665.5041    48.772381   -8714.2765    -48767.51 
  997800    279.80263   -8684.3809    40.033848   -8724.4147   -7483.3209 
  998000    293.47805   -8678.8241    41.990511   -8720.8146    102.18458 
  998200    282.52748   -8670.4851    40.423716   -8710.9088   -4364.0244 
  998400    234.31695   -8687.3347    33.525807   -8720.8605   -799.48473 
  998600    310.75166   -8675.8641       44.462   -8720.3261   -23727.493 
  998800    324.11894   -8672.3622    46.374576   -8718.7367   -6128.5313 
  999000    322.49803   -8675.7703    46.142657   -8721.9129    50461.969 
  999200    285.62454   -8689.3028    40.866839   -8730.1696    4960.4797 
  999400    334.51608    -8681.373    47.862187   -8729.2352   -7805.5571 
  999600    306.83364   -8671.2778    43.901414   -8715.1792   -30345.056 
  999800    265.90239   -8683.8877    38.045016   -8721.9327    16337.222 
 1000000    278.40012   -8683.4074    39.833178   -8723.2406    11071.193 
Loop time of 4478.26 on 8 procs for 1000000 steps with 49 atoms

Performance: 4.823 ns/day, 4.976 hours/ns, 223.301 timesteps/s
99.0% CPU use with 8 MPI tasks x no OpenMP threads

MPI task timing breakdown:
Section |  min time  |  avg time  |  max time  |%varavg| %total
---------------------------------------------------------------
Pair    | 3882.4     | 3949.2     | 4070.3     |  87.9 | 88.19
Neigh   | 2.7685     | 2.8581     | 2.9485     |   3.0 |  0.06
Comm    | 46.489     | 167.79     | 234.44     | 426.4 |  3.75
Output  | 0.090797   | 0.10077    | 0.16293    |   7.4 |  0.00
Modify  | 353.38     | 353.99     | 354.31     |   1.6 |  7.90
Other   |            | 4.321      |            |       |  0.10

Nlocal:    6.125 ave 7 max 6 min
Histogram: 7 0 0 0 0 0 0 0 0 1
Nghost:    922.875 ave 929 max 917 min
Histogram: 1 0 3 0 0 0 1 2 0 1
Neighs:    1690.75 ave 1918 max 1639 min
Histogram: 6 1 0 0 0 0 0 0 0 1

Total # of neighbors = 13526
Ave neighs/atom = 276.041
Neighbor list builds = 1254
Dangerous builds = 0

Please see the log.cite file for references relevant to this simulation

Total wall time: 1:14:47
