LAMMPS (3 Mar 2020)
# Alpha
clear
units		real
dimension 3
boundary        p p p
atom_style	charge
newton on
read_data       O_21.lmp
  triclinic box = (0 0 0) to (13.552 11.7355 22.15) with tilt (-6.7755 0 0)
  2 by 2 by 2 MPI processor grid
  reading atoms ...
  161 atoms
  read_data CPU = 0.00963433 secs

timestep 0.25

# ---------- Define Interatomic Potential ---------------------
pair_style      reax/c NULL checkqeq no
pair_coeff      * * ffield.reax C O
fix             2 all qeq/reax 1 0.0 10.0 1.0e-6 reax/c

#------------ Equilibration of the system -------------------------
reset_timestep 0

dump 1 all custom 10 min.lammpstrj id type x y z

minimize 1.0e-8 1.0e-8 100000 100000
WARNING: Using 'neigh_modify every 1 delay 0 check yes' setting during minimization (../min.cpp:190)
WARNING: Total cutoff < 2*bond cutoff. May need to use an increased neighbor list skin. (../pair_reaxc.cpp:413)
Neighbor list info ...
  update every 1 steps, delay 0 steps, check yes
  max neighbors/atom: 2000, page size: 100000
  master list distance cutoff = 9.5
  ghost atom cutoff = 9.5
  binsize = 4.75, bins = 5 3 5
  2 neighbor lists, perpetual/occasional/extra = 2 0 0
  (1) pair reax/c, perpetual
      attributes: half, newton off, ghost
      pair build: half/bin/newtoff/ghost
      stencil: half/ghost/bin/3d/newtoff
      bin: standard
  (2) fix qeq/reax, perpetual, copy from (1)
      attributes: half, newton off, ghost
      pair build: copy
      stencil: none
      bin: none
Per MPI rank memory allocation (min/avg/max) = 22.39 | 23.37 | 24.29 Mbytes
Step Temp E_pair E_mol TotEng Press 
       0            0   -25475.579            0   -25475.579    83575.962 
     213            0   -29202.904            0   -29202.904    36941.774 
Loop time of 12.0738 on 8 procs for 213 steps with 161 atoms

99.3% CPU use with 8 MPI tasks x no OpenMP threads

Minimization stats:
  Stopping criterion = energy tolerance
  Energy initial, next-to-last, final = 
         -25475.578717     -29202.9041086     -29202.9041805
  Force two-norm initial, final = 4600.42 175.669
  Force max component initial, final = 504.288 59.3496
  Final line search alpha, max atom move = 0.000743513 0.0441273
  Iterations, force evaluations = 213 1377

MPI task timing breakdown:
Section |  min time  |  avg time  |  max time  |%varavg| %total
---------------------------------------------------------------
Pair    | 7.9143     | 8.6626     | 9.1283     |  12.6 | 71.75
Neigh   | 0          | 0          | 0          |   0.0 |  0.00
Comm    | 0.12418    | 0.5881     | 1.3327     |  48.2 |  4.87
Output  | 0.00083381 | 0.0010885  | 0.001639   |   0.7 |  0.01
Modify  | 2.8007     | 2.8017     | 2.8026     |   0.0 | 23.20
Other   |            | 0.02032    |            |       |  0.17

Nlocal:    20.125 ave 32 max 4 min
Histogram: 2 0 1 0 1 0 0 0 1 3
Nghost:    840.375 ave 885 max 792 min
Histogram: 2 2 0 0 0 0 0 0 1 3
Neighs:    2750.62 ave 4283 max 590 min
Histogram: 2 0 0 1 1 0 0 0 1 3

Total # of neighbors = 22005
Ave neighs/atom = 136.677
Neighbor list builds = 0
Dangerous builds = 0

###
min_style cg
minimize 1.0e-8 1.0e-8 100000 100000
WARNING: Using 'neigh_modify every 1 delay 0 check yes' setting during minimization (../min.cpp:190)
WARNING: Total cutoff < 2*bond cutoff. May need to use an increased neighbor list skin. (../pair_reaxc.cpp:413)
Per MPI rank memory allocation (min/avg/max) = 22.39 | 23.37 | 24.29 Mbytes
Step Temp E_pair E_mol TotEng Press 
     213            0   -29202.904            0   -29202.904    36941.774 
     468            0    -29222.15            0    -29222.15    36228.856 
Loop time of 18.1218 on 8 procs for 255 steps with 161 atoms

99.3% CPU use with 8 MPI tasks x no OpenMP threads

Minimization stats:
  Stopping criterion = energy tolerance
  Energy initial, next-to-last, final = 
        -29202.9041805     -29222.1498397     -29222.1500641
  Force two-norm initial, final = 175.669 52.3409
  Force max component initial, final = 59.3496 13.725
  Final line search alpha, max atom move = 0.000227127 0.00311733
  Iterations, force evaluations = 255 2034

MPI task timing breakdown:
Section |  min time  |  avg time  |  max time  |%varavg| %total
---------------------------------------------------------------
Pair    | 12.039     | 13.118     | 13.965     |  15.6 | 72.39
Neigh   | 0          | 0          | 0          |   0.0 |  0.00
Comm    | 0.14025    | 0.98094    | 2.0561     |  56.8 |  5.41
Output  | 0.0010017  | 0.0012315  | 0.0018266  |   0.7 |  0.01
Modify  | 3.9894     | 3.9909     | 3.9919     |   0.0 | 22.02
Other   |            | 0.03026    |            |       |  0.17

Nlocal:    20.125 ave 32 max 4 min
Histogram: 2 0 1 1 0 0 0 0 0 4
Nghost:    874.125 ave 919 max 828 min
Histogram: 3 1 0 0 0 0 0 0 0 4
Neighs:    2731.5 ave 4270 max 580 min
Histogram: 2 0 0 2 0 0 0 0 0 4

Total # of neighbors = 21852
Ave neighs/atom = 135.727
Neighbor list builds = 0
Dangerous builds = 0

###
fix 1 all box/relax aniso 0.0
min_style cg
minimize 1.0e-8 1.0e-8 100000 100000
WARNING: Using 'neigh_modify every 1 delay 0 check yes' setting during minimization (../min.cpp:190)
WARNING: Total cutoff < 2*bond cutoff. May need to use an increased neighbor list skin. (../pair_reaxc.cpp:413)
Per MPI rank memory allocation (min/avg/max) = 22.39 | 23.37 | 24.29 Mbytes
Step Temp E_pair E_mol TotEng Press Volume 
     468            0    -29222.15            0    -29222.15    36228.856    3522.7279 
     538            0   -29235.392            0   -29235.392    2645.3585    3528.5864 
Loop time of 0.937609 on 8 procs for 70 steps with 161 atoms

99.2% CPU use with 8 MPI tasks x no OpenMP threads

Minimization stats:
  Stopping criterion = linesearch alpha is zero
  Energy initial, next-to-last, final = 
        -29222.1500641     -29235.3919039     -29235.3919039
  Force two-norm initial, final = 4015.4 493.021
  Force max component initial, final = 3499.11 292.719
  Final line search alpha, max atom move = 2.93095e-14 8.57943e-12
  Iterations, force evaluations = 70 117

MPI task timing breakdown:
Section |  min time  |  avg time  |  max time  |%varavg| %total
---------------------------------------------------------------
Pair    | 0.69128    | 0.75442    | 0.79895    |   3.9 | 80.46
Neigh   | 0          | 0          | 0          |   0.0 |  0.00
Comm    | 0.0074493  | 0.05167    | 0.11456    |  14.8 |  5.51
Output  | 0.00025553 | 0.00031594 | 0.00045919 |   0.0 |  0.03
Modify  | 0.1268     | 0.12688    | 0.12694    |   0.0 | 13.53
Other   |            | 0.004329   |            |       |  0.46

Nlocal:    20.125 ave 34 max 4 min
Histogram: 2 0 1 1 0 0 0 0 2 2
Nghost:    874.625 ave 922 max 826 min
Histogram: 3 1 0 0 0 0 0 0 1 3
Neighs:    2723.38 ave 4494 max 580 min
Histogram: 2 0 1 1 0 0 0 0 2 2

Total # of neighbors = 21787
Ave neighs/atom = 135.323
Neighbor list builds = 0
Dangerous builds = 0

unfix 1
###
min_style cg
minimize 1.0e-8 1.0e-8 100000 100000
WARNING: Using 'neigh_modify every 1 delay 0 check yes' setting during minimization (../min.cpp:190)
WARNING: Total cutoff < 2*bond cutoff. May need to use an increased neighbor list skin. (../pair_reaxc.cpp:413)
Per MPI rank memory allocation (min/avg/max) = 22.39 | 23.37 | 24.29 Mbytes
Step Temp E_pair E_mol TotEng Press 
     538            0   -29235.392            0   -29235.392    2645.3585 
     586            0   -29240.475            0   -29240.475    34514.412 
Loop time of 3.19502 on 8 procs for 48 steps with 161 atoms

99.3% CPU use with 8 MPI tasks x no OpenMP threads

Minimization stats:
  Stopping criterion = energy tolerance
  Energy initial, next-to-last, final = 
        -29235.3919039     -29240.4747709     -29240.4750315
  Force two-norm initial, final = 379.15 66.2725
  Force max component initial, final = 47.6271 18.7807
  Final line search alpha, max atom move = 1.25417e-05 0.000235541
  Iterations, force evaluations = 48 357

MPI task timing breakdown:
Section |  min time  |  avg time  |  max time  |%varavg| %total
---------------------------------------------------------------
Pair    | 2.1035     | 2.2917     | 2.4266     |   6.9 | 71.73
Neigh   | 0          | 0          | 0          |   0.0 |  0.00
Comm    | 0.024193   | 0.15826    | 0.34542    |  25.9 |  4.95
Output  | 0.0001942  | 0.00023811 | 0.000351   |   0.0 |  0.01
Modify  | 0.73912    | 0.73943    | 0.73967    |   0.0 | 23.14
Other   |            | 0.005392   |            |       |  0.17

Nlocal:    20.125 ave 34 max 4 min
Histogram: 2 0 1 1 0 0 0 0 2 2
Nghost:    870.125 ave 918 max 820 min
Histogram: 3 1 0 0 0 0 0 0 1 3
Neighs:    2723 ave 4498 max 578 min
Histogram: 2 0 1 1 0 0 0 0 2 2

Total # of neighbors = 21784
Ave neighs/atom = 135.304
Neighbor list builds = 0
Dangerous builds = 0

###
fix 1 all box/relax aniso 0.0
min_style cg
minimize 1.0e-8 1.0e-8 100000 100000
WARNING: Using 'neigh_modify every 1 delay 0 check yes' setting during minimization (../min.cpp:190)
WARNING: Total cutoff < 2*bond cutoff. May need to use an increased neighbor list skin. (../pair_reaxc.cpp:413)
Per MPI rank memory allocation (min/avg/max) = 22.39 | 23.37 | 24.29 Mbytes
Step Temp E_pair E_mol TotEng Press Volume 
     586            0   -29240.475            0   -29240.475    34514.412    3528.5864 
     628            0   -29246.979            0   -29246.979    6367.9982    3531.7691 
Loop time of 0.653913 on 8 procs for 42 steps with 161 atoms

99.2% CPU use with 8 MPI tasks x no OpenMP threads

Minimization stats:
  Stopping criterion = energy tolerance
  Energy initial, next-to-last, final = 
        -29240.4750315     -29246.9785033     -29246.9785033
  Force two-norm initial, final = 3791.03 720.353
  Force max component initial, final = 3312.23 490.588
  Final line search alpha, max atom move = 5.96854e-14 2.9281e-11
  Iterations, force evaluations = 42 82

MPI task timing breakdown:
Section |  min time  |  avg time  |  max time  |%varavg| %total
---------------------------------------------------------------
Pair    | 0.48382    | 0.52655    | 0.55751    |   3.2 | 80.52
Neigh   | 0          | 0          | 0          |   0.0 |  0.00
Comm    | 0.0052074  | 0.035941   | 0.078466   |  12.2 |  5.50
Output  | 0.00015447 | 0.00018649 | 0.0002694  |   0.0 |  0.03
Modify  | 0.088245   | 0.088288   | 0.088336   |   0.0 | 13.50
Other   |            | 0.002948   |            |       |  0.45

Nlocal:    20.125 ave 34 max 4 min
Histogram: 2 0 1 1 0 0 0 0 2 2
Nghost:    870.125 ave 918 max 820 min
Histogram: 3 1 0 0 0 0 0 0 1 3
Neighs:    2723 ave 4500 max 577 min
Histogram: 2 0 1 1 0 0 0 0 2 2

Total # of neighbors = 21784
Ave neighs/atom = 135.304
Neighbor list builds = 0
Dangerous builds = 0

unfix 1
###
min_style cg
minimize 1.0e-8 1.0e-8 100000 100000
WARNING: Using 'neigh_modify every 1 delay 0 check yes' setting during minimization (../min.cpp:190)
WARNING: Total cutoff < 2*bond cutoff. May need to use an increased neighbor list skin. (../pair_reaxc.cpp:413)
Per MPI rank memory allocation (min/avg/max) = 22.39 | 23.37 | 24.29 Mbytes
Step Temp E_pair E_mol TotEng Press 
     628            0   -29246.979            0   -29246.979    6367.9982 
     662            0   -29250.135            0   -29250.135    32832.456 
Loop time of 2.46805 on 8 procs for 34 steps with 161 atoms

99.3% CPU use with 8 MPI tasks x no OpenMP threads

Minimization stats:
  Stopping criterion = energy tolerance
  Energy initial, next-to-last, final = 
        -29246.9785033     -29250.1345212     -29250.1346894
  Force two-norm initial, final = 385.476 32.2111
  Force max component initial, final = 44.7903 10.7092
  Final line search alpha, max atom move = 7.13571e-05 0.000764175
  Iterations, force evaluations = 34 277

MPI task timing breakdown:
Section |  min time  |  avg time  |  max time  |%varavg| %total
---------------------------------------------------------------
Pair    | 1.6309     | 1.773      | 1.8668     |   5.7 | 71.84
Neigh   | 0          | 0          | 0          |   0.0 |  0.00
Comm    | 0.01831    | 0.11145    | 0.25278    |  22.8 |  4.52
Output  | 0.00016473 | 0.00020544 | 0.0003126  |   0.0 |  0.01
Modify  | 0.57892    | 0.57913    | 0.57933    |   0.0 | 23.47
Other   |            | 0.004231   |            |       |  0.17

Nlocal:    20.125 ave 34 max 4 min
Histogram: 2 0 1 1 0 0 0 0 2 2
Nghost:    868.875 ave 918 max 818 min
Histogram: 3 1 0 0 0 0 0 0 1 3
Neighs:    2719.5 ave 4494 max 577 min
Histogram: 2 0 1 1 0 0 0 0 2 2

Total # of neighbors = 21756
Ave neighs/atom = 135.13
Neighbor list builds = 0
Dangerous builds = 0

undump 1
#############
#----------- Thermo ------------
reset_timestep 0
thermo  200

thermo_style    custom step temp etotal ke pe press
velocity all create 300 12345 mom yes rot yes
fix 1 all npt temp 300 300 25.0 iso 0.0 0.0 250.0

variable vpe equal pe
variable vtemp equal temp
variable vstep equal step

fix output all print 2500 "${vstep} ${vtemp} ${vpe}" file temp-tpdh-Pt.dat screen no

dump 1 all custom 2500 thermo-tpdh-Pt.lammpstrj id type x y z

run 1000000
WARNING: Total cutoff < 2*bond cutoff. May need to use an increased neighbor list skin. (../pair_reaxc.cpp:413)
Per MPI rank memory allocation (min/avg/max) = 21.28 | 22.26 | 23.18 Mbytes
Step Temp TotEng KinEng PotEng Press 
       0          300   -29107.056    143.07888   -29250.135     34684.35 
     200    310.61602   -29140.912    148.14198   -29289.054    48422.382 
     400    337.19234   -29187.825    160.81701   -29348.642    38985.251 
     600    279.90875   -29217.365    133.49677   -29350.861     -34580.9 
     800    304.85474   -29215.311    145.39425   -29360.706   -28270.514 
    1000    298.15538   -29199.597    142.19913   -29341.796   -9449.7832 
    1200    285.83371   -29195.125    136.32256   -29331.448   -21364.733 
    1400     295.0396   -29183.007    140.71312    -29323.72   -5881.4748 
    1600    302.68122   -29176.469    144.35763   -29320.827    5416.1388 
    1800    251.69879   -29183.457    120.04261   -29303.499    2185.8727 
    2000    332.06681   -29154.091    158.37249   -29312.464   -11969.554 
    2200    258.97965    -29179.19    123.51506   -29302.705    2553.6616 
    2400    282.44937   -29166.956    134.70847   -29301.665   -9619.3877 
    2600    281.63962   -29152.519    134.32228   -29286.842    6653.1666 
    2800    302.21289   -29148.738    144.13428   -29292.872    7830.3049 
    3000    256.04849     -29185.8     122.1171   -29307.917    5012.1021 
    3200    255.76721   -29167.691    121.98295   -29289.674    -17862.17 
    3400    300.06286   -29136.908    143.10886   -29280.017    7246.5363 
    3600    333.08135   -29137.444    158.85636     -29296.3   -19767.671 
    3800    267.74143   -29160.776    127.69382    -29288.47   -2637.9607 
    4000    297.06337   -29139.842    141.67832    -29281.52    23362.108 
    4200    279.52985   -29152.032    133.31606   -29285.348    10954.736 
    4400    293.35191   -29180.895    139.90821   -29320.803   -29105.753 
    4600    319.31082   -29155.331    152.28878    -29307.62   -8037.7697 
    4800    305.13246   -29148.674     145.5267     -29294.2    5430.2402 
    5000    286.85197   -29174.453     136.8082   -29311.261     30197.42 
    5200    304.81019   -29170.799      145.373   -29316.172   -32528.697 
    5400    299.61431   -29145.201    142.89494   -29288.096   -36393.976 
    5600     328.7182   -29157.501    156.77544   -29314.277   -40681.138 
    5800    304.81021   -29179.775    145.37301   -29325.148   -11232.013 
    6000    301.69323   -29183.165    143.88643   -29327.052   -17530.748 
    6200    319.24878   -29154.853     152.2592   -29307.112    -11295.46 
    6400    301.75952   -29185.286    143.91805   -29329.204   -22782.147 
    6600    295.54896   -29197.554    140.95605    -29338.51   -3114.7143 
    6800    294.00786   -29194.571    140.22106   -29334.792   -3190.3423 
    7000    329.34945     -29176.7     157.0765   -29333.776     -33778.1 
    7200    266.42694   -29203.358     127.0669   -29330.425   -733.02095 
    7400    291.69302   -29170.975    139.11704   -29310.092   -30804.302 
    7600    300.98106   -29154.652    143.54678   -29298.198   -2078.8692 
    7800    329.14572   -29165.129    156.97934   -29322.108   -46532.935 
    8000    299.69228   -29193.062    142.93212   -29335.994   -1351.3694 
    8200     302.7395   -29185.189    144.38543   -29329.574   -2337.2257 
    8400    320.59316   -29168.001    152.90037   -29320.902   -43217.174 
    8600    301.71466   -29201.737    143.89665   -29345.633    36522.125 
    8800    297.37129   -29182.124    141.82517   -29323.949    7035.7363 
    9000    286.87672   -29174.901       136.82   -29311.721   -5928.2994 
    9200    261.55899   -29199.456    124.74523   -29324.201    15643.785 
    9400    320.09644   -29170.249    152.66347   -29322.912   -8170.9647 
    9600    302.89337   -29179.241    144.45881     -29323.7   -18164.836 
    9800    293.20479   -29182.174    139.83805   -29322.012    21577.322 
   10000    279.02588   -29196.059     133.0757   -29329.134   -12529.678 
   10200    299.03138    -29203.29    142.61692   -29345.907    6109.6273 
   10400    307.08277   -29180.687    146.45687   -29327.144   -5906.9614 
   10600    313.07345   -29182.848      149.314   -29332.162    -2742.548 
   10800    295.09829   -29186.626    140.74111   -29327.367    903.45722 
   11000    323.15415   -29186.379    154.12178     -29340.5    23208.539 
   11200    281.39514   -29207.649    134.20567   -29341.855   -8269.1637 
   11400    291.07891   -29180.532    138.82415   -29319.357    20220.676 
   11600    310.69298   -29179.873    148.17868   -29328.051    25071.377 
   11800     268.4203   -29207.892    128.01759    -29335.91   -8350.2256 
   12000    300.83483   -29189.786    143.47704   -29333.263   -3772.8103 
   12200    315.27573   -29187.096    150.36433    -29337.46   -15958.129 
   12400    311.85612   -29176.618    148.73341   -29325.351   -19783.189 
   12600    287.97492   -29170.412    137.34377   -29307.755   -13068.031 
   12800     286.9293   -29196.687    136.84508   -29333.532    15319.309 
   13000    306.69958   -29175.766    146.27411    -29322.04    29197.253 
   13200    296.89576   -29151.104    141.59838   -29292.702   -12684.121 
   13400    318.57751   -29168.439    151.93905   -29320.378    -18870.85 
   13600    296.47895   -29183.256    141.39959   -29324.656   -14594.093 
   13800    310.36104   -29152.585    148.02037   -29300.605    18603.222 
   14000    312.03785   -29161.785    148.82009   -29310.605   -4029.4103 
   14200     327.0196    -29169.02    155.96533   -29324.986      38294.9 
   14400    258.41781   -29197.502    123.24711    -29320.75    30097.174 
   14600    307.16092   -29173.317    146.49414   -29319.812    7253.1246 
   14800    286.45675   -29174.625    136.61971   -29311.244    -62642.51 
   15000    274.28795   -29198.378    130.81604   -29329.194   -3762.3154 
   15200     303.3329    -29179.24    144.66844   -29323.908   -46036.664 
   15400    327.37062   -29167.218    156.13274   -29323.351   -21793.888 
   15600    294.05273   -29195.655    140.24245   -29335.897   -25905.229 
   15800    280.93555   -29181.854    133.98648    -29315.84   -7015.2718 
   16000     281.7371   -29176.226    134.36877   -29310.595   -17047.317 
   16200    302.00203    -29182.75    144.03371   -29326.784    23710.173 
   16400    290.69381   -29193.793    138.64049   -29332.433   -30947.977 
   16600    303.79909    -29164.56    144.89078    -29309.45    -27746.17 
   16800    304.56144   -29168.602    145.25437   -29313.856    17085.433 
   17000    267.93475   -29177.782    127.78602   -29305.568    25023.743 
   17200    309.43161   -29167.825    147.57709   -29315.402    6448.7823 
   17400    322.80959   -29167.972    153.95745    -29321.93    29485.641 
   17600    284.23635   -29188.994    135.56073   -29324.554    20789.078 
   17800    291.38835   -29155.621    138.97173   -29294.592    4167.8712 
   18000    303.23122    -29172.28    144.61995     -29316.9   -11858.996 
   18200    280.81766   -29181.485    133.93026   -29315.416   -26110.621 
   18400    303.70169   -29171.753    144.84433   -29316.597   -4844.3884 
   18600    294.82987   -29174.238    140.61309   -29314.851    6985.4014 
   18800    275.86442   -29169.168    131.56791   -29300.736   -14960.295 
   19000    292.10921   -29169.935    139.31553    -29309.25    57880.593 
   19200    309.23666   -29191.888    147.48412   -29339.372    -2508.263 
   19400    307.61774   -29157.322    146.71201   -29304.034   -58349.419 
   19600    297.37718   -29172.986    141.82798   -29314.814   -18682.156 
   19800    270.60091   -29180.144    129.05759   -29309.202     28036.56 
   20000    320.68315     -29172.9    152.94329   -29325.844   -2559.3972 
   20200    295.13621   -29183.871     140.7592    -29324.63    3690.7967 
   20400    291.14993   -29194.998    138.85802   -29333.856   -17713.501 
   20600    313.57203   -29166.537    149.55179   -29316.089   -15699.655 
   20800    274.22104   -29205.419    130.78413   -29336.203   -54023.278 
   21000     287.3328   -29188.243    137.03752    -29325.28   -12495.658 
   21200    304.15743   -29189.377    145.06169   -29334.439    -9279.769 
   21400    282.03253   -29213.608    134.50966   -29348.118   -15589.259 
   21600    297.62384   -29187.697    141.94562   -29329.642     28742.23 
   21800    308.63406   -29194.215    147.19672   -29341.411    3100.5344 
   22000    297.31938    -29187.35    141.80042    -29329.15    13601.983 
   22200    289.29131   -29177.874    137.97159   -29315.846    100636.29 
   22400    255.93591   -29194.067    122.06341   -29316.131    19162.431 
   22600    311.96393   -29183.001    148.78484   -29331.785    -6226.282 
   22800    303.48717   -29173.022    144.74201   -29317.764   -39228.645 
   23000    292.32221   -29199.401    139.41712   -29338.818     28783.21 
   23200    299.65441   -29188.531    142.91406   -29331.445   -8581.5831 
   23400    327.14045   -29174.968    156.02297   -29330.991    12069.059 
   23600    263.55563   -29203.764    125.69748   -29329.461    12337.096 
   23800     306.0722   -29185.598    145.97489   -29331.573   -27753.749 
   24000    285.63502   -29178.144     136.2278   -29314.372   -18827.062 
   24200    307.02578   -29167.976    146.42969   -29314.406   -37585.046 
   24400    325.63041   -29158.578    155.30278   -29313.881   -16752.758 
   24600    305.81826   -29182.278    145.85378   -29328.132   -10308.769 
   24800    280.65244   -29192.474    133.85146   -29326.325   -27980.667 
   25000    274.45853   -29208.364     130.8974   -29339.262    26691.521 
   25200    307.84489   -29176.558    146.82034   -29323.379    18767.803 
   25400     295.6337   -29178.889    140.99647   -29319.886   -5883.3349 
   25600    302.61134   -29188.177    144.32431   -29332.501   -16601.882 
   25800    318.23605   -29170.238    151.77619   -29322.014   -40033.757 
   26000    302.16172   -29168.334    144.10987   -29312.444    11875.734 
   26200    277.19361   -29191.206    132.20184   -29323.407   -35213.298 
   26400    290.83801    -29165.42    138.70926   -29304.129    19020.629 
   26600    282.71381   -29179.842    134.83459   -29314.677   -6231.5933 
   26800    289.95994   -29191.815    138.29048   -29330.105    48694.608 
   27000    309.94464   -29171.758    147.82177    -29319.58   -12573.266 
   27200    257.07654   -29197.992    122.60742   -29320.599   -30028.038 
   27400    276.21499   -29188.547    131.73511   -29320.282    19.542101 
   27600     313.6143   -29175.919    149.57194   -29325.491   -25480.383 
   27800     290.4224   -29174.718    138.51104   -29313.229     -1719.43 
   28000    332.98648   -29148.497    158.81111   -29307.308   -19816.123 
   28200    274.15552    -29179.38    130.75289   -29310.133    4766.9476 
   28400    296.83551   -29177.468    141.56964   -29319.037   -25645.476 
   28600    334.46214   -29147.939     159.5149   -29307.453    11357.445 
   28800    271.75925   -29179.785    129.61003   -29309.395   -46820.534 
   29000    268.92536   -29181.366    128.25847   -29309.625   -18831.305 
   29200    313.65147   -29160.422    149.58967   -29310.011    5953.0064 
   29400    314.01969    -29182.53    149.76529   -29332.296   -28286.893 
   29600    300.66893   -29178.724    143.39792   -29322.122   -2881.7973 
   29800    319.50295   -29166.041    152.38042   -29318.422    18968.503 
   30000    332.94042    -29162.52    158.78914   -29321.309   -17401.625 
   30200    286.38172   -29194.031    136.58392   -29330.615    29807.147 
   30400    332.68845   -29182.255    158.66897   -29340.924    9062.1067 
   30600    313.69334   -29156.342    149.60964   -29305.951   -17453.719 
   30800    318.22957   -29189.428    151.77311   -29341.201   -1.5718218 
   31000    279.03973    -29186.36    133.08231   -29319.443    26774.319 
   31200    299.67344   -29160.916    142.92314   -29303.839    18.200119 
   31400    303.84372   -29182.832    144.91207   -29327.744   -7576.8371 
   31600    296.73325    -29187.87    141.52087   -29329.391    14105.784 
   31800    274.05186   -29175.322    130.70345   -29306.025   -28000.073 
   32000    323.74809   -29162.045    154.40505    -29316.45    34426.109 
   32200    301.97383   -29195.843    144.02026   -29339.863   -9190.1219 
   32400     278.4282   -29176.428    132.79065   -29309.219    -21298.34 
   32600    289.45437   -29178.789    138.04936   -29316.838    19226.251 
   32800    303.59764   -29189.413     144.7947   -29334.208   -31967.784 
   33000     290.6031   -29202.193    138.59722    -29340.79    9142.9991 
   33200     269.9417   -29220.299    128.74319   -29349.042    -30607.91 
   33400    306.31686   -29186.333    146.09158   -29332.425    25540.566 
   33600    282.95441   -29199.127    134.94933   -29334.077    205.65864 
   33800    286.17299   -29228.047    136.48437   -29364.532    14698.637 
   34000    272.82855   -29206.051    130.12001   -29336.171   -15731.547 
   34200     304.6101   -29182.947    145.27757   -29328.225    20788.586 
   34400    302.61229   -29185.138    144.32476   -29329.463    31039.194 
   34600    259.16655   -29200.929     123.6042   -29324.533    23287.751 
   34800     305.2104   -29192.173    145.56388   -29337.737   -5875.9697 
   35000    294.82627   -29179.088    140.61138     -29319.7    -3964.787 
   35200    274.75829   -29209.062    131.04037   -29340.103   -36513.972 
   35400    286.52154   -29187.414     136.6506   -29324.065    3713.6528 
   35600    299.30829   -29182.495    142.74899   -29325.244   -12305.554 
   35800    272.84639   -29217.135    130.12852   -29347.263    22979.541 
   36000    286.11178   -29185.481    136.45518   -29321.936    3825.4328 
   36200    302.89217   -29174.376    144.45824   -29318.835    39271.188 
   36400    267.48637    -29200.46    127.57217   -29328.032    4101.1937 
   36600    303.69548   -29177.394    144.84136   -29322.235    17443.178 
   36800    335.58284   -29163.915    160.04939   -29323.964   -29090.661 
   37000    305.77879   -29187.392    145.83496   -29333.227   -12860.876 
   37200    287.29537   -29188.461    137.01967   -29325.481   -12443.807 
   37400    313.45751   -29173.534    149.49717   -29323.031   -5979.0304 
   37600    309.08396   -29169.309    147.41129    -29316.72    13460.582 
   37800    315.64842   -29148.709    150.54208   -29299.252   -51109.353 
   38000    297.46091   -29183.152    141.86791    -29325.02   -21205.264 
   38200    281.70904    -29178.44    134.35538   -29312.795    2248.1356 
   38400    343.26549   -29150.072    163.71347   -29313.786    40587.213 
   38600    327.08591   -29185.896    155.99696   -29341.893    9229.7365 
   38800      281.842   -29182.793    134.41879   -29317.212    18139.631 
   39000    306.76873   -29158.311    146.30709   -29304.618    23366.722 
   39200    300.32966   -29179.831    143.23611   -29323.067    47629.483 
   39400    297.02326   -29186.438    141.65919   -29328.097    3156.0349 
   39600      345.837   -29159.265     164.9399   -29324.205    17108.146 
   39800    288.39801   -29200.342    137.54555   -29337.887   -33504.975 
   40000    304.03864   -29177.721    145.00503   -29322.726   -4033.1566 
   40200    303.87743   -29163.068    144.92815   -29307.996   -2712.2345 
   40400    280.74896   -29199.405    133.89749   -29333.303   -57110.475 
   40600    309.53515   -29187.644    147.62648   -29335.271    11989.352 
   40800    307.27612   -29171.575    146.54908   -29318.124    24631.405 
   41000    280.91982   -29187.228    133.97898   -29321.207   -1865.8205 
   41200    289.58361   -29187.424      138.111   -29325.535    9119.0088 
   41400    313.91136   -29161.578    149.71362   -29311.292   -2181.7749 
   41600    292.46966   -29195.708    139.48744   -29335.196    19461.358 
   41800    274.59473   -29194.049    130.96235   -29325.011    -6157.271 
   42000    321.70371   -29157.697    153.43002   -29311.127     26450.74 
   42200    311.00597   -29189.602    148.32796    -29337.93   -26398.527 
   42400    311.19111   -29187.583    148.41626   -29335.999    29404.792 
   42600    292.24301   -29182.736    139.37934   -29322.115   -34748.131 
   42800    272.21651   -29209.514    129.82812   -29339.342    12132.769 
   43000    301.18648   -29186.635    143.64475    -29330.28    30470.645 
   43200    337.45534   -29186.075    160.94245   -29347.018    21041.766 
   43400    297.20165   -29187.959    141.74426   -29329.704   -19873.316 
   43600    298.23853   -29170.119    142.23878   -29312.357    -8496.138 
   43800    263.62562   -29192.684    125.73086   -29318.415   -26116.934 
   44000    308.41839   -29198.283    147.09386   -29345.377    2693.7819 
   44200    318.99023   -29159.106    152.13588   -29311.242    54038.927 
   44400    290.66968   -29182.483    138.62898   -29321.112   -3659.4886 
   44600      276.479   -29194.964    131.86102   -29326.825    25098.695 
   44800     323.4211   -29160.123     154.2491   -29314.372    14499.197 
   45000    317.61584   -29179.771     151.4804   -29331.251   -25673.929 
   45200      278.111   -29183.723    132.63937   -29316.363    15247.095 
   45400    331.98991   -29152.006    158.33582   -29310.342    16458.341 
   45600    317.63663   -29177.912    151.49031   -29329.402   -2849.1305 
   45800    326.56564   -29176.668    155.74882   -29332.417   -30902.785 
   46000    302.65381   -29169.256    144.34456   -29313.601    82.232774 
   46200    260.91075   -29188.797    124.43606   -29313.233   -16317.137 
   46400    319.75371   -29179.554    152.50001   -29332.054       5756.2 
   46600    320.29622    -29166.52    152.75875   -29319.279    33502.372 
   46800    305.12485   -29182.723    145.52307   -29328.247   -4981.3707 
   47000    299.46198   -29175.874    142.82229   -29318.696    30910.998 
   47200     311.4809   -29153.606    148.55446    -29302.16    17391.195 
   47400    294.77847    -29181.41    140.58858   -29321.999     20153.08 
   47600    280.35514    -29186.27    133.70966    -29319.98   -26721.511 
   47800    321.97988   -29152.622    153.56174   -29306.184   -18679.128 
   48000    278.58399   -29168.919    132.86495   -29301.784    -30250.86 
   48200     279.4415   -29187.825    133.27392   -29321.099   -4046.6042 
   48400    313.29731   -29157.716    149.42076   -29307.137   -20876.409 
   48600    314.81906   -29163.361    150.14653   -29313.508   -45655.582 
   48800    284.49897   -29187.466    135.68598   -29323.152    31347.738 
   49000    279.05189     -29181.1    133.08811   -29314.188     21050.51 
   49200    311.75559    -29165.44    148.68547   -29314.125    28087.305 
   49400    290.39127   -29169.355    138.49619   -29307.851    926.90049 
   49600     278.1247     -29183.5    132.64591   -29316.146   -35738.228 
   49800    254.29734   -29196.343    121.28193   -29317.625   -18249.978 
   50000    319.47073   -29163.976    152.36505   -29316.341    13743.756 
   50200     279.1951   -29188.245    133.15641   -29321.402    8394.4969 
   50400    312.05342   -29177.351    148.82752   -29326.178   -16448.894 
   50600    331.72958   -29166.963    158.21166   -29325.175    1680.0628 
   50800    276.52596   -29188.746    131.88342   -29320.629     18345.35 
   51000    319.96832   -29155.313    152.60237   -29307.915   -35681.328 
   51200    315.33725   -29165.465    150.39367   -29315.859    724.96673 
   51400    310.66623   -29172.649    148.16592   -29320.815   -2778.4847 
   51600    293.81759   -29174.178    140.13031   -29314.308   -6678.0878 
   51800    279.64461   -29185.895     133.3708   -29319.266    -10979.13 
   52000    310.42223   -29156.357    148.04955   -29304.406    13625.922 
   52200    302.14843   -29180.293    144.10353   -29324.397     53605.55 
   52400    287.38516   -29184.003    137.06249   -29321.066    10695.638 
   52600    343.27964   -29153.381    163.72023   -29317.102    18654.801 
   52800    335.04198   -29183.755    159.79144   -29343.547   -6042.5052 
   53000    304.04074   -29189.209    145.00603   -29334.215    18.496986 
   53200    328.12098   -29165.529    156.49061   -29322.019   -22192.298 
   53400    300.18028   -29186.573    143.16487   -29329.738     24744.65 
   53600    268.11971   -29190.161    127.87423   -29318.035    7479.2476 
   53800    319.95755   -29169.181    152.59723   -29321.779   -18337.194 
   54000    279.13895   -29193.433    133.12963   -29326.563   -31592.316 
   54200    285.97306   -29187.541    136.38902    -29323.93    2472.4164 
   54400    301.51802   -29171.462    143.80287   -29315.265    36148.872 
   54600    291.39192    -29207.59    138.97343   -29346.564    8925.0923 
   54800     308.7913   -29186.646    147.27171   -29333.918   -27677.581 
   55000     284.6502   -29187.933    135.75811   -29323.691    -35993.59 
   55200    242.66191   -29219.804    115.73265   -29335.537     40810.63 
   55400    268.36267   -29197.093     127.9901   -29325.084    -23046.99 
   55600    319.76686   -29180.713    152.50628   -29333.219   -10602.239 
   55800    271.19395   -29206.146    129.34043   -29335.487    26694.999 
   56000    285.83288   -29192.874    136.32216   -29329.196    26409.281 
   56200    292.17041   -29182.828    139.34472   -29322.173    44123.104 
   56400    282.41399   -29198.103    134.69159   -29332.795    32748.372 
   56600    271.36327   -29192.261    129.42118   -29321.682   -31098.309 
   56800    318.01606   -29176.501    151.67128   -29328.172    23352.049 
   57000    301.54068    -29204.03    143.81368   -29347.844   -6427.3303 
   57200    311.13114   -29181.325    148.38765   -29329.713   -32005.227 
   57400    301.84201   -29173.144    143.95739   -29317.101    24448.346 
   57600    312.12438   -29194.079    148.86136   -29342.941    1186.8083 
   57800    282.71185   -29211.996    134.83365   -29346.829   -6856.5522 
   58000    277.37927   -29195.646    132.29039   -29327.936   -52025.112 
   58200    299.35808   -29175.515    142.77273   -29318.288   -53063.681 
   58400    298.11284   -29197.513    142.17884   -29339.692    15807.118 
   58600    284.86357   -29195.929    135.85987   -29331.789   -41788.217 
   58800    317.43073   -29178.334    151.39212   -29329.726    20913.702 
   59000    261.88307   -29197.428    124.89979   -29322.328   -21260.275 
   59200    302.23195   -29172.097    144.14337    -29316.24    6077.1794 
   59400    287.99388   -29179.861    137.35281   -29317.213   -26773.274 
   59600    309.54555   -29185.393    147.63144   -29333.024   -27456.856 
   59800     282.8174   -29183.761    134.88399   -29318.645    31591.749 
   60000    254.01097   -29214.458    121.14535   -29335.603    3598.6679 
   60200    276.96732    -29183.29    132.09392   -29315.384     10744.15 
   60400    310.88131   -29169.248     148.2685   -29317.517   -44568.523 
   60600    303.62603    -29167.76    144.80824   -29312.568    46219.466 
   60800    283.82162   -29187.275    135.36293   -29322.638   -12559.561 
   61000    288.42651   -29193.023    137.55914   -29330.582    38043.543 
   61200    305.75189   -29166.321    145.82213   -29312.143    60120.714 
   61400    313.63125   -29157.588    149.58003   -29307.168    12614.252 
   61600    310.34607    -29190.43    148.01323   -29338.443   -36966.847 
   61800    307.13489   -29180.459    146.48172   -29326.941     32336.56 
   62000    328.39328   -29158.866    156.62048   -29315.487   -43404.371 
   62200    288.09576   -29194.815     137.4014   -29332.216    9806.8069 
   62400    295.95746   -29187.547    141.15087   -29328.698     20652.52 
   62600    333.61603   -29163.178    159.11136    -29322.29   -19330.967 
   62800    293.98907   -29199.999    140.21209   -29340.211    6719.8603 
   63000    323.25549   -29175.305    154.17011   -29329.476    23977.915 
   63200    285.60153   -29187.579    136.21183   -29323.791    51834.994 
   63400    267.76855   -29200.694    127.70675     -29328.4    -11974.24 
   63600    296.35006   -29181.814    141.33812   -29323.152    32757.202 
   63800    297.50788   -29173.989    141.89032   -29315.879    10469.055 
   64000    312.13451   -29190.669    148.86619   -29339.536   -21647.801 
   64200     285.7347   -29200.932    136.27534   -29337.207    9844.8082 
   64400    312.86258   -29174.326    149.21343   -29323.539   -11434.536 
   64600    299.23821   -29193.864    142.71556    -29336.58   -27652.599 
   64800    307.00682   -29195.373    146.42064   -29341.793    50888.627 
   65000    287.33817   -29191.357    137.04008   -29328.397   -1606.7649 
   65200    291.18837   -29191.728    138.87636   -29330.604    24826.856 
   65400    314.11599   -29165.202    149.81121   -29315.013    20069.839 
   65600    305.08866   -29179.792    145.50581   -29325.298   -9278.5407 
   65800    308.97112   -29186.653    147.35748    -29334.01    43875.057 
   66000    310.49446   -29167.073      148.084   -29315.157   -17184.993 
   66200    273.87329   -29204.461    130.61828    -29335.08    30801.806 
   66400    296.24151   -29178.931    141.28635   -29320.217   -19512.725 
   66600     315.9053    -29176.47    150.66459   -29327.135   -6241.0851 
   66800    277.59023   -29211.202      132.391   -29343.593    16115.049 
   67000    270.10333    -29234.62    128.82027   -29363.441    54136.844 
   67200    302.93047   -29191.292    144.47651   -29335.769   -21008.838 
   67400    323.09406   -29177.489    154.09312   -29331.582    31561.921 
   67600    262.63854   -29206.426    125.26009   -29331.687   -45208.669 
   67800    315.44521   -29180.778    150.44516   -29331.223    -2756.309 
   68000    285.00534   -29176.076    135.92748   -29312.004   -14562.589 
   68200    297.61398   -29191.045    141.94092   -29332.986   -3305.8048 
   68400    279.92055   -29215.533     133.5024   -29349.036   -25456.187 
   68600    295.14231   -29179.083    140.76211   -29319.846     6754.283 
   68800    295.82958    -29174.69    141.08989    -29315.78   -33811.689 
   69000    260.69944   -29196.569    124.33528   -29320.904    11718.769 
   69200    284.00203   -29191.941    135.44898    -29327.39    35227.094 
   69400    299.65077   -29171.331    142.91233   -29314.243    20884.452 
   69600     293.1064   -29196.596    139.79112   -29336.387    16057.655 
   69800    296.55135   -29187.503    141.43412   -29328.937   -21376.078 
   70000     260.9506   -29167.664    124.45507   -29292.119   -17427.547 
   70200    313.38135   -29179.827    149.46084   -29329.288    8392.2957 
   70400    266.64482   -29205.254    127.17081   -29332.425   -41220.326 
   70600    325.73563   -29167.671    155.35296   -29323.024    24519.845 
   70800    304.12136   -29181.755    145.04448     -29326.8    43104.863 
   71000    298.29409   -29195.759    142.26528   -29338.024   -12849.293 
   71200    288.78907   -29181.258    137.73206    -29318.99    -648.8298 
   71400    314.02497    -29172.27    149.76781   -29322.038   -3318.1611 
   71600    285.26783   -29207.931    136.05267   -29343.983   -14832.921 
   71800    286.27343   -29186.799    136.53227   -29323.331    28614.342 
   72000    296.29798    -29181.03    141.31328   -29322.343   -28451.097 
   72200     289.8232   -29189.627    138.22526   -29327.852   -17501.707 
   72400    309.06825   -29178.484     147.4038   -29325.888   -40766.082 
   72600    305.72162   -29170.738    145.80769   -29316.546     23828.02 
   72800    264.19076   -29198.473    126.00039   -29324.473    19891.023 
   73000    316.68785   -29173.888    151.03781   -29324.926   -1269.5422 
   73200    289.55417   -29167.271    138.09696   -29305.368   -22719.274 
   73400    300.46598     -29177.8    143.30112   -29321.101   -17808.577 
   73600    296.94328   -29200.543    141.62104   -29342.164    3416.4699 
   73800    305.98316   -29178.596    145.93243   -29324.529    7538.3852 
   74000    278.88297   -29212.384    133.00754   -29345.391    7862.9508 
   74200    295.54664   -29197.747    140.95494   -29338.702   -16878.121 
   74400    329.52805    -29181.87    157.16168   -29339.032    23255.226 
   74600    275.37141   -29218.421    131.33278   -29349.754    37508.219 
   74800    303.76709   -29204.768    144.87552   -29349.644   -14345.222 
   75000    301.14207   -29193.532    143.62357   -29337.156    2546.1805 
   75200     291.7481   -29186.313     139.1433   -29325.456     2554.212 
   75400    317.46675   -29182.463    151.40929   -29333.872   -25164.682 
   75600    306.33756   -29188.787    146.10145   -29334.889   -8715.7205 
   75800    288.53853   -29183.769    137.61257   -29321.381   -20845.268 
   76000    298.83959   -29185.065    142.52545   -29327.591    33385.322 
   76200    282.54884   -29201.073    134.75591   -29335.829   -10237.682 
   76400    336.59858   -29173.677    160.53383   -29334.211   -31069.619 
   76600    297.65757   -29197.611    141.96171   -29339.573    15941.141 
   76800    303.55972   -29196.481    144.77662   -29341.258   -1427.7518 
   77000    330.18029   -29174.414    157.47275   -29331.887    -22714.52 
   77200    281.65961   -29199.763    134.33181   -29334.095   -9911.6174 
   77400     313.0646   -29173.566    149.30978   -29322.876    32043.316 
   77600    301.78984   -29175.911    143.93251   -29319.843   -26052.439 
   77800    291.22344   -29194.074    138.89308   -29332.967    355.33936 
   78000    304.29266    -29198.59    145.12618   -29343.716   -31511.624 
   78200    297.10097   -29172.096    141.69625   -29313.792   -22490.266 
   78400    295.83542   -29175.017    141.09267    -29316.11     29841.84 
   78600    271.04186   -29192.509    129.26789   -29321.777    21380.022 
   78800    311.23371   -29162.598    148.43657   -29311.035   -23743.995 
   79000    285.25763   -29181.774    136.04781   -29317.822   -19257.628 
   79200    291.38856   -29181.561    138.97183   -29320.533    24916.116 
   79400    308.19461    -29178.37    146.98714   -29325.357     1899.368 
   79600    305.75341   -29172.945    145.82285   -29318.768   -19897.723 
   79800    327.96981    -29167.51    156.41852   -29323.928   -23288.536 
   80000     284.3818   -29197.927     135.6301   -29333.557    27639.709 
   80200    295.94165   -29175.526    141.14333   -29316.669    48.432282 
   80400    304.19429   -29172.981    145.07926    -29318.06    -14213.51 
   80600    296.84395   -29179.863    141.57367   -29321.437   -33573.031 
   80800    276.23928   -29174.337    131.74669   -29306.084    -20778.22 
   81000    292.96674   -29189.714    139.72451   -29329.438   -30253.297 
   81200    269.88951   -29196.894     128.7183   -29325.613    3616.8277 
   81400    314.87868   -29173.832    150.17496   -29324.007   -47138.929 
   81600    285.98888   -29168.073    136.39657    -29304.47    29076.784 
   81800     339.6115   -29146.422    161.97078   -29308.393    21142.724 
   82000    307.51855   -29181.902     146.6647   -29328.567   -17416.622 
   82200    288.27718   -29174.816    137.48792   -29312.304   -31886.784 
   82400    319.87945   -29154.315    152.55998   -29306.875     -911.574 
   82600    302.38767   -29190.535    144.21763   -29334.753    15863.754 
   82800    286.36499    -29167.36    136.57594   -29303.936    49578.179 
   83000    315.46482   -29172.548    150.45451   -29323.002    19821.372 
   83200    295.69362   -29186.708    141.02504   -29327.733   -22117.687 
   83400    291.69324   -29202.578    139.11714   -29341.696    24265.494 
   83600    273.35276   -29205.479    130.37003   -29335.849   -20966.644 
   83800    314.07778   -29174.324    149.79299   -29324.117    2847.7312 
   84000    294.85151   -29200.256    140.62342   -29340.879    85.600874 
   84200    288.25223   -29206.839    137.47602   -29344.315    15122.301 
   84400    298.69987   -29183.805    142.45881   -29326.263    15142.832 
   84600    296.64963   -29184.306    141.48099   -29325.787   -621.39859 
   84800    286.06541   -29188.535    136.43306   -29324.968    48799.452 
   85000    306.10221   -29152.906     145.9892   -29298.895    10138.966 
   85200    324.38411   -29171.969    154.70839   -29326.677    -2764.044 
   85400    303.31779   -29191.282    144.66123   -29335.943    18945.237 
   85600    318.06661    -29177.73    151.69538   -29329.425    17465.805 
   85800    322.36925   -29169.676    153.74744   -29323.423   -55209.935 
   86000    305.40667   -29194.331    145.65749   -29339.989    33303.483 
   86200    328.49551    -29181.71    156.66923   -29338.379    44728.082 
   86400    320.23221    -29171.77    152.72822   -29324.498    18933.072 
   86600    274.71266   -29202.616     131.0186   -29333.635    30260.797 
   86800    307.46102   -29182.919    146.63726   -29329.557    4797.8077 
   87000    310.74046   -29167.293    148.20132   -29315.494    27385.207 
   87200     283.5137   -29202.242    135.21608   -29337.458   -10687.503 
   87400    285.92825   -29175.734    136.36765   -29312.102    18058.017 
   87600    301.28639   -29175.373     143.6924   -29319.065    15221.568 
   87800    280.63783   -29205.401    133.84449   -29339.245   -40129.275 
   88000    313.64153   -29172.788    149.58493   -29322.372   -8175.2428 
   88200    313.92194   -29167.453    149.71867   -29317.172    22115.877 
   88400    286.24766   -29197.023    136.51998   -29333.543    7947.6866 
   88600    309.04351   -29171.758      147.392    -29319.15    12170.899 
   88800    302.33868   -29167.347    144.19427   -29311.542    24284.118 
   89000    302.37224   -29193.865    144.21027   -29338.075    9121.9377 
   89200     304.7399   -29183.795    145.33948   -29329.135   -18962.226 
   89400    324.76624   -29167.868    154.89064   -29322.759    20075.616 
   89600    296.01902   -29195.942    141.18024   -29337.122   -13883.073 
   89800    289.72445   -29182.193    138.17817   -29320.371   -8807.2494 
   90000     332.7587   -29139.749    158.70247   -29298.452     -28187.7 
   90200     328.5121   -29165.805    156.67715   -29322.482    24918.199 
   90400    285.21417   -29184.509    136.02708   -29320.536    2278.3445 
   90600    324.32718   -29158.676    154.68124   -29313.357    37456.459 
   90800    306.44492   -29166.003    146.15266   -29312.155   -3817.3602 
   91000    295.07251   -29174.385    140.72882   -29315.114    7766.2593 
   91200     312.1256   -29157.227    148.86194   -29306.089   -11170.924 
   91400    333.80205   -29153.463    159.20008   -29312.663    24701.178 
   91600    277.64512   -29182.354    132.41718   -29314.771    -58628.85 
   91800    284.14512   -29188.378    135.51722   -29323.895     16749.73 
   92000    293.97814    -29166.19    140.20688   -29306.397   -32946.312 
   92200    280.83247   -29165.774    133.93732   -29299.711   -8433.7557 
   92400    295.63583   -29190.105    140.99748   -29331.103   -17303.212 
   92600    299.89391   -29173.743    143.02828   -29316.772    3860.5492 
   92800    308.20529   -29174.294    146.99223   -29321.287   -21029.139 
   93000     270.9632   -29201.335    129.23037   -29330.565     33715.89 
   93200    320.50972   -29174.324    152.86057   -29327.185    5480.4624 
   93400    307.15416   -29177.338    146.49091   -29323.828   -3973.9158 
   93600    325.57482   -29195.342    155.27627   -29350.618   -2390.9225 
   93800    288.30554   -29195.822    137.50145   -29333.323   -30753.894 
   94000    315.57312   -29190.235    150.50617   -29340.741    31126.246 
   94200    312.80941   -29162.846    149.18807   -29312.034    50169.541 
   94400    295.82716   -29190.082    141.08873   -29331.171   -40499.758 
   94600    289.79536   -29184.466    138.21199   -29322.678     38747.54 
   94800    345.76709    -29145.56    164.90656   -29310.467   -16882.118 
   95000     300.4187   -29179.869    143.27857   -29323.147   -3300.4206 
   95200    273.60864   -29200.654    130.49206   -29331.146    8008.6863 
   95400     324.2608   -29168.426    154.64958   -29323.075   -1722.4297 
   95600    314.22127   -29180.044    149.86143   -29329.906    7347.2163 
   95800    284.28231   -29192.845    135.58265   -29328.428     -58774.5 
   96000     289.0116    -29189.85    137.83819   -29327.688   -7488.1385 
   96200    314.08242   -29187.519    149.79521   -29337.315   -55050.876 
   96400    282.95531   -29198.256    134.94977   -29333.206    9281.1972 
   96600    332.69795   -29165.776     158.6735    -29324.45   -2553.1953 
   96800    300.17668    -29180.67    143.16315   -29323.833   -6339.2853 
   97000    295.50983   -29187.533    140.93739    -29328.47    6209.7546 
   97200     295.2471   -29173.739    140.81208   -29314.551    48010.573 
   97400    343.11631   -29145.739    163.64233   -29309.381   -11609.597 
   97600    281.02759   -29181.743    134.03038   -29315.773   -4922.4313 
   97800    288.65428   -29181.286    137.66777   -29318.954   -10901.628 
   98000    349.60609   -29153.894     166.7375   -29320.632    6768.9318 
   98200    293.86316   -29187.413    140.15204   -29327.566    1412.9917 
   98400    298.77035   -29182.184    142.49243   -29324.676    32768.437 
   98600    328.59311   -29157.136    156.71578   -29313.852   -9495.4433 
   98800    308.47327   -29191.192    147.12004   -29338.312     37284.87 
   99000    307.02378   -29192.932    146.42873   -29339.361    9009.7975 
   99200    331.82829   -29161.803    158.25874   -29320.061    52113.233 
   99400    283.72502   -29196.455    135.31686   -29331.772    22891.038 
   99600    292.00194   -29180.809    139.26437   -29320.073   -18968.542 
   99800    313.73701   -29167.105    149.63047   -29316.736   -2017.5094 
  100000    302.38628   -29174.547    144.21697   -29318.764    23877.058 
  100200    289.10401   -29193.563    137.88226   -29331.445   -16669.433 
  100400    288.12413   -29161.631    137.41493   -29299.046   -7260.0906 
  100600    281.63447   -29168.258    134.31982   -29302.578   -3997.7377 
  100800    272.45267   -29195.348    129.94074   -29325.288    21949.695 
  101000    286.85419   -29175.646    136.80925   -29312.455    10023.759 
  101200    308.15919   -29171.663    146.97024   -29318.633    7036.8376 
  101400    298.71639   -29204.808    142.46669   -29347.275     -4652.12 
  101600    314.13026   -29180.344    149.81802   -29330.163    11123.656 
  101800    324.06211   -29174.984    154.55481   -29329.539   -24602.514 
  102000    285.38491   -29206.573    136.10852   -29342.682   -6643.9594 
  102200    305.77764   -29192.864    145.83441   -29338.698    3237.6711 
  102400    309.97875    -29182.67    147.83804   -29330.508    82262.527 
  102600     262.4323   -29204.992    125.16173   -29330.154   -21375.193 
  102800     280.9307   -29201.011    133.98417   -29334.996     23253.88 
  103000      317.301   -29180.648    151.33024   -29331.978   -12506.564 
  103200    263.15771   -29200.157     125.5077   -29325.665   -1922.3239 
  103400     305.1239   -29182.312    145.52262   -29327.835    20356.723 
  103600    330.44215   -29176.795    157.59764   -29334.393    47712.854 
  103800    294.33159   -29200.044    140.37545    -29340.42    6512.1769 
  104000    282.30004   -29188.824    134.63725   -29323.462   -30232.238 
  104200    327.81515   -29151.726    156.34475   -29308.071   -13626.362 
  104400     292.2312   -29179.208    139.37371   -29318.581    -24174.56 
  104600    294.43387   -29183.957    140.42423   -29324.382   -9163.8845 
  104800    297.80746   -29179.294     142.0332   -29321.327   -25346.075 
  105000     304.2314   -29168.149    145.09696   -29313.246   -24063.199 
  105200    288.16972   -29197.915    137.43667   -29335.352   -9583.0102 
  105400    289.07993   -29191.539    137.87078    -29329.41   -17307.587 
  105600    322.45778   -29165.946    153.78966   -29319.735    24782.733 
  105800    275.52268   -29192.001    131.40493   -29323.406   -8983.2051 
  106000     278.0802   -29192.407    132.62468   -29325.031    3034.4587 
  106200    322.38961    -29185.02    153.75715   -29338.777    7966.3896 
  106400    321.40954   -29172.837    153.28973   -29326.127   -28849.274 
  106600    274.97425   -29172.718    131.14336   -29303.861    4935.9519 
  106800    270.07683   -29198.943    128.80764   -29327.751    28383.243 
  107000    299.36939   -29167.644    142.77813   -29310.422        21410 
  107200    321.16602   -29171.017    153.17358    -29324.19    15752.548 
  107400    273.43815   -29196.016    130.41075   -29326.426   -2015.9944 
  107600    305.49269   -29177.797    145.69851   -29323.495    19690.473 
  107800    306.66032   -29174.019    146.25539   -29320.275   -3373.5701 
  108000    310.61768    -29196.04    148.14277   -29344.183   -19819.676 
  108200    292.35713   -29191.916    139.43377    -29331.35   -53658.417 
  108400    293.14851   -29186.144     139.8112   -29325.955    31575.548 
  108600    300.41252   -29154.246    143.27563   -29297.521   -2848.1108 
  108800    303.61719   -29180.503    144.80403   -29325.307   -4322.3912 
  109000    300.03687   -29177.427    143.09647   -29320.523   -13698.531 
  109200    347.73624   -29154.129    165.84571   -29319.974    2333.3171 
  109400     298.3934   -29179.452    142.31265   -29321.764    10580.545 
  109600    297.45323    -29176.99    141.86425   -29318.854    25636.036 
  109800    316.99572   -29156.632    151.18464   -29307.817   -1864.6826 
  110000    331.80589   -29170.678    158.24805   -29328.926   -33444.046 
  110200    268.64896   -29206.916    128.12665   -29335.042    5572.3134 
  110400    282.98805   -29196.853    134.96538   -29331.818    770.34482 
  110600     301.3411   -29176.733    143.71849   -29320.452   -13616.082 
  110800    321.15115   -29170.428    153.16649   -29323.594    57086.622 
  111000    280.61256   -29202.615    133.83244   -29336.448    4525.1071 
  111200    292.65685   -29181.401    139.57672   -29320.978   -26540.487 
  111400     317.4965   -29170.499    151.42348   -29321.923    6672.1654 
  111600    292.37253    -29192.14    139.44112   -29331.581   -24555.248 
  111800    277.44803   -29187.764    132.32318   -29320.087   -39728.185 
  112000    318.54617   -29167.137     151.9241   -29319.061    -38929.83 
  112200    284.49807   -29195.041    135.68555   -29330.727    16442.704 
  112400    314.34794   -29165.546    149.92184   -29315.468    3994.5566 
  112600    335.07403   -29169.097    159.80673   -29328.904    -15847.02 
  112800    299.76889   -29189.471    142.96866   -29332.439    23370.212 
  113000    309.19541   -29174.682    147.46445   -29322.147   -39802.694 
  113200    282.94185   -29176.493    134.94335   -29311.436    27498.516 
  113400      301.151   -29190.256    143.62783   -29333.883   -3115.2114 
  113600    305.13265   -29169.684    145.52679   -29315.211   -25741.285 
  113800    295.41056   -29186.733    140.89004   -29327.623    55834.629 
  114000    295.62359   -29196.938    140.99164    -29337.93   -7697.1908 
  114200     331.1376   -29169.991    157.92933    -29327.92   -26607.671 
  114400     274.6884   -29201.314    131.00703   -29332.321    -19069.96 
  114600    303.76248   -29188.453    144.87332   -29333.326    3629.7307 
  114800    321.66258   -29182.836    153.41041   -29336.247   -10940.152 
  115000    315.19939    -29190.84    150.32792   -29341.168    9734.5572 
  115200    302.34738   -29192.151    144.19842    -29336.35   -17381.887 
  115400    303.63039   -29174.432    144.81032   -29319.242   -17933.723 
  115600     273.5169   -29204.747    130.44831   -29335.195    23721.643 
  115800    304.69058   -29191.972    145.31596   -29337.288    43697.763 
  116000    302.41991   -29186.108    144.23301   -29330.341   -9699.5568 
  116200    273.48762   -29188.463    130.43434   -29318.898    7592.3377 
  116400    288.08738   -29180.866     137.3974   -29318.263   -5535.8937 
  116600    313.56681   -29172.579     149.5493   -29322.128    29555.461 
  116800    279.95613   -29200.672    133.51937   -29334.191    1831.2497 
  117000    301.89881   -29174.383    143.98448   -29318.367   -2476.6244 
  117200    301.30738   -29177.474    143.70241   -29321.177    9073.8182 
  117400     264.6181   -29195.163    126.20421   -29321.367    39221.904 
  117600    328.18619   -29157.293    156.52171   -29313.814    -50505.19 
  117800    282.63145   -29185.544    134.79531   -29320.339   -517.61929 
  118000      294.044   -29190.477    140.23829   -29330.715    24102.964 
  118200    325.81763   -29158.538    155.39207    -29313.93    18181.074 
  118400    315.05659    -29186.26    150.25982    -29336.52    14910.496 
  118600    302.96432   -29185.537    144.49265    -29330.03   -1884.1239 
  118800          302   -29155.209    144.03274   -29299.242    27736.861 
  119000    281.57477   -29187.083    134.29134   -29321.374    36704.645 
  119200    289.55498    -29178.76    138.09734   -29316.857    8919.9873 
  119400    301.10601    -29160.04    143.60637   -29303.646   -52199.318 
  119600    262.92389   -29190.862    125.39619   -29316.258   -27158.782 
  119800     300.0147    -29172.34     143.0859   -29315.426    19825.493 
  120000    337.10176   -29165.284    160.77381   -29326.057    20356.693 
  120200    296.71386   -29173.347    141.51162   -29314.859    26356.089 
  120400    299.97002   -29167.122    143.06459   -29310.187   -17930.098 
  120600     343.1032   -29161.188    163.63608   -29324.824   -56623.665 
  120800    287.56417   -29187.716    137.14787   -29324.864   -44930.397 
  121000     324.9306   -29160.495    154.96902   -29315.464    -3034.202 
  121200    294.48466   -29187.671    140.44845   -29328.119    14027.653 
  121400    299.31661   -29181.537    142.75295    -29324.29   -37574.956 
  121600    312.80322    -29159.51    149.18512   -29308.695   -19052.317 
  121800    279.81024   -29192.646    133.44979   -29326.096    38730.126 
  122000    276.57995   -29184.282    131.90917   -29316.191   -20892.231 
  122200    319.62602   -29164.796    152.43911   -29317.235    14678.136 
  122400    291.98688    -29177.67    139.25719   -29316.927    13309.154 
  122600    291.54189   -29203.604    139.04496   -29342.649    55895.439 
  122800    297.98108   -29199.454      142.116    -29341.57     4335.779 
  123000     290.3682   -29178.526    138.48519   -29317.011     27328.59 
  123200    314.06856   -29166.711    149.78859     -29316.5   -25983.985 
  123400    292.27355   -29192.077    139.39391    -29331.47    223.82182 
  123600    271.31754   -29180.449    129.39937   -29309.849   -34136.093 
  123800    310.49629   -29167.161    148.08487   -29315.246     4352.223 
  124000     283.3566   -29184.433    135.14115   -29319.574    697.88066 
  124200    248.94736   -29210.812    118.73037   -29329.542    7605.0288 
  124400    332.06181   -29175.752    158.37011   -29334.122   -15065.536 
  124600    276.61357   -29180.301     131.9252   -29312.226     9321.003 
  124800    274.74561   -29200.735    131.03432   -29331.769    -50427.81 
  125000    275.63158   -29192.594    131.45686   -29324.051    30429.099 
  125200    299.54858   -29171.164    142.86359   -29314.027   -42611.283 
  125400    278.74552   -29203.136    132.94199   -29336.078   -8698.2707 
  125600    267.54339    -29196.38    127.59936    -29323.98    31251.484 
  125800    300.58524   -29175.957      143.358   -29319.315    38238.555 
  126000    279.20065   -29184.855    133.15906   -29318.014   -22213.986 
  126200    240.35447   -29221.434    114.63216   -29336.067    27365.392 
  126400    291.06461   -29191.617    138.81733   -29330.434   -2838.9308 
  126600    284.49162   -29170.709    135.68248   -29306.392   -3779.3831 
  126800    271.25964   -29176.429    129.37175   -29305.801    21897.676 
  127000    251.58402   -29200.844    119.98787   -29320.832    5483.3251 
  127200    321.60335    -29170.28    153.38216   -29323.662    -668.4124 
  127400    313.36525   -29179.575    149.45317   -29329.028   -17990.529 
  127600    265.35961   -29204.313    126.55786    -29330.87   -37473.857 
  127800    294.64377   -29202.957    140.52434   -29343.482    28228.736 
  128000    340.72269   -29174.354    162.50074   -29336.855    28543.896 
  128200     289.0582   -29202.757    137.86042   -29340.618   -17204.747 
  128400     290.2722    -29193.87    138.43941   -29332.309    21100.552 
  128600    314.81915   -29183.976    150.14657   -29334.123    10410.023 
  128800    309.57755   -29185.919     147.6467   -29333.565    69185.648 
  129000    282.56197   -29180.749    134.76217   -29315.512    310.59575 
  129200        316.1   -29181.949    150.75745   -29332.706    5318.3091 
  129400    249.66827   -29201.385    119.07419   -29320.459    29626.924 
  129600    318.00369   -29171.435    151.66538     -29323.1    2348.9765 
  129800    277.75247   -29174.442    132.46838   -29306.911   -3712.6508 
  130000    272.60355   -29197.342     130.0127   -29327.355   -8745.2322 
  130200    311.12122   -29155.786    148.38292   -29304.168   -33175.533 
  130400    301.05697   -29177.368    143.58298   -29320.951    1675.2281 
  130600    300.01961   -29196.461    143.08824   -29339.549     1745.145 
  130800    334.88291   -29164.158    159.71557   -29323.873   -10587.216 
  131000    346.39094   -29173.795     165.2041   -29338.999   -4955.8049 
  131200    295.14404   -29184.893    140.76293   -29325.656   -61613.737 
  131400    298.00495   -29174.516    142.12739   -29316.643    18717.267 
  131600     317.1383    -29171.05    151.25265   -29322.303   -6670.6552 
  131800    288.03744   -29194.347    137.37358   -29331.721   -11048.022 
  132000    328.22157   -29164.441    156.53859   -29320.979   -53155.766 
  132200    295.84634   -29178.208    141.09788   -29319.306    2115.6103 
  132400    266.00407   -29184.289    126.86521   -29311.154    18484.436 
  132600    304.68601   -29174.038    145.31378   -29319.352   -36573.524 
  132800    284.24868   -29160.917    135.56661   -29296.483    6663.5938 
  133000    283.85761   -29185.754     135.3801   -29321.134    8555.6497 
  133200    282.24111   -29163.676    134.60914   -29298.285    28472.542 
  133400    334.15617   -29157.627    159.36897   -29316.996   -28840.739 
  133600    275.15334   -29183.116    131.22877   -29314.345   -11608.113 
  133800    302.73384   -29188.936    144.38273   -29333.319    32240.105 
  134000    306.03431   -29160.972    145.95682   -29306.929    229.70598 
  134200    270.18797    -29188.27    128.86064   -29317.131    11622.218 
  134400    284.34984    -29192.15    135.61486   -29327.765   -17015.299 
  134600    304.06947   -29180.124    145.01973   -29325.143    30155.378 
  134800    280.79459   -29175.261    133.91925    -29309.18    57939.737 
  135000    288.51617   -29203.296    137.60191   -29340.898    8498.1863 
  135200    300.37936   -29176.526    143.25981   -29319.785   -25078.136 
  135400     308.3216   -29177.541     147.0477   -29324.588    19037.553 
  135600     285.4404   -29196.774    136.13498   -29332.909    -8415.873 
  135800    269.06241   -29200.365    128.32383   -29328.688    18441.136 
  136000    307.12915   -29170.501    146.47898    -29316.98   -63557.058 
  136200    271.13846   -29192.486    129.31396     -29321.8    48041.701 
  136400    297.78478    -29197.28    142.02238   -29339.302    38170.172 
  136600    310.52136   -29181.171    148.09683   -29329.268    -39095.92 
  136800    314.32621   -29190.619    149.91147   -29340.531    9617.8237 
  137000    303.23239   -29192.928    144.62051   -29337.549    10729.932 
  137200    315.44587   -29185.339    150.44548   -29335.785    6391.2071 
  137400    307.90487   -29195.388    146.84895   -29342.237   -6712.6014 
  137600     269.4256   -29206.782    128.49705   -29335.279    16387.122 
  137800    330.98661   -29177.798    157.85732   -29335.656    28789.782 
  138000    282.50533   -29199.139    134.73516   -29333.874    18681.452 
  138200    277.76614   -29192.359    132.47489   -29324.834   -445.79957 
  138400    325.71062   -29172.922    155.34104   -29328.263   -30812.646 
  138600    284.95708   -29198.474    135.90447   -29334.378    8616.2804 
  138800    293.07503   -29188.441    139.77616   -29328.217     9645.151 
  139000    316.18287   -29151.088    150.79697   -29301.885   -3051.2857 
  139200    332.74267   -29181.093    158.69483   -29339.787    3337.8785 
  139400    273.63577    -29187.35      130.505   -29317.855    25421.141 
  139600    321.91169   -29158.553    153.52922   -29312.082    -10841.37 
  139800    317.78417   -29175.604    151.56068   -29327.165    -4675.195 
  140000    314.39221   -29183.522    149.94295   -29333.465   -6593.7444 
  140200    294.01531    -29159.29    140.22461   -29299.514   -11415.497 
  140400    306.61396   -29162.078    146.23327   -29308.311    16781.959 
  140600    308.15017   -29186.312    146.96594   -29333.278   -38737.156 
  140800    313.99068   -29166.007    149.75145   -29315.759    7357.7767 
  141000    318.24581    -29190.98    151.78085   -29342.761   -19683.039 
  141200    278.43289   -29191.305    132.79289   -29324.098   -26574.372 
  141400    325.43695   -29171.145    155.21052   -29326.355    22542.024 
  141600    275.87803   -29198.118     131.5744   -29329.693   -36772.448 
  141800    302.73887   -29186.817    144.38513   -29331.202   -1950.7702 
  142000    304.94926   -29170.281    145.43933    -29315.72   -3057.7042 
  142200    312.15871   -29178.889    148.87773   -29327.767    14773.475 
  142400    323.48745   -29151.902    154.28074   -29306.182    59544.158 
  142600    304.56478   -29167.651    145.25596   -29312.907    10975.395 
  142800    316.36597   -29173.496     150.8843   -29324.381    5472.7994 
  143000    321.01837   -29139.901    153.10317   -29293.004    -14131.74 
  143200    299.93199   -29165.395    143.04644   -29308.441   -13405.017 
  143400     294.3755   -29185.512    140.39639   -29325.908   -48811.777 
  143600    276.64743   -29194.883    131.94135   -29326.824   -11628.607 
  143800    322.66341   -29164.787    153.88773   -29318.675    14818.966 
  144000    296.64365    -29194.12    141.47814   -29335.598    59758.787 
  144200    286.23863   -29190.072    136.51568   -29326.587    32381.339 
  144400    317.75458    -29174.22    151.54657   -29325.767    2749.5828 
  144600    276.56453   -29186.595    131.90181   -29318.496    3158.4071 
  144800    296.13702    -29198.35    141.23651   -29339.587   -70631.701 
  145000    295.34944   -29170.329    140.86089    -29311.19    -42649.03 
  145200    290.51807   -29179.058    138.55667   -29317.615   -14387.386 
  145400    267.66782   -29203.589    127.65871   -29331.248   -461.74845 
  145600    286.50844    -29178.56    136.64436   -29315.204    25833.531 
  145800    304.33283   -29174.222    145.14534   -29319.367    37598.161 
  146000    269.61357   -29200.139    128.58669   -29328.726    7611.3737 
  146200     282.6022   -29174.128    134.78135   -29308.909    27137.176 
  146400    296.05157   -29173.606    141.19576   -29314.801   -22254.875 
  146600    297.27174   -29196.142     141.7777   -29337.919   -16548.918 
  146800    300.60292   -29187.355    143.36643   -29330.721   -3333.2061 
  147000    287.67352   -29186.445    137.20002   -29323.645     -8170.75 
  147200    257.48008   -29200.035    122.79987   -29322.835    -31032.95 
  147400    306.64025   -29205.072    146.24582   -29351.317     10674.57 
  147600    313.09991   -29180.746    149.32662   -29330.073   -16603.187 
  147800     301.1276   -29192.862    143.61667   -29336.478   -15099.732 
  148000    270.81849   -29212.092    129.16136   -29341.253    17084.074 
  148200    332.12756   -29173.339    158.40147   -29331.741   -16617.906 
  148400    284.56428   -29194.125    135.71713   -29329.843    30399.721 
  148600    299.11889   -29191.521    142.65865   -29334.179    -10401.41 
  148800    314.91101   -29170.406    150.19039   -29320.597    2450.5321 
  149000    300.48917   -29196.756    143.31218   -29340.068   -19086.125 
  149200    309.43406   -29182.713    147.57826   -29330.291    22892.947 
  149400     330.3086   -29173.139    157.53395   -29330.672    14117.895 
  149600    314.13075   -29187.983    149.81826   -29337.801   -28727.387 
  149800    309.48869   -29190.445    147.60432   -29338.049    11246.673 
  150000     296.0552   -29190.078    141.19749   -29331.275    -2134.651 
  150200    305.37408   -29185.863    145.64194   -29331.505   -28975.373 
  150400    305.14715   -29178.732    145.53371   -29324.266    6648.3595 
  150600    314.02809   -29175.298     149.7693   -29325.067   -9983.9242 
  150800    304.75083   -29200.187    145.34469   -29345.532    2345.9492 
  151000    294.43062   -29171.493    140.42268   -29311.916   -5282.3487 
  151200    293.49905   -29182.363    139.97839   -29322.342   -42095.462 
  151400    277.45052   -29191.722    132.32437   -29324.046    26692.087 
  151600    305.10072   -29159.876    145.51157   -29305.388   -31685.622 
  151800    280.38138   -29188.677    133.72218   -29322.399    9188.3566 
  152000    312.59313   -29180.804    149.08492   -29329.889    10007.876 
  152200    339.34889   -29175.752    161.84553   -29337.597    8371.9872 
  152400    294.96031   -29184.529    140.67531   -29325.204   -17838.319 
  152600    266.95314   -29186.726    127.31786   -29314.044   -6964.3854 
  152800    324.91687   -29160.681    154.96247   -29315.644    -13598.98 
  153000     321.3184   -29183.463    153.24626   -29336.709    15532.578 
  153200    274.26044   -29204.125    130.80293   -29334.928   -17607.975 
  153400    289.27794   -29180.464    137.96522    -29318.43    -34374.99 
  153600    313.11672   -29167.463    149.33464   -29316.798   -18710.873 
  153800    291.48989   -29199.957    139.02016   -29338.977    34637.805 
  154000    262.17752   -29189.399    125.04022    -29314.44   -26439.123 
  154200    285.52717   -29177.175    136.17636   -29313.352    -18623.54 
  154400    344.19365   -29164.027    164.15614   -29328.183    39215.979 
  154600    292.08614   -29181.384    139.30453   -29320.689     3121.981 
  154800    275.78885     -29186.3    131.53187   -29317.831    31124.385 
  155000    336.17233   -29158.777    160.33054   -29319.108   -25684.494 
  155200    309.14064   -29184.545    147.43833   -29331.983    14814.796 
  155400    284.73859   -29188.206    135.80026   -29324.007   -14483.319 
  155600    329.70403   -29159.055    157.24561     -29316.3   -14047.961 
  155800    300.54228   -29187.976    143.33751   -29331.313   -22149.644 
  156000    307.41445   -29188.717    146.61505   -29335.332    2995.2968 
  156200    298.22077   -29188.838    142.23032   -29331.069     15321.61 
  156400    250.57754   -29213.985    119.50785   -29333.493   -8809.8286 
  156600    314.53118   -29183.505    150.00923   -29333.514   -35293.692 
  156800    281.09414    -29193.37    134.06212   -29327.432    42656.855 
  157000     270.7984   -29191.997    129.15177   -29321.149    8605.2581 
  157200    326.52892   -29163.291    155.73131   -29319.022    -19479.09 
  157400    265.29508   -29192.964    126.52708   -29319.491    -31192.09 
  157600    304.37239   -29189.177    145.16421   -29334.341   -47564.313 
  157800    285.87228    -29181.62    136.34096   -29317.961    22714.384 
  158000    321.43866   -29189.051    153.30361   -29342.354   -8608.8657 
  158200    296.67213   -29202.785    141.49172   -29344.276    16211.097 
  158400    309.20857   -29174.133    147.47072   -29321.603    41693.146 
  158600    303.45557   -29183.754    144.72695   -29328.481   -25962.839 
  158800    312.61592   -29193.432    149.09579   -29342.528    8277.8955 
  159000    315.15107   -29179.394    150.30488   -29329.699    -19716.01 
  159200    310.75218   -29168.156    148.20692   -29316.363    30301.077 
  159400    261.72028    -29200.45    124.82215   -29325.272    27631.695 
  159600    303.15233   -29179.499    144.58232   -29324.081   -36949.387 
  159800    313.84431   -29166.043    149.68164   -29315.725    12320.909 
  160000    307.47132   -29146.623    146.64218   -29293.265   -20580.842 
  160200    303.78298    -29164.86     144.8831   -29309.743   -16415.303 
  160400    275.13409   -29180.004    131.21959   -29311.224    1201.8787 
  160600    330.29519   -29155.966    157.52756   -29313.494    -28313.29 
  160800    317.89614   -29173.016    151.61408    -29324.63   -6677.7084 
  161000    324.81969   -29185.223    154.91613   -29340.139     6928.798 
  161200    312.87104    -29184.54    149.21746   -29333.757    5412.1778 
  161400      291.564   -29171.809     139.0555   -29310.864    -61.44061 
  161600    311.06099   -29198.849    148.35419   -29347.204    1349.9238 
  161800    286.16322   -29190.457    136.47971   -29326.937   -25823.827 
  162000    306.33961   -29176.877    146.10243   -29322.979   -7951.4694 
  162200    294.78043   -29182.842    140.58951   -29323.431    41273.681 
  162400    293.75409   -29165.164    140.10002   -29305.264   -2935.1967 
  162600    306.10813   -29165.881    145.99203   -29311.873   -29174.038 
  162800    306.47345   -29186.941    146.16626   -29333.107    18134.959 
  163000     318.9834   -29164.204    152.13263   -29316.336   -24198.908 
  163200    299.51658   -29169.575    142.84832   -29312.423    11761.078 
  163400    309.07133   -29194.565    147.40527   -29341.971   -4939.5061 
  163600    313.69736   -29168.076    149.61156   -29317.688   -1824.1649 
  163800    316.07317   -29179.877    150.74466   -29330.622   -30994.984 
  164000    279.03346   -29188.481    133.07932    -29321.56    1576.4706 
  164200    284.46542   -29183.011    135.66998   -29318.681   -17186.583 
  164400    323.13265   -29178.169    154.11153   -29332.281   -18152.596 
  164600    304.32734   -29204.577    145.14272    -29349.72   -5062.9623 
  164800     324.2268   -29177.036    154.63336    -29331.67    16171.523 
  165000    316.63878   -29179.106    151.01441    -29330.12    -4656.636 
  165200    270.79722   -29199.211    129.15121   -29328.363    -2017.298 
  165400     281.4454   -29202.959    134.22964   -29337.189   -3090.4741 
  165600    329.29982    -29170.57    157.05284   -29327.623    13854.603 
  165800    277.98909   -29193.215    132.58123   -29325.796   -31335.796 
  166000    310.77844   -29193.062    148.21944   -29341.282   -10322.407 
  166200    342.35555   -29165.361     163.2795    -29328.64    11854.785 
  166400    298.86046   -29192.767     142.5354   -29335.302     5250.472 
  166600    310.08556   -29192.263    147.88899   -29340.152    13075.965 
  166800    326.56346   -29162.766    155.74778   -29318.513    32543.289 
  167000    314.78018   -29190.732    150.12799    -29340.86    12320.787 
  167200    277.83515    -29185.79    132.50781   -29318.298    5247.3802 
  167400    323.53252   -29179.414    154.30224   -29333.716    17623.449 
  167600    254.45778   -29199.939    121.35845   -29321.297   -62847.416 
  167800    299.19805   -29178.034    142.69641    -29320.73    9190.0237 
  168000    284.38279   -29179.309    135.63057    -29314.94   -3097.1715 
  168200     286.7218   -29205.251    136.74611   -29341.997    6345.6436 
  168400    288.48034   -29189.837    137.58482   -29327.421   -7520.9587 
  168600    272.95424   -29182.483    130.17996   -29312.663    1358.3985 
  168800    307.40872   -29194.128    146.61232    -29340.74   -6604.1823 
  169000    297.31123   -29200.115    141.79653   -29341.911     31425.82 
  169200    336.93981   -29169.016    160.69657   -29329.712    16679.236 
  169400    299.38571   -29193.165    142.78591   -29335.951   -44473.389 
  169600    283.45916   -29204.096    135.19007   -29339.286    10705.096 
  169800    294.62719   -29173.989    140.51643   -29314.506   -9964.4239 
  170000    298.07099   -29168.348    142.15888   -29310.507   -6294.7797 
  170200      283.638   -29203.719    135.27536   -29338.995   -1530.2771 
  170400    302.00495   -29182.604     144.0351   -29326.639   -26114.585 
  170600    306.63488   -29177.016    146.24325   -29323.259    21145.044 
  170800    296.89045   -29186.292    141.59585   -29327.888    11784.269 
  171000    251.23505   -29210.063    119.82143   -29329.885    21203.552 
  171200     291.1248   -29178.204    138.84604    -29317.05    15636.405 
  171400    320.40942   -29171.731    152.81274   -29324.544    27182.082 
  171600    293.76592    -29196.85    140.10567   -29336.956    24756.056 
  171800    274.59423   -29179.634    130.96212   -29310.597   -19629.097 
  172000    322.96281    -29167.21    154.03053    -29321.24   -6636.6066 
  172200    276.78405   -29192.361    132.00651   -29324.368    6751.4988 
  172400    287.30754   -29188.415    137.02547    -29325.44    15950.088 
  172600    322.04637   -29178.067    153.59345    -29331.66    2291.7414 
  172800    304.82535   -29184.652    145.38023   -29330.032   -646.38349 
  173000    260.58063   -29200.917    124.27862   -29325.196    5347.8542 
  173200     307.7224    -29167.51    146.76193   -29314.272   -22378.032 
  173400    298.56672   -29178.053    142.39531   -29320.448     5377.542 
  173600    268.61732   -29200.375    128.11155   -29328.487   -6602.4516 
  173800    284.86248   -29180.881    135.85935    -29316.74   -24967.216 
  174000    309.56011   -29172.678    147.63838   -29320.317   -39103.218 
  174200    268.44274   -29200.984    128.02829   -29329.012   -1981.0779 
  174400    324.14354   -29173.222    154.59365   -29327.816   -25201.379 
  174600    317.71606   -29179.114    151.52819   -29330.642      14959.2 
  174800     277.8867   -29199.196    132.53239   -29331.728    42281.758 
  175000    331.43782   -29163.837    158.07251   -29321.909    10942.777 
  175200    315.32763    -29186.59    150.38908   -29336.979   -38412.594 
  175400    292.58985   -29195.618    139.54476   -29335.163   -3578.9884 
  175600    342.84525   -29159.176    163.51305   -29322.689   -18227.231 
  175800    323.92205   -29168.359    154.48802   -29322.847   -24203.766 
  176000    283.31829   -29193.853    135.12288   -29328.976   -29919.702 
  176200    290.55544   -29186.025    138.57449     -29324.6    40480.555 
  176400    298.75689   -29169.915    142.48601   -29312.401     22161.32 
  176600    298.45321   -29190.612    142.34117   -29332.953    21595.635 
  176800    294.65498   -29188.239    140.52968   -29328.769   -10188.728 
  177000    278.23691   -29185.104    132.69942   -29317.803   -35835.632 
  177200    280.37412   -29193.359    133.71872   -29327.077    32011.157 
  177400    286.58163   -29185.105    136.67926   -29321.784   -23005.417 
  177600    298.24465   -29181.502     142.2417   -29323.744   -23703.417 
  177800     296.4967   -29200.218    141.40806   -29341.626    -10675.91 
[...]
  950000    312.72821    -29211.04    149.14934   -29360.189   -14719.047 
  950200    327.20569   -29201.611    156.05408   -29357.665    15839.847 
  950400    341.95582   -29175.839    163.08886   -29338.928     8443.945 
  950600    308.31409   -29210.789    147.04412   -29357.833   -5989.7004 
  950800    324.32875   -29215.535    154.68199   -29370.217    8755.6533 
  951000    333.82401   -29192.219    159.21056    -29351.43   -7366.7555 
  951200    289.81399   -29217.615    138.22087   -29355.836   -15410.033 
  951400    299.63483   -29218.301    142.90472   -29361.206    16577.931 
  951600    341.14173    -29192.26    162.70059   -29354.961    8319.4675 
  951800    332.72487   -29182.021    158.68634   -29340.707   -11886.302 
  952000    286.15169   -29216.663    136.47422   -29353.137    2113.5247 
  952200    289.22173   -29220.295    137.93841   -29358.233   -12505.157 
  952400    295.43349    -29187.67    140.90098   -29328.571    19086.324 
  952600    262.43368   -29217.151    125.16239   -29342.314    3533.0078 
  952800    302.53126   -29214.593    144.28611   -29358.879   -29246.169 
  953000    325.08236   -29191.958     155.0414   -29346.999   -2489.2356 
  953200     297.1415   -29205.145    141.71558    -29346.86   -9699.6319 
  953400    284.94235   -29223.728    135.89744   -29359.626    17241.504 
  953600    318.20221   -29193.235    151.76005   -29344.995     -15372.3 
  953800    294.71468   -29200.591    140.55816   -29341.149   -17199.387 
  954000    332.64741   -29213.429     158.6494   -29372.079   -50994.608 
  954200    279.72662   -29218.252    133.40991   -29351.662    36223.213 
  954400    324.64142   -29193.419     154.8311    -29348.25    19874.532 
  954600    305.80349   -29222.633    145.84674   -29368.479     -1901.86 
  954800    270.45421   -29218.895    128.98762   -29347.883    60596.876 
  955000    295.17606   -29209.497     140.7782   -29350.275     11152.73 
  955200    286.67898   -29213.912    136.72569   -29350.638   -10432.452 
  955400    290.55165   -29223.792    138.57269   -29362.365    6391.5649 
  955600    275.02303   -29219.028    131.16663   -29350.195     25210.94 
  955800    330.69865   -29199.138    157.71998   -29356.858    8413.0822 
  956000    274.12597   -29234.834    130.73879   -29365.572    -16002.89 
  956200    299.95969   -29216.655    143.05966   -29359.715    4790.1272 
  956400    304.67844   -29209.761    145.31017   -29355.071   -22262.991 
  956600    283.70793   -29220.493    135.30871   -29355.802   -6812.8037 
  956800     289.7007   -29221.802    138.16684   -29359.969    -17556.89 
  957000    299.79716   -29194.967    142.98214   -29337.949    36903.251 
  957200    292.27448    -29221.38    139.39435   -29360.775    -21171.19 
  957400    272.71443   -29222.455    130.06559   -29352.521    24095.994 
  957600    307.92911   -29199.084    146.86051   -29345.944    17447.513 
  957800    273.46004   -29208.231    130.42119   -29338.652   -33067.265 
  958000    280.00986   -29228.141    133.54499   -29361.686    13349.299 
  958200    311.07446   -29198.943    148.36062   -29347.304    39242.923 
  958400    310.20588   -29200.232    147.94637   -29348.178    6593.1789 
  958600    305.77569   -29212.678    145.83348   -29358.512   -14226.849 
  958800    296.31472   -29219.132    141.32126   -29360.453    10654.715 
  959000    323.46546   -29205.789    154.27026   -29360.059    1137.7788 
  959200    321.75643   -29196.093    153.45517   -29349.548   -47236.477 
  959400    281.93541   -29224.533    134.46334   -29358.996    48521.624 
  959600    312.07617   -29207.131    148.83837   -29355.969    15653.652 
  959800    314.81103   -29206.561     150.1427   -29356.703    7121.7375 
  960000    269.75184   -29233.856    128.65264   -29362.509   -14823.747 
  960200    282.78507   -29206.626    134.86857   -29341.495    10091.598 
  960400      309.127   -29216.756    147.43182   -29364.188   -31683.666 
  960600    244.94945   -29251.649    116.82365   -29368.473    33084.474 
  960800    275.22147   -29232.279    131.26127   -29363.541   -16968.056 
  961000    305.49323   -29203.843    145.69876   -29349.542   -1654.5331 
  961200    308.55551   -29205.941    147.15926     -29353.1    6390.9901 
  961400    285.73617   -29227.166    136.27604   -29363.442    21129.937 
  961600    318.05863    -29192.97    151.69158   -29344.661    10035.172 
  961800    273.97591   -29213.129    130.66722   -29343.796   -3659.9579 
  962000    292.69024   -29219.076    139.59264   -29358.669    9100.0678 
  962200    284.82031   -29210.623    135.83924   -29346.463   -3036.9585 
  962400    313.07002   -29199.685    149.31236   -29348.998   -66018.681 
  962600    333.67877   -29187.646    159.14129   -29346.788   -31611.118 
  962800    279.02008   -29222.389    133.07294   -29355.462    4045.7739 
  963000    301.39867   -29201.638    143.74595   -29345.384   -8291.5272 
  963200    301.99542   -29196.989    144.03056   -29341.019    10437.018 
  963400    291.24755   -29214.332    138.90458   -29353.237    12652.409 
  963600    290.45205    -29215.17    138.52518   -29353.695   -6111.4927 
  963800    303.96106   -29191.928    144.96803   -29336.896    -1152.716 
  964000    281.24798   -29219.851    134.13549   -29353.987    6968.5592 
  964200    306.19247   -29205.098    146.03225    -29351.13    19172.411 
  964400    304.86574   -29205.814     145.3995   -29351.214    16776.805 
  964600    256.24325   -29234.252    122.20999   -29356.462   -19092.183 
  964800    300.80824   -29202.948    143.46436   -29346.413     6308.564 
  965000    294.84292   -29207.676    140.61932   -29348.296    -29085.73 
  965200    282.38423   -29232.552     134.6774   -29367.229    29224.526 
  965400    297.57769   -29207.861    141.92361   -29349.785   -30971.879 
  965600    301.71842   -29212.619    143.89845   -29356.518   -16509.926 
  965800    245.78656   -29244.081    117.22289   -29361.303   -40657.179 
  966000    306.02305   -29218.084    145.95145   -29364.036    -34771.43 
  966200    303.30941    -29208.73    144.65724   -29353.387    18651.319 
  966400    306.93442   -29221.594    146.38611    -29367.98   -35704.978 
  966600    279.78662   -29231.405    133.43852   -29364.844   -46918.366 
  966800    314.30373   -29203.291    149.90075   -29353.192    13665.799 
  967000    285.64094   -29223.117    136.23062   -29359.347   -31432.649 
  967200    296.82536   -29209.298     141.5648   -29350.863    18311.871 
  967400    336.14088   -29198.328    160.31554   -29358.644    54790.318 
  967600    283.33271   -29220.593    135.12976   -29355.723   -28874.048 
  967800    306.89392   -29206.209     146.3668   -29352.576   -12220.091 
  968000    310.11579   -29206.206     147.9034    -29354.11    46653.118 
  968200    271.99494   -29221.679    129.72244   -29351.402   -36162.747 
  968400    294.27451   -29237.626    140.34823   -29377.975   -8422.3431 
  968600    311.39395   -29201.917      148.513    -29350.43   -21637.363 
  968800    282.54418   -29220.974    134.75368   -29355.728    43456.015 
  969000    275.77419   -29240.025    131.52488    -29371.55    4139.6017 
  969200    326.74503   -29208.892    155.83438   -29364.726    21772.165 
  969400     310.2165    -29197.17    147.95143   -29345.121    12401.327 
  969600    276.91208   -29228.853    132.06757   -29360.921    35823.368 
  969800    310.30384   -29212.283    147.99309   -29360.276   -41979.348 
  970000    304.20838   -29205.467    145.08598   -29350.553      14154.5 
  970200    331.40976    -29190.54    158.05913   -29348.599   -13291.888 
  970400    310.31768   -29202.088    147.99969   -29350.088    -8914.801 
  970600    267.38385   -29215.353    127.52328   -29342.877    923.97663 
  970800     342.5483   -29186.252    163.37142   -29349.623   -42017.867 
  971000    332.48413   -29162.824    158.57153   -29321.396     3693.422 
  971200    290.06704   -29208.674    138.34156   -29347.016    56060.227 
  971400    291.60543    -29219.87    139.07526   -29358.946   -26400.973 
  971600    313.79183   -29191.957    149.65662   -29341.614     16337.74 
  971800    298.29135   -29214.878    142.26398   -29357.142   -29746.712 
  972000    298.25149   -29218.334    142.24496   -29360.578   -10352.547 
  972200    298.48648   -29197.792    142.35704   -29340.149    12844.481 
  972400    335.21472   -29183.049    159.87383   -29342.923    46274.233 
  972600    278.45106   -29219.025    132.80156   -29351.827    34643.872 
  972800    279.47073   -29211.988    133.28787   -29345.276    11844.638 
  973000    304.57222    -29188.49    145.25951    -29333.75    13956.226 
  973200    303.88072   -29206.758    144.92971   -29351.687    13539.819 
  973400    287.36725   -29214.046    137.05395     -29351.1   -26323.852 
  973600    324.92967   -29191.503    154.96858   -29346.472   -25839.561 
  973800    320.95426   -29203.274    153.07259   -29356.346   -20626.228 
  974000    286.46323   -29218.841     136.6228   -29355.464    24392.721 
  974200    300.87652   -29200.972    143.49692   -29344.469    21206.779 
  974400    277.54807   -29197.452    132.37089   -29329.823   -3482.8752 
  974600     289.0069   -29219.871    137.83595   -29357.707    29298.455 
  974800    316.10206   -29201.863    150.75843   -29352.622   -80040.886 
  975000    318.70782   -29189.753    152.00119   -29341.754    5455.2141 
  975200     289.2914   -29222.212    137.97163   -29360.184   -192.61372 
  975400    330.06874     -29197.6    157.41955   -29355.019     15792.34 
  975600    294.38292   -29207.281    140.39993   -29347.681    2670.3501 
  975800     317.9284   -29225.195    151.62947   -29376.825    26977.434 
  976000    308.42577   -29198.796    147.09738   -29345.893    36625.107 
  976200    303.60569   -29209.253    144.79854   -29354.051   -5459.8297 
  976400    311.21595   -29212.491     148.4281   -29360.919   -41435.652 
  976600    303.91607    -29191.41    144.94657   -29336.356    4877.3542 
  976800    308.72771   -29188.607    147.24138   -29335.848   -11769.992 
  977000    293.18285   -29211.693    139.82758   -29351.521    12253.092 
  977200    301.56825   -29221.088    143.82683   -29364.915    32888.155 
  977400    306.92704   -29196.299    146.38259   -29342.682    5731.6691 
  977600    306.53792   -29207.126    146.19701   -29353.323   -28792.128 
  977800     290.9625   -29219.955    138.76863   -29358.723   -24740.299 
  978000    320.83059   -29201.361    153.01361   -29354.374    -16743.23 
  978200    324.24034   -29200.736    154.63982   -29355.376   -9037.7919 
  978400    290.39478   -29225.717    138.49787   -29364.215    20236.225 
  978600    308.59501    -29196.14     147.1781   -29343.318   -19417.914 
  978800    289.55329   -29209.813    138.09654    -29347.91    1930.6731 
  979000    271.70498   -29220.181    129.58415   -29349.765    17259.806 
  979200    302.71896   -29195.665    144.37564   -29340.041   -47972.144 
  979400    289.62949   -29213.144    138.13288   -29351.277   -35060.622 
  979600    293.25009   -29226.037    139.85965   -29365.896   -14259.441 
  979800    292.15606   -29213.391    139.33787   -29352.728   -7953.3377 
  980000     311.3099   -29204.234    148.47291   -29352.707    12849.045 
  980200    310.52723   -29197.345    148.09963   -29345.445    1972.5893 
  980400    280.25179   -29223.928    133.66038   -29357.589   -26209.308 
  980600    316.55033   -29198.678    150.97222   -29349.651    7061.2592 
  980800    322.54828   -29205.498    153.83282   -29359.331   -12428.722 
  981000    293.67735   -29210.787    140.06342    -29350.85   -28242.103 
  981200    302.40945   -29203.749    144.22802   -29347.977    11405.337 
  981400    282.71142   -29221.889    134.83345   -29356.722   -7749.5088 
  981600    278.43291   -29213.933     132.7929   -29346.726    -22841.01 
  981800    309.56898    -29199.52    147.64261   -29347.163    12863.149 
  982000    277.42447   -29225.412    132.31194   -29357.724    29656.029 
  982200    331.87365   -29204.123    158.28037   -29362.403   -6786.1117 
  982400    289.16034   -29208.057    137.90913   -29345.966    18685.759 
  982600    296.66326   -29224.195    141.48749   -29365.682    6473.1584 
  982800    320.88092   -29191.643    153.03761    -29344.68    70209.783 
  983000    280.25673   -29215.507    133.66273   -29349.169    24762.821 
  983200    330.37443    -29212.77    157.56535   -29370.335   -34760.372 
  983400    275.83625    -29208.79    131.55448   -29340.344    889.17289 
  983600    325.64351   -29211.988    155.30903   -29367.297    5696.3003 
  983800    307.77349   -29213.705    146.78629   -29360.491    42377.516 
  984000    282.04703   -29215.244    134.51658   -29349.761    13610.893 
  984200    330.62597   -29208.109    157.68532   -29365.794    6293.0352 
  984400    291.48493   -29206.578    139.01779   -29345.596    777.26697 
  984600    292.98063   -29221.474    139.73114   -29361.205   -4991.4749 
  984800    270.10884   -29214.971     128.8229   -29343.794    33952.042 
  985000    321.77344   -29194.721    153.46328   -29348.184   -31232.616 
  985200     287.3911   -29218.732    137.06532   -29355.797    5435.0333 
  985400    331.44398     -29199.6    158.07545   -29357.676    12155.765 
  985600    300.57804   -29178.755    143.35457    -29322.11   -14602.759 
  985800    316.38954   -29216.577    150.89554   -29367.473   -6338.3836 
  986000    296.48368   -29215.656    141.40185   -29357.058    18073.913 
  986200    297.69202   -29191.198    141.97814   -29333.176   -29698.984 
  986400     307.7787   -29216.286    146.78878   -29363.075    35792.961 
  986600    276.79485    -29220.49    132.01166   -29352.501    8896.3714 
  986800    309.03589   -29196.088    147.38837   -29343.477     23693.81 
  987000    306.11316   -29208.135    145.99443   -29354.129    15360.902 
  987200    306.96076    -29213.83    146.39868   -29360.228   -8605.7377 
  987400    297.28829   -29198.808    141.78559   -29340.594    56.679491 
  987600    319.73627   -29200.777    152.49169   -29353.269   -17763.969 
  987800     300.2481   -29224.525    143.19721   -29367.722     49428.32 
  988000    296.61014   -29206.913    141.46216   -29348.375    19231.029 
  988200    298.63351   -29206.181    142.42716   -29348.608   -10297.983 
  988400    288.17832   -29226.236    137.44078   -29363.677    252.51094 
  988600    274.39054   -29220.831    130.86497   -29351.696    9473.1358 
  988800     327.7848     -29196.6    156.33028   -29352.931   -18953.254 
  989000    306.41297   -29224.566    146.13742   -29370.704   -18786.926 
  989200    280.69499   -29226.152    133.87175   -29360.023    12607.078 
  989400    290.93142   -29209.893    138.75381   -29348.646   -6741.7905 
  989600    307.13153   -29196.825    146.48012   -29343.305    9832.4299 
  989800     267.6969    -29211.89    127.67258   -29339.563     2239.262 
  990000    294.05503   -29224.646    140.24355    -29364.89   -20615.559 
  990200    278.83552   -29193.379    132.98492   -29326.364   -34317.116 
  990400    307.82428   -29211.054    146.81051   -29357.865    5802.5704 
  990600    276.33132   -29225.277    131.79059   -29357.068   -29864.409 
  990800     285.7992   -29229.899     136.3061   -29366.205   -3041.9147 
  991000    315.22381    -29200.99    150.33957    -29351.33   -2752.9554 
  991200    273.38097   -29212.209    130.38348   -29342.592    9503.1782 
  991400    288.31959   -29228.783    137.50815   -29366.291    7355.3508 
  991600    304.04544   -29212.453    145.00827   -29357.462    5234.4784 
  991800    288.81856   -29203.308    137.74612   -29341.054    38923.564 
  992000    290.49583   -29201.015    138.54606   -29339.561   -45927.321 
  992200    272.72618   -29227.308    130.07119   -29357.379   -5321.2373 
  992400    318.97375   -29198.205    152.12803   -29350.333     21886.26 
  992600     310.5427   -29203.232    148.10701   -29351.339   -6467.0627 
  992800    286.34463   -29220.717    136.56623   -29357.283    12596.798 
  993000    307.30781   -29186.087    146.56419   -29332.651    19129.179 
  993200    309.08627   -29204.143    147.41239   -29351.555   -15309.534 
  993400    285.57638   -29220.478    136.19983   -29356.678   -15153.751 
  993600    341.60065   -29188.789    162.91946   -29351.709   -38242.972 
  993800    323.78773   -29198.365    154.42395   -29352.789   -22104.885 
  994000    294.66378   -29210.384    140.53388   -29350.918    64962.192 
  994200    339.41053   -29194.294    161.87493   -29356.169    17674.826 
  994400    296.47007   -29196.062    141.39536   -29337.457    19456.316 
  994600    319.06471   -29217.405    152.17141   -29369.576    -11538.52 
  994800    329.59257    -29196.63    157.19245   -29353.823   -20096.075 
  995000     308.2158   -29200.449    146.99724   -29347.447   -12762.705 
  995200    269.12301    -29219.84    128.35273   -29348.193    729.65268 
  995400    337.26279   -29195.827    160.85061   -29356.678   -4357.5693 
  995600    306.51691   -29216.168    146.18699   -29362.355   -27634.481 
  995800    314.88244   -29218.882    150.17676   -29369.059    5811.4205 
  996000    322.98487   -29194.914    154.04105   -29348.956    46026.449 
  996200    310.42413   -29208.991    148.05046   -29357.042   -14822.849 
  996400    278.18113   -29235.407    132.67282    -29368.08   -38394.745 
  996600    322.31669   -29205.582    153.72237   -29359.304    6684.0415 
  996800    323.22975    -29195.44    154.15784   -29349.598    6990.0368 
  997000    281.80754   -29226.607    134.40236    -29361.01   -22654.626 
  997200    311.78696   -29206.122    148.70043   -29354.822    36344.336 
  997400     290.3572   -29202.735    138.47994   -29341.215   -11777.449 
  997600    303.84887   -29214.974    144.91452   -29359.889    27196.688 
  997800    267.47558   -29241.451    127.56703   -29369.018     28092.38 
  998000    297.23513   -29210.235    141.76023   -29351.995    3945.8167 
  998200     296.4438   -29200.907    141.38282    -29342.29    18111.245 
  998400    290.05743   -29223.904    138.33697   -29362.241   -28588.966 
  998600    300.94995   -29208.292    143.53194   -29351.824   -35403.148 
  998800    329.51873   -29197.851    157.15724   -29355.009   -51877.364 
  999000     290.3668   -29218.776    138.48452   -29357.261   -2048.7566 
  999200    259.58685   -29241.427    123.80466   -29365.231    47760.758 
  999400    292.45609   -29207.386    139.48097   -29346.867   -23661.765 
  999600    296.87606   -29199.649    141.58898   -29341.238   -12422.309 
  999800    296.47554   -29219.496    141.39796   -29360.894   -15773.569 
 1000000      309.683   -29220.076    147.69699   -29367.773   -6822.7233 
Loop time of 6357.67 on 8 procs for 1000000 steps with 161 atoms

Performance: 3.397 ns/day, 7.064 hours/ns, 157.290 timesteps/s
99.3% CPU use with 8 MPI tasks x no OpenMP threads

MPI task timing breakdown:
Section |  min time  |  avg time  |  max time  |%varavg| %total
---------------------------------------------------------------
Pair    | 4831       | 4985.9     | 5214.4     | 184.4 | 78.42
Neigh   | 0.72843    | 0.74742    | 0.76011    |   1.4 |  0.01
Comm    | 50.855     | 280.42     | 436.6      | 782.1 |  4.41
Output  | 0.10926    | 0.11869    | 0.17869    |   6.6 |  0.00
Modify  | 1082       | 1084.9     | 1088.1     |   5.9 | 17.06
Other   |            | 5.53       |            |       |  0.09

Nlocal:    20.125 ave 45 max 3 min
Histogram: 2 1 0 0 2 2 0 0 0 1
Nghost:    731.875 ave 753 max 703 min
Histogram: 1 0 0 1 1 1 1 1 0 2
Neighs:    2098.62 ave 4386 max 351 min
Histogram: 1 2 0 0 0 3 1 0 0 1

Total # of neighbors = 16789
Ave neighs/atom = 104.28
Neighbor list builds = 767
Dangerous builds = 0

unfix 1
unfix output
undump 1

Please see the log.cite file for references relevant to this simulation

Total wall time: 1:46:35
