ITEM: TIMESTEP
0
ITEM: NUMBER OF ATOMS
50
ITEM: BOX BOUNDS pp pp pp
0.0000000000000000e+00 1.1000000000000000e+01
0.0000000000000000e+00 1.1002000000000001e+01
0.0000000000000000e+00 1.1000000000000000e+01
ITEM: ATOMS id type x y z 
10 1 4.603 4.603 4.603 
11 1 3.085 3.085 3.085 
12 1 3.796 3.796 3.796 
46 1 0.726 0.725 0.725 
47 1 2.26 2.259 2.26 
48 1 1.551 1.55 1.55 
49 2 3.372 3.468 5.043 
50 3 3.372 2.492 5.043 
19 1 4.546 4.545 6.226 
20 1 3.013 3.013 7.764 
21 1 3.721 3.721 7.053 
31 1 0.668 0.667 10.103 
32 1 2.187 2.187 8.589 
33 1 1.476 1.475 9.298 
16 1 4.546 6.225 4.546 
17 1 3.013 7.765 3.013 
18 1 3.721 7.053 3.722 
25 1 0.668 10.103 0.668 
26 1 2.188 8.589 2.188 
27 1 1.476 9.298 1.476 
4 1 4.608 6.169 6.169 
5 1 3.086 7.684 7.684 
6 1 3.799 6.974 6.974 
37 1 0.729 10.046 10.046 
38 1 2.259 8.509 8.508 
39 1 1.552 9.219 9.219 
13 1 6.225 4.546 4.546 
14 1 7.764 3.013 3.013 
15 1 7.053 3.721 3.722 
28 1 10.102 0.667 0.668 
29 1 8.589 2.187 2.188 
30 1 9.298 1.475 1.476 
1 1 6.168 4.608 6.169 
2 1 7.684 3.086 7.684 
3 1 6.974 3.799 6.974 
40 1 10.045 0.728 10.046 
41 1 8.508 2.259 8.508 
42 1 9.218 1.551 9.218 
7 1 6.169 6.169 4.608 
8 1 7.684 7.684 3.086 
9 1 6.974 6.974 3.799 
43 1 10.046 10.047 0.729 
44 1 8.508 8.509 2.259 
45 1 9.219 9.219 1.552 
22 1 6.229 6.229 6.229 
23 1 7.764 7.765 7.765 
24 1 7.055 7.056 7.055 
34 1 10.108 10.108 10.107 
35 1 8.59 8.59 8.59 
36 1 9.301 9.301 9.3 
ITEM: TIMESTEP
10
ITEM: NUMBER OF ATOMS
50
ITEM: BOX BOUNDS pp pp pp
0.0000000000000000e+00 1.1000000000000000e+01
0.0000000000000000e+00 1.1002000000000001e+01
0.0000000000000000e+00 1.1000000000000000e+01
ITEM: ATOMS id type x y z 
10 1 4.66102 4.66851 4.63251 
11 1 3.0373 3.05167 2.95564 
12 1 3.81918 3.80831 3.82957 
46 1 0.743558 0.744055 0.743881 
47 1 2.29148 2.28809 2.29457 
48 1 1.54585 1.54398 1.54759 
49 2 3.31896 3.42782 5.06238 
50 3 3.35795 2.44357 5.04734 
19 1 4.55369 4.55383 6.22854 
20 1 2.99237 2.99249 7.7891 
21 1 3.7027 3.70873 7.09805 
31 1 0.672195 0.671195 10.0841 
32 1 2.18625 2.18676 8.58908 
33 1 1.47885 1.47743 9.29529 
16 1 4.52261 6.20366 4.51714 
17 1 2.98916 7.79234 2.98988 
18 1 3.69175 7.0757 3.69148 
25 1 0.672736 10.0853 0.672963 
26 1 2.18922 8.58939 2.18941 
27 1 1.47855 9.29239 1.47834 
4 1 4.60769 6.19553 6.20341 
5 1 3.07246 7.68973 7.69148 
6 1 3.79649 6.99224 6.98844 
37 1 0.736792 10.0375 10.0381 
38 1 2.27075 8.49676 8.49649 
39 1 1.5652 9.20652 9.20527 
13 1 6.20204 4.52313 4.51954 
14 1 7.79052 2.99032 2.99098 
15 1 7.07374 3.69284 3.69278 
28 1 10.0844 0.671686 0.672985 
29 1 8.58872 2.18915 2.18979 
30 1 9.29155 1.47778 1.47951 
1 1 6.19604 4.60712 6.20018 
2 1 7.68969 3.07293 7.69121 
3 1 6.9915 3.79621 6.9882 
40 1 10.0363 0.735655 10.0377 
41 1 8.49588 2.27041 8.49626 
42 1 9.20561 1.56453 9.20496 
7 1 6.20398 6.20089 4.60699 
8 1 7.68991 7.69052 3.0738 
9 1 6.98892 6.98782 3.7965 
43 1 10.038 10.0386 0.73675 
44 1 8.49634 8.49663 2.27064 
45 1 9.20541 9.20666 1.5656 
22 1 6.24588 6.2459 6.24149 
23 1 7.77732 7.77843 7.77866 
24 1 7.0711 7.07172 7.07011 
34 1 10.1009 10.1013 10.1003 
35 1 8.58481 8.58542 8.58468 
36 1 9.29276 9.29178 9.29226 
ITEM: TIMESTEP
20
ITEM: NUMBER OF ATOMS
50
ITEM: BOX BOUNDS pp pp pp
0.0000000000000000e+00 1.1000000000000000e+01
0.0000000000000000e+00 1.1002000000000001e+01
0.0000000000000000e+00 1.1000000000000000e+01
ITEM: ATOMS id type x y z 
10 1 4.67273 4.68857 4.64022 
11 1 3.09365 3.1605 2.81273 
12 1 3.75873 3.66025 3.99657 
46 1 0.731325 0.738181 0.742164 
47 1 2.32868 2.33248 2.29772 
48 1 1.54207 1.53291 1.53598 
49 2 3.23466 3.37666 5.079 
50 3 3.37512 2.41139 5.03568 
19 1 4.56835 4.57214 6.25944 
20 1 2.99761 3.00019 7.80468 
21 1 3.72562 3.74234 7.12544 
31 1 0.658505 0.662209 10.0711 
32 1 2.19505 2.19438 8.59322 
33 1 1.46795 1.46929 9.27081 
16 1 4.53698 6.23293 4.52106 
17 1 2.97862 7.80751 2.98169 
18 1 3.68548 7.06542 3.68015 
25 1 0.658599 10.0732 0.662545 
26 1 2.18868 8.60118 2.19266 
27 1 1.46374 9.28593 1.45831 
4 1 4.62225 6.19658 6.19906 
5 1 3.08198 7.69889 7.68625 
6 1 3.79 6.96958 6.99338 
37 1 0.741894 10.0387 10.0313 
38 1 2.27508 8.49213 8.488 
39 1 1.56857 9.20167 9.20436 
13 1 6.22493 4.53782 4.52403 
14 1 7.80193 2.983 2.98628 
15 1 7.06225 3.68623 3.68221 
28 1 10.0694 0.660986 0.657346 
29 1 8.59942 2.1917 2.19183 
30 1 9.2822 1.46248 1.46532 
1 1 6.19534 4.61192 6.19662 
2 1 7.69042 3.07739 7.68536 
3 1 6.98277 3.80151 6.99073 
40 1 10.0382 0.740968 10.0345 
41 1 8.49745 2.26917 8.49602 
42 1 9.19836 1.56782 9.20058 
7 1 6.20288 6.19707 4.61713 
8 1 7.68695 7.68783 3.07934 
9 1 6.98748 6.98424 3.80122 
43 1 10.031 10.0327 0.744097 
44 1 8.49042 8.49003 2.27571 
45 1 9.19993 9.20341 1.56797 
22 1 6.25855 6.25849 6.23069 
23 1 7.78424 7.78531 7.78814 
24 1 7.08352 7.08361 7.07521 
34 1 10.0936 10.0979 10.0941 
35 1 8.59216 8.59154 8.59238 
36 1 9.30072 9.30266 9.30172 
ITEM: TIMESTEP
30
ITEM: NUMBER OF ATOMS
50
ITEM: BOX BOUNDS pp pp pp
0.0000000000000000e+00 1.1000000000000000e+01
0.0000000000000000e+00 1.1002000000000001e+01
0.0000000000000000e+00 1.1000000000000000e+01
ITEM: ATOMS id type x y z 
10 1 4.67505 4.69111 4.6408 
11 1 3.09314 3.17125 2.79868 
12 1 3.73568 3.61235 4.01648 
46 1 0.733898 0.735271 0.743756 
47 1 2.33342 2.33817 2.28063 
48 1 1.53668 1.53567 1.52961 
49 2 3.21608 3.37248 5.07736 
50 3 3.38467 2.40667 5.03563 
19 1 4.56849 4.57278 6.26981 
20 1 3.01121 3.01528 7.79775 
21 1 3.72642 3.74388 7.13044 
31 1 0.664125 0.663753 10.0689 
32 1 2.18856 2.18871 8.58985 
33 1 1.47298 1.47294 9.28112 
16 1 4.53697 6.24842 4.52136 
17 1 2.99022 7.79233 2.99264 
18 1 3.68976 7.06704 3.68429 
25 1 0.659551 10.073 0.65951 
26 1 2.18185 8.60147 2.18271 
27 1 1.46633 9.29469 1.46797 
4 1 4.61755 6.18945 6.194 
5 1 3.08178 7.68942 7.68564 
6 1 3.79885 6.97982 6.9881 
37 1 0.742415 10.0365 10.0307 
38 1 2.27142 8.49519 8.49371 
39 1 1.56765 9.20467 9.20061 
13 1 6.23993 4.53779 4.52512 
14 1 7.78838 2.99312 2.99563 
15 1 7.06218 3.69155 3.68747 
28 1 10.0685 0.659658 0.661477 
29 1 8.5981 2.18374 2.18546 
30 1 9.29197 1.46918 1.47021 
1 1 6.18996 4.61256 6.1907 
2 1 7.68615 3.07946 7.6853 
3 1 6.98586 3.80386 6.98542 
40 1 10.035 0.741721 10.031 
41 1 8.49328 2.27145 8.49363 
42 1 9.20263 1.56642 9.20136 
7 1 6.19735 6.19133 4.61283 
8 1 7.68704 7.6865 3.08095 
9 1 6.98515 6.98402 3.80135 
43 1 10.0288 10.0316 0.742455 
44 1 8.49243 8.49352 2.27277 
45 1 9.20059 9.20166 1.56823 
22 1 6.25995 6.25886 6.23465 
23 1 7.78433 7.78523 7.78856 
24 1 7.08178 7.08204 7.07173 
34 1 10.0989 10.098 10.0994 
35 1 8.59317 8.59138 8.59422 
36 1 9.29978 9.30401 9.3 
ITEM: TIMESTEP
40
ITEM: NUMBER OF ATOMS
50
ITEM: BOX BOUNDS pp pp pp
0.0000000000000000e+00 1.1000000000000000e+01
0.0000000000000000e+00 1.1002000000000001e+01
0.0000000000000000e+00 1.1000000000000000e+01
ITEM: ATOMS id type x y z 
10 1 4.6642 4.67601 4.63395 
11 1 3.09307 3.19223 2.78421 
12 1 3.73288 3.55602 4.05935 
46 1 0.734485 0.733705 0.747094 
47 1 2.34281 2.36363 2.24775 
48 1 1.54214 1.54563 1.51767 
49 2 3.16005 3.35807 5.08242 
50 3 3.40844 2.39228 5.03781 
19 1 4.5666 4.57247 6.2651 
20 1 3.0134 3.02211 7.80622 
21 1 3.73396 3.75375 7.13866 
31 1 0.666627 0.66735 10.0698 
32 1 2.19032 2.18982 8.58644 
33 1 1.47489 1.47522 9.28092 
16 1 4.53711 6.24091 4.52343 
17 1 2.98956 7.78564 2.99014 
18 1 3.69654 7.07333 3.69108 
25 1 0.661115 10.074 0.661842 
26 1 2.18212 8.60064 2.18502 
27 1 1.46699 9.29235 1.46778 
4 1 4.61864 6.19398 6.19085 
5 1 3.0825 7.68629 7.68705 
6 1 3.80276 6.98459 6.9839 
37 1 0.743242 10.0397 10.0285 
38 1 2.27168 8.49435 8.49243 
39 1 1.56765 9.20437 9.20029 
13 1 6.23512 4.5382 4.52658 
14 1 7.7823 2.99143 2.99281 
15 1 7.06851 3.69725 3.6932 
28 1 10.0699 0.662349 0.662248 
29 1 8.59758 2.18459 2.18684 
30 1 9.28958 1.4689 1.47055 
1 1 6.19322 4.61658 6.18999 
2 1 7.68607 3.08199 7.68542 
3 1 6.9848 3.80302 6.98326 
40 1 10.0375 0.742365 10.0298 
41 1 8.49299 2.27005 8.49278 
42 1 9.20283 1.56789 9.20181 
7 1 6.19556 6.19198 4.60994 
8 1 7.68919 7.68597 3.08215 
9 1 6.98212 6.9856 3.80019 
43 1 10.0279 10.0324 0.740461 
44 1 8.49197 8.49375 2.27271 
45 1 9.20117 9.20096 1.56695 
22 1 6.26209 6.25999 6.23811 
23 1 7.78528 7.78473 7.78808 
24 1 7.08237 7.0842 7.07226 
34 1 10.1007 10.1027 10.1001 
35 1 8.59288 8.59252 8.59476 
36 1 9.30072 9.30319 9.30115 
ITEM: TIMESTEP
50
ITEM: NUMBER OF ATOMS
50
ITEM: BOX BOUNDS pp pp pp
0.0000000000000000e+00 1.1000000000000000e+01
0.0000000000000000e+00 1.1002000000000001e+01
0.0000000000000000e+00 1.1000000000000000e+01
ITEM: ATOMS id type x y z 
10 1 4.6579 4.66122 4.63445 
11 1 3.09568 3.20939 2.78057 
12 1 3.73552 3.51604 4.08364 
46 1 0.734925 0.731622 0.747771 
47 1 2.35391 2.39413 2.21845 
48 1 1.54553 1.55608 1.50223 
49 2 3.10037 3.33788 5.09144 
50 3 3.4322 2.37532 5.04549 
19 1 4.56546 4.57334 6.25817 
20 1 3.01812 3.03078 7.81288 
21 1 3.73805 3.76153 7.14699 
31 1 0.668337 0.668564 10.0698 
32 1 2.19039 2.1913 8.58444 
33 1 1.4794 1.47678 9.28119 
16 1 4.53354 6.2319 4.52092 
17 1 2.99033 7.78295 2.99028 
18 1 3.69946 7.07437 3.69359 
25 1 0.661275 10.0734 0.66087 
26 1 2.18144 8.59729 2.18541 
27 1 1.46934 9.29277 1.46933 
4 1 4.62058 6.19585 6.18999 
5 1 3.08344 7.68525 7.68724 
6 1 3.80418 6.98702 6.98205 
37 1 0.745208 10.0435 10.0298 
38 1 2.27044 8.49398 8.49334 
39 1 1.56777 9.20616 9.19961 
13 1 6.23038 4.53739 4.52576 
14 1 7.77907 2.99255 2.99362 
15 1 7.07067 3.6992 3.69456 
28 1 10.0715 0.662443 0.662529 
29 1 8.59502 2.18463 2.1873 
30 1 9.28871 1.46973 1.47125 
1 1 6.19303 4.62028 6.18995 
2 1 7.68627 3.08392 7.68523 
3 1 6.98322 3.80199 6.98218 
40 1 10.0405 0.745702 10.0317 
41 1 8.49195 2.26986 8.49296 
42 1 9.20465 1.5685 9.20027 
7 1 6.19045 6.19251 4.60958 
8 1 7.68714 7.6872 3.08107 
9 1 6.98702 6.98436 3.80293 
43 1 10.0304 10.0335 0.739501 
44 1 8.4942 8.49319 2.27086 
45 1 9.19944 9.2041 1.5664 
22 1 6.2606 6.26093 6.23473 
23 1 7.7855 7.78717 7.78679 
24 1 7.08439 7.0816 7.07454 
34 1 10.1025 10.1054 10.0991 
35 1 8.59279 8.59552 8.59552 
36 1 9.3039 9.30082 9.30375 
ITEM: TIMESTEP
60
ITEM: NUMBER OF ATOMS
50
ITEM: BOX BOUNDS pp pp pp
0.0000000000000000e+00 1.1000000000000000e+01
0.0000000000000000e+00 1.1002000000000001e+01
0.0000000000000000e+00 1.1000000000000000e+01
ITEM: ATOMS id type x y z 
10 1 4.65339 4.65222 4.63336 
11 1 3.09901 3.21819 2.78088 
12 1 3.73355 3.4945 4.10122 
46 1 0.737214 0.732225 0.74929 
47 1 2.35977 2.41581 2.19577 
48 1 1.5515 1.56895 1.49211 
49 2 3.06141 3.31944 5.0943 
50 3 3.44826 2.36305 5.05304 
19 1 4.56309 4.57238 6.25542 
20 1 3.02138 3.03588 7.8193 
21 1 3.73951 3.76694 7.15255 
31 1 0.669324 0.669897 10.0703 
32 1 2.19283 2.19151 8.58436 
33 1 1.47686 1.47931 9.28083 
16 1 4.53246 6.22569 4.52043 
17 1 2.99477 7.78406 2.99443 
18 1 3.69471 7.06788 3.68898 
25 1 0.662781 10.0744 0.662083 
26 1 2.18338 8.5962 2.18599 
27 1 1.46792 9.28955 1.47045 
4 1 4.62173 6.19889 6.18525 
5 1 3.08342 7.68588 7.68603 
6 1 3.80596 6.98692 6.98339 
37 1 0.746175 10.0445 10.03 
38 1 2.26954 8.49312 8.49332 
39 1 1.56904 9.20763 9.19957 
13 1 6.22749 4.53559 4.5265 
14 1 7.77918 2.99222 2.99635 
15 1 7.06898 3.70086 3.69034 
28 1 10.0779 0.665201 0.665887 
29 1 8.60072 2.1856 2.19154 
30 1 9.2755 1.46699 1.46255 
1 1 6.19302 4.6206 6.18941 
2 1 7.68424 3.0822 7.68463 
3 1 6.98679 3.8067 6.98288 
40 1 10.0432 0.746413 10.0325 
41 1 8.49252 2.26876 8.49273 
42 1 9.20587 1.56848 9.20208 
7 1 6.1897 6.19368 4.6084 
8 1 7.68768 7.68642 3.08286 
9 1 6.98397 6.98409 3.80177 
43 1 10.0296 10.0374 0.738837 
44 1 8.49129 8.49589 2.27137 
45 1 9.20621 9.20037 1.56333 
22 1 6.26173 6.25885 6.23654 
23 1 7.78839 7.78524 7.79085 
24 1 7.08054 7.08607 7.06686 
34 1 10.1041 10.1086 10.1002 
35 1 8.59438 8.59579 8.59748 
36 1 9.30404 9.30395 9.30344 
ITEM: TIMESTEP
70
ITEM: NUMBER OF ATOMS
50
ITEM: BOX BOUNDS pp pp pp
0.0000000000000000e+00 1.1000000000000000e+01
0.0000000000000000e+00 1.1002000000000001e+01
0.0000000000000000e+00 1.1000000000000000e+01
ITEM: ATOMS id type x y z 
10 1 4.65141 4.6466 4.63358 
11 1 3.10164 3.22343 2.78215 
12 1 3.72918 3.48234 4.11187 
46 1 0.739616 0.733286 0.750259 
47 1 2.36497 2.43184 2.17997 
48 1 1.55381 1.57708 1.4815 
49 2 3.03588 3.30346 5.09539 
50 3 3.45836 2.35288 5.06014 
19 1 4.56225 4.57222 6.2542 
20 1 3.02234 3.04033 7.82463 
21 1 3.7405 3.77016 7.15674 
31 1 0.671452 0.670829 10.0722 
32 1 2.19263 2.19251 8.58406 
33 1 1.4803 1.4796 9.28157 
16 1 4.52972 6.2184 4.51746 
17 1 2.99383 7.78313 2.99361 
18 1 3.69763 7.06628 3.69187 
25 1 0.663661 10.0757 0.66278 
26 1 2.18283 8.59458 2.18607 
27 1 1.46969 9.29058 1.47078 
4 1 4.6217 6.19973 6.18333 
5 1 3.08429 7.68575 7.68673 
6 1 3.80557 6.98838 6.981 
37 1 0.747521 10.0459 10.0309 
38 1 2.26903 8.49325 8.49303 
39 1 1.56995 9.20714 9.20029 
13 1 6.22465 4.53611 4.52399 
14 1 7.77984 2.99353 2.99436 
15 1 7.06755 3.69989 3.69505 
28 1 10.0744 0.664431 0.662757 
29 1 8.59196 2.1837 2.18684 
30 1 9.28844 1.4703 1.47177 
1 1 6.19441 4.6221 6.18871 
2 1 7.68543 3.08346 7.68484 
3 1 6.9846 3.80498 6.98264 
40 1 10.0438 0.748962 10.0327 
41 1 8.49182 2.26901 8.49243 
42 1 9.20547 1.57005 9.20015 
7 1 6.18722 6.19213 4.60797 
8 1 7.68872 7.68731 3.08314 
9 1 6.98265 6.98457 3.79946 
43 1 10.0327 10.0355 0.738947 
44 1 8.49407 8.49434 2.26994 
45 1 9.20199 9.20316 1.56567 
22 1 6.26093 6.26177 6.23324 
23 1 7.78723 7.78668 7.78808 
24 1 7.08436 7.08504 7.07208 
34 1 10.1052 10.1083 10.0998 
35 1 8.59479 8.59576 8.59808 
36 1 9.30409 9.30463 9.30331 
ITEM: TIMESTEP
80
ITEM: NUMBER OF ATOMS
50
ITEM: BOX BOUNDS pp pp pp
0.0000000000000000e+00 1.1000000000000000e+01
0.0000000000000000e+00 1.1002000000000001e+01
0.0000000000000000e+00 1.1000000000000000e+01
ITEM: ATOMS id type x y z 
10 1 4.64759 4.63683 4.63344 
11 1 3.10449 3.22855 2.78468 
12 1 3.72106 3.46654 4.12747 
46 1 0.741296 0.736003 0.750994 
47 1 2.37169 2.45418 2.15636 
48 1 1.55972 1.59239 1.46683 
49 2 3.00129 3.27774 5.09637 
50 3 3.47191 2.33926 5.0699 
19 1 4.56167 4.57205 6.2531 
20 1 3.02551 3.04582 7.83264 
21 1 3.74122 3.77598 7.16259 
31 1 0.672642 0.672401 10.0745 
32 1 2.19315 2.19374 8.58491 
33 1 1.48079 1.48033 9.28249 
16 1 4.52688 6.21054 4.51498 
17 1 2.99512 7.78292 2.9951 
18 1 3.69637 7.06123 3.69072 
25 1 0.666199 10.0777 0.664934 
26 1 2.18315 8.59329 2.18608 
27 1 1.47056 9.2902 1.47166 
4 1 4.62225 6.20193 6.18054 
5 1 3.08519 7.68548 7.68598 
6 1 3.80673 6.98928 6.9795 
37 1 0.749879 10.0478 10.0324 
38 1 2.26993 8.49351 8.4942 
39 1 1.56798 9.20718 9.19871 
13 1 6.22163 4.53432 4.52484 
14 1 7.7801 2.99314 2.99502 
15 1 7.06575 3.7001 3.69355 
28 1 10.0782 0.666168 0.664546 
29 1 8.59192 2.18217 2.1862 
30 1 9.28837 1.47068 1.47066 
1 1 6.1937 4.6233 6.18749 
2 1 7.68288 3.08225 7.68394 
3 1 6.98816 3.81016 6.98269 
40 1 10.0462 0.750185 10.0345 
41 1 8.4925 2.26789 8.49262 
42 1 9.20654 1.57036 9.20118 
7 1 6.18486 6.19188 4.60605 
8 1 7.68845 7.68722 3.08337 
9 1 6.98196 6.98451 3.79914 
43 1 10.0338 10.0377 0.73889 
44 1 8.49518 8.49484 2.26881 
45 1 9.20233 9.20431 1.56513 
22 1 6.26009 6.26219 6.23091 
23 1 7.78707 7.7867 7.78739 
24 1 7.08459 7.08496 7.07145 
34 1 10.1082 10.1093 10.1012 
35 1 8.59642 8.59399 8.59982 
36 1 9.30284 9.3098 9.30153 
ITEM: TIMESTEP
90
ITEM: NUMBER OF ATOMS
50
ITEM: BOX BOUNDS pp pp pp
0.0000000000000000e+00 1.1000000000000000e+01
0.0000000000000000e+00 1.1002000000000001e+01
0.0000000000000000e+00 1.1000000000000000e+01
ITEM: ATOMS id type x y z 
10 1 4.64598 4.63327 4.63413 
11 1 3.10568 3.22985 2.78631 
12 1 3.7173 3.46196 4.13273 
46 1 0.743136 0.737297 0.751646 
47 1 2.37413 2.46257 2.14767 
48 1 1.56146 1.59821 1.46029 
49 2 2.98923 3.26655 5.09631 
50 3 3.47626 2.33404 5.0737 
19 1 4.56149 4.57241 6.25321 
20 1 3.02585 3.04874 7.83533 
21 1 3.74208 3.77781 7.1648 
31 1 0.67353 0.672227 10.0752 
32 1 2.1939 2.19418 8.58517 
33 1 1.48156 1.48116 9.28318 
16 1 4.52567 6.20697 4.5137 
17 1 2.99497 7.7822 2.99495 
18 1 3.69644 7.0603 3.691 
25 1 0.666072 10.0789 0.665195 
26 1 2.18304 8.59253 2.18634 
27 1 1.47176 9.2906 1.4719 
4 1 4.62218 6.20187 6.17903 
5 1 3.08534 7.68588 7.68596 
6 1 3.80662 6.98968 6.97925 
37 1 0.749318 10.0481 10.0328 
38 1 2.26873 8.49337 8.49322 
39 1 1.5702 9.20772 9.20062 
13 1 6.22043 4.53381 4.52374 
14 1 7.77963 2.99371 2.99448 
15 1 7.06554 3.69888 3.69455 
28 1 10.0794 0.666352 0.665075 
29 1 8.59089 2.18234 2.18577 
30 1 9.2893 1.47083 1.47201 
1 1 6.19517 4.62523 6.18755 
2 1 7.68455 3.08394 7.68431 
3 1 6.9857 3.80722 6.98225 
40 1 10.0465 0.751071 10.0345 
41 1 8.49223 2.26801 8.49237 
42 1 9.20647 1.57082 9.20091 
7 1 6.18375 6.19111 4.60518 
8 1 7.68881 7.68756 3.0833 
9 1 6.98149 6.98468 3.7981 
43 1 10.035 10.0382 0.738902 
44 1 8.49521 8.49503 2.2684 
45 1 9.20314 9.20463 1.56521 
22 1 6.25997 6.26297 6.22994 
23 1 7.78735 7.78662 7.78759 
24 1 7.08472 7.08569 7.07103 
34 1 10.108 10.111 10.1007 
35 1 8.59579 8.59615 8.59918 
36 1 9.30498 9.30673 9.30336 
ITEM: TIMESTEP
93
ITEM: NUMBER OF ATOMS
50
ITEM: BOX BOUNDS pp pp pp
0.0000000000000000e+00 1.1000000000000000e+01
0.0000000000000000e+00 1.1002000000000001e+01
0.0000000000000000e+00 1.1000000000000000e+01
ITEM: ATOMS id type x y z 
10 1 4.6418 4.62193 4.63541 
11 1 3.10868 3.23318 2.79081 
12 1 3.7071 3.45012 4.1467 
46 1 0.74666 0.740418 0.751634 
47 1 2.38046 2.4841 2.12494 
48 1 1.56522 1.61271 1.44171 
49 2 2.95818 3.2364 5.09595 
50 3 3.48724 2.32057 5.08341 
19 1 4.56228 4.57295 6.25428 
20 1 3.02772 3.05509 7.84289 
21 1 3.74329 3.78325 7.17068 
31 1 0.673637 0.673586 10.0777 
32 1 2.19264 2.19747 8.58665 
33 1 1.48722 1.47883 9.28532 
16 1 4.52188 6.19982 4.51047 
17 1 2.99603 7.77939 2.99707 
18 1 3.69397 7.05899 3.68733 
25 1 0.666669 10.082 0.667211 
26 1 2.18036 8.58982 2.18823 
27 1 1.47865 9.29393 1.46936 
4 1 4.62305 6.20275 6.17735 
5 1 3.08562 7.68592 7.6852 
6 1 3.80766 6.99154 6.97776 
37 1 0.749151 10.0489 10.0344 
38 1 2.26627 8.49263 8.49255 
39 1 1.57339 9.2113 9.20457 
13 1 6.2166 4.53193 4.52205 
14 1 7.7775 2.99437 2.99299 
15 1 7.0664 3.69707 3.69772 
28 1 10.0844 0.66873 0.667952 
29 1 8.59019 2.18135 2.18553 
30 1 9.29016 1.47216 1.47137 
1 1 6.19642 4.6274 6.18751 
2 1 7.68426 3.08434 7.6842 
3 1 6.98614 3.80878 6.98121 
40 1 10.0485 0.752933 10.0358 
41 1 8.49227 2.26791 8.49203 
42 1 9.2066 1.57181 9.20115 
7 1 6.18287 6.18979 4.604 
8 1 7.68886 7.6878 3.08359 
9 1 6.97995 6.98452 3.79627 
43 1 10.0372 10.0399 0.73986 
44 1 8.49499 8.49514 2.26804 
45 1 9.20483 9.20507 1.56516 
22 1 6.2589 6.26425 6.22606 
23 1 7.78825 7.7878 7.7879 
24 1 7.08313 7.08421 7.06851 
34 1 10.1097 10.1114 10.0996 
35 1 8.59663 8.59706 8.60031 
36 1 9.30639 9.30774 9.30362 
ITEM: TIMESTEP
100
ITEM: NUMBER OF ATOMS
50
ITEM: BOX BOUNDS pp pp pp
0.0000000000000000e+00 1.1000000000000000e+01
0.0000000000000000e+00 1.1002000000000001e+01
0.0000000000000000e+00 1.1000000000000000e+01
ITEM: ATOMS id type x y z 
10 1 4.64044 4.62196 4.63564 
11 1 3.1086 3.23295 2.79174 
12 1 3.70449 3.44767 4.14944 
46 1 0.747681 0.741896 0.752209 
47 1 2.38216 2.48867 2.1204 
48 1 1.56796 1.6184 1.4391 
49 2 2.95214 3.22919 5.09576 
50 3 3.48925 2.31799 5.08507 
19 1 4.56227 4.57304 6.25437 
20 1 3.02806 3.05671 7.84441 
21 1 3.74354 3.7844 7.17207 
31 1 0.67505 0.673043 10.0775 
32 1 2.19565 2.19619 8.58763 
33 1 1.48303 1.48278 9.2847 
16 1 4.52244 6.19715 4.51036 
17 1 2.99542 7.78054 2.99593 
18 1 3.69514 7.05446 3.6901 
25 1 0.669216 10.0837 0.666717 
26 1 2.18444 8.59122 2.18618 
27 1 1.4722 9.29044 1.4738 
4 1 4.62289 6.20364 6.17553 
5 1 3.0866 7.68705 7.68563 
6 1 3.80521 6.9905 6.97662 
37 1 0.751102 10.0494 10.0353 
38 1 2.26842 8.49322 8.49328 
39 1 1.57178 9.20852 9.20168 
13 1 6.2162 4.53125 4.52349 
14 1 7.77836 2.9938 2.99437 
15 1 7.0642 3.69754 3.69525 
28 1 10.0841 0.668496 0.66586 
29 1 8.58938 2.18275 2.18417 
30 1 9.29085 1.47033 1.47428 
1 1 6.19648 4.62695 6.18653 
2 1 7.68446 3.08434 7.68393 
3 1 6.98649 3.80866 6.98201 
40 1 10.0484 0.752759 10.0364 
41 1 8.49226 2.2676 8.49219 
42 1 9.20769 1.57168 9.20184 
7 1 6.17997 6.1895 4.60154 
8 1 7.68811 7.68839 3.08297 
9 1 6.98128 6.9838 3.79656 
43 1 10.0382 10.0404 0.739595 
44 1 8.49652 8.49556 2.26704 
45 1 9.20433 9.20649 1.56501 
22 1 6.25931 6.26469 6.22609 
23 1 7.78784 7.78676 7.78782 
24 1 7.08486 7.08729 7.06909 
34 1 10.1091 10.113 10.1011 
35 1 8.59658 8.59695 8.59976 
36 1 9.30583 9.30727 9.30386 
ITEM: TIMESTEP
110
ITEM: NUMBER OF ATOMS
50
ITEM: BOX BOUNDS pp pp pp
0.0000000000000000e+00 1.1000000000000000e+01
0.0000000000000000e+00 1.1002000000000001e+01
0.0000000000000000e+00 1.1000000000000000e+01
ITEM: ATOMS id type x y z 
10 1 4.63902 4.61945 4.63632 
11 1 3.10892 3.23328 2.79285 
12 1 3.70134 3.44484 4.15298 
46 1 0.749061 0.744093 0.751163 
47 1 2.38414 2.49519 2.11346 
48 1 1.56937 1.62214 1.43572 
49 2 2.94432 3.21978 5.0957 
50 3 3.49171 2.31398 5.08764 
19 1 4.56239 4.57319 6.25489 
20 1 3.02871 3.05826 7.8468 
21 1 3.74372 3.78614 7.17375 
31 1 0.675247 0.67321 10.0776 
32 1 2.19575 2.19691 8.58833 
33 1 1.48358 1.48305 9.28541 
16 1 4.52144 6.19465 4.50963 
17 1 2.99538 7.77973 2.99615 
18 1 3.69487 7.05337 3.68956 
25 1 0.669796 10.0842 0.667579 
26 1 2.18395 8.59072 2.18632 
27 1 1.47349 9.29146 1.47371 
4 1 4.62293 6.204 6.17454 
5 1 3.08612 7.68677 7.68484 
6 1 3.80673 6.9915 6.97667 
37 1 0.751418 10.0495 10.0359 
38 1 2.26827 8.49369 8.49392 
39 1 1.57147 9.20876 9.20187 
13 1 6.21548 4.53042 4.5238 
14 1 7.77871 2.99384 2.99492 
15 1 7.06238 3.69723 3.69433 
28 1 10.0852 0.668467 0.667068 
29 1 8.58928 2.18185 2.18485 
30 1 9.29104 1.47195 1.4728 
1 1 6.19724 4.62834 6.18655 
2 1 7.68462 3.08448 7.68404 
3 1 6.98685 3.80864 6.98189 
40 1 10.0489 0.752864 10.0368 
41 1 8.49271 2.26743 8.49253 
42 1 9.20764 1.57171 9.20192 
7 1 6.17964 6.18862 4.60105 
8 1 7.68825 7.68807 3.08245 
9 1 6.98075 6.98469 3.7965 
43 1 10.039 10.0413 0.73961 
44 1 8.49647 8.49606 2.2668 
45 1 9.20514 9.20617 1.56514 
22 1 6.25901 6.26532 6.22466 
23 1 7.78726 7.78634 7.78691 
24 1 7.08481 7.0872 7.06883 
34 1 10.1098 10.1135 10.1015 
35 1 8.59677 8.59692 8.59994 
36 1 9.3059 9.3077 9.30375 
ITEM: TIMESTEP
120
ITEM: NUMBER OF ATOMS
50
ITEM: BOX BOUNDS pp pp pp
0.0000000000000000e+00 1.1000000000000000e+01
0.0000000000000000e+00 1.1002000000000001e+01
0.0000000000000000e+00 1.1000000000000000e+01
ITEM: ATOMS id type x y z 
10 1 4.63678 4.61598 4.6374 
11 1 3.10942 3.23381 2.79472 
12 1 3.69696 3.44085 4.15759 
46 1 0.750421 0.746394 0.750249 
47 1 2.38662 2.50352 2.10481 
48 1 1.57169 1.62767 1.43002 
49 2 2.93417 3.207 5.09559 
50 3 3.49494 2.30886 5.09072 
19 1 4.5627 4.57354 6.25558 
20 1 3.02945 3.06072 7.84984 
21 1 3.74415 3.78835 7.17606 
31 1 0.67583 0.673619 10.0781 
32 1 2.19638 2.19798 8.58952 
33 1 1.48406 1.48364 9.2858 
16 1 4.52032 6.1914 4.50858 
17 1 2.99546 7.77873 2.99616 
18 1 3.69416 7.05152 3.68918 
25 1 0.670797 10.0859 0.668409 
26 1 2.18415 8.59027 2.18644 
27 1 1.47418 9.29203 1.47434 
4 1 4.62305 6.2045 6.17348 
5 1 3.08634 7.68701 7.68466 
6 1 3.80662 6.99232 6.97567 
37 1 0.751764 10.0497 10.0368 
38 1 2.26837 8.49389 8.49388 
39 1 1.57177 9.20864 9.20245 
13 1 6.21356 4.52922 4.52365 
14 1 7.77803 2.99375 2.99489 
15 1 7.06185 3.69685 3.69452 
28 1 10.0869 0.669093 0.667858 
29 1 8.58882 2.18168 2.18489 
30 1 9.29171 1.4727 1.47281 
1 1 6.198 4.62911 6.18603 
2 1 7.68491 3.08446 7.68381 
3 1 6.98718 3.80925 6.98232 
40 1 10.0493 0.753298 10.0375 
41 1 8.49298 2.26756 8.4928 
42 1 9.20778 1.57143 9.20201 
7 1 6.17897 6.18819 4.60045 
8 1 7.68845 7.68881 3.08302 
9 1 6.97973 6.98363 3.79401 
43 1 10.0404 10.042 0.740023 
44 1 8.49691 8.49643 2.2663 
45 1 9.2058 9.20667 1.56531 
22 1 6.25878 6.26604 6.22304 
23 1 7.78725 7.78633 7.78666 
24 1 7.08485 7.08775 7.06814 
34 1 10.1102 10.1138 10.102 
35 1 8.59703 8.59698 8.60021 
36 1 9.30608 9.30808 9.30365 
ITEM: TIMESTEP
130
ITEM: NUMBER OF ATOMS
50
ITEM: BOX BOUNDS pp pp pp
0.0000000000000000e+00 1.1000000000000000e+01
0.0000000000000000e+00 1.1002000000000001e+01
0.0000000000000000e+00 1.1000000000000000e+01
ITEM: ATOMS id type x y z 
10 1 4.63505 4.61345 4.63815 
11 1 3.1097 3.23419 2.79609 
12 1 3.69374 3.43787 4.16085 
46 1 0.751696 0.748165 0.749441 
47 1 2.3887 2.5096 2.09839 
48 1 1.57312 1.63187 1.42641 
49 2 2.92693 3.19757 5.09554 
50 3 3.49723 2.30509 5.09287 
19 1 4.56295 4.57375 6.25617 
20 1 3.03002 3.06262 7.85206 
21 1 3.74445 3.78991 7.17785 
31 1 0.676067 0.673562 10.078 
32 1 2.19674 2.19863 8.59008 
33 1 1.48465 1.48442 9.28678 
16 1 4.5195 6.18909 4.50788 
17 1 2.99545 7.77801 2.99623 
18 1 3.69379 7.04989 3.68885 
25 1 0.671506 10.0872 0.669025 
26 1 2.18431 8.5901 2.18663 
27 1 1.47467 9.29227 1.47461 
4 1 4.62308 6.20515 6.17235 
5 1 3.08634 7.68742 7.68419 
6 1 3.80683 6.99257 6.97552 
37 1 0.752014 10.0498 10.0374 
38 1 2.26838 8.49409 8.49398 
39 1 1.57193 9.20866 9.20291 
13 1 6.21224 4.52847 4.52361 
14 1 7.7777 2.99381 2.99486 
15 1 7.06099 3.69641 3.69474 
28 1 10.0881 0.669692 0.668099 
29 1 8.58862 2.18191 2.18458 
30 1 9.29194 1.47263 1.47349 
1 1 6.1985 4.62994 6.18613 
2 1 7.68487 3.08473 7.68415 
3 1 6.98783 3.80931 6.98165 
40 1 10.0495 0.753236 10.0378 
41 1 8.49314 2.26732 8.49279 
42 1 9.208 1.57185 9.20242 
7 1 6.17815 6.18723 4.59911 
8 1 7.68824 7.68865 3.08244 
9 1 6.9796 6.98405 3.79398 
43 1 10.0414 10.0428 0.7404 
44 1 8.49715 8.49683 2.26602 
45 1 9.20651 9.20694 1.56526 
22 1 6.25864 6.26656 6.22175 
23 1 7.78719 7.78633 7.78644 
24 1 7.08488 7.08806 7.0675 
34 1 10.1106 10.1142 10.1023 
35 1 8.59715 8.59724 8.60018 
36 1 9.30627 9.30789 9.30398 
ITEM: TIMESTEP
140
ITEM: NUMBER OF ATOMS
50
ITEM: BOX BOUNDS pp pp pp
0.0000000000000000e+00 1.1000000000000000e+01
0.0000000000000000e+00 1.1002000000000001e+01
0.0000000000000000e+00 1.1000000000000000e+01
ITEM: ATOMS id type x y z 
10 1 4.61801 4.59124 4.64471 
11 1 3.10951 3.23638 2.80791 
12 1 3.66696 3.41062 4.18433 
46 1 0.76155 0.762065 0.743086 
47 1 2.40742 2.55974 2.04922 
48 1 1.58557 1.66578 1.39511 
49 2 2.87083 3.11813 5.09615 
50 3 3.5147 2.27522 5.10758 
19 1 4.5647 4.57579 6.26093 
20 1 3.03373 3.07822 7.8723 
21 1 3.74828 3.80389 7.19229 
31 1 0.677643 0.671473 10.0775 
32 1 2.20098 2.20481 8.59567 
33 1 1.48887 1.49215 9.29411 
16 1 4.51075 6.16836 4.50322 
17 1 2.99361 7.76995 2.99677 
18 1 3.69303 7.03612 3.68502 
25 1 0.6784 10.1009 0.674391 
26 1 2.18407 8.58879 2.18728 
27 1 1.48124 9.2972 1.47821 
4 1 4.62561 6.20805 6.16101 
5 1 3.08384 7.69048 7.68208 
6 1 3.8112 7.00054 6.97483 
37 1 0.754387 10.0514 10.0432 
38 1 2.26796 8.49554 8.49334 
39 1 1.57309 9.20855 9.20723 
13 1 6.19955 4.52278 4.52285 
14 1 7.77394 2.99461 2.99339 
15 1 7.05368 3.69064 3.69823 
28 1 10.0981 0.675126 0.670193 
29 1 8.58453 2.18274 2.18346 
30 1 9.29795 1.47691 1.47917 
1 1 6.20218 4.63675 6.18194 
2 1 7.6889 3.08608 7.68634 
3 1 6.98989 3.80604 6.97881 
40 1 10.0503 0.753125 10.0407 
41 1 8.49517 2.26758 8.49471 
42 1 9.20973 1.57339 9.20521 
7 1 6.17146 6.17869 4.58759 
8 1 7.68798 7.68818 3.07903 
9 1 6.97552 6.98558 3.7877 
43 1 10.052 10.0491 0.746233 
44 1 8.50005 8.49967 2.26461 
45 1 9.20961 9.20939 1.56637 
22 1 6.2578 6.27247 6.21075 
23 1 7.78754 7.78687 7.78542 
24 1 7.08531 7.09251 7.06091 
34 1 10.1117 10.1147 10.1074 
35 1 8.59601 8.5972 8.60311 
36 1 9.31111 9.3095 9.30033 
ITEM: TIMESTEP
150
ITEM: NUMBER OF ATOMS
50
ITEM: BOX BOUNDS pp pp pp
0.0000000000000000e+00 1.1000000000000000e+01
0.0000000000000000e+00 1.1002000000000001e+01
0.0000000000000000e+00 1.1000000000000000e+01
ITEM: ATOMS id type x y z 
10 1 4.61707 4.59022 4.64583 
11 1 3.10957 3.23716 2.80693 
12 1 3.66621 3.40945 4.18524 
46 1 0.762061 0.764329 0.742082 
47 1 2.4063 2.56135 2.04494 
48 1 1.58742 1.66665 1.39578 
49 2 2.86856 3.114 5.09689 
50 3 3.51501 2.27191 5.10924 
19 1 4.5652 4.57592 6.26158 
20 1 3.03487 3.07995 7.8726 
21 1 3.74804 3.80421 7.1935 
31 1 0.678127 0.673875 10.0782 
32 1 2.20105 2.2066 8.5985 
33 1 1.48846 1.48938 9.2912 
16 1 4.51139 6.16832 4.50201 
17 1 2.99453 7.76964 2.99557 
18 1 3.6896 7.03577 3.68553 
25 1 0.679332 10.1014 0.675128 
26 1 2.18572 8.5885 2.18773 
27 1 1.47946 9.29738 1.47868 
4 1 4.62703 6.21088 6.16409 
5 1 3.08746 7.69078 7.68185 
6 1 3.8076 6.99796 6.97126 
37 1 0.75448 10.0504 10.0438 
38 1 2.26766 8.49562 8.49469 
39 1 1.57305 9.20921 9.20595 
13 1 6.19944 4.52104 4.52384 
14 1 7.77315 2.99405 2.9949 
15 1 7.05306 3.69172 3.69614 
28 1 10.0994 0.675291 0.67213 
29 1 8.58663 2.18268 2.18456 
30 1 9.2955 1.4765 1.47614 
1 1 6.2027 4.6349 6.18229 
2 1 7.68673 3.08518 7.68376 
3 1 6.99194 3.81087 6.98076 
40 1 10.0505 0.752935 10.0415 
41 1 8.4956 2.26814 8.4952 
42 1 9.2095 1.5722 9.20505 
7 1 6.17118 6.18016 4.58811 
8 1 7.68689 7.6895 3.07929 
9 1 6.97637 6.98239 3.78656 
43 1 10.0518 10.0496 0.745528 
44 1 8.4998 8.49982 2.26361 
45 1 9.21187 9.21083 1.56723 
22 1 6.25784 6.2723 6.20907 
23 1 7.7868 7.7867 7.78399 
24 1 7.08517 7.09191 7.06139 
34 1 10.1135 10.1154 10.1064 
35 1 8.59826 8.59804 8.60067 
36 1 9.30712 9.30793 9.30499 
ITEM: TIMESTEP
160
ITEM: NUMBER OF ATOMS
50
ITEM: BOX BOUNDS pp pp pp
0.0000000000000000e+00 1.1000000000000000e+01
0.0000000000000000e+00 1.1002000000000001e+01
0.0000000000000000e+00 1.1000000000000000e+01
ITEM: ATOMS id type x y z 
10 1 4.61665 4.58975 4.64607 
11 1 3.10954 3.23715 2.80712 
12 1 3.66591 3.40899 4.18543 
46 1 0.762276 0.764787 0.741817 
47 1 2.40652 2.56211 2.04426 
48 1 1.58753 1.6669 1.3955 
49 2 2.86801 3.11279 5.09699 
50 3 3.51516 2.27148 5.10929 
19 1 4.56536 4.57607 6.26161 
20 1 3.03506 3.08032 7.87285 
21 1 3.74812 3.80445 7.19369 
31 1 0.678256 0.673998 10.0782 
32 1 2.20113 2.20679 8.59879 
33 1 1.48839 1.48937 9.29121 
16 1 4.51133 6.168 4.5019 
17 1 2.99453 7.76933 2.99545 
18 1 3.68941 7.03572 3.6856 
25 1 0.679411 10.1015 0.675295 
26 1 2.18559 8.58847 2.18765 
27 1 1.47983 9.29759 1.47894 
4 1 4.62674 6.21104 6.1641 
5 1 3.08741 7.69072 7.68156 
6 1 3.80808 6.99797 6.97115 
37 1 0.754448 10.0504 10.044 
38 1 2.26773 8.49557 8.49476 
39 1 1.57303 9.20932 9.20594 
13 1 6.19918 4.52061 4.52418 