ITEM: TIMESTEP
0
ITEM: NUMBER OF ATOMS
130
ITEM: BOX BOUNDS pp pp pp
0.0000000000000000e+00 1.8762000000000000e+01
0.0000000000000000e+00 1.8762000000000000e+01
0.0000000000000000e+00 1.8760999999999999e+01
ITEM: ATOMS id type x y z 
1 1 3.12 3.119 3.121 
10 1 5.595 5.596 5.595 
17 1 4.011 4.011 4.012 
26 1 4.704 4.704 4.704 
33 1 0.414 3.456 3.456 
41 1 3.456 0.413 3.456 
49 1 3.456 3.456 0.414 
58 1 8.301 5.259 5.259 
66 1 5.259 8.301 5.259 
74 1 5.259 5.259 8.301 
81 1 1.612 3.354 3.354 
89 1 3.353 1.612 3.354 
97 1 3.354 3.354 1.613 
106 1 7.103 5.361 5.361 
114 1 5.362 7.103 5.361 
122 1 5.361 5.361 7.103 
4 1 3.12 3.12 14.976 
11 1 5.595 5.595 12.5 
20 1 4.011 4.011 14.084 
27 1 4.704 4.704 13.392 
36 1 0.414 3.456 14.639 
46 1 3.456 0.414 14.639 
56 1 3.456 3.456 17.682 
59 1 8.301 5.259 12.837 
69 1 5.259 8.301 12.837 
79 1 5.259 5.259 9.794 
84 1 1.612 3.354 14.742 
94 1 3.354 1.612 14.742 
104 1 3.354 3.354 16.483 
107 1 7.103 5.361 12.735 
117 1 5.361 7.103 12.735 
127 1 5.361 5.361 10.993 
6 1 3.12 14.976 3.12 
13 1 5.595 12.501 5.596 
22 1 4.011 14.085 4.011 
29 1 4.704 13.392 4.705 
38 1 0.414 14.64 3.457 
48 1 3.456 17.682 3.456 
52 1 3.456 14.64 0.414 
61 1 8.301 12.837 5.259 
71 1 5.259 9.794 5.259 
75 1 5.259 12.837 8.301 
86 1 1.612 14.742 3.354 
96 1 3.354 16.483 3.354 
100 1 3.354 14.742 1.612 
109 1 7.103 12.735 5.361 
119 1 5.361 10.993 5.361 
123 1 5.361 12.735 7.103 
7 1 3.12 14.976 14.976 
16 1 5.595 12.501 12.5 
23 1 4.011 14.085 14.084 
32 1 4.704 13.392 13.391 
39 1 0.414 14.64 14.639 
43 1 3.456 17.682 14.639 
53 1 3.456 14.64 17.682 
64 1 8.302 12.837 12.837 
68 1 5.259 9.795 12.837 
78 1 5.259 12.837 9.794 
87 1 1.612 14.742 14.741 
91 1 3.354 16.483 14.741 
101 1 3.353 14.742 16.483 
112 1 7.103 12.735 12.735 
116 1 5.361 10.993 12.735 
126 1 5.361 12.735 10.993 
8 1 14.976 3.12 3.12 
15 1 12.501 5.595 5.595 
24 1 14.084 4.011 4.011 
31 1 13.392 4.704 4.704 
40 1 17.682 3.456 3.456 
44 1 14.64 0.414 3.457 
54 1 14.64 3.456 0.414 
63 1 9.795 5.259 5.259 
67 1 12.837 8.301 5.259 
77 1 12.837 5.259 8.301 
88 1 16.483 3.354 3.354 
92 1 14.742 1.612 3.354 
102 1 14.742 3.354 1.612 
111 1 10.993 5.361 5.361 
115 1 12.735 7.103 5.361 
125 1 12.735 5.361 7.103 
5 1 14.976 3.119 14.975 
14 1 12.501 5.596 12.501 
21 1 14.085 4.011 14.084 
30 1 13.392 4.703 13.392 
37 1 17.682 3.456 14.639 
47 1 14.64 0.413 14.639 
51 1 14.64 3.456 17.682 
62 1 9.794 5.259 12.837 
72 1 12.837 8.301 12.837 
76 1 12.837 5.259 9.795 
85 1 16.483 3.354 14.741 
95 1 14.742 1.612 14.741 
99 1 14.742 3.354 16.483 
110 1 10.993 5.361 12.735 
120 1 12.734 7.103 12.735 
124 1 12.735 5.361 10.993 
3 1 14.976 14.976 3.12 
12 1 12.501 12.501 5.595 
19 1 14.085 14.085 4.011 
28 1 13.392 13.392 4.704 
35 1 17.682 14.64 3.457 
45 1 14.64 17.682 3.457 
55 1 14.64 14.64 0.414 
60 1 9.794 12.837 5.259 
70 1 12.837 9.794 5.259 
80 1 12.837 12.837 8.301 
83 1 16.484 14.742 3.354 
93 1 14.742 16.483 3.354 
103 1 14.742 14.742 1.613 
108 1 10.993 12.735 5.361 
118 1 12.734 10.993 5.361 
128 1 12.734 12.734 7.103 
129 2 12.288 13.459 3.917 
130 3 12.288 13.459 2.941 
2 1 14.976 14.976 14.975 
9 1 12.501 12.501 12.501 
18 1 14.084 14.085 14.084 
25 1 13.391 13.393 13.392 
34 1 17.682 14.64 14.639 
42 1 14.64 17.682 14.639 
50 1 14.64 14.64 17.682 
57 1 9.795 12.837 12.837 
65 1 12.837 9.794 12.837 
73 1 12.837 12.837 9.794 
82 1 16.483 14.742 14.741 
90 1 14.742 16.483 14.741 
98 1 14.742 14.742 16.483 
105 1 10.993 12.734 12.734 
113 1 12.735 10.993 12.735 
121 1 12.735 12.734 10.993 
ITEM: TIMESTEP
10
ITEM: NUMBER OF ATOMS
130
ITEM: BOX BOUNDS pp pp pp
0.0000000000000000e+00 1.8762000000000000e+01
0.0000000000000000e+00 1.8762000000000000e+01
0.0000000000000000e+00 1.8760999999999999e+01
ITEM: ATOMS id type x y z 
1 1 3.09545 3.09507 3.09525 
10 1 5.62033 5.61922 5.61985 
17 1 4.01437 4.0132 4.01336 
26 1 4.70033 4.7009 4.7018 
33 1 0.417047 3.45287 3.45257 
41 1 3.45248 0.414414 3.45332 
49 1 3.45274 3.45305 0.417395 
58 1 8.30107 5.26183 5.26189 
66 1 5.26234 8.30012 5.2615 
74 1 5.26188 5.26177 8.2999 
81 1 1.60752 3.35403 3.35495 
89 1 3.35384 1.61157 3.35503 
97 1 3.35461 3.35486 1.61129 
106 1 7.10371 5.36053 5.36006 
114 1 5.3606 7.10372 5.36052 
122 1 5.36015 5.36055 7.10313 
4 1 3.09447 3.09447 14.9999 
11 1 5.62005 5.62051 12.4771 
20 1 4.01433 4.01431 14.0839 
27 1 4.70062 4.70011 13.3922 
36 1 0.41536 3.45299 14.6426 
46 1 3.45295 0.416413 14.6427 
56 1 3.45312 3.45306 17.6808 
59 1 8.29942 5.26201 12.8343 
69 1 5.26196 8.30177 12.8342 
79 1 5.26178 5.2619 9.79552 
84 1 1.60912 3.3546 14.7406 
94 1 3.35467 1.60838 14.7406 
104 1 3.35476 3.35472 16.4842 
107 1 7.10296 5.36056 12.7358 
117 1 5.36078 7.10319 12.7351 
127 1 5.35999 5.36047 10.9919 
6 1 3.09567 15.0009 3.0952 
13 1 5.62283 12.4767 5.61906 
22 1 4.01348 14.0829 4.01479 
29 1 4.70167 13.3932 4.70162 
38 1 0.416724 14.6423 3.45397 
48 1 3.45317 17.6806 3.45304 
52 1 3.45322 14.6429 0.414609 
61 1 8.30445 12.8342 5.26156 
71 1 5.26187 9.79682 5.26194 
75 1 5.26189 12.8342 8.29999 
86 1 1.61453 14.7415 3.35493 
96 1 3.35493 16.4849 3.35483 
100 1 3.35481 14.741 1.61139 
109 1 7.09986 12.7351 5.36164 
119 1 5.36027 10.9924 5.36052 
123 1 5.36067 12.7359 7.10292 
7 1 3.0952 15.001 14.9998 
16 1 5.6201 12.4769 12.4753 
23 1 4.01451 14.0817 14.0823 
32 1 4.70106 13.3956 13.3941 
39 1 0.415797 14.6433 14.6422 
43 1 3.45273 17.6804 14.6419 
53 1 3.4524 14.6427 17.6791 
64 1 8.30032 12.834 12.8344 
68 1 5.26217 9.79629 12.834 
78 1 5.26174 12.8341 9.79555 
87 1 1.60767 14.7414 14.7406 
91 1 3.35464 16.486 14.7401 
101 1 3.35418 14.7413 16.4843 
112 1 7.10269 12.7355 12.7357 
116 1 5.3604 10.99 12.7351 
126 1 5.36001 12.7353 10.9931 
8 1 15 3.09568 3.09514 
15 1 12.4756 5.62197 5.62041 
24 1 14.0831 4.01448 4.01457 
31 1 13.3933 4.7006 4.70031 
40 1 17.684 3.45317 3.45321 
44 1 14.6425 0.417261 3.45402 
54 1 14.6428 3.45317 0.414128 
63 1 9.79744 5.26205 5.26214 
67 1 12.8338 8.29932 5.2626 
77 1 12.834 5.26193 8.30003 
88 1 16.4838 3.3548 3.35483 
92 1 14.7414 1.61368 3.35503 
102 1 14.741 3.35468 1.61173 
111 1 10.9914 5.36031 5.3604 
115 1 12.736 7.1086 5.36018 
125 1 12.7356 5.36039 7.10366 
5 1 15.0015 3.09454 15.0011 
14 1 12.476 5.619 12.4755 
21 1 14.0806 4.01222 14.0815 
30 1 13.3957 4.70305 13.3945 
37 1 17.6829 3.4531 14.6419 
47 1 14.6429 0.413541 14.6419 
51 1 14.643 3.45322 17.6806 
62 1 9.79623 5.26179 12.834 
72 1 12.8334 8.29745 12.834 
76 1 12.8338 5.26226 9.79925 
85 1 16.4844 3.35439 14.7401 
95 1 14.7414 1.61109 14.7402 
99 1 14.7413 3.35444 16.4826 
110 1 10.9921 5.36031 12.7356 
120 1 12.7358 7.10564 12.7352 
124 1 12.7356 5.36093 10.9896 
3 1 14.9934 14.9733 3.10565 
12 1 12.4067 12.3811 5.7197 
19 1 14.1193 14.1282 3.99009 
28 1 13.6321 13.457 4.85302 
35 1 17.6823 14.6429 3.45464 
45 1 14.6425 17.6812 3.45412 
55 1 14.6416 14.6426 0.411471 
60 1 9.78346 12.8357 5.26061 
70 1 12.8339 9.78844 5.25921 
80 1 12.8345 12.836 8.30887 
83 1 16.4891 14.7417 3.35723 
93 1 14.7417 16.4874 3.35591 
103 1 14.7398 14.7418 1.61007 
108 1 10.9817 12.7291 5.37438 
118 1 12.7354 10.9857 5.3614 
128 1 12.7351 12.7333 7.10958 
129 2 12.1866 13.4562 3.81353 
130 3 12.1994 13.4772 2.79583 
2 1 15.0007 15.0013 14.9995 
9 1 12.4756 12.4761 12.4712 
18 1 14.0815 14.0828 14.0821 
25 1 13.3942 13.394 13.3939 
34 1 17.6804 14.6432 14.6422 
42 1 14.6432 17.6793 14.642 
50 1 14.6427 14.6425 17.6763 
57 1 9.79953 12.8335 12.8336 
65 1 12.8337 9.79944 12.8338 
73 1 12.834 12.833 9.7954 
82 1 16.4875 14.7414 14.7404 
90 1 14.7413 16.4865 14.7398 
98 1 14.7416 14.7411 16.4815 
105 1 10.9913 12.7348 12.7345 
113 1 12.7357 10.9897 12.7359 
121 1 12.7347 12.7351 10.9907 
ITEM: TIMESTEP
20
ITEM: NUMBER OF ATOMS
130
ITEM: BOX BOUNDS pp pp pp
0.0000000000000000e+00 1.8762000000000000e+01
0.0000000000000000e+00 1.8762000000000000e+01
0.0000000000000000e+00 1.8760999999999999e+01
ITEM: ATOMS id type x y z 
1 1 3.10594 3.10611 3.10747 
10 1 5.6088 5.60806 5.60857 
17 1 4.01362 4.0131 4.01327 
26 1 4.70157 4.70149 4.7023 
33 1 0.414347 3.45296 3.45294 
41 1 3.45247 0.413177 3.45329 
49 1 3.45291 3.45321 0.414372 
58 1 8.3016 5.26199 5.26181 
66 1 5.26226 8.30086 5.26168 
74 1 5.26181 5.26194 8.30122 
81 1 1.60361 3.35349 3.35403 
89 1 3.35352 1.60346 3.35446 
97 1 3.35417 3.3543 1.6044 
106 1 7.1117 5.3608 5.36058 
114 1 5.36112 7.11151 5.36075 
122 1 5.36072 5.36081 7.11138 
4 1 3.10725 3.10579 14.9894 
11 1 5.60783 5.60889 12.4879 
20 1 4.01396 4.01398 14.0831 
27 1 4.70064 4.7002 13.3932 
36 1 0.413168 3.45309 14.6424 
46 1 3.45309 0.413751 14.6423 
56 1 3.45309 3.45309 17.6821 
59 1 8.30143 5.26201 12.8342 
69 1 5.26197 8.3015 12.8341 
79 1 5.26188 5.26199 9.79447 
84 1 1.60345 3.35391 14.7414 
94 1 3.35362 1.60494 14.7418 
104 1 3.35381 3.35365 16.4906 
107 1 7.11154 5.36113 12.7357 
117 1 5.36155 7.11069 12.7346 
127 1 5.36037 5.36098 10.9835 
6 1 3.10827 14.9897 3.10638 
13 1 5.60962 12.488 5.60809 
22 1 4.01371 14.0824 4.01451 
29 1 4.70107 13.3942 4.7012 
38 1 0.416168 14.6423 3.45406 
48 1 3.4531 17.6825 3.45318 
52 1 3.45304 14.6428 0.412952 
61 1 8.30082 12.835 5.26073 
71 1 5.2617 9.79524 5.26199 
75 1 5.26182 12.8341 8.30066 
86 1 1.60595 14.7416 3.35462 
96 1 3.35466 16.4928 3.3545 
100 1 3.35461 14.7414 1.60297 
109 1 7.10544 12.734 5.36226 
119 1 5.36111 10.9849 5.36131 
123 1 5.36131 12.7351 7.11127 
7 1 3.10544 14.9895 14.9878 
16 1 5.60806 12.4871 12.4874 
23 1 4.01415 14.0824 14.0823 
32 1 4.70167 13.3949 13.3939 
39 1 0.414382 14.643 14.642 
43 1 3.45298 17.6818 14.6418 
53 1 3.45255 14.6428 17.6817 
64 1 8.30162 12.834 12.8343 
68 1 5.26195 9.79468 12.8341 
78 1 5.26167 12.834 9.79445 
87 1 1.60423 14.7425 14.7415 
91 1 3.35385 16.4915 14.7407 
101 1 3.35373 14.7416 16.4921 
112 1 7.11189 12.7353 12.7353 
116 1 5.36122 10.9854 12.7343 
126 1 5.36058 12.735 10.9848 
8 1 14.9902 3.10924 3.1062 
15 1 12.4885 5.61468 5.60761 
24 1 14.083 4.0139 4.01375 
31 1 13.393 4.70123 4.7013 
40 1 17.6822 3.45306 3.45314 
44 1 14.6423 0.415652 3.45413 
54 1 14.6428 3.45297 0.413385 
63 1 9.79486 5.26175 5.26212 
67 1 12.8345 8.298 5.26147 
77 1 12.8338 5.26179 8.30117 
88 1 16.4922 3.35434 3.35439 
92 1 14.7415 1.60543 3.35472 
102 1 14.7413 3.35436 1.60255 
111 1 10.9847 5.36108 5.36093 
115 1 12.7339 7.10486 5.36265 
125 1 12.7351 5.36109 7.11183 
5 1 14.9896 3.10608 14.9884 
14 1 12.4869 5.60825 12.4873 
21 1 14.0819 4.01196 14.0823 
30 1 13.3951 4.70261 13.3944 
37 1 17.6828 3.45307 14.6419 
47 1 14.643 0.413706 14.6419 
51 1 14.643 3.45309 17.6814 
62 1 9.79422 5.2619 12.834 
72 1 12.8339 8.30046 12.834 
76 1 12.8342 5.26215 9.79445 
85 1 16.4919 3.35368 14.741 
95 1 14.742 1.60291 14.7409 
99 1 14.7419 3.3541 16.492 
110 1 10.9841 5.36064 12.735 
120 1 12.7351 7.11136 12.7349 
124 1 12.735 5.36117 10.9845 
3 1 15.0121 15.0072 3.078 
12 1 12.4635 12.4445 5.66692 
19 1 14.1141 14.0955 4.04482 
28 1 13.6513 13.4291 4.91085 
35 1 17.6871 14.6433 3.45564 
45 1 14.6428 17.6814 3.45411 
55 1 14.641 14.6433 0.409283 
60 1 9.77721 12.8386 5.25888 
70 1 12.8373 9.77697 5.25465 
80 1 12.8387 12.8406 8.32416 
83 1 16.4937 14.7409 3.35541 
93 1 14.7426 16.4906 3.35485 
103 1 14.7413 14.7406 1.60258 
108 1 10.973 12.7268 5.37601 
118 1 12.7347 10.9668 5.36312 
128 1 12.7333 12.7303 7.13193 
129 2 12.1141 13.4554 3.73924 
130 3 12.1882 13.4755 2.80618 
2 1 14.9899 14.9899 14.9866 
9 1 12.49 12.4895 12.48 
18 1 14.082 14.0826 14.0821 
25 1 13.3942 13.3943 13.3936 
34 1 17.682 14.6429 14.6419 
42 1 14.6429 17.6826 14.6418 
50 1 14.6426 14.6422 17.679 
57 1 9.79266 12.8337 12.8341 
65 1 12.8339 9.79334 12.8346 
73 1 12.8347 12.8343 9.79631 
82 1 16.4923 14.7419 14.7409 
90 1 14.7416 16.4925 14.7404 
98 1 14.7418 14.7414 16.4895 
105 1 10.9846 12.7346 12.7338 
113 1 12.7352 10.9849 12.7349 
121 1 12.7331 12.733 10.9931 
ITEM: TIMESTEP
30
ITEM: NUMBER OF ATOMS
130
ITEM: BOX BOUNDS pp pp pp
0.0000000000000000e+00 1.8762000000000000e+01
0.0000000000000000e+00 1.8762000000000000e+01
0.0000000000000000e+00 1.8760999999999999e+01
ITEM: ATOMS id type x y z 
1 1 3.10652 3.10644 3.10722 
10 1 5.60856 5.60818 5.60861 
17 1 4.0132 4.013 4.01363 
26 1 4.70196 4.70139 4.70185 
33 1 0.417406 3.45274 3.4528 
41 1 3.45235 0.417609 3.45312 
49 1 3.45273 3.453 0.417788 
58 1 8.2974 5.26207 5.26191 
66 1 5.26232 8.29752 5.26187 
74 1 5.26195 5.26209 8.29721 
81 1 1.60766 3.35228 3.35275 
89 1 3.35222 1.60764 3.3533 
97 1 3.35283 3.35308 1.60803 
106 1 7.10705 5.36194 5.36185 
114 1 5.36229 7.10721 5.36187 
122 1 5.362 5.36197 7.10723 
4 1 3.10688 3.10678 14.9887 
11 1 5.60809 5.60831 12.487 
20 1 4.0138 4.01307 14.0828 
27 1 4.7013 4.70118 13.3935 
36 1 0.417682 3.45287 14.6425 
46 1 3.45274 0.417023 14.6426 
56 1 3.45276 3.45283 17.6783 
59 1 8.297 5.26228 12.8341 
69 1 5.2623 8.2978 12.8338 
79 1 5.26195 5.26221 9.79849 
84 1 1.60765 3.35258 14.7429 
94 1 3.35273 1.60744 14.7429 
104 1 3.35279 3.3525 16.488 
107 1 7.1069 5.36227 12.7343 
117 1 5.36252 7.10748 12.7334 
127 1 5.36186 5.36247 10.9888 
6 1 3.10664 14.9897 3.10657 
13 1 5.60807 12.4881 5.60799 
22 1 4.01332 14.0826 4.01351 
29 1 4.70112 13.3944 4.70162 
38 1 0.420428 14.6425 3.45428 
48 1 3.45296 17.6788 3.45316 
52 1 3.45292 14.6428 0.417462 
61 1 8.2947 12.8355 5.26051 
71 1 5.2618 9.79788 5.26215 
75 1 5.26187 12.8339 8.29802 
86 1 1.612 14.743 3.353 
96 1 3.35357 16.4883 3.35318 
100 1 3.35349 14.7428 1.60764 
109 1 7.10466 12.7331 5.36282 
119 1 5.36196 10.9883 5.36241 
123 1 5.36219 12.7339 7.10756 
7 1 3.1067 14.9892 14.9887 
16 1 5.60859 12.4877 12.4875 
23 1 4.01354 14.0826 14.0819 
32 1 4.70168 13.3945 13.3941 
39 1 0.417328 14.6432 14.6422 
43 1 3.45278 17.679 14.6421 
53 1 3.45249 14.6429 17.6769 
64 1 8.29618 12.834 12.8342 
68 1 5.26215 9.79794 12.8338 
78 1 5.26182 12.8339 9.79827 
87 1 1.60746 14.7435 14.7424 
91 1 3.35268 16.4886 14.7417 
101 1 3.35229 14.743 16.487 
112 1 7.10634 12.7339 12.7339 
116 1 5.36227 10.9884 12.7335 
126 1 5.36173 12.7339 10.9885 
8 1 14.9899 3.10683 3.10617 
15 1 12.4882 5.60807 5.60779 
24 1 14.0829 4.01351 4.0129 
31 1 13.394 4.70161 4.70116 
40 1 17.6787 3.45283 3.45303 
44 1 14.6426 0.418533 3.45382 
54 1 14.6428 3.45279 0.417487 
63 1 9.79788 5.26167 5.26217 
67 1 12.8349 8.29492 5.26065 
77 1 12.8338 5.26169 8.29828 
88 1 16.4885 3.35343 3.353 
92 1 14.7429 1.60951 3.3534 
102 1 14.7429 3.35333 1.60776 
111 1 10.9881 5.36255 5.36159 
115 1 12.7334 7.10465 5.36322 
125 1 12.7345 5.36248 7.10807 
5 1 14.9894 3.10622 14.9883 
14 1 12.4872 5.60798 12.4875 
21 1 14.0823 4.0127 14.0821 
30 1 13.3945 4.70192 13.3944 
37 1 17.6779 3.45286 14.6421 
47 1 14.6431 0.417213 14.642 
51 1 14.6431 3.45298 17.6774 
62 1 9.798 5.262 12.8339 
72 1 12.8339 8.29668 12.834 
76 1 12.834 5.26222 9.79869 
85 1 16.4881 3.35233 14.7423 
95 1 14.7434 1.60797 14.7421 
99 1 14.7432 3.35288 16.4871 
110 1 10.9884 5.36183 12.7339 
120 1 12.7338 7.10635 12.7338 
124 1 12.7338 5.36231 10.9892 
3 1 15.002 15.001 3.08879 
12 1 12.4979 12.4626 5.65387 
19 1 14.1318 14.082 4.07935 
28 1 13.6035 13.4083 4.9045 
35 1 17.6862 14.6422 3.45643 
45 1 14.6423 17.6839 3.45518 
55 1 14.6401 14.6417 0.408513 
60 1 9.79792 12.8363 5.26134 
70 1 12.8356 9.79452 5.25523 
80 1 12.838 12.8403 8.31355 
83 1 16.4958 14.7432 3.35264 
93 1 14.7441 16.4933 3.35193 
103 1 14.7422 14.7426 1.59943 
108 1 10.988 12.7233 5.38279 
118 1 12.7305 10.9842 5.37258 
128 1 12.7263 12.7206 7.12027 
129 2 12.0981 13.4544 3.72169 
130 3 12.186 13.4766 2.80549 
2 1 14.9896 14.9896 14.9891 
9 1 12.489 12.4887 12.4866 
18 1 14.0827 14.083 14.0823 
25 1 13.3946 13.3949 13.3934 
34 1 17.6789 14.643 14.6421 
42 1 14.643 17.6786 14.6419 
50 1 14.6423 14.6425 17.6744 
57 1 9.79778 12.8335 12.8342 
65 1 12.8337 9.79711 12.8346 
73 1 12.8353 12.8353 9.80133 
82 1 16.4889 14.7431 14.7418 
90 1 14.7429 16.4885 14.7414 
98 1 14.7434 14.7429 16.4833 
105 1 10.9878 12.7341 12.7325 
113 1 12.7348 10.9879 12.7333 
121 1 12.7327 12.7322 10.9943 
ITEM: TIMESTEP
40
ITEM: NUMBER OF ATOMS
130
ITEM: BOX BOUNDS pp pp pp
0.0000000000000000e+00 1.8762000000000000e+01
0.0000000000000000e+00 1.8762000000000000e+01
0.0000000000000000e+00 1.8760999999999999e+01
ITEM: ATOMS id type x y z 
1 1 3.10645 3.10614 3.10643 
10 1 5.60855 5.60854 5.60897 
17 1 4.01298 4.01325 4.01411 
26 1 4.7017 4.70191 4.70154 
33 1 0.417808 3.45129 3.45171 
41 1 3.4512 0.418192 3.45206 
49 1 3.45152 3.45177 0.417595 
58 1 8.29731 5.26307 5.26326 
66 1 5.26345 8.29738 5.26324 
74 1 5.26324 5.2633 8.29748 
81 1 1.60815 3.35111 3.35144 
89 1 3.35092 1.60839 3.35178 
97 1 3.35145 3.35165 1.60807 
106 1 7.10713 5.36334 5.36338 
114 1 5.36375 7.10724 5.36326 
122 1 5.36349 5.36337 7.10713 
4 1 3.10614 3.10587 14.9898 
11 1 5.60878 5.60891 12.4869 
20 1 4.01257 4.01283 14.0817 
27 1 4.70207 4.70194 13.3947 
36 1 0.417897 3.45143 14.6439 
46 1 3.45144 0.41775 14.6439 
56 1 3.45146 3.45142 17.6779 
59 1 8.29682 5.26354 12.8329 
69 1 5.2636 8.29689 12.8324 
79 1 5.26311 5.2636 9.79841 
84 1 1.60762 3.35133 14.7442 
94 1 3.35138 1.60755 14.7443 
104 1 3.35139 3.35123 16.4881 
107 1 7.10667 5.36357 12.7325 
117 1 5.3637 7.10701 12.7321 
127 1 5.36334 5.36366 10.9883 
6 1 3.10963 14.9904 3.10523 
13 1 5.60976 12.4857 5.60993 
22 1 4.01522 14.0823 4.01324 
29 1 4.70151 13.3932 4.70378 
38 1 0.416996 14.6436 3.45359 
48 1 3.45183 17.6787 3.45214 
52 1 3.45178 14.6438 0.41726 
61 1 8.30278 12.8337 5.26236 
71 1 5.26353 9.7991 5.26343 
75 1 5.26352 12.8327 8.29657 
86 1 1.60494 14.7439 3.3525 
96 1 3.35216 16.4889 3.35211 
100 1 3.35214 14.7439 1.60719 
109 1 7.11596 12.7332 5.36221 
119 1 5.36325 10.9892 5.36395 
123 1 5.3634 12.7322 7.1064 
7 1 3.10645 14.9903 14.9888 
16 1 5.60761 12.487 12.4866 
23 1 4.01259 14.0833 14.0818 
32 1 4.70182 13.3933 13.3942 
39 1 0.418261 14.6444 14.6434 
43 1 3.45144 17.679 14.6432 
53 1 3.45129 14.644 17.677 
64 1 8.29654 12.8327 12.8332 
68 1 5.26353 9.79824 12.8326 
78 1 5.26306 12.8328 9.7981 
87 1 1.60845 14.7447 14.7438 
91 1 3.3515 16.4886 14.7433 
101 1 3.35102 14.7445 16.4867 
112 1 7.10605 12.7324 12.7327 
116 1 5.36354 10.9886 12.7324 
126 1 5.36314 12.7326 10.9884 
8 1 14.9898 3.10728 3.10566 
15 1 12.4866 5.60992 5.60939 
24 1 14.0828 4.01375 4.01319 
31 1 13.3943 4.70172 4.70196 
40 1 17.6783 3.45196 3.45168 
44 1 14.6438 0.415718 3.45299 
54 1 14.6442 3.45192 0.417643 
63 1 9.79832 5.26368 5.26284 
67 1 12.8333 8.2979 5.26011 
77 1 12.8331 5.26368 8.29741 
88 1 16.4888 3.35178 3.3517 
92 1 14.744 1.60488 3.35222 
102 1 14.7443 3.35167 1.60735 
111 1 10.9891 5.3632 5.36383 
115 1 12.7327 7.10727 5.36395 
125 1 12.7322 5.36312 7.10667 
5 1 14.9902 3.10567 14.9893 
14 1 12.4866 5.60799 12.4877 
21 1 14.0834 4.01372 14.0828 
30 1 13.3934 4.70078 13.3935 
37 1 17.6786 3.4514 14.6435 
47 1 14.6444 0.418551 14.643 
51 1 14.6443 3.45172 17.6771 
62 1 9.79783 5.26327 12.8327 
72 1 12.8327 8.29622 12.833 
76 1 12.8327 5.26335 9.79867 
85 1 16.4883 3.35117 14.7435 
95 1 14.7447 1.60873 14.7436 
99 1 14.7445 3.35133 16.4868 
110 1 10.9881 5.36309 12.7326 
120 1 12.7324 7.1061 12.7325 
124 1 12.7325 5.36344 10.9887 
3 1 14.9902 14.9831 3.11459 
12 1 12.5236 12.4862 5.6365 
19 1 14.1877 14.0787 4.1283 
28 1 13.5793 13.3946 4.89385 
35 1 17.6794 14.6439 3.45291 
45 1 14.6442 17.6778 3.45218 
55 1 14.6422 14.6431 0.418409 
60 1 9.81758 12.8279 5.27233 
70 1 12.8295 9.80161 5.26039 
80 1 12.833 12.8364 8.31454 
83 1 16.4887 14.7541 3.34194 
93 1 14.7503 16.4893 3.3465 
103 1 14.7465 14.7462 1.60684 
108 1 11.0011 12.727 5.38258 
118 1 12.7354 10.9935 5.38093 
128 1 12.7266 12.7104 7.12142 
129 2 12.0171 13.4527 3.67179 
130 3 12.1766 13.4809 2.76779 
2 1 14.9907 14.9911 14.9858 
9 1 12.486 12.4864 12.4879 
18 1 14.0834 14.083 14.0817 
25 1 13.3953 13.3955 13.3937 
34 1 17.6795 14.6441 14.643 
42 1 14.6439 17.6791 14.6427 
50 1 14.6427 14.643 17.6776 
57 1 9.79712 12.833 12.8324 
65 1 12.8333 9.79688 12.8329 
73 1 12.8361 12.8376 9.80938 
82 1 16.4897 14.7439 14.7431 
90 1 14.7438 16.4893 14.7429 
98 1 14.7441 14.744 16.4882 
105 1 10.9874 12.7324 12.7325 
113 1 12.733 10.987 12.7331 
121 1 12.7316 12.7309 11.0014 
ITEM: TIMESTEP
50
ITEM: NUMBER OF ATOMS
130
ITEM: BOX BOUNDS pp pp pp
0.0000000000000000e+00 1.8762000000000000e+01
0.0000000000000000e+00 1.8762000000000000e+01
0.0000000000000000e+00 1.8760999999999999e+01
ITEM: ATOMS id type x y z 
1 1 3.1072 3.1071 3.1072 
10 1 5.60798 5.608 5.60816 
17 1 4.01293 4.01324 4.01369 
26 1 4.70175 4.70201 4.702 
33 1 0.41636 3.45102 3.45141 
41 1 3.45092 0.416563 3.45179 
49 1 3.45125 3.45148 0.416382 
58 1 8.29876 5.26345 5.26349 
66 1 5.26383 8.29903 5.26353 
74 1 5.26353 5.26359 8.29867 
81 1 1.60657 3.35108 3.35145 
89 1 3.35094 1.60671 3.35175 
97 1 3.35142 3.35159 1.60671 
106 1 7.10857 5.36336 5.3635 
114 1 5.36375 7.10895 5.36335 
122 1 5.36357 5.36345 7.10844 
4 1 3.1069 3.10668 14.9888 
11 1 5.60792 5.608 12.4878 
20 1 4.01261 4.0129 14.082 
27 1 4.70198 4.70189 13.3944 
36 1 0.416249 3.45117 14.6441 
46 1 3.45119 0.416234 14.6441 
56 1 3.45121 3.45118 17.6794 
59 1 8.29834 5.26378 12.8326 
69 1 5.26386 8.29859 12.8321 
79 1 5.26338 5.26385 9.79689 
84 1 1.60651 3.35126 14.7443 
94 1 3.3513 1.60652 14.7444 
104 1 3.35132 3.35115 16.4891 
107 1 7.10805 5.36365 12.7325 
117 1 5.36374 7.10835 12.7321 
127 1 5.36339 5.36373 10.9871 
6 1 3.10881 14.9894 3.10625 
13 1 5.60984 12.4868 5.60888 
22 1 4.01527 14.0821 4.01352 
29 1 4.70186 13.3932 4.70375 
38 1 0.415605 14.6439 3.45333 
48 1 3.45144 17.6798 3.45188 
52 1 3.45142 14.6441 0.416101 
61 1 8.30734 12.8329 5.2633 
71 1 5.26381 9.79776 5.26384 
75 1 5.2638 12.8323 8.29785 
86 1 1.60533 14.7443 3.35222 
96 1 3.35214 16.4896 3.35172 
100 1 3.3521 14.7443 1.60643 
109 1 7.1192 12.7333 5.36202 
119 1 5.36351 10.9881 5.36413 
123 1 5.36365 12.732 7.10753 
7 1 3.10723 14.9896 14.9879 
16 1 5.60712 12.4876 12.4874 
23 1 4.01282 14.083 14.0819 
32 1 4.70155 13.3935 13.394 
39 1 0.416922 14.6447 14.6436 
43 1 3.45119 17.6803 14.6435 
53 1 3.451 14.6443 17.6786 
64 1 8.29738 12.8325 12.8329 
68 1 5.26386 9.79688 12.8323 
78 1 5.26344 12.8325 9.79643 
87 1 1.60717 14.7448 14.7438 
91 1 3.35146 16.4899 14.7433 
101 1 3.35105 14.7445 16.4884 
112 1 7.10718 12.7323 12.7326 
116 1 5.36353 10.9871 12.7323 
126 1 5.36311 12.7325 10.9866 
8 1 14.9892 3.107 3.10644 
15 1 12.4876 5.60885 5.60845 
24 1 14.0828 4.01349 4.01322 
31 1 13.3942 4.70212 4.70208 
40 1 17.6796 3.45162 3.45141 
44 1 14.6441 0.414988 3.4527 
54 1 14.6445 3.45162 0.416226 
63 1 9.79726 5.26389 5.26329 
67 1 12.8325 8.3008 5.2604 
77 1 12.8327 5.26389 8.29854 
88 1 16.4895 3.35169 3.35139 
92 1 14.7442 1.60465 3.35203 
102 1 14.7445 3.35156 1.60646 
111 1 10.9874 5.36337 5.3638 
115 1 12.7328 7.11097 5.3635 
125 1 12.7322 5.3633 7.10841 
5 1 14.9894 3.10697 14.9883 
14 1 12.4873 5.60722 12.4882 
21 1 14.0833 4.01348 14.0826 
30 1 13.3936 4.70093 13.3937 
37 1 17.6802 3.4511 14.6437 
47 1 14.6446 0.41677 14.6433 
51 1 14.6446 3.45143 17.6788 
62 1 9.79644 5.26356 12.8325 
72 1 12.8325 8.29723 12.8327 
76 1 12.8325 5.26373 9.79707 
85 1 16.4899 3.35118 14.7435 
95 1 14.7447 1.607 14.7436 
99 1 14.7445 3.35132 16.4886 
110 1 10.9868 5.36316 12.7326 
120 1 12.7322 7.10704 12.7325 
124 1 12.7324 5.36342 10.9872 
3 1 14.9905 14.9841 3.11498 
12 1 12.5228 12.4859 5.63695 
19 1 14.1961 14.08 4.13317 
28 1 13.5812 13.3957 4.8908 
35 1 17.6796 14.6449 3.45162 
45 1 14.6449 17.6769 3.45114 
55 1 14.6429 14.6439 0.419356 
60 1 9.81351 12.8268 5.27358 
70 1 12.8292 9.79816 5.26205 
80 1 12.8326 12.8347 8.31999 
83 1 16.4902 14.7549 3.34139 
93 1 14.7507 16.4884 3.34689 
103 1 14.7463 14.7455 1.60876 
108 1 11.0016 12.7288 5.38163 
118 1 12.7369 10.989 5.37996 
128 1 12.7273 12.7112 7.12733 
129 2 12.0024 13.4524 3.66308 
130 3 12.1741 13.4816 2.7598 
2 1 14.9905 14.9905 14.9864 
9 1 12.4871 12.4872 12.4909 
18 1 14.0841 14.0838 14.0819 
25 1 13.3952 13.3952 13.3939 
34 1 17.6806 14.6443 14.6434 
42 1 14.6441 17.6806 14.6431 
50 1 14.6429 14.6433 17.6787 
57 1 9.7952 12.8329 12.8322 
65 1 12.8332 9.79507 12.8327 
73 1 12.836 12.8377 9.8069 
82 1 16.4904 14.7443 14.7431 
90 1 14.7441 16.4903 14.7429 
98 1 14.7441 14.7441 16.4893 
105 1 10.9854 12.7326 12.7327 
113 1 12.7331 10.9852 12.7333 
121 1 12.7319 12.7315 10.9985 
ITEM: TIMESTEP
60
ITEM: NUMBER OF ATOMS
130
ITEM: BOX BOUNDS pp pp pp
0.0000000000000000e+00 1.8762000000000000e+01
0.0000000000000000e+00 1.8762000000000000e+01
0.0000000000000000e+00 1.8760999999999999e+01
ITEM: ATOMS id type x y z 
1 1 3.10703 3.10711 3.10722 
10 1 5.60813 5.60828 5.60811 
17 1 4.01314 4.01344 4.01339 
26 1 4.70168 4.70186 4.70233 
33 1 0.416271 3.45077 3.45112 
41 1 3.45063 0.416373 3.45154 
49 1 3.45101 3.45122 0.416661 
58 1 8.29858 5.26379 5.26372 
66 1 5.26419 8.29931 5.26381 
74 1 5.26379 5.26385 8.29843 
81 1 1.60646 3.3509 3.3513 
89 1 3.35081 1.60652 3.35158 
97 1 3.35123 3.35139 1.60695 
106 1 7.10843 5.36357 5.36374 
114 1 5.36391 7.10912 5.36356 
122 1 5.36379 5.36369 7.10821 
4 1 3.10684 3.10674 14.9887 
11 1 5.60791 5.60802 12.4878 
20 1 4.01292 4.01311 14.0824 
27 1 4.70169 4.70169 13.3939 
36 1 0.416431 3.45094 14.6444 
46 1 3.45096 0.416421 14.6444 
56 1 3.45098 3.45095 17.6792 
59 1 8.29822 5.26399 12.8324 
69 1 5.26411 8.2985 12.8319 
79 1 5.26366 5.26408 9.79706 
84 1 1.60669 3.35105 14.7444 
94 1 3.35109 1.60671 14.7445 
104 1 3.35112 3.35096 16.4889 
107 1 7.10793 5.36388 12.7323 
117 1 5.36394 7.10825 12.7319 
127 1 5.36357 5.36393 10.9873 
6 1 3.10773 14.989 3.10685 
13 1 5.61163 12.4872 5.6085 
22 1 4.01498 14.0817 4.01409 
29 1 4.70254 13.3933 4.70346 
38 1 0.416161 14.6442 3.45291 
48 1 3.45113 17.6793 3.45151 
52 1 3.45113 14.6445 0.416645 
61 1 8.30818 12.832 5.2644 
71 1 5.26404 9.79847 5.26435 
75 1 5.26402 12.8318 8.29709 
86 1 1.60633 14.7446 3.35198 
96 1 3.35192 16.4892 3.35124 
100 1 3.35186 14.7447 1.60685 
109 1 7.11962 12.733 5.3623 
119 1 5.36414 10.9887 5.36458 
123 1 5.36429 12.7315 7.10682 
7 1 3.10715 14.9896 14.9879 
16 1 5.60723 12.4875 12.4874 
23 1 4.01308 14.0828 14.0823 
32 1 4.70132 13.3938 13.3936 
39 1 0.416856 14.6449 14.6439 
43 1 3.45097 17.6801 14.6438 
53 1 3.4507 14.6445 17.6787 
64 1 8.29671 12.8323 12.8326 
68 1 5.26412 9.79699 12.8321 
78 1 5.26378 12.8322 9.79611 
87 1 1.60709 14.745 14.7439 
91 1 3.35125 16.4898 14.7435 
101 1 3.35092 14.7447 16.4885 
112 1 7.1065 12.732 12.7324 
116 1 5.36372 10.9873 12.7321 
126 1 5.36325 12.7324 10.9863 
8 1 14.9891 3.10646 3.10674 
15 1 12.4878 5.60952 5.60839 
24 1 14.0828 4.01337 4.01328 
31 1 13.3943 4.70225 4.70185 
40 1 17.6794 3.45128 3.4511 
44 1 14.6444 0.414852 3.45221 
54 1 14.6448 3.45132 0.416566 
63 1 9.79778 5.26399 5.26377 
67 1 12.8319 8.30083 5.26077 
77 1 12.8322 5.26398 8.29812 
88 1 16.4891 3.35144 3.35103 
92 1 14.7445 1.60466 3.35187 
102 1 14.7449 3.35131 1.60684 
111 1 10.9878 5.36382 5.36403 
115 1 12.7323 7.11042 5.36333 
125 1 12.732 5.36376 7.10804 
5 1 14.9895 3.1071 14.9883 
14 1 12.4872 5.60701 12.4879 
21 1 14.083 4.01304 14.0824 
30 1 13.3938 4.70133 13.3939 
37 1 17.68 3.45084 14.644 
47 1 14.6448 0.416748 14.6436 
51 1 14.6448 3.45114 17.6789 
62 1 9.79654 5.26381 12.8323 
72 1 12.8324 8.29663 12.8325 
76 1 12.8323 5.26406 9.79707 
85 1 16.4897 3.35101 14.7438 
95 1 14.7449 1.60696 14.7438 
99 1 14.7447 3.35118 16.4887 
110 1 10.9869 5.36335 12.7324 
120 1 12.7319 7.10643 12.7323 
124 1 12.7322 5.36357 10.9873 
3 1 14.9931 14.9867 3.11378 
12 1 12.5181 12.4833 5.64001 
19 1 14.2009 14.0813 4.13488 
28 1 13.5827 13.3965 4.88905 
35 1 17.6814 14.6459 3.45042 
45 1 14.6456 17.6778 3.45028 
55 1 14.6436 14.6445 0.419031 
60 1 9.81432 12.8261 5.27441 
70 1 12.8297 9.79652 5.26346 
80 1 12.8328 12.8332 8.32163 
83 1 16.4915 14.7549 3.34161 
93 1 14.7503 16.488 3.34789 
103 1 14.7454 14.744 1.60948 
108 1 11.0021 12.7304 5.38068 
118 1 12.7375 10.9878 5.37897 
128 1 12.7275 12.7122 7.12872 
129 2 11.9908 13.4517 3.65641 
130 3 12.1716 13.4822 2.75313 
2 1 14.9907 14.9905 14.9877 
9 1 12.4873 12.4871 12.4913 
18 1 14.0845 14.0846 14.0821 
25 1 13.3955 13.3953 13.3949 
34 1 17.6803 14.6445 14.6437 
42 1 14.6444 17.6802 14.6434 
50 1 14.6434 14.6438 17.6797 
57 1 9.79523 12.8327 12.832 
65 1 12.8331 9.79512 12.8325 
73 1 12.8359 12.8378 9.80843 
82 1 16.4902 14.7447 14.7433 
90 1 14.7446 16.49 14.743 
98 1 14.7443 14.7443 16.4899 
105 1 10.9853 12.7325 12.7328 
113 1 12.7329 10.9852 12.7334 
121 1 12.7317 12.7318 11.0003 
ITEM: TIMESTEP
70
ITEM: NUMBER OF ATOMS
130
ITEM: BOX BOUNDS pp pp pp
0.0000000000000000e+00 1.8762000000000000e+01
0.0000000000000000e+00 1.8762000000000000e+01
0.0000000000000000e+00 1.8760999999999999e+01
ITEM: ATOMS id type x y z 
1 1 3.10702 3.10716 3.10722 
10 1 5.60806 5.6083 5.6081 
17 1 4.01314 4.0133 4.01354 
26 1 4.70173 4.702 4.70218 
33 1 0.416169 3.45063 3.45098 
41 1 3.45048 0.416235 3.4514 
49 1 3.45088 3.45108 0.416638 
58 1 8.29871 5.26394 5.26387 
66 1 5.26436 8.29955 5.26397 
74 1 5.26393 5.26398 8.29845 
81 1 1.60634 3.35083 3.35123 
89 1 3.35074 1.60638 3.35151 
97 1 3.35113 3.35131 1.60693 
106 1 7.10856 5.36367 5.36381 
114 1 5.36399 7.10939 5.36363 
122 1 5.36389 5.3638 7.10823 
4 1 3.10688 3.10682 14.9886 
11 1 5.60783 5.60798 12.4878 
20 1 4.013 4.0131 14.0825 
27 1 4.70168 4.70171 13.3939 
36 1 0.416346 3.45081 14.6445 
46 1 3.45084 0.416361 14.6445 
56 1 3.45085 3.45082 17.6793 
59 1 8.29826 5.26411 12.8322 
69 1 5.26424 8.29856 12.8317 
79 1 5.2638 5.26421 9.797 
84 1 1.6066 3.35097 14.7445 
94 1 3.35101 1.60662 14.7446 
104 1 3.35105 3.35089 16.489 
107 1 7.10798 5.36396 12.7322 
117 1 5.36402 7.10831 12.7318 
127 1 5.36364 5.364 10.9872 
6 1 3.10765 14.9887 3.1072 
13 1 5.61209 12.4874 5.60831 
22 1 4.01475 14.0816 4.01426 
29 1 4.70302 13.3932 4.70341 
38 1 0.416509 14.6443 3.45272 
48 1 3.45102 17.6793 3.4513 
52 1 3.45102 14.6447 0.416653 
61 1 8.30905 12.8315 5.26491 
71 1 5.26416 9.79861 5.26461 
75 1 5.26414 12.8316 8.29693 
86 1 1.60671 14.7447 3.35191 
96 1 3.35179 16.4892 3.35113 
100 1 3.35173 14.7448 1.60686 
109 1 7.12018 12.7329 5.36235 
119 1 5.36443 10.9888 5.36475 
123 1 5.36457 12.7313 7.10674 
7 1 3.10717 14.9895 14.988 