ITEM: TIMESTEP
0
ITEM: NUMBER OF ATOMS
49
ITEM: BOX BOUNDS pp pp pp
0.0000000000000000e+00 1.1000000000000000e+01
0.0000000000000000e+00 1.1002000000000001e+01
0.0000000000000000e+00 1.1000000000000000e+01
ITEM: ATOMS id type x y z 
10 1 4.603 4.603 4.603 
11 1 3.085 3.085 3.085 
12 1 3.796 3.796 3.796 
46 1 0.726 0.725 0.725 
47 1 2.26 2.259 2.26 
48 1 1.551 1.55 1.55 
49 2 1.135 1.236 2.804 
19 1 4.546 4.545 6.226 
20 1 3.013 3.013 7.764 
21 1 3.721 3.721 7.053 
31 1 0.668 0.667 10.103 
32 1 2.187 2.187 8.589 
33 1 1.476 1.475 9.298 
16 1 4.546 6.225 4.546 
17 1 3.013 7.765 3.013 
18 1 3.721 7.053 3.722 
25 1 0.668 10.103 0.668 
26 1 2.188 8.589 2.188 
27 1 1.476 9.298 1.476 
4 1 4.608 6.169 6.169 
5 1 3.086 7.684 7.684 
6 1 3.799 6.974 6.974 
37 1 0.729 10.046 10.046 
38 1 2.259 8.509 8.508 
39 1 1.552 9.219 9.219 
13 1 6.225 4.546 4.546 
14 1 7.764 3.013 3.013 
15 1 7.053 3.721 3.722 
28 1 10.102 0.667 0.668 
29 1 8.589 2.187 2.188 
30 1 9.298 1.475 1.476 
1 1 6.168 4.608 6.169 
2 1 7.684 3.086 7.684 
3 1 6.974 3.799 6.974 
40 1 10.045 0.728 10.046 
41 1 8.508 2.259 8.508 
42 1 9.218 1.551 9.218 
7 1 6.169 6.169 4.608 
8 1 7.684 7.684 3.086 
9 1 6.974 6.974 3.799 
43 1 10.046 10.047 0.729 
44 1 8.508 8.509 2.259 
45 1 9.219 9.219 1.552 
22 1 6.229 6.229 6.229 
23 1 7.764 7.765 7.765 
24 1 7.055 7.056 7.055 
34 1 10.108 10.108 10.107 
35 1 8.59 8.59 8.59 
36 1 9.301 9.301 9.3 
ITEM: TIMESTEP
10
ITEM: NUMBER OF ATOMS
49
ITEM: BOX BOUNDS pp pp pp
0.0000000000000000e+00 1.1000000000000000e+01
0.0000000000000000e+00 1.1002000000000001e+01
0.0000000000000000e+00 1.1000000000000000e+01
ITEM: ATOMS id type x y z 
10 1 4.59606 4.59718 4.59975 
11 1 3.10886 3.10499 3.06722 
12 1 3.81643 3.81606 3.8033 
46 1 0.687311 0.685679 0.637724 
47 1 2.25616 2.26451 2.41287 
48 1 1.53755 1.53332 1.48569 
49 2 1.18507 1.28575 2.85342 
19 1 4.53754 4.53744 6.24352 
20 1 3.00332 3.0033 7.77189 
21 1 3.708 3.70788 7.06894 
31 1 0.679537 0.678675 10.0704 
32 1 2.199 2.2 8.57328 
33 1 1.49016 1.48756 9.29183 
16 1 4.53817 6.24231 4.53816 
17 1 3.00222 7.77379 3.0021 
18 1 3.71021 7.06721 3.71118 
25 1 0.676947 10.0781 0.680988 
26 1 2.19982 8.57756 2.19932 
27 1 1.48626 9.28882 1.48813 
4 1 4.60143 6.17639 6.17456 
5 1 3.07945 7.6905 7.69064 
6 1 3.79344 6.97959 6.97897 
37 1 0.734494 10.0226 10.0273 
38 1 2.27234 8.49814 8.49713 
39 1 1.56172 9.2048 9.20515 
13 1 6.24253 4.53805 4.53788 
14 1 7.77288 3.00247 3.00278 
15 1 7.06828 3.70871 3.70916 
28 1 10.076 0.674401 0.680199 
29 1 8.57487 2.19847 2.19894 
30 1 9.2919 1.48753 1.49005 
1 1 6.17632 4.60122 6.17536 
2 1 7.69053 3.07954 7.69058 
3 1 6.97935 3.79335 6.9791 
40 1 10.0218 0.733148 10.027 
41 1 8.49792 2.27164 8.49702 
42 1 9.20351 1.56096 9.20536 
7 1 6.17463 6.17527 4.60111 
8 1 7.69059 7.6907 3.07939 
9 1 6.97956 6.97949 3.79311 
43 1 10.0292 10.0301 0.735724 
44 1 8.49799 8.49855 2.27127 
45 1 9.2056 9.20629 1.56172 
22 1 6.23773 6.23805 6.23752 
23 1 7.77445 7.77546 7.77501 
24 1 7.06676 7.06762 7.06743 
34 1 10.0974 10.0981 10.096 
35 1 8.58167 8.58182 8.58171 
36 1 9.29409 9.29397 9.29319 
ITEM: TIMESTEP
20
ITEM: NUMBER OF ATOMS
49
ITEM: BOX BOUNDS pp pp pp
0.0000000000000000e+00 1.1000000000000000e+01
0.0000000000000000e+00 1.1002000000000001e+01
0.0000000000000000e+00 1.1000000000000000e+01
ITEM: ATOMS id type x y z 
10 1 4.61015 4.61148 4.61605 
11 1 3.13769 3.13213 3.05721 
12 1 3.83116 3.82772 3.79125 
46 1 0.70336 0.701714 0.633626 
47 1 2.22084 2.23515 2.47741 
48 1 1.54513 1.53845 1.46171 
49 2 1.18869 1.29135 2.89324 
19 1 4.53987 4.54011 6.25125 
20 1 3.00423 3.00461 7.76865 
21 1 3.7142 3.71428 7.06769 
31 1 0.671148 0.668408 10.0357 
32 1 2.20457 2.20348 8.58392 
33 1 1.48333 1.48351 9.26691 
16 1 4.54024 6.25014 4.54063 
17 1 3.00329 7.7712 3.00431 
18 1 3.71409 7.06828 3.71227 
25 1 0.668146 10.0527 0.673185 
26 1 2.20099 8.58476 2.20205 
27 1 1.48322 9.27609 1.48391 
4 1 4.60137 6.1838 6.17873 
5 1 3.08333 7.68929 7.68698 
6 1 3.79231 6.97732 6.98134 
37 1 0.727333 10.0139 10.0237 
38 1 2.27567 8.49808 8.4955 
39 1 1.55969 9.19843 9.20193 
13 1 6.25017 4.54035 4.54029 
14 1 7.77045 3.00371 3.00361 
15 1 7.06785 3.71275 3.71336 
28 1 10.0533 0.667456 0.673806 
29 1 8.58477 2.201 2.20198 
30 1 9.27484 1.4815 1.48472 
1 1 6.18213 4.60072 6.18024 
2 1 7.6867 3.08297 7.68903 
3 1 6.98268 3.79298 6.9768 
40 1 10.0132 0.726023 10.0233 
41 1 8.49734 2.27485 8.49595 
42 1 9.19762 1.55888 9.20226 
7 1 6.18038 6.17908 4.59919 
8 1 7.68818 7.68643 3.08181 
9 1 6.97858 6.98284 3.79436 
43 1 10.0262 10.0279 0.732471 
44 1 8.49617 8.49729 2.27144 
45 1 9.20577 9.20435 1.56396 
22 1 6.23998 6.23947 6.23883 
23 1 7.77341 7.77337 7.77365 
24 1 7.06453 7.06768 7.06662 
34 1 10.0925 10.0939 10.0906 
35 1 8.58188 8.58302 8.58456 
36 1 9.29435 9.29208 9.28791 
ITEM: TIMESTEP
30
ITEM: NUMBER OF ATOMS
49
ITEM: BOX BOUNDS pp pp pp
0.0000000000000000e+00 1.1000000000000000e+01
0.0000000000000000e+00 1.1002000000000001e+01
0.0000000000000000e+00 1.1000000000000000e+01
ITEM: ATOMS id type x y z 
10 1 4.61654 4.61819 4.61864 
11 1 3.15097 3.14454 3.04611 
12 1 3.84138 3.83594 3.78602 
46 1 0.713812 0.711367 0.624811 
47 1 2.21243 2.22937 2.51622 
48 1 1.5507 1.54425 1.47652 
49 2 1.18629 1.29093 2.92735 
19 1 4.54264 4.54253 6.25347 
20 1 3.0044 3.00478 7.77 
21 1 3.71493 3.71494 7.06882 
31 1 0.659876 0.657946 10.015 
32 1 2.2048 2.20402 8.58697 
33 1 1.47862 1.4782 9.25762 
16 1 4.542 6.25345 4.54172 
17 1 3.00252 7.77292 3.0026 
18 1 3.71283 7.07197 3.71281 
25 1 0.660004 10.047 0.664229 
26 1 2.19861 8.59014 2.19897 
27 1 1.47672 9.27339 1.47945 
4 1 4.60188 6.18442 6.18002 
5 1 3.08404 7.68653 7.68658 
6 1 3.79571 6.98064 6.97971 
37 1 0.726987 10.0056 10.0199 
38 1 2.27868 8.49493 8.49164 
39 1 1.56163 9.19296 9.19896 
13 1 6.25371 4.54208 4.54198 
14 1 7.77242 3.00216 3.00254 
15 1 7.07116 3.71255 3.71221 
28 1 10.0465 0.658981 0.664537 
29 1 8.58948 2.19775 2.19912 
30 1 9.27367 1.47643 1.47987 
1 1 6.18457 4.60192 6.18009 
2 1 7.68687 3.08374 7.68682 
3 1 6.98177 3.79539 6.97919 
40 1 10.0053 0.72541 10.0205 
41 1 8.49423 2.2776 8.49273 
42 1 9.19267 1.56037 9.19914 
7 1 6.18092 6.18112 4.60011 
8 1 7.68679 7.68738 3.08272 
9 1 6.98104 6.98077 3.79429 
43 1 10.0263 10.027 0.736912 
44 1 8.49455 8.49445 2.27393 
45 1 9.20062 9.20155 1.56582 
22 1 6.24214 6.24245 6.24131 
23 1 7.7737 7.77495 7.77506 
24 1 7.06711 7.0675 7.06684 
34 1 10.0902 10.0916 10.089 
35 1 8.58194 8.58164 8.58247 
36 1 9.29034 9.29132 9.28866 
ITEM: TIMESTEP
40
ITEM: NUMBER OF ATOMS
49
ITEM: BOX BOUNDS pp pp pp
0.0000000000000000e+00 1.1000000000000000e+01
0.0000000000000000e+00 1.1002000000000001e+01
0.0000000000000000e+00 1.1000000000000000e+01
ITEM: ATOMS id type x y z 
10 1 4.62695 4.62629 4.61995 
11 1 3.16444 3.15447 3.03186 
12 1 3.84923 3.84586 3.77543 
46 1 0.722786 0.719678 0.615765 
47 1 2.20193 2.22161 2.55434 
48 1 1.53726 1.53305 1.50136 
49 2 1.18207 1.28869 2.96447 
19 1 4.5448 4.54461 6.25432 
20 1 3.00569 3.00625 7.77169 
21 1 3.71578 3.7157 7.0711 
31 1 0.650648 0.648308 10.0077 
32 1 2.20168 2.20107 8.58646 
33 1 1.47428 1.47298 9.25285 
16 1 4.54324 6.25902 4.54167 
17 1 2.99968 7.77719 3.00011 
18 1 3.71119 7.07792 3.71059 
25 1 0.655767 10.058 0.656778 
26 1 2.19101 8.5935 2.1931 
27 1 1.47259 9.27927 1.47345 
4 1 4.60425 6.18393 6.17846 
5 1 3.08776 7.68358 7.68395 
6 1 3.80017 6.97932 6.9759 
37 1 0.723337 9.99833 10.0178 
38 1 2.28191 8.49112 8.4884 
39 1 1.56216 9.18698 9.19524 
13 1 6.25932 4.54342 4.54201 
14 1 7.77669 2.99978 3.00014 
15 1 7.07719 3.71025 3.70975 
28 1 10.0583 0.654347 0.657448 
29 1 8.593 2.19022 2.19335 
30 1 9.27919 1.47192 1.47356 
1 1 6.18455 4.60381 6.17781 
2 1 7.68454 3.08697 7.68334 
3 1 6.97954 3.80044 6.97709 
40 1 9.99829 0.722046 10.0186 
41 1 8.49074 2.28049 8.48931 
42 1 9.18656 1.56122 9.19642 
7 1 6.18028 6.18042 4.6015 
8 1 7.68475 7.68494 3.08536 
9 1 6.97845 6.97885 3.79713 
43 1 10.0267 10.0281 0.741256 
44 1 8.49182 8.4919 2.27525 
45 1 9.1988 9.19946 1.56883 
22 1 6.24588 6.24565 6.24266 
23 1 7.77552 7.77623 7.77626 
24 1 7.06797 7.06889 7.06833 
34 1 10.0868 10.0887 10.0895 
35 1 8.58169 8.58192 8.58195 
36 1 9.28973 9.29027 9.29039 
ITEM: TIMESTEP
50
ITEM: NUMBER OF ATOMS
49
ITEM: BOX BOUNDS pp pp pp
0.0000000000000000e+00 1.1000000000000000e+01
0.0000000000000000e+00 1.1002000000000001e+01
0.0000000000000000e+00 1.1000000000000000e+01
ITEM: ATOMS id type x y z 
10 1 4.62806 4.6277 4.61773 
11 1 3.16546 3.156 3.02871 
12 1 3.85077 3.84573 3.77323 
46 1 0.724642 0.72143 0.615761 
47 1 2.1999 2.2199 2.55981 
48 1 1.53324 1.53003 1.5124 
49 2 1.18066 1.2876 2.97123 
19 1 4.54517 4.54469 6.25272 
20 1 3.00615 3.00643 7.77272 
21 1 3.71609 3.71647 7.07075 
31 1 0.650107 0.64744 10.0077 
32 1 2.20029 2.1998 8.58557 
33 1 1.47331 1.47182 9.25239 
16 1 4.54313 6.25954 4.5408 
17 1 2.99909 7.77842 2.99947 
18 1 3.71035 7.07962 3.70986 
25 1 0.656329 10.062 0.655874 
26 1 2.18947 8.59396 2.19136 
27 1 1.47131 9.28102 1.47284 
4 1 4.60504 6.18318 6.17646 
5 1 3.08896 7.68399 7.68289 
6 1 3.80029 6.97759 6.97636 
37 1 0.722332 9.99777 10.0174 
38 1 2.28187 8.49045 8.4887 
39 1 1.5616 9.18669 9.1944 
13 1 6.25903 4.54277 4.54091 
14 1 7.77702 2.9983 2.99902 
15 1 7.0805 3.7111 3.71002 
28 1 10.0623 0.655012 0.656844 
29 1 8.59354 2.18855 2.19135 
30 1 9.28103 1.47063 1.47314 
1 1 6.18324 4.60451 6.17653 
2 1 7.68409 3.08821 7.68309 
3 1 6.97931 3.80053 6.97597 
40 1 9.99787 0.721367 10.0182 
41 1 8.49006 2.28072 8.48951 
42 1 9.18608 1.56044 9.19548 
7 1 6.1796 6.17952 4.60146 
8 1 7.68445 7.68463 3.08585 
9 1 6.97819 6.97853 3.79725 
43 1 10.0276 10.0288 0.742444 
44 1 8.49218 8.49217 2.27529 
45 1 9.1986 9.1995 1.56826 
22 1 6.24576 6.24602 6.24332 
23 1 7.77499 7.77637 7.77723 
24 1 7.06969 7.06929 7.06705 
34 1 10.0866 10.0882 10.0912 
35 1 8.58204 8.58221 8.58215 
36 1 9.28953 9.29032 9.29134 
ITEM: TIMESTEP
60
ITEM: NUMBER OF ATOMS
49
ITEM: BOX BOUNDS pp pp pp
0.0000000000000000e+00 1.1000000000000000e+01
0.0000000000000000e+00 1.1002000000000001e+01
0.0000000000000000e+00 1.1000000000000000e+01
ITEM: ATOMS id type x y z 
10 1 4.62857 4.62881 4.61609 
11 1 3.16592 3.15685 3.02668 
12 1 3.85196 3.84573 3.7715 
46 1 0.726064 0.722861 0.61612 
47 1 2.19967 2.21986 2.56409 
48 1 1.53046 1.5279 1.51896 
49 2 1.17885 1.28612 2.97708 
19 1 4.54494 4.54456 6.25152 
20 1 3.00644 3.00685 7.77313 
21 1 3.71625 3.71635 7.07107 
31 1 0.649633 0.646846 10.0076 
32 1 2.19982 2.19922 8.58497 
33 1 1.47244 1.47117 9.25124 
16 1 4.54315 6.26013 4.54033 
17 1 2.99878 7.77954 2.99937 
18 1 3.70992 7.07991 3.70905 
25 1 0.656664 10.0643 0.655382 
26 1 2.18823 8.59419 2.19051 
27 1 1.47107 9.28226 1.47205 
4 1 4.60507 6.18228 6.1756 
5 1 3.08932 7.68333 7.68278 
6 1 3.80119 6.97821 6.97558 
37 1 0.72179 9.99762 10.0168 
38 1 2.28179 8.49011 8.48858 
39 1 1.56137 9.18614 9.19432 
13 1 6.26037 4.54323 4.54059 
14 1 7.77903 2.99825 2.9989 
15 1 7.07965 3.70976 3.70885 
28 1 10.0645 0.655232 0.656261 
29 1 8.59356 2.18721 2.19047 
30 1 9.28256 1.47061 1.47235 
1 1 6.18282 4.60486 6.17572 
2 1 7.684 3.08886 7.68284 
3 1 6.97897 3.80076 6.97558 
40 1 9.99763 0.720787 10.0178 
41 1 8.48954 2.2805 8.48957 
42 1 9.18602 1.56038 9.19519 
7 1 6.17906 6.17908 4.60147 
8 1 7.68441 7.68447 3.08603 
9 1 6.978 6.97848 3.79732 
43 1 10.0278 10.029 0.742848 
44 1 8.49185 8.492 2.27489 
45 1 9.19905 9.19975 1.56919 
22 1 6.24625 6.24605 6.24272 
23 1 7.77542 7.77632 7.77694 
24 1 7.06914 7.06954 7.06763 
34 1 10.0865 10.0882 10.092 
35 1 8.58229 8.58244 8.58213 
36 1 9.28918 9.29012 9.29224 
ITEM: TIMESTEP
70
ITEM: NUMBER OF ATOMS
49
ITEM: BOX BOUNDS pp pp pp
0.0000000000000000e+00 1.1000000000000000e+01
0.0000000000000000e+00 1.1002000000000001e+01
0.0000000000000000e+00 1.1000000000000000e+01
ITEM: ATOMS id type x y z 
10 1 4.62897 4.62873 4.61576 
11 1 3.16632 3.15673 3.02628 
12 1 3.85168 3.84632 3.77108 
46 1 0.726327 0.723113 0.61616 
47 1 2.19945 2.2197 2.56504 
48 1 1.52976 1.52735 1.52046 
49 2 1.1786 1.28592 2.97822 
19 1 4.5449 4.54454 6.25123 
20 1 3.00652 3.00694 7.77326 
21 1 3.71631 3.71635 7.07104 
31 1 0.649377 0.646639 10.0074 
32 1 2.19947 2.199 8.58447 
33 1 1.4727 1.4712 9.25166 
16 1 4.54311 6.26022 4.54021 
17 1 2.99866 7.77979 2.99933 
18 1 3.70988 7.08001 3.70888 
25 1 0.656701 10.0648 0.65528 
26 1 2.18789 8.59418 2.19037 
27 1 1.47118 9.28262 1.47181 
4 1 4.60517 6.18209 6.17554 
5 1 3.08952 7.68322 7.68285 
6 1 3.80116 6.9783 6.97523 
37 1 0.721677 9.99761 10.0168 
38 1 2.28173 8.49001 8.48861 
39 1 1.56136 9.18609 9.19424 
13 1 6.26047 4.54321 4.54043 
14 1 7.77917 2.99824 2.99889 
15 1 7.07986 3.70959 3.7087 
28 1 10.0652 0.655507 0.656162 
29 1 8.59379 2.18713 2.19028 
30 1 9.2825 1.47022 1.47219 
1 1 6.18265 4.60496 6.17565 
2 1 7.68389 3.08906 7.68292 
3 1 6.97906 3.8007 6.97524 
40 1 9.99769 0.72074 10.0177 
41 1 8.48951 2.28049 8.48956 
42 1 9.18581 1.56031 9.19514 
7 1 6.17895 6.1791 4.60152 
8 1 7.68435 7.68458 3.08615 
9 1 6.97805 6.9782 3.79718 
43 1 10.0279 10.0291 0.742973 
44 1 8.49172 8.49189 2.27489 
45 1 9.1992 9.19986 1.56932 
22 1 6.24635 6.24614 6.24251 
23 1 7.77554 7.77644 7.77679 
24 1 7.06897 7.06936 7.0679 
34 1 10.0864 10.0881 10.0923 
35 1 8.58225 8.58241 8.58229 
36 1 9.28926 9.29021 9.29214 
ITEM: TIMESTEP
80
ITEM: NUMBER OF ATOMS
49
ITEM: BOX BOUNDS pp pp pp
0.0000000000000000e+00 1.1000000000000000e+01
0.0000000000000000e+00 1.1002000000000001e+01
0.0000000000000000e+00 1.1000000000000000e+01
ITEM: ATOMS id type x y z 
10 1 4.63052 4.62989 4.61281 
11 1 3.16781 3.15762 3.02272 
12 1 3.85297 3.84777 3.76726 
46 1 0.728829 0.725655 0.616834 
47 1 2.19776 2.21847 2.57378 
48 1 1.52386 1.52284 1.53426 
49 2 1.17605 1.28388 2.98916 
19 1 4.54459 4.54446 6.24878 
20 1 3.00746 3.0081 7.77436 
21 1 3.71668 3.71609 7.07035 
31 1 0.648584 0.645763 10.0075 
32 1 2.19811 2.19788 8.58265 
33 1 1.47179 1.46997 9.25014 
16 1 4.5429 6.26084 4.53883 
17 1 2.99792 7.78151 2.99879 
18 1 3.70919 7.08156 3.70789 
25 1 0.657388 10.0693 0.654088 
26 1 2.18588 8.59472 2.18872 
27 1 1.47041 9.28462 1.47056 
4 1 4.60551 6.18086 6.17386 
5 1 3.09081 7.68282 7.68241 
6 1 3.80172 6.97795 6.97417 
37 1 0.720684 9.9975 10.0159 
38 1 2.28145 8.48883 8.48852 
39 1 1.56119 9.18565 9.19376 
13 1 6.26131 4.54296 4.53906 
14 1 7.78098 2.9973 2.99829 
15 1 7.08152 3.70901 3.70761 
28 1 10.0698 0.656204 0.655089 
29 1 8.59422 2.18489 2.18855 
30 1 9.2849 1.46971 1.47089 
1 1 6.18154 4.60508 6.17397 
2 1 7.68357 3.09011 7.68235 
3 1 6.97863 3.8015 6.97466 
40 1 9.9978 0.720031 10.017 
41 1 8.4886 2.28021 8.48958 
42 1 9.18519 1.56002 9.19461 
7 1 6.17829 6.17833 4.60137 
8 1 7.68437 7.68442 3.08647 
9 1 6.97767 6.97807 3.79697 
43 1 10.0289 10.0301 0.744358 
44 1 8.49162 8.49187 2.27458 
45 1 9.19961 9.20025 1.57007 
22 1 6.24643 6.24616 6.24193 
23 1 7.77559 7.77644 7.77676 
24 1 7.0691 7.06947 7.06773 
34 1 10.0858 10.0877 10.0944 
35 1 8.58223 8.58262 8.58272 
36 1 9.28924 9.28993 9.29294 
ITEM: TIMESTEP
90
ITEM: NUMBER OF ATOMS
49
ITEM: BOX BOUNDS pp pp pp
0.0000000000000000e+00 1.1000000000000000e+01
0.0000000000000000e+00 1.1002000000000001e+01
0.0000000000000000e+00 1.1000000000000000e+01
ITEM: ATOMS id type x y z 
10 1 4.63058 4.63009 4.61247 
11 1 3.16787 3.15783 3.02235 
12 1 3.8531 3.84753 3.76723 
46 1 0.728985 0.725851 0.616887 
47 1 2.19762 2.21837 2.5744 
48 1 1.52343 1.52252 1.53524 
49 2 1.17588 1.28375 2.98995 
19 1 4.54466 4.54424 6.24846 
20 1 3.00762 3.00792 7.77429 
21 1 3.71654 3.71654 7.07056 
31 1 0.64855 0.645605 10.0074 
32 1 2.19801 2.19767 8.58237 
33 1 1.47174 1.47017 9.25029 
16 1 4.54288 6.26092 4.53875 
17 1 2.99787 7.78167 2.99879 
18 1 3.70913 7.0816 3.70773 
25 1 0.657428 10.0696 0.654015 
26 1 2.18568 8.59468 2.18861 
27 1 1.47049 9.28488 1.47048 
4 1 4.60553 6.18083 6.17372 
5 1 3.09088 7.68285 7.68232 
6 1 3.80177 6.97784 6.9742 
37 1 0.720737 9.99761 10.0159 
38 1 2.28148 8.48892 8.4886 
39 1 1.56102 9.18535 9.19362 
13 1 6.26142 4.54298 4.53896 
14 1 7.78114 2.9973 2.99826 
15 1 7.08156 3.70886 3.70751 
28 1 10.0701 0.656339 0.654998 
29 1 8.59431 2.18484 2.18845 
30 1 9.28494 1.46954 1.47079 
1 1 6.18148 4.60522 6.17395 
2 1 7.68357 3.0903 7.68242 
3 1 6.97858 3.80132 6.97442 
40 1 9.99783 0.719973 10.0169 
41 1 8.4885 2.2802 8.48956 
42 1 9.1852 1.55999 9.19461 
7 1 6.17819 6.17836 4.60132 
8 1 7.68427 7.68447 3.08644 
9 1 6.97782 6.97795 3.79707 
43 1 10.029 10.0302 0.744501 
44 1 8.49163 8.49187 2.27464 
45 1 9.19961 9.20026 1.56999 
22 1 6.24641 6.24614 6.24189 
23 1 7.77557 7.77644 7.77677 
24 1 7.06909 7.06943 7.06764 
34 1 10.0859 10.0877 10.0944 
35 1 8.58235 8.58258 8.58266 
36 1 9.28901 9.28999 9.29316 
ITEM: TIMESTEP
100
ITEM: NUMBER OF ATOMS
49
ITEM: BOX BOUNDS pp pp pp
0.0000000000000000e+00 1.1000000000000000e+01
0.0000000000000000e+00 1.1002000000000001e+01
0.0000000000000000e+00 1.1000000000000000e+01
ITEM: ATOMS id type x y z 
10 1 4.63431 4.63316 4.60224 
11 1 3.1709 3.16004 3.01214 
12 1 3.85661 3.85006 3.75652 
46 1 0.735432 0.733672 0.619544 
47 1 2.19202 2.21407 2.60045 
48 1 1.50505 1.50849 1.57566 
49 2 1.16863 1.278 3.02382 
19 1 4.54366 4.54323 6.24029 
20 1 3.01072 3.01086 7.77679 
21 1 3.71731 3.71687 7.06849 
31 1 0.647441 0.643664 10.0079 
32 1 2.19432 2.19408 8.57515 
33 1 1.46981 1.46842 9.24695 
16 1 4.54193 6.26147 4.53423 
17 1 2.99469 7.78496 2.99682 
18 1 3.70932 7.08858 3.70603 
25 1 0.659526 10.0812 0.651114 
26 1 2.17844 8.59484 2.1851 
27 1 1.47244 9.29246 1.46553 
4 1 4.60628 6.17777 6.1686 
5 1 3.0942 7.68198 7.68093 
6 1 3.8033 6.97677 6.97172 
37 1 0.718499 9.99876 10.0136 
38 1 2.2803 8.48596 8.48881 
39 1 1.56015 9.18372 9.19251 
13 1 6.264 4.54238 4.53477 
14 1 7.78621 2.99488 2.99675 
15 1 7.08591 3.70718 3.70444 
28 1 10.0833 0.659809 0.651301 
29 1 8.59608 2.17964 2.18387 
30 1 9.29059 1.46742 1.46751 
1 1 6.17845 4.60565 6.1691 
2 1 7.6827 3.09315 7.6813 
3 1 6.97796 3.80303 6.97246 
40 1 9.99937 0.718051 10.0148 
41 1 8.48569 2.27906 8.48988 
42 1 9.18391 1.55894 9.19335 
7 1 6.17688 6.17698 4.60018 
8 1 7.68406 7.68411 3.08706 
9 1 6.97696 6.97738 3.7969 
43 1 10.0321 10.0332 0.748355 
44 1 8.49197 8.49233 2.27385 
45 1 9.20107 9.20164 1.57168 
22 1 6.24644 6.2446 6.23927 
23 1 7.7763 7.775 7.77565 
24 1 7.06666 7.07064 7.06697 
34 1 10.0851 10.0865 10.1004 
35 1 8.58246 8.58201 8.58426 
36 1 9.28745 9.29039 9.29492 
ITEM: TIMESTEP
110
ITEM: NUMBER OF ATOMS
49
ITEM: BOX BOUNDS pp pp pp
0.0000000000000000e+00 1.1000000000000000e+01
0.0000000000000000e+00 1.1002000000000001e+01
0.0000000000000000e+00 1.1000000000000000e+01
ITEM: ATOMS id type x y z 
10 1 4.6347 4.63311 4.60138 
11 1 3.17068 3.15976 3.01134 
12 1 3.85652 3.84991 3.75559 
46 1 0.736206 0.734103 0.620515 
47 1 2.19139 2.21352 2.60251 
48 1 1.50337 1.50726 1.57919 
49 2 1.16798 1.27747 3.02727 
19 1 4.54358 4.54305 6.23928 
20 1 3.01105 3.01118 7.7767 
21 1 3.71749 3.7171 7.06804 
31 1 0.647985 0.644276 10.0083 
32 1 2.19412 2.19405 8.57451 
33 1 1.46991 1.46816 9.2461 
16 1 4.54264 6.26282 4.53421 
17 1 2.9952 7.78667 2.99722 
18 1 3.70777 7.08661 3.70486 
25 1 0.66065 10.0828 0.650204 
26 1 2.17974 8.59567 2.18412 
27 1 1.46961 9.29132 1.46668 
4 1 4.60587 6.17741 6.16829 
5 1 3.09448 7.68207 7.68095 
6 1 3.80313 6.97654 6.97159 
37 1 0.718631 9.99902 10.0136 
38 1 2.28024 8.48561 8.48893 
39 1 1.55998 9.18363 9.19216 
13 1 6.26415 4.54245 4.53437 
14 1 7.78654 2.99486 2.99677 
15 1 7.08613 3.70695 3.70417 
28 1 10.0836 0.659284 0.651361 
29 1 8.59582 2.17905 2.18377 
30 1 9.29154 1.46821 1.46719 
1 1 6.17835 4.60534 6.1687 
2 1 7.68292 3.09368 7.68144 
3 1 6.97737 3.80241 6.9721 
40 1 9.99963 0.718103 10.0145 
41 1 8.48539 2.27888 8.48995 
42 1 9.18387 1.55896 9.19313 
7 1 6.17677 6.17672 4.59987 
8 1 7.68425 7.68447 3.08685 
9 1 6.9774 6.97749 3.79633 
43 1 10.0328 10.0337 0.74833 
44 1 8.49227 8.49265 2.2737 
45 1 9.20146 9.20203 1.57156 
22 1 6.2453 6.24533 6.23941 
23 1 7.77511 7.77578 7.7758 
24 1 7.06887 7.06923 7.0665 
34 1 10.0847 10.0868 10.1007 
35 1 8.58214 8.58257 8.58387 
36 1 9.28768 9.28893 9.29614 
ITEM: TIMESTEP
120
ITEM: NUMBER OF ATOMS
49
ITEM: BOX BOUNDS pp pp pp
0.0000000000000000e+00 1.1000000000000000e+01
0.0000000000000000e+00 1.1002000000000001e+01
0.0000000000000000e+00 1.1000000000000000e+01
ITEM: ATOMS id type x y z 
10 1 4.63477 4.63319 4.60113 
11 1 3.17075 3.15979 3.01112 
12 1 3.85636 3.8498 3.75571 
46 1 0.73628 0.734152 0.620598 
47 1 2.19129 2.21344 2.6028 
48 1 1.5031 1.50706 1.57965 
49 2 1.1679 1.2774 3.02773 
19 1 4.5436 4.54299 6.23912 
20 1 3.01112 3.01118 7.77668 
21 1 3.71745 3.71719 7.068 
31 1 0.648008 0.644322 10.0083 
32 1 2.1941 2.19403 8.57439 
33 1 1.46992 1.46815 9.24604 
16 1 4.54272 6.26296 4.53419 
17 1 2.99532 7.78683 2.99732 
18 1 3.70757 7.08637 3.70469 
25 1 0.660805 10.0829 0.650149 
26 1 2.1798 8.59577 2.18404 
27 1 1.4694 9.29125 1.46671 
4 1 4.60584 6.17738 6.16821 
5 1 3.09449 7.68207 7.68094 
6 1 3.80315 6.97654 6.97159 
37 1 0.71863 9.99909 10.0136 
38 1 2.28019 8.48558 8.48895 
39 1 1.55998 9.18364 9.19216 
13 1 6.26418 4.54246 4.53431 
14 1 7.78663 2.99482 2.99672 
15 1 7.08616 3.70691 3.70415 
28 1 10.0837 0.659305 0.65133 
29 1 8.59582 2.17897 2.18376 
30 1 9.29164 1.46828 1.46711 
1 1 6.1783 4.6053 6.16866 
2 1 7.68289 3.09368 7.68143 
3 1 6.9774 3.80247 6.9721 
40 1 9.99971 0.71809 10.0145 
41 1 8.48538 2.27883 8.48996 
42 1 9.18387 1.55895 9.19315 
7 1 6.17676 6.17675 4.59986 
8 1 7.68428 7.68449 3.08683 
9 1 6.97741 6.97753 3.79628 
43 1 10.0329 10.0338 0.748352 
44 1 8.49232 8.49269 2.27369 
45 1 9.20148 9.20205 1.57156 
22 1 6.24529 6.2453 6.23939 
23 1 7.7751 7.77577 7.77578 
24 1 7.06883 7.06918 7.06645 
34 1 10.0846 10.0868 10.1007 
35 1 8.58213 8.58256 8.5839 
36 1 9.28766 9.28892 9.29616 
ITEM: TIMESTEP
124
ITEM: NUMBER OF ATOMS
49
ITEM: BOX BOUNDS pp pp pp
0.0000000000000000e+00 1.1000000000000000e+01
0.0000000000000000e+00 1.1002000000000001e+01
0.0000000000000000e+00 1.1000000000000000e+01
ITEM: ATOMS id type x y z 
10 1 4.63477 4.6332 4.60112 
11 1 3.17075 3.15979 3.01111 
12 1 3.85635 3.84979 3.75571 
46 1 0.736284 0.734155 0.620602 
47 1 2.19129 2.21344 2.60282 
48 1 1.50309 1.50705 1.57967 
49 2 1.16789 1.2774 3.02776 
19 1 4.5436 4.54299 6.23911 
20 1 3.01112 3.01118 7.77667 
21 1 3.71745 3.7172 7.068 
31 1 0.648011 0.644323 10.0083 
32 1 2.1941 2.19403 8.57438 
33 1 1.46991 1.46815 9.24604 
16 1 4.54272 6.26297 4.53419 
17 1 2.99532 7.78684 2.99733 
18 1 3.70757 7.08636 3.70468 
25 1 0.660798 10.0829 0.650152 
26 1 2.17979 8.59577 2.18405 
27 1 1.46942 9.29126 1.4667 
4 1 4.60583 6.17739 6.1682 
5 1 3.09449 7.68208 7.68093 
6 1 3.80316 6.97652 6.97161 
37 1 0.718633 9.99909 10.0136 
38 1 2.2802 8.48558 8.48895 
39 1 1.55997 9.18364 9.19215 
13 1 6.26418 4.54247 4.5343 
14 1 7.78664 2.99482 2.99671 
15 1 7.08615 3.7069 3.70416 
28 1 10.0837 0.659307 0.651328 
29 1 8.59582 2.17897 2.18376 
30 1 9.29164 1.46829 1.46711 
1 1 6.1783 4.6053 6.16866 
2 1 7.68289 3.09368 7.68143 
3 1 6.9774 3.80247 6.9721 
40 1 9.99972 0.718095 10.0145 
41 1 8.48538 2.27883 8.48997 
42 1 9.18387 1.55894 9.19314 
7 1 6.17676 6.17676 4.59986 
8 1 7.68428 7.68449 3.08683 
9 1 6.97742 6.97753 3.79628 
43 1 10.0329 10.0338 0.748352 
44 1 8.49232 8.49269 2.27369 
45 1 9.20147 9.20206 1.57156 
22 1 6.2453 6.2453 6.23938 
23 1 7.7751 7.77576 7.77577 
24 1 7.06882 7.06918 7.06645 
34 1 10.0846 10.0868 10.1007 
35 1 8.58213 8.58256 8.5839 
36 1 9.28766 9.28892 9.29617 
ITEM: TIMESTEP
130
ITEM: NUMBER OF ATOMS
49
ITEM: BOX BOUNDS pp pp pp
-3.2187692085958331e-03 1.1003218769208596e+01
-3.2125493296144255e-03 1.1005212549329615e+01
-3.3000000000000000e-03 1.1003300000000003e+01
ITEM: ATOMS id type x y z 
10 1 4.63427 4.63271 4.60059 
11 1 3.16939 3.15843 3.00962 
12 1 3.85539 3.84882 3.75466 
46 1 0.733485 0.73136 0.617667 
47 1 2.18935 2.21152 2.60109 
48 1 1.50073 1.5047 1.57732 
49 2 1.16536 1.27493 3.02628 
19 1 4.54305 4.54244 6.23954 
20 1 3.00967 3.00973 7.77804 
21 1 3.71642 3.71616 7.06893 
31 1 0.645159 0.641476 10.0111 
32 1 2.19216 2.19209 8.57623 
33 1 1.46756 1.4658 9.24828 
16 1 4.54217 6.26341 4.53362 
17 1 2.99386 7.78817 2.99583 
18 1 3.70652 7.08727 3.70361 
25 1 0.657956 10.0856 0.647226 
26 1 2.17784 8.59758 2.18205 
27 1 1.46706 9.29347 1.46429 
4 1 4.60532 6.17777 6.16859 
5 1 3.09308 7.68334 7.68223 
6 1 3.80216 6.97739 6.9725 
37 1 0.715825 10.0017 10.0163 
38 1 2.27831 8.48733 8.49075 
39 1 1.55765 9.1858 9.19437 
13 1 6.26462 4.54192 4.53373 
14 1 7.78797 2.99336 2.99521 
15 1 7.08707 3.70586 3.70309 
28 1 10.0864 0.656464 0.648406 
29 1 8.59764 2.17702 2.18177 
30 1 9.29385 1.46594 1.46469 
1 1 6.17868 4.60479 6.16905 
2 1 7.68417 3.09228 7.68273 
3 1 6.97826 3.80147 6.97299 
40 1 10.0024 0.715291 10.0172 
41 1 8.48713 2.27694 8.49177 
42 1 9.18603 1.55663 9.19537 
7 1 6.17714 6.17714 4.59933 
8 1 7.68556 7.68577 3.08539 
9 1 6.97828 6.97839 3.79525 
43 1 10.0356 10.0364 0.745491 
44 1 8.49408 8.49444 2.27175 
45 1 9.20365 9.20423 1.5692 
22 1 6.24572 6.24572 6.23981 
23 1 7.77643 7.77709 7.77713 
24 1 7.06973 7.07009 7.06738 
34 1 10.0873 10.0895 10.1035 
35 1 8.58393 8.58437 8.58576 
36 1 9.28988 9.29113 9.29844 
ITEM: TIMESTEP
140
ITEM: NUMBER OF ATOMS
49
ITEM: BOX BOUNDS pp pp pp
-6.4950714653680278e-03 1.1006495071465372e+01
-6.3299770588275128e-03 1.1008329977058827e+01
-6.6641769231819883e-03 1.1006664176923188e+01
ITEM: ATOMS id type x y z 
10 1 4.63468 4.63308 4.60093 
11 1 3.16825 3.15729 3.00857 
12 1 3.85417 3.84774 3.75296 
46 1 0.729798 0.727808 0.614085 
47 1 2.18721 2.2095 2.59953 
48 1 1.49723 1.50137 1.57428 
49 2 1.16288 1.27262 3.02482 
19 1 4.54326 4.54264 6.23918 
20 1 3.0087 3.00881 7.77892 
21 1 3.7158 3.71563 7.06944 
31 1 0.641397 0.637849 10.015 
32 1 2.18987 2.1899 8.57826 
33 1 1.46554 1.46389 9.25026 
16 1 4.54239 6.26318 4.53376 
17 1 2.99292 7.78914 2.99483 
18 1 3.70577 7.08752 3.70283 
25 1 0.654068 10.0891 0.643218 
26 1 2.17554 8.59958 2.17971 
27 1 1.46501 9.29541 1.46212 
4 1 4.6057 6.17717 6.16802 
5 1 3.09193 7.68427 7.6833 
6 1 3.80083 6.97861 6.97371 
37 1 0.712275 10.0052 10.0199 
38 1 2.27585 8.48949 8.49307 
39 1 1.55484 9.18833 9.19711 
13 1 6.26432 4.54212 4.53385 
14 1 7.78891 2.99242 2.99415 
15 1 7.08758 3.70526 3.70242 
28 1 10.0901 0.652759 0.644373 
29 1 8.59976 2.17487 2.17941 
30 1 9.29585 1.46391 1.46257 
1 1 6.1781 4.60521 6.16849 
2 1 7.68515 3.0912 7.6838 
3 1 6.97953 3.80019 6.97419 
40 1 10.0059 0.711871 10.0207 
41 1 8.48938 2.27459 8.49409 
42 1 9.18867 1.55392 9.19808 
7 1 6.1766 6.17658 4.59968 
8 1 7.68658 7.68672 3.08413 
9 1 6.97955 6.97963 3.79391 
43 1 10.0391 10.0398 0.741813 
44 1 8.49638 8.49667 2.26927 
45 1 9.20635 9.20678 1.56636 
22 1 6.24539 6.24536 6.23949 
23 1 7.77726 7.77787 7.77801 
24 1 7.07023 7.07051 7.06786 
34 1 10.0911 10.0931 10.1072 
35 1 8.58606 8.5864 8.5879 
36 1 9.29174 9.29289 9.30052 
ITEM: TIMESTEP
150
ITEM: NUMBER OF ATOMS
49
ITEM: BOX BOUNDS pp pp pp
-9.7985794605559961e-03 1.1009798579460561e+01
-9.5661002144535497e-03 1.1011566100214452e+01
-1.1163328205705574e-02 1.1011163328205717e+01
ITEM: ATOMS id type x y z 
10 1 4.63517 4.63368 4.60095 
11 1 3.16704 3.15622 3.00684 
12 1 3.85296 3.84634 3.75129 
46 1 0.726094 0.724159 0.609548 
47 1 2.18485 2.20722 2.59731 
48 1 1.4938 1.49807 1.57093 
49 2 1.16054 1.27037 3.02273 
19 1 4.54357 4.54297 6.23884 
20 1 3.00803 3.00822 7.77995 
21 1 3.715 3.71478 7.07044 
31 1 0.637571 0.634078 10.0197 
32 1 2.1876 2.18767 8.58086 
33 1 1.46348 1.46188 9.253 
16 1 4.54271 6.26287 4.53381 
17 1 2.99229 7.78985 2.99367 
18 1 3.70478 7.08802 3.70144 
25 1 0.650115 10.0926 0.638167 
26 1 2.17325 8.6017 2.17672 
27 1 1.4629 9.29734 1.45909 
4 1 4.60619 6.17656 6.16747 
5 1 3.09078 7.68536 7.68481 
6 1 3.79942 6.9797 6.97529 
37 1 0.708621 10.0088 10.0244 
38 1 2.27304 8.49204 8.49633 
39 1 1.55225 9.19066 9.20035 
13 1 6.2639 4.54239 4.53388 
14 1 7.78952 2.99173 2.99291 
15 1 7.08839 3.70443 3.70111 
28 1 10.0936 0.648871 0.639313 
29 1 8.60191 2.17264 2.17642 
30 1 9.29781 1.46183 1.45954 
1 1 6.1775 4.6057 6.16794 
2 1 7.68626 3.09007 7.6853 
3 1 6.98064 3.79882 6.97578 
40 1 10.0096 0.708268 10.0253 
41 1 8.49196 2.27183 8.49738 
42 1 9.19107 1.55136 9.20128 
7 1 6.17601 6.17599 4.59997 
8 1 7.68769 7.6878 3.08238 
9 1 6.98078 6.98084 3.79211 
43 1 10.0427 10.0433 0.737062 
44 1 8.49906 8.49928 2.26581 
45 1 9.20876 9.20923 1.56294 
22 1 6.24497 6.24488 6.23917 
23 1 7.77781 7.77835 7.77899 
24 1 7.07089 7.07121 7.06894 
34 1 10.0948 10.0968 10.112 
35 1 8.58813 8.58843 8.59071 
36 1 9.29368 9.29479 9.30328 
ITEM: TIMESTEP
160
ITEM: NUMBER OF ATOMS
49
ITEM: BOX BOUNDS pp pp pp
-1.1578573133629096e-02 1.1011578573133638e+01
-1.1323139725974811e-02 1.1013323139725973e+01
-1.4497011009941257e-02 1.1014497011009956e+01
ITEM: ATOMS id type x y z 
10 1 4.6364 4.63448 4.60137 
11 1 3.16674 3.15548 3.00591 
12 1 3.85171 3.84596 3.74975 
46 1 0.723514 0.72159 0.605993 
47 1 2.18313 2.20556 2.59566 
48 1 1.49127 1.49568 1.56882 
49 2 1.15963 1.26944 3.02102 
19 1 4.54458 4.54373 6.23798 
20 1 3.00849 3.00844 7.78017 
21 1 3.71448 3.71473 7.0711 
31 1 0.634761 0.631301 10.0235 
32 1 2.18609 2.18617 8.58259 
33 1 1.46282 1.46122 9.2552 
16 1 4.54361 6.26202 4.53432 
17 1 2.99265 7.78964 2.99329 
18 1 3.70431 7.08813 3.7005 
25 1 0.647289 10.095 0.634023 
26 1 2.17187 8.60334 2.17457 
27 1 1.46188 9.29763 1.45655 
4 1 4.60697 6.17517 6.16661 
5 1 3.09014 7.68544 7.68597 
6 1 3.79878 6.98119 6.97635 
37 1 0.706085 10.0117 10.0283 
38 1 2.27091 8.49413 8.49923 
39 1 1.55052 9.19189 9.20288 
13 1 6.26304 4.54335 4.53438 
14 1 7.78934 2.99214 2.99245 
15 1 7.08852 3.70385 3.7003 
28 1 10.096 0.646129 0.635003 
29 1 8.60346 2.17136 2.17411 
30 1 9.29829 1.46069 1.45733 
1 1 6.17611 4.60653 6.16711 
2 1 7.68635 3.08949 7.68649 
3 1 6.98211 3.79812 6.97679 
40 1 10.0125 0.705704 10.0291 
41 1 8.49409 2.26969 8.50023 
42 1 9.1923 1.54969 9.2039 
7 1 6.17509 6.17508 4.60091 
8 1 7.68827 7.68839 3.08146 
9 1 6.98147 6.9815 3.79005 
43 1 10.0453 10.0461 0.732984 
44 1 8.50105 8.5015 2.26275 