ITEM: TIMESTEP
0
ITEM: NUMBER OF ATOMS
51
ITEM: BOX BOUNDS pp pp pp
0.0000000000000000e+00 1.1000000000000000e+01
0.0000000000000000e+00 1.1002000000000001e+01
0.0000000000000000e+00 1.1000000000000000e+01
ITEM: ATOMS id type x y z 
10 1 4.603 4.603 4.603 
11 1 3.085 3.085 3.085 
12 1 3.796 3.796 3.796 
46 1 0.726 0.725 0.725 
47 1 2.26 2.259 2.26 
48 1 1.551 1.55 1.55 
19 1 4.546 4.545 6.226 
20 1 3.013 3.013 7.764 
21 1 3.721 3.721 7.053 
31 1 0.668 0.667 10.103 
32 1 2.187 2.187 8.589 
33 1 1.476 1.475 9.298 
16 1 4.546 6.225 4.546 
17 1 3.013 7.765 3.013 
18 1 3.721 7.053 3.722 
25 1 0.668 10.103 0.668 
26 1 2.188 8.589 2.188 
27 1 1.476 9.298 1.476 
4 1 4.608 6.169 6.169 
5 1 3.086 7.684 7.684 
6 1 3.799 6.974 6.974 
37 1 0.729 10.046 10.046 
38 1 2.259 8.509 8.508 
39 1 1.552 9.219 9.219 
13 1 6.225 4.546 4.546 
14 1 7.764 3.013 3.013 
15 1 7.053 3.721 3.722 
28 1 10.102 0.667 0.668 
29 1 8.589 2.187 2.188 
30 1 9.298 1.475 1.476 
1 1 6.168 4.608 6.169 
2 1 7.684 3.086 7.684 
3 1 6.974 3.799 6.974 
40 1 10.045 0.728 10.046 
41 1 8.508 2.259 8.508 
42 1 9.218 1.551 9.218 
7 1 6.169 6.169 4.608 
8 1 7.684 7.684 3.086 
9 1 6.974 6.974 3.799 
43 1 10.046 10.047 0.729 
44 1 8.508 8.509 2.259 
45 1 9.219 9.219 1.552 
22 1 6.229 6.229 6.229 
23 1 7.764 7.765 7.765 
24 1 7.055 7.056 7.055 
34 1 10.108 10.108 10.107 
35 1 8.59 8.59 8.59 
36 1 9.301 9.301 9.3 
49 2 7.452 7.08 8.888 
50 2 6.251 6.457 9.533 
51 3 6.945 6.152 10.172 
ITEM: TIMESTEP
10
ITEM: NUMBER OF ATOMS
51
ITEM: BOX BOUNDS pp pp pp
0.0000000000000000e+00 1.1000000000000000e+01
0.0000000000000000e+00 1.1002000000000001e+01
0.0000000000000000e+00 1.1000000000000000e+01
ITEM: ATOMS id type x y z 
10 1 4.59505 4.59502 4.59536 
11 1 3.08083 3.08085 3.08096 
12 1 3.78922 3.78904 3.78894 
46 1 0.734022 0.733037 0.73326 
47 1 2.27083 2.2699 2.27058 
48 1 1.56372 1.56273 1.56319 
19 1 4.54012 4.53978 6.23475 
20 1 3.00191 3.00192 7.77455 
21 1 3.70851 3.7084 7.06656 
31 1 0.675416 0.675057 10.0962 
32 1 2.19132 2.19125 8.58445 
33 1 1.48304 1.48226 9.29129 
16 1 4.53954 6.23422 4.54018 
17 1 3.00236 7.77488 3.00264 
18 1 3.70861 7.06663 3.70906 
25 1 0.676293 10.0967 0.67614 
26 1 2.19192 8.58466 2.1919 
27 1 1.48323 9.29165 1.48328 
4 1 4.56906 6.17233 6.17275 
5 1 3.08494 7.6919 7.69177 
6 1 3.7821 6.97713 6.97749 
37 1 0.742275 10.038 10.0378 
38 1 2.27031 8.49734 8.49674 
39 1 1.56592 9.20617 9.20556 
13 1 6.23415 4.53964 4.54 
14 1 7.77432 3.00203 3.0024 
15 1 7.06657 3.70857 3.7089 
28 1 10.0956 0.675131 0.675436 
29 1 8.5844 2.19111 2.19213 
30 1 9.29138 1.4826 1.48333 
1 1 6.17187 4.56868 6.17285 
2 1 7.69181 3.08482 7.69177 
3 1 6.97725 3.78226 6.97762 
40 1 10.037 0.740713 10.0376 
41 1 8.49681 2.26957 8.49672 
42 1 9.20567 1.56508 9.20588 
7 1 6.1727 6.17258 4.56852 
8 1 7.69186 7.69188 3.08475 
9 1 6.97739 6.9774 3.78171 
43 1 10.0375 10.0383 0.742186 
44 1 8.49657 8.49708 2.26995 
45 1 9.20584 9.20659 1.56637 
22 1 6.25624 6.25679 6.24923 
23 1 7.77162 7.76236 7.82228 
24 1 7.03296 7.03694 7.0199 
34 1 10.1107 10.1102 10.1115 
35 1 8.60788 8.61217 8.59044 
36 1 9.31213 9.31354 9.30565 
49 2 7.46424 7.08436 8.88167 
50 2 6.25334 6.4396 9.55943 
51 3 6.93156 6.16914 10.1453 
ITEM: TIMESTEP
20
ITEM: NUMBER OF ATOMS
51
ITEM: BOX BOUNDS pp pp pp
0.0000000000000000e+00 1.1000000000000000e+01
0.0000000000000000e+00 1.1002000000000001e+01
0.0000000000000000e+00 1.1000000000000000e+01
ITEM: ATOMS id type x y z 
10 1 4.59371 4.594 4.59541 
11 1 3.08075 3.08125 3.08278 
12 1 3.7916 3.79012 3.78774 
46 1 0.736149 0.735825 0.736722 
47 1 2.27168 2.27138 2.2719 
48 1 1.56592 1.56408 1.56439 
19 1 4.53823 4.53758 6.2407 
20 1 2.99904 2.99907 7.77661 
21 1 3.70612 3.70585 7.07077 
31 1 0.677138 0.677805 10.0978 
32 1 2.18762 2.18902 8.58621 
33 1 1.48272 1.47922 9.29497 
16 1 4.534 6.23902 4.53705 
17 1 2.99941 7.77743 2.99959 
18 1 3.70534 7.07034 3.70662 
25 1 0.679731 10.0995 0.677784 
26 1 2.18885 8.58661 2.1893 
27 1 1.48219 9.29505 1.48084 
4 1 4.556 6.16712 6.16771 
5 1 3.08453 7.69353 7.69325 
6 1 3.77662 6.97687 6.97697 
37 1 0.754363 10.0408 10.0406 
38 1 2.27024 8.49682 8.49652 
39 1 1.56881 9.20678 9.2065 
13 1 6.23923 4.53421 4.53785 
14 1 7.77687 2.99921 2.99946 
15 1 7.06995 3.70551 3.7063 
28 1 10.0975 0.678248 0.677528 
29 1 8.58551 2.18782 2.18881 
30 1 9.29639 1.48197 1.48204 
1 1 6.16713 4.55662 6.16751 
2 1 7.69296 3.08453 7.69377 
3 1 6.97662 3.77681 6.97716 
40 1 10.0391 0.751829 10.0397 
41 1 8.49624 2.26842 8.49588 
42 1 9.20705 1.57011 9.20714 
7 1 6.16721 6.16716 4.55062 
8 1 7.69404 7.69391 3.08358 
9 1 6.97715 6.97705 3.77464 
43 1 10.0392 10.0401 0.754374 
44 1 8.49569 8.49622 2.26873 
45 1 9.20732 9.20811 1.57106 
22 1 6.2383 6.24242 6.21533 
23 1 7.75045 7.71528 7.88537 
24 1 7.02939 7.0373 7.00282 
34 1 10.1247 10.1233 10.1274 
35 1 8.62692 8.64031 8.57606 
36 1 9.32588 9.33141 9.30274 
49 2 7.48899 7.10273 8.86005 
50 2 6.23107 6.41993 9.5824 
51 3 6.92831 6.17442 10.1419 
ITEM: TIMESTEP
30
ITEM: NUMBER OF ATOMS
51
ITEM: BOX BOUNDS pp pp pp
0.0000000000000000e+00 1.1000000000000000e+01
0.0000000000000000e+00 1.1002000000000001e+01
0.0000000000000000e+00 1.1000000000000000e+01
ITEM: ATOMS id type x y z 
10 1 4.59308 4.59244 4.59343 
11 1 3.08486 3.08449 3.08431 
12 1 3.79253 3.79251 3.79368 
46 1 0.741142 0.740245 0.740893 
47 1 2.27448 2.27367 2.27416 
48 1 1.56735 1.5666 1.56681 
19 1 4.53817 4.53627 6.24346 
20 1 2.99949 2.99849 7.7805 
21 1 3.70163 3.70324 7.06676 
31 1 0.679821 0.678389 10.1 
32 1 2.18722 2.18746 8.58723 
33 1 1.48073 1.47943 9.29647 
16 1 4.52857 6.23704 4.53383 
17 1 2.99713 7.77961 2.99777 
18 1 3.703 7.07112 3.70442 
25 1 0.678598 10.1035 0.68353 
26 1 2.18323 8.58892 2.1939 
27 1 1.49038 9.29471 1.46901 
4 1 4.55301 6.16433 6.16504 
5 1 3.08504 7.69076 7.69093 
6 1 3.77734 6.97478 6.9748 
37 1 0.754857 10.0422 10.0419 
38 1 2.26698 8.49722 8.49697 
39 1 1.57431 9.2113 9.21094 
13 1 6.23799 4.52927 4.53515 
14 1 7.77911 2.99758 2.99748 
15 1 7.07027 3.7027 3.70467 
28 1 10.1005 0.681611 0.679953 
29 1 8.58712 2.18686 2.18793 
30 1 9.29742 1.48096 1.48014 
1 1 6.16459 4.55503 6.16552 
2 1 7.69025 3.08496 7.69119 
3 1 6.97448 3.77788 6.97516 
40 1 10.0409 0.75362 10.0414 
41 1 8.49614 2.26741 8.49604 
42 1 9.21009 1.57385 9.21014 
7 1 6.16346 6.16391 4.54204 
8 1 7.69251 7.69224 3.0838 
9 1 6.9743 6.97442 3.77177 
43 1 10.0411 10.0415 0.755985 
44 1 8.4965 8.49652 2.26694 
45 1 9.21025 9.21177 1.57455 
22 1 6.23338 6.24071 6.19875 
23 1 7.74027 7.68685 7.92315 
24 1 7.03237 7.04402 6.98879 
34 1 10.1278 10.1259 10.1277 
35 1 8.63501 8.65695 8.55513 
36 1 9.33085 9.34062 9.29076 
49 2 7.50305 7.10777 8.86414 
50 2 6.2132 6.40554 9.59846 
51 3 6.92418 6.17083 10.1516 
ITEM: TIMESTEP
40
ITEM: NUMBER OF ATOMS
51
ITEM: BOX BOUNDS pp pp pp
0.0000000000000000e+00 1.1000000000000000e+01
0.0000000000000000e+00 1.1002000000000001e+01
0.0000000000000000e+00 1.1000000000000000e+01
ITEM: ATOMS id type x y z 
10 1 4.59475 4.59357 4.59601 
11 1 3.08463 3.08431 3.08412 
12 1 3.79234 3.792 3.79363 
46 1 0.741926 0.741927 0.742123 
47 1 2.27662 2.27574 2.27615 
48 1 1.56912 1.5686 1.5688 
19 1 4.53613 4.53519 6.24121 
20 1 2.99723 2.99732 7.77804 
21 1 3.70446 3.70408 7.07166 
31 1 0.679478 0.679591 10.1018 
32 1 2.18722 2.18709 8.58758 
33 1 1.48061 1.47986 9.29717 
16 1 4.52676 6.23725 4.53201 
17 1 2.99771 7.78161 2.99765 
18 1 3.69874 7.06813 3.70392 
25 1 0.681599 10.1046 0.677378 
26 1 2.18804 8.58773 2.18748 
27 1 1.48229 9.29824 1.48016 
4 1 4.55651 6.16385 6.16425 
5 1 3.08497 7.69178 7.69172 
6 1 3.77349 6.97331 6.97413 
37 1 0.757578 10.0443 10.0439 
38 1 2.27235 8.49766 8.49741 
39 1 1.57049 9.20751 9.20726 
13 1 6.23742 4.5268 4.53393 
14 1 7.77989 2.99747 2.99671 
15 1 7.06988 3.70057 3.70422 
28 1 10.1028 0.680523 0.678912 
29 1 8.58746 2.18689 2.1876 
30 1 9.29782 1.48095 1.48037 
1 1 6.16427 4.55939 6.16481 
2 1 7.69085 3.08525 7.69168 
3 1 6.97304 3.77462 6.97413 
40 1 10.0433 0.756132 10.0439 
41 1 8.49774 2.27161 8.49766 
42 1 9.20707 1.56924 9.2073 
7 1 6.16189 6.16233 4.54154 
8 1 7.69363 7.69349 3.08326 
9 1 6.97318 6.9731 3.76624 
43 1 10.0429 10.0451 0.757256 
44 1 8.49857 8.4992 2.27048 
45 1 9.20872 9.20889 1.56899 
22 1 6.23472 6.24355 6.19508 
23 1 7.73917 7.68046 7.92866 
24 1 7.03737 7.05075 6.98544 
34 1 10.1261 10.1261 10.1277 
35 1 8.63497 8.65989 8.54282 
36 1 9.32971 9.34383 9.27879 
49 2 7.5069 7.10267 8.88053 
50 2 6.20556 6.39744 9.60808 
51 3 6.92013 6.16856 10.1572 
ITEM: TIMESTEP
50
ITEM: NUMBER OF ATOMS
51
ITEM: BOX BOUNDS pp pp pp
0.0000000000000000e+00 1.1000000000000000e+01
0.0000000000000000e+00 1.1002000000000001e+01
0.0000000000000000e+00 1.1000000000000000e+01
ITEM: ATOMS id type x y z 
10 1 4.59437 4.59306 4.59613 
11 1 3.08545 3.085 3.08509 
12 1 3.79317 3.79288 3.79431 
46 1 0.74308 0.742786 0.742808 
47 1 2.27663 2.27592 2.27631 
48 1 1.56949 1.56881 1.56897 
19 1 4.5367 4.53554 6.24238 
20 1 2.99708 2.99718 7.77759 
21 1 3.70482 3.70426 7.07226 
31 1 0.679789 0.679658 10.1031 
32 1 2.18712 2.18682 8.58767 
33 1 1.48036 1.48002 9.29775 
16 1 4.52539 6.23585 4.5321 
17 1 2.99632 7.78081 2.99715 
18 1 3.6998 7.06989 3.70365 
25 1 0.681915 10.105 0.678742 
26 1 2.1871 8.58859 2.1867 
27 1 1.48185 9.29982 1.47932 
4 1 4.5574 6.16406 6.16392 
5 1 3.08454 7.69011 7.69032 
6 1 3.77571 6.97331 6.97384 
37 1 0.755067 10.0432 10.0426 
38 1 2.27074 8.49772 8.4977 
39 1 1.57293 9.2096 9.20904 
13 1 6.23719 4.52624 4.53434 
14 1 7.77978 2.99703 2.99645 
15 1 7.07011 3.70043 3.70406 
28 1 10.1037 0.680657 0.679552 
29 1 8.58795 2.18652 2.18712 
30 1 9.29867 1.48063 1.48008 
1 1 6.16428 4.56084 6.16465 
2 1 7.68924 3.08451 7.69026 
3 1 6.97346 3.77733 6.97429 
40 1 10.0424 0.753853 10.0426 
41 1 8.49736 2.27045 8.49746 
42 1 9.20869 1.57197 9.20882 
7 1 6.16113 6.16176 4.53999 
8 1 7.69284 7.69263 3.08201 
9 1 6.97322 6.9733 3.76656 
43 1 10.0425 10.0439 0.753633 
44 1 8.49914 8.49939 2.26901 
45 1 9.2105 9.21121 1.57073 
22 1 6.23491 6.24466 6.1919 
23 1 7.73809 7.67488 7.93421 
24 1 7.03885 7.05315 6.98143 
34 1 10.1254 10.1262 10.1252 
35 1 8.63653 8.66442 8.53477 
36 1 9.32965 9.34466 9.27516 
49 2 7.50998 7.10077 8.88902 
50 2 6.2001 6.39195 9.61447 
51 3 6.91758 6.16671 10.1619 
ITEM: TIMESTEP
60
ITEM: NUMBER OF ATOMS
51
ITEM: BOX BOUNDS pp pp pp
0.0000000000000000e+00 1.1000000000000000e+01
0.0000000000000000e+00 1.1002000000000001e+01
0.0000000000000000e+00 1.1000000000000000e+01
ITEM: ATOMS id type x y z 
10 1 4.59803 4.59461 4.60616 
11 1 3.08931 3.08853 3.08924 
12 1 3.79611 3.79527 3.79984 
46 1 0.748381 0.74797 0.74621 
47 1 2.28007 2.27942 2.27984 
48 1 1.57358 1.57318 1.57228 
19 1 4.54099 4.53991 6.24814 
20 1 2.99586 2.99605 7.7733 
21 1 3.70885 3.70708 7.07846 
31 1 0.679996 0.678514 10.1069 
32 1 2.18581 2.1853 8.5889 
33 1 1.47975 1.48046 9.30048 
16 1 4.51962 6.23322 4.52752 
17 1 2.9954 7.78159 2.99134 
18 1 3.69097 7.06955 3.70303 
25 1 0.673031 10.1129 0.676343 
26 1 2.18498 8.59172 2.1872 
27 1 1.48265 9.30322 1.47829 
4 1 4.57078 6.17018 6.16011 
5 1 3.07939 7.68786 7.68298 
6 1 3.78166 6.96861 6.98052 
37 1 0.745746 10.0415 10.038 
38 1 2.27411 8.49779 8.50076 
39 1 1.57608 9.21357 9.2081 
13 1 6.23615 4.52027 4.53607 
14 1 7.78046 2.99311 2.99647 
15 1 7.06871 3.69849 3.6994 
28 1 10.1093 0.678835 0.677794 
29 1 8.59148 2.18522 2.18501 
30 1 9.30238 1.47915 1.47806 
1 1 6.16709 4.58726 6.16343 
2 1 7.68572 3.0801 7.68768 
3 1 6.97857 3.78454 6.9752 
40 1 10.0428 0.750387 10.0398 
41 1 8.49771 2.27577 8.49929 
42 1 9.20536 1.57158 9.2077 
7 1 6.15804 6.16074 4.53817 
8 1 7.69386 7.69577 3.07401 
9 1 6.97143 6.97082 3.74967 
43 1 10.0419 10.0428 0.736657 
44 1 8.5067 8.50568 2.27282 
45 1 9.21148 9.21138 1.56201 
22 1 6.24239 6.25999 6.17057 
23 1 7.73441 7.63481 7.97366 
24 1 7.06196 7.07941 6.96679 
34 1 10.1189 10.1249 10.0994 
35 1 8.63645 8.6838 8.46913 
36 1 9.32191 9.34819 9.228 
49 2 7.53653 7.08723 8.95846 
50 2 6.15502 6.34257 9.67271 
51 3 6.89211 6.14924 10.2071 
ITEM: TIMESTEP
70
ITEM: NUMBER OF ATOMS
51
ITEM: BOX BOUNDS pp pp pp
0.0000000000000000e+00 1.1000000000000000e+01
0.0000000000000000e+00 1.1002000000000001e+01
0.0000000000000000e+00 1.1000000000000000e+01
ITEM: ATOMS id type x y z 
10 1 4.59747 4.59427 4.60604 
11 1 3.08956 3.08915 3.08981 
12 1 3.79674 3.79501 3.80091 
46 1 0.74637 0.745989 0.744175 
47 1 2.2803 2.27967 2.27984 
48 1 1.57346 1.57297 1.5722 
19 1 4.54495 4.54334 6.25145 
20 1 2.99712 2.99678 7.77484 
21 1 3.70769 3.70669 7.0756 
31 1 0.680182 0.67836 10.1075 
32 1 2.18636 2.18619 8.58815 
33 1 1.48045 1.48047 9.2997 
16 1 4.51993 6.23314 4.53112 
17 1 2.99359 7.78023 2.99387 
18 1 3.69556 7.06883 3.70074 
25 1 0.676816 10.1112 0.67632 
26 1 2.18474 8.59414 2.18439 
27 1 1.4781 9.30463 1.47806 
4 1 4.57213 6.16792 6.16257 
5 1 3.08079 7.68448 7.68715 
6 1 3.77964 6.97377 6.97274 
37 1 0.746274 10.0436 10.0377 
38 1 2.27606 8.50025 8.5009 
39 1 1.57245 9.21017 9.2078 
13 1 6.23635 4.52355 4.53601 
14 1 7.77884 2.99408 2.99503 
15 1 7.06975 3.69717 3.70329 
28 1 10.1096 0.678488 0.677097 
29 1 8.59168 2.18513 2.18482 
30 1 9.30268 1.47918 1.47843 
1 1 6.1708 4.58419 6.16597 
2 1 7.6839 3.08337 7.68509 
3 1 6.97484 3.78667 6.97315 
40 1 10.0418 0.748897 10.0392 
41 1 8.49698 2.27502 8.49959 
42 1 9.20741 1.57293 9.20772 
7 1 6.15677 6.15922 4.53053 
8 1 7.69152 7.69232 3.07128 
9 1 6.97196 6.97304 3.75545 
43 1 10.0397 10.0416 0.732395 
44 1 8.50762 8.50664 2.27074 
45 1 9.21345 9.21364 1.56232 
22 1 6.24525 6.26433 6.17168 
23 1 7.73407 7.6295 7.97971 
24 1 7.0601 7.07737 6.96173 
34 1 10.117 10.1223 10.0979 
35 1 8.63783 8.68571 8.46719 
36 1 9.32493 9.3543 9.22182 
49 2 7.53866 7.08626 8.96414 
50 2 6.15086 6.3371 9.67923 
51 3 6.88887 6.14683 10.2139 
ITEM: TIMESTEP
80
ITEM: NUMBER OF ATOMS
51
ITEM: BOX BOUNDS pp pp pp
0.0000000000000000e+00 1.1000000000000000e+01
0.0000000000000000e+00 1.1002000000000001e+01
0.0000000000000000e+00 1.1000000000000000e+01
ITEM: ATOMS id type x y z 
10 1 4.59746 4.59422 4.60615 
11 1 3.08958 3.08917 3.08986 
12 1 3.79678 3.79499 3.80101 
46 1 0.746286 0.745915 0.74415 
47 1 2.28029 2.27969 2.27981 
48 1 1.57342 1.57289 1.57217 
19 1 4.5452 4.54344 6.25173 
20 1 2.99723 2.99687 7.77474 
21 1 3.70781 3.70682 7.07559 
31 1 0.680068 0.678578 10.1075 
32 1 2.18618 2.18637 8.58812 
33 1 1.48086 1.48018 9.29969 
16 1 4.52004 6.2332 4.53113 
17 1 2.99348 7.78027 2.99377 
18 1 3.69548 7.06886 3.70073 
25 1 0.676643 10.111 0.676259 
26 1 2.18462 8.59413 2.18442 
27 1 1.4783 9.3047 1.47799 
4 1 4.57233 6.16815 6.16265 
5 1 3.08079 7.68442 7.68712 
6 1 3.77978 6.97385 6.97273 
37 1 0.74623 10.0435 10.0376 
38 1 2.27614 8.50025 8.50091 
39 1 1.57235 9.21015 9.20778 
13 1 6.23647 4.52366 4.53609 
14 1 7.77871 2.99409 2.99505 
15 1 7.06982 3.69717 3.7034 
28 1 10.1095 0.678317 0.677025 
29 1 8.59168 2.18512 2.18482 
30 1 9.30271 1.4792 1.47843 
1 1 6.1709 4.58446 6.16595 
2 1 7.68388 3.08337 7.68507 
3 1 6.9749 3.78682 6.97324 
40 1 10.0417 0.74884 10.0391 
41 1 8.49688 2.27508 8.49952 
42 1 9.20736 1.57316 9.20759 
7 1 6.15686 6.15918 4.53039 
8 1 7.69162 7.69217 3.07106 
9 1 6.97181 6.97332 3.75544 
43 1 10.0397 10.0415 0.732059 
44 1 8.50778 8.50676 2.27076 
45 1 9.21336 9.21365 1.56203 
22 1 6.24532 6.26445 6.17131 
23 1 7.73418 7.62912 7.98019 
24 1 7.0603 7.07744 6.9618 
34 1 10.117 10.1225 10.0974 
35 1 8.63782 8.68598 8.46631 
36 1 9.32471 9.3539 9.22166 
49 2 7.53893 7.08613 8.96489 
50 2 6.15032 6.33637 9.6801 
51 3 6.88843 6.14651 10.2148 
ITEM: TIMESTEP
90
ITEM: NUMBER OF ATOMS
51
ITEM: BOX BOUNDS pp pp pp
0.0000000000000000e+00 1.1000000000000000e+01
0.0000000000000000e+00 1.1002000000000001e+01
0.0000000000000000e+00 1.1000000000000000e+01
ITEM: ATOMS id type x y z 
10 1 4.59756 4.59403 4.60707 
11 1 3.08977 3.08908 3.09019 
12 1 3.79669 3.79516 3.8014 
46 1 0.745814 0.745334 0.743916 
47 1 2.2801 2.27944 2.27953 
48 1 1.57319 1.57283 1.57201 
19 1 4.54673 4.54442 6.25336 
20 1 2.99773 2.99744 7.7746 
21 1 3.70851 3.70732 7.07505 
31 1 0.680386 0.678737 10.1074 
32 1 2.18657 2.18643 8.58791 
33 1 1.48075 1.48057 9.29934 
16 1 4.52044 6.23345 4.53112 
17 1 2.9932 7.78004 2.99367 
18 1 3.69499 7.06917 3.70057 
25 1 0.67636 10.1109 0.675658 
26 1 2.18467 8.59449 2.18443 
27 1 1.47799 9.30443 1.47774 
4 1 4.5735 6.16943 6.16288 
5 1 3.08083 7.68419 7.68712 
6 1 3.78033 6.97422 6.97263 
37 1 0.745787 10.0434 10.0369 
38 1 2.27644 8.50033 8.50093 
39 1 1.5721 9.20979 9.2077 
13 1 6.23732 4.52427 4.53662 
14 1 7.77843 2.99407 2.99518 
15 1 7.06962 3.69703 3.70369 
28 1 10.1092 0.677489 0.676422 
29 1 8.59162 2.18502 2.18466 
30 1 9.30312 1.47929 1.47863 
1 1 6.17151 4.58603 6.1662 
2 1 7.68368 3.08365 7.68507 
3 1 6.97511 3.78747 6.97323 
40 1 10.0414 0.748793 10.0384 
41 1 8.49643 2.27579 8.49917 
42 1 9.20707 1.57357 9.20706 
7 1 6.15694 6.15982 4.52975 
8 1 7.6919 7.69222 3.07028 
9 1 6.97167 6.97338 3.75413 
43 1 10.0394 10.0416 0.730015 
44 1 8.50851 8.50757 2.27091 
45 1 9.2131 9.21343 1.5603 
22 1 6.24605 6.26564 6.16964 
23 1 7.73472 7.6267 7.9831 
24 1 7.06151 7.07786 6.96222 
34 1 10.1159 10.1229 10.095 
35 1 8.63734 8.68705 8.46221 
36 1 9.32466 9.35302 9.21875 
49 2 7.54054 7.08526 8.96948 
50 2 6.14707 6.33191 9.68546 
51 3 6.8857 6.14456 10.2203 
ITEM: TIMESTEP
100
ITEM: NUMBER OF ATOMS
51
ITEM: BOX BOUNDS pp pp pp
0.0000000000000000e+00 1.1000000000000000e+01
0.0000000000000000e+00 1.1002000000000001e+01
0.0000000000000000e+00 1.1000000000000000e+01
ITEM: ATOMS id type x y z 
10 1 4.60121 4.59473 4.62139 
11 1 3.09125 3.08939 3.09516 
12 1 3.79719 3.79322 3.80884 
46 1 0.740038 0.738763 0.738781 
47 1 2.27777 2.27786 2.27652 
48 1 1.57159 1.57071 1.57026 
19 1 4.56576 4.56119 6.26725 
20 1 3.00371 3.0031 7.7682 
21 1 3.7201 3.71711 7.08001 
31 1 0.679768 0.681584 10.1053 
32 1 2.1905 2.18922 8.58307 
33 1 1.48425 1.48512 9.29536 
16 1 4.52156 6.23345 4.53092 
17 1 2.98747 7.77728 2.99361 
18 1 3.69263 7.06923 3.69932 
25 1 0.672884 10.1084 0.663949 
26 1 2.18207 8.59836 2.18371 
27 1 1.47628 9.30476 1.47254 
4 1 4.59353 6.18686 6.16256 
5 1 3.08022 7.68089 7.68793 
6 1 3.79128 6.98345 6.97255 
37 1 0.736028 10.0425 10.026 
38 1 2.27844 8.49806 8.50312 
39 1 1.57129 9.21102 9.2029 
13 1 6.24113 4.5311 4.54169 
14 1 7.77269 2.99048 2.99757 
15 1 7.07188 3.69902 3.70764 
28 1 10.1073 0.67255 0.667094 
29 1 8.59441 2.18384 2.18651 
30 1 9.29991 1.47983 1.47323 
1 1 6.18461 4.61139 6.16854 
2 1 7.68017 3.08846 7.68462 
3 1 6.97948 3.80084 6.97382 
40 1 10.041 0.747285 10.0268 
41 1 8.49388 2.28311 8.49794 
42 1 9.20466 1.57643 9.20108 
7 1 6.15549 6.16563 4.51654 
8 1 7.69559 7.69344 3.05328 
9 1 6.97407 6.97774 3.73878 
43 1 10.0291 10.0349 0.694782 
44 1 8.51704 8.51604 2.268 
45 1 9.21212 9.21486 1.54035 
22 1 6.26273 6.29259 6.15107 
23 1 7.74083 7.58297 8.02911 
24 1 7.07952 7.07986 6.97095 
34 1 10.104 10.1204 10.0599 
35 1 8.6348 8.68964 8.4076 
36 1 9.31864 9.37375 9.15002 
49 2 7.56459 7.06824 9.04439 
50 2 6.09405 6.25734 9.77542 
51 3 6.83946 6.11198 10.3131 
ITEM: TIMESTEP
110
ITEM: NUMBER OF ATOMS
51
ITEM: BOX BOUNDS pp pp pp
0.0000000000000000e+00 1.1000000000000000e+01
0.0000000000000000e+00 1.1002000000000001e+01
0.0000000000000000e+00 1.1000000000000000e+01
ITEM: ATOMS id type x y z 
10 1 4.60102 4.59472 4.6212 
11 1 3.09107 3.08914 3.09532 
12 1 3.79712 3.79308 3.80875 
46 1 0.740019 0.73881 0.738928 
47 1 2.27792 2.27778 2.27667 
48 1 1.57146 1.57097 1.57032 
19 1 4.56527 4.56171 6.26662 
20 1 3.00433 3.00325 7.7684 
21 1 3.71997 3.71765 7.07988 
31 1 0.680874 0.682001 10.1056 
32 1 2.19048 2.18963 8.58303 
33 1 1.48457 1.48466 9.29497 
16 1 4.52143 6.23296 4.53087 
17 1 2.98777 7.77764 2.99366 
18 1 3.69215 7.06818 3.69967 
25 1 0.672266 10.1088 0.663674 
26 1 2.18185 8.59848 2.18339 
27 1 1.47585 9.30472 1.47247 
4 1 4.59444 6.1873 6.1617 
5 1 3.08123 7.68179 7.6878 
6 1 3.7904 6.98206 6.97281 
37 1 0.736541 10.0438 10.0255 
38 1 2.27912 8.49878 8.50275 
39 1 1.56973 9.20957 9.20336 
13 1 6.2411 4.5313 4.54134 
14 1 7.77398 2.99079 2.9981 
15 1 7.07011 3.69805 3.7066 
28 1 10.1069 0.673331 0.666942 
29 1 8.5939 2.18425 2.18497 
30 1 9.30103 1.47807 1.47541 
1 1 6.1848 4.61173 6.16803 
2 1 7.67991 3.08873 7.68423 
3 1 6.97967 3.80225 6.97407 
40 1 10.0409 0.747619 10.0266 
41 1 8.4935 2.28302 8.49785 
42 1 9.20505 1.57692 9.20088 
7 1 6.1558 6.16591 4.51576 
8 1 7.69547 7.69351 3.05315 
9 1 6.97397 6.9777 3.73864 
43 1 10.029 10.0351 0.693436 
44 1 8.51672 8.51583 2.26601 
45 1 9.21352 9.2158 1.54173 
22 1 6.26315 6.29329 6.15184 
23 1 7.74084 7.58209 8.0305 
24 1 7.07969 7.07882 6.97271 
34 1 10.104 10.1212 10.0589 
35 1 8.63455 8.6911 8.40628 
36 1 9.31996 9.37227 9.14985 
49 2 7.56399 7.0669 9.04506 
50 2 6.09322 6.25569 9.77751 
51 3 6.83835 6.1113 10.3154 
ITEM: TIMESTEP
120
ITEM: NUMBER OF ATOMS
51
ITEM: BOX BOUNDS pp pp pp
0.0000000000000000e+00 1.1000000000000000e+01
0.0000000000000000e+00 1.1002000000000001e+01
0.0000000000000000e+00 1.1000000000000000e+01
ITEM: ATOMS id type x y z 
10 1 4.60103 4.59468 4.62109 
11 1 3.09105 3.08907 3.09534 
12 1 3.79707 3.79307 3.80876 
46 1 0.739978 0.738884 0.73895 
47 1 2.27793 2.27781 2.27669 
48 1 1.57149 1.57092 1.57034 
19 1 4.56518 4.56179 6.26651 
20 1 3.00443 3.00326 7.76846 
21 1 3.71995 3.71776 7.0799 
31 1 0.68103 0.682075 10.1056 
32 1 2.19047 2.18965 8.58296 
33 1 1.48468 1.48471 9.29496 
16 1 4.52138 6.23282 4.53084 
17 1 2.98776 7.77764 2.99368 
18 1 3.69214 7.06813 3.69969 
25 1 0.672165 10.1088 0.663598 
26 1 2.18179 8.59845 2.18325 
27 1 1.47579 9.30482 1.47257 
4 1 4.59465 6.18742 6.1616 
5 1 3.08142 7.68191 7.68778 
6 1 3.7903 6.98188 6.97281 
37 1 0.736597 10.0439 10.0254 
38 1 2.27916 8.49878 8.50281 
39 1 1.56959 9.20953 9.20322 
13 1 6.24092 4.53129 4.54118 
14 1 7.77401 2.99076 2.99811 
15 1 7.07011 3.69806 3.70659 
28 1 10.1069 0.673372 0.667046 
29 1 8.59386 2.18421 2.18492 
30 1 9.30111 1.47799 1.47541 
1 1 6.18493 4.61198 6.16794 
2 1 7.67988 3.0889 7.68422 
3 1 6.97967 3.80236 6.97399 
40 1 10.0409 0.7477 10.0266 
41 1 8.49348 2.28299 8.49785 
42 1 9.20508 1.57698 9.20085 
7 1 6.15587 6.16593 4.51575 
8 1 7.69547 7.69356 3.05312 
9 1 6.97396 6.97768 3.73854 
43 1 10.0292 10.0352 0.693414 
44 1 8.51679 8.51586 2.26592 
45 1 9.21349 9.21579 1.54147 
22 1 6.2632 6.29337 6.1519 
23 1 7.74088 7.58195 8.03083 
24 1 7.07967 7.07853 6.97307 
34 1 10.104 10.1214 10.0586 
35 1 8.63453 8.6913 8.40592 
36 1 9.32012 9.37204 9.14985 
49 2 7.56385 7.06658 9.04521 
50 2 6.09302 6.2553 9.778 
51 3 6.8381 6.11114 10.3159 
ITEM: TIMESTEP
122
ITEM: NUMBER OF ATOMS
51
ITEM: BOX BOUNDS pp pp pp
0.0000000000000000e+00 1.1000000000000000e+01
0.0000000000000000e+00 1.1002000000000001e+01
0.0000000000000000e+00 1.1000000000000000e+01
ITEM: ATOMS id type x y z 
10 1 4.60103 4.59468 4.62109 
11 1 3.09105 3.08907 3.09534 
12 1 3.79706 3.79307 3.80877 
46 1 0.73998 0.738886 0.738951 
47 1 2.27793 2.27781 2.27669 
48 1 1.57148 1.57092 1.57035 
19 1 4.56518 4.5618 6.2665 
20 1 3.00444 3.00325 7.76846 
21 1 3.71994 3.71778 7.0799 
31 1 0.681052 0.682075 10.1056 
32 1 2.19048 2.18965 8.58297 
33 1 1.48465 1.48472 9.29494 
16 1 4.52138 6.23282 4.53084 
17 1 2.98776 7.77765 2.99368 
18 1 3.69213 7.06812 3.69968 
25 1 0.672161 10.1088 0.663603 
26 1 2.18178 8.59846 2.18326 
27 1 1.47578 9.3048 1.47255 
4 1 4.59466 6.18744 6.16159 
5 1 3.08143 7.68193 7.68776 
6 1 3.7903 6.98185 6.97283 
37 1 0.736602 10.0439 10.0254 
38 1 2.27917 8.49878 8.50281 
39 1 1.56958 9.20953 9.20321 
13 1 6.24091 4.53129 4.54118 
14 1 7.77401 2.99076 2.99812 
15 1 7.07012 3.69807 3.70658 
28 1 10.1069 0.673374 0.667046 
29 1 8.59385 2.18421 2.18491 
30 1 9.30112 1.47798 1.47542 
1 1 6.18494 4.61201 6.16793 
2 1 7.67989 3.08892 7.68422 
3 1 6.97965 3.80235 6.97399 
40 1 10.0409 0.747705 10.0266 
41 1 8.49349 2.28299 8.49785 
42 1 9.20508 1.57698 9.20085 
7 1 6.15587 6.16593 4.51575 
8 1 7.69546 7.69357 3.05311 
9 1 6.97396 6.97768 3.73854 
43 1 10.0292 10.0352 0.693405 
44 1 8.51678 8.51586 2.2659 
45 1 9.2135 9.21579 1.54147 
22 1 6.26321 6.29338 6.1519 
23 1 7.74088 7.58195 8.03085 
24 1 7.07967 7.07851 6.9731 
34 1 10.104 10.1214 10.0586 
35 1 8.63453 8.69131 8.4059 
36 1 9.32012 9.37202 9.14985 
49 2 7.56384 7.06656 9.04522 
50 2 6.09301 6.25528 9.77803 
51 3 6.83809 6.11113 10.3159 
ITEM: TIMESTEP
130
ITEM: NUMBER OF ATOMS
51
ITEM: BOX BOUNDS pp pp pp
0.0000000000000000e+00 1.1000000000000000e+01
0.0000000000000000e+00 1.1002000000000001e+01
0.0000000000000000e+00 1.1000000000000000e+01
ITEM: ATOMS id type x y z 
10 1 4.60102 4.59468 4.62109 
11 1 3.09104 3.08907 3.09535 
12 1 3.79708 3.79306 3.80876 
46 1 0.739978 0.738889 0.738953 
47 1 2.27793 2.27781 2.27669 
48 1 1.57148 1.57092 1.57035 
19 1 4.56517 4.5618 6.2665 
20 1 3.00444 3.00326 7.76847 
21 1 3.71995 3.71777 7.07989 
31 1 0.681051 0.68208 10.1056 
32 1 2.19048 2.18966 8.58296 
33 1 1.48467 1.48471 9.29495 
16 1 4.52138 6.23281 4.53084 
17 1 2.98776 7.77764 2.99368 
18 1 3.69213 7.06812 3.69968 
25 1 0.672156 10.1088 0.663597 
26 1 2.18178 8.59846 2.18325 
27 1 1.47578 9.30481 1.47256 
4 1 4.59466 6.18744 6.16158 
5 1 3.08144 7.68193 7.68776 
6 1 3.7903 6.98184 6.97283 
37 1 0.736599 10.0439 10.0254 
38 1 2.27916 8.49878 8.50281 
39 1 1.56958 9.20954 9.20321 
13 1 6.2409 4.53129 4.54117 
14 1 7.77401 2.99076 2.99812 
15 1 7.07011 3.69807 3.70658 
28 1 10.1069 0.673375 0.667054 
29 1 8.59386 2.1842 2.18491 
30 1 9.30112 1.47798 1.47541 
1 1 6.18494 4.61202 6.16793 
2 1 7.67989 3.08893 7.68422 
3 1 6.97965 3.80235 6.97399 
40 1 10.0409 0.747709 10.0266 
41 1 8.49348 2.28299 8.49785 
42 1 9.20508 1.57698 9.20085 
7 1 6.15588 6.16593 4.51575 
8 1 7.69546 7.69357 3.05311 
9 1 6.97397 6.97768 3.73854 
43 1 10.0292 10.0352 0.693399 
44 1 8.51678 8.51585 2.26589 
45 1 9.21351 9.2158 1.54147 
22 1 6.26321 6.29338 6.1519 
23 1 7.74089 7.58194 8.03087 
24 1 7.07967 7.0785 6.97311 
34 1 10.104 10.1214 10.0585 
35 1 8.63453 8.69132 8.40589 
36 1 9.32013 9.37201 9.14985 
49 2 7.56384 7.06655 9.04523 
50 2 6.093 6.25527 9.77805 
51 3 6.83808 6.11112 10.316 
ITEM: TIMESTEP
131
ITEM: NUMBER OF ATOMS
51
ITEM: BOX BOUNDS pp pp pp
0.0000000000000000e+00 1.1000000000000000e+01
0.0000000000000000e+00 1.1002000000000001e+01
0.0000000000000000e+00 1.1000000000000000e+01
ITEM: ATOMS id type x y z 
10 1 4.60102 4.59468 4.62109 
11 1 3.09104 3.08907 3.09535 
12 1 3.79708 3.79306 3.80876 
46 1 0.739978 0.738889 0.738954 
47 1 2.27793 2.27781 2.27669 
48 1 1.57148 1.57092 1.57035 
19 1 4.56517 4.5618 6.2665 
20 1 3.00444 3.00326 7.76847 
21 1 3.71995 3.71777 7.07989 
31 1 0.681052 0.682081 10.1056 
32 1 2.19048 2.18966 8.58296 
33 1 1.48467 1.48471 9.29495 
16 1 4.52138 6.23281 4.53084 
17 1 2.98776 7.77764 2.99368 
18 1 3.69213 7.06812 3.69968 
25 1 0.672156 10.1088 0.663597 
26 1 2.18178 8.59846 2.18325 
27 1 1.47578 9.30481 1.47256 
4 1 4.59466 6.18744 6.16158 
5 1 3.08144 7.68193 7.68776 
6 1 3.7903 6.98184 6.97283 
37 1 0.736599 10.0439 10.0254 
38 1 2.27916 8.49878 8.50281 
39 1 1.56958 9.20954 9.20321 
13 1 6.2409 4.53129 4.54117 
14 1 7.77401 2.99076 2.99812 
15 1 7.07011 3.69807 3.70658 
28 1 10.1069 0.673375 0.667055 
29 1 8.59386 2.1842 2.18491 
30 1 9.30111 1.47798 1.47541 
1 1 6.18494 4.61202 6.16793 
2 1 7.67989 3.08893 7.68422 
3 1 6.97965 3.80235 6.97399 
40 1 10.0409 0.747709 10.0266 
41 1 8.49348 2.28299 8.49785 
42 1 9.20508 1.57698 9.20085 
7 1 6.15588 6.16593 4.51575 
8 1 7.69546 7.69357 3.05311 
9 1 6.97397 6.97768 3.73854 
43 1 10.0292 10.0352 0.693399 
44 1 8.51678 8.51585 2.26589 
45 1 9.21351 9.2158 1.54147 
22 1 6.26321 6.29338 6.1519 
23 1 7.74089 7.58194 8.03087 
24 1 7.07967 7.0785 6.97311 
34 1 10.104 10.1214 10.0585 
35 1 8.63453 8.69132 8.40589 
36 1 9.32013 9.37201 9.14985 
49 2 7.56384 7.06655 9.04523 
50 2 6.093 6.25526 9.77805 
51 3 6.83807 6.11112 10.316 
ITEM: TIMESTEP
140
ITEM: NUMBER OF ATOMS
51
ITEM: BOX BOUNDS pp pp pp
-2.9799549009942106e-03 1.1002979954900992e+01
-3.1089958718877745e-03 1.1005108995871886e+01
-4.9500000000000004e-03 1.1004950000000004e+01
ITEM: ATOMS id type x y z 
10 1 4.60072 4.59435 4.62046 
11 1 3.08978 3.08775 3.09324 
12 1 3.7961 3.79204 3.80717 
46 1 0.737254 0.736063 0.734524 
47 1 2.27612 2.27593 2.27373 
48 1 1.56925 1.56859 1.5667 
19 1 4.56477 4.56141 6.26701 
20 1 3.00316 3.00193 7.77045 
21 1 3.71912 3.71689 7.0812 
31 1 0.678272 0.679179 10.1099 
32 1 2.18864 2.18774 8.58578 
33 1 1.48256 1.48251 9.2983 
16 1 4.52098 6.23307 4.5301 
17 1 2.98646 7.77887 2.99149 
18 1 3.69127 7.06888 3.69818 
25 1 0.669349 10.1116 0.659049 
26 1 2.17993 8.60026 2.18021 
27 1 1.47365 9.3069 1.46899 
4 1 4.59425 6.18764 6.16197 
5 1 3.08021 7.68313 7.68968 
6 1 3.7893 6.98272 6.9742 
37 1 0.733854 10.0466 10.0296 
38 1 2.27735 8.50054 8.50558 
39 1 1.56733 9.21175 9.20665 
13 1 6.24114 4.53088 4.54043 
14 1 7.77519 2.98941 2.99594 
15 1 7.07084 3.69716 3.70508 
28 1 10.1096 0.670471 0.662526 
29 1 8.59559 2.18227 2.18187 
30 1 9.30312 1.47576 1.47184 
1 1 6.18512 4.6116 6.16832 
2 1 7.68103 3.08765 7.68614 
3 1 6.98049 3.80131 6.97535 
40 1 10.0435 0.744863 10.0308 
41 1 8.49517 2.28111 8.50062 
42 1 9.20721 1.57464 9.2043 
7 1 6.15605 6.16612 4.51495 
8 1 7.6966 7.69476 3.05097 
9 1 6.97482 6.97856 3.73686 
43 1 10.0318 10.0379 0.688916 
44 1 8.51848 8.51762 2.26289 
45 1 9.21564 9.21802 1.53778 
22 1 6.26354 6.29374 6.1524 
23 1 7.74212 7.58312 8.03318 
24 1 7.08046 7.0793 6.97443 
34 1 10.1067 10.1242 10.0628 
35 1 8.63628 8.69319 8.40854 
36 1 9.32216 9.37412 9.15307 
49 2 7.56494 7.0674 9.04843 
50 2 6.0933 6.25564 9.78196 
51 3 6.83877 6.11145 10.3204 
ITEM: TIMESTEP
150
ITEM: NUMBER OF ATOMS
51
ITEM: BOX BOUNDS pp pp pp
-2.3567181164446693e-03 1.1002356718116440e+01
-2.9046803953690658e-03 1.1004904680395365e+01
-1.0450000000000001e-02 1.1010450000000009e+01
ITEM: ATOMS id type x y z 
10 1 4.60149 4.59503 4.62013 
11 1 3.09023 3.08798 3.091 
12 1 3.79604 3.79189 3.80531 
46 1 0.737269 0.735761 0.729244 
47 1 2.2761 2.27567 2.27015 
48 1 1.56947 1.5685 1.56252 
19 1 4.56531 4.56196 6.26716 
20 1 3.0039 3.00245 7.7724 
21 1 3.71955 3.7172 7.08248 