ITEM: TIMESTEP
0
ITEM: NUMBER OF ATOMS
49
ITEM: BOX BOUNDS pp pp pp
0.0000000000000000e+00 1.1000000000000000e+01
0.0000000000000000e+00 1.1002000000000001e+01
0.0000000000000000e+00 1.1000000000000000e+01
ITEM: ATOMS id type x y z 
10 1 4.603 4.603 4.603 
11 1 3.085 3.085 3.085 
12 1 3.796 3.796 3.796 
46 1 0.726 0.725 0.725 
47 1 2.26 2.259 2.26 
48 1 1.551 1.55 1.55 
19 1 4.546 4.545 6.226 
20 1 3.013 3.013 7.764 
21 1 3.721 3.721 7.053 
31 1 0.668 0.667 10.103 
32 1 2.187 2.187 8.589 
33 1 1.476 1.475 9.298 
16 1 4.546 6.225 4.546 
17 1 3.013 7.765 3.013 
18 1 3.721 7.053 3.722 
25 1 0.668 10.103 0.668 
26 1 2.188 8.589 2.188 
27 1 1.476 9.298 1.476 
4 1 4.608 6.169 6.169 
5 1 3.086 7.684 7.684 
6 1 3.799 6.974 6.974 
37 1 0.729 10.046 10.046 
38 1 2.259 8.509 8.508 
39 1 1.552 9.219 9.219 
49 2 0.851 8.999 10.363 
13 1 6.225 4.546 4.546 
14 1 7.764 3.013 3.013 
15 1 7.053 3.721 3.722 
28 1 10.102 0.667 0.668 
29 1 8.589 2.187 2.188 
30 1 9.298 1.475 1.476 
1 1 6.168 4.608 6.169 
2 1 7.684 3.086 7.684 
3 1 6.974 3.799 6.974 
40 1 10.045 0.728 10.046 
41 1 8.508 2.259 8.508 
42 1 9.218 1.551 9.218 
7 1 6.169 6.169 4.608 
8 1 7.684 7.684 3.086 
9 1 6.974 6.974 3.799 
43 1 10.046 10.047 0.729 
44 1 8.508 8.509 2.259 
45 1 9.219 9.219 1.552 
22 1 6.229 6.229 6.229 
23 1 7.764 7.765 7.765 
24 1 7.055 7.056 7.055 
34 1 10.108 10.108 10.107 
35 1 8.59 8.59 8.59 
36 1 9.301 9.301 9.3 
ITEM: TIMESTEP
10
ITEM: NUMBER OF ATOMS
49
ITEM: BOX BOUNDS pp pp pp
0.0000000000000000e+00 1.1000000000000000e+01
0.0000000000000000e+00 1.1002000000000001e+01
0.0000000000000000e+00 1.1000000000000000e+01
ITEM: ATOMS id type x y z 
10 1 4.59579 4.59895 4.59827 
11 1 3.08089 3.08141 3.08103 
12 1 3.78941 3.78856 3.78932 
46 1 0.737933 0.72583 0.735419 
47 1 2.27248 2.27387 2.27276 
48 1 1.56786 1.5624 1.56617 
19 1 4.5381 4.53323 6.23354 
20 1 3.00151 3.00252 7.77488 
21 1 3.71063 3.70837 7.06465 
31 1 0.683529 0.721184 10.0861 
32 1 2.20125 2.19424 8.57566 
33 1 1.48466 1.49618 9.28742 
16 1 4.53794 6.23341 4.5336 
17 1 3.00113 7.77626 3.00215 
18 1 3.70949 7.06538 3.70793 
25 1 0.673093 10.1075 0.742502 
26 1 2.19861 8.5771 2.18962 
27 1 1.48095 9.29611 1.4982 
4 1 4.59672 6.17966 6.17946 
5 1 3.08131 7.69073 7.69096 
6 1 3.79535 6.97501 6.97509 
37 1 0.698541 10.0855 10.0503 
38 1 2.30752 8.47449 8.45525 
39 1 1.58531 9.17588 9.18258 
49 2 0.864813 8.93836 10.3707 
13 1 6.23375 4.53774 4.53819 
14 1 7.7757 3.00094 3.00196 
15 1 7.06574 3.70889 3.7081 
28 1 10.0852 0.67927 0.682297 
29 1 8.58245 2.19361 2.19439 
30 1 9.28905 1.4837 1.4851 
1 1 6.1734 4.60193 6.17505 
2 1 7.6894 3.08108 7.68771 
3 1 6.98027 3.79155 6.98372 
40 1 10.0359 0.736047 10.0354 
41 1 8.49668 2.27033 8.49673 
42 1 9.20538 1.56394 9.20504 
7 1 6.17292 6.17589 4.60262 
8 1 7.68879 7.68927 3.08161 
9 1 6.98175 6.98126 3.78995 
43 1 10.0467 10.0356 0.736647 
44 1 8.49616 8.49935 2.26956 
45 1 9.20894 9.20436 1.56496 
22 1 6.24192 6.23753 6.23668 
23 1 7.77437 7.77625 7.77541 
24 1 7.06736 7.06614 7.06699 
34 1 10.053 10.1032 10.0899 
35 1 8.58412 8.57558 8.5776 
36 1 9.27929 9.29441 9.28984 
ITEM: TIMESTEP
20
ITEM: NUMBER OF ATOMS
49
ITEM: BOX BOUNDS pp pp pp
0.0000000000000000e+00 1.1000000000000000e+01
0.0000000000000000e+00 1.1002000000000001e+01
0.0000000000000000e+00 1.1000000000000000e+01
ITEM: ATOMS id type x y z 
10 1 4.59609 4.59618 4.59319 
11 1 3.08469 3.08485 3.08516 
12 1 3.79287 3.79329 3.79201 
46 1 0.738343 0.731694 0.746282 
47 1 2.27403 2.2741 2.27229 
48 1 1.56675 1.56397 1.56948 
19 1 4.53761 4.52737 6.23503 
20 1 3.00692 3.00717 7.76995 
21 1 3.71564 3.71183 7.05878 
31 1 0.678662 0.741745 10.0898 
32 1 2.21045 2.19895 8.56589 
33 1 1.48904 1.51057 9.28421 
16 1 4.53712 6.23548 4.52715 
17 1 3.00466 7.77236 3.00478 
18 1 3.71294 7.06188 3.70882 
25 1 0.662465 10.1236 0.772635 
26 1 2.20493 8.56982 2.18717 
27 1 1.47939 9.30087 1.51722 
4 1 4.60152 6.17485 6.1726 
5 1 3.0977 7.67467 7.67366 
6 1 3.81185 6.96147 6.96015 
37 1 0.686112 10.07 10.0499 
38 1 2.31084 8.48748 8.43982 
39 1 1.59056 9.17258 9.18198 
49 2 0.864806 8.91116 10.3902 
13 1 6.23626 4.53636 4.53596 
14 1 7.77273 3.00379 3.00416 
15 1 7.0645 3.71033 3.71081 
28 1 10.0803 0.683329 0.686677 
29 1 8.58302 2.19357 2.19426 
30 1 9.28829 1.483 1.48475 
1 1 6.17872 4.59776 6.17633 
2 1 7.68608 3.08368 7.68663 
3 1 6.97987 3.79315 6.97903 
40 1 10.0277 0.745726 10.0402 
41 1 8.49786 2.26896 8.49585 
42 1 9.20401 1.56611 9.20834 
7 1 6.17651 6.17602 4.5968 
8 1 7.68634 7.68603 3.08301 
9 1 6.97887 6.98107 3.79369 
43 1 10.0436 10.0354 0.746 
44 1 8.49693 8.49865 2.26851 
45 1 9.20874 9.20575 1.56682 
22 1 6.247 6.23738 6.23668 
23 1 7.76927 7.77025 7.77046 
24 1 7.06497 7.06138 7.06115 
34 1 10.0303 10.114 10.0892 
35 1 8.58143 8.56558 8.57031 
36 1 9.26372 9.2948 9.28526 
ITEM: TIMESTEP
30
ITEM: NUMBER OF ATOMS
49
ITEM: BOX BOUNDS pp pp pp
0.0000000000000000e+00 1.1000000000000000e+01
0.0000000000000000e+00 1.1002000000000001e+01
0.0000000000000000e+00 1.1000000000000000e+01
ITEM: ATOMS id type x y z 
10 1 4.60762 4.59163 4.57119 
11 1 3.08547 3.08935 3.08894 
12 1 3.80555 3.79586 3.78849 
46 1 0.730394 0.766254 0.756378 
47 1 2.28829 2.28418 2.2868 
48 1 1.56728 1.58211 1.58302 
19 1 4.55837 4.50286 6.21787 
20 1 3.01315 3.01153 7.76245 
21 1 3.72945 3.70405 7.04615 
31 1 0.653753 0.773443 10.1226 
32 1 2.21618 2.19796 8.56051 
33 1 1.48113 1.53432 9.29482 
16 1 4.55082 6.23062 4.49242 
17 1 3.00319 7.77154 2.99102 
18 1 3.71521 7.05955 3.68901 
25 1 0.619776 10.1646 0.831616 
26 1 2.20701 8.5714 2.17115 
27 1 1.45211 9.33209 1.57354 
4 1 4.63536 6.14292 6.12858 
5 1 3.13508 7.63391 7.61598 
6 1 3.84634 6.92736 6.91123 
37 1 0.658413 9.95547 10.0576 
38 1 2.3504 8.56495 8.34068 
39 1 1.66932 9.21671 9.11595 
49 2 0.767306 8.82224 10.6423 
13 1 6.25495 4.52481 4.51896 
14 1 7.78134 2.99703 2.99843 
15 1 7.06891 3.70686 3.70128 
28 1 10.0718 0.690177 0.70622 
29 1 8.5754 2.19954 2.20019 
30 1 9.2837 1.48475 1.4928 
1 1 6.20037 4.57634 6.1689 
2 1 7.68904 3.07984 7.69053 
3 1 6.98617 3.78624 6.97205 
40 1 10.0197 0.789651 10.0675 
41 1 8.49131 2.27368 8.48691 
42 1 9.19408 1.58605 9.21922 
7 1 6.18727 6.17379 4.57149 
8 1 7.68767 7.69311 3.08227 
9 1 6.97992 6.97252 3.78204 
43 1 10.0111 10.0521 0.779372 
44 1 8.48948 8.4826 2.27791 
45 1 9.19701 9.20987 1.58363 
22 1 6.27731 6.22128 6.21559 
23 1 7.76797 7.76096 7.76145 
24 1 7.0677 7.04927 7.0497 
34 1 9.97031 10.1611 10.1006 
35 1 8.57478 8.55613 8.55865 
36 1 9.22877 9.29537 9.29302 
ITEM: TIMESTEP
40
ITEM: NUMBER OF ATOMS
49
ITEM: BOX BOUNDS pp pp pp
0.0000000000000000e+00 1.1000000000000000e+01
0.0000000000000000e+00 1.1002000000000001e+01
0.0000000000000000e+00 1.1000000000000000e+01
ITEM: ATOMS id type x y z 
10 1 4.60811 4.5944 4.57782 
11 1 3.09013 3.08943 3.09081 
12 1 3.80417 3.80031 3.78958 
46 1 0.735368 0.758624 0.743832 
47 1 2.28178 2.28144 2.28665 
48 1 1.57124 1.58317 1.5776 
19 1 4.55817 4.50296 6.21614 
20 1 3.00716 3.0036 7.76847 
21 1 3.72254 3.69432 7.05261 
31 1 0.659172 0.755305 10.1146 
32 1 2.20369 2.1978 8.5728 
33 1 1.47829 1.51737 9.29778 
16 1 4.5485 6.22981 4.49275 
17 1 3.00009 7.77405 2.98537 
18 1 3.71443 7.06211 3.68025 
25 1 0.622278 10.1683 0.830304 
26 1 2.19128 8.58743 2.18069 
27 1 1.45132 9.3319 1.54407 
4 1 4.64243 6.13294 6.12293 
5 1 3.12329 7.65578 7.62182 
6 1 3.82853 6.94045 6.92312 
37 1 0.692551 9.90185 10.0684 
38 1 2.3458 8.57482 8.37608 
39 1 1.63392 9.25197 9.09702 
49 2 0.761311 8.84806 10.6331 
13 1 6.25234 4.52473 4.51702 
14 1 7.78024 2.99569 2.99357 
15 1 7.07589 3.70458 3.70459 
28 1 10.0753 0.689095 0.70412 
29 1 8.57967 2.19464 2.19615 
30 1 9.28753 1.48232 1.4899 
1 1 6.19411 4.58076 6.16615 
2 1 7.68781 3.07995 7.6869 
3 1 6.98605 3.78739 6.97222 
40 1 10.0339 0.769956 10.0598 
41 1 8.49343 2.26922 8.4973 
42 1 9.20476 1.5832 9.21889 
7 1 6.18363 6.17124 4.57378 
8 1 7.68545 7.68614 3.08237 
9 1 6.97741 6.97541 3.78813 
43 1 10.0109 10.0579 0.766041 
44 1 8.49412 8.48638 2.27729 
45 1 9.19286 9.21093 1.57972 
22 1 6.27261 6.21935 6.2146 
23 1 7.772 7.76553 7.76764 
24 1 7.07964 7.05187 7.05086 
34 1 9.99236 10.1463 10.1011 
35 1 8.57724 8.56448 8.57586 
36 1 9.23815 9.31474 9.29037 
ITEM: TIMESTEP
50
ITEM: NUMBER OF ATOMS
49
ITEM: BOX BOUNDS pp pp pp
0.0000000000000000e+00 1.1000000000000000e+01
0.0000000000000000e+00 1.1002000000000001e+01
0.0000000000000000e+00 1.1000000000000000e+01
ITEM: ATOMS id type x y z 
10 1 4.60814 4.59681 4.57866 
11 1 3.08996 3.09041 3.0898 
12 1 3.80479 3.79815 3.79133 
46 1 0.737502 0.757825 0.743828 
47 1 2.28155 2.28275 2.28689 
48 1 1.57162 1.58162 1.57735 
19 1 4.55702 4.50324 6.21755 
20 1 3.00752 3.00276 7.76812 
21 1 3.72244 3.69506 7.0526 
31 1 0.661885 0.750767 10.1122 
32 1 2.20455 2.19921 8.57217 
33 1 1.47859 1.51771 9.2968 
16 1 4.5479 6.23031 4.49402 
17 1 2.99999 7.77449 2.98369 
18 1 3.71362 7.06259 3.67997 
25 1 0.622652 10.1675 0.830012 
26 1 2.19014 8.58812 2.1816 
27 1 1.45095 9.33303 1.54426 
4 1 4.63743 6.13432 6.12649 
5 1 3.12253 7.6563 7.62168 
6 1 3.83091 6.94394 6.9226 
37 1 0.694588 9.89615 10.0696 
38 1 2.34435 8.57582 8.37747 
39 1 1.6319 9.25752 9.09362 
49 2 0.760391 8.84843 10.6337 
13 1 6.25346 4.52494 4.51908 
14 1 7.78167 2.99559 2.99491 
15 1 7.07326 3.7048 3.70206 
28 1 10.0758 0.689546 0.703514 
29 1 8.5799 2.19444 2.19587 
30 1 9.28792 1.48202 1.4896 
1 1 6.19328 4.58232 6.16586 
2 1 7.68869 3.07974 7.68728 
3 1 6.98588 3.78588 6.97227 
40 1 10.0357 0.768079 10.0571 
41 1 8.494 2.27066 8.49852 
42 1 9.20475 1.58052 9.21835 
7 1 6.18183 6.17158 4.57669 
8 1 7.68549 7.68706 3.08337 
9 1 6.97757 6.97291 3.78601 
43 1 10.0107 10.0574 0.765324 
44 1 8.49352 8.48645 2.27739 
45 1 9.1932 9.21109 1.57996 
22 1 6.27168 6.22006 6.21568 
23 1 7.77255 7.76498 7.76727 
24 1 7.07954 7.05161 7.05082 
34 1 9.99543 10.1457 10.0996 
35 1 8.57405 8.56693 8.57503 
36 1 9.24025 9.31088 9.29138 
ITEM: TIMESTEP
60
ITEM: NUMBER OF ATOMS
49
ITEM: BOX BOUNDS pp pp pp
0.0000000000000000e+00 1.1000000000000000e+01
0.0000000000000000e+00 1.1002000000000001e+01
0.0000000000000000e+00 1.1000000000000000e+01
ITEM: ATOMS id type x y z 
10 1 4.60823 4.59811 4.58015 
11 1 3.09071 3.09002 3.09022 
12 1 3.80446 3.79934 3.7911 
46 1 0.739283 0.755807 0.742666 
47 1 2.28057 2.28298 2.28651 
48 1 1.57199 1.58092 1.57681 
19 1 4.55575 4.5045 6.21889 
20 1 3.00795 3.00194 7.76762 
21 1 3.72241 3.69551 7.0527 
31 1 0.664691 0.746014 10.1098 
32 1 2.20434 2.20106 8.57211 
33 1 1.47995 1.51648 9.29559 
16 1 4.54677 6.23082 4.49603 
17 1 3.00051 7.77439 2.98219 
18 1 3.71311 7.06295 3.6799 
25 1 0.622878 10.1671 0.829872 
26 1 2.18897 8.58919 2.18306 
27 1 1.45029 9.33382 1.54491 
4 1 4.634 6.1368 6.12893 
5 1 3.12233 7.66002 7.62246 
6 1 3.82993 6.94657 6.92342 
37 1 0.696049 9.89062 10.0714 
38 1 2.34235 8.57691 8.37824 
39 1 1.62978 9.26344 9.09002 
49 2 0.760076 8.84863 10.6335 
13 1 6.25304 4.5252 4.51989 
14 1 7.7816 2.99573 2.99499 
15 1 7.07311 3.70482 3.70195 
28 1 10.0773 0.6895 0.701829 
29 1 8.58037 2.19375 2.19558 
30 1 9.28865 1.48214 1.48881 
1 1 6.19275 4.58315 6.16616 
2 1 7.68909 3.07906 7.68733 
3 1 6.98633 3.7855 6.97263 
40 1 10.0385 0.764736 10.0548 
41 1 8.49502 2.27144 8.5013 
42 1 9.20604 1.57738 9.21705 
7 1 6.18001 6.17128 4.57818 
8 1 7.68535 7.68582 3.08332 
9 1 6.97698 6.97314 3.78678 
43 1 10.0109 10.0579 0.764112 
44 1 8.49352 8.48711 2.27735 
45 1 9.19317 9.21129 1.57967 
22 1 6.2697 6.22061 6.21688 
23 1 7.77331 7.7642 7.76658 
24 1 7.07886 7.05135 7.0509 
34 1 9.99908 10.1429 10.0984 
35 1 8.57103 8.56887 8.57534 
36 1 9.24189 9.30922 9.29105 
ITEM: TIMESTEP
70
ITEM: NUMBER OF ATOMS
49
ITEM: BOX BOUNDS pp pp pp
0.0000000000000000e+00 1.1000000000000000e+01
0.0000000000000000e+00 1.1002000000000001e+01
0.0000000000000000e+00 1.1000000000000000e+01
ITEM: ATOMS id type x y z 
10 1 4.60808 4.60048 4.58211 
11 1 3.0918 3.09021 3.09045 
12 1 3.80443 3.79993 3.79179 
46 1 0.742863 0.751703 0.738828 
47 1 2.27858 2.28344 2.28595 
48 1 1.57294 1.57979 1.57518 
19 1 4.55399 4.50814 6.22146 
20 1 3.00895 3.00031 7.76654 
21 1 3.72236 3.69646 7.05269 
31 1 0.671434 0.736896 10.1047 
32 1 2.20358 2.20436 8.5722 
33 1 1.48248 1.51372 9.29339 
16 1 4.54345 6.23271 4.50012 
17 1 3.00186 7.77395 2.97888 
18 1 3.71229 7.06366 3.67992 
25 1 0.623114 10.1655 0.830983 
26 1 2.18717 8.59158 2.18734 
27 1 1.44862 9.33454 1.54712 
4 1 4.62769 6.14176 6.13313 
5 1 3.12194 7.67 7.62432 
6 1 3.8266 6.95171 6.92691 
37 1 0.69738 9.88125 10.0753 
38 1 2.33773 8.58026 8.37805 
39 1 1.62573 9.27535 9.08283 
49 2 0.760869 8.84789 10.633 
13 1 6.2517 4.52614 4.52229 
14 1 7.78116 2.99624 2.99504 
15 1 7.07289 3.70489 3.70227 
28 1 10.0809 0.68974 0.697182 
29 1 8.58154 2.19229 2.1949 
30 1 9.29016 1.48242 1.48691 
1 1 6.19214 4.58375 6.16672 
2 1 7.69013 3.07736 7.68766 
3 1 6.98752 3.78459 6.97391 
40 1 10.0457 0.755067 10.0479 
41 1 8.49707 2.27099 8.5059 
42 1 9.20968 1.57424 9.21691 
7 1 6.17708 6.171 4.58089 
8 1 7.68503 7.68356 3.0836 
9 1 6.97573 6.97256 3.78761 
43 1 10.0114 10.0589 0.761436 
44 1 8.49351 8.48847 2.27743 
45 1 9.19252 9.21194 1.57908 
22 1 6.26479 6.22123 6.2197 
23 1 7.77494 7.76258 7.76529 
24 1 7.0776 7.05108 7.05108 
34 1 10.0057 10.1358 10.0958 
35 1 8.56547 8.57223 8.57579 
36 1 9.24278 9.30729 9.29054 
ITEM: TIMESTEP
80
ITEM: NUMBER OF ATOMS
49
ITEM: BOX BOUNDS pp pp pp
0.0000000000000000e+00 1.1000000000000000e+01
0.0000000000000000e+00 1.1002000000000001e+01
0.0000000000000000e+00 1.1000000000000000e+01
ITEM: ATOMS id type x y z 
10 1 4.60806 4.60052 4.58216 
11 1 3.09175 3.09013 3.0905 
12 1 3.80444 3.80003 3.7916 
46 1 0.743162 0.751523 0.738297 
47 1 2.27832 2.28343 2.28582 
48 1 1.5731 1.57966 1.57495 
19 1 4.55385 4.50841 6.22159 
20 1 3.00896 3.00007 7.76634 
21 1 3.72239 3.69662 7.05298 
31 1 0.672101 0.736402 10.1045 
32 1 2.2035 2.2045 8.5721 
33 1 1.48276 1.51362 9.29335 
16 1 4.54317 6.2329 4.50041 
17 1 3.002 7.77379 2.97852 
18 1 3.71234 7.06369 3.68011 
25 1 0.623032 10.1653 0.831492 
26 1 2.18709 8.59169 2.18799 
27 1 1.44866 9.33464 1.54755 
4 1 4.62697 6.14148 6.13389 
5 1 3.12165 7.67004 7.62496 
6 1 3.82708 6.95382 6.92618 
37 1 0.69717 9.88077 10.0756 
38 1 2.33734 8.5809 8.37761 
39 1 1.62544 9.27637 9.08216 
49 2 0.761269 8.84755 10.6331 
13 1 6.25158 4.52627 4.52255 
14 1 7.78111 2.99628 2.99505 
15 1 7.07286 3.70492 3.70231 
28 1 10.0814 0.690013 0.696523 
29 1 8.58171 2.19223 2.19474 
30 1 9.29027 1.48231 1.48678 
1 1 6.1924 4.58375 6.16681 
2 1 7.69033 3.07721 7.68784 
3 1 6.98758 3.78433 6.97406 
40 1 10.0465 0.754562 10.0476 
41 1 8.49722 2.27127 8.50664 
42 1 9.21014 1.57341 9.21614 
7 1 6.17668 6.17107 4.58107 
8 1 7.68481 7.68352 3.08352 
9 1 6.97606 6.97223 3.78775 
43 1 10.0112 10.059 0.761307 
44 1 8.49329 8.48846 2.27763 
45 1 9.19247 9.21199 1.57902 
22 1 6.26432 6.22135 6.21983 
23 1 7.77499 7.76246 7.76501 
24 1 7.07742 7.05079 7.05126 
34 1 10.0057 10.135 10.0957 
35 1 8.56504 8.57232 8.57575 
36 1 9.24242 9.30738 9.29044 
ITEM: TIMESTEP
90
ITEM: NUMBER OF ATOMS
49
ITEM: BOX BOUNDS pp pp pp
0.0000000000000000e+00 1.1000000000000000e+01
0.0000000000000000e+00 1.1002000000000001e+01
0.0000000000000000e+00 1.1000000000000000e+01
ITEM: ATOMS id type x y z 
10 1 4.60806 4.60054 4.58216 
11 1 3.09174 3.09012 3.0905 
12 1 3.80443 3.80003 3.79159 
46 1 0.743229 0.751476 0.738218 
47 1 2.2783 2.28342 2.28583 
48 1 1.57311 1.57967 1.57488 
19 1 4.55383 4.50847 6.22164 
20 1 3.00896 3.00004 7.76634 
21 1 3.7224 3.69664 7.05297 
31 1 0.672233 0.736327 10.1044 
32 1 2.20349 2.20456 8.57211 
33 1 1.48282 1.51355 9.29329 
16 1 4.54312 6.23297 4.50052 
17 1 3.00205 7.77379 2.97854 
18 1 3.71233 7.06361 3.68002 
25 1 0.623002 10.1652 0.831581 
26 1 2.1871 8.59173 2.18811 
27 1 1.44863 9.33461 1.54765 
4 1 4.62689 6.1416 6.13394 
5 1 3.12167 7.67023 7.62496 
6 1 3.82704 6.95388 6.92625 
37 1 0.69713 9.88067 10.0757 
38 1 2.33727 8.58103 8.37753 
39 1 1.62537 9.27656 9.08203 
49 2 0.761354 8.8475 10.6331 
13 1 6.25157 4.52633 4.52257 
14 1 7.78111 2.99634 2.99502 
15 1 7.07282 3.70483 3.70238 
28 1 10.0814 0.690001 0.696411 
29 1 8.58171 2.19218 2.19472 
30 1 9.29036 1.48238 1.48674 
1 1 6.19249 4.58379 6.16682 
2 1 7.69042 3.07723 7.68786 
3 1 6.9875 3.78419 6.9741 
40 1 10.0466 0.754456 10.0475 
41 1 8.49723 2.27132 8.50678 
42 1 9.21026 1.57327 9.21599 
7 1 6.17674 6.17101 4.58115 
8 1 7.68493 7.68342 3.08357 
9 1 6.97583 6.97235 3.78767 
43 1 10.0111 10.059 0.761263 
44 1 8.49327 8.4885 2.27759 
45 1 9.19248 9.21198 1.57907 
22 1 6.26426 6.22136 6.21982 
23 1 7.77504 7.76244 7.76493 
24 1 7.07731 7.05073 7.05135 
34 1 10.0057 10.135 10.0956 
35 1 8.5649 8.57242 8.5757 
36 1 9.24245 9.30724 9.29048 
ITEM: TIMESTEP
97
ITEM: NUMBER OF ATOMS
49
ITEM: BOX BOUNDS pp pp pp
0.0000000000000000e+00 1.1000000000000000e+01
0.0000000000000000e+00 1.1002000000000001e+01
0.0000000000000000e+00 1.1000000000000000e+01
ITEM: ATOMS id type x y z 
10 1 4.60806 4.60054 4.58216 
11 1 3.09174 3.09012 3.0905 
12 1 3.80443 3.80003 3.79159 
46 1 0.74324 0.751471 0.738203 
47 1 2.27829 2.28342 2.28583 
48 1 1.57311 1.57967 1.57488 
19 1 4.55383 4.50848 6.22164 
20 1 3.00896 3.00003 7.76633 
21 1 3.7224 3.69665 7.05297 
31 1 0.672258 0.736313 10.1044 
32 1 2.20349 2.20457 8.57211 
33 1 1.48282 1.51354 9.29328 
16 1 4.54311 6.23297 4.50053 
17 1 3.00206 7.77378 2.97853 
18 1 3.71233 7.06362 3.68003 
25 1 0.622994 10.1652 0.831597 
26 1 2.18709 8.59173 2.18813 
27 1 1.44863 9.33461 1.54766 
4 1 4.62687 6.14161 6.13395 
5 1 3.12167 7.67025 7.62497 
6 1 3.82703 6.95391 6.92625 
37 1 0.697123 9.88065 10.0757 
38 1 2.33725 8.58105 8.37752 
39 1 1.62536 9.2766 9.08201 
49 2 0.761368 8.84749 10.6331 
13 1 6.25156 4.52633 4.52257 
14 1 7.78111 2.99634 2.99502 
15 1 7.07282 3.70483 3.70238 
28 1 10.0814 0.690006 0.696395 
29 1 8.58172 2.19218 2.19472 
30 1 9.29035 1.48237 1.48673 
1 1 6.19249 4.58378 6.16683 
2 1 7.69042 3.07722 7.68787 
3 1 6.98751 3.78419 6.97411 
40 1 10.0466 0.754438 10.0475 
41 1 8.49723 2.27132 8.50681 
42 1 9.21028 1.57325 9.21597 
7 1 6.17673 6.17101 4.58116 
8 1 7.68492 7.68341 3.08357 
9 1 6.97583 6.97234 3.78767 
43 1 10.0111 10.059 0.761256 
44 1 8.49327 8.48851 2.27759 
45 1 9.19248 9.21199 1.57908 
22 1 6.26425 6.22137 6.21983 
23 1 7.77504 7.76243 7.76492 
24 1 7.07731 7.05072 7.05135 
34 1 10.0057 10.135 10.0956 
35 1 8.56488 8.57242 8.5757 
36 1 9.24244 9.30724 9.29048 
ITEM: TIMESTEP
100
ITEM: NUMBER OF ATOMS
49
ITEM: BOX BOUNDS pp pp pp
0.0000000000000000e+00 1.1000000000000000e+01
0.0000000000000000e+00 1.1002000000000001e+01
0.0000000000000000e+00 1.1000000000000000e+01
ITEM: ATOMS id type x y z 
10 1 4.60806 4.60054 4.58216 
11 1 3.09174 3.09012 3.0905 
12 1 3.80443 3.80003 3.79159 
46 1 0.743241 0.751471 0.738202 
47 1 2.27829 2.28342 2.28583 
48 1 1.57311 1.57967 1.57488 
19 1 4.55383 4.50848 6.22164 
20 1 3.00896 3.00003 7.76633 
21 1 3.7224 3.69665 7.05297 
31 1 0.672258 0.736312 10.1044 
32 1 2.20349 2.20457 8.57211 
33 1 1.48282 1.51354 9.29328 
16 1 4.54311 6.23297 4.50053 
17 1 3.00206 7.77378 2.97853 
18 1 3.71233 7.06362 3.68003 
25 1 0.622993 10.1652 0.831597 
26 1 2.18709 8.59173 2.18813 
27 1 1.44863 9.33462 1.54767 
4 1 4.62687 6.14161 6.13395 
5 1 3.12167 7.67025 7.62497 
6 1 3.82703 6.95391 6.92625 
37 1 0.697123 9.88065 10.0757 
38 1 2.33725 8.58106 8.37751 
39 1 1.62536 9.2766 9.08201 
49 2 0.761368 8.84749 10.6331 
13 1 6.25156 4.52633 4.52257 
14 1 7.78111 2.99634 2.99502 
15 1 7.07282 3.70483 3.70238 
28 1 10.0814 0.690007 0.696394 
29 1 8.58172 2.19218 2.19472 
30 1 9.29035 1.48237 1.48673 
1 1 6.19249 4.58378 6.16683 
2 1 7.69042 3.07722 7.68787 
3 1 6.98751 3.78419 6.97411 
40 1 10.0466 0.754438 10.0475 
41 1 8.49723 2.27132 8.50681 
42 1 9.21028 1.57324 9.21597 
7 1 6.17673 6.17101 4.58116 
8 1 7.68492 7.68341 3.08357 
9 1 6.97583 6.97234 3.78767 
43 1 10.0111 10.059 0.761255 
44 1 8.49327 8.48851 2.27759 
45 1 9.19248 9.21199 1.57908 
22 1 6.26425 6.22137 6.21983 
23 1 7.77504 7.76243 7.76492 
24 1 7.07731 7.05072 7.05135 
34 1 10.0057 10.135 10.0956 
35 1 8.56488 8.57242 8.5757 
36 1 9.24244 9.30724 9.29048 
ITEM: TIMESTEP
110
ITEM: NUMBER OF ATOMS
49
ITEM: BOX BOUNDS pp pp pp
-5.2268565769908034e-03 1.1005226856576989e+01
-4.9450318879840655e-03 1.1006945031887987e+01
-5.5000000000000005e-03 1.1005500000000005e+01
ITEM: ATOMS id type x y z 
10 1 4.60725 4.59978 4.58129 
11 1 3.08947 3.08797 3.0881 
12 1 3.8028 3.79849 3.78987 
46 1 0.738692 0.747167 0.733409 
47 1 2.27521 2.28051 2.2826 
48 1 1.56936 1.57612 1.57092 
19 1 4.55296 4.50763 6.22234 
20 1 3.00661 2.9978 7.76858 
21 1 3.72074 3.69506 7.0545 
31 1 0.66763 0.732014 10.1091 
32 1 2.20035 2.20159 8.57518 
33 1 1.479 1.50997 9.29707 
16 1 4.54223 6.2336 4.49957 
17 1 2.9997 7.7758 2.97602 
18 1 3.71066 7.06499 3.67823 
25 1 0.618308 10.1694 0.826921 
26 1 2.18393 8.59453 2.18481 
27 1 1.44479 9.33805 1.54374 
4 1 4.62607 6.14215 6.13455 
5 1 3.11942 7.6722 7.62708 
6 1 3.82543 6.95523 6.9277 
37 1 0.692545 9.8846 10.0803 
38 1 2.33422 8.58385 8.38041 
39 1 1.6217 9.27998 9.08557 
49 2 0.75687 8.85049 10.6382 
13 1 6.25224 4.52549 4.52164 
14 1 7.78326 2.9941 2.99253 
15 1 7.07429 3.70325 3.70061 
28 1 10.0858 0.685637 0.691541 
29 1 8.58466 2.18919 2.1914 
30 1 9.29394 1.47877 1.48273 
1 1 6.19311 4.583 6.16745 
2 1 7.69249 3.07505 7.69005 
3 1 6.98894 3.78263 6.97559 
40 1 10.051 0.750139 10.052 
41 1 8.5001 2.26841 8.50984 
42 1 9.21384 1.56968 9.2197 
7 1 6.17733 6.17157 4.58028 
8 1 7.68699 7.68536 3.08117 
9 1 6.97725 6.97368 3.78594 
43 1 10.0154 10.0632 0.756496 
44 1 8.49613 8.49121 2.27435 
45 1 9.19601 9.21536 1.57513 
22 1 6.26493 6.22198 6.22052 
23 1 7.77718 7.76445 7.76717 
24 1 7.07878 7.05209 7.05288 
34 1 10.01 10.1392 10.1003 
35 1 8.5678 8.57519 8.57878 
36 1 9.24597 9.31065 9.29426 
ITEM: TIMESTEP
120
ITEM: NUMBER OF ATOMS
49
ITEM: BOX BOUNDS pp pp pp
-7.5205936172120357e-03 1.1007520593617212e+01
-4.3576196965895726e-03 1.1006357619696594e+01
-1.1000000000000001e-02 1.1011000000000010e+01
ITEM: ATOMS id type x y z 
10 1 4.60754 4.60052 4.58103 
11 1 3.08864 3.08842 3.08589 
12 1 3.80186 3.79841 3.7879 
46 1 0.73625 0.747183 0.728162 
47 1 2.27351 2.28052 2.27903 
48 1 1.56744 1.57624 1.56668 
19 1 4.55308 4.50828 6.22257 
20 1 3.00591 2.99837 7.77049 
21 1 3.72032 3.69558 7.05575 
31 1 0.664926 0.73234 10.1144 
32 1 2.19884 2.20174 8.57838 
33 1 1.47735 1.51056 9.30086 
16 1 4.54231 6.23305 4.4991 
17 1 2.99901 7.77522 2.97381 
18 1 3.71022 7.06451 3.6767 
25 1 0.615504 10.1697 0.822079 
26 1 2.18238 8.59438 2.18132 
27 1 1.44328 9.33746 1.54024 
4 1 4.62628 6.14149 6.1346 
5 1 3.11863 7.67189 7.62901 
6 1 3.82449 6.95539 6.92939 
37 1 0.690354 9.88431 10.0851 
38 1 2.33254 8.58388 8.38356 
39 1 1.62036 9.27932 9.08878 
49 2 0.754955 8.85011 10.6433 
13 1 6.25202 4.52613 4.52122 
14 1 7.78387 2.99472 2.99035 
15 1 7.07463 3.70374 3.69915 
28 1 10.0884 0.685434 0.686014 
29 1 8.58617 2.18933 2.18787 
30 1 9.29527 1.47944 1.47896 
1 1 6.19275 4.58374 6.16747 
2 1 7.69322 3.07549 7.69207 
3 1 6.98982 3.78255 6.9773 
40 1 10.0534 0.750168 10.057 
41 1 8.50168 2.26844 8.51323 
42 1 9.21575 1.56978 9.22364 
7 1 6.17696 6.17083 4.58003 
8 1 7.6877 7.6849 3.07895 
9 1 6.97809 6.97377 3.78399 
43 1 10.0178 10.0632 0.751453 
44 1 8.49769 8.49123 2.27078 
45 1 9.19789 9.21535 1.57091 
22 1 6.2647 6.22139 6.22075 
23 1 7.77781 7.76386 7.76908 
24 1 7.07912 7.05158 7.05412 
34 1 10.012 10.1393 10.1055 
35 1 8.56924 8.57501 8.582 
36 1 9.24719 9.3101 9.29786 
ITEM: TIMESTEP
130
ITEM: NUMBER OF ATOMS
49
ITEM: BOX BOUNDS pp pp pp
-9.7020507148053263e-03 1.1009702050714806e+01
-3.1392924071870425e-03 1.1005139292407190e+01
-1.6500000000000001e-02 1.1016500000000015e+01
ITEM: ATOMS id type x y z 
10 1 4.60795 4.60149 4.58089 
11 1 3.08787 3.08915 3.08367 
12 1 3.80094 3.79851 3.78592 
46 1 0.733829 0.747682 0.722783 
47 1 2.27169 2.28069 2.27525 
48 1 1.56567 1.57692 1.56254 
19 1 4.55333 4.50917 6.2227 
20 1 3.00547 2.99942 7.77221 
21 1 3.71986 3.69623 7.05705 
31 1 0.662185 0.733169 10.1199 
32 1 2.19733 2.2022 8.58163 
33 1 1.4758 1.51167 9.30462 
16 1 4.54251 6.23229 4.49874 
17 1 2.99858 7.77415 2.97177 
18 1 3.70975 7.06395 3.67514 
25 1 0.612643 10.1696 0.817222 
26 1 2.18088 8.59387 2.17791 
27 1 1.44194 9.33639 1.53671 
4 1 4.6266 6.14065 6.13455 
5 1 3.11792 7.67133 7.63092 
6 1 3.82356 6.95541 6.93108 
37 1 0.688237 9.88356 10.0898 
38 1 2.33091 8.58357 8.38669 
39 1 1.61903 9.27828 9.09206 
49 2 0.753162 8.84939 10.6484 
13 1 6.25167 4.52698 4.52094 
14 1 7.78423 2.99581 2.98838 
15 1 7.07501 3.70438 3.6976 
28 1 10.091 0.685669 0.680331 
29 1 8.58761 2.18985 2.18434 
30 1 9.29654 1.48059 1.47519 
1 1 6.19228 4.58469 6.16735 
2 1 7.69393 3.07619 7.69406 
3 1 6.99066 3.78267 6.9791 
40 1 10.056 0.750626 10.062 
41 1 8.50341 2.26864 8.51681 
42 1 9.2175 1.57043 9.22755 
7 1 6.17642 6.16992 4.5799 
8 1 7.68834 7.68421 3.07671 
9 1 6.97899 6.97367 3.78204 
43 1 10.0201 10.0628 0.746347 
44 1 8.49938 8.49112 2.26701 
45 1 9.19961 9.21483 1.5668 
22 1 6.26433 6.22059 6.22088 
23 1 7.7782 7.7628 7.7708 
24 1 7.07948 7.05099 7.05542 
34 1 10.014 10.139 10.1108 
35 1 8.5706 8.57451 8.58519 
36 1 9.24827 9.30905 9.30146 
ITEM: TIMESTEP
140
ITEM: NUMBER OF ATOMS
49
ITEM: BOX BOUNDS pp pp pp
-1.2080855029495180e-02 1.1012080855029499e+01
-1.8628874891067810e-03 1.1003862887489108e+01
-2.1999999999999985e-02 1.1022000000000020e+01
ITEM: ATOMS id type x y z 
10 1 4.60841 4.60256 4.58084 
11 1 3.08701 3.08992 3.08144 
12 1 3.79993 3.79859 3.78394 
46 1 0.731144 0.748212 0.717287 
47 1 2.2696 2.28078 2.27136 
48 1 1.56386 1.5777 1.55842 
19 1 4.55365 4.51018 6.22274 
20 1 3.00509 3.00064 7.77378 
21 1 3.71928 3.69685 7.05839 
31 1 0.659181 0.733988 10.1255 
32 1 2.19567 2.20261 8.58493 
33 1 1.47411 1.51292 9.30839 
16 1 4.54276 6.23144 4.49851 
17 1 2.9982 7.77292 2.96988 
18 1 3.70919 7.0634 3.67353 
25 1 0.609559 10.1695 0.812292 
26 1 2.17934 8.59335 2.17454 
27 1 1.44037 9.33519 1.53326 
4 1 4.62695 6.13972 6.13442 
5 1 3.11713 7.67075 7.63282 
6 1 3.82259 6.95546 6.93276 
37 1 0.685937 9.8828 10.0946 
38 1 2.32914 8.58325 8.38983 
39 1 1.61748 9.27724 9.0954 
49 2 0.75123 8.84871 10.6535 
13 1 6.25123 4.52794 4.52076 
14 1 7.78452 2.99708 2.98654 
15 1 7.07552 3.70498 3.69603 
28 1 10.0939 0.685886 0.674519 
29 1 8.58916 2.19042 2.18081 
30 1 9.29794 1.48178 1.47144 
1 1 6.19171 4.58575 6.1672 
2 1 7.69467 3.07695 7.69612 
3 1 6.99166 3.78272 6.9808 
40 1 10.0588 0.751045 10.0672 
41 1 8.50539 2.26872 8.52055 
42 1 9.21937 1.57116 9.2314 
7 1 6.17586 6.1689 4.57989 
8 1 7.68913 7.68345 3.07451 
9 1 6.97982 6.97363 3.78001 
43 1 10.0226 10.0625 0.741197 
44 1 8.50134 8.49111 2.2631 
45 1 9.20137 9.21425 1.56272 
22 1 6.26387 6.21971 6.2209 
23 1 7.77853 7.76158 7.77235 
24 1 7.07995 7.05039 7.05678 
34 1 10.0162 10.1388 10.1163 
35 1 8.57203 8.57396 8.58842 
36 1 9.24948 9.30797 9.30497 
ITEM: TIMESTEP
150
ITEM: NUMBER OF ATOMS
49
ITEM: BOX BOUNDS pp pp pp
-1.4782708431939897e-02 1.1014782708431945e+01
-1.3047658592481776e-03 1.1003304765859248e+01
-2.7153865148377910e-02 1.1027153865148401e+01
ITEM: ATOMS id type x y z 
10 1 4.60882 4.60342 4.5808 
11 1 3.08605 3.09031 3.07933 
12 1 3.79872 3.79854 3.78211 
46 1 0.728209 0.748163 0.712055 
47 1 2.26737 2.28044 2.26769 
48 1 1.56181 1.57804 1.55456 
19 1 4.55388 4.51104 6.22272 
20 1 3.00455 3.00152 7.77518 
21 1 3.7186 3.69721 7.05972 
31 1 0.655912 0.734245 10.1307 
32 1 2.19377 2.20264 8.58808 
33 1 1.47223 1.51353 9.31186 
16 1 4.54295 6.2307 4.49834 
17 1 2.99768 7.77198 2.96815 
18 1 3.7085 7.06307 3.67201 
25 1 0.606202 10.1698 0.80766 
26 1 2.17761 8.59318 2.17145 
27 1 1.43863 9.33453 1.53002 
4 1 4.62721 6.13897 6.13429 
5 1 3.11623 7.67052 7.63458 
6 1 3.82151 6.95561 6.93435 
37 1 0.683374 9.8826 10.099 
38 1 2.32718 8.58333 8.39278 
39 1 1.61564 9.27671 9.09859 
49 2 0.749036 8.84852 10.6582 
13 1 6.25088 4.52876 4.52065 
14 1 7.78498 2.99803 2.98488 
15 1 7.07607 3.70529 3.69451 
28 1 10.097 0.685526 0.669107 
29 1 8.59093 2.19057 2.17757 
30 1 9.29946 1.48246 1.46779 
1 1 6.19128 4.5866 6.16698 
2 1 7.69562 3.07734 7.69796 
3 1 6.99263 3.78262 6.98256 
40 1 10.0619 0.750853 10.072 
41 1 8.50755 2.26839 8.52409 
42 1 9.22143 1.57141 9.23499 
7 1 6.17537 6.16804 4.57989 
8 1 7.69004 7.68302 3.07243 
9 1 6.98077 6.97375 3.77813 
43 1 10.0253 10.0627 0.736334 
44 1 8.50344 8.4915 2.25939 
45 1 9.20335 9.21412 1.55895 
22 1 6.26348 6.21892 6.22089 
23 1 7.77901 7.76062 7.77376 
24 1 7.08049 7.05007 7.05806 
34 1 10.0187 10.1391 10.1213 
35 1 8.57367 8.57381 8.59136 
36 1 9.25081 9.30735 9.30837 
ITEM: TIMESTEP
160
ITEM: NUMBER OF ATOMS
49
ITEM: BOX BOUNDS pp pp pp
-1.7310272099326902e-02 1.1017310272099333e+01
-1.2010280654441608e-03 1.1003201028065444e+01
-3.1441251430961818e-02 1.1031441251430989e+01
ITEM: ATOMS id type x y z 
10 1 4.60909 4.60412 4.58082 
11 1 3.08509 3.09051 3.07759 
12 1 3.79769 3.79831 3.78056 
46 1 0.72547 0.74782 0.707595 
47 1 2.26529 2.27991 2.26459 
48 1 1.55991 1.57805 1.55134 
19 1 4.55409 4.51175 6.22266 
20 1 3.00404 3.00214 7.77632 
21 1 3.71791 3.69738 7.06077 
31 1 0.652931 0.734085 10.1351 
32 1 2.19201 2.20235 8.59071 
33 1 1.47041 1.5139 9.3148 
16 1 4.54313 6.23011 4.49828 
17 1 2.9972 7.7713 2.96676 
18 1 3.70782 7.06286 3.67075 
25 1 0.603119 10.1704 0.80372 
26 1 2.17601 8.59319 2.16887 
27 1 1.437 9.33429 1.52749 
4 1 4.6274 6.13835 6.13418 
5 1 3.11538 7.67046 7.63605 
6 1 3.82051 6.9559 6.93561 
37 1 0.680993 9.88275 10.1026 
38 1 2.32534 8.58363 8.39527 
39 1 1.61389 9.27651 9.10126 
49 2 0.746998 8.84865 10.6621 
13 1 6.25053 4.52939 4.52063 
14 1 7.78539 2.99867 2.98353 
15 1 7.0767 3.70549 3.69326 
28 1 10.0998 0.684888 0.664483 
29 1 8.59249 2.19046 2.1748 
30 1 9.30105 1.48277 1.46491 
1 1 6.19089 4.58726 6.16681 
2 1 7.69648 3.07751 7.69953 
3 1 6.99359 3.7824 6.98397 
40 1 10.0649 0.750321 10.076 
41 1 8.50954 2.26784 8.5271 
42 1 9.22336 1.57139 9.23798 
7 1 6.17493 6.16736 4.57989 
8 1 7.69086 7.68279 3.07067 
9 1 6.98174 6.97394 3.77662 
43 1 10.0278 10.0633 0.73227 