LAMMPS (3 Mar 2020)
Reading data file ...
  orthogonal box = (0 0 0) to (11 11.002 11)
  2 by 2 by 2 MPI processor grid
  reading atoms ...
  49 atoms
  read_data CPU = 0.0261889 secs
WARNING: Changed valency_val to valency_boc for X (../reaxc_ffield.cpp:315)
WARNING: Using 'neigh_modify every 1 delay 0 check yes' setting during minimization (../min.cpp:190)
Neighbor list info ...
  update every 1 steps, delay 0 steps, check yes
  max neighbors/atom: 2000, page size: 100000
  master list distance cutoff = 12
  ghost atom cutoff = 12
  binsize = 6, bins = 2 2 2
  2 neighbor lists, perpetual/occasional/extra = 2 0 0
  (1) pair reax/c, perpetual
      attributes: half, newton off, ghost
      pair build: half/bin/newtoff/ghost
      stencil: half/ghost/bin/3d/newtoff
      bin: standard
  (2) fix qeq/reax, perpetual, copy from (1)
      attributes: half, newton off, ghost
      pair build: copy
      stencil: none
      bin: none
Setting up cg style minimization ...
  Unit style    : real
  Current step  : 0
Per MPI rank memory allocation (min/avg/max) = 24.8 | 24.88 | 24.96 Mbytes
Step Temp E_pair E_mol TotEng Press 
       0            0   -8531.3271            0   -8531.3271     109760.1 
      97            0   -8717.4275            0   -8717.4275    62836.523 
Loop time of 4.22969 on 8 procs for 97 steps with 49 atoms

98.9% CPU use with 8 MPI tasks x no OpenMP threads

Minimization stats:
  Stopping criterion = energy tolerance
  Energy initial, next-to-last, final = 
        -8531.32710245      -8717.4274788     -8717.42753063
  Force two-norm initial, final = 1102.66 77.3634
  Force max component initial, final = 167.186 21.9408
  Final line search alpha, max atom move = 1.04822e-07 2.29989e-06
  Iterations, force evaluations = 97 867

MPI task timing breakdown:
Section |  min time  |  avg time  |  max time  |%varavg| %total
---------------------------------------------------------------
Pair    | 3.567      | 3.609      | 3.6459     |   1.4 | 85.32
Neigh   | 0          | 0          | 0          |   0.0 |  0.00
Comm    | 0.049255   | 0.08619    | 0.12778    |   8.8 |  2.04
Output  | 0.00023472 | 0.00030633 | 0.00050186 |   0.0 |  0.01
Modify  | 0.52553    | 0.5259     | 0.52631    |   0.0 | 12.43
Other   |            | 0.008341   |            |       |  0.20

Nlocal:    6.125 ave 7 max 6 min
Histogram: 7 0 0 0 0 0 0 0 0 1
Nghost:    948.375 ave 953 max 944 min
Histogram: 4 0 0 0 0 0 0 0 1 3
Neighs:    1698 ave 1944 max 1660 min
Histogram: 7 0 0 0 0 0 0 0 0 1

Total # of neighbors = 13584
Ave neighs/atom = 277.224
Neighbor list builds = 0
Dangerous builds = 0
WARNING: Using 'neigh_modify every 1 delay 0 check yes' setting during minimization (../min.cpp:190)
Setting up cg style minimization ...
  Unit style    : real
  Current step  : 97
Per MPI rank memory allocation (min/avg/max) = 24.8 | 24.88 | 24.96 Mbytes
Step Temp E_pair E_mol TotEng Press 
      97            0   -8717.4275            0   -8717.4275    62836.527 
     100            0   -8717.4279            0   -8717.4279    62835.574 
Loop time of 0.271313 on 8 procs for 3 steps with 49 atoms

98.9% CPU use with 8 MPI tasks x no OpenMP threads

Minimization stats:
  Stopping criterion = energy tolerance
  Energy initial, next-to-last, final = 
         -8717.4275296      -8717.4278135     -8717.42786001
  Force two-norm initial, final = 77.3634 72.0842
  Force max component initial, final = 21.9408 18.1541
  Final line search alpha, max atom move = 1.69389e-08 3.0751e-07
  Iterations, force evaluations = 3 57

MPI task timing breakdown:
Section |  min time  |  avg time  |  max time  |%varavg| %total
---------------------------------------------------------------
Pair    | 0.23327    | 0.23795    | 0.24216    |   0.7 | 87.70
Neigh   | 0          | 0          | 0          |   0.0 |  0.00
Comm    | 0.0028288  | 0.0070203  | 0.011686   |   3.8 |  2.59
Output  | 0          | 0          | 0          |   0.0 |  0.00
Modify  | 0.025748   | 0.025777   | 0.025807   |   0.0 |  9.50
Other   |            | 0.0005702  |            |       |  0.21

Nlocal:    6.125 ave 7 max 6 min
Histogram: 7 0 0 0 0 0 0 0 0 1
Nghost:    943.875 ave 953 max 935 min
Histogram: 4 0 0 0 0 0 0 0 0 4
Neighs:    1703.75 ave 1951 max 1666 min
Histogram: 7 0 0 0 0 0 0 0 0 1

Total # of neighbors = 13630
Ave neighs/atom = 278.163
Neighbor list builds = 0
Dangerous builds = 0
WARNING: Using 'neigh_modify every 1 delay 0 check yes' setting during minimization (../min.cpp:190)
Setting up cg style minimization ...
  Unit style    : real
  Current step  : 100
WARNING: Energy due to 3 extra global DOFs will be included in minimizer energies
Per MPI rank memory allocation (min/avg/max) = 24.8 | 24.88 | 24.96 Mbytes
Step Temp E_pair E_mol TotEng Press Volume 
     100            0   -8717.4279            0   -8717.4279    62835.575     1331.242 
     319            0   -8730.8083            0   -8730.8083     1340.799     1357.892 
Loop time of 1.48247 on 8 procs for 219 steps with 49 atoms

98.8% CPU use with 8 MPI tasks x no OpenMP threads

Minimization stats:
  Stopping criterion = energy tolerance
  Energy initial, next-to-last, final = 
        -8717.42785978     -8730.80832876     -8730.80834504
  Force two-norm initial, final = 2114.4 69.6477
  Force max component initial, final = 1237.5 26.5632
  Final line search alpha, max atom move = 2.01655e-06 5.3566e-05
  Iterations, force evaluations = 219 322

MPI task timing breakdown:
Section |  min time  |  avg time  |  max time  |%varavg| %total
---------------------------------------------------------------
Pair    | 1.3028     | 1.3222     | 1.3402     |   1.0 | 89.19
Neigh   | 0          | 0          | 0          |   0.0 |  0.00
Comm    | 0.017134   | 0.035179   | 0.054541   |   6.3 |  2.37
Output  | 0.00045196 | 0.00062051 | 0.0010456  |   0.0 |  0.04
Modify  | 0.11522    | 0.11539    | 0.11568    |   0.0 |  7.78
Other   |            | 0.009111   |            |       |  0.61

Nlocal:    6.125 ave 7 max 6 min
Histogram: 7 0 0 0 0 0 0 0 0 1
Nghost:    943.875 ave 953 max 935 min
Histogram: 4 0 0 0 0 0 0 0 0 4
Neighs:    1703.75 ave 1951 max 1666 min
Histogram: 7 0 0 0 0 0 0 0 0 1

Total # of neighbors = 13630
Ave neighs/atom = 278.163
Neighbor list builds = 0
Dangerous builds = 0
WARNING: Using 'neigh_modify every 1 delay 0 check yes' setting during minimization (../min.cpp:190)
Setting up cg style minimization ...
  Unit style    : real
  Current step  : 319
Per MPI rank memory allocation (min/avg/max) = 24.8 | 24.88 | 24.96 Mbytes
Step Temp E_pair E_mol TotEng Press 
     319            0   -8730.8083            0   -8730.8083    1340.7928 
     385            0   -8732.2998            0   -8732.2998    1808.8553 
Loop time of 3.33533 on 8 procs for 66 steps with 49 atoms

99.1% CPU use with 8 MPI tasks x no OpenMP threads

Minimization stats:
  Stopping criterion = energy tolerance
  Energy initial, next-to-last, final = 
         -8730.8083463      -8732.2997443     -8732.29976407
  Force two-norm initial, final = 52.5698 47.6088
  Force max component initial, final = 13.748 17.6192
  Final line search alpha, max atom move = 5.13428e-08 9.04621e-07
  Iterations, force evaluations = 66 765

MPI task timing breakdown:
Section |  min time  |  avg time  |  max time  |%varavg| %total
---------------------------------------------------------------
Pair    | 2.7767     | 2.8246     | 2.8902     |   2.1 | 84.69
Neigh   | 0          | 0          | 0          |   0.0 |  0.00
Comm    | 0.036276   | 0.10159    | 0.14959    |  11.1 |  3.05
Output  | 0.00017866 | 0.0002231  | 0.00035634 |   0.0 |  0.01
Modify  | 0.40205    | 0.4024     | 0.40288    |   0.1 | 12.06
Other   |            | 0.006476   |            |       |  0.19

Nlocal:    6.125 ave 7 max 6 min
Histogram: 7 0 0 0 0 0 0 0 0 1
Nghost:    892.125 ave 902 max 881 min
Histogram: 1 2 1 0 0 0 0 0 2 2
Neighs:    1678.5 ave 1927 max 1640 min
Histogram: 7 0 0 0 0 0 0 0 0 1

Total # of neighbors = 13428
Ave neighs/atom = 274.041
Neighbor list builds = 0
Dangerous builds = 0
WARNING: Using 'neigh_modify every 1 delay 0 check yes' setting during minimization (../min.cpp:190)
Setting up cg style minimization ...
  Unit style    : real
  Current step  : 385
WARNING: Energy due to 3 extra global DOFs will be included in minimizer energies
Per MPI rank memory allocation (min/avg/max) = 24.8 | 24.88 | 24.96 Mbytes
Step Temp E_pair E_mol TotEng Press Volume 
     385            0   -8732.2998            0   -8732.2998    1808.8599     1357.892 
     419            0   -8732.3663            0   -8732.3663   -141.23713    1358.2694 
Loop time of 0.388463 on 8 procs for 34 steps with 49 atoms

99.1% CPU use with 8 MPI tasks x no OpenMP threads

Minimization stats:
  Stopping criterion = energy tolerance
  Energy initial, next-to-last, final = 
        -8732.29976303     -8732.36617196     -8732.36625329
  Force two-norm initial, final = 82.2895 49.8523
  Force max component initial, final = 50.0459 13.4294
  Final line search alpha, max atom move = 5.95656e-08 7.9993e-07
  Iterations, force evaluations = 34 92

MPI task timing breakdown:
Section |  min time  |  avg time  |  max time  |%varavg| %total
---------------------------------------------------------------
Pair    | 0.33343    | 0.34283    | 0.35172    |   1.0 | 88.25
Neigh   | 0          | 0          | 0          |   0.0 |  0.00
Comm    | 0.0042553  | 0.013107   | 0.022487   |   4.9 |  3.37
Output  | 6.6945e-05 | 8.5109e-05 | 0.00013944 |   0.0 |  0.02
Modify  | 0.030144   | 0.030189   | 0.030238   |   0.0 |  7.77
Other   |            | 0.002249   |            |       |  0.58

Nlocal:    6.125 ave 7 max 6 min
Histogram: 7 0 0 0 0 0 0 0 0 1
Nghost:    892.125 ave 908 max 872 min
Histogram: 1 0 0 1 2 1 0 0 2 1
Neighs:    1678.5 ave 1929 max 1638 min
Histogram: 7 0 0 0 0 0 0 0 0 1

Total # of neighbors = 13428
Ave neighs/atom = 274.041
Neighbor list builds = 0
Dangerous builds = 0
WARNING: Using 'neigh_modify every 1 delay 0 check yes' setting during minimization (../min.cpp:190)
Setting up cg style minimization ...
  Unit style    : real
  Current step  : 419
Per MPI rank memory allocation (min/avg/max) = 24.8 | 24.88 | 24.96 Mbytes
Step Temp E_pair E_mol TotEng Press 
     419            0   -8732.3663            0   -8732.3663   -141.23985 
     420            0   -8732.3663            0   -8732.3663   -140.68759 
Loop time of 0.0853349 on 8 procs for 1 steps with 49 atoms

99.1% CPU use with 8 MPI tasks x no OpenMP threads

Minimization stats:
  Stopping criterion = energy tolerance
  Energy initial, next-to-last, final = 
        -8732.36625387     -8732.36625387      -8732.3663388
  Force two-norm initial, final = 49.0944 48.7076
  Force max component initial, final = 13.4294 13.2157
  Final line search alpha, max atom move = 1.13622e-07 1.5016e-06
  Iterations, force evaluations = 1 19

MPI task timing breakdown:
Section |  min time  |  avg time  |  max time  |%varavg| %total
---------------------------------------------------------------
Pair    | 0.071717   | 0.072811   | 0.075163   |   0.4 | 85.32
Neigh   | 0          | 0          | 0          |   0.0 |  0.00
Comm    | 0.00084812 | 0.0031958  | 0.0042934  |   1.9 |  3.75
Output  | 0          | 0          | 0          |   0.0 |  0.00
Modify  | 0.0090828  | 0.0090934  | 0.0091099  |   0.0 | 10.66
Other   |            | 0.0002344  |            |       |  0.27

Nlocal:    6.125 ave 7 max 6 min
Histogram: 7 0 0 0 0 0 0 0 0 1
Nghost:    887.625 ave 902 max 872 min
Histogram: 1 1 0 0 1 2 0 1 0 2
Neighs:    1679.5 ave 1928 max 1640 min
Histogram: 7 0 0 0 0 0 0 0 0 1

Total # of neighbors = 13436
Ave neighs/atom = 274.204
Neighbor list builds = 0
Dangerous builds = 0
Setting up Verlet run ...
  Unit style    : real
  Current step  : 0
  Time step     : 0.25
Per MPI rank memory allocation (min/avg/max) = 23.68 | 23.76 | 23.83 Mbytes
Step Temp TotEng KinEng PotEng Press 
       0          300   -8689.4427    42.923665   -8732.3663    1303.8986 
     200    417.08686   -8671.0327    59.676322    -8730.709    6517.9819 
     400    314.09127   -8689.9766    44.939828   -8734.9164   -39706.379 
     600    269.31153   -8693.8477    38.532792   -8732.3805    13736.538 
     800    310.88753   -8685.0869     44.48144   -8729.5684    1231.5562 
    1000    317.61274   -8672.9807    45.443676   -8718.4244     1932.154 
    1200     261.8839   -8690.3407    37.470056   -8727.8107    -14257.64 
    1400    319.97338   -8686.7236    45.781433    -8732.505    -6927.967 
    1600    292.86319   -8688.7148    41.902538   -8730.6173    47294.809 
    1800    329.70814   -8674.6964    47.174272   -8721.8707    10656.338 
    2000    327.42533   -8685.4979    46.847651   -8732.3455    40744.782 
    2200    281.60092   -8692.5644    40.291145   -8732.8555    3855.4053 
    2400     282.8793   -8686.5387    40.474054   -8727.0127   -34675.825 
    2600    352.20152   -8673.0677      50.3926   -8723.4603   -17692.915 
    2800    298.18757   -8692.0015    42.664345   -8734.6658   -9143.2343 
    3000    268.23041     -8687.71    38.378108   -8726.0881   -16589.754 
    3200    316.06773   -8675.0115    45.222617   -8720.2342      52491.9 
    3400    296.66814   -8687.6918    42.446946   -8730.1387    -24480.56 
    3600    302.52365   -8691.6089    43.284746   -8734.8936   -35698.311 
    3800    298.18542   -8674.7051    42.664037   -8717.3691    -35811.82 
    4000    257.25782   -8689.5814    36.808161   -8726.3896   -25220.503 
    4200    317.16564   -8688.7067    45.379706   -8734.0864    29104.611 
    4400    286.24495   -8681.4268    40.955608   -8722.3824    20590.573 
    4600    298.96131   -8677.1711     42.77505   -8719.9461   -3533.0098 
    4800    293.47555   -8695.1208    41.990154    -8737.111   -5280.6554 
    5000    290.51226   -8692.8467    41.566169   -8734.4129    5105.0348 
    5200    303.45041   -8685.5569    43.417345   -8728.9743    4768.0681 
    5400    280.49672   -8685.2219    40.133157   -8725.3551    1114.9387 
    5600    229.34281   -8701.7598    32.814113   -8734.5739     26254.67 
    5800    254.73332   -8690.5853    36.446959   -8727.0322    14037.502 
    6000    330.63654   -8682.6584    47.307107   -8729.9655   -5729.1763 
    6200    257.45559   -8697.7407    36.836458   -8734.5771   -19101.736 
    6400    290.20219   -8688.0272    41.521805   -8729.5491    20407.918 
    6600    261.32235   -8687.4168     37.38971   -8724.8066    8227.8161 
    6800    388.43178   -8675.8752    55.576385   -8731.4516    48995.926 
    7000    312.16644   -8686.3249    44.664425   -8730.9893    20762.758 
    7200    273.06931   -8688.9531    39.070452   -8728.0235     13037.51 
    7400    345.42873   -8677.4888    49.423556   -8726.9123     10341.78 
    7600    299.14927   -8688.0903    42.801944   -8730.8923   -7522.1678 
    7800     255.6308   -8694.8585    36.575369   -8731.4338    990.64675 
    8000    270.91707   -8681.4753    38.762512   -8720.2379   -17279.286 
    8200    302.26597   -8671.5522    43.247877   -8714.8001    -39901.38 
    8400    287.59519   -8689.3253    41.148799   -8730.4741   -24047.578 
    8600    270.05214   -8695.9836    38.638759   -8734.6223    20759.358 
    8800    324.67345   -8676.0797    46.453914   -8722.5336    -2140.201 
    9000    314.84879   -8687.9788    45.048214    -8733.027    18939.096 
    9200    288.43018   -8690.5158    41.268268   -8731.7841    3932.4788 
    9400    327.98162   -8673.5995    46.927244   -8720.5268   -15879.244 
    9600    246.33467   -8685.4692     35.24529   -8720.7145    30993.192 
    9800    313.40862   -8686.4675    44.842155   -8731.3097    15773.205 
   10000    268.31072   -8693.4356    38.389598   -8731.8252    19290.885 
   10200    321.67962    -8684.298     46.02556   -8730.3236   -17805.529 
   10400     321.3747   -8685.2377    45.981932   -8731.2197    4131.2994 
   10600    243.51604   -8694.7983    34.842003   -8729.6403   -33429.338 
   10800    308.95006   -8690.2501    44.204229   -8734.4544   -23913.887 
   11000    294.38001    -8680.331    42.119563   -8722.4506    16314.779 
   11200    259.11978   -8696.3341    37.074569   -8733.4086    1630.1359 
   11400    307.91972   -8692.6142    44.056809    -8736.671   -7949.6236 
   11600    279.61433   -8680.8099    40.006905   -8720.8168    995.06509 
   11800    396.01467   -8667.2491    56.661336   -8723.9105   -11572.932 
   12000    298.21332    -8692.335    42.668029    -8735.003   -16679.691 
   12200    297.75432   -8683.4858    42.602355   -8726.0882    242.78653 
   12400    324.47158   -8683.3516    46.425032   -8729.7766   -10157.886 
   12600    243.70978   -8693.5341    34.869722   -8728.4038    37800.679 
   12800     271.8905   -8683.0515     38.90179   -8721.9533    33892.364 
   13000    335.34525   -8683.4546    47.980823   -8731.4354   -14960.431 
   13200    247.29659   -8695.7449     35.38292   -8731.1279    45393.193 
   13400    313.62227   -8683.2637    44.872724   -8728.1365   -39641.454 
   13600    292.36112   -8688.3084    41.830702   -8730.1391   -31934.399 
   13800    288.77713   -8696.4675    41.317908   -8737.7854    -12336.66 
   14000    302.40392   -8680.9099    43.267614   -8724.1775   -14712.775 
   14200    294.79728   -8680.3377    42.179265    -8722.517    16794.158 
   14400    254.35255   -8700.7136    36.392479    -8737.106    1218.6506 
   14600    281.74582   -8691.4598    40.311877   -8731.7717    9237.8675 
   14800    315.59521    -8678.001     45.15501    -8723.156   -2896.3127 
   15000    282.58147   -8694.0361    40.431441   -8734.4675    19998.611 
   15200    300.22162   -8690.6499    42.955374   -8733.6053   -18690.809 
   15400    317.12049   -8685.5011    45.373245   -8730.8744   -3610.1098 
   15600    273.39692   -8687.8888    39.117326   -8727.0061    6022.4494 
   15800    303.91703   -8691.7795    43.484109   -8735.2637   -814.50053 
   16000    351.52105   -8677.2957    50.295239   -8727.5909    10495.552 
   16200    246.32251   -8693.6627     35.24355   -8728.9063   -18264.185 
   16400    322.87838   -8688.1099    46.197078    -8734.307   -13781.049 
   16600     334.2162   -8667.7329    47.819281   -8715.5522    27487.472 
   16800    320.51696    -8682.372    45.859209   -8728.2312   -17290.672 
   17000    312.00557   -8690.8332    44.641409   -8735.4746    1285.1007 
   17200    301.32084   -8687.5648     43.11265   -8730.6774    1359.6358 
   17400    301.58712   -8678.6703    43.150748   -8721.8211   -574.44093 
   17600    267.30579   -8691.2767    38.245814   -8729.5226   -6460.2386 
   17800    273.71183   -8682.7273    39.162383   -8721.8897    65789.692 
   18000    369.95056   -8668.4192    52.932112   -8721.3513   -39365.172 
   18200    236.53407   -8690.8004    33.843031   -8724.6434   -17931.827 
   18400    314.19103     -8681.04    44.954102   -8725.9941    10309.511 
   18600    247.16412   -8698.9885    35.363966   -8734.3524    2922.5454 
   18800    274.92575   -8687.4926     39.33607   -8726.8287   -20179.226 
   19000    317.77942   -8684.5996    45.467524   -8730.0671   -4313.8612 
   19200    274.46061   -8690.9862    39.269517   -8730.2557    9225.5432 
   19400    326.90878   -8673.0443    46.773743   -8719.8181   -20061.895 
   19600    277.09637   -8689.6441    39.646638   -8729.2908   -206.90872 
   19800    227.34647   -8681.7265    32.528478    -8714.255   -9268.0684 
   20000    261.56615     -8691.98    37.424592   -8729.4046    977.19978 
   20200    267.65939   -8687.5154    38.296406   -8725.8119    33560.015 
   20400    316.28047   -8679.6999    45.253055   -8724.9529    20452.751 
   20600    300.97733   -8689.2859      43.0635   -8732.3494    1957.9594 
   20800    289.42463   -8689.6625    41.410552    -8731.073    59408.296 
   21000    342.54318   -8686.6921    49.010696   -8735.7028   -9145.1007 
   21200    291.54756   -8693.4574    41.714299   -8735.1717   -381.53735 
   21400    263.38686   -8693.0712    37.685097   -8730.7563   -34891.885 
   21600    333.43911   -8679.6446    47.708095   -8727.3527    43010.918 
   21800    262.70913   -8694.3887    37.588129   -8731.9768   -23147.405 
   22000    278.28658   -8693.9562    39.816932   -8733.7732    -10477.74 
   22200     292.5235   -8681.1222    41.853935   -8722.9761   -2882.6053 
   22400    251.53828   -8690.6247    35.989816   -8726.6145    8749.4893 
   22600      259.329   -8698.5803    37.104503   -8735.6848     18519.37 
   22800    288.95262   -8689.9016    41.343017   -8731.2446    6457.9206 
   23000    325.04723    -8678.056    46.507394   -8724.5634    17903.169 
   23200    269.75835   -8695.5985    38.596723   -8734.1952   -15471.062 
   23400     252.9657   -8688.7266     36.19405   -8724.9206   -21121.121 
   23600    310.40366   -8681.9232    44.412208   -8726.3354    26698.634 
   23800    264.59592   -8691.8258    37.858089   -8729.6838   -18405.375 
   24000    225.66492   -8706.7026    32.287885   -8738.9905   -41844.367 
   24200     306.5673   -8686.8962    43.863307   -8730.7595   -6898.2845 
   24400     321.9161   -8681.3188    46.059395   -8727.3782   -13044.883 
   24600    310.26187   -8694.8549    44.391922   -8739.2468    15118.174 
   24800    303.31239   -8687.4957    43.397598   -8730.8933   -21696.157 
   25000    308.87206   -8676.6782     44.19307   -8720.8713   -32233.638 
   25200    339.67666   -8686.9215    48.600558    -8735.522      -5333.3 
   25400    274.92983   -8691.4678    39.336652   -8730.8044    40938.824 
   25600    350.62449   -8682.8671     50.16696   -8733.0341   -14367.373 
   25800    301.77968   -8686.2523    43.178299   -8729.4306    5196.9271 
   26000     275.7321   -8684.9051    39.451441   -8724.3565   -2327.4437 
   26200    249.40663   -8695.6537    35.684822   -8731.3385    18669.759 
   26400    228.49099    -8694.051    32.692236   -8726.7432    -21590.67 
   26600    308.75496   -8682.3525    44.176315   -8726.5288    -8649.047 
   26800    277.12712   -8692.4922    39.651038   -8732.1432    59259.748 
   27000    271.96621   -8697.7253    38.912622   -8736.6379    19003.885 
   27200    300.21495     -8686.52    42.954419   -8729.4744    5189.3987 
   27400    259.18143    -8689.695     37.08339   -8726.7784   -12173.472 
   27600    303.53434    -8681.479    43.429354   -8724.9084    26085.919 
   27800    324.00297   -8683.3905    46.357982   -8729.7485   -13075.687 
   28000    288.54184   -8694.8651    41.284244   -8736.1494   -22179.724 
   28200    333.75887   -8680.5976    47.753846   -8728.3514    8559.8839 
   28400    323.51421   -8677.6124    46.288051   -8723.9005    10054.845 
   28600    249.29876   -8690.8412    35.669388   -8726.5106   -33264.129 
   28800    306.80468   -8690.6187     43.89727   -8734.5159    26062.021 
   29000    337.41882   -8671.1918    48.277508   -8719.4693    22308.276 
   29200    296.91024   -8686.7958    42.481585   -8729.2774    27148.106 
   29400    273.70852    -8694.743    39.161909   -8733.9049   -9517.6684 
   29600    325.66995   -8677.0124    46.596493   -8723.6089    45521.414 
   29800     307.0914   -8684.8726    43.938295   -8728.8109    58232.154 
   30000    276.01025   -8691.9287    39.491238   -8731.4199   -12050.325 
   30200    329.30724   -8674.6846    47.116912   -8721.8015    37825.112 
   30400    358.81082   -8679.6612    51.338252   -8730.9994    3758.8328 
   30600      229.301   -8691.7587    32.808131   -8724.5668    18708.766 
   30800    310.42288   -8680.9143    44.414959   -8725.3292   -30584.557 
   31000    241.73966   -8690.6631    34.587841    -8725.251    17554.285 
   31200     330.3083   -8689.0757    47.260143   -8736.3358   -26383.895 
   31400    337.31058   -8677.6232    48.262021   -8725.8852    5548.8935 
   31600    256.91207     -8694.35    36.758692   -8731.1086   -10139.273 
   31800     284.0179   -8686.2783    40.636963   -8726.9153    19193.965 
   32000    289.40458   -8692.0044    41.407684   -8733.4121    4428.5521 
   32200    277.27227   -8688.1981    39.671807   -8727.8699    25633.827 
   32400    332.12913   -8679.3464    47.520665   -8726.8671   -17304.887 
   32600    240.79495     -8698.35    34.452673   -8732.8027   -21123.979 
   32800    338.87049   -8686.6154    48.485212   -8735.1006    25383.835 
   33000    280.29225   -8692.3615    40.103901   -8732.4654   -5619.3203 
   33200    337.10168   -8687.0379    48.232131     -8735.27    5097.9048 
   33400    330.62403   -8686.5609    47.305317   -8733.8662   -16930.584 
   33600    302.02964   -8689.9094    43.214063   -8733.1235   -22070.899 
   33800    370.45747   -8686.1254    53.004641   -8739.1301   -33153.027 
   34000    253.99001   -8699.0846    36.340607   -8735.4252   -21411.312 
   34200    334.67483   -8682.3551    47.884901     -8730.24    13990.379 
   34400    338.11591    -8683.767    48.377247   -8732.1442   -28775.618 
   34600    239.97465    -8699.403    34.335305   -8733.7383   -15489.155 
   34800    319.20591   -8684.4396    45.671625   -8730.1113    26365.178 
   35000    273.57161    -8688.364    39.142321   -8727.5063    39380.841 
   35200     338.5802   -8678.1778    48.443676   -8726.6215    -11911.22 
   35400     273.0288   -8688.3166    39.064656   -8727.3812    24105.982 
   35600    265.21042    -8684.479    37.946011    -8722.425    20290.441 
   35800    288.14171   -8685.0284    41.226993   -8726.2554    684.51339 
   36000    214.94283   -8690.6941    30.753781   -8721.4478   -16924.567 
   36200    332.38028   -8682.4519    47.556599   -8730.0085     19134.86 
   36400    229.91522   -8700.5649    32.896013   -8733.4609   -471.40206 
   36600    293.55408   -8692.7675    42.001389   -8734.7689    716.89394 
   36800     290.7053   -8686.2456    41.593789   -8727.8394    2394.3196 
   37000    251.39172   -8682.2808    35.968846   -8718.2496    12332.635 
   37200    286.91584   -8682.6848    41.051597   -8723.7364   -9663.2462 
   37400    283.77321   -8695.5352    40.601954   -8736.1371    3742.5555 
   37600     289.6616   -8685.6113    41.444458   -8727.0558    9441.6555 
   37800    319.37866   -8685.2942    45.696341   -8730.9905    15031.493 
   38000    278.78435   -8692.1576    39.888153   -8732.0458   -19317.368 
   38200    325.76768   -8686.5839    46.610475   -8733.1944   -7465.4087 
   38400    316.31869   -8679.4942    45.258525   -8724.7528   -541.60317 
   38600    319.78178   -8684.9237     45.75402   -8730.6777    11291.876 
   38800    237.10247   -8697.6852    33.924357   -8731.6095    29866.645 
   39000    316.55292   -8680.9123    45.292038   -8726.2043    46358.716 
   39200    295.60547   -8685.6535      42.2949   -8727.9484   -14294.919 
   39400    305.26819   -8694.5999    43.677432   -8738.2774     6956.265 
   39600    407.36726   -8674.6313    58.285653    -8732.917   -2901.3008 
   39800    315.14591   -8686.7167    45.090725   -8731.8075    44913.885 
   40000    249.08005   -8692.8224    35.638095   -8728.4605   -22056.281 
   40200    391.88692   -8669.3482    56.070742    -8725.419    33462.377 
   40400    282.75753   -8686.9567    40.456631   -8727.4133    44013.916 
   40600    338.18274   -8688.7462    48.386808    -8737.133   -20184.899 
   40800    295.15172   -8684.9058    42.229978   -8727.1358    40274.322 
   41000    348.91601    -8677.961    49.922513   -8727.8835   -8242.1161 
   41200    288.27496    -8690.879    41.246059    -8732.125    37955.039 
   41400    279.94933   -8691.1422    40.054837   -8731.1971   -7698.3856 
   41600    298.81585   -8683.4418    42.754238    -8726.196   -40475.003 
   41800    237.20824    -8699.344    33.939491   -8733.2835   -46888.596 
   42000    356.02961   -8682.8394    50.940318   -8733.7797    42626.153 
   42200     295.4834   -8686.1365    42.277434    -8728.414   -35295.229 
   42400    299.41648   -8687.7395    42.840175   -8730.5797    33696.502 
   42600    239.92855   -8691.8292    34.328709    -8726.158    22944.717 
   42800    291.58602   -8680.1519    41.719803   -8721.8717    1707.0231 
   43000    309.74794   -8682.8681     44.31839   -8727.1865    59887.958 
   43200    268.69714   -8686.5523    38.444887   -8724.9972   -34143.969 
   43400    367.76408   -8680.2652    52.619274   -8732.8845   -29727.388 
   43600     269.8944   -8697.7294     38.61619   -8736.3456    -19492.19 
   43800     310.4715    -8683.623    44.421916   -8728.0449    19952.692 
   44000    291.63834   -8682.4918    41.727288   -8724.2191    22472.853 
   44200    276.89234    -8699.633    39.617447   -8739.2505    19711.717 
   44400    291.46983   -8685.9388    41.703178    -8727.642    22353.407 
   44600    313.93679   -8687.2739    44.917725   -8732.1916   -8085.1718 
   44800    276.22122   -8697.1025    39.521423    -8736.624    44985.229 
   45000    346.30792   -8681.8895     49.54935   -8731.4389    27259.221 
   45200    298.04812   -8681.5394    42.644391   -8724.1837    1844.9793 
   45400    243.90127   -8699.8903    34.897121   -8734.7874    14401.637 
   45600    329.82645   -8693.2243    47.191199   -8740.4155   -19126.914 
   45800    272.72638   -8682.7812    39.021385   -8721.8026   -5007.2477 
   46000    309.67026   -8682.1572    44.307274   -8726.4645    4458.9188 
   46200    232.25103   -8699.6715    33.230218   -8732.9017    -30262.61 
   46400    245.93321    -8687.846    35.187849   -8723.0338    -24752.83 
   46600    382.79358   -8682.7491    54.769678   -8737.5187   -29100.748 
   46800    257.45524    -8697.051    36.836408   -8733.8875    2930.3704 
   47000    251.50226   -8698.5738    35.984662   -8734.5584   -8187.5498 
   47200    313.57336   -8687.7532    44.865726   -8732.6189   -6491.9862 
   47400     372.6098   -8678.3866    53.312593   -8731.6992   -24944.907 
   47600    261.53572   -8697.9289    37.420239   -8735.3492    2397.3796 
   47800    319.65766   -8684.8446    45.736261   -8730.5809   -25567.271 
   48000    249.41395   -8686.7268    35.685869   -8722.4127   -7351.9602 
   48200    263.66407   -8694.4702     37.72476    -8732.195    13032.806 
   48400    304.84503   -8692.3551    43.616887    -8735.972    365.81665 
   48600    317.67571    -8675.429    45.452686   -8720.8817     3266.284 
   48800    263.85546   -8688.1309    37.752144   -8725.8831   -18604.126 
   49000    266.94621   -8696.1095    38.194366   -8734.3039   -21909.461 
   49200    293.11781    -8679.456    41.938968    -8721.395    42034.987 
   49400    291.14934   -8676.3925    41.657322   -8718.0499    13690.791 
   49600    308.00153    -8692.321    44.068515   -8736.3895    19260.134 
   49800    344.61465   -8680.2626    49.307079   -8729.5697    27494.222 
   50000    309.83217    -8680.584     44.33044   -8724.9144   -10593.793 
   50200    256.76676   -8690.0572    36.737901   -8726.7951    8566.7548 
   50400    283.85529   -8687.0335    40.613697   -8727.6472    -7302.391 
   50600    274.06801    -8684.353    39.213344   -8723.5664    7421.8336 
   50800    279.16307   -8686.9061     39.94234   -8726.8485    5700.2339 
   51000    347.31289   -8687.8957     49.69314   -8737.5888   -24725.304 
   51200    277.41276   -8695.2576    39.691907   -8734.9495   -9109.6811 
   51400    338.65624   -8678.1915    48.454557    -8726.646   -26256.073 
   51600    336.89044   -8689.9335    48.201907   -8738.1354   -41915.272 
   51800    297.24162   -8688.9849    42.528999   -8731.5139   -53179.949 
   52000    293.76435    -8686.383    42.031474   -8728.4145    29300.278 
   52200    276.02056   -8686.1717    39.492713   -8725.6644   -29995.088 
   52400    308.14967   -8694.2042    44.089711   -8738.2939    32666.251 
   52600    385.44273   -8680.4932    55.148715   -8735.6419   -8384.5935 
   52800     332.1178   -8684.0229    47.519044   -8731.5419   -16252.267 
   53000    278.98525   -8696.9296    39.916898   -8736.8465   -3413.6036 
   53200    296.18106   -8696.6406    42.377254   -8739.0179    3568.7302 
   53400    305.01043   -8684.1612    43.640552   -8727.8018   -19739.257 
   53600     319.7442   -8678.4563    45.748643    -8724.205    15151.006 
   53800    281.20163   -8683.2729    40.234015   -8723.5069   -25226.634 
   54000    292.92752   -8689.1242    41.911743   -8731.0359    61865.916 
   54200    382.58707   -8671.7784    54.740131   -8726.5185   -24602.381 
   54400    286.11977   -8685.1458    40.937697   -8726.0835    -35967.99 
   54600    343.23912   -8686.8291     49.11027   -8735.9394    23704.315 
   54800    273.86721   -8700.4968    39.184615   -8739.6815    5562.7303 
   55000    318.35763   -8680.7329    45.550254   -8726.2831   -6305.0879 
   55200    293.31727   -8687.0759    41.967507   -8729.0434   -13537.071 
   55400    233.07945   -8697.1335    33.348748   -8730.4822   -18581.068 
   55600    322.87781   -8678.8146    46.196996   -8725.0116    29716.986 
   55800    274.58166   -8684.5388    39.286837   -8723.8257   -15576.408 
   56000    323.89965   -8691.7428    46.343199    -8738.086   -31719.839 
   56200    262.17487    -8686.379    37.511687   -8723.8907     25739.52 
   56400    294.25298   -8682.3223    42.101387   -8724.4236   -23641.337 
   56600    291.58025   -8691.2777    41.718977   -8732.9967    33994.747 
   56800    252.30849   -8700.5479    36.100017   -8736.6479    11723.889 
   57000     314.2624    -8679.869    44.964312   -8724.8334    5982.3365 
   57200    252.78176   -8693.4473    36.167732    -8729.615   -8967.8616 
   57400    306.78448   -8689.0112     43.89438   -8732.9056   -16388.974 
   57600    355.14908   -8673.5086    50.814333   -8724.3229   -16749.676 
   57800    283.09101   -8686.2577    40.504346   -8726.7621    54077.172 
   58000    286.45722   -8689.3141    40.985979   -8730.3001   -4846.7447 
   58200    371.53006   -8670.9479    53.158106    -8724.106    -10087.64 
   58400    316.45851   -8684.7363     45.27853   -8730.0148    18623.485 
   58600    309.09063   -8691.8657    44.224342     -8736.09   -22426.578 
   58800    255.36955   -8702.7373     36.53799   -8739.2753    1770.5674 
   59000    296.11631   -8686.0271     42.36799   -8728.3951   -22861.968 
   59200    249.72583   -8689.2211    35.730492   -8724.9516   -20404.441 
   59400     282.6353    -8692.899    40.439142   -8733.3382    11488.766 
   59600    309.05095   -8680.6767    44.218665   -8724.8954   -10055.702 
   59800    271.80117   -8685.2751    38.889008   -8724.1641     18847.74 
   60000    285.72863   -8693.0743    40.881733   -8733.9561   -10002.701 
   60200    333.35227   -8682.3994    47.695671   -8730.0951    33623.788 
   60400    312.75728   -8666.0068    44.748961   -8710.7557   -3957.2044 
   60600    336.91922   -8687.4011    48.206025   -8735.6072    -30196.01 
   60800    288.75072   -8692.6245    41.314131   -8733.9387   -8786.0123 
   61000    339.90781   -8678.1948    48.633629   -8726.8284    43141.897 
   61200    255.54396   -8690.6233    36.562945   -8727.1862   -24626.062 
   61400    289.90943   -8688.8298    41.479918   -8730.3097    20013.134 
   61600    296.73588   -8685.8992    42.456637   -8728.3559   -12920.334 
   61800    283.06523   -8691.0073    40.500657   -8731.5079   -18660.249 
   62000    304.35405   -8685.3611    43.546637   -8728.9077   -15179.761 
   62200     343.5383   -8679.0699    49.153077    -8728.223    50005.805 
   62400    280.27792   -8695.4538    40.101851   -8735.5556   -31196.104 
   62600    283.06573   -8684.9296    40.500728   -8725.4303   -19303.959 
   62800    270.33549   -8684.8991    38.679299   -8723.5784    2290.2882 
   63000     257.8106   -8698.2267    36.887253    -8735.114    21813.309 
   63200    326.87583   -8680.5115    46.769028   -8727.2805   -9577.1876 
   63400    313.19334   -8676.2855    44.811353   -8721.0969    50443.192 
   63600    255.03385   -8691.5286    36.489958   -8728.0186    5489.3994 
   63800    253.85836    -8694.724     36.32177   -8731.0458   -52331.919 
   64000    309.05707   -8680.6339     44.21954   -8724.8535   -12636.788 
   64200    302.89621   -8692.7187    43.338051   -8736.0567    6615.8043 
   64400    234.68683   -8699.3046    33.578729   -8732.8833    40623.611 
   64600    327.48706   -8688.1118    46.856483   -8734.9683   -4178.5226 
   64800    351.95121   -8683.5552    50.356786    -8733.912    26922.721 
   65000    266.95188   -8696.5086    38.195177   -8734.7038   -32298.696 
   65200    308.77909   -8684.7619    44.179768   -8728.9417   -34211.346 
   65400    366.52339   -8675.7777    52.441758   -8728.2194   -14555.315 
   65600    289.82487   -8695.9009    41.467819   -8737.3687    10365.579 
   65800    287.99459   -8688.2637    41.205944   -8729.4696   -14667.063 
   66000    315.35511   -8680.9577    45.120657   -8726.0784    45812.941 
   66200    319.71152   -8684.5377    45.743968   -8730.2817    34979.029 
   66400    306.52664   -8688.9798    43.857489   -8732.8373    -50559.37 
   66600    280.87511   -8684.9783    40.187297   -8725.1656   -7657.2995 
   66800    294.57394   -8673.8484     42.14731   -8715.9957      891.474 
   67000    323.92417   -8688.7097    46.346708   -8735.0564    11400.746 
   67200    237.13453   -8686.9927    33.928944   -8720.9217    11093.169 
   67400    370.82662   -8673.7425    53.057458      -8726.8   -15304.022 
   67600    316.55581   -8690.5657    45.292451   -8735.8582   -23724.482 
   67800    337.50286   -8688.9001    48.289533   -8737.1897    24508.233 
   68000    295.19171   -8690.4745      42.2357   -8732.7102    19946.158 
   68200     374.4971   -8677.6683    53.582627    -8731.251   -35206.774 
   68400    240.39358   -8693.1589    34.395244   -8727.5542    5979.1909 
   68600    311.46052   -8686.6357    44.563423   -8731.1991   -37716.319 
   68800    327.64652   -8684.7577    46.879298    -8731.637   -18055.957 
   69000    308.36422   -8683.2601    44.120408   -8727.3805       -39209 
   69200    282.02345    -8696.319      40.3516   -8736.6706   -1840.6145 
   69400    300.94531   -8683.4972    43.058919   -8726.5561   -39214.447 
   69600    315.68028   -8677.8814    45.167182   -8723.0486    8854.1602 
   69800    240.99573   -8697.1191      34.4814   -8731.6005   -24125.391 
   70000    296.30565   -8688.0898    42.395082   -8730.4849    6770.4715 
   70200    327.89346   -8678.8563    46.914629   -8725.7709    44812.844 
   70400    258.67035   -8698.7021    37.010265   -8735.7124   -10772.571 
   70600    313.29735   -8689.1365    44.826235   -8733.9627    22095.834 
   70800    372.64139   -8677.2152    53.317114   -8730.5324   -18302.116 
   71000    393.01087   -8668.2781    56.231556   -8724.5096    15264.637 
   71200    243.73499   -8686.5923    34.873331   -8721.4657      19869.4 
   71400      339.311    -8686.366    48.548239   -8734.9143     5316.981 
   71600    220.74655   -8697.3183     31.58417   -8728.9024    2393.6031 
   71800    345.31125    -8684.337    49.406747   -8733.7437    -15565.97 
   72000    281.00429   -8691.6318     40.20578   -8731.8375   -19348.517 
   72200    298.94009   -8679.8583    42.772014   -8722.6303    31724.774 
   72400    291.41037   -8682.2338    41.694671   -8723.9285   -42117.746 
   72600    282.71815   -8694.4347    40.450996   -8734.8857    42024.999 
   72800    266.71699   -8685.2306    38.161569   -8723.3922   -20909.626 
   73000    354.42281   -8679.3189    50.710419   -8730.0294   -20521.756 
   73200    284.13726   -8689.3336    40.654042   -8729.9876     -22111.8 
   73400    290.60417   -8693.0053    41.579319   -8734.5846   -21918.143 
   73600     303.9923   -8686.9872    43.494878   -8730.4821    33656.462 
   73800    320.13149   -8678.0956    45.804056   -8723.8997    -6551.754 
   74000    295.04478   -8691.8918    42.214678   -8734.1065   -7435.3279 
   74200    327.66641   -8686.7274    46.882144   -8733.6095   -10497.066 
   74400    330.52271   -8679.7232     47.29082    -8727.014    29512.785 
   74600    314.00478   -8683.9555    44.927453    -8728.883   -6715.9277 
   74800    290.31265    -8692.971     41.53761   -8734.5086    -27745.38 
   75000    315.97357   -8676.3154    45.209146   -8721.5246    13428.685 
   75200    351.26193   -8670.1528    50.258165   -8720.4109   -21681.679 
   75400    312.41518   -8685.8814    44.700016   -8730.5814    8827.3386 
   75600    255.86885   -8693.6425    36.609429   -8730.2519    23870.171 
   75800    333.10908   -8673.2557    47.660875   -8720.9166   -13130.346 
   76000    306.42863   -8683.8186    43.843466    -8727.662    62177.808 
   76200    280.39291   -8690.1451    40.118304   -8730.2634   -61547.317 
   76400    322.11274   -8672.9252     46.08753   -8719.0128   -7041.1277 
   76600    226.05225   -8690.0136    32.343303   -8722.3569    23960.714 
   76800    288.92139   -8684.0054    41.338549   -8725.3439   -18150.822 
   77000    240.20939   -8695.9498    34.368891   -8730.3187    5035.2756 
   77200    257.55731   -8688.4324    36.851012   -8725.2834    29416.712 
   77400    305.77274   -8687.1675    43.749622   -8730.9171    5972.2999 
   77600    255.02161   -8695.1832    36.488207   -8731.6714   -37998.049 
   77800    351.08515   -8683.2359    50.232871   -8733.4688    47909.637 
   78000    316.36036   -8684.4689    45.264486   -8729.7334   -18655.805 
   78200    289.85467   -8685.7347    41.472082   -8727.2068   -12982.684 
   78400    288.16801   -8681.8144    41.230757   -8723.0451   -3714.4323 
   78600    296.68066   -8689.0156    42.448737   -8731.4643   -47231.118 
   78800    356.12271   -8671.7607    50.953639   -8722.7144   -1487.9161 
   79000      259.965   -8687.5198    37.195502   -8724.7153   -7226.7616 
   79200    267.46993   -8688.6498    38.269299   -8726.9191    22318.295 
   79400    319.16099   -8675.5854    45.665198   -8721.2506   -44054.802 
   79600    294.11645   -8686.4715    42.081853   -8728.5533     -15798.5 
   79800    282.30284   -8689.7535    40.391574   -8730.1451    31235.801 
   80000    272.32336   -8693.0313    38.963722   -8731.9951   -12947.156 
   80200    382.01513   -8679.9791    54.658297   -8734.6374   -27020.769 
   80400    235.69022   -8694.3795    33.722293   -8728.1018    27786.656 
   80600    311.29852   -8681.4195    44.540245   -8725.9597    14923.474 
   80800    250.01462   -8691.0327    35.771813   -8726.8045    15872.146 
   81000    299.94419   -8687.1229     42.91568   -8730.0386   -6554.9393 
   81200     336.7128   -8673.9904    48.176491   -8722.1669    25712.019 
   81400    329.49527   -8687.2777    47.143815   -8734.4215   -8435.2767 
   81600     265.4265    -8690.224    37.976927   -8728.2009    15175.491 
   81800    364.42115   -8672.4714     52.14097   -8724.6124   -3933.1877 
   82000    262.58074   -8690.5203    37.569758     -8728.09    8693.3218 
   82200     351.9291   -8683.6302    50.353623   -8733.9839   -18336.242 
   82400    247.24022   -8697.4336    35.374855   -8732.8084    12914.873 
   82600    317.28763   -8684.8138    45.397159   -8730.2109   -6247.3445 
   82800     259.5359   -8693.0103    37.134106   -8730.1444    21137.418 
   83000     310.0099   -8686.6849     44.35587   -8731.0408    5524.4367 
   83200     282.2417   -8680.7918    40.382827   -8721.1746   -21911.228 
   83400    265.41379    -8691.856    37.975108   -8729.8311    71796.352 
   83600    337.12741   -8676.3641    48.235813   -8724.5999   -121.80257 
   83800    345.48112   -8685.7302    49.431053   -8735.1612   -8028.0287 
   84000    316.20769   -8687.7933    45.242643    -8733.036   -3838.8959 
   84200    307.19775   -8687.9589    43.953511   -8731.9124    8513.5949 
   84400    263.45397   -8696.8532    37.694699   -8734.5479    16299.847 
   84600    332.43359   -8684.1577    47.564227   -8731.7219    24317.902 
   84800    235.80683   -8693.3029    33.738978   -8727.0419    17727.213 
   85000    315.42223   -8682.3204     45.13026   -8727.4507    43619.882 
   85200    277.14601   -8688.7148    39.653742   -8728.3685   -9995.0321 
   85400    293.74019   -8686.3343    42.028017   -8728.3623    -44176.56 
   85600    302.16256   -8690.9218    43.233082   -8734.1549    9094.1206 
   85800    255.75807   -8686.6117    36.593579   -8723.2053     1968.324 
   86000    327.28628   -8679.2709    46.827755   -8726.0986    12241.313 
   86200    296.37781    -8691.016    42.405406   -8733.4214   -35749.275 
   86400    337.38109   -8676.8486    48.272109   -8725.1207    -1253.853 
   86600     360.1057   -8678.0141    51.523522   -8729.5377   -40262.332 
   86800    298.98967   -8690.9721    42.779108   -8733.7512    14084.619 
   87000    343.94789   -8684.7806     49.21168   -8733.9923   -21068.085 
   87200    241.96332    -8685.133    34.619841   -8719.7529    -505.6354 
   87400    367.27913   -8682.5851    52.549888    -8735.135    31872.329 
   87600     269.8165   -8692.0199    38.605043    -8730.625   -35012.938 
   87800    355.51234   -8685.4422    50.866308   -8736.3085     -13532.8 
   88000    284.31931   -8688.9465    40.680089   -8729.6266    5289.2032 
   88200    270.64592   -8693.3324    38.723715   -8732.0561    22776.719 
   88400    357.79164   -8676.1574    51.192428   -8727.3498    27744.157 
   88600    307.89367   -8691.3555    44.053082   -8735.4086    27258.896 
   88800    263.17331    -8687.138    37.654544   -8724.7925   -16485.145 
   89000    365.13701   -8682.4125    52.243396   -8734.6559    4244.0117 
   89200    261.15331    -8687.516    37.365524   -8724.8815   -11852.526 
   89400    336.78804   -8678.5194    48.187257   -8726.7067    19553.216 
   89600    292.19252   -8695.7674     41.80658    -8737.574   -30784.891 
   89800    362.13007   -8685.0214    51.813166   -8736.8346      40235.6 
   90000    222.52497   -8692.5464    31.838624   -8724.3851   -30727.854 
   90200     274.1701   -8698.3125    39.227951   -8737.5405    22570.148 
   90400    245.16773   -8689.3292    35.078325   -8724.4075   -44808.076 
   90600    330.80932   -8680.1087    47.331828   -8727.4405    21949.019 
   90800    274.36978    -8685.242    39.256522   -8724.4985    6324.8379 
   91000     280.8918    -8690.445    40.189685   -8730.6347   -929.54825 
   91200    246.70575   -8701.2019    35.298383   -8736.5003   -21663.198 
   91400    318.34888   -8686.3434    45.549003   -8731.8924    1976.5735 
   91600    309.09101   -8683.3436    44.224397    -8727.568    14581.007 
   91800    329.15801   -8687.9631     47.09556   -8735.0587   -23496.227 
   92000    258.42007   -8694.2828    36.974454   -8731.2572   -31293.772 
   92200    272.79633   -8676.5818    39.031394   -8715.6132   -32351.121 
   92400    297.25514   -8687.2403    42.530933   -8729.7712   -30073.616 
   92600    274.60629   -8691.5743    39.290361   -8730.8647   -5921.8862 
   92800    288.10996   -8686.8224    41.222451   -8728.0449    10157.035 
   93000     253.2261   -8692.3047    36.231307    -8728.536    24479.545 
   93200    269.53033   -8692.2433    38.564099   -8730.8074   -9620.9489 
   93400    328.77767   -8679.7352    47.041141   -8726.7763   -23996.072 
   93600    262.97693   -8696.7332    37.626445   -8734.3596   -12013.628 
   93800    316.45631   -8694.2081    45.278215   -8739.4863   -1053.5445 
   94000    321.75358   -8685.5715    46.036142   -8731.6077    26145.117 
   94200     305.3043   -8681.3266    43.682598   -8725.0092   -12444.846 
   94400    229.38965   -8696.8287    32.820815   -8729.6495   -8073.2003 
   94600    285.97759    -8687.091    40.917353   -8728.0083    11105.898 
   94800     338.0069   -8685.4081    48.361649   -8733.7698   -36772.056 
   95000    259.76415   -8696.5291    37.166765   -8733.6959    33579.401 
   95200    263.49062   -8695.6501    37.699943     -8733.35   -11706.524 
   95400    346.67405   -8685.3101    49.601736   -8734.9118       -50683 
   95600     227.1906    -8693.319    32.506176   -8725.8252    40868.499 
   95800    337.26165   -8686.9887     48.25502   -8735.2437    26970.848 
   96000    286.50465    -8680.251    40.992766   -8721.2437   -34275.423 
   96200    348.05463   -8671.0676    49.799268   -8720.8668    3791.9616 
   96400    301.74077   -8691.9517    43.172732   -8735.1245   -40189.311 
   96600    342.06973   -8680.2214    48.942954   -8729.1643   -24707.122 
   96800    331.97077   -8688.6304    47.498007   -8736.1284    30098.129 
   97000    263.82321   -8688.8493     37.74753   -8726.5968   -15658.767 
   97200    317.77771   -8682.1652    45.467279   -8727.6325    7796.1521 
   97400    311.23566     -8676.02    44.531251   -8720.5512   -21067.044 
   97600    286.27331   -8689.0549    40.959665   -8730.0145    -26167.37 
   97800    309.09794   -8683.4581    44.225388   -8727.6834    19151.608 
   98000    240.94876   -8698.5381     34.47468   -8733.0128   -1584.2757 
   98200    340.24205   -8685.5953    48.681452   -8734.2768    3128.9376 
   98400     285.4386   -8687.8568    40.840236    -8728.697    2109.9749 
   98600    383.96873   -8671.6602    54.937817   -8726.5981   -5608.0915 
   98800    314.29813   -8689.5821    44.969425   -8734.5515    22502.828 
   99000    307.05339   -8684.7844    43.932856   -8728.7173    5439.7752 
   99200    431.36614   -8668.4922    61.719386   -8730.2116    4527.5953 
   99400    284.30742     -8690.45    40.678389   -8731.1284   -14842.477 
   99600    309.51783   -8683.6555    44.285465   -8727.9409   -43793.854 
   99800    293.15651   -8686.3127    41.944506   -8728.2572    12837.296 
  100000    308.34597   -8693.1179    44.117796   -8737.2357   -19097.631 
  100200    322.68151   -8683.5195     46.16891   -8729.6884    41339.502 
  100400    311.57029   -8684.7121    44.579128   -8729.2912   -12697.623 
  100600    286.82172   -8686.0757    41.038132   -8727.1138     8469.475 
  100800    277.52179   -8699.7304    39.707507   -8739.4379   -4004.7833 
  101000    299.93035   -8684.8438    42.913699   -8727.7575    5273.9727 
  101200    260.45438   -8687.0477    37.265522   -8724.3133   -11729.233 
  101400    285.13278   -8698.1065    40.796479    -8738.903    1898.0314 
  101600    333.11029   -8680.3062    47.661048   -8727.9673    99.647934 
  101800    256.07265   -8692.0268    36.638589   -8728.6654   -15497.893 
  102000    354.88941   -8689.3465     50.77718   -8740.1237    5782.9837 
  102200    288.47692   -8682.0004    41.274955   -8723.2754    2268.6466 
  102400    249.55014   -8689.8647    35.705355     -8725.57   -21809.863 
  102600    290.26144   -8683.5078    41.530283    -8725.038   -7552.8334 
  102800    219.81704   -8687.2791    31.451176   -8718.7303    3571.2117 
  103000    345.40432   -8676.4742    49.420064   -8725.8943   -14751.097 
  103200     281.3591   -8691.9262    40.256545   -8732.1828   -19033.551 
  103400     301.8288   -8689.1133    43.185327   -8732.2986    2802.0159 
  103600    310.54873    -8682.551    44.432965    -8726.984    14391.858 
  103800    257.11159   -8696.0561    36.787239   -8732.8433    -4119.905 
  104000    334.28489   -8683.7456    47.829109   -8731.5747     2972.888 
  104200    272.38124   -8689.2534    38.972004   -8728.2254    1491.8986 
  104400     304.1665    -8683.629    43.519803   -8727.1488   -9097.6532 
  104600    300.26154   -8684.6456    42.961086   -8727.6067   -12362.486 
  104800    265.34431   -8696.7101    37.965168   -8734.6752   -17601.651 
  105000    341.58268   -8683.6953    48.873268   -8732.5686   -9200.8958 
  105200    313.68943   -8686.7025    44.882333   -8731.5849   -33875.043 
  105400    279.41113    -8689.037    39.977832   -8729.0149    16393.911 
  105600    258.93263   -8700.7794    37.047791   -8737.8272    33987.624 
  105800    300.47583   -8684.3685    42.991746   -8727.3602   -18230.591 
  106000    312.98441   -8684.9627    44.781459   -8729.7441   -10286.936 
  106200    275.42594   -8697.8537    39.407635   -8737.2613    29932.971 
  106400    323.25066   -8682.9488    46.250343   -8729.1991   -129.28324 
  106600    312.96435   -8685.3614    44.778589     -8730.14    37565.147 
  106800    263.46337   -8693.9171    37.696045   -8731.6131   -12912.863 
  107000    229.12508   -8700.9339    32.782961   -8733.7169    12120.006 
  107200    281.65181   -8682.7871    40.298426   -8723.0855   -36777.955 
  107400    326.21893   -8688.4532     46.67504   -8735.1283   -41390.227 
  107600    242.19845   -8697.8229    34.653484   -8732.4764     3483.625 
  107800    320.53075    -8687.605    45.861182   -8733.4662    13737.866 
  108000    320.17728   -8678.8449    45.810607   -8724.6555   -33381.788 
  108200    336.24011   -8667.7903     48.10886   -8715.8992    53476.693 
  108400    277.28086   -8687.9637    39.673035   -8727.6367   -39558.731 
  108600    252.62426   -8688.9094    36.145196   -8725.0546    18865.131 
  108800    333.35353   -8671.3277    47.695851   -8719.0235   -574.62781 
  109000    304.05709   -8689.2834    43.504149   -8732.7875   -951.85179 
  109200    323.84059   -8688.4932     46.33475   -8734.8279   -27629.096 
  109400    322.33792   -8672.0748    46.119749   -8718.1945   -13809.077 
  109600    286.83818   -8680.8496    41.040486   -8721.8901    45909.612 
  109800    269.93711   -8690.7184      38.6223   -8729.3407   -33124.556 
  110000    303.42341   -8677.8328    43.413483   -8721.2463    2557.3144 
  110200    388.60074   -8678.3172    55.600559   -8733.9177     13874.49 
  110400    324.06366   -8687.3724    46.366667   -8733.7391   -1539.1117 
  110600    324.82946    -8683.961    46.476237   -8730.4372    3776.8609 
  110800    288.88914   -8690.9015    41.333935   -8732.2354     20398.75 
  111000    317.96808   -8691.1935    45.494517    -8736.688    8753.7667 
  111200    367.38398    -8676.458    52.564889   -8729.0229    13084.265 
  111400    275.05388   -8688.8895    39.354402   -8728.2439   -14257.981 
  111600     292.5776   -8686.9123    41.861676    -8728.774    44450.094 
  111800    299.17405   -8688.2158    42.805488   -8731.0213   -3119.9967 
  112000    336.36483   -8684.4167    48.126703   -8732.5434   -4780.7521 
  112200    314.95998   -8686.2802    45.064121   -8731.3443    1523.3184 
  112400     318.8331   -8687.4343    45.618284   -8733.0526   -17337.532 
  112600    311.35096   -8673.8111    44.547748   -8718.3589   -39214.168 
  112800    300.96579    -8686.268     43.06185   -8729.3298   -40134.797 
  113000     308.8779   -8688.3458    44.193904   -8732.5397   -12523.353 
  113200    303.25199   -8682.1854    43.388956   -8725.5744    8730.8576 
  113400    356.76722   -8676.6161    51.045855   -8727.6619   -8208.3864 
  113600    304.17902   -8691.4247    43.521594   -8734.9463    21155.825 
  113800    370.07263   -8680.4149    52.949579   -8733.3645    18826.274 
  114000    282.25744   -8675.8768    40.385079   -8716.2619   -1904.0595 
  114200    313.18602   -8685.7237    44.810305    -8730.534   -674.47224 
  114400    253.31801   -8695.8208    36.244458   -8732.0653    6967.8902 
  114600    272.24967   -8677.8136    38.953179   -8716.7667    3929.4114 
  114800    248.06568   -8690.0264    35.492961   -8725.5194   -10102.695 
  115000    305.03685   -8690.3056    43.644332   -8733.9499    34294.245 
  115200    335.18409   -8676.2304    47.957764   -8724.1882   -10025.873 
  115400    293.57938   -8689.8743     42.00501   -8731.8793    15036.749 
  115600     308.5639   -8690.0018    44.148978   -8734.1508   -15855.748 
  115800    294.34539   -8682.8697     42.11461   -8724.9843   -5007.8131 
  116000    282.03968   -8691.3992    40.353922   -8731.7531   -22350.695 
  116200    304.52096   -8689.4351    43.570519   -8733.0056    3837.4305 
  116400    354.66884   -8675.9119    50.745621   -8726.6575    30802.774 
  116600    339.15987   -8681.2898    48.526615   -8729.8164    32405.877 
  116800    319.57882   -8691.5357    45.724981   -8737.2607    6850.3395 
  117000    374.51478   -8678.5551    53.585156   -8732.1402    -497.3027 
  117200    334.64027   -8681.8335    47.879956   -8729.7134    19942.994 
  117400     342.5575   -8688.3182    49.012744   -8737.3309   -8238.8025 
  117600    339.09892   -8681.7761    48.517895    -8730.294     26747.77 
  117800    363.41204   -8679.8794    51.996588    -8731.876    6980.7471 
  118000    326.42678   -8692.0406    46.704778   -8738.7454    51064.512 
  118200    342.17881   -8678.2585    48.958561   -8727.2171   -9153.1359 
  118400    331.41135   -8681.2965    47.417966   -8728.7145    32340.284 
  118600      327.623   -8688.3783    46.875933   -8735.2542    4925.5072 
  118800    333.48432    -8690.608    47.714564   -8738.3226    6984.4971 
  119000    392.57149   -8669.2824     56.16869   -8725.4511    53624.817 
  119200    342.07571   -8684.1777    48.943811   -8733.1215   -6134.4108 
  119400    312.98735   -8691.1643    44.781881   -8735.9462   -14879.509 
  119600    384.67733   -8671.0076    55.039202   -8726.0468    11480.776 
  119800    292.51526   -8684.0103    41.852757   -8725.8631   -27971.518 
  120000    300.39346   -8689.1824    42.979961   -8732.1624     2060.284 
  120200    223.12089   -8701.8075    31.923887   -8733.7314    27992.369 
  120400    274.76284   -8687.5392    39.312759   -8726.8519    867.81399 
  120600    366.51199   -8680.8697    52.440126   -8733.3098   -25963.889 
  120800    312.20461   -8696.1328    44.669886   -8740.8027   -11774.207 
  121000     317.7506   -8693.4854    45.463401   -8738.9488    43300.926 
  121200    316.82938   -8687.1736    45.331593   -8732.5052     40316.53 
  121400    278.55319   -8683.8229    39.855078    -8723.678     29618.65 
  121600    272.10817   -8675.9317    38.932933   -8714.8647   -6985.2869 
  121800    297.65367   -8690.2911    42.587954   -8732.8791   -3791.6692 
  122000    350.74238   -8681.3168    50.183827   -8731.5006    -10165.85 
  122200    350.64121   -8667.6948    50.169353   -8717.8641   -19936.039 
  122400     264.4718   -8688.1776    37.840329   -8726.0179    19065.356 
  122600    261.21647   -8692.6841    37.374561   -8730.0586   -35604.944 
  122800    286.37363   -8684.3796    40.974019   -8725.3537   -10870.245 
  123000    283.73442   -8681.5064    40.596404   -8722.1028    20718.369 
  123200    265.49775   -8690.5925    37.987122   -8728.5796   -9844.3336 
  123400    334.13299   -8682.9318    47.807374   -8730.7391   -951.69456 
  123600    428.60149   -8662.3006    61.323822   -8723.6244   -130.84419 
  123800    306.73011   -8686.2439    43.886601   -8730.1305   -23785.732 
  124000    291.04171   -8692.2591    41.641923    -8733.901    6548.3442 
  124200    310.77782   -8676.9563    44.465743   -8721.4221    13555.137 
  124400    320.22475   -8680.8699    45.817399   -8726.6873    4483.6367 
  124600    272.66418     -8695.43    39.012486   -8734.4425    10621.927 
  124800    294.90426     -8684.34    42.194572   -8726.5345   -31506.614 
  125000     307.6572   -8676.6197    44.019248   -8720.6389   -10465.196 
  125200    284.21717   -8694.3655    40.665475    -8735.031   -14897.309 
  125400    305.61793   -8683.5642    43.727472   -8727.2917    31317.023 
  125600    386.91677   -8660.0065    55.359619   -8715.3662   -33302.935 
  125800    312.20922   -8678.4589    44.670546   -8723.1295   -10070.053 
  126000    327.47088   -8690.4669    46.854168   -8737.3211   -10917.364 
  126200     346.2503   -8688.2144    49.541107   -8737.7555    802.67484 
  126400    320.48749   -8676.3886    45.854992   -8722.2436   -58737.174 
  126600    344.32842   -8691.7432    49.266125   -8741.0093    23652.346 
  126800    295.68592   -8689.7529    42.306411   -8732.0593    6418.5344 
  127000    333.47838   -8671.5133    47.713714    -8719.227    6245.4218 
  127200    267.64253   -8691.6666    38.293993   -8729.9606    8512.4945 
  127400    313.76596   -8691.4234    44.893283   -8736.3167    30810.325 
  127600     352.0202    -8677.445    50.366657   -8727.8117   -6568.7686 
  127800    349.72879   -8670.6769    50.038804   -8720.7157    6323.0986 
  128000    244.48068   -8692.9756    34.980023   -8727.9556   -36223.919 
  128200    287.52223   -8685.6925    41.138359   -8726.8308    26162.799 
  128400    357.55895   -8676.2846    51.159135   -8727.4437    31082.114 
  128600     263.0545   -8693.3991    37.637543   -8731.0366    -16108.96 
  128800    292.31472   -8684.0157    41.824064   -8725.8398    -12872.84 
  129000    262.18069   -8700.4988    37.512521   -8738.0113    16935.095 
  129200    290.61604   -8691.0372    41.581019   -8732.6182   -8677.8464 
  129400     301.9532   -8684.9207    43.203127   -8728.1238   -6946.2174 
  129600    333.57499   -8679.3055    47.727536    -8727.033    1892.0674 
  129800    276.47766   -8691.4731    39.558115   -8731.0312    -26048.72 
  130000    238.69465   -8688.2794    34.152163   -8722.4316    35447.928 
  130200    357.96515   -8682.4111    51.217254   -8733.6284    -6315.357 
  130400    258.12059   -8689.9522    36.931605   -8726.8838   -10986.018 
  130600    253.00569   -8698.0543    36.199771   -8734.2541    50438.656 
  130800    311.74134   -8682.1754    44.603603    -8726.779    13476.868 
  131000    244.34484   -8695.0328    34.960587   -8729.9934   -35622.408 
  131200     307.6072   -8678.9939    44.012094    -8723.006    3176.5598 
  131400    327.82655   -8692.7273    46.905056   -8739.6323    20065.088 
  131600    302.94795    -8686.204    43.345454   -8729.5494    7410.7723 
  131800    284.61407   -8683.3788    40.722263   -8724.1011    1918.7652 
  132000    318.49033   -8693.1523     45.56924   -8738.7216   -21428.993 
  132200    362.88613   -8679.9408    51.921342   -8731.8622   -3473.5505 
  132400    279.76118   -8695.7453    40.027917   -8735.7732   -8167.8251 
  132600    312.98066   -8685.3448    44.780923   -8730.1258    24045.505 
  132800    291.57885   -8685.8361    41.718776   -8727.5548    -33261.13 
  133000    262.87367   -8692.4255    37.611671   -8730.0372   -13984.039 
  133200    354.45556   -8673.6891    50.715105   -8724.4042    41915.377 
  133400    292.66435   -8691.5359    41.874088     -8733.41   -49800.353 
  133600    305.47291   -8683.2913    43.706723    -8726.998   -27576.184 
  133800    297.10178     -8681.09    42.508991    -8723.599    40880.502 
  134000    296.05213   -8684.6739    42.358807   -8727.0327    25104.976 
  134200    277.09462   -8692.6538    39.646389   -8732.3002    -4565.344 
  134400    269.62514   -8696.0428    38.577664   -8734.6204    16657.155 
  134600    310.09987    -8683.242    44.368743   -8727.6107     63354.94 
  134800    245.90971   -8697.0301    35.184486   -8732.2146   -35197.062 
  135000    317.27641   -8683.2631    45.395554   -8728.6587   -16524.855 
  135200     302.0537   -8683.6734    43.217505   -8726.8909   -27349.545 
  135400    303.23916   -8690.5636     43.38712   -8733.9507    2555.3489 
  135600    286.75036   -8684.1165    41.027921   -8725.1444   -33057.414 
  135800    341.31612   -8671.7486    48.835129   -8720.5838     15830.98 
  136000    306.60321   -8688.7427    43.868444   -8732.6112    18905.584 
  136200    325.44768    -8686.775     46.56469   -8733.3397   -33453.909 
  136400    311.74751   -8680.1247    44.604485   -8724.7292   -13726.905 
  136600    340.20558    -8683.498    48.676234   -8732.1742   -41852.531 
  136800    317.82736   -8696.0541    45.474384   -8741.5285   -16543.504 
  137000    310.46096   -8678.9338    44.420407   -8723.3542    26060.032 
  137200    319.02465   -8682.1021    45.645691   -8727.7478   -30145.288 
  137400    284.38708   -8694.2884    40.689786   -8734.9781    23002.289 
  137600    213.74347   -8704.7648    30.582177    -8735.347   -18135.804 
  137800    317.90168   -8687.2883    45.485017   -8732.7734    17573.467 
  138000    309.64607   -8683.1566    44.303813   -8727.4604    6390.9527 
  138200    246.39145    -8696.245    35.253413   -8731.4984    8560.1428 
  138400    385.10291   -8678.1931    55.100094   -8733.2931   -1043.0138 
  138600    330.98309   -8687.5501    47.356691   -8734.9068    11362.926 
  138800    298.17548   -8691.1725    42.662615   -8733.8351    6754.7782 
  139000    282.10873     -8685.06    40.363801   -8725.4238   -35852.462 
  139200    305.54028   -8690.2066    43.716361    -8733.923   -6891.5675 
  139400    329.92844   -8682.9671    47.205793   -8730.1729   -7412.2099 
  139600    326.35329   -8686.3352    46.694263   -8733.0294   -6887.1136 
  139800    269.16956   -8692.6583    38.512481   -8731.1708    23424.499 
  140000    320.92635   -8686.7723    45.917783     -8732.69   -20299.184 
  140200    221.45935    -8698.949    31.686156   -8730.6351   -24558.605 
  140400    333.64788   -8683.4361    47.737966   -8731.1741    2418.7082 
  140600    280.73485   -8691.6375    40.167229   -8731.8047    35516.589 
  140800    333.73228   -8679.3129    47.750042   -8727.0629   -29176.754 
  141000    298.02574   -8684.8341     42.64119   -8727.4752   -8494.3515 
  141200     291.2139   -8689.4086     41.66656   -8731.0751   -20584.627 
  141400    336.83581    -8674.518    48.194091   -8722.7121   -19488.819 
  141600    293.95511   -8686.8456    42.058768   -8728.9044   -19304.517 
  141800    271.56089   -8691.0006    38.854629   -8729.8552   -15293.017 
  142000    333.68266   -8673.3448    47.742942   -8721.0877     32335.06 
  142200    264.52917   -8691.3008    37.848538   -8729.1493    26249.982 
  142400    338.66459   -8681.8848    48.455751   -8730.3405     1524.499 
  142600    229.88032    -8697.028    32.891019   -8729.9191   -31078.987 
  142800    328.37648   -8680.9982     46.98374    -8727.982    19572.449 
  143000    272.33338    -8691.914    38.965155   -8730.8791    17077.358 
  143200    295.50936   -8686.5138    42.281149   -8728.7949   -541.97436 
  143400    302.22293   -8675.3905    43.241719   -8718.6322   -10884.215 
  143600    296.46959   -8692.9922    42.418537   -8735.4107   -45996.665 
  143800    273.26089   -8684.8201    39.097863    -8723.918    20787.458 
  144000    312.30708   -8681.0276    44.684549   -8725.7121   -12944.603 
  144200    269.91799   -8685.6166    38.619564   -8724.2361    -17753.56 
  144400    340.64932   -8691.1961    48.739724   -8739.9358    32528.374 
  144600    253.86241   -8698.0441     36.32235   -8734.3665   -23746.171 
  144800    292.65861   -8689.3177    41.873267    -8731.191   -4816.0326 
  145000    311.68171   -8680.9402     44.59507   -8725.5353     18717.99 
  145200    323.03653    -8672.536    46.219705   -8718.7557    11004.973 
  145400    310.73932   -8691.2732    44.460235   -8735.7334   -39851.711 
  145600    323.86393   -8686.6742     46.33809   -8733.0123    42948.194 
  145800    341.19925   -8673.4198    48.818407   -8722.2382   -8691.2252 
  146000    272.12728   -8695.4958    38.935667   -8734.4315   -663.03111 
  146200    306.41143    -8683.059    43.841005      -8726.9    47312.555 
  146400    290.12264   -8689.0435    41.510423   -8730.5539    -19343.69 
  146600    267.51675   -8695.7015    38.275997   -8733.9775   -10967.045 
  146800    319.61596    -8689.961    45.730295   -8735.6913   -26720.042 
  147000    298.43345   -8681.5998    42.699524   -8724.2993   -44456.752 
  147200    312.68076   -8679.0767    44.738014   -8723.8147   -8813.0475 
  147400    294.72711   -8687.4036    42.169225   -8729.5728   -14268.948 
  147600    274.41015   -8688.3766    39.262297   -8727.6389     58062.83 
  147800    282.71974   -8698.3291    40.451225   -8738.7803    -23444.04 
  148000    306.63121   -8684.7964    43.872451   -8728.6689    16928.809 
  148200    312.74251   -8678.4367    44.746849   -8723.1836    64406.582 
  148400     269.7912   -8698.0807    38.601423   -8736.6821   -41563.207 
  148600    308.64174   -8687.0021    44.160116   -8731.1622    4426.4089 
  148800    329.79559   -8686.2723    47.186784   -8733.4591    -6650.901 
  149000    238.77176   -8698.9666    34.163197   -8733.1298   -34557.713 
  149200     272.8968   -8692.2907    39.045769   -8731.3365   -5770.3893 
  149400    288.11482   -8677.0193    41.223146   -8718.2425     34372.92 
  149600    324.70096   -8681.8871     46.45785   -8728.3449   -22487.701 
  149800    261.66498   -8690.5624    37.438733   -8728.0011   -7302.3617 
  150000    309.51108   -8684.3139      44.2845   -8728.5984    -10620.83 
  150200    350.83525   -8672.5745    50.197116   -8722.7716    30516.538 
  150400    270.50067   -8691.4015    38.702934   -8730.1045    19365.719 
  150600    297.35933   -8689.2425     42.54584   -8731.7883    19915.389 
  150800    346.29486   -8671.9797    49.547482   -8721.5272   -45610.214 
  151000    303.60422   -8671.4377    43.439353   -8714.8771    5896.4104 
  151200     301.5349     -8691.76    43.143276   -8734.9033   -25623.323 
  151400     257.7128   -8689.5989    36.873259   -8726.4722   -5158.0053 
  151600    332.88873   -8681.4658    47.629348   -8729.0951   -29708.607 
  151800    268.37166   -8687.7918    38.398317   -8726.1902    26499.778 
  152000    352.20496   -8685.4298    50.393092   -8735.8229    34559.336 
  152200    304.33284   -8687.8877    43.543602   -8731.4313   -19548.532 
  152400    318.76592    -8674.626    45.608672   -8720.2347   -545.41389 
  152600    316.73444   -8684.2039    45.318009   -8729.5219    37179.607 
  152800     293.0026   -8687.8688    41.922484   -8729.7913   -13440.342 
  153000    328.06448   -8680.9277    46.939099   -8727.8668    25574.928 
  153200    289.63733   -8692.0188    41.440986   -8733.4598   -12568.139 
  153400    313.55979   -8684.3564    44.863784   -8729.2201    17512.116 
  153600    318.37058   -8680.0938    45.552107   -8725.6459      16650.5 
  153800     363.9598   -8685.7874    52.074961   -8737.8624    811.61483 
  154000     305.5741   -8693.9694      43.7212   -8737.6906   -16195.841 
  154200    266.40343   -8700.5223    38.116706    -8738.639    24418.883 
  154400    335.62282   -8683.9131    48.020537   -8731.9336     12708.25 
  154600    303.12329   -8687.6356    43.370541   -8731.0062   -27791.134 
  154800    311.43206   -8688.4678    44.559351   -8733.0271   -14776.621 
  155000    296.27246   -8688.0407    42.390333    -8730.431   -9658.2785 
  155200     278.5244   -8685.6967    39.850959   -8725.5477    17742.928 
  155400    290.47987    -8682.913    41.561535   -8724.4745    9876.2674 
  155600    297.95487   -8692.9137    42.631049   -8735.5447    7185.7481 
  155800    284.43047   -8688.8053    40.695994   -8729.5013   -18201.397 
  156000    289.26548    -8686.253    41.387782   -8727.6408   -8286.6991 
  156200    340.67684   -8683.7196    48.743662   -8732.4632    32529.287 
  156400    245.60005    -8700.249     35.14018   -8735.3891   -38492.929 
  156600    290.57924    -8687.868    41.575752   -8729.4438    23807.881 
  156800    346.33244    -8685.068    49.552858   -8734.6209    -6643.554 
  157000    193.71745    -8701.852    27.716876   -8729.5688    56013.143 
  157200    310.52159   -8692.1059    44.429081    -8736.535    21931.676 
  157400    297.12608   -8686.6464    42.512468   -8729.1589   -46047.668 
  157600    330.57192   -8671.4665     47.29786   -8718.7644    13019.519 
  157800     290.8369   -8690.6228    41.612618   -8732.2354    35152.607 
  158000    298.32753   -8685.6135     42.68437   -8728.2979   -25599.417 
  158200    307.06195   -8681.3695    43.934081   -8725.3036    2000.6062 
  158400    272.44741   -8694.1272    38.981471   -8733.1086   -38336.216 
  158600    303.73359   -8683.6848    43.457863   -8727.1427   -11406.842 
  158800    273.52367   -8686.4683    39.135461   -8725.6038    51529.361 
  159000    309.92455   -8686.0684    44.343658    -8730.412    8880.8475 
  159200    326.40327   -8685.7718    46.701416   -8732.4732   -264.67083 
  159400    274.65389   -8696.6628    39.297171     -8735.96   -55937.241 
  159600    341.51185   -8681.6926    48.863134   -8730.5558    33253.167 
  159800     269.1813   -8683.7742    38.514159   -8722.2883   -15116.109 
  160000    263.44287   -8698.1751    37.693111   -8735.8682    16379.377 
  160200    273.56333   -8695.6467    39.141135   -8734.7879    65308.748 
  160400     333.5483   -8682.4339    47.723719   -8730.1577   -14579.344 
  160600    358.08728   -8675.3137    51.234728   -8726.5485     17240.66 
  160800    241.05064    -8699.937    34.489257   -8734.4263    28067.624 
  161000    304.78027   -8683.5895     43.60762   -8727.1971   -47965.415 
  161200    300.13802   -8683.8519    42.943412   -8726.7953   -1460.5313 
  161400    220.62321   -8699.5384    31.566522   -8731.1049   -8957.1388 
  161600    278.19737   -8680.9121    39.804169   -8720.7162   -3348.2245 
  161800    279.74937   -8681.3779    40.026227   -8721.4041   -11143.317 
  162000    315.13751   -8691.1366    45.089523   -8736.2261   -41496.097 
  162200    298.13421   -8690.0925     42.65671   -8732.7492   -41699.494 
  162400    305.23102   -8683.4928    43.672114   -8727.1649   -8184.3602 
  162600    374.10818   -8675.6757     53.52698   -8729.2027    13785.327 
  162800    269.05696   -8690.1114    38.496369   -8728.6078    -11682.66 
  163000    355.26826   -8685.2219    50.831386   -8736.0533   -30121.798 
  163200    353.60469    -8676.924    50.593364   -8727.5173    9317.5372 
  163400    269.05913   -8694.6657     38.49668   -8733.1624   -30392.864 
  163600    273.45133    -8688.583     39.12511   -8727.7081    23705.034 
  163800     311.2098   -8677.3927    44.527551   -8721.9203   -21143.231 
  164000    270.29786   -8689.1723    38.673916   -8727.8462    -18462.86 
  164200    309.45218   -8691.4877    44.276072   -8735.7638   -4759.2314 
  164400     302.6318   -8682.4884     43.30022   -8725.7887   -13094.212 
  164600    355.97584   -8676.6274    50.932626     -8727.56   -49787.756 
  164800    260.78607   -8691.2074     37.31298   -8728.5204     27473.39 
  165000    299.26255   -8682.1303    42.818151   -8724.9484   -32194.586 
  165200    314.22822    -8675.689    44.959423   -8720.6485    3359.4064 
  165400    337.00628   -8685.1445    48.218482    -8733.363    11219.823 
  165600    293.56232   -8693.3054    42.002569    -8735.308     19550.92 
  165800    358.19509   -8674.5194    51.250153   -8725.7695    3601.8954 
  166000    281.63982   -8686.0973    40.296711    -8726.394    7864.6622 
  166200    292.21962   -8688.2864    41.810456   -8730.0969    -14382.51 
  166400    259.59319   -8689.3881    37.142304   -8726.5305   -27394.192 
  166600    350.61861   -8669.2866    50.166119   -8719.4527    41513.899 
  166800    310.35419   -8684.5185    44.405131   -8728.9237    408.54658 
  167000    329.33603   -8688.0697     47.12103   -8735.1907   -30504.096 
  167200    255.04542   -8690.2591    36.491614   -8726.7507    906.38946 
  167400    328.81506    -8673.999    47.046492   -8721.0455    -6569.167 
  167600    282.41451   -8690.7012    40.407552   -8731.1087    8746.5353 
  167800    323.89789   -8687.0098    46.342948   -8733.3527   -17540.033 
  168000    323.55945   -8686.7972    46.294525   -8733.0917   -33495.127 
  168200     337.9742   -8681.4548    48.356971   -8729.8117    13112.466 
  168400    282.36813   -8691.1197    40.400916   -8731.5206     15673.27 
  168600    323.76331   -8688.6317    46.323693   -8734.9554    8327.7459 
  168800     303.7274   -8680.0029    43.456977   -8723.4599    57285.296 
  169000    281.75501   -8692.6557    40.313192   -8732.9689   -16774.197 
  169200    331.81834   -8684.0295    47.476197   -8731.5057   -12905.659 
  169400     388.6643   -8677.8298    55.609653   -8733.4395    7284.0238 
  169600     286.5269   -8690.7005    40.995949   -8731.6965    613.92718 
  169800    349.47769    -8676.246    50.002877   -8726.2488    4181.0178 
  170000     261.6658   -8686.9118    37.438851   -8724.3507   -63210.981 
  170200    306.73125   -8690.3611    43.886764   -8734.2478    76515.323 
  170400    326.38779   -8681.7277      46.6992   -8728.4269   -43346.253 
  170600     332.7705   -8673.3128    47.612431   -8720.9253   -35621.574 
  170800    278.94218   -8690.7301    39.910735   -8730.6408   -27129.398 
  171000    309.60932   -8684.0196    44.298556   -8728.3182    6759.4497 
  171200    390.28756   -8669.5189    55.841907   -8725.3608    8497.5401 
  171400    290.10014   -8689.8794    41.507204   -8731.3866   -7551.3765 
  171600    332.24972   -8687.1756    47.537918   -8734.7135   -7142.4305 
  171800    406.48839    -8671.388    58.159904   -8729.5479    5875.2949 
  172000    257.82355   -8685.5991    36.889105   -8722.4882   -29320.611 
  172200    286.29943    -8683.862    40.963402   -8724.8254    11196.208 
  172400     213.3989   -8701.3438    30.532877   -8731.8766    8369.5364 
  172600    285.27519   -8689.0275    40.816855   -8729.8443   -11167.787 
  172800    351.60432   -8686.6409    50.307153   -8736.9481    164.98666 
  173000    271.14214   -8688.8507    38.794714   -8727.6454    -18227.01 
  173200    281.40584   -8681.4501    40.263234   -8721.7133   -24977.451 
  173400    275.67856   -8695.2044     39.44378   -8734.6482   -26537.099 
  173600    298.69847    -8682.467    42.737444   -8725.2044   -13015.442 
  173800    300.72594    -8682.505    43.027532   -8725.5325     3991.245 
  174000    361.59672   -8688.2712    51.736854   -8740.0081   -20976.647 
  174200    269.79789   -8702.3933    38.602381   -8740.9957    3709.3092 
  174400    360.92472   -8682.5159    51.640705   -8734.1566    4750.7992 
  174600    274.39364   -8687.0056    39.259935   -8726.2655   -30701.353 
  174800    254.08519   -8698.0084    36.354225   -8734.3626    6212.8803 
  175000    309.83558   -8685.3151    44.330928   -8729.6461    27840.431 
  175200    321.37809   -8684.5632    45.982418   -8730.5457   -22097.427 
  175400    300.45731   -8690.0543    42.989097   -8733.0434   -8531.6559 
  175600    351.83322   -8670.7425    50.339903   -8721.0824   -23065.373 
  175800    269.99197    -8689.079     38.63015   -8727.7092    44572.129 
  176000    300.02744    -8688.648     42.92759   -8731.5756    20418.689 
  176200    386.18789   -8668.9457    55.255332    -8724.201   -40677.672 
  176400    303.92431   -8684.1266     43.48515   -8727.6118    8935.9301 
  176600    280.54853   -8691.8749    40.140571   -8732.0155   -1084.7841 
  176800    262.16761   -8694.4857    37.510648   -8731.9964   -20498.346 
  177000    340.68397   -8680.0475    48.744682   -8728.7921    24925.419 
  177200    278.46681     -8691.55    39.842721   -8731.3927   -17282.024 
  177400    369.23103   -8671.1541    52.829163   -8723.9833   -36918.689 
  177600    283.26994   -8682.0145    40.529947   -8722.5445   -25282.231 
  177800    322.31659   -8692.2827    46.116698   -8738.3994    835.18912 
  178000    283.89837    -8685.094    40.619862   -8725.7138   -33800.607 
  178200    349.56291   -8684.1326     50.01507   -8734.1477   -6249.0932 
  178400    249.88206   -8689.3718    35.752846   -8725.1247    31149.913 
  178600    370.58989    -8670.441    53.023587   -8723.4646   -22229.169 
  178800      265.648   -8678.0819    38.008619   -8716.0906    13571.111 
  179000    276.80093   -8695.6421    39.604368   -8735.2465    17383.678 
  179200    283.95942   -8688.4347    40.628596   -8729.0633    19105.174 
  179400    341.09206   -8678.7341     48.80307   -8727.5372   -42271.962 
  179600    262.23909   -8691.0687    37.520876   -8728.5896   -2488.2226 
  179800    269.68578   -8699.7678     38.58634   -8738.3541   -29186.771 
  180000    312.88066   -8678.6305    44.766616   -8723.3971    17581.219 
  180200    300.09614   -8690.6811     42.93742   -8733.6185     26125.09 
  180400    268.64024   -8687.4558    38.436745   -8725.8926   -197.99599 
  180600     305.7662   -8673.8409    43.748687   -8717.5896   -21226.761 
  180800    300.90872   -8688.8828    43.053684   -8731.9364   -16786.627 
  181000    315.54127   -8683.6765    45.147293   -8728.8238   -33637.482 
  181200    339.70376   -8686.7495    48.604434   -8735.3539   -5646.7295 
[...]
  950000    280.02697   -8693.2673    40.065946   -8733.3333     2741.971 
  950200    313.69577   -8672.1932     44.88324   -8717.0764   -20300.354 
  950400     290.8318   -8687.9649    41.611889   -8729.5768   -1281.9633 
  950600    271.59255   -8693.5255    38.859159   -8732.3847   -34060.185 
  950800    321.10727   -8674.7884     45.94367   -8720.7321    113.68571 
  951000     267.1581   -8687.9122    38.224682   -8726.1369    12388.924 
  951200     297.6867   -8689.5359    42.592681   -8732.1286   -25329.132 
  951400    295.60878    -8679.654    42.295373   -8721.9493   -24246.981 
  951600    369.10652   -8673.1741    52.811349   -8725.9855   -21902.341 
  951800    298.06757   -8686.2711    42.647175   -8728.9183    10006.399 
  952000    270.09452   -8692.6067    38.644823   -8731.2515   -18425.096 
  952200    292.59454    -8691.585    41.864099   -8733.4491   -20122.365 
  952400    325.94901   -8678.8302     46.63642   -8725.4666    22186.359 
  952600    277.18875   -8689.5526    39.659857   -8729.2124    5427.3218 
  952800    197.32856   -8703.6962     28.23355   -8731.9298   -27797.777 
  953000    239.51784   -8686.6216    34.269945   -8720.8915    12450.779 
  953200     261.7365    -8681.121    37.448966     -8718.57   -34202.008 
  953400    255.99693   -8695.3139    36.627755   -8731.9417    6284.5978 
  953600    282.06356   -8688.1664    40.357339   -8728.5237   -38059.635 
  953800    308.77444   -8678.9594    44.179102   -8723.1385   -16263.242 
  954000    304.30414   -8691.0942    43.539497   -8734.6337    7794.8036 
  954200    255.39778   -8702.2262    36.542029   -8738.7682   -34801.059 
  954400    339.62446   -8683.5456    48.593089   -8732.1387    12413.035 
  954600    320.73111   -8683.7091    45.889848   -8729.5989    7666.9887 
  954800    244.72692   -8699.1044    35.015254   -8734.1197   -18520.872 
  955000    298.56874   -8685.0163    42.718882   -8727.7352   -47697.277 
  955200    284.76081   -8678.7299    40.743258   -8719.4731    18059.592 
  955400    279.83094   -8690.5479    40.037899   -8730.5858    43240.684 
  955600    233.19218   -8699.1261    33.364877   -8732.4909    1760.8977 
  955800    284.18516   -8682.0797    40.660895   -8722.7406    9467.3016 
  956000    336.73865   -8678.9171     48.18019   -8727.0973    24226.273 
  956200    277.52955   -8694.2244    39.708618    -8733.933    24191.182 
  956400    293.64228   -8687.3817     42.01401   -8729.3957    2234.7712 
  956600    290.98427   -8681.8046    41.633703   -8723.4383   -19509.581 
  956800    304.70627   -8678.4546    43.597032   -8722.0516   -551.61526 
  957000    284.57797   -8693.6563    40.717098   -8734.3734    -42374.54 
  957200    338.62808   -8678.2924    48.450527   -8726.7429   -19659.958 
  957400    326.61652   -8684.3588    46.731927   -8731.0907    14076.056 
  957600    339.82815   -8688.7899    48.622231   -8737.4121   -43258.782 
  957800    334.74862    -8672.546    47.895458   -8720.4415    18850.022 
  958000    355.25283   -8676.6998    50.829178    -8727.529    63224.528 
  958200    287.61876   -8692.2367     41.15217   -8733.3889   -30608.295 
  958400    289.59671   -8683.6293    41.435173   -8725.0645   -11360.658 
  958600    399.96375   -8672.7356    57.226367    -8729.962   -29358.628 
  958800    287.11078   -8687.7411    41.079489   -8728.8206    16287.991 
  959000     293.7231   -8690.3767    42.025573   -8732.4022     19869.76 
  959200    355.61542   -8674.4965    50.881057   -8725.3775    5036.4772 
  959400     299.1126   -8687.4654    42.796697   -8730.2621   -36055.548 
  959600    316.95638   -8684.7634    45.349764   -8730.1132     54254.17 
  959800    428.32752   -8657.4326    61.284623   -8718.7173   -2469.6647 
  960000     340.7408   -8677.3689    48.752813   -8726.1217    -10392.44 
  960200    314.02529   -8691.7762    44.930388   -8736.7065   -2230.1919 
  960400    276.91932   -8685.5938    39.621306   -8725.2151    18742.658 
  960600    329.46185    -8679.965    47.139033    -8727.104    1204.6686 
  960800    260.10436   -8690.7038    37.215441   -8727.9193    39107.274 
  961000    371.04403   -8668.9303    53.088566   -8722.0188    29224.602 
  961200    293.66248     -8683.32      42.0169   -8725.3369   -23508.355 
  961400    327.52281   -8687.8816    46.861598   -8734.7432   -39588.302 
  961600    292.30982   -8694.8146    41.823362   -8736.6379   -1004.6788 
  961800    369.45786   -8678.1435    52.861617   -8731.0051   -1652.9061 
  962000    304.75944   -8687.6274     43.60464   -8731.2321    15164.731 
  962200    283.16565   -8699.8726    40.515025   -8740.3877    26915.711 
  962400    346.52196   -8680.8791    49.579975   -8730.4591   -4186.2872 
  962600    307.81343   -8685.6112    44.041601   -8729.6528   -1711.7891 
  962800    251.78505    -8695.154    36.025123   -8731.1791     22483.58 
  963000     312.6662   -8676.5001     44.73593   -8721.2361   -20983.449 
  963200    290.24265   -8684.4041    41.527594   -8725.9317    3797.8507 
  963400    265.78851   -8698.9177    38.028723   -8736.9464    -8628.013 
  963600    268.45004   -8688.1878    38.409531   -8726.5973   -25598.787 
  963800    309.46254   -8685.3652    44.277555   -8729.6428   -17269.841 
  964000    263.85756   -8693.9755    37.752445    -8731.728   -8800.2961 
  964200    300.30184   -8678.1131    42.966851     -8721.08    18872.068 
  964400    290.80386   -8684.5075    41.607891   -8726.1154    -22013.69 
  964600     347.7238   -8688.8399    49.751932   -8738.5918    5062.6323 
  964800    348.91129   -8681.8269    49.921837   -8731.7487    8375.2525 
  965000    315.43293    -8675.924    45.131792   -8721.0558    3793.9674 
  965200    245.07125   -8690.4381    35.064521   -8725.5026    25653.081 
  965400    308.04113    -8684.809     44.07418   -8728.8832   -5949.9828 
  965600    337.28205    -8670.093    48.257939    -8718.351   -19092.114 
  965800    284.56161   -8689.4073    40.714757   -8730.1221    26600.037 
  966000    290.45507   -8687.4812    41.557986   -8729.0392   -23939.078 
  966200    352.63399   -8675.6215    50.454477   -8726.0759   -2363.9494 
  966400    259.17282   -8691.8283    37.082157   -8728.9105    -37183.17 
  966600      321.447   -8687.4674    45.992277   -8733.4597   -1351.8163 
  966800    260.04801   -8677.2438    37.207379   -8714.4511    27729.857 
  967000    331.12715   -8673.9601    47.377302   -8721.3374   -1938.7432 
  967200    305.06243   -8690.5948    43.647992   -8734.2428   -8959.9738 
  967400     296.7457    -8686.717    42.458042    -8729.175     12880.77 
  967600    371.19413   -8672.7983    53.110042   -8725.9084    12937.244 
  967800    303.18439   -8687.3789    43.379284   -8730.7582    -19253.86 
  968000    305.13094   -8689.3777    43.657794   -8733.0355    -9373.045 
  968200    284.48779   -8685.5899    40.704195   -8726.2941   -41064.451 
  968400     323.3991   -8672.4163    46.271582   -8718.6879   -1041.8848 
  968600    263.40255   -8686.5611    37.687342   -8724.2485   -5332.3088 
  968800    224.77849   -8704.5867    32.161055   -8736.7478    -4299.262 
  969000    230.69015   -8697.4775    33.006889   -8730.4844    7134.1144 
  969200    348.07841   -8683.7964     49.80267   -8733.5991    23382.155 
  969400    269.91208   -8687.2122    38.618719   -8725.8309    8097.3232 
  969600    266.53663   -8695.7044    38.135764   -8733.8402    11274.795 
  969800    345.20441   -8678.5785    49.391461     -8727.97   -20910.086 
  970000    230.96734   -8690.7046    33.046549   -8723.7511   -41843.119 
  970200    345.06159   -8677.9379    49.371027   -8727.3089   -10335.954 
  970400    308.02018   -8684.0177    44.071183   -8728.0888    11713.005 
  970600    274.65811   -8692.8243    39.297775    -8732.122    36727.816 
  970800    309.00883   -8677.7981    44.212638   -8722.0107    28936.171 
  971000    297.37305   -8684.5987    42.547803   -8727.1465    21968.896 
  971200    277.04714   -8682.9442    39.639594   -8722.5838    -18276.35 
  971400     259.4975   -8684.9405    37.128612   -8722.0691    11849.015 
  971600    275.69386   -8691.4529     39.44597   -8730.8989   -8079.9335 
  971800    322.42178   -8679.8404    46.131748   -8725.9721    20361.855 
  972000    246.22462   -8684.6161    35.229544   -8719.8456   -12162.385 
  972200    317.98773   -8689.2949    45.497329   -8734.7923    23647.676 
  972400    257.57006   -8695.2449    36.852836   -8732.0978   -5091.0793 
  972600     283.2991   -8684.2449    40.534118   -8724.7791    10533.039 
  972800    364.60343    -8675.061    52.167051    -8727.228    4029.8732 
  973000    304.86686   -8684.9596     43.62001   -8728.5796    8869.1886 
  973200    340.78157   -8688.8132    48.758646   -8737.5718    15060.102 
  973400    313.25115   -8685.8411    44.819624   -8730.6607   -15816.919 
  973600    320.51256   -8676.6735    45.858578   -8722.5321   -21845.817 
  973800    283.54045    -8690.828    40.568651   -8731.3966    3565.2961 
  974000    313.13564   -8685.0203    44.803097   -8729.8234    909.29101 
  974200    317.77147    -8677.634    45.466387   -8723.1004   -26307.082 
  974400    249.68656   -8698.0287    35.724874   -8733.7535    48037.735 
  974600    301.42947   -8684.5913    43.128192   -8727.7195   -9287.7198 
  974800    320.85746   -8683.3849    45.907926   -8729.2929   -19121.574 
  975000    220.83546   -8702.1298    31.596891   -8733.7267    22229.448 
  975200    317.71983   -8694.4565    45.458998   -8739.9155    3172.5887 
  975400    324.80912   -8678.5424    46.473325   -8725.0158    19528.672 
  975600    320.73501   -8677.1521    45.890407   -8723.0425   -35549.575 
  975800    292.74484   -8688.6748    41.885604   -8730.5604   -7704.1955 
  976000    296.44417   -8683.5646      42.4149   -8725.9795   -5636.0284 
  976200    326.70964   -8664.4036     46.74525   -8711.1488   -18556.226 
  976400    275.94115   -8682.8544    39.481351   -8722.3357     6168.674 
  976600    297.75401   -8690.0799     42.60231   -8732.6822     20450.27 
  976800    256.81085   -8691.2781     36.74421   -8728.0223   -29416.685 
  977000     324.8493   -8675.1238    46.479075   -8721.6028     23855.87 
  977200    329.96253   -8679.2616     47.21067   -8726.4723    -28850.67 
  977400    276.29102   -8691.7449    39.531411   -8731.2763    2309.4331 
  977600    309.57823   -8677.9423    44.294107   -8722.2364    4939.8791 
  977800    319.03425     -8684.44    45.647064   -8730.0871    32120.426 
  978000    266.13384   -8690.2692    38.078132   -8728.3474    36202.935 
  978200    354.60353    -8679.668    50.736276   -8730.4043    -35573.03 
  978400    343.60746   -8669.1289    49.162971   -8718.2919    2182.4117 
  978600    269.28012   -8690.2629    38.528299   -8728.7912   -25194.869 
  978800    329.38792   -8684.9237    47.128456   -8732.0521    35426.742 
  979000    250.77476   -8676.6477    35.880572   -8712.5283    5072.7738 
  979200    306.22836    -8692.091    43.814811   -8735.9058   -5873.5819 
  979400    308.18665   -8679.9792    44.095001   -8724.0742   -4198.4943 
  979600    322.42778   -8677.0045    46.132606   -8723.1371   -36627.613 
  979800    259.60811   -8691.0862    37.144439   -8728.2306    16548.819 
  980000     335.4295   -8679.1907    47.992879   -8727.1835    8647.6032 
  980200    298.39209   -8690.1728    42.693606   -8732.8664   -11546.505 
  980400    274.95495   -8691.9398    39.340247     -8731.28   -1122.3228 
  980600      360.215   -8678.3536     51.53916   -8729.8928   -8866.4452 
  980800    308.27792   -8687.1714     44.10806   -8731.2795     -7872.66 
  981000    290.49884   -8687.4488     41.56425   -8729.0131    -17971.69 
  981200    274.34942   -8686.4183    39.253608    -8725.672    37154.646 
  981400    387.02039    -8674.846    55.374445   -8730.2204    32241.837 
  981600    270.22368   -8690.4882    38.663302   -8729.1515   -33295.823 
  981800    366.22963   -8678.9332    52.399725   -8731.3329   -11914.494 
  982000    321.47321   -8678.6287    45.996028   -8724.6248   -14667.317 
  982200    331.69837   -8684.7414    47.459032   -8732.2005    16249.722 
  982400    210.48262   -8693.6284    30.115617    -8723.744   -19086.946 
  982600    319.39409    -8678.962     45.69855   -8724.6605   -16839.933 
  982800    274.12603    -8688.375    39.221646   -8727.5966    10855.265 
  983000    265.17984   -8689.0648    37.941635   -8727.0065   -1703.0736 
  983200    274.64098   -8676.9955    39.295324   -8716.2909    -14898.52 
  983400    325.55468   -8680.9303    46.579999   -8727.5103   -26797.523 
  983600    274.78865   -8690.4201    39.316453   -8729.7365   -22580.675 
  983800    327.96178   -8677.9535    46.924405   -8724.8779    1813.4693 
  984000    300.97571   -8683.6277    43.063269   -8726.6909    950.78576 
  984200    281.88994   -8695.7647    40.332498   -8736.0972   -10014.674 
  984400    272.45559   -8700.3604    38.982641   -8739.3431    20922.052 
  984600    358.06367   -8680.5908    51.231349   -8731.8222   -29157.421 
  984800      335.655   -8677.6454    48.025143   -8725.6705    16760.965 
  985000    324.13582   -8692.4642    46.376991   -8738.8412    13006.317 
  985200     334.2944   -8679.7778    47.830469   -8727.6082    -49688.35 
  985400    359.47954   -8681.9348    51.433931   -8733.3688   -16429.374 
  985600    223.94674   -8693.8832    32.042049   -8725.9252    5726.5187 
  985800    355.25632   -8685.6608    50.829678   -8736.4904   -5331.7286 
  986000    287.81676   -8686.5381      41.1805   -8727.7186   -5211.3136 
  986200    235.15208   -8696.7443    33.645297   -8730.3896   -6676.2893 
  986400     333.7654   -8679.6181     47.75478   -8727.3728   -15993.548 
  986600    291.31777   -8685.8703     41.68142   -8727.5517    39825.928 
  986800    365.01316   -8680.5265    52.225675   -8732.7522   -40728.418 
  987000    310.14499   -8678.1266    44.375199   -8722.5018    30743.619 
  987200    264.25536    -8693.171    37.809362   -8730.9803   -28419.468 
  987400    244.78786   -8681.8666    35.023974   -8716.8906    52062.609 
  987600    312.97482    -8682.046    44.780088   -8726.8261   -20074.216 
  987800     310.7051   -8682.4967    44.455338    -8726.952    -1108.299 
  988000    314.30062   -8687.8434    44.969782   -8732.8132    2840.5186 
  988200    305.52348   -8691.1761    43.713959   -8734.8901    1878.7882 
  988400    363.71441   -8676.7787    52.039851   -8728.8186    -4875.031 
  988600    302.72682   -8683.9273    43.313815   -8727.2411   -2217.9566 
  988800    295.49484    -8690.655    42.279072    -8732.934    13833.388 
  989000    295.19267   -8685.8795    42.235838   -8728.1154   -17259.512 
  989200    326.91686   -8675.9887      46.7749   -8722.7636   -41504.136 
  989400     313.5703    -8685.449    44.865288   -8730.3143    25279.958 
  989600    326.79309    -8682.316     46.75719   -8729.0732    6567.8349 
  989800    253.52692   -8699.4728    36.274349   -8735.7471   -2067.8896 
  990000    284.43859   -8685.3238    40.697156   -8726.0209    12075.884 
  990200    341.17127   -8681.6083    48.814403   -8730.4227   -14553.883 
  990400    238.31465    -8698.577    34.097794   -8732.6748   -8923.6662 
  990600    306.35326   -8685.2478    43.832682   -8729.0805    -1268.313 
  990800    290.20705   -8684.1934      41.5225   -8725.7159    11549.413 
  991000    287.26859   -8684.7782    41.102069   -8725.8803   -18873.474 
  991200    312.50262   -8683.8135    44.712526   -8728.5261   -17924.616 
  991400    249.31832   -8691.2363    35.672186   -8726.9085   -10533.009 
  991600    316.11483   -8682.9525    45.229356   -8728.1818    22348.438 
  991800    255.12851   -8690.4154    36.503502   -8726.9189   -28358.836 
  992000    329.37843   -8672.3865    47.127098   -8719.5136   -2915.7595 
  992200     313.6528   -8685.4123    44.877091   -8730.2894    64223.261 
  992400    315.91464   -8688.5151    45.200713   -8733.7158    -35003.72 
  992600    292.33327   -8685.8945    41.826718   -8727.7213   -8344.9346 
  992800    314.96445   -8686.3952    45.064761   -8731.4599   -18402.881 
  993000    261.87882   -8697.1283    37.469329   -8734.5976   -31395.144 
  993200    333.84716   -8681.9271    47.766478   -8729.6936   -14725.147 
  993400     315.0691   -8681.6355    45.079735   -8726.7153    13879.232 
  993600    356.65534   -8679.6372    51.029847    -8730.667   -33073.817 
  993800    297.58335   -8690.4175    42.577893   -8732.9954    32815.064 
  994000    249.75571   -8695.8864    35.734768   -8731.6211    31694.113 
  994200    303.07522   -8683.1865    43.363664   -8726.5502   -48880.337 
  994400    297.59952    -8685.236    42.580207   -8727.8162    1146.0752 
  994600    313.18297    -8689.456    44.809869   -8734.2658   -16717.551 
  994800     282.9844   -8691.0264    40.489092   -8731.5155    -10959.91 
  995000    294.45767   -8675.4166    42.130674   -8717.5473    21533.123 
  995200    304.78843   -8686.4481    43.608788   -8730.0569    13685.463 
  995400     306.6995   -8688.8596    43.882221   -8732.7418   -33660.693 
  995600    263.60874   -8688.8732    37.716844   -8726.5901    12882.394 
  995800    420.11868   -8672.6932    60.110112   -8732.8033   -47222.424 
  996000    321.58895   -8686.4084    46.012588    -8732.421    2217.9942 
  996200    303.13445   -8684.0097    43.372139   -8727.3818   -7577.4101 
  996400    370.62549   -8670.6076    53.028681   -8723.6362   -38329.026 
  996600    279.62107   -8688.8525    40.007871   -8728.8604    9054.4134 
  996800    306.87123    -8686.307    43.906792   -8730.2138   -33080.643 
  997000    333.01973   -8672.3138    47.648091   -8719.9619   -18889.322 
  997200    277.45554   -8686.0863    39.698028   -8725.7844   -25285.494 
  997400    301.87644   -8690.6882    43.192143   -8733.8803    23271.512 
  997600    282.86334   -8692.9634     40.47177   -8733.4352    -8688.729 
  997800    301.81846   -8677.1222    43.183847    -8720.306    1623.6008 
  998000    290.71831   -8689.0192    41.595651   -8730.6149   -19220.519 
  998200    302.53064    -8690.644    43.285746   -8733.9297   -18799.731 
  998400    300.52483    -8685.998    42.998757   -8728.9968    23285.282 
  998600    351.59449   -8667.4747    50.305747   -8717.7804    37644.699 
  998800    291.79725    -8688.176    41.750025    -8729.926   -3498.1397 
  999000    296.59244   -8692.1894    42.436115   -8734.6255    -29966.32 
  999200    324.15103   -8683.6024    46.379168   -8729.9815    15360.772 
  999400    302.42476   -8681.9648    43.270597   -8725.2353    49574.497 
  999600    254.96765   -8690.0708    36.480486   -8726.5513    7943.7734 
  999800     290.9643   -8690.3247    41.630847   -8731.9556   -17265.677 
 1000000    322.52282   -8674.1866    46.146205   -8720.3328   -41636.496 
Loop time of 4309.09 on 8 procs for 1000000 steps with 49 atoms

Performance: 5.013 ns/day, 4.788 hours/ns, 232.068 timesteps/s
99.0% CPU use with 8 MPI tasks x no OpenMP threads

MPI task timing breakdown:
Section |  min time  |  avg time  |  max time  |%varavg| %total
---------------------------------------------------------------
Pair    | 3803.2     | 3844.2     | 3896.3     |  45.7 | 89.21
Neigh   | 0.20685    | 0.21144    | 0.21531    |   0.5 |  0.00
Comm    | 66.214     | 117.67     | 158.26     | 257.8 |  2.73
Output  | 0.089803   | 0.099613   | 0.15953    |   7.2 |  0.00
Modify  | 342.36     | 342.85     | 343.32     |   2.0 |  7.96
Other   |            | 4.033      |            |       |  0.09

Nlocal:    6.125 ave 7 max 6 min
Histogram: 7 0 0 0 0 0 0 0 0 1
Nghost:    919.125 ave 928 max 911 min
Histogram: 1 1 0 2 0 2 0 0 1 1
Neighs:    1695.5 ave 1946 max 1653 min
Histogram: 7 0 0 0 0 0 0 0 0 1

Total # of neighbors = 13564
Ave neighs/atom = 276.816
Neighbor list builds = 95
Dangerous builds = 0

Please see the log.cite file for references relevant to this simulation

Total wall time: 1:11:58
