LAMMPS (3 Mar 2020)
Reading data file ...
  orthogonal box = (0 0 0) to (11 11.002 11)
  2 by 2 by 2 MPI processor grid
  reading atoms ...
  51 atoms
  read_data CPU = 0.0103908 secs
WARNING: Using 'neigh_modify every 1 delay 0 check yes' setting during minimization (../min.cpp:190)
WARNING: Total cutoff < 2*bond cutoff. May need to use an increased neighbor list skin. (../pair_reaxc.cpp:413)
Neighbor list info ...
  update every 1 steps, delay 0 steps, check yes
  max neighbors/atom: 2000, page size: 100000
  master list distance cutoff = 9.5
  ghost atom cutoff = 9.5
  binsize = 4.75, bins = 3 3 3
  2 neighbor lists, perpetual/occasional/extra = 2 0 0
  (1) pair reax/c, perpetual
      attributes: half, newton off, ghost
      pair build: half/bin/newtoff/ghost
      stencil: half/ghost/bin/3d/newtoff
      bin: standard
  (2) fix qeq/reax, perpetual, copy from (1)
      attributes: half, newton off, ghost
      pair build: copy
      stencil: none
      bin: none
Setting up cg style minimization ...
  Unit style    : real
  Current step  : 0
Per MPI rank memory allocation (min/avg/max) = 19.03 | 19.2 | 19.43 Mbytes
Step Temp E_pair E_mol TotEng Press 
       0            0   -8797.3564            0   -8797.3564    13471.316 
     279            0    -8885.795            0    -8885.795    18398.472 
Loop time of 24.0305 on 8 procs for 279 steps with 51 atoms

98.8% CPU use with 8 MPI tasks x no OpenMP threads

Minimization stats:
  Stopping criterion = energy tolerance
  Energy initial, next-to-last, final = 
        -8797.35639394     -8885.79501942     -8885.79501989
  Force two-norm initial, final = 661.429 79.6463
  Force max component initial, final = 350.636 39.2635
  Final line search alpha, max atom move = 1.96412e-07 7.71182e-06
  Iterations, force evaluations = 279 2148

MPI task timing breakdown:
Section |  min time  |  avg time  |  max time  |%varavg| %total
---------------------------------------------------------------
Pair    | 16.311     | 16.752     | 16.996     |   5.8 | 69.71
Neigh   | 0          | 0          | 0          |   0.0 |  0.00
Comm    | 0.39656    | 0.63795    | 1.0763     |  29.7 |  2.65
Output  | 0.0028448  | 0.0042137  | 0.006148   |   1.6 |  0.02
Modify  | 6.5636     | 6.5644     | 6.5651     |   0.0 | 27.32
Other   |            | 0.07144    |            |       |  0.30

Nlocal:    6.375 ave 9 max 6 min
Histogram: 7 0 0 0 0 0 0 0 0 1
Nghost:    620.375 ave 631 max 611 min
Histogram: 1 0 1 0 4 0 0 0 0 2
Neighs:    836.375 ave 1152 max 782 min
Histogram: 7 0 0 0 0 0 0 0 0 1

Total # of neighbors = 6691
Ave neighs/atom = 131.196
Neighbor list builds = 0
Dangerous builds = 0
WARNING: Using 'neigh_modify every 1 delay 0 check yes' setting during minimization (../min.cpp:190)
WARNING: Total cutoff < 2*bond cutoff. May need to use an increased neighbor list skin. (../pair_reaxc.cpp:413)
Setting up cg style minimization ...
  Unit style    : real
  Current step  : 279
Per MPI rank memory allocation (min/avg/max) = 19.03 | 19.2 | 19.43 Mbytes
Step Temp E_pair E_mol TotEng Press 
     279            0    -8885.795            0    -8885.795    18398.472 
     384            0   -8887.7552            0   -8887.7552    14450.173 
Loop time of 12.2661 on 8 procs for 105 steps with 51 atoms

98.8% CPU use with 8 MPI tasks x no OpenMP threads

Minimization stats:
  Stopping criterion = energy tolerance
  Energy initial, next-to-last, final = 
        -8885.79501989     -8887.75513122     -8887.75517347
  Force two-norm initial, final = 79.6463 30.4917
  Force max component initial, final = 39.2635 9.65355
  Final line search alpha, max atom move = 8.08878e-05 0.000780855
  Iterations, force evaluations = 105 1113

MPI task timing breakdown:
Section |  min time  |  avg time  |  max time  |%varavg| %total
---------------------------------------------------------------
Pair    | 8.5185     | 8.7693     | 8.9559     |   4.5 | 71.49
Neigh   | 0          | 0          | 0          |   0.0 |  0.00
Comm    | 0.15796    | 0.34352    | 0.59427    |  22.6 |  2.80
Output  | 0.0010895  | 0.0016114  | 0.0024132  |   1.1 |  0.01
Modify  | 3.1151     | 3.1155     | 3.1159     |   0.0 | 25.40
Other   |            | 0.03608    |            |       |  0.29

Nlocal:    6.375 ave 8 max 6 min
Histogram: 6 0 0 0 0 1 0 0 0 1
Nghost:    625.375 ave 639 max 617 min
Histogram: 1 0 5 0 0 0 0 1 0 1
Neighs:    854.875 ave 1044 max 805 min
Histogram: 6 0 0 0 0 1 0 0 0 1

Total # of neighbors = 6839
Ave neighs/atom = 134.098
Neighbor list builds = 0
Dangerous builds = 0
WARNING: Using 'neigh_modify every 1 delay 0 check yes' setting during minimization (../min.cpp:190)
WARNING: Total cutoff < 2*bond cutoff. May need to use an increased neighbor list skin. (../pair_reaxc.cpp:413)
Setting up cg style minimization ...
  Unit style    : real
  Current step  : 384
WARNING: Energy due to 3 extra global DOFs will be included in minimizer energies
Per MPI rank memory allocation (min/avg/max) = 19.03 | 19.2 | 19.43 Mbytes
Step Temp E_pair E_mol TotEng Press Volume 
     384            0   -8887.7552            0   -8887.7552    14450.173     1331.242 
     458            0   -8888.6094            0   -8888.6094    161.60456    1336.9339 
Loop time of 1.2439 on 8 procs for 74 steps with 51 atoms

98.8% CPU use with 8 MPI tasks x no OpenMP threads

Minimization stats:
  Stopping criterion = energy tolerance
  Energy initial, next-to-last, final = 
        -8887.75517347     -8888.60936425     -8888.60944973
  Force two-norm initial, final = 487.378 32.1846
  Force max component initial, final = 295.65 9.46262
  Final line search alpha, max atom move = 2.47777e-05 0.000234462
  Iterations, force evaluations = 74 123

MPI task timing breakdown:
Section |  min time  |  avg time  |  max time  |%varavg| %total
---------------------------------------------------------------
Pair    | 0.958      | 0.98026    | 0.99474    |   1.2 | 78.81
Neigh   | 0          | 0          | 0          |   0.0 |  0.00
Comm    | 0.020385   | 0.034895   | 0.057128   |   6.1 |  2.81
Output  | 0.00064835 | 0.00094578 | 0.0013959  |   0.0 |  0.08
Modify  | 0.21589    | 0.21593    | 0.21596    |   0.0 | 17.36
Other   |            | 0.01186    |            |       |  0.95

Nlocal:    6.375 ave 8 max 6 min
Histogram: 6 0 0 0 0 1 0 0 0 1
Nghost:    627.875 ave 643 max 617 min
Histogram: 1 1 2 0 2 0 0 1 0 1
Neighs:    856.375 ave 1048 max 805 min
Histogram: 6 0 0 0 0 1 0 0 0 1

Total # of neighbors = 6851
Ave neighs/atom = 134.333
Neighbor list builds = 0
Dangerous builds = 0
WARNING: Using 'neigh_modify every 1 delay 0 check yes' setting during minimization (../min.cpp:190)
WARNING: Total cutoff < 2*bond cutoff. May need to use an increased neighbor list skin. (../pair_reaxc.cpp:413)
Setting up cg style minimization ...
  Unit style    : real
  Current step  : 458
Per MPI rank memory allocation (min/avg/max) = 19.03 | 19.2 | 19.43 Mbytes
Step Temp E_pair E_mol TotEng Press 
     458            0   -8888.6094            0   -8888.6094    161.60456 
     637            0   -8899.8191            0   -8899.8191    9208.7603 
Loop time of 19.56 on 8 procs for 179 steps with 51 atoms

98.8% CPU use with 8 MPI tasks x no OpenMP threads

Minimization stats:
  Stopping criterion = energy tolerance
  Energy initial, next-to-last, final = 
        -8888.60944972     -8899.81905927     -8899.81912783
  Force two-norm initial, final = 30.7383 118.675
  Force max component initial, final = 8.14568 57.4624
  Final line search alpha, max atom move = 1.38155e-06 7.9387e-05
  Iterations, force evaluations = 179 1777

MPI task timing breakdown:
Section |  min time  |  avg time  |  max time  |%varavg| %total
---------------------------------------------------------------
Pair    | 13.499     | 13.825     | 14.014     |   4.2 | 70.68
Neigh   | 0          | 0          | 0          |   0.0 |  0.00
Comm    | 0.29838    | 0.48764    | 0.81212    |  22.4 |  2.49
Output  | 0.0017678  | 0.0024647  | 0.0036321  |   1.2 |  0.01
Modify  | 5.1883     | 5.1888     | 5.189      |   0.0 | 26.53
Other   |            | 0.05632    |            |       |  0.29

Nlocal:    6.375 ave 8 max 6 min
Histogram: 6 0 0 0 0 1 0 0 0 1
Nghost:    622.25 ave 633 max 614 min
Histogram: 1 2 0 0 3 0 0 1 0 1
Neighs:    849.875 ave 1045 max 797 min
Histogram: 6 0 0 0 1 0 0 0 0 1

Total # of neighbors = 6799
Ave neighs/atom = 133.314
Neighbor list builds = 0
Dangerous builds = 0
WARNING: Using 'neigh_modify every 1 delay 0 check yes' setting during minimization (../min.cpp:190)
WARNING: Total cutoff < 2*bond cutoff. May need to use an increased neighbor list skin. (../pair_reaxc.cpp:413)
Setting up cg style minimization ...
  Unit style    : real
  Current step  : 637
WARNING: Energy due to 3 extra global DOFs will be included in minimizer energies
Per MPI rank memory allocation (min/avg/max) = 19.03 | 19.2 | 19.43 Mbytes
Step Temp E_pair E_mol TotEng Press Volume 
     637            0   -8899.8191            0   -8899.8191    9208.7603    1336.9339 
    1332            0   -8909.1105            0   -8909.1105    103.50788    1343.3534 
Loop time of 10.4883 on 8 procs for 695 steps with 51 atoms

98.5% CPU use with 8 MPI tasks x no OpenMP threads

Minimization stats:
  Stopping criterion = linesearch alpha is zero
  Energy initial, next-to-last, final = 
        -8899.81912783     -8909.11045734     -8909.11045734
  Force two-norm initial, final = 346.871 23.7795
  Force max component initial, final = 245.234 8.07266
  Final line search alpha, max atom move = 1.46419e-11 1.18199e-10
  Iterations, force evaluations = 695 1051

MPI task timing breakdown:
Section |  min time  |  avg time  |  max time  |%varavg| %total
---------------------------------------------------------------
Pair    | 8.0187     | 8.243      | 8.3318     |   4.0 | 78.59
Neigh   | 0          | 0          | 0          |   0.0 |  0.00
Comm    | 0.19065    | 0.27916    | 0.50297    |  21.6 |  2.66
Output  | 0.006598   | 0.0087137  | 0.012578   |   1.9 |  0.08
Modify  | 1.8568     | 1.8575     | 1.8583     |   0.0 | 17.71
Other   |            | 0.0999     |            |       |  0.95

Nlocal:    6.375 ave 8 max 6 min
Histogram: 6 0 0 0 0 1 0 0 0 1
Nghost:    621.625 ave 632 max 614 min
Histogram: 2 1 0 0 1 1 2 0 0 1
Neighs:    854.875 ave 1050 max 799 min
Histogram: 5 1 0 0 0 1 0 0 0 1

Total # of neighbors = 6839
Ave neighs/atom = 134.098
Neighbor list builds = 0
Dangerous builds = 0
WARNING: Using 'neigh_modify every 1 delay 0 check yes' setting during minimization (../min.cpp:190)
WARNING: Total cutoff < 2*bond cutoff. May need to use an increased neighbor list skin. (../pair_reaxc.cpp:413)
Setting up cg style minimization ...
  Unit style    : real
  Current step  : 1332
Per MPI rank memory allocation (min/avg/max) = 19.03 | 19.2 | 19.43 Mbytes
Step Temp E_pair E_mol TotEng Press 
    1332            0   -8909.1105            0   -8909.1105    103.50788 
    1337            0   -8909.1218            0   -8909.1218     2.871086 
Loop time of 0.856216 on 8 procs for 5 steps with 51 atoms

98.7% CPU use with 8 MPI tasks x no OpenMP threads

Minimization stats:
  Stopping criterion = energy tolerance
  Energy initial, next-to-last, final = 
        -8909.11045734     -8909.12174065     -8909.12181118
  Force two-norm initial, final = 23.3754 20.3522
  Force max component initial, final = 8.07266 8.06059
  Final line search alpha, max atom move = 1.73857e-07 1.40139e-06
  Iterations, force evaluations = 5 79

MPI task timing breakdown:
Section |  min time  |  avg time  |  max time  |%varavg| %total
---------------------------------------------------------------
Pair    | 0.59642    | 0.62117    | 0.63571    |   1.7 | 72.55
Neigh   | 0          | 0          | 0          |   0.0 |  0.00
Comm    | 0.012244   | 0.026691   | 0.051416   |   8.3 |  3.12
Output  | 0          | 0          | 0          |   0.0 |  0.00
Modify  | 0.2057     | 0.20581    | 0.20589    |   0.0 | 24.04
Other   |            | 0.002544   |            |       |  0.30

Nlocal:    6.375 ave 8 max 6 min
Histogram: 6 0 0 0 0 1 0 0 0 1
Nghost:    617.875 ave 633 max 605 min
Histogram: 2 0 0 1 1 1 1 1 0 1
Neighs:    847.875 ave 1036 max 793 min
Histogram: 6 0 0 0 0 1 0 0 0 1

Total # of neighbors = 6783
Ave neighs/atom = 133
Neighbor list builds = 0
Dangerous builds = 0
WARNING: Total cutoff < 2*bond cutoff. May need to use an increased neighbor list skin. (../pair_reaxc.cpp:413)
Setting up Verlet run ...
  Unit style    : real
  Current step  : 0
  Time step     : 0.25
Per MPI rank memory allocation (min/avg/max) = 17.9 | 18.07 | 18.31 Mbytes
Step Temp TotEng KinEng PotEng Press 
       0          300   -8864.4097    44.712151   -8909.1218    1524.3577 
     200    292.32838   -8845.9393    43.568768    -8889.508   -43222.979 
     400    359.64313    -8832.556    53.601393   -8886.1574   -13465.136 
     600    315.11706   -8873.1567    46.965205   -8920.1219   -8819.2941 
     800    235.35584   -8895.5076    35.077553   -8930.5851   -5878.2037 
    1000    277.81436   -8881.4367    41.405592   -8922.8423   -5629.8336 
    1200    338.88971   -8883.2542    50.508293   -8933.7625    20688.941 
    1400    262.61664   -8895.8367    39.140516   -8934.9772   -20893.483 
    1600    302.81942   -8888.5906    45.132359    -8933.723   -4375.5967 
    1800    312.46284   -8877.4615    46.569619   -8924.0311   -27050.595 
    2000    338.55366   -8881.8911    50.458208   -8932.3493   -22300.807 
    2200    312.65788   -8886.3003    46.598688   -8932.8989    8411.1329 
    2400    300.52989   -8883.6648    44.791125   -8928.4559   -19281.306 
    2600    274.79715   -8897.1176    40.955905   -8938.0735   -11554.647 
    2800    344.77858   -8883.4098    51.385973   -8934.7958   -6028.7478 
    3000    322.53499   -8872.0516    48.070777   -8920.1223    10512.588 
    3200    315.40102   -8876.1745    47.007527   -8923.1821    10049.191 
    3400    312.43534   -8884.2455     46.56552    -8930.811   -3988.7287 
    3600    295.89927    -8897.675    44.100975    -8941.776   -3472.7021 
    3800    285.88019   -8889.7457    42.607728   -8932.3534    11079.457 
    4000    296.59786   -8883.1233    44.205093   -8927.3284   -44028.681 
    4200    277.95402    -8878.543    41.426406   -8919.9694    6635.3831 
    4400    273.02552   -8892.6382    40.691861   -8933.3301   -27372.459 
    4600    316.69948   -8877.3111     47.20105   -8924.5121    21748.961 
    4800    285.41948    -8879.929    42.539063    -8922.468    19024.467 
    5000     262.0864   -8892.6367    39.061489   -8931.6982   -6518.7069 
    5200    348.82002   -8886.9794    51.988312   -8938.9678    22684.675 
    5400    341.82649   -8864.8841    50.945992   -8915.8301   -14877.036 
    5600      270.204   -8888.6556     40.27134   -8928.9269   -27505.917 
    5800    306.69039   -8885.7104    45.709289   -8931.4197    2815.5328 
    6000    350.42687   -8875.5364    52.227797   -8927.7642   -20576.087 
    6200    280.86084   -8890.9903     41.85964     -8932.85   -21874.166 
    6400    295.97248   -8892.4247    44.111887   -8936.5366   -31863.556 
    6600    380.08596   -8873.9358    56.648202    -8930.584    12251.378 
    6800     254.5926   -8888.5551    37.944609   -8926.4997    3207.3834 
    7000    336.61985   -8881.6423    50.169991   -8931.8123    23263.209 
    7200    360.27479   -8868.0081    53.695535   -8921.7037    79612.236 
    7400     290.5795   -8890.9176    43.308114   -8934.2258   -39598.794 
    7600    298.82176     -8887.71    44.536545   -8932.2465   -16896.483 
    7800    315.79151   -8875.5355    47.065725   -8922.6013     -413.317 
    8000    208.51591   -8886.5733    31.077316   -8917.6506   -18510.938 
    8200    313.86096    -8885.993    46.777996    -8932.771     6544.946 
    8400    308.14052   -8885.3967    45.925418   -8931.3222   -12951.052 
    8600    356.75427   -8876.0376    53.170835   -8929.2084    15639.861 
    8800    295.65962   -8892.7912    44.065259   -8936.8564   -40407.128 
    9000    308.30248   -8884.5082    45.949557   -8930.4578   -12691.758 
    9200    373.34955    -8863.671    55.644205   -8919.3152    38121.691 
    9400    299.22369    -8882.998     44.59645   -8927.5944    39620.044 
    9600    238.91622   -8889.3372    35.608193   -8924.9454    16734.868 
    9800    349.92029   -8873.3221    52.152295   -8925.4744   -19884.531 
   10000    263.61021   -8883.4436    39.288598   -8922.7322    1162.8248 
   10200    241.99432   -8885.7244    36.066956   -8921.7914    26359.334 
   10400    349.36761   -8875.7869    52.069924   -8927.8568    20172.509 
   10600    268.24424   -8888.5948    39.979257    -8928.574    3241.1702 
   10800    278.07916   -8893.5166    41.445057   -8934.9616   -729.67622 
   11000    332.41898   -8874.9683    49.543892   -8924.5122   -1677.6087 
   11200    302.77469   -8886.4147    45.125692   -8931.5404   -1156.9634 
   11400    285.74303   -8890.6004    42.587284   -8933.1876   -4089.8513 
   11600    293.58046   -8883.4757    43.755379    -8927.231    34733.287 
   11800    353.32706   -8879.4976    52.660042   -8932.1577    18784.408 
   12000    316.95025   -8889.1782    47.238425   -8936.4166    17233.753 
   12200    279.67109    -8880.771     41.68232   -8922.4533   -19879.757 
   12400    354.49036   -8863.9932    52.833421   -8916.8266   -47402.609 
   12600    328.31508   -8884.3272    48.932245   -8933.2595   -50669.624 
   12800    261.33138    -8885.665    38.948961   -8924.6139   -25130.051 
   13000    303.63918   -8878.2323    45.254536   -8923.4868   -36274.859 
   13200    300.73743    -8888.964    44.822058    -8933.786   -16914.424 
   13400    330.61283   -8876.5396    49.274703   -8925.8143   -26056.085 
   13600    330.58735   -8868.9412    49.270904   -8918.2121   -4843.2164 
   13800    288.86571   -8890.2514     43.05269   -8933.3041    1910.7756 
   14000    340.19365   -8883.9842    50.702633   -8934.6868   -13734.923 
   14200    336.56387   -8876.1858    50.161648   -8926.3474   -53251.987 
   14400    315.92223   -8882.5169    47.085208   -8929.6021    30623.711 
   14600    342.06757    -8880.617    50.981923    -8931.599    2208.4188 
   14800    331.96721   -8892.9755     49.47656    -8942.452   -17325.665 
   15000    337.59859   -8884.5256    50.315863   -8934.8414   -10615.261 
   15200    295.49124   -8880.3836    44.040162   -8924.4238    40726.187 
   15400    283.01203   -8892.0692    42.180255   -8934.2495    21480.045 
   15600    266.33995   -8886.8065     39.69544   -8926.5019   -23173.209 
   15800    318.41173   -8874.9348    47.456244   -8922.3911   -16133.123 
   16000    275.14701   -8890.9269    41.008049   -8931.9349    26417.311 
   16200    300.08052   -8886.7524    44.724151   -8931.4765   -21991.951 
   16400    323.69145   -8877.1399    48.243136   -8925.3831    20866.639 
   16600    255.16681   -8893.7176    38.030189   -8931.7478     23523.05 
   16800    288.93466    -8882.046    43.062967    -8925.109   -5794.6887 
   17000    315.00458   -8870.5379     46.94844   -8917.4863   -10107.765 
   17200    304.21643    -8886.208     45.34057   -8931.5486   -4769.8848 
   17400    302.38975   -8890.8013    45.068321   -8935.8696   -2622.6898 
   17600    347.35177   -8878.2805    51.769482     -8930.05   -22779.336 
   17800    291.18907    -8882.078    43.398965   -8925.4769   -8192.5744 
   18000    285.28466   -8889.5237    42.518969   -8932.0427    24512.446 
   18200    199.45869   -8906.0062    29.727423   -8935.7336   -19635.817 
   18400    265.01908   -8892.9317    39.498577   -8932.4303     -6306.28 
   18600    310.09713   -8879.1579    46.217032   -8925.3749   -22379.914 
   18800    314.92105   -8884.2416    46.935992   -8931.1776   -16218.034 
   19000    213.52371   -8893.2141    31.823681   -8925.0378     33619.08 
   19200    334.25749   -8882.3925    49.817904   -8932.2104    30745.937 
   19400    343.82488   -8882.6938    51.243833   -8933.9376   -14137.066 
   19600    360.36941   -8865.9743    53.709639    -8919.684   -1525.5878 
   19800    282.19198   -8884.9609    42.058034   -8927.0189   -4832.3585 
   20000    286.99538   -8878.5203    42.773935   -8921.2942    13870.696 
   20200    321.78512   -8881.7192    47.959015   -8929.6782    -6905.655 
   20400    277.77893    -8888.283    41.400311   -8929.6833    7657.7029 
   20600     261.0157   -8878.8006    38.901911   -8917.7025    27195.716 
   20800    271.30665   -8891.9152    40.435679   -8932.3509   -645.83779 
   21000    262.60757   -8891.3571    39.139163   -8930.4962   -1331.3138 
   21200    307.12664    -8876.664    45.774309   -8922.4384    17781.471 
   21400    281.24015   -8890.9629    41.916173   -8932.8791   -9086.9468 
   21600    301.53568   -8890.5438    44.941029   -8935.4849    1035.1046 
   21800    298.38572   -8882.1434    44.471558   -8926.6149    35289.512 
   22000    271.11455   -8892.9713    40.407049   -8933.3783    8810.8473 
   22200    309.38302   -8893.4331    46.110601   -8939.5437    32313.009 
   22400     324.3226   -8881.7855    48.337203   -8930.1227   -11098.001 
   22600    342.74382   -8877.7748    51.082711   -8928.8575   -27049.826 
   22800    293.35226   -8884.0173    43.721368   -8927.7387     3509.381 
   23000    300.70887   -8890.2012    44.817802    -8935.019   -4279.3845 
   23200    310.56421   -8883.1762    46.286646   -8929.4628   -10059.053 
   23400    340.74717   -8874.1752     50.78513   -8924.9603   -18591.632 
   23600    287.29833   -8891.9684    42.819088   -8934.7875    987.73791 
   23800    302.84363   -8880.4347    45.135967   -8925.5706   -17068.794 
   24000    322.21882   -8883.1539    48.023655   -8931.1776    15417.712 
   24200    272.11489   -8884.3985     40.55614   -8924.9547   -7505.7054 
   24400    310.90792   -8883.1516    46.337873   -8929.4895    3368.4705 
   24600    213.60016   -8897.5435    31.835075   -8929.3786    29965.532 
   24800    336.46977    -8884.677    50.147623   -8934.8246   -5108.8713 
   25000     291.3734   -8890.0142    43.426437   -8933.4406   -4096.6847 
   25200    344.23958   -8877.6311    51.305641   -8928.9367   -35079.479 
   25400    296.12787    -8888.187    44.135047    -8932.322   -5561.1251 
   25600    288.84245    -8885.585    43.049225   -8928.6342    48762.954 
   25800    326.06197   -8865.6039     48.59644   -8914.2004    2529.5101 
   26000     298.4532   -8882.2192    44.481615   -8926.7008    10482.681 
   26200    286.97799    -8888.032    42.771343   -8930.8033    18895.432 
   26400    339.52746   -8870.2666    50.603344   -8920.8699   -22108.105 
   26600    360.41422   -8878.8653    53.716317   -8932.5816    22735.988 
   26800    265.00844   -8891.9104    39.496991   -8931.4074    44581.533 
   27000    323.20234   -8875.8967    48.170239   -8924.0669   -1336.9261 
   27200    359.03449   -8875.3818    53.510681   -8928.8925    4814.2706 
   27400    314.50318    -8883.746    46.873713   -8930.6197    9723.8222 
   27600    290.02797   -8887.9587    43.225915   -8931.1846    62470.585 
   27800    300.87854   -8884.3904    44.843089   -8929.2335   -13829.426 
   28000    311.13975   -8887.0769    46.372425   -8933.4493    14291.879 
   28200     276.1046   -8883.9876    41.150769   -8925.1384    26496.744 
   28400    327.17624   -8869.4445    48.762512    -8918.207    15645.237 
   28600    262.71974   -8891.7169    39.155882   -8930.8728   -3292.3404 
   28800    288.33383    -8885.863    42.973419   -8928.8364    5949.9169 
   29000    288.78215   -8876.3792    43.040237   -8919.4194   -25002.077 
   29200    243.75891   -8896.9043    36.329951   -8933.2342    14815.406 
   29400    310.13196   -8884.1721    46.222224   -8930.3944   -36367.275 
   29600    328.03091   -8877.5693    48.889891   -8926.4592    19451.812 
   29800    266.11293   -8885.6764    39.661605    -8925.338    50608.019 
   30000    334.47522   -8885.3018    49.850354   -8935.1522   -22477.703 
   30200    292.25146   -8888.6091    43.557304   -8932.1664   -8423.7443 
   30400    274.87809   -8874.9185    40.967969   -8915.8864    6270.5018 
   30600    248.48383   -8892.3349    37.034155   -8929.3691     1930.177 
   30800    292.49658   -8888.6351    43.593837    -8932.229   -30040.818 
   31000    309.25368   -8878.3045    46.091324   -8924.3958   -2128.5762 
   31200      271.619   -8899.1096    40.482232   -8939.5918    39767.481 
   31400    282.55111    -8888.058    42.111559   -8930.1695    21433.324 
   31600    328.06171   -8877.4787    48.894482   -8926.3731   -19743.907 
   31800    310.40379   -8890.5956    46.262737   -8936.8584    25196.378 
   32000    244.52932   -8895.7632    36.444773    -8932.208    12171.752 
   32200    352.49378   -8875.9366     52.53585   -8928.4724    11543.622 
   32400    294.13659   -8890.2961    43.838266   -8934.1344   -6507.7187 
   32600     260.7658   -8888.5314    38.864666   -8927.3961     27265.53 
   32800    290.78256   -8879.1242    43.338378   -8922.4626    -2643.663 
   33000    319.17979   -8881.0149    47.570717   -8928.5856   -12170.693 
   33200    300.38691   -8882.1947    44.769816   -8926.9645    31130.671 
   33400    274.20619   -8888.5387    40.867828   -8929.4065   -20189.232 
   33600    292.62774   -8881.2799    43.613386   -8924.8933    41458.232 
   33800     259.2825    -8880.926    38.643594   -8919.5696   -6234.5222 
   34000    291.91824   -8890.9786    43.507642   -8934.4863   -26893.728 
   34200    325.69549   -8881.6639    48.541819   -8930.2057    20237.125 
   34400    337.86548    -8871.157    50.355641   -8921.5126   -14523.559 
   34600    283.12814   -8892.6794     42.19756    -8934.877   -21685.287 
   34800    279.88469   -8880.7206    41.714154   -8922.4347    1671.7814 
   35000    313.92517   -8884.3879    46.787565   -8931.1755     -15577.7 
   35200    240.90439   -8890.6052    35.904512   -8926.5097   -19742.649 
   35400    364.11145   -8879.5109    54.267354   -8933.7782    7136.2343 
   35600    230.77962   -8894.6241    34.395511   -8929.0196    28631.563 
   35800    369.46851   -8871.6518    55.065772   -8926.7176    18757.537 
   36000    293.08776   -8887.3538    43.681948   -8931.0357    17872.514 
   36200    298.45704   -8885.5621    44.482188   -8930.0443    39274.415 
   36400    291.23942   -8869.0874     43.40647   -8912.4939    34419.629 
   36600    283.61112   -8889.6944    42.269543    -8931.964    28607.092 
   36800    328.23859    -8886.996    48.920844   -8935.9169   -38145.214 
   37000    317.01505   -8877.0372    47.248082   -8924.2852   -2187.6552 
   37200    269.33557   -8894.2361    40.141909    -8934.378   -4122.0114 
   37400    276.81428   -8886.4939    41.256539   -8927.7504    12006.169 
   37600    314.54682   -8877.6304    46.880216   -8924.5106   -7738.0973 
   37800    263.06424   -8888.6434    39.207227   -8927.8507    22155.431 
   38000    356.10015   -8870.8631    53.073345   -8923.9365   -3036.9745 
   38200    320.20906    -8884.574    47.724119   -8932.2981    1660.1797 
   38400    248.89714   -8891.4399    37.095755   -8928.5356    1190.0433 
   38600    308.98518   -8884.8314    46.051307   -8930.8827     -17942.4 
   38800    274.76229   -8882.0788    40.950711   -8923.0295    9928.9202 
   39000    263.45382   -8885.9878     39.26529   -8925.2531    17174.553 
   39200    302.45258   -8884.7005    45.077684   -8929.7781      42233.7 
   39400     337.5157   -8876.2917    50.303509   -8926.5953   -11365.874 
   39600    266.25097   -8890.8351    39.682178   -8930.5172    40909.695 
   39800    277.29083   -8889.4042    41.327565   -8930.7318    38488.274 
   40000    355.87673   -8870.6108    53.040047   -8923.6508    3174.3166 
   40200    274.78636   -8886.5981    40.954296   -8927.5524    39556.182 
   40400     350.8464   -8881.9753    52.290324   -8934.2656    12903.626 
   40600    376.07647   -8869.0386    56.050626   -8925.0892   -1949.5311 
   40800    342.39966   -8882.4591    51.031417   -8933.4905   -15988.071 
   41000    287.96933   -8893.7792    42.919094   -8936.6983   -7910.2333 
   41200    351.69236   -8877.1088    52.416406   -8929.5252    9556.7598 
   41400    312.49737   -8882.9734    46.574765   -8929.5482    29571.782 
   41600    255.74362   -8893.2218    38.116158   -8931.3379    6090.7386 
   41800    298.43903   -8884.5722    44.479504   -8929.0517    14369.245 
   42000    324.64318   -8876.4072    48.384983   -8924.7922     -3316.76 
   42200    227.58849   -8891.7618    33.919902   -8925.6817   -9427.8832 
   42400    302.65778   -8889.3639    45.108268   -8934.4722    7666.8752 
   42600    363.79291   -8874.5669    54.219879   -8928.7868    961.54757 
   42800    273.95699   -8887.3272    40.830688   -8928.1579    16554.366 
   43000    264.09671    -8887.638    39.361106   -8926.9991    33911.465 
   43200    356.98909   -8872.1405    53.205833   -8925.3464   -27154.551 
   43400    304.47886   -8885.7556    45.379682   -8931.1353   -32694.829 
   43600    233.39795   -8900.1502    34.785748    -8934.936   -8938.1759 
   43800    301.30271   -8888.0608    44.906307   -8932.9671    -7917.603 
   44000    328.47262   -8875.4806    48.955724   -8924.4363   -35248.993 
   44200    291.79357   -8892.4623     43.48906   -8935.9513    11747.307 
   44400    276.72585   -8888.8945    41.243359   -8930.1379   -17208.529 
   44600    357.57204   -8877.3453    53.292716    -8930.638   -10946.839 
   44800    326.27126   -8881.1819    48.627633   -8929.8096   -46457.177 
   45000    223.24016   -8890.8759    33.271826   -8924.1478    7264.8634 
   45200    340.46734   -8885.6419    50.743424   -8936.3853   -506.64564 
   45400    371.63978   -8868.2916     55.38938    -8923.681    14821.445 
   45600    258.18184   -8883.7997    38.479552   -8922.2792    27476.342 
   45800    315.09465    -8886.802    46.961866   -8933.7638    34739.914 
   46000    351.63491   -8875.4844    52.407843   -8927.8923    32713.756 
   46200    305.11872   -8878.1097    45.475048   -8923.5848    34664.327 
   46400    263.24628    -8892.873    39.234358   -8932.1074    27.920844 
   46600    319.16644    -8878.607    47.568727   -8926.1757    37417.482 
   46800    268.01056   -8880.4681    39.944429   -8920.4125   -3504.5066 
   47000    278.32431   -8890.9994    41.481595    -8932.481    8193.3494 
   47200    251.20118   -8895.9383     37.43915   -8933.3774   -4641.2268 
   47400    278.44367   -8882.7022    41.499385   -8924.2015    3590.0117 
   47600    211.27696   -8892.4646    31.488824   -8923.9534   -12468.936 
   47800     287.2306   -8886.8995    42.808993   -8929.7085    4860.1032 
   48000    321.51979   -8871.8399    47.919472   -8919.7593    19284.358 
   48200     284.0359   -8889.3187    42.332854   -8931.6516   -3470.2979 
   48400     325.9956   -8883.3107    48.586548   -8931.8972    14776.659 
   48600    330.95312   -8878.2082    49.325419   -8927.5336    20010.486 
   48800    288.06223   -8892.3937    42.932939   -8935.3266   -20075.518 
   49000    295.32467   -8884.2619    44.015338   -8928.2773    1143.2483 
   49200    358.68594    -8876.098    53.458733   -8929.5568    23030.661 
   49400    290.91768   -8883.0972    43.358518   -8926.4557   -41753.238 
   49600    287.90104   -8888.3467    42.908916   -8931.2556   -17513.139 
   49800    271.62161   -8891.8415    40.482621   -8932.3241    33566.636 
   50000     351.7844   -8877.0851    52.430123   -8929.5152   -17760.761 
   50200    250.49541   -8892.1457    37.333962   -8929.4797    23472.313 
   50400    318.68902   -8883.0234    47.497571    -8930.521    19460.813 
   50600    370.41923     -8866.97    55.207468   -8922.1775     15313.76 
   50800    296.52747   -8886.1011    44.194604   -8930.2957    41781.572 
   51000    276.57019   -8879.2174     41.22016   -8920.4376    23797.193 
   51200      339.149   -8873.6488    50.546937   -8924.1957   -8593.4431 
   51400    315.99566   -8891.6236    47.096153   -8938.7197   -17455.639 
   51600    310.31928   -8880.2183    46.250141   -8926.4684    9940.5589 
   51800    358.89165   -8879.8805    53.489392   -8933.3699    12842.327 
   52000    310.86666   -8888.6069    46.331723   -8934.9387   -9018.6698 
   52200    269.54557   -8877.6832    40.173208   -8917.8564    13925.714 
   52400    276.19147    -8891.035    41.163715   -8932.1988    71728.201 
   52600    321.01299   -8887.6252    47.843938   -8935.4691   -6276.8499 
   52800    324.40261   -8872.2729    48.349128    -8920.622    13977.715 
   53000    293.07841   -8894.2875    43.680554    -8937.968     38473.41 
   53200    302.18172   -8884.7769    45.037315   -8929.8142   -3021.4629 
   53400    289.01138    -8886.105    43.074401   -8929.1794    -2419.658 
   53600    274.25308   -8894.4572    40.874816   -8935.3321   -27320.793 
   53800    320.23151   -8878.3654    47.727465   -8926.0928   -22267.128 
   54000    302.12665   -8887.2494    45.029108   -8932.2785     373.9851 
   54200    295.35375   -8890.7849    44.019671   -8934.8046   -3112.9178 
   54400    342.21911   -8874.4342    51.004509   -8925.4387   -32951.247 
   54600    270.85543    -8889.722     40.36843   -8930.0905   -18483.133 
   54800    347.18875   -8881.5652    51.745186   -8933.3104    19565.927 
   55000     340.1241   -8876.2172    50.692266   -8926.9095   -48431.126 
   55200    260.46982   -8888.8422    38.820552   -8927.6627    36932.145 
   55400    292.94996   -8884.8673    43.661409   -8928.5287   -23547.731 
   55600     289.5035   -8872.1833    43.147747   -8915.3311   -5972.7144 
   55800    319.59669   -8878.3331    47.632851   -8925.9659    1341.8668 
   56000    299.59863   -8886.7008    44.652331   -8931.3531   -2473.4025 
   56200    253.40109    -8899.256    37.767026    -8937.023   -18719.188 
   56400    292.37388    -8886.516     43.57555   -8930.0915    20983.003 
   56600    316.70542   -8886.1705    47.201935   -8933.3725     32543.11 
   56800    302.79864   -8890.5902    45.129262   -8935.7195    24745.134 
   57000    341.20255   -8876.8694    50.852999   -8927.7224    3032.1852 
   57200    302.29166   -8884.8436    45.053701   -8929.8973    -37862.43 
   57400    321.59462   -8885.6976    47.930624   -8933.6282   -10512.317 
   57600    324.20948   -8887.3825    48.320344   -8935.7028    2784.6772 
   57800    225.72437   -8895.7813    33.642073   -8929.4234    1507.7278 
   58000    306.56574   -8881.3971    45.690711   -8927.0878   -7023.3895 
   58200    320.38866   -8880.2307    47.750887   -8927.9816   -36617.351 
   58400    290.54491   -8895.0459    43.302959   -8938.3489   -2283.2067 
   58600    315.56853   -8881.4684    47.032493   -8928.5008    17159.729 
   58800    301.78809   -8883.7358    44.978648   -8928.7144    -20377.53 
   59000    331.18802   -8878.5472    49.360429   -8927.9077    39227.162 
   59200    340.88197   -8884.6841     50.80522   -8935.4894   -9072.4368 
   59400    256.22648   -8897.1574    38.188124   -8935.3455   -3315.0968 
   59600    334.44197   -8876.5676    49.845399    -8926.413   -1606.8303 
   59800    260.25803   -8884.7823    38.788988   -8923.5713    4615.6364 
   60000    244.66377   -8901.5863    36.464812   -8938.0512    23109.707 
   60200    274.80516   -8887.0214    40.957099   -8927.9785   -12303.224 
   60400     310.6979   -8879.8564    46.306571    -8926.163    9459.2184 
   60600    298.29008    -8889.753    44.457303   -8934.2103    13866.949 
   60800    292.78314   -8899.8438    43.636547   -8943.4803   -4356.8184 
   61000    337.62669    -8884.504    50.320052    -8934.824   -4477.8263 
   61200    288.63074   -8877.1942     43.01767   -8920.2118    63485.301 
   61400    301.92318   -8881.8319    44.998782   -8926.8307     8282.831 
   61600    320.77696   -8891.3038     47.80876   -8939.1126    -24399.26 
   61800      318.614   -8877.6485    47.486391   -8925.1349   -2819.7605 
   62000    307.40368   -8882.1066      45.8156   -8927.9222    5966.6961 
   62200    271.05059   -8888.4154    40.397516   -8928.8129    34915.246 
   62400     311.3544   -8873.8432    46.404416   -8920.2476    48224.242 
   62600    275.29218   -8890.2322    41.029684   -8931.2619    14145.064 
   62800    296.95208   -8891.1254    44.257887   -8935.3833    5254.2427 
   63000     278.3092   -8883.1068    41.479343   -8924.5862   -40580.242 
   63200     363.1749   -8870.0818    54.127769   -8924.2096   -9963.0848 
   63400    323.77038   -8881.9263      48.2549   -8930.1812    19228.451 
   63600    284.44067   -8889.3851     42.39318   -8931.7782    2646.4827 
   63800    345.07759   -8871.8476    51.430538   -8923.2781   -16529.815 
   64000    297.02073    -8882.721    44.268119   -8926.9891    31826.525 
   64200    303.19625   -8885.7413    45.188521   -8930.9298   -22845.551 
   64400    295.33966   -8892.0802    44.017572   -8936.0977    33886.703 
   64600    322.77092   -8886.4832     48.10594   -8934.5891    28347.277 
   64800    256.90492   -8878.9312    38.289238   -8917.2205     29924.85 
   65000    269.40488    -8883.998    40.152238   -8924.1503    18111.865 
   65200    299.75636   -8894.8171    44.675838    -8939.493    -6917.944 
   65400    377.82141   -8876.3277    56.310693   -8932.6384     9542.268 
   65600    263.74595   -8882.2318    39.308829   -8921.5406    9542.9734 
   65800    286.28369   -8886.5191    42.667865   -8929.1869     17827.65 
   66000     310.7402   -8868.0035    46.312876   -8914.3164    9331.1294 
   66200    356.60227   -8878.3887    53.148181   -8931.5369    16315.035 
   66400     292.0284   -8889.4188     43.52406   -8932.9429     22843.81 
   66600    312.05932   -8877.7117    46.509478   -8924.2212    21251.762 
   66800    293.95991   -8885.5509    43.811933   -8929.3629   -8565.4808 
   67000    306.49141   -8888.6556    45.679634   -8934.3352    -11175.92 
   67200    380.38396   -8877.4431    56.692617   -8934.1357   -19066.168 
   67400    308.24038   -8882.5149    45.940301   -8928.4552    22904.822 
   67600    269.86097   -8891.9173    40.220214   -8932.1375    5454.4087 
   67800    319.85751   -8871.6438    47.671724   -8919.3155    9738.8255 
   68000    292.92053   -8875.9506    43.657023   -8919.6077     16732.35 
   68200    250.23212   -8889.0286     37.29472   -8926.3233    8333.0026 
   68400    279.25548   -8884.1067    41.620377   -8925.7271   -635.58317 
   68600    343.05222   -8873.4769    51.128675   -8924.6056    27862.078 
   68800     312.2063   -8887.4932    46.531384   -8934.0245     6878.621 
   69000    330.95689   -8881.2803    49.325981   -8930.6062   -51541.045 
   69200    286.20052   -8877.2106     42.65547   -8919.8661    807.18746 
   69400    299.69229   -8891.1019    44.666289   -8935.7682   -11187.757 
   69600    241.05032   -8907.5651     35.92626   -8943.4913   -6361.2065 
   69800    268.73215    -8892.141    40.051975   -8932.1929   -37606.888 
   70000    308.91234   -8884.2627    46.040451   -8930.3031   -10342.067 
   70200    234.27717   -8896.3312    34.916787    -8931.248   -6250.2765 
   70400    320.27773   -8884.8385    47.734354   -8932.5728    6409.8612 
   70600    298.84208   -8879.4235    44.539574   -8923.9631    6188.3591 
   70800    257.01489     -8889.57    38.305628   -8927.8756    50247.467 
   71000    244.08274   -8895.3468    36.378214    -8931.725    3494.2647 
   71200    302.50881   -8877.8398    45.086065   -8922.9259     23442.38 
   71400    278.80274   -8889.3549      41.5529   -8930.9078   -14798.807 
   71600    271.48855   -8893.2492     40.46279   -8933.7119    23861.013 
   71800    331.91905   -8877.8406    49.469382     -8927.31   -17317.891 
   72000    312.92517   -8880.3328    46.638524   -8926.9713    -15484.51 
   72200    244.34226   -8890.5138    36.416893   -8926.9307   -26396.952 
   72400    344.29593   -8880.1548    51.314039   -8931.4688   -19767.213 
   72600    284.75383   -8888.6572    42.439854   -8931.0971    11903.213 
   72800    317.12322   -8884.8469    47.264204   -8932.1111   -38700.989 
   73000    288.60097   -8892.3221    43.013234   -8935.3354   -19134.205 
   73200    292.88094   -8877.1839    43.651123    -8920.835   -43887.872 
   73400    332.08226   -8884.1751    49.493707   -8933.6688     13924.12 
   73600    278.44061   -8883.3984    41.498928   -8924.8973    41160.706 
   73800    352.39648   -8865.7942    52.521349   -8918.3155   -42167.273 
   74000     263.4294   -8880.9967    39.261651   -8920.2583   -20547.873 
   74200    255.40383     -8886.11    38.065516   -8924.1755   -6095.3441 
   74400    241.85242    -8900.852    36.045806   -8936.8978   -7779.4449 
   74600    359.79582   -8882.3451     53.62415   -8935.9692   -24710.592 
   74800    274.33557   -8885.7136    40.887111   -8926.6007    11634.218 
   75000    266.50612   -8894.5905    39.720206   -8934.3107    14497.706 
   75200     291.4054   -8882.7324    43.431208   -8926.1636   -29618.381 
   75400    285.22163   -8881.5724    42.509574    -8924.082    -20645.94 
   75600    221.10717   -8895.8133    32.953924   -8928.7672   -28990.289 
   75800    293.35251    -8891.799    43.721405   -8935.5204   -21053.924 
   76000    294.92591   -8878.9581    43.955906    -8922.914   -15392.693 
   76200    284.70868   -8886.8415    42.433125   -8929.2746   -9955.7689 
   76400    235.48124   -8892.7959    35.096242   -8927.8922    2515.8354 
   76600    292.56827    -8884.908    43.604522   -8928.5125    19102.559 
   76800    339.60362    -8886.545    50.614695   -8937.1597    674.03941 
   77000    337.47297    -8883.896    50.297141   -8934.1931   -2538.3844 
   77200     270.1256   -8882.6487    40.259655   -8922.9083   -11180.731 
   77400    297.75837    -8889.409    44.378058   -8933.7871    1659.8797 
   77600    271.84125   -8885.5213    40.515357   -8926.0367    201.61367 
   77800    342.72241   -8873.9106     51.07952   -8924.9902   -13070.048 
   78000    282.64963   -8887.9509    42.126243   -8930.0771   -2342.9288 
   78200    257.37201   -8892.4786    38.358854   -8930.8374    15886.391 
   78400    331.45599   -8870.3791    49.400368   -8919.7795    23068.287 
   78600    275.96757   -8877.3657    41.130345   -8918.4961    13504.488 
   78800    291.27065   -8889.2731    43.411125   -8932.6842    -31751.39 
   79000    248.57847   -8886.3844     37.04826   -8923.4327   -9225.0981 
   79200    335.69641   -8874.8578    50.032362   -8924.8902    10412.584 
   79400    245.12155   -8890.9286    36.533039   -8927.4617     19673.78 
   79600     282.5001   -8884.8488    42.103957   -8926.9527    2571.9224 
   79800    309.54035   -8871.6985    46.134049   -8917.8325    26752.227 
   80000    260.89596   -8888.0411    38.884064   -8926.9252   -2120.0356 
   80200    273.31521   -8886.3946    40.735036   -8927.1296    14897.797 
   80400    283.01374   -8871.4864    42.180509   -8913.6669    1405.1022 
   80600    301.64615   -8890.0718    44.957494   -8935.0293    10287.853 
   80800    272.55146   -8886.8284    40.621207   -8927.4496   -6740.5653 
   81000    330.71306    -8875.672    49.289641   -8924.9616    -29394.41 
   81200    241.67324   -8891.0828    36.019101   -8927.1019     2689.699 
   81400    317.70681   -8889.1516    47.351182   -8936.5028    10250.525 
   81600    291.79243   -8879.8044    43.488891   -8923.2933   -24344.242 
   81800    319.72511   -8878.8275    47.651992   -8926.4795    4763.7689 
   82000    251.55489   -8892.8304    37.491868   -8930.3223   -22247.667 
   82200    289.72868   -8879.7334    43.181309   -8922.9148    15293.157 
   82400    276.27975   -8893.8972    41.176873   -8935.0741   -31227.639 
   82600    227.50462   -8894.9039    33.907404   -8928.8113    5172.5828 
   82800    270.42949   -8881.6785    40.304947   -8921.9834    24812.253 
   83000    293.06363   -8880.9817    43.678351     -8924.66   -19894.051 
   83200    270.59415   -8895.3754    40.329489   -8935.7048   -19372.681 
   83400    349.00551   -8881.3957    52.015957   -8933.4117    18388.071 
   83600    336.24646   -8881.6364    50.114341   -8931.7507    31745.918 
   83800     302.3382   -8886.8924    45.060638    -8931.953   -27982.504 
   84000    266.37844   -8885.9245    39.701177   -8925.6256   -2203.3474 
   84200    326.38809   -8876.2158    48.645045   -8924.8609   -9808.9763 
   84400    396.92805   -8874.6571    59.158356   -8933.8154   -8592.3009 
   84600    294.52241   -8888.8664    43.895769   -8932.7622   -54307.178 
   84800    299.26485   -8879.9315    44.602584   -8924.5341   -15341.076 
   85000    318.47018   -8878.9046    47.464956   -8926.3696    19848.134 
   85200    325.13205   -8883.8136    48.457845   -8932.2715    12808.607 
   85400    257.30159   -8894.5304    38.348358   -8932.8787    -4720.509 
   85600    270.66175   -8896.3859    40.339563   -8936.7255    19955.759 
   85800    268.70673   -8885.1217    40.048187   -8925.1699    38307.156 
   86000    325.60258   -8880.7628    48.527973   -8929.2908   -30988.719 
   86200     243.0646   -8894.0236     36.22647   -8930.2501    21171.907 
   86400    310.23446   -8879.6624      46.2375   -8925.8999   -17569.069 
   86600     274.7708    -8881.949    40.951978    -8922.901    18529.476 
   86800    264.88638   -8893.4393    39.478799   -8932.9181    27668.129 
   87000    276.13353   -8898.6933    41.155079   -8939.8484   -54287.365 
   87200    293.28468   -8885.4656    43.711296   -8929.1769   -24224.283 
   87400    297.84667   -8876.0865    44.391218   -8920.4777    9586.0321 
   87600    274.31424   -8884.8283    40.883933   -8925.7123   -20194.642 
   87800    283.23599   -8889.8228    42.213634   -8932.0365   -42670.126 
   88000     380.7758   -8872.5115    56.751016   -8929.2626    8086.6379 
   88200    277.14904   -8883.1322    41.306432   -8924.4386    2131.9877 
   88400    264.93394    -8890.181    39.485887   -8929.6669    10781.049 
   88600     357.3759   -8870.4972    53.263484   -8923.7607   -6432.3385 
   88800    266.24814   -8881.5761    39.681756   -8921.2579    6203.2389 
   89000    285.79861    -8884.146    42.595568   -8926.7416    29833.277 
   89200    254.04821   -8900.0566    37.863473     -8937.92      5460.43 
   89400    288.29351    -8889.184     42.96741   -8932.1514     24442.18 
   89600    315.11897   -8877.9135     46.96549    -8924.879   -14021.883 
   89800     300.2793   -8883.9652    44.753777    -8928.719    -2181.113 
   90000    317.71361   -8887.1515    47.352195   -8934.5037   -20668.792 
   90200    363.14239   -8879.3769    54.122925   -8933.4998   -7169.1671 
   90400     315.5437   -8885.8545    47.028792   -8932.8833   -17356.515 
   90600    318.22449    -8885.974    47.428338   -8933.4024   -33043.736 
   90800      278.431   -8898.0175    41.497496    -8939.515    5526.2557 
   91000    260.89179   -8881.9331    38.883443   -8920.8165   -36671.533 
   91200    258.97847   -8881.1484    38.598281   -8919.7466    27113.242 
   91400    258.51342   -8897.3056    38.528971   -8935.8346    32511.158 
   91600    301.03512   -8888.5708    44.866425   -8933.4373   -3077.1434 
   91800    279.97922   -8883.8543    41.728244   -8925.5825   -3784.8802 
   92000    236.15587   -8896.0332    35.196789     -8931.23   -27430.568 
   92200    347.57558    -8877.183    51.802839   -8928.9858   -1171.2129 
   92400    262.57486   -8885.8229    39.134288   -8924.9572    25894.144 
   92600    323.65396   -8886.3272    48.237549   -8934.5648    18859.776 
   92800    286.63824   -8892.0691    42.720707   -8934.7898   -32218.093 
   93000    324.87196   -8877.8846    48.419081   -8926.3037    3376.6618 
   93200    316.68952   -8886.0744    47.199565    -8933.274   -1360.3417 
   93400    243.14641   -8894.3677    36.238664   -8930.6064    34483.276 
   93600    279.32086    -8879.884    41.630121   -8921.5141     30540.51 
   93800    279.63178   -8892.6667    41.676461   -8934.3432   -3151.0771 
   94000    325.25385   -8886.4936    48.475998   -8934.9696   -37939.726 
   94200    287.01535   -8884.5398    42.776912   -8927.3167    33710.832 
   94400    311.08782   -8879.5654    46.364685     -8925.93    3733.5391 
   94600    326.71362   -8874.1743    48.693562   -8922.8678     15866.96 
   94800    250.79372   -8887.7855    37.378421   -8925.1639   -13740.427 
   95000    300.42927   -8885.0157     44.77613   -8929.7918    15494.451 
   95200     314.1015   -8892.2815    46.813846   -8939.0953   -19126.619 
   95400    283.32616   -8884.6208    42.227073   -8926.8479    7434.6207 
   95600    298.10464   -8881.8431    44.429666   -8926.2727   -14802.773 
   95800    283.77179   -8889.0333     42.29349   -8931.3268    9942.3896 
   96000    277.48269   -8897.9261    41.356159   -8939.2823    10105.297 
   96200    252.20774   -8882.0246    37.589169   -8919.6137   -37226.134 
   96400    302.79202   -8882.3668    45.128275   -8927.4951    31659.818 
   96600    255.61589    -8899.481    38.097121   -8937.5781    1592.4459 
   96800    306.77684   -8884.6699    45.722174    -8930.392    1532.7119 
   97000    338.98812   -8849.4334     50.52296   -8899.9564   -1097.3651 
   97200    377.76247   -8906.9774    56.301908   -8963.2793   -30259.376 
   97400    290.34195   -8922.2249    43.272711   -8965.4976    20572.861 
   97600     289.5777   -8921.0353    43.158806   -8964.1941    9265.9108 
   97800     276.0894   -8941.5005    41.148503    -8982.649    10735.097 
   98000    301.90641   -8932.8579    44.996283   -8977.8542    17519.448 
   98200    309.74574   -8932.4729    46.164661   -8978.6375   -4550.3369 
   98400    300.51634   -8934.1178    44.789106   -8978.9069    26110.551 
   98600    321.53991    -8932.516     47.92247   -8980.4384   -26061.953 
   98800    277.85844   -8939.3636    41.412161   -8980.7758   -27318.406 
   99000    324.19397   -8923.5844    48.318032   -8971.9025    11462.614 
   99200    309.20176   -8932.5654    46.083585   -8978.6489    13090.502 
   99400    344.14871   -8934.6122    51.292097   -8985.9043    20324.298 
   99600    254.10643   -8934.6104    37.872151   -8972.4826    24045.527 
   99800     322.4695    -8930.661    48.061017    -8978.722    22740.046 
  100000    254.09859   -8934.9672    37.870982   -8972.8382    3291.3219 
  100200    278.99273   -8937.9751    41.581217   -8979.5563    3862.2336 
  100400    334.07298   -8920.2877    49.790405   -8970.0781    15752.772 
  100600    281.29398   -8930.7115    41.924196   -8972.6357   -2052.5404 
  100800    353.03584   -8930.7437    52.616639   -8983.3603   -18158.937 
  101000    314.74256   -8933.6684    46.909389   -8980.5778     17888.41 
  101200    222.34628   -8943.4824    33.138601   -8976.6211   -15987.098 
  101400    310.96703   -8929.5539    46.346682   -8975.9006    5016.0009 
  101600    306.75896    -8925.246     45.71951   -8970.9655    4026.2313 
  101800    259.93545   -8934.8141     38.74091    -8973.555   -7404.2931 
  102000    307.19731   -8931.3427    45.784841   -8977.1275    11285.522 
  102200    320.16567    -8917.819    47.717652   -8965.5366    293.86749 
  102400    318.28249   -8934.9958    47.436982   -8982.4328    18026.255 
  102600    234.50961   -8938.9759     34.95143   -8973.9274    11669.261 
  102800    306.31301    -8919.618    45.653045    -8965.271   -23464.537 
  103000    402.02576   -8928.5125    59.918121   -8988.4306   -26608.033 
  103200    280.44324   -8935.5211    41.797401   -8977.3186   -22725.882 
  103400    320.25178   -8917.7764    47.730486   -8965.5069    45527.851 
  103600    314.52801   -8933.6124    46.877412   -8980.4898   -13999.449 
  103800    308.73603   -8940.5688    46.014173    -8986.583   -14488.236 
  104000    272.57705   -8926.6469     40.62502   -8967.2719    35265.815 
  104200    283.82613   -8929.5262    42.301589   -8971.8278    -9999.341 
  104400     308.9706   -8932.0622    46.049133   -8978.1113   -25489.928 
  104600    408.28504   -8910.8257    60.851007   -8971.6767    48615.795 
  104800    253.10223   -8927.3876    37.722484   -8965.1101    1638.4333 
  105000    298.20843    -8935.035    44.445134   -8979.4801   -21508.806 
  105200    267.98981   -8943.8035    39.941335   -8983.7449   -2395.7939 
  105400    278.93172    -8923.588    41.572123   -8965.1601   -3469.4183 
  105600    287.69034   -8937.2539    42.877513   -8980.1315   -7857.1045 
  105800     277.0086   -8940.1808    41.285501   -8981.4663   -10496.921 
  106000    336.81766   -8929.0551    50.199474   -8979.2545    10711.789 
  106200    294.86514   -8932.2516    43.946849   -8976.1984    105.45022 
  106400    301.89191   -8943.4217    44.994121   -8988.4158    19809.632 
  106600    302.63497   -8926.3511    45.104868    -8971.456   -23432.172 
  106800    265.35532   -8930.6226     39.54869   -8970.1713    49220.251 
  107000    261.81735   -8950.6737    39.021389   -8989.6951    1826.1834 
  107200    250.72009   -8942.0861    37.367448   -8979.4536   -28229.375 
  107400    246.72712   -8930.9321    36.772334   -8967.7044   -48051.154 
  107600    220.12207   -8941.0488    32.807104   -8973.8559    -14969.23 
  107800     342.4793   -8930.1494    51.043287   -8981.1927   -41385.448 
  108000    366.88129   -8921.1787    54.680172   -8975.8589    5356.4023 
  108200    252.91928   -8941.2237    37.695217   -8978.9189   -607.70264 
  108400    329.56829   -8929.9567    49.119024   -8979.0757   -14207.138 
  108600     404.7065    -8915.253    60.317661   -8975.5706    -30519.35 
  108800    301.17259   -8933.0464    44.886915   -8977.9333    43317.776 
  109000    343.65228   -8931.7491    51.218108   -8982.9672    28467.227 
  109200    336.79425   -8921.4862    50.195984   -8971.6821    23811.525 
  109400     292.2769   -8935.8519    43.561097    -8979.413   -32413.556 
  109600    318.52181    -8940.774     47.47265   -8988.2467   -4726.9205 
  109800    310.87491   -8930.0082    46.332953   -8976.3412   -25366.782 
  110000    279.41423   -8937.1533    41.644038   -8978.7973    13354.494 
  110200     278.9287    -8939.769    41.571674   -8981.3406   -12363.539 
  110400    352.69474   -8927.5862    52.565802    -8980.152    9254.9373 
  110600    293.46861   -8933.6025    43.738708   -8977.3412    7853.5157 
  110800    263.64456   -8946.5398    39.293718   -8985.8335    8582.2021 
  111000    297.33829   -8931.1575    44.315448    -8975.473    16769.515 
  111200    300.73764   -8927.3287    44.822089   -8972.1508    21466.382 
  111400    255.47632    -8941.338     38.07632   -8979.4143    4516.0829 
  111600    302.50804   -8933.9351    45.085951   -8979.0211    70708.863 
  111800    350.51689   -8922.9952    52.241213   -8975.2364     34124.94 
  112000    372.65131   -8924.5563    55.540138   -8980.0965    -30862.04 
  112200    309.27992   -8937.2266    46.095235   -8983.3218   -280.76912 
  112400     318.2196   -8936.3992    47.427608   -8983.8268   -21214.445 
  112600    299.82693   -8926.0226    44.686356   -8970.7089   -16027.272 
  112800    254.86163   -8936.5884    37.984705   -8974.5731    22043.128 
  113000    303.31002   -8931.9105    45.205478    -8977.116    8088.3475 
  113200    274.96418   -8934.8697      40.9808   -8975.8505   -14801.223 
  113400    265.20418   -8941.4918    39.526164    -8981.018    22309.083 
  113600    335.83147   -8922.1511    50.052491   -8972.2036    6342.8129 
  113800    309.23853   -8933.1532    46.089066   -8979.2422    11980.602 
  114000    317.11933   -8931.3353    47.263624   -8978.5989   -13153.962 
  114200    337.97511   -8928.6242     50.37198   -8978.9961    24267.475 
  114400    267.58915   -8942.5168    39.881622   -8982.3985    13960.251 
  114600     325.2453   -8926.9949    48.474722   -8975.4696    2082.7744 
  114800    332.20739   -8931.3981    49.512356   -8980.9104    14033.163 
  115000    330.85464   -8932.9605    49.310742   -8982.2712    11740.029 
  115200    358.04704   -8913.3892    53.363511   -8966.7527    6349.8499 
  115400    283.48552   -8931.3965    42.250825   -8973.6473   -10890.955 
  115600    343.69347   -8932.0032    51.224248   -8983.2274   -10832.253 
  115800    302.34931   -8929.8976    45.062292   -8974.9599   -29355.567 
  116000    264.81224   -8940.3021     39.46775   -8979.7698   -25484.961 
  116200    292.45363   -8937.6414    43.587437   -8981.2288    24375.939 
  116400    260.14485   -8928.4391     38.77212   -8967.2113   -23583.871 
  116600    275.90804    -8941.337    41.121473   -8982.4585   -9064.7989 
  116800    239.47625   -8943.7184    35.691661     -8979.41    14356.459 
  117000    312.74352   -8926.2184    46.611452   -8972.8299   -7158.6128 
  117200    300.08486   -8931.3819    44.724799   -8976.1067    11868.299 
  117400    257.73106    -8941.887    38.412367   -8980.2994   -24054.999 
  117600    270.41803   -8932.1038    40.303239   -8972.4071   -10067.376 
  117800    315.52103   -8928.5914    47.025414   -8975.6168    6878.1604 
  118000    314.13284   -8939.8022    46.818517   -8986.6207    17535.602 
  118200    294.96226   -8943.6515    43.961323   -8987.6128   -30789.631 
  118400    325.45945   -8928.6707     48.50664   -8977.1773    19822.501 
  118600    313.31272   -8930.0791    46.696285   -8976.7754    34075.103 
  118800    252.72735   -8945.5276    37.666611   -8983.1942     15030.98 
  119000    283.48052   -8932.8681    42.250079   -8975.1182   -18831.469 
  119200    363.16136   -8927.8071    54.125752   -8981.9328    8131.8362 
  119400     241.1023   -8941.3259    35.934008   -8977.2599    31720.229 
  119600    215.55443   -8942.8052     32.12634   -8974.9316    10256.578 
  119800    344.06673    -8933.203    51.279878   -8984.4828    44668.589 
  120000    382.82837   -8927.9129    57.056933   -8984.9698   -19443.591 
  120200    298.08437   -8942.5547    44.426644   -8986.9813    4994.4094 
  120400    335.17026   -8928.2371    49.953943   -8978.1911   -4222.5091 
  120600    310.46311   -8930.2314    46.271578    -8976.503     22529.37 
  120800    269.21858   -8937.5438    40.124473   -8977.6683   -15062.106 
  121000    261.00088   -8937.9224    38.899703   -8976.8221     9814.466 
  121200    367.73645   -8925.7483    54.807625   -8980.5559   -7382.0465 
  121400    311.30326    -8939.351    46.396795   -8985.7478    13503.184 
  121600    230.29113   -8951.6215    34.322705   -8985.9442   -18149.375 
  121800    332.34632   -8935.5294    49.533062   -8985.0625   -2024.1519 
  122000    322.06116   -8923.3547    48.000158   -8971.3548    50734.652 
  122200    272.33366   -8942.0861    40.588746   -8982.6748    6362.5698 
  122400    327.13085   -8934.4282    48.755747    -8983.184    16641.165 
  122600    330.18237   -8929.7998    49.210547   -8979.0104   -20372.241 
  122800    278.33165   -8944.0262    41.482689   -8985.5089    -27420.36 
  123000    345.39394   -8929.2211    51.477686   -8980.6988   -2766.0086 
  123200    251.88969   -8931.0201    37.541766   -8968.5618    5646.4086 
  123400     304.4086   -8937.4677    45.369211   -8982.8369    30073.506 
  123600    310.06323   -8938.6182     46.21198   -8984.8302     12313.42 
  123800    331.71791   -8929.1005    49.439405   -8978.5399   -26668.566 
  124000    303.75738   -8937.2669    45.272153    -8982.539    45763.992 
  124200     259.2819   -8944.4456    38.643505   -8983.0891    13766.748 
  124400    313.16922   -8928.0582    46.674898   -8974.7331   -8264.6066 
  124600    284.30048   -8929.5171    42.372286   -8971.8894   -18846.159 
  124800    265.22196   -8945.3295    39.528815   -8984.8583   -208.68458 
  125000    301.99447    -8935.646    45.009407   -8980.6554    14781.205 
  125200    272.77978   -8927.6738    40.655236   -8968.3291    59456.042 
  125400    351.67003   -8926.9578    52.413078   -8979.3709   -22486.193 
  125600    298.83137   -8937.7572    44.537978   -8982.2952   -1185.8098 
  125800    342.45673   -8925.1113    51.039922   -8976.1512    15884.163 
  126000    359.59681   -8927.9595     53.59449    -8981.554    32618.426 
  126200    287.03664   -8935.7234    42.780084   -8978.5035   -2834.4142 
  126400     260.5264   -8930.4425    38.828986   -8969.2715    9310.8041 
  126600     316.8514   -8921.1111    47.223692   -8968.3348    6571.9674 
  126800     238.5568   -8937.8333    35.554625   -8973.3879   -7593.1457 
  127000    266.47201   -8930.6653    39.715123   -8970.3804    2344.1087 
  127200    330.03719   -8927.5822    49.188909   -8976.7711   -39750.853 
  127400    288.19674   -8929.1052    42.952987   -8972.0582    -18286.68 
  127600    274.83466   -8938.6873    40.961495   -8979.6488   -4968.9678 
  127800    254.24529   -8939.0596    37.892846   -8976.9525    10662.694 
WARNING: Fix qeq/reax CG convergence failed after 200 iterations at 127911 step (../fix_qeq_reax.cpp:735)
  128000    291.08636   -8931.5635    43.383657   -8974.9472    14157.198 
  128200    399.33402   -8927.1618    59.516943   -8986.6787    3249.5593 
  128400    237.62511   -8946.1045    35.415767   -8981.5203   -11875.139 
  128600    294.70947   -8931.6515    43.923647   -8975.5751    8700.2169 
  128800    286.34476   -8934.2957    42.676967   -8976.9727    9637.4681 
  129000    284.71669   -8935.3339    42.434318   -8977.7682    225.88139 
  129200    249.11916   -8937.3532    37.128845   -8974.4821    8325.3696 
  129400    301.20588   -8923.5174    44.891875   -8968.4093    28754.125 
  129600    269.31329   -8935.8965    40.138589   -8976.0351    7684.4959 
  129800    297.25482   -8938.9758    44.303008   -8983.2788    7523.9122 
  130000    332.86594   -8921.2803    49.610507   -8970.8908   -18498.074 
  130200    284.39114   -8931.6385    42.385798   -8974.0243   -33245.312 
  130400    273.70071   -8939.7554    40.792491   -8980.5479    16735.907 
  130600      303.403   -8921.0306    45.219336   -8966.2499    10114.114 
  130800    371.81475   -8926.8895    55.415457   -8982.3049    47086.644 
  131000    285.03592   -8933.2547    42.481896   -8975.7366    -21148.42 
  131200    361.65131   -8919.4588    53.900693   -8973.3595    17598.214 
  131400    283.01441   -8941.2366     42.18061   -8983.4172   -601.92428 
  131600    293.47777   -8932.3534    43.740074   -8976.0935    7149.8412 
  131800    340.19354   -8924.7634    50.702616   -8975.4661    5334.0395 
  132000    271.85541   -8944.3139    40.517467   -8984.8313   -4646.4672 
  132200    268.28405    -8930.282     39.98519   -8970.2672    37889.012 
  132400    314.12517   -8931.9739    46.817373   -8978.7913    -7665.011 
  132600     281.6674   -8936.1704    41.979851   -8978.1503    12680.124 
  132800    338.67505   -8930.7113      50.4763   -8981.1876    6340.2141 
  133000    298.00474   -8931.2044    44.414776   -8975.6192   -11153.731 
  133200    273.01674    -8942.404    40.690552   -8983.0946   -34129.099 
  133400    326.13557   -8918.2354    48.607409   -8966.8428    871.70763 
  133600    293.19713   -8930.1411    43.698248   -8973.8394    9239.5497 
  133800    302.33949   -8933.3914     45.06083   -8978.4522    2168.5439 
  134000    308.39556   -8929.7492     45.96343   -8975.7127   -2805.4473 
  134200    367.76477   -8923.6876    54.811847   -8978.4994    8413.7887 
  134400    259.54756   -8939.6017    38.683098   -8978.2848    34674.939 
  134600    300.91024   -8933.5718    44.847813   -8978.4196   -27048.485 
  134800    373.17661   -8923.1218     55.61843   -8978.7402   -53496.376 
  135000    288.75397   -8933.6726    43.036036   -8976.7086   -21159.963 
  135200    272.92243   -8939.4833    40.676496   -8980.1598   -39901.492 
  135400    361.20865    -8935.775    53.834718   -8989.6097   -32909.784 
  135600    338.81182   -8924.4071    50.496684   -8974.9037    3034.4658 
  135800    274.24874   -8944.6699    40.874171   -8985.5441   -3244.6908 
  136000    313.33223   -8935.2786    46.699193   -8981.9778    18805.455 
  136200    328.16721   -8931.0929    48.910205   -8980.0032   -9293.4221 
  136400    295.64135   -8933.3643    44.062535   -8977.4268   -30346.596 
  136600    353.84781   -8921.2947    52.737656   -8974.0324    23872.391 
  136800    288.34057   -8938.3651    42.974423   -8981.3396    26250.979 
  137000    304.20611    -8928.753    45.339031    -8974.092   -1472.4255 
  137200    307.15297   -8923.0312    45.778233   -8968.8095   -26888.156 
  137400    305.31884   -8940.0408    45.504874   -8985.5456   -45062.505 
  137600    317.06233   -8926.8301    47.255129   -8974.0852    4247.6991 
  137800    266.38635   -8941.0923    39.702356   -8980.7946    -34932.63 
  138000    275.00598   -8938.8552     40.98703   -8979.8422    3336.8641 
  138200    317.74448   -8934.8157    47.356798   -8982.1725    -42226.21 
  138400    372.20688    -8916.918      55.4739   -8972.3919    7112.3119 
  138600    263.57332   -8930.2071      39.2831   -8969.4902    1910.6575 
  138800    244.07025   -8937.9853    36.376353   -8974.3616   -28135.333 
  139000    358.36291   -8921.6021    53.410588   -8975.0127    -40570.82 
  139200    269.27832   -8933.1906    40.133376    -8973.324    4340.1594 
  139400    258.54317   -8937.2166    38.533404     -8975.75   -10141.883 
  139600    274.48486   -8939.0526    40.909362    -8979.962    17122.363 
  139800    283.82856   -8927.2591    42.301951    -8969.561   -2915.7795 
  140000    330.44392   -8926.5743    49.249528   -8975.8238   -1604.9983 
  140200    267.51646   -8940.0363    39.870787   -8979.9071   -25269.638 
  140400    278.05812   -8933.7249    41.441922   -8975.1668   -84.503082 
  140600    295.43353    -8924.471    44.031562   -8968.5026   -19413.158 
  140800    260.90838   -8938.1837    38.885916   -8977.0696   -402.21912 
  141000     281.7577   -8935.6343     41.99331   -8977.6276   -2917.4038 
  141200    295.51255   -8931.9976    44.043338   -8976.0409   -13547.934 
  141400    215.29565   -8946.2108    32.087772   -8978.2985    10516.925 
  141600    312.08251    -8931.592    46.512934    -8978.105   -8229.0938 
  141800    339.23126   -8926.6792    50.559198   -8977.2384   -690.47766 
  142000    208.00885   -8945.0155    31.001743   -8976.0173    1219.0547 
  142200    339.18586   -8929.6275    50.552431   -8980.1799    33251.765 
  142400    307.03699   -8930.9422    45.760947   -8976.7032    25152.759 
  142600    260.33419   -8939.5881    38.800339   -8978.3884   -8126.9659 
  142800    324.01212    -8933.073     48.29093   -8981.3639   -8825.4021 
  143000    312.43907   -8927.3308    46.566077   -8973.8969    34529.224 
  143200    261.52039   -8941.9663     38.97713   -8980.9434    13161.479 
  143400    277.54094   -8938.0682     41.36484   -8979.4331   -25312.932 
  143600    293.46861   -8928.6157     43.73871   -8972.3544   -3662.7957 
  143800    277.29277   -8940.5172    41.327854    -8981.845    38253.365 
  144000    269.11394   -8946.3817    40.108877   -8986.4906    13970.312 
  144200    310.52104   -8927.8711    46.280212   -8974.1514   -13265.112 
  144400    299.81201    -8935.428    44.684133   -8980.1121    1939.4798 
  144600    288.60774    -8942.372    43.014242   -8985.3863   -9462.2537 
  144800    290.35444    -8933.787    43.274572   -8977.0616    4699.0202 
  145000    287.60663   -8929.0332    42.865037   -8971.8982   -42170.746 
  145200    373.43268   -8922.7732    55.656594   -8978.4298   -27405.261 
  145400     266.0525   -8937.9052    39.652598   -8977.5578    -52792.77 
  145600     334.5128   -8926.7184    49.855956   -8976.5743   -11071.132 
  145800    328.29852   -8931.6529    48.929776   -8980.5827   -24656.395 
  146000    281.43648   -8935.1508    41.945434   -8977.0962    8635.4368 
  146200    283.98682   -8929.4159    42.325539   -8971.7415   -2930.4063 
  146400    288.24006   -8918.9596    42.959443   -8961.9191    13339.684 
  146600    273.64188   -8938.4954    40.783723   -8979.2791    21561.726 
  146800    289.00845   -8932.8104    43.073964   -8975.8843    1361.9885 
  147000    311.38333   -8925.8623    46.408727    -8972.271    -7022.826 
  147200    311.49411    -8933.698    46.425239   -8980.1232   -5336.2947 
  147400    353.34949   -8935.4064    52.663386   -8988.0698    11277.045 
  147600    309.13033   -8936.3232    46.072939   -8982.3962    38023.719 
  147800    308.84608   -8929.0911    46.030575   -8975.1217    16414.572 
  148000    345.85641   -8930.4937    51.546613   -8982.0403   -19577.869 
  148200    278.17356    -8941.132    41.459127   -8982.5912    21946.589 
  148400    349.39693   -8923.9576    52.074293   -8976.0319    21647.235 
  148600    290.80639   -8931.0909    43.341931   -8974.4328   -29319.595 
  148800    260.79301   -8946.9154    38.868721   -8985.7841   -28282.198 
  149000    302.69017   -8930.3795    45.113096   -8975.4926   -7291.2588 
  149200    344.89782   -8920.5766    51.403745   -8971.9804    24409.565 
  149400    256.99126   -8936.8163    38.302106   -8975.1185    31889.667 
  149600    273.03072   -8933.2086    40.692635   -8973.9012    -27504.36 
  149800    362.36958   -8916.7207    54.007745   -8970.7284   -31629.027 
  150000     293.0305   -8932.9758    43.673413   -8976.6492    11571.306 
  150200    302.61155   -8937.8524    45.101378   -8982.9538   -2471.2605 
  150400    263.74078   -8936.3008    39.308059   -8975.6089   -48214.929 
  150600    362.86786   -8921.4926    54.082009   -8975.5746   -23796.188 
  150800    248.82427    -8936.813    37.084895   -8973.8979    14230.724 
  151000    356.07361   -8928.0015     53.06939   -8981.0709   -26339.244 
  151200    335.71911    -8912.882    50.035744   -8962.9177    3097.0727 
  151400    313.39567   -8934.8036    46.708648   -8981.5122   -34390.023 
  151600    286.65018   -8942.8366    42.722487   -8985.5591     20036.47 
  151800    307.45912   -8925.0925    45.823862   -8970.9164    4524.1616 
  152000    321.94707    -8937.142    47.983153   -8985.1252    19183.126 
  152200    287.75068   -8937.7568    42.886506   -8980.6434    17291.898 
  152400    273.00414   -8930.8546    40.688674   -8971.5433     1937.645 
  152600    310.67157   -8936.1989    46.302647   -8982.5015   -29126.111 
  152800    272.92636   -8946.3262    40.677082   -8987.0032   -16944.314 
  153000    268.77594   -8935.5304    40.058501   -8975.5889    7965.6697 
  153200    339.42558   -8928.3865    50.588158   -8978.9747   -7686.8466 
  153400    271.20843   -8947.2394    40.421041   -8987.6604    -3415.532 
  153600    288.66836   -8942.8507    43.023278    -8985.874   -13655.501 
  153800    249.70361   -8933.4572    37.215952   -8970.6732   -8501.3896 
  154000    324.48283   -8926.8787    48.361084   -8975.2398    5693.3772 
  154200    294.08962   -8944.8812    43.831264   -8988.7125    27345.115 
  154400    283.59997   -8932.7982    42.267882    -8975.066   -5476.8578 
  154600    311.56801   -8931.1272    46.436254   -8977.5635   -14924.688 
  154800    215.90983    -8950.555    32.179309   -8982.7343    39987.016 
  155000    257.47417   -8940.8266     38.37408   -8979.2007   -17600.756 
  155200    350.47171   -8926.2624     52.23448   -8978.4969    56834.441 
  155400    308.17724   -8937.5908     45.93089   -8983.5217   -10708.748 
  155600    235.23884   -8938.2652    35.060115   -8973.3253     32714.07 
  155800    320.70337   -8927.8633    47.797791   -8975.6611   -23591.439 
  156000    264.79929   -8944.9208    39.465819   -8984.3866    11278.197 
  156200    283.05145   -8938.6515    42.186131   -8980.8377   -19746.864 
  156400    271.82426   -8932.8658    40.512824   -8973.3786    -36502.37 
  156600    343.74873   -8930.6539    51.232484   -8981.8864    24177.247 
  156800    261.11206   -8945.3132    38.916272   -8984.2295    37193.542 
  157000     267.9372    -8929.117    39.933495   -8969.0505    1257.4056 
  157200    329.89227   -8931.5348    49.167309   -8980.7021    73031.088 
  157400    262.51641   -8943.3901    39.125578   -8982.5157   -22786.929 
  157600    291.58371   -8935.0586    43.457782   -8978.5164    10079.779 
  157800    337.71089   -8925.4908      50.3326   -8975.8234    19972.352 
  158000    290.45919   -8934.9824    43.290183   -8978.2726    23069.231 
  158200    339.45346    -8938.583    50.592314   -8989.1754    8951.8101 
  158400    340.43439    -8924.248    50.738512   -8974.9865    27088.036 
  158600    301.50863   -8934.1634    44.936998   -8979.1004   -7507.5229 
  158800    339.69682    -8933.938    50.628584   -8984.5666    395.62601 
  159000    305.34441   -8934.5239    45.508684   -8980.0326    39163.431 
  159200    320.33143   -8934.5689    47.742357   -8982.3113    11153.022 
  159400    334.20408    -8933.004    49.809945    -8982.814   -6296.1533 
  159600     282.7374   -8944.1002    42.139324   -8986.2395   -26578.151 
  159800     267.0446   -8938.9939    39.800461   -8978.7943    12548.518 
  160000    337.70054   -8926.9183    50.331057   -8977.2494   -1686.3549 
  160200    202.59921    -8938.372    30.195488   -8968.5675   -21421.245 
  160400    314.85739   -8924.5069    46.926503   -8971.4334   -15316.706 
  160600    309.82785   -8924.2887    46.176898   -8970.4656    30865.802 
  160800    289.55408    -8939.696    43.155285   -8982.8513    8809.8719 
  161000    314.09369   -8929.4119    46.812681   -8976.2246    19879.606 
  161200    372.30728   -8925.9567    55.488864   -8981.4456   -23974.739 
  161400    258.26536   -8939.4009    38.491999   -8977.8929    -274.8062 
  161600    323.28724   -8931.1343    48.182893   -8979.3171    5883.4017 
  161800     326.4204   -8921.1625    48.649861   -8969.8123    6199.2945 
  162000    275.60476    -8940.941    41.076271   -8982.0173    6978.8683 
  162200      272.874   -8937.8822    40.669278   -8978.5514   -814.56423 
  162400    361.98752   -8919.8772    53.950801    -8973.828    11876.826 
  162600    320.98498   -8940.6194    47.839762   -8988.4591   -12818.893 
  162800    311.36374   -8931.5147    46.405808   -8977.9205    18646.577 
  163000    333.80193   -8922.5306    49.750007   -8972.2806    39013.457 
  163200    330.04079   -8931.7313    49.189445   -8980.9207    624.13208 
  163400    227.25712   -8939.5965    33.870516    -8973.467   -3196.7913 
  163600    332.77607   -8922.3357    49.597112   -8971.9328   -24194.235 
  163800    332.12516   -8931.8616    49.500101   -8981.3617    56848.287 
  164000    255.83532   -8938.0902    38.129824   -8976.2201     9226.791 
  164200    324.22757   -8931.0539     48.32304   -8979.3769   -20851.653 
  164400    285.09837   -8929.5722    42.491204   -8972.0634    28840.549 
  164600    263.28625   -8943.3061    39.240315   -8982.5464   -26777.132 
  164800    249.71745   -8932.1552    37.218014   -8969.3732    17344.234 
  165000    294.14385   -8934.0302    43.839347   -8977.8696   -1771.2013 
  165200    245.19235   -8941.0411    36.543591   -8977.5846    -28415.09 
  165400    367.95039   -8927.4282    54.839511   -8982.2677   -46547.295 
  165600    290.92824    -8935.461    43.360092   -8978.8211   -6875.8358 
  165800    261.84748   -8946.2892     39.02588   -8985.3151   -11662.238 
  166000    299.49023   -8936.7804    44.636174   -8981.4166   -29390.661 
  166200    301.91748    -8928.236    44.997933    -8973.234    6990.6439 
  166400     241.1266   -8945.9338    35.937629   -8981.8714   -4890.0293 
  166600    254.66936   -8940.1366     37.95605   -8978.0927   -62952.246 
  166800    334.11149   -8932.1971    49.796145   -8981.9932   -11836.984 
  167000    307.36698   -8938.6705     45.81013   -8984.4807   -12398.525 
  167200    293.25901   -8944.5212    43.707471   -8988.2287   -15768.507 
  167400    321.91965   -8931.3501    47.979066   -8979.3291   -40134.027 
  167600    306.36256   -8939.0924    45.660429   -8984.7529   -30770.601 
  167800    250.96703   -8947.9494    37.404252   -8985.3536   -10658.072 
  168000    342.71985   -8933.0286    51.079139   -8984.1077   -14370.078 
  168200    307.78343   -8930.3316    45.872197   -8976.2038    -3374.538 
  168400    319.14589    -8925.824    47.565663   -8973.3897   -2640.5421 
  168600    303.64959    -8934.529    45.256087   -8979.7851   -1034.1719 
  168800    306.57046   -8940.5771    45.691415   -8986.2685    5884.5642 
  169000    376.07506   -8928.4389    56.050416   -8984.4893   -1830.8746 
  169200    279.75617   -8932.3516       41.695   -8974.0466   -4133.9977 
  169400    238.79838   -8946.9014    35.590631   -8982.4921    12556.588 
  169600    295.89227   -8941.0282    44.099933   -8985.1281   -5748.7193 
  169800    279.86244   -8934.8848    41.710839   -8976.5956    46974.422 
  170000    329.33554    -8922.562    49.084335   -8971.6464   -4622.8565 
  170200     310.1244   -8934.6841    46.221097   -8980.9052   -21814.146 
  170400    296.38511   -8937.0295    44.173386   -8981.2029      6787.64 
  170600    342.01002   -8923.9439    50.973345   -8974.9173    8187.5499 
  170800    390.80676   -8920.6644    58.246036   -8978.9104   -23899.649 
  171000    264.40918   -8938.3785    39.407677   -8977.7862     24369.81 
  171200    347.35997   -8925.8436    51.770704   -8977.6143    43290.178 
  171400     323.1376   -8926.9095     48.16059   -8975.0701   -18584.519 
  171600    277.79996   -8943.0146    41.403445   -8984.4181     21317.11 
  171800    362.39111    -8927.196    54.010953    -8981.207    7705.5372 
  172000    337.37037   -8933.7136     50.28185   -8983.9954   -30354.964 
  172200    207.24475   -8951.6116    30.887861   -8982.4995    60923.207 
  172400    312.17062   -8934.8403    46.526066   -8981.3663   -29036.014 
  172600    286.73663   -8931.8281    42.735371   -8974.5635   -16340.299 
  172800     346.0964   -8926.4988    51.582381   -8978.0811    26341.616 
  173000    263.48423   -8940.5881    39.269822    -8979.858   -12349.709 
  173200    304.90822    -8933.271    45.443675   -8978.7147    34757.486 
  173400      358.993   -8924.4737    53.504497   -8977.9782   -39212.538 
  173600    296.91667   -8936.1879    44.252609   -8980.4405    9720.0646 
  173800    322.92508   -8932.6085    48.128916   -8980.7374   -23688.941 
  174000     309.7685    -8917.493    46.168052    -8963.661    37557.857 
  174200    287.88871   -8933.1491    42.907078   -8976.0562    34995.609 
  174400    327.93626   -8933.9661    48.875785   -8982.8419   -13837.499 
  174600    235.15426   -8947.4185    35.047508    -8982.466    -17693.88 
  174800    302.53351   -8931.2601    45.089747   -8976.3498    2009.8381 
  175000    250.81194   -8936.3772    37.381137   -8973.7583   -725.10076 
  175200    261.97757   -8948.7013    39.045269   -8987.7466    14646.057 
  175400    330.93268   -8936.3736    49.322373    -8985.696     6032.252 
  175600    356.54033   -8930.5769    53.138951   -8983.7159   -10344.725 
  175800    248.38057   -8945.8158    37.018764   -8982.8345    16289.731 
  176000     348.0591   -8935.5749    51.874903   -8987.4498    21998.989 
  176200    288.85062   -8927.8532    43.050442   -8970.9037    33086.659 
  176400    268.51185   -8944.7658    40.019141    -8984.785    3098.0507 
  176600    285.02117   -8938.3968    42.479699   -8980.8765   -29097.391 
  176800    279.05854   -8936.6657    41.591025   -8978.2567   -8834.9866 
  177000    416.48405   -8915.6461    62.072993   -8977.7191    2130.3007 
  177200    326.80178   -8933.8574    48.706702   -8982.5641   -4487.9795 
  177400    286.41024   -8939.3966    42.686727   -8982.0833   -8051.0675 
  177600    372.92057   -8927.6075    55.580269   -8983.1878    1306.4724 
  177800    297.71647   -8928.4028    44.371812   -8972.7746    3252.2115 
  178000    259.15554   -8943.1151    38.624671   -8981.7397    1780.2481 
  178200    358.22925   -8927.3044    53.390667   -8980.6951    25099.893 
  178400    330.83646   -8932.1357    49.308033   -8981.4438   -6251.0803 
  178600    277.80973   -8933.6365    41.404902   -8975.0414    13256.081 
  178800     289.6934   -8943.2831     43.17605   -8986.4591   -16293.969 
  179000    289.40417    -8938.269    43.132943   -8981.4019   -19636.642 
[...]
  950000    323.20838   -8967.8247     48.17114   -9015.9958    7824.5752 
  950200    370.35358   -8958.0981    55.197684   -9013.2958    6078.3675 
  950400    283.97145   -8980.7941    42.323247   -9023.1173     1497.103 
  950600    276.60909   -8978.2834    41.225958   -9019.5094   -1018.3811 
  950800    337.56121   -8964.2906    50.310293   -9014.6009    2696.5459 
  951000    269.54073   -8974.9421    40.172486   -9015.1146    65836.119 
  951200    356.77348   -8966.3093    53.173698    -9019.483   -20234.022 
  951400    273.03317    -8978.181    40.693001    -9018.874    33316.252 
  951600    282.43009   -8975.9201    42.093522   -9018.0136    22443.882 
  951800    278.11674   -8971.0411    41.450658   -9012.4918   -1165.6672 
  952000    324.43553   -8964.8681    48.354035   -9013.2221   -16768.859 
  952200    309.01947   -8959.5999    46.056417   -9005.6563    257.28606 
  952400    303.80345   -8979.6746     45.27902   -9024.9536    21353.906 
  952600    332.62148   -8974.2229    49.574073    -9023.797    8628.9347 
  952800    330.67432   -8957.4129    49.283867   -9006.6968   -946.28457 
  953000    275.74009   -8976.9152    41.096442   -9018.0116    32525.139 
  953200    307.02099   -8968.1182    45.758563   -9013.8767   -5295.6605 
  953400    345.83275   -8966.1425    51.543087   -9017.6856   -28832.432 
  953600    270.33865   -8976.9858    40.291409   -9017.2772    10223.537 
  953800    313.95346   -8971.1323    46.791782   -9017.9241    19386.329 
  954000    354.15111   -8965.6638    52.782859   -9018.4467    13252.225 
  954200    246.76619   -8980.9374    36.778156   -9017.7156   -17639.481 
  954400    258.36973   -8971.0743    38.507555   -9009.5818   -19726.775 
  954600    328.85413     -8970.63    49.012585   -9019.6426    -15016.76 
  954800    280.32981   -8978.4603    41.780495   -9020.2408   -7389.8763 
  955000    367.69948   -8959.8526    54.802115   -9014.6548   -5695.6993 
  955200    289.26931   -8972.5553    43.112843   -9015.6681   -13130.335 
  955400    278.72052   -8976.1908    41.540646   -9017.7314    25680.664 
  955600    407.33107   -8956.5932    60.708827    -9017.302   -15657.068 
  955800     265.0512   -8966.9538    39.503364   -9006.4571   -776.55831 
  956000    284.50913   -8976.0475    42.403384   -9018.4509    36100.429 
  956200    283.68748   -8978.5907    42.280925   -9020.8716   -24273.993 
  956400    318.65391   -8961.9291    47.492339   -9009.4214   -6297.4357 
  956600    264.55329   -8973.8088    39.429155   -9013.2379   -29954.356 
  956800    313.28778   -8975.5026    46.692568   -9022.1951     -5331.34 
  957000    221.61534   -8979.6662    33.029662   -9012.6958   -890.01418 
  957200      349.805   -8969.6102    52.135113   -9021.7454    25591.251 
  957400    362.96043   -8967.0638    54.095805   -9021.1596    21976.426 
  957600    290.53912   -8980.6646    43.302096   -9023.9667    7999.8405 
  957800    337.70014   -8974.0011    50.330998   -9024.3321    15820.583 
  958000    331.40841   -8968.8056    49.393276   -9018.1989   -18516.286 
  958200    261.67076   -8981.4229    38.999542   -9020.4225    16936.581 
  958400    277.81619   -8976.5047    41.405865   -9017.9106    5116.8561 
  958600    295.45251   -8965.4594    44.034391   -9009.4938    4150.5872 
  958800     306.4956    -8980.226    45.680258   -9025.9062   -35674.758 
  959000    349.33839   -8973.5304     52.06557   -9025.5959   -11043.558 
  959200    322.51316   -8963.1903    48.067524   -9011.2578     20959.76 
  959400    253.42051   -8977.3762    37.769921   -9015.1461   -42808.272 
  959600    256.39038   -8982.1772    38.212551   -9020.3898   -24520.754 
  959800    327.81789   -8966.7017    48.858143   -9015.5599    25867.198 
  960000    317.12581   -8970.2558    47.264589   -9017.5203   -29527.398 
  960200    340.29614   -8977.3108    50.717908   -9028.0287   -15204.049 
  960400    309.62363   -8971.9492    46.146461   -9018.0957   -22033.484 
  960600    294.96951   -8970.8393    43.962403   -9014.8017    16439.762 
  960800     324.9836   -8973.2272     48.43572    -9021.663    18121.586 
  961000    250.92461   -8988.2162     37.39793   -9025.6141     34069.99 
  961200    300.66244   -8973.1967    44.810881   -9018.0075    54297.942 
  961400    300.09518   -8975.8707    44.726337   -9020.5971    7377.2336 
  961600    309.51438   -8976.6004    46.130178   -9022.7306    6988.3452 
  961800    302.19958   -8964.7123    45.039977   -9009.7523    17096.425 
  962000    250.09852   -8977.9661    37.274809   -9015.2409    202.57361 
  962200    284.67595   -8960.6811    42.428247   -9003.1094   -15314.331 
  962400     331.2474   -8967.9388    49.369279   -9017.3081    13461.412 
  962600    306.73394   -8979.7148    45.715781   -9025.4306   -4060.3285 
  962800    340.10313   -8964.2471    50.689141   -9014.9363   -23427.308 
  963000    274.21703   -8968.7912    40.869445   -9009.6607    14823.132 
  963200    309.25177    -8964.174     46.09104   -9010.2651    4126.3659 
  963400    335.64202   -8963.6023    50.024255   -9013.6265    326.06304 
  963600    324.13945   -8979.2823    48.309906   -9027.5922    56676.243 
  963800    312.89267   -8968.0569    46.633681   -9014.6906   -14445.868 
  964000    315.56465   -8962.1021    47.031914   -9009.1341    10330.087 
  964200    291.46474   -8973.0194    43.440051   -9016.4595   -6358.5774 
  964400    280.81344   -8969.3596    41.852576   -9011.2122   -7360.6532 
  964600    385.19157   -8959.6282    57.409144   -9017.0374     27733.72 
  964800    271.27042   -8976.7758    40.430279   -9017.2061   -1991.0312 
  965000    306.63727   -8977.3856    45.701373   -9023.0869    -19700.25 
  965200    357.82867   -8958.7534    53.330965   -9012.0843   -69.054458 
  965400    305.61671   -8973.5135    45.549268   -9019.0628    25326.999 
  965600    271.48189   -8971.9574    40.461797   -9012.4192    16083.431 
  965800    311.91609   -8971.0289    46.488131    -9017.517    21071.397 
  966000    286.61723      -8980.8    42.717577   -9023.5175    25769.761 
  966200    289.63979   -8966.6783    43.168059   -9009.8464   -12772.781 
  966400    288.31247   -8970.4796    42.970235   -9013.4498    10333.347 
  966600    225.78945   -8990.7582    33.651773     -9024.41   -12449.981 
  966800    279.52199   -8976.0562    41.660098   -9017.7163    4487.7107 
  967000    311.61461   -8967.3177    46.443198   -9013.7609     4634.373 
  967200    228.96963   -8986.5087    34.125748   -9020.6345   -29330.696 
  967400    275.69857   -8976.8702    41.090254   -9017.9604    3523.6054 
  967600     287.7218   -8968.5233    42.882201   -9011.4055   -2939.0367 
  967800    405.41439    -8950.389    60.423164   -9010.8122   -12820.792 
  968000    305.20387   -8971.4859    45.487738   -9016.9737    12137.978 
  968200    309.35976   -8974.5485    46.107134   -9020.6557    19743.904 
  968400    277.84228   -8980.9252    41.409752    -9022.335    23400.264 
  968600    288.45406    -8972.148    42.991338   -9015.1394   -37438.661 
  968800     295.9897   -8967.2358    44.114453   -9011.3502   -11483.854 
  969000    250.56438   -8984.3439    37.344241   -9021.6882    4733.5975 
  969200    285.88677   -8979.5388    42.608708   -9022.1475    -2784.041 
  969400    267.56472   -8972.8926     39.87798   -9012.7706   -28969.597 
  969600    309.65869   -8966.3808    46.151686   -9012.5324    20565.835 
  969800    333.85716   -8962.3441    49.758238   -9012.1023    8528.3786 
  970000    266.52301   -8978.4201    39.722723   -9018.1429    7117.4506 
  970200    327.11674   -8971.0843    48.753643    -9019.838   -43094.398 
  970400    352.25259   -8962.5223    52.499903   -9015.0222   -4602.6605 
  970600     300.9786   -8975.5247    44.858002   -9020.3827     33421.52 
  970800    325.63615   -8970.5227    48.532975   -9019.0557   -32316.296 
  971000    306.90282   -8956.2005     45.74095   -9001.9414    34746.379 
  971200    343.85783   -8972.1224    51.248744   -9023.3711    47033.328 
  971400    279.21006   -8979.8106    41.613608   -9021.4242    51632.915 
  971600    326.43146   -8965.5494    48.651508   -9014.2009    15215.666 
  971800    287.10705   -8972.9397    42.790579   -9015.7303   -2394.3774 
  972000    327.10137   -8973.9198    48.751353   -9022.6712    -37995.61 
  972200    354.78202   -8972.8814    52.876891   -9025.7583    4137.5659 
  972400    286.41452   -8976.1844    42.687365   -9018.8718    15525.656 
  972600    327.49089   -8967.4541    48.809406   -9016.2635    -7496.549 
  972800    259.47909   -8980.6861    38.672894    -9019.359    14644.759 
  973000    329.39351   -8975.1202    49.092975   -9024.2132    6920.7154 
  973200    318.72224   -8970.4482    47.502523   -9017.9507    19458.197 
  973400    289.84594   -8973.2101    43.198785   -9016.4088   -2656.3215 
  973600     250.2303   -8986.0117    37.294449   -9023.3061   -3357.1675 
  973800    272.86018   -8971.9203    40.667218   -9012.5875    3215.7226 
  974000     291.7076   -8964.5824    43.476248   -9008.0586    2794.8354 
  974200    258.29863   -8979.8465    38.496958   -9018.3434    3097.3453 
  974400    316.65274   -8972.1541    47.194084   -9019.3482    365.60698 
  974600    359.07253   -8963.4373     53.51635   -9016.9536   -797.97227 
  974800    297.96652   -8982.6908    44.409081   -9027.0999   -13157.555 
  975000    330.81859    -8970.679    49.305369   -9019.9844    1771.1072 
  975200    300.12265   -8973.4033    44.730431   -9018.1337    48629.106 
  975400    282.31398   -8986.5157    42.076218    -9028.592   -7501.1689 
  975600    273.97942   -8972.5821     40.83403   -9013.4161   -32307.383 
  975800    278.72795   -8974.5796    41.541754   -9016.1214    13592.907 
  976000    281.85883   -8978.8444    42.008382   -9020.8528    45736.927 
  976200    314.70755   -8968.7139    46.904171   -9015.6181   -15927.713 
  976400    315.69142   -8968.3087    47.050808   -9015.3595    4382.2386 
  976600    285.82881   -8983.5511    42.600069   -9026.1512   -6309.4261 
  976800    299.94545   -8966.2497     44.70402   -9010.9538   -22682.066 
  977000    285.45052   -8974.5205    42.543689   -9017.0642    3380.6079 
  977200    283.60472   -8978.6151     42.26859   -9020.8837   -8261.0559 
  977400    334.90204   -8968.4495    49.913968   -9018.3635    8534.7593 
  977600    271.27959   -8981.2845    40.431646   -9021.7162    8194.3566 
  977800    295.15869   -8966.0515      43.9906   -9010.0421    31334.849 
  978000    263.57965   -8976.7365    39.284044   -9016.0206   -11601.521 
  978200    280.48142   -8976.1361    41.803092   -9017.9392   -12417.393 
  978400    279.34709   -8964.5153    41.634031   -9006.1494    38184.285 
  978600    281.68258    -8969.112    41.982113   -9011.0941    53582.381 
  978800    302.31015   -8978.9585    45.056456   -9024.0149    28548.097 
  979000    325.49146   -8973.7083    48.511411   -9022.2198   -12492.099 
  979200    243.83068   -8968.4608    36.340648   -9004.8015   -23684.967 
  979400    258.74284   -8985.1153    38.563163   -9023.6784   -11545.256 
  979600    284.08063    -8970.151     42.33952   -9012.4905   -19964.542 
  979800    314.42891   -8967.2511    46.862642   -9014.1138    3194.3171 
  980000     289.1291   -8982.6143    43.091946   -9025.7062    44032.218 
  980200    340.85669    -8969.686    50.801453   -9020.4874   -21908.811 
  980400    283.49768   -8978.6685    42.252637   -9020.9211   -21159.699 
  980600    278.40024   -8975.3803    41.492911   -9016.8732   -1153.4885 
  980800    267.25276   -8963.6822    39.831486   -9003.5137    29815.001 
  981000    328.01109    -8978.768    48.886938   -9027.6549   -32148.525 
  981200    253.25818   -8979.9049    37.745727   -9017.6506    4036.2229 
  981400    337.75932   -8968.1098    50.339818   -9018.4496   -8217.0603 
  981600    282.10813   -8976.1138    42.045537   -9018.1594   -4237.1445 
  981800    287.95456   -8985.2344    42.916892   -9028.1512    1473.3504 
  982000    308.82014   -8968.0589     46.02671   -9014.0856    8870.2443 
  982200    298.07474   -8973.4886    44.425209   -9017.9138   -34133.354 
  982400     284.8172   -8964.6239    42.449299   -9007.0732   -22214.682 
  982600    298.61698   -8961.5247    44.506025   -9006.0307    34018.221 
  982800    267.02958   -8978.4125    39.798223   -9018.2107   -20044.029 
  983000    282.31911   -8969.5921    42.076983   -9011.6691   -14525.646 
  983200    330.39975   -8963.4499    49.242945   -9012.6928    875.52595 
  983400    289.68472    -8982.299    43.174756   -9025.4738   -21602.447 
  983600    373.92188   -8967.6113    55.729505   -9023.3408    8977.0475 
  983800    303.02019   -8971.7618    45.162282   -9016.9241   -3343.1221 
  984000    300.85617   -8972.3788    44.839754   -9017.2185   -25454.711 
  984200    356.21021   -8958.3855    53.089749   -9011.4752   -10206.609 
  984400    311.84481   -8967.4216    46.477507   -9013.8991    8782.8899 
  984600    304.42867   -8980.3872    45.372202   -9025.7594    20995.497 
  984800    350.76761   -8967.6889    52.278581   -9019.9675   -4421.3339 
  985000    322.93737   -8973.3208    48.130748   -9021.4516    7845.7759 
  985200    295.78998   -8978.8681    44.084687   -9022.9528   -24078.113 
  985400     236.8379   -8987.5405     35.29844   -9022.8389   -7161.0151 
  985600    349.12549   -8972.2528    52.033838   -9024.2866   -7228.0836 
  985800    338.37618   -8962.9661    50.431755   -9013.3978   -18435.683 
  986000    307.79556   -8965.5874    45.874005   -9011.4614   -1207.1822 
  986200     250.4759   -8977.6313    37.331054   -9014.9623    -30249.96 
  986400    267.61092   -8973.8294    39.884865   -9013.7142    14069.924 
  986600    343.47851   -8962.6698    51.192209    -9013.862    24175.695 
  986800    324.46043   -8973.8814    48.357746   -9022.2392    18239.753 
  987000     279.7571   -8972.7505    41.695138   -9014.4456    37277.315 
  987200    350.38855   -8955.6002    52.222085   -9007.8223   -14645.722 
  987400    318.84912   -8968.4845    47.521434    -9016.006    20430.116 
  987600    267.36057    -8979.621    39.847554   -9019.4686   -26649.221 
  987800    381.56324   -8959.8453    56.868377   -9016.7137   -16948.575 
  988000    276.12637   -8979.1695    41.154013   -9020.3235   -10091.138 
  988200     239.1495   -8977.4972    35.642961   -9013.1402   -7131.8398 
  988400    363.77103   -8961.7384    54.216617    -9015.955    8895.0717 
  988600    307.33483   -8970.7654    45.805338   -9016.5707    32963.131 
  988800    282.41464   -8975.9932    42.091219   -9018.0844     8274.066 
  989000     312.8505   -8969.5906    46.627396   -9016.2179   -13456.244 
  989200    315.18301   -8959.9861    46.975034   -9006.9611   -15061.844 
  989400    295.17635   -8975.3763    43.993231   -9019.3695   -7059.2818 
  989600    333.88036   -8969.0922    49.761696   -9018.8539   -24624.678 
  989800    313.38073   -8960.7423    46.706422   -9007.4487     621.7338 
  990000    260.79273   -8972.1815     38.86868   -9011.0501    25592.431 
  990200    242.07671   -8978.5265    36.079235   -9014.6057    16952.315 
  990400    326.72826   -8977.6547    48.695744   -9026.3505    43751.365 
  990600    318.12618   -8966.1595    47.413686   -9013.5732   -19272.142 
  990800    318.74054   -8979.9474     47.50525   -9027.4527   -15175.375 
  991000    284.52411   -8976.3226    42.405617   -9018.7282   -13110.057 
  991200    329.99451   -8970.2263    49.182547   -9019.4089   -1.9010177 
  991400    340.81986   -8961.5923    50.795963   -9012.3883   -44876.527 
  991600    243.43315   -8973.3614    36.281399   -9009.6428    328.64305 
  991800      350.595   -8967.2366    52.252854   -9019.4895   -9906.7877 
  992000    319.09553   -8960.3857    47.558158   -9007.9438   -15987.712 
  992200    322.67445   -8972.2832    48.091563   -9020.3748   -13967.481 
  992400    291.51153   -8982.8509    43.447025   -9026.2979   -12397.951 
  992600    316.49595    -8980.601    47.170715   -9027.7717    14776.406 
  992800    294.22791   -8970.0864    43.851875   -9013.9383   -30217.059 
  993000    265.28265   -8977.5386     39.53786   -9017.0765    6745.1354 
  993200    242.48384   -8987.4651    36.139913   -9023.6051   -15574.661 
  993400    297.80416   -8968.4846    44.384882   -9012.8695    16416.941 
  993600    277.89304   -8976.3945    41.417318   -9017.8119   -1004.9698 
  993800    280.97205   -8973.0414    41.876215   -9014.9176    8603.9896 
  994000    311.00832   -8967.9056    46.352836   -9014.2585    18140.912 
  994200    269.05461   -8979.3048    40.100034   -9019.4049   -10650.398 
  994400    285.52556   -8968.0771    42.554872    -9010.632    13316.774 
  994600    307.64062   -8964.5681    45.850913    -9010.419    6028.5982 
  994800    292.38948   -8981.2922    43.577876   -9024.8701    3989.9038 
  995000    320.17816   -8967.6677    47.719514   -9015.3872     -3576.82 
  995200    276.82588   -8976.2658    41.258268    -9017.524     14198.79 
  995400    247.62186   -8990.5705    36.905686   -9027.4761   -32479.192 
  995600    329.42702   -8972.7532    49.097969   -9021.8511   -21334.477 
  995800    320.94831   -8970.4823    47.834297   -9018.3166   -39342.556 
  996000    394.12353   -8960.7285    58.740369   -9019.4689   -21477.367 
  996200    278.21481   -8977.5414    41.465276   -9019.0067   -22041.619 
  996400    289.84844   -8972.5286    43.199157   -9015.7278   -48717.052 
  996600    291.13805   -8964.7659    43.391361   -9008.1572   -2218.6717 
  996800    280.87216   -8973.7512    41.861328   -9015.6125   -15339.242 
  997000    279.44477   -8971.8867    41.648589   -9013.5353   -27812.974 
  997200    331.73503   -8957.8403    49.441955   -9007.2823   -14223.138 
  997400    306.16851   -8979.3797    45.631509   -9025.0113    9228.2557 
  997600    289.74996   -8968.3567    43.184479   -9011.5412   -35712.311 
  997800    296.85111   -8974.7919    44.242839   -9019.0347    9397.2502 
  998000    297.92841   -8980.5391    44.403401   -9024.9425    17838.706 
  998200    302.63187   -8969.2573    45.104406   -9014.3617   -8482.3633 
  998400    396.19833   -8949.4503    59.049598   -9008.4999    14833.341 
  998600    340.74813   -8963.7602    50.785273   -9014.5454    10478.784 
  998800    308.99629    -8974.495    46.052963   -9020.5479   -38591.959 
  999000    305.47294   -8977.4974     45.52784   -9023.0253   -15539.579 
  999200    322.77505   -8963.0239    48.106555   -9011.1304    -17350.83 
  999400    317.32249   -8973.3731    47.293904    -9020.667   -58855.786 
  999600    294.86143   -8972.2875    43.946296   -9016.2338   -14617.281 
  999800    213.84913   -8986.9281    31.872182   -9018.8003   -7375.0758 
 1000000    290.78227   -8979.3465    43.338335   -9022.6848   -19478.314 
Loop time of 9690.56 on 8 procs for 1000000 steps with 51 atoms

Performance: 2.229 ns/day, 10.767 hours/ns, 103.193 timesteps/s
98.8% CPU use with 8 MPI tasks x no OpenMP threads

MPI task timing breakdown:
Section |  min time  |  avg time  |  max time  |%varavg| %total
---------------------------------------------------------------
Pair    | 7481.6     | 7661.7     | 7772.6     | 114.9 | 79.06
Neigh   | 2.0951     | 2.1502     | 2.2089     |   2.7 |  0.02
Comm    | 165.55     | 275.77     | 454.98     | 602.8 |  2.85
Output  | 0.41276    | 0.44819    | 0.62894    |  10.2 |  0.00
Modify  | 1739.2     | 1740.2     | 1741.5     |   2.1 | 17.96
Other   |            | 10.25      |            |       |  0.11

Nlocal:    6.375 ave 9 max 6 min
Histogram: 7 0 0 0 0 0 0 0 0 1
Nghost:    608.625 ave 627 max 596 min
Histogram: 2 1 0 1 1 2 0 0 0 1
Neighs:    838.375 ave 1155 max 784 min
Histogram: 7 0 0 0 0 0 0 0 0 1

Total # of neighbors = 6707
Ave neighs/atom = 131.51
Neighbor list builds = 787
Dangerous builds = 0

Please see the log.cite file for references relevant to this simulation

Total wall time: 2:42:39
