ITEM: TIMESTEP
0
ITEM: NUMBER OF ATOMS
129
ITEM: BOX BOUNDS pp pp pp
0.0000000000000000e+00 1.8762000000000000e+01
0.0000000000000000e+00 1.8762000000000000e+01
0.0000000000000000e+00 1.8760999999999999e+01
ITEM: ATOMS id type x y z 
1 1 3.12 3.119 3.121 
10 1 5.595 5.596 5.595 
17 1 4.011 4.011 4.012 
26 1 4.704 4.704 4.704 
33 1 0.414 3.456 3.456 
41 1 3.456 0.413 3.456 
49 1 3.456 3.456 0.414 
58 1 8.301 5.259 5.259 
66 1 5.259 8.301 5.259 
74 1 5.259 5.259 8.301 
81 1 1.612 3.354 3.354 
89 1 3.353 1.612 3.354 
97 1 3.354 3.354 1.613 
106 1 7.103 5.361 5.361 
114 1 5.362 7.103 5.361 
122 1 5.361 5.361 7.103 
4 1 3.12 3.12 14.976 
11 1 5.595 5.595 12.5 
20 1 4.011 4.011 14.084 
27 1 4.704 4.704 13.392 
36 1 0.414 3.456 14.639 
46 1 3.456 0.414 14.639 
56 1 3.456 3.456 17.682 
59 1 8.301 5.259 12.837 
69 1 5.259 8.301 12.837 
79 1 5.259 5.259 9.794 
84 1 1.612 3.354 14.742 
94 1 3.354 1.612 14.742 
104 1 3.354 3.354 16.483 
107 1 7.103 5.361 12.735 
117 1 5.361 7.103 12.735 
127 1 5.361 5.361 10.993 
6 1 3.12 14.976 3.12 
13 1 5.595 12.501 5.596 
22 1 4.011 14.085 4.011 
29 1 4.704 13.392 4.705 
38 1 0.414 14.64 3.457 
48 1 3.456 17.682 3.456 
52 1 3.456 14.64 0.414 
61 1 8.301 12.837 5.259 
71 1 5.259 9.794 5.259 
75 1 5.259 12.837 8.301 
86 1 1.612 14.742 3.354 
96 1 3.354 16.483 3.354 
100 1 3.354 14.742 1.612 
109 1 7.103 12.735 5.361 
119 1 5.361 10.993 5.361 
123 1 5.361 12.735 7.103 
7 1 3.12 14.976 14.976 
16 1 5.595 12.501 12.5 
23 1 4.011 14.085 14.084 
32 1 4.704 13.392 13.391 
39 1 0.414 14.64 14.639 
43 1 3.456 17.682 14.639 
53 1 3.456 14.64 17.682 
64 1 8.302 12.837 12.837 
68 1 5.259 9.795 12.837 
78 1 5.259 12.837 9.794 
87 1 1.612 14.742 14.741 
91 1 3.354 16.483 14.741 
101 1 3.353 14.742 16.483 
112 1 7.103 12.735 12.735 
116 1 5.361 10.993 12.735 
126 1 5.361 12.735 10.993 
8 1 14.976 3.12 3.12 
15 1 12.501 5.595 5.595 
24 1 14.084 4.011 4.011 
31 1 13.392 4.704 4.704 
40 1 17.682 3.456 3.456 
44 1 14.64 0.414 3.457 
54 1 14.64 3.456 0.414 
63 1 9.795 5.259 5.259 
67 1 12.837 8.301 5.259 
77 1 12.837 5.259 8.301 
88 1 16.483 3.354 3.354 
92 1 14.742 1.612 3.354 
102 1 14.742 3.354 1.612 
111 1 10.993 5.361 5.361 
115 1 12.735 7.103 5.361 
125 1 12.735 5.361 7.103 
5 1 14.976 3.119 14.975 
14 1 12.501 5.596 12.501 
21 1 14.085 4.011 14.084 
30 1 13.392 4.703 13.392 
37 1 17.682 3.456 14.639 
47 1 14.64 0.413 14.639 
51 1 14.64 3.456 17.682 
62 1 9.794 5.259 12.837 
72 1 12.837 8.301 12.837 
76 1 12.837 5.259 9.795 
85 1 16.483 3.354 14.741 
95 1 14.742 1.612 14.741 
99 1 14.742 3.354 16.483 
110 1 10.993 5.361 12.735 
120 1 12.734 7.103 12.735 
124 1 12.735 5.361 10.993 
3 1 14.976 14.976 3.12 
12 1 12.501 12.501 5.595 
19 1 14.085 14.085 4.011 
28 1 13.392 13.392 4.704 
35 1 17.682 14.64 3.457 
45 1 14.64 17.682 3.457 
55 1 14.64 14.64 0.414 
60 1 9.794 12.837 5.259 
70 1 12.837 9.794 5.259 
80 1 12.837 12.837 8.301 
83 1 16.484 14.742 3.354 
93 1 14.742 16.483 3.354 
103 1 14.742 14.742 1.613 
108 1 10.993 12.735 5.361 
118 1 12.734 10.993 5.361 
128 1 12.734 12.734 7.103 
2 1 14.976 14.976 14.975 
9 1 12.501 12.501 12.501 
18 1 14.084 14.085 14.084 
25 1 13.391 13.393 13.392 
34 1 17.682 14.64 14.639 
42 1 14.64 17.682 14.639 
50 1 14.64 14.64 17.682 
57 1 9.795 12.837 12.837 
65 1 12.837 9.794 12.837 
73 1 12.837 12.837 9.794 
82 1 16.483 14.742 14.741 
90 1 14.742 16.483 14.741 
98 1 14.742 14.742 16.483 
105 1 10.993 12.734 12.734 
113 1 12.735 10.993 12.735 
121 1 12.735 12.734 10.993 
129 2 11.124 12.142 13.661 
ITEM: TIMESTEP
10
ITEM: NUMBER OF ATOMS
129
ITEM: BOX BOUNDS pp pp pp
0.0000000000000000e+00 1.8762000000000000e+01
0.0000000000000000e+00 1.8762000000000000e+01
0.0000000000000000e+00 1.8760999999999999e+01
ITEM: ATOMS id type x y z 
1 1 3.10973 3.10921 3.11051 
10 1 5.60533 5.6057 5.6051 
17 1 4.01331 4.01338 4.01419 
26 1 4.70138 4.70138 4.70148 
33 1 0.418614 3.45458 3.45449 
41 1 3.45441 0.417371 3.45473 
49 1 3.45454 3.45463 0.418908 
58 1 8.29621 5.26032 5.26037 
66 1 5.26052 8.29662 5.2602 
74 1 5.26034 5.26029 8.2965 
81 1 1.60701 3.3552 3.35559 
89 1 3.35449 1.60783 3.35546 
97 1 3.35543 3.35539 1.6085 
106 1 7.10712 5.3597 5.35947 
114 1 5.36037 7.10678 5.35968 
122 1 5.35952 5.35969 7.10678 
4 1 3.10988 3.10989 14.9859 
11 1 5.60517 5.60428 12.4903 
20 1 4.01304 4.01301 14.0824 
27 1 4.7019 4.70182 13.3936 
36 1 0.417665 3.45468 14.6406 
46 1 3.45472 0.417494 14.6405 
56 1 3.45463 3.45464 17.6777 
59 1 8.29661 5.26038 12.8358 
69 1 5.26039 8.29652 12.8359 
79 1 5.26028 5.26033 9.79878 
84 1 1.60773 3.35526 14.7404 
94 1 3.35522 1.60833 14.7404 
104 1 3.35545 3.35545 16.4875 
107 1 7.10685 5.35971 12.7364 
117 1 5.35966 7.1065 12.7363 
127 1 5.3595 5.35962 10.9889 
6 1 3.10974 14.986 3.1099 
13 1 5.60505 12.4908 5.6047 
22 1 4.01349 14.0825 4.01361 
29 1 4.70142 13.3946 4.70226 
38 1 0.418399 14.6413 3.45548 
48 1 3.45468 17.6777 3.45463 
52 1 3.45471 14.6414 0.418335 
61 1 8.29761 12.8357 5.2603 
71 1 5.26027 9.79875 5.26032 
75 1 5.26033 12.8359 8.29577 
86 1 1.60757 14.7407 3.35557 
96 1 3.35542 16.4874 3.35539 
100 1 3.35537 14.7406 1.60815 
109 1 7.10669 12.7365 5.35989 
119 1 5.35942 10.9886 5.35963 
123 1 5.35979 12.7365 7.10671 
7 1 3.10926 14.9867 14.9864 
16 1 5.60941 12.4926 12.4919 
23 1 4.01408 14.0813 14.0806 
32 1 4.69766 13.3975 13.3966 
39 1 0.417417 14.6414 14.6403 
43 1 3.45453 17.6774 14.6403 
53 1 3.45438 14.6412 17.6768 
64 1 8.29377 12.8486 12.8358 
68 1 5.25995 9.80052 12.8353 
78 1 5.25984 12.8353 9.80004 
87 1 1.608 14.7407 14.7398 
91 1 3.35531 16.4877 14.7396 
101 1 3.35455 14.7406 16.4874 
112 1 7.08337 12.7331 12.7372 
116 1 5.35796 10.9863 12.7354 
126 1 5.35772 12.7355 10.9859 
8 1 14.9855 3.10983 3.11002 
15 1 12.4906 5.60497 5.60527 
24 1 14.0821 4.0132 4.01326 
31 1 13.3941 4.70151 4.70158 
40 1 17.6779 3.45459 3.45456 
44 1 14.6413 0.417658 3.4555 
54 1 14.6413 3.45469 0.417654 
63 1 9.7999 5.26037 5.26037 
67 1 12.8357 8.2971 5.26031 
77 1 12.8356 5.26037 8.29664 
88 1 16.4886 3.35561 3.3556 
92 1 14.7406 1.60824 3.35543 
102 1 14.7406 3.35522 1.60835 
111 1 10.9889 5.35955 5.35958 
115 1 12.7365 7.10664 5.35961 
125 1 12.7365 5.35956 7.10724 
5 1 14.9864 3.11023 14.9848 
14 1 12.4907 5.60481 12.4907 
21 1 14.0821 4.01352 14.0815 
30 1 13.3947 4.7007 13.3943 
37 1 17.6764 3.45447 14.6405 
47 1 14.6414 0.416331 14.6403 
51 1 14.6415 3.45457 17.6765 
62 1 9.80004 5.26045 12.8355 
72 1 12.8358 8.30341 12.8354 
76 1 12.8356 5.26046 9.80033 
85 1 16.4892 3.35547 14.7393 
95 1 14.7404 1.60651 14.7394 
99 1 14.7403 3.35555 16.4888 
110 1 10.9878 5.3595 12.7366 
120 1 12.7359 7.10812 12.7361 
124 1 12.7365 5.35985 10.9886 
3 1 14.986 14.9861 3.10995 
12 1 12.4906 12.4906 5.60554 
19 1 14.0827 14.0826 4.01355 
28 1 13.3942 13.394 4.70182 
35 1 17.6777 14.6413 3.45548 
45 1 14.6413 17.678 3.45552 
55 1 14.6414 14.6413 0.417987 
60 1 9.79932 12.8356 5.26048 
70 1 12.8354 9.79958 5.26035 
80 1 12.8356 12.835 8.29978 
83 1 16.4884 14.7407 3.35556 
93 1 14.7407 16.4874 3.35562 
103 1 14.7406 14.7406 1.60846 
108 1 10.9882 12.7365 5.35966 
118 1 12.7358 10.9887 5.35982 
128 1 12.7357 12.7355 7.10974 
2 1 14.9846 14.9852 14.9833 
9 1 12.5258 12.4863 12.4725 
18 1 14.0783 14.0808 14.08 
25 1 13.3965 13.3933 13.3929 
34 1 17.6762 14.6416 14.6406 
42 1 14.6416 17.6761 14.6406 
50 1 14.6414 14.6414 17.6776 
57 1 9.72938 12.8517 12.7661 
65 1 12.8331 9.78969 12.8379 
73 1 12.8328 12.837 9.79657 
82 1 16.4892 14.7405 14.7396 
90 1 14.7406 16.4886 14.7394 
98 1 14.7407 14.7405 16.4872 
105 1 10.9751 12.7521 12.7859 
113 1 12.7389 10.9906 12.7351 
121 1 12.7391 12.7345 10.9879 
129 2 11.2056 12.1096 13.6986 
ITEM: TIMESTEP
20
ITEM: NUMBER OF ATOMS
129
ITEM: BOX BOUNDS pp pp pp
0.0000000000000000e+00 1.8762000000000000e+01
0.0000000000000000e+00 1.8762000000000000e+01
0.0000000000000000e+00 1.8760999999999999e+01
ITEM: ATOMS id type x y z 
1 1 3.10739 3.10708 3.10828 
10 1 5.60741 5.60749 5.60718 
17 1 4.01305 4.01281 4.01334 
26 1 4.7016 4.70194 4.70227 
33 1 0.416784 3.45414 3.4541 
41 1 3.45381 0.416191 3.45425 
49 1 3.45406 3.45416 0.417321 
58 1 8.29859 5.26082 5.26081 
66 1 5.26108 8.29826 5.26064 
74 1 5.2608 5.26077 8.29821 
81 1 1.60671 3.35473 3.35514 
89 1 3.35425 1.60623 3.35507 
97 1 3.35504 3.35495 1.60727 
106 1 7.10866 5.36006 5.35983 
114 1 5.36062 7.10838 5.36001 
122 1 5.3599 5.36003 7.10827 
4 1 3.10739 3.10747 14.9882 
11 1 5.6071 5.60587 12.4882 
20 1 4.01292 4.01286 14.0828 
27 1 4.70184 4.70142 13.3936 
36 1 0.416705 3.45415 14.6412 
46 1 3.45413 0.416588 14.6411 
56 1 3.4541 3.45412 17.6788 
59 1 8.29858 5.26095 12.8354 
69 1 5.26081 8.29607 12.8357 
79 1 5.26068 5.26084 9.79682 
84 1 1.60636 3.35487 14.7407 
94 1 3.35488 1.60634 14.7407 
104 1 3.35505 3.35504 16.489 
107 1 7.10854 5.35993 12.7361 
117 1 5.36013 7.10678 12.736 
127 1 5.35977 5.35985 10.9872 
6 1 3.10762 14.9882 3.1076 
13 1 5.60748 12.4884 5.60599 
22 1 4.01275 14.0831 4.0135 
29 1 4.70187 13.3941 4.70196 
38 1 0.416655 14.6418 3.45495 
48 1 3.45418 17.679 3.45414 
52 1 3.4542 14.6418 0.416668 
61 1 8.29847 12.8354 5.26095 
71 1 5.26066 9.79704 5.26086 
75 1 5.26073 12.8358 8.29573 
86 1 1.60658 14.7411 3.35526 
96 1 3.35506 16.489 3.35501 
100 1 3.35502 14.741 1.60675 
109 1 7.10842 12.7362 5.36011 
119 1 5.35971 10.9873 5.35997 
123 1 5.36027 12.7361 7.10658 
7 1 3.10636 14.9893 14.9888 
16 1 5.59885 12.4883 12.4888 
23 1 4.0124 14.0827 14.0819 
32 1 4.6979 13.3953 13.3945 
39 1 0.416327 14.6419 14.6409 
43 1 3.45409 17.6793 14.6408 
53 1 3.45386 14.6417 17.6787 
64 1 8.30784 12.8545 12.8288 
68 1 5.25951 9.80076 12.8343 
78 1 5.25932 12.8343 9.79992 
87 1 1.60616 14.7412 14.7403 
91 1 3.35485 16.4894 14.7401 
101 1 3.3542 14.7412 16.4889 
112 1 7.09299 12.7363 12.7402 
116 1 5.357 10.9886 12.7331 
126 1 5.35685 12.7332 10.9883 
8 1 14.9883 3.10739 3.10748 
15 1 12.4887 5.60728 5.60734 
24 1 14.0826 4.0129 4.01306 
31 1 13.3937 4.7018 4.70193 
40 1 17.6789 3.45414 3.45408 
44 1 14.6418 0.416658 3.45486 
54 1 14.6418 3.45415 0.417209 
63 1 9.79751 5.26081 5.26085 
67 1 12.8352 8.29829 5.26086 
77 1 12.8352 5.26087 8.29863 
88 1 16.4891 3.35511 3.35512 
92 1 14.741 1.60641 3.35514 
102 1 14.7409 3.3548 1.60699 
111 1 10.9875 5.35989 5.35998 
115 1 12.7361 7.10854 5.35995 
125 1 12.736 5.35993 7.10864 
5 1 14.9887 3.10671 14.9879 
14 1 12.4889 5.60992 12.4896 
21 1 14.0826 4.01289 14.0817 
30 1 13.3937 4.70205 13.3935 
37 1 17.6787 3.45407 14.6409 
47 1 14.6419 0.416485 14.6409 
51 1 14.6419 3.45414 17.678 
62 1 9.79809 5.26079 12.835 
72 1 12.8349 8.29941 12.8349 
76 1 12.835 5.2609 9.79834 
85 1 16.4887 3.35483 14.74 
95 1 14.7411 1.6063 14.7399 
99 1 14.7411 3.35499 16.4881 
110 1 10.9884 5.36002 12.7354 
120 1 12.7355 7.1081 12.735 
124 1 12.7354 5.36023 10.9884 
3 1 14.9885 14.9883 3.10779 
12 1 12.4886 12.4889 5.6107 
19 1 14.0824 14.0823 4.01329 
28 1 13.3941 13.394 4.70244 
35 1 17.6791 14.6418 3.45492 
45 1 14.6418 17.6791 3.45492 
55 1 14.6419 14.6419 0.417197 
60 1 9.79828 12.835 5.26085 
70 1 12.8348 9.79825 5.26079 
80 1 12.8346 12.8346 8.30073 
83 1 16.4894 14.7411 3.35523 
93 1 14.741 16.4893 3.35533 
103 1 14.741 14.741 1.60679 
108 1 10.9882 12.7358 5.36023 
118 1 12.7352 10.9881 5.36037 
128 1 12.7352 12.7345 7.10913 
2 1 14.9867 14.9871 14.986 
9 1 12.5688 12.4787 12.4515 
18 1 14.0781 14.0806 14.0808 
25 1 13.3957 13.3881 13.386 
34 1 17.6785 14.6421 14.641 
42 1 14.642 17.678 14.6409 
50 1 14.642 14.642 17.6783 
57 1 9.71017 12.8419 12.7475 
65 1 12.8307 9.79521 12.8383 
73 1 12.8315 12.8376 9.79076 
82 1 16.4881 14.7413 14.7401 
90 1 14.7413 16.4875 14.7401 
98 1 14.7411 14.7411 16.4875 
105 1 10.9407 12.7628 12.8246 
113 1 12.7416 10.9923 12.731 
121 1 12.7401 12.7329 10.9903 
129 2 11.21 12.1058 13.7112 
ITEM: TIMESTEP
30
ITEM: NUMBER OF ATOMS
129
ITEM: BOX BOUNDS pp pp pp
0.0000000000000000e+00 1.8762000000000000e+01
0.0000000000000000e+00 1.8762000000000000e+01
0.0000000000000000e+00 1.8760999999999999e+01
ITEM: ATOMS id type x y z 
1 1 3.1067 3.10687 3.10772 
10 1 5.60752 5.60772 5.60751 
17 1 4.01301 4.01287 4.01329 
26 1 4.70202 4.70161 4.70204 
33 1 0.416109 3.45323 3.4533 
41 1 3.45289 0.415658 3.45342 
49 1 3.45326 3.4533 0.416706 
58 1 8.29945 5.26171 5.2616 
66 1 5.26194 8.29886 5.26148 
74 1 5.26157 5.26163 8.29885 
81 1 1.60604 3.35335 3.35374 
89 1 3.35302 1.60565 3.35371 
97 1 3.35359 3.35349 1.60663 
106 1 7.10957 5.36137 5.36123 
114 1 5.36188 7.10897 5.36134 
122 1 5.36136 5.36137 7.10897 
4 1 3.1066 3.10711 14.9887 
11 1 5.60831 5.6064 12.4878 
20 1 4.01318 4.0124 14.0827 
27 1 4.70157 4.70099 13.3934 
36 1 0.416117 3.45328 14.6421 
46 1 3.45331 0.416073 14.642 
56 1 3.45329 3.45332 17.6796 
59 1 8.29905 5.26197 12.8346 
69 1 5.26152 8.29448 12.8352 
79 1 5.26136 5.2618 9.79623 
84 1 1.60586 3.35347 14.7421 
94 1 3.35342 1.6061 14.7421 
104 1 3.35356 3.35359 16.4897 
107 1 7.10898 5.36113 12.7347 
117 1 5.36195 7.10494 12.7348 
127 1 5.36121 5.36103 10.9868 
6 1 3.10689 14.9888 3.10742 
13 1 5.60811 12.4876 5.60623 
22 1 4.01291 14.0829 4.01294 
29 1 4.70188 13.3941 4.70142 
38 1 0.415753 14.6426 3.454 
48 1 3.45334 17.6797 3.45335 
52 1 3.45338 14.6426 0.416294 
61 1 8.29902 12.8348 5.262 
71 1 5.26131 9.79637 5.26181 
75 1 5.26145 12.8353 8.29443 
86 1 1.60555 14.7424 3.35402 
96 1 3.35368 16.4898 3.35359 
100 1 3.35364 14.7424 1.60628 
109 1 7.10877 12.7348 5.36119 
119 1 5.36112 10.9869 5.36105 
123 1 5.36202 12.735 7.10511 
7 1 3.1044 14.9914 14.9906 
16 1 5.58681 12.4861 12.4876 
23 1 4.00904 14.0842 14.0833 
32 1 4.69169 13.3956 13.3956 
39 1 0.414554 14.6427 14.6417 
43 1 3.45341 17.6806 14.6415 
53 1 3.4531 14.6424 17.6798 
64 1 8.29433 12.8539 12.8053 
68 1 5.25842 9.7991 12.8321 
78 1 5.2584 12.8321 9.79951 
87 1 1.60451 14.7428 14.7419 
91 1 3.35319 16.4906 14.7418 
101 1 3.35272 14.7428 16.4899 
112 1 7.07919 12.7425 12.74 
116 1 5.35317 10.9881 12.729 
126 1 5.35308 12.7288 10.9883 
8 1 14.9887 3.10691 3.10687 
15 1 12.4881 5.60757 5.60763 
24 1 14.0828 4.01302 4.01323 
31 1 13.394 4.70177 4.70211 
40 1 17.6794 3.45334 3.45323 
44 1 14.6426 0.415953 3.45386 
54 1 14.6427 3.45325 0.41668 
63 1 9.79687 5.26166 5.2617 
67 1 12.8344 8.29883 5.26173 
77 1 12.8343 5.26181 8.29913 
88 1 16.4894 3.35358 3.35361 
92 1 14.7424 1.60592 3.35385 
102 1 14.7424 3.35336 1.60661 
111 1 10.9868 5.36132 5.36141 
115 1 12.7348 7.10912 5.36144 
125 1 12.7347 5.36137 7.10965 
5 1 14.989 3.10584 14.9882 
14 1 12.4893 5.61491 12.4892 
21 1 14.0825 4.01288 14.082 
30 1 13.394 4.70246 13.3937 
37 1 17.679 3.45325 14.6418 
47 1 14.6429 0.416001 14.6418 
51 1 14.6428 3.45335 17.6783 
62 1 9.79807 5.26131 12.8337 
72 1 12.8323 8.29879 12.8349 
76 1 12.8337 5.26148 9.7982 
85 1 16.4889 3.35316 14.7416 
95 1 14.7426 1.60629 14.7415 
99 1 14.7427 3.35332 16.488 
110 1 10.9885 5.36222 12.734 
120 1 12.7339 7.10756 12.7323 
124 1 12.7339 5.36239 10.9885 
3 1 14.9887 14.9886 3.10716 
12 1 12.4899 12.4899 5.61523 
19 1 14.0824 14.0824 4.0135 
28 1 13.3946 13.3945 4.70253 
35 1 17.6796 14.6427 3.45391 
45 1 14.6427 17.6795 3.45392 
55 1 14.6429 14.6428 0.4159 
60 1 9.79776 12.8338 5.26116 
70 1 12.8334 9.79771 5.2612 
80 1 12.833 12.8347 8.29668 
83 1 16.4897 14.7426 3.35388 
93 1 14.7426 16.4896 3.35396 
103 1 14.7424 14.7424 1.60576 
108 1 10.9884 12.7343 5.36259 
118 1 12.7339 10.9878 5.36264 
128 1 12.7329 12.7312 7.10272 
2 1 14.9856 14.987 14.9861 
9 1 12.58 12.4727 12.4456 
18 1 14.0768 14.0804 14.0813 
25 1 13.4079 13.3842 13.3779 
34 1 17.678 14.6433 14.6421 
42 1 14.6432 17.6775 14.6419 
50 1 14.6432 14.6432 17.6784 
57 1 9.71322 12.8623 12.7276 
65 1 12.8263 9.79699 12.8383 
73 1 12.8273 12.84 9.78725 
82 1 16.488 14.7422 14.7413 
90 1 14.7421 16.4875 14.7413 
98 1 14.7422 14.7422 16.4882 
105 1 10.9339 12.7468 12.875 
113 1 12.7522 10.9946 12.7204 
121 1 12.7475 12.7291 10.9869 
129 2 11.2484 12.1002 13.7383 
ITEM: TIMESTEP
40
ITEM: NUMBER OF ATOMS
129
ITEM: BOX BOUNDS pp pp pp
0.0000000000000000e+00 1.8762000000000000e+01
0.0000000000000000e+00 1.8762000000000000e+01
0.0000000000000000e+00 1.8760999999999999e+01
ITEM: ATOMS id type x y z 
1 1 3.10669 3.10636 3.10726 
10 1 5.60868 5.6083 5.60828 
17 1 4.01307 4.01297 4.01341 
26 1 4.70167 4.70163 4.70186 
33 1 0.416494 3.45275 3.45284 
41 1 3.45246 0.41676 3.45296 
49 1 3.45285 3.45285 0.417664 
58 1 8.2979 5.26214 5.26205 
66 1 5.26236 8.29758 5.26198 
74 1 5.26198 5.26209 8.29748 
81 1 1.60672 3.35264 3.35302 
89 1 3.35225 1.60686 3.35301 
97 1 3.35275 3.35275 1.60785 
106 1 7.10761 5.36224 5.36209 
114 1 5.36268 7.10731 5.36215 
122 1 5.36221 5.36223 7.10715 
4 1 3.10655 3.10644 14.9892 
11 1 5.60828 5.60499 12.4872 
20 1 4.01241 4.01264 14.0824 
27 1 4.70216 4.70037 13.3939 
36 1 0.41628 3.4528 14.6426 
46 1 3.45293 0.41746 14.6424 
56 1 3.45287 3.4529 17.6787 
59 1 8.29894 5.26231 12.8341 
69 1 5.26195 8.29654 12.8345 
79 1 5.26171 5.26221 9.79726 
84 1 1.60627 3.35279 14.7428 
94 1 3.35256 1.60777 14.7429 
104 1 3.35273 3.35284 16.4885 
107 1 7.10896 5.36176 12.7343 
117 1 5.36263 7.10689 12.7347 
127 1 5.36177 5.36164 10.9875 
6 1 3.10634 14.9894 3.10684 
13 1 5.60832 12.4874 5.60496 
22 1 4.01285 14.0829 4.01273 
29 1 4.70177 13.394 4.70094 
38 1 0.416603 14.6431 3.45353 
48 1 3.45292 17.6787 3.45292 
52 1 3.453 14.643 0.417708 
61 1 8.29854 12.8343 5.26227 
71 1 5.2617 9.79715 5.26219 
75 1 5.26196 12.8347 8.29667 
86 1 1.60678 14.7432 3.35329 
96 1 3.35284 16.4886 3.35285 
100 1 3.35278 14.7432 1.60804 
109 1 7.10846 12.7344 5.36181 
119 1 5.36163 10.9874 5.36163 
123 1 5.36259 12.7349 7.10725 
7 1 3.10323 14.9926 14.9917 
16 1 5.58548 12.4875 12.4892 
23 1 4.00717 14.0855 14.0848 
32 1 4.68739 13.3953 13.3954 
39 1 0.414411 14.6431 14.6421 
43 1 3.45317 17.6802 14.6418 
53 1 3.45284 14.6427 17.6794 
64 1 8.28719 12.858 12.7938 
68 1 5.25798 9.79523 12.8308 
78 1 5.25805 12.8307 9.79639 
87 1 1.60461 14.7437 14.7428 
91 1 3.35224 16.49 14.7427 
101 1 3.35182 14.7437 16.4892 
112 1 7.07475 12.7449 12.7374 
116 1 5.35026 10.9833 12.7279 
126 1 5.35011 12.7275 10.9841 
8 1 14.989 3.10666 3.1071 
15 1 12.4877 5.60812 5.60855 
24 1 14.0826 4.01301 4.01325 
31 1 13.394 4.70166 4.70183 
40 1 17.6789 3.45286 3.45278 
44 1 14.6431 0.416699 3.45337 
54 1 14.6432 3.45274 0.416466 
63 1 9.79831 5.2621 5.26211 
67 1 12.8338 8.29759 5.26206 
77 1 12.8338 5.26222 8.29853 
88 1 16.4887 3.35289 3.35283 
92 1 14.7431 1.60672 3.35311 
102 1 14.743 3.35271 1.60664 
111 1 10.9887 5.36219 5.36226 
115 1 12.734 7.10761 5.36229 
125 1 12.7339 5.36223 7.10817 
5 1 14.9885 3.10653 14.9877 
14 1 12.4889 5.61193 12.4887 
21 1 14.0823 4.01306 14.0818 
30 1 13.3946 4.70286 13.3943 
37 1 17.6789 3.45275 14.6423 
47 1 14.6435 0.414852 14.6423 
51 1 14.6433 3.45284 17.6785 
62 1 9.799 5.26182 12.8331 
72 1 12.8301 8.30608 12.8347 
76 1 12.8331 5.2619 9.79902 
85 1 16.489 3.35249 14.7422 
95 1 14.7431 1.60495 14.7421 
99 1 14.7432 3.35265 16.4884 
110 1 10.9884 5.36324 12.7336 
120 1 12.7337 7.11471 12.7329 
124 1 12.7335 5.36345 10.9885 
3 1 14.9891 14.989 3.10651 
12 1 12.4892 12.4889 5.61147 
19 1 14.0828 14.0826 4.01319 
28 1 13.3954 13.3953 4.70255 
35 1 17.6786 14.6432 3.45347 
45 1 14.6432 17.6787 3.45345 
55 1 14.6434 14.6434 0.416501 
60 1 9.79855 12.8335 5.26174 
70 1 12.833 9.79845 5.26171 
80 1 12.8315 12.8347 8.30097 
83 1 16.4884 14.7433 3.35306 
93 1 14.7433 16.4886 3.35316 
103 1 14.7432 14.7431 1.60668 
108 1 10.9877 12.734 5.3633 
118 1 12.7337 10.9874 5.36337 
128 1 12.7329 12.7315 7.10802 
2 1 14.9846 14.9859 14.986 
9 1 12.5761 12.4788 12.4505 
18 1 14.0784 14.081 14.0814 
25 1 13.4126 13.3816 13.3736 
34 1 17.6765 14.6437 14.6426 
42 1 14.6438 17.678 14.6425 
50 1 14.6437 14.6436 17.6774 
57 1 9.71706 12.8688 12.7166 
65 1 12.8277 9.79094 12.8355 
73 1 12.8275 12.8398 9.77876 
82 1 16.4864 14.7428 14.7418 
90 1 14.7424 16.4885 14.7418 
98 1 14.7425 14.7429 16.4872 
105 1 10.9334 12.7337 12.8967 
113 1 12.755 10.9868 12.7178 
121 1 12.7485 12.7295 10.979 
129 2 11.2706 12.0974 13.7551 
ITEM: TIMESTEP
50
ITEM: NUMBER OF ATOMS
129
ITEM: BOX BOUNDS pp pp pp
0.0000000000000000e+00 1.8762000000000000e+01
0.0000000000000000e+00 1.8762000000000000e+01
0.0000000000000000e+00 1.8760999999999999e+01
ITEM: ATOMS id type x y z 
1 1 3.10661 3.10654 3.1073 
10 1 5.60848 5.60805 5.608 
17 1 4.01303 4.01293 4.01341 
26 1 4.70174 4.7016 4.70182 
33 1 0.416338 3.4522 3.4523 
41 1 3.45195 0.416418 3.45245 
49 1 3.45231 3.45231 0.417487 
58 1 8.29838 5.26268 5.26259 
66 1 5.26285 8.29793 5.26254 
74 1 5.26248 5.26265 8.29787 
81 1 1.60646 3.35211 3.3525 
89 1 3.35174 1.60683 3.35247 
97 1 3.35223 3.3522 1.60747 
106 1 7.10816 5.3627 5.36258 
114 1 5.36316 7.10757 5.36264 
122 1 5.36272 5.36271 7.10754 
4 1 3.1063 3.1069 14.9891 
11 1 5.60849 5.60475 12.4873 
20 1 4.01281 4.01221 14.0824 
27 1 4.70187 4.70052 13.3938 
36 1 0.41571 3.45228 14.6431 
46 1 3.45251 0.417639 14.6428 
56 1 3.45234 3.45235 17.679 
59 1 8.2998 5.26284 12.8336 
69 1 5.26239 8.29541 12.834 
79 1 5.26217 5.26274 9.79673 
84 1 1.60615 3.35227 14.7433 
94 1 3.35201 1.60781 14.7434 
104 1 3.35224 3.35235 16.4891 
107 1 7.10958 5.36205 12.7338 
117 1 5.36346 7.10591 12.7344 
127 1 5.36227 5.36199 10.9871 
6 1 3.10626 14.9894 3.10716 
13 1 5.60814 12.4875 5.60493 
22 1 4.01288 14.0828 4.01258 
29 1 4.70187 13.3938 4.70062 
38 1 0.416205 14.6436 3.45299 
48 1 3.4524 17.6793 3.45241 
52 1 3.45257 14.6434 0.417834 
61 1 8.299 12.8338 5.26271 
71 1 5.26217 9.79648 5.26267 
75 1 5.26245 12.8342 8.29613 
86 1 1.60628 14.7437 3.35283 
96 1 3.35231 16.4889 3.35237 
100 1 3.35221 14.7438 1.60812 
109 1 7.10852 12.7338 5.36213 
119 1 5.36213 10.9873 5.36197 
123 1 5.36338 12.7346 7.10659 
7 1 3.1022 14.9936 14.9926 
16 1 5.58126 12.4866 12.4886 
23 1 4.0054 14.0854 14.0847 
32 1 4.68463 13.3948 13.3953 
39 1 0.413264 14.6436 14.6426 
43 1 3.45282 17.6811 14.6422 
53 1 3.4525 14.6431 17.6802 
64 1 8.28944 12.8629 12.7818 
68 1 5.25691 9.79474 12.8292 
78 1 5.25701 12.8289 9.79645 
87 1 1.60319 14.7445 14.7436 
91 1 3.3515 16.4909 14.7435 
101 1 3.35111 14.7445 16.49 
112 1 7.0751 12.749 12.7331 
116 1 5.34816 10.984 12.7263 
126 1 5.34787 12.7255 10.9853 
8 1 14.9889 3.10665 3.10699 
15 1 12.4877 5.60776 5.60845 
24 1 14.0827 4.01302 4.01321 
31 1 13.3941 4.70163 4.70193 
40 1 17.679 3.4523 3.45223 
44 1 14.6437 0.416393 3.4528 
54 1 14.6438 3.45216 0.416425 
63 1 9.79801 5.26268 5.26265 
67 1 12.8332 8.29796 5.26252 
77 1 12.8331 5.26278 8.299 
88 1 16.4889 3.35231 3.35226 
92 1 14.7437 1.6066 3.35256 
102 1 14.7436 3.35217 1.60638 
111 1 10.9883 5.36269 5.36279 
115 1 12.7334 7.10756 5.36282 
125 1 12.7334 5.3627 7.10897 
5 1 14.9884 3.10629 14.9877 
14 1 12.4895 5.61351 12.489 
21 1 14.0818 4.01368 14.0813 
30 1 13.3949 4.70305 13.3946 
37 1 17.6789 3.45218 14.6429 
47 1 14.6442 0.415039 14.643 
51 1 14.644 3.45222 17.6782 
62 1 9.79954 5.26254 12.8324 
72 1 12.829 8.30675 12.8342 
76 1 12.8324 5.26257 9.79895 
85 1 16.4886 3.35185 14.7428 
95 1 14.7437 1.60502 14.7426 
99 1 14.7438 3.35204 16.4885 
110 1 10.9882 5.36403 12.7328 
120 1 12.7319 7.11368 12.7329 
124 1 12.7328 5.36427 10.9884 
3 1 14.9891 14.9892 3.10627 
12 1 12.4896 12.4891 5.61151 
19 1 14.0832 14.0831 4.01296 
28 1 13.3953 13.3951 4.70306 
35 1 17.6787 14.6437 3.45292 
45 1 14.6438 17.6791 3.4529 
55 1 14.644 14.644 0.415943 
60 1 9.79777 12.8331 5.26237 
70 1 12.8326 9.79754 5.26232 
80 1 12.8304 12.8345 8.29961 
83 1 16.4887 14.7438 3.35249 
93 1 14.7438 16.489 3.35258 
103 1 14.7437 14.7437 1.60609 
108 1 10.9879 12.7334 5.3638 
118 1 12.7331 10.9874 5.36381 
128 1 12.7319 12.7314 7.10749 
2 1 14.9832 14.9853 14.9852 
9 1 12.5754 12.4805 12.4493 
18 1 14.0791 14.0791 14.0793 
25 1 13.4167 13.3803 13.3695 
34 1 17.6757 14.6443 14.6431 
42 1 14.6444 17.6776 14.6432 
50 1 14.6443 14.6442 17.6771 
57 1 9.71777 12.8724 12.7081 
65 1 12.8293 9.79178 12.8327 
73 1 12.8273 12.8391 9.78142 
82 1 16.4854 14.7432 14.7423 
90 1 14.7427 16.4878 14.7423 
98 1 14.7427 14.7432 16.4872 
105 1 10.9265 12.7191 12.9159 
113 1 12.7563 10.9918 12.7136 
121 1 12.7478 12.7295 10.9771 
129 2 11.2919 12.0945 13.775 
ITEM: TIMESTEP
60
ITEM: NUMBER OF ATOMS
129
ITEM: BOX BOUNDS pp pp pp
0.0000000000000000e+00 1.8762000000000000e+01
0.0000000000000000e+00 1.8762000000000000e+01
0.0000000000000000e+00 1.8760999999999999e+01
ITEM: ATOMS id type x y z 
1 1 3.10652 3.10651 3.10738 
10 1 5.60861 5.6079 5.60791 
17 1 4.01311 4.01299 4.01327 
26 1 4.70163 4.70162 4.70187 
33 1 0.41619 3.45157 3.45168 
41 1 3.45136 0.416538 3.45183 
49 1 3.45173 3.4517 0.417367 
58 1 8.29854 5.26331 5.26321 
66 1 5.26343 8.29797 5.2632 
74 1 5.26307 5.2633 8.298 
81 1 1.6064 3.35157 3.35195 
89 1 3.35121 1.60683 3.35193 
97 1 3.35163 3.35162 1.60762 
106 1 7.10828 5.36322 5.36312 
114 1 5.36366 7.10772 5.36317 
122 1 5.36328 5.36324 7.10764 
4 1 3.10608 3.10722 14.9893 
11 1 5.60859 5.60452 12.4873 
20 1 4.01275 4.01217 14.0823 
27 1 4.70229 4.70021 13.3939 
36 1 0.415486 3.45163 14.6437 
46 1 3.45207 0.418017 14.6433 
56 1 3.45179 3.45174 17.6793 
59 1 8.30052 5.26345 12.8329 
69 1 5.26286 8.29503 12.8333 
79 1 5.26273 5.26335 9.7966 
84 1 1.6057 3.3518 14.7438 
94 1 3.35138 1.60827 14.744 
104 1 3.35163 3.35183 16.4891 
107 1 7.11031 5.36234 12.7333 
117 1 5.36434 7.10558 12.7341 
127 1 5.3628 5.36234 10.9868 
6 1 3.10606 14.9895 3.10742 
13 1 5.60807 12.4874 5.60485 
22 1 4.01297 14.0827 4.01242 
29 1 4.70197 13.3937 4.70038 
38 1 0.415911 14.6442 3.45239 
48 1 3.45181 17.6795 3.4518 
52 1 3.4521 14.6438 0.418232 
61 1 8.29904 12.8332 5.26328 
71 1 5.26277 9.79646 5.26326 
75 1 5.26303 12.8335 8.29628 
86 1 1.60621 14.7442 3.35235 
96 1 3.35174 16.4892 3.3519 
100 1 3.35159 14.7443 1.60854 
109 1 7.109 12.7333 5.36243 
119 1 5.36261 10.9869 5.36233 
123 1 5.3642 12.7344 7.10679 
7 1 3.10102 14.9944 14.9935 
16 1 5.57899 12.4863 12.4884 
23 1 4.00306 14.0854 14.0849 
32 1 4.68178 13.3942 13.395 
39 1 0.412033 14.6443 14.6432 
43 1 3.4524 17.6816 14.6427 
53 1 3.45209 14.6436 17.6807 
64 1 8.28973 12.8687 12.7689 
68 1 5.25576 9.79438 12.8272 
78 1 5.25582 12.8266 9.79686 
87 1 1.60207 14.7454 14.7445 
91 1 3.35061 16.4914 14.7444 
101 1 3.35025 14.7454 16.4906 
112 1 7.07605 12.7544 12.7262 
116 1 5.34579 10.9833 12.7249 
126 1 5.34519 12.7235 10.9851 
8 1 14.9888 3.10673 3.10686 
15 1 12.4877 5.6076 5.60857 
24 1 14.0826 4.01283 4.01335 
31 1 13.3942 4.70163 4.70197 
40 1 17.679 3.45165 3.45159 
44 1 14.6444 0.416447 3.45215 
54 1 14.6444 3.45151 0.416133 
63 1 9.79798 5.26334 5.26327 
67 1 12.8326 8.29769 5.26315 
77 1 12.8324 5.26344 8.29939 
88 1 16.4888 3.35171 3.35165 
92 1 14.7442 1.60662 3.35198 
102 1 14.7442 3.3516 1.60635 
111 1 10.9883 5.36325 5.36338 
115 1 12.7328 7.10778 5.36334 
125 1 12.7329 5.3632 7.10941 
5 1 14.9881 3.10624 14.9874 
14 1 12.4897 5.61412 12.4892 
21 1 14.0814 4.01426 14.0809 
30 1 13.3954 4.70353 13.395 
37 1 17.6786 3.45148 14.6436 
47 1 14.645 0.414839 14.6437 
51 1 14.6446 3.45152 17.6783 
62 1 9.79982 5.2633 12.8316 
72 1 12.8276 8.31011 12.8333 
76 1 12.8315 5.26331 9.79909 
85 1 16.4885 3.35122 14.7434 
95 1 14.7442 1.60485 14.7432 
99 1 14.7443 3.35138 16.4883 
110 1 10.9882 5.365 12.7321 
120 1 12.7303 7.11585 12.7334 
124 1 12.7322 5.36521 10.9882 
3 1 14.9891 14.9894 3.10596 
12 1 12.4896 12.4889 5.61033 
19 1 14.0844 14.0841 4.01223 
28 1 13.3948 13.3946 4.70388 
35 1 17.6788 14.6443 3.4523 
45 1 14.6444 17.6792 3.45225 
55 1 14.6448 14.6446 0.415509 
60 1 9.79739 12.8325 5.26309 
70 1 12.832 9.79725 5.26303 
80 1 12.8292 12.8342 8.30084 
83 1 16.4885 14.7444 3.35182 
93 1 14.7444 16.489 3.35192 
103 1 14.7443 14.7443 1.60574 
108 1 10.9876 12.7329 5.36427 
118 1 12.7327 10.9867 5.36421 
128 1 12.7311 12.7316 7.10889 
2 1 14.9818 14.9845 14.9845 
9 1 12.5728 12.4824 12.4508 
18 1 14.0815 14.0782 14.0777 
25 1 13.4203 13.3789 13.3648 
34 1 17.6744 14.6449 14.6438 
42 1 14.6451 17.6773 14.6439 
50 1 14.645 14.645 17.6767 
57 1 9.71958 12.8732 12.7012 
65 1 12.8308 9.79338 12.8286 
73 1 12.8269 12.8389 9.77719 
82 1 16.4841 14.7436 14.7427 
90 1 14.7427 16.4872 14.7426 
98 1 14.7428 14.7435 16.4865 
105 1 10.9212 12.7022 12.9355 
113 1 12.7584 10.9907 12.7096 
121 1 12.7466 12.7298 10.976 
129 2 11.3132 12.0928 13.797 
ITEM: TIMESTEP
70
ITEM: NUMBER OF ATOMS
129
ITEM: BOX BOUNDS pp pp pp
0.0000000000000000e+00 1.8762000000000000e+01
0.0000000000000000e+00 1.8762000000000000e+01
0.0000000000000000e+00 1.8760999999999999e+01
ITEM: ATOMS id type x y z 
1 1 3.10662 3.10674 3.10748 
10 1 5.60831 5.60779 5.60776 
17 1 4.013 4.01295 4.01338 
26 1 4.70181 4.7016 4.7018 
33 1 0.415922 3.45137 3.45149 
41 1 3.45118 0.416319 3.45164 
49 1 3.45154 3.45151 0.417151 
58 1 8.29899 5.26351 5.26341 
66 1 5.2636 8.29815 5.26339 
74 1 5.26324 5.2635 8.29815 
81 1 1.60614 3.35146 3.35184 
89 1 3.3511 1.60653 3.35182 
97 1 3.35151 3.3515 1.60735 
106 1 7.10873 5.36331 5.36322 
114 1 5.36379 7.10785 5.36328 
122 1 5.36341 5.36335 7.10785 
4 1 3.1061 3.1074 14.9891 
11 1 5.60889 5.60472 12.4874 
20 1 4.01289 4.01233 14.0825 
27 1 4.70219 4.70003 13.3936 
36 1 0.415284 3.45143 14.6439 
46 1 3.45192 0.417859 14.6434 
56 1 3.45162 3.45155 17.6796 
59 1 8.30029 5.26363 12.8327 
69 1 5.26296 8.29452 12.8331 
79 1 5.2629 5.26354 9.79646 
84 1 1.60546 3.35171 14.7439 
94 1 3.35126 1.60809 14.7441 
104 1 3.35151 3.35173 16.4894 
107 1 7.11019 5.36244 12.7331 
117 1 5.36465 7.10472 12.7339 
127 1 5.36298 5.36245 10.9868 
6 1 3.10626 14.9893 3.10762 
13 1 5.60825 12.4874 5.60507 
22 1 4.01292 14.0827 4.01251 
29 1 4.70198 13.3936 4.70035 
38 1 0.415602 14.6444 3.45219 
48 1 3.45163 17.6798 3.45161 
52 1 3.45195 14.644 0.417999 
61 1 8.29882 12.8331 5.26344 
71 1 5.26296 9.79641 5.26345 
75 1 5.26317 12.8332 8.29579 
86 1 1.60581 14.7443 3.35227 
96 1 3.35163 16.4896 3.35182 
100 1 3.35147 14.7445 1.60827 
109 1 7.10867 12.7331 5.36255 
119 1 5.36277 10.9869 5.36244 
123 1 5.3645 12.7343 7.10624 
7 1 3.10086 14.9944 14.9934 
16 1 5.57864 12.4858 12.4878 
23 1 4.00225 14.0854 14.085 
32 1 4.68102 13.3939 13.3948 
39 1 0.411544 14.6445 14.6435 
43 1 3.45226 17.682 14.6429 
53 1 3.45194 14.6438 17.6811 