LAMMPS (3 Mar 2020)
# Alpha
clear
units		real
dimension 3
boundary        p p p
atom_style	charge
newton on
read_data       O_2.lmp
  orthogonal box = (0 0 0) to (16.525 16.526 16.526)
  2 by 2 by 2 MPI processor grid
  reading atoms ...
  97 atoms
  read_data CPU = 0.00206666 secs

timestep 0.25

# ---------- Define Interatomic Potential ---------------------
pair_style      reax/c NULL checkqeq no
pair_coeff      * * ffield.reax C O
fix             2 all qeq/reax 1 0.0 10.0 1.0e-6 reax/c

#------------ Equilibration of the system -------------------------
reset_timestep 0

dump 1 all custom 10 min.lammpstrj id type x y z

minimize 1.0e-8 1.0e-8 100000 100000
WARNING: Using 'neigh_modify every 1 delay 0 check yes' setting during minimization (../min.cpp:190)
WARNING: Total cutoff < 2*bond cutoff. May need to use an increased neighbor list skin. (../pair_reaxc.cpp:413)
Neighbor list info ...
  update every 1 steps, delay 0 steps, check yes
  max neighbors/atom: 2000, page size: 100000
  master list distance cutoff = 9.5
  ghost atom cutoff = 9.5
  binsize = 4.75, bins = 4 4 4
  2 neighbor lists, perpetual/occasional/extra = 2 0 0
  (1) pair reax/c, perpetual
      attributes: half, newton off, ghost
      pair build: half/bin/newtoff/ghost
      stencil: half/ghost/bin/3d/newtoff
      bin: standard
  (2) fix qeq/reax, perpetual, copy from (1)
      attributes: half, newton off, ghost
      pair build: copy
      stencil: none
      bin: none
Per MPI rank memory allocation (min/avg/max) = 14.93 | 14.97 | 15.05 Mbytes
Step Temp E_pair E_mol TotEng Press 
       0            0    -17522.33            0    -17522.33     4382.227 
     109            0   -17614.075            0   -17614.075    2198.6475 
Loop time of 2.46521 on 8 procs for 109 steps with 97 atoms

99.6% CPU use with 8 MPI tasks x no OpenMP threads

Minimization stats:
  Stopping criterion = energy tolerance
  Energy initial, next-to-last, final = 
        -17522.3301791     -17614.0753113     -17614.0753685
  Force two-norm initial, final = 520.574 12.2212
  Force max component initial, final = 300.442 2.99847
  Final line search alpha, max atom move = 6.08478e-06 1.8245e-05
  Iterations, force evaluations = 109 900

MPI task timing breakdown:
Section |  min time  |  avg time  |  max time  |%varavg| %total
---------------------------------------------------------------
Pair    | 0.95314    | 0.95976    | 0.96757    |   0.5 | 38.93
Neigh   | 0          | 0          | 0          |   0.0 |  0.00
Comm    | 0.052433   | 0.060503   | 0.067397   |   2.3 |  2.45
Output  | 0.0002311  | 0.00030312 | 0.00042335 |   0.0 |  0.01
Modify  | 1.4374     | 1.4376     | 1.4378     |   0.0 | 58.32
Other   |            | 0.007043   |            |       |  0.29

Nlocal:    12.125 ave 13 max 12 min
Histogram: 7 0 0 0 0 0 0 0 0 1
Nghost:    369.25 ave 374 max 366 min
Histogram: 1 0 3 0 0 3 0 0 0 1
Neighs:    756.75 ave 819 max 740 min
Histogram: 4 3 0 0 0 0 0 0 0 1

Total # of neighbors = 6054
Ave neighs/atom = 62.4124
Neighbor list builds = 0
Dangerous builds = 0

###
min_style cg
minimize 1.0e-8 1.0e-8 100000 100000
WARNING: Using 'neigh_modify every 1 delay 0 check yes' setting during minimization (../min.cpp:190)
WARNING: Total cutoff < 2*bond cutoff. May need to use an increased neighbor list skin. (../pair_reaxc.cpp:413)
Per MPI rank memory allocation (min/avg/max) = 14.93 | 14.97 | 15.05 Mbytes
Step Temp E_pair E_mol TotEng Press 
     109            0   -17614.075            0   -17614.075    2198.6475 
     117            0   -17614.077            0   -17614.077    2197.6048 
Loop time of 0.321924 on 8 procs for 8 steps with 97 atoms

99.6% CPU use with 8 MPI tasks x no OpenMP threads

Minimization stats:
  Stopping criterion = energy tolerance
  Energy initial, next-to-last, final = 
        -17614.0753685     -17614.0770612      -17614.077169
  Force two-norm initial, final = 12.2212 14.3278
  Force max component initial, final = 2.99847 3.26384
  Final line search alpha, max atom move = 1.18875e-06 3.8799e-06
  Iterations, force evaluations = 8 134

MPI task timing breakdown:
Section |  min time  |  avg time  |  max time  |%varavg| %total
---------------------------------------------------------------
Pair    | 0.14214    | 0.14279    | 0.14376    |   0.2 | 44.36
Neigh   | 0          | 0          | 0          |   0.0 |  0.00
Comm    | 0.007874   | 0.0089079  | 0.0096181  |   0.7 |  2.77
Output  | 2.3143e-05 | 2.9649e-05 | 3.9203e-05 |   0.0 |  0.01
Modify  | 0.16914    | 0.16916    | 0.16918    |   0.0 | 52.55
Other   |            | 0.001038   |            |       |  0.32

Nlocal:    12.125 ave 13 max 12 min
Histogram: 7 0 0 0 0 0 0 0 0 1
Nghost:    369.25 ave 374 max 366 min
Histogram: 1 0 3 0 0 3 0 0 0 1
Neighs:    757.75 ave 823 max 741 min
Histogram: 4 3 0 0 0 0 0 0 0 1

Total # of neighbors = 6062
Ave neighs/atom = 62.4948
Neighbor list builds = 0
Dangerous builds = 0

###
fix 1 all box/relax aniso 0.0
min_style cg
minimize 1.0e-8 1.0e-8 100000 100000
WARNING: Using 'neigh_modify every 1 delay 0 check yes' setting during minimization (../min.cpp:190)
WARNING: Total cutoff < 2*bond cutoff. May need to use an increased neighbor list skin. (../pair_reaxc.cpp:413)
Per MPI rank memory allocation (min/avg/max) = 14.93 | 14.97 | 15.05 Mbytes
Step Temp E_pair E_mol TotEng Press Volume 
     117            0   -17614.077            0   -17614.077    2197.6048    4513.1209 
     154            0     -17614.2            0     -17614.2    -335.5574    4518.0489 
Loop time of 0.150823 on 8 procs for 37 steps with 97 atoms

99.5% CPU use with 8 MPI tasks x no OpenMP threads

Minimization stats:
  Stopping criterion = energy tolerance
  Energy initial, next-to-last, final = 
         -17614.077169     -17614.1999667     -17614.2001318
  Force two-norm initial, final = 252.671 44.1984
  Force max component initial, final = 168.571 31.1154
  Final line search alpha, max atom move = 4.20043e-05 0.00130698
  Iterations, force evaluations = 37 72

MPI task timing breakdown:
Section |  min time  |  avg time  |  max time  |%varavg| %total
---------------------------------------------------------------
Pair    | 0.077009   | 0.077557   | 0.078234   |   0.2 | 51.42
Neigh   | 0          | 0          | 0          |   0.0 |  0.00
Comm    | 0.0050607  | 0.0057624  | 0.0063189  |   0.6 |  3.82
Output  | 9.6181e-05 | 0.00015656 | 0.00022291 |   0.0 |  0.10
Modify  | 0.065422   | 0.065448   | 0.065463   |   0.0 | 43.39
Other   |            | 0.001899   |            |       |  1.26

Nlocal:    12.125 ave 13 max 12 min
Histogram: 7 0 0 0 0 0 0 0 0 1
Nghost:    369.25 ave 374 max 366 min
Histogram: 1 0 3 0 0 3 0 0 0 1
Neighs:    757.75 ave 823 max 741 min
Histogram: 4 3 0 0 0 0 0 0 0 1

Total # of neighbors = 6062
Ave neighs/atom = 62.4948
Neighbor list builds = 0
Dangerous builds = 0

unfix 1
###
min_style cg
minimize 1.0e-8 1.0e-8 100000 100000
WARNING: Using 'neigh_modify every 1 delay 0 check yes' setting during minimization (../min.cpp:190)
WARNING: Total cutoff < 2*bond cutoff. May need to use an increased neighbor list skin. (../pair_reaxc.cpp:413)
Per MPI rank memory allocation (min/avg/max) = 14.93 | 14.97 | 15.05 Mbytes
Step Temp E_pair E_mol TotEng Press 
     154            0     -17614.2            0     -17614.2    -335.5574 
     162            0   -17614.206            0   -17614.206   -270.93426 
Loop time of 0.287993 on 8 procs for 8 steps with 97 atoms

99.6% CPU use with 8 MPI tasks x no OpenMP threads

Minimization stats:
  Stopping criterion = energy tolerance
  Energy initial, next-to-last, final = 
        -17614.2001318     -17614.2059231     -17614.2059363
  Force two-norm initial, final = 18.9142 13.8986
  Force max component initial, final = 4.91636 3.16145
  Final line search alpha, max atom move = 1.2128e-05 3.83421e-05
  Iterations, force evaluations = 8 121

MPI task timing breakdown:
Section |  min time  |  avg time  |  max time  |%varavg| %total
---------------------------------------------------------------
Pair    | 0.12863    | 0.12926    | 0.13011    |   0.2 | 44.88
Neigh   | 0          | 0          | 0          |   0.0 |  0.00
Comm    | 0.0070067  | 0.0079454  | 0.008665   |   0.7 |  2.76
Output  | 2.2763e-05 | 2.9329e-05 | 3.9774e-05 |   0.0 |  0.01
Modify  | 0.14974    | 0.14977    | 0.1498     |   0.0 | 52.00
Other   |            | 0.000988   |            |       |  0.34

Nlocal:    12.125 ave 13 max 12 min
Histogram: 7 0 0 0 0 0 0 0 0 1
Nghost:    369.25 ave 374 max 366 min
Histogram: 1 0 3 0 0 3 0 0 0 1
Neighs:    757.75 ave 823 max 741 min
Histogram: 4 3 0 0 0 0 0 0 0 1

Total # of neighbors = 6062
Ave neighs/atom = 62.4948
Neighbor list builds = 0
Dangerous builds = 0

###
fix 1 all box/relax aniso 0.0
min_style cg
minimize 1.0e-8 1.0e-8 100000 100000
WARNING: Using 'neigh_modify every 1 delay 0 check yes' setting during minimization (../min.cpp:190)
WARNING: Total cutoff < 2*bond cutoff. May need to use an increased neighbor list skin. (../pair_reaxc.cpp:413)
Per MPI rank memory allocation (min/avg/max) = 14.93 | 14.97 | 15.05 Mbytes
Step Temp E_pair E_mol TotEng Press Volume 
     162            0   -17614.206            0   -17614.206   -270.93426    4518.0489 
     164            0   -17614.207            0   -17614.207    9.1683337    4517.6808 
Loop time of 0.0099209 on 8 procs for 2 steps with 97 atoms

99.4% CPU use with 8 MPI tasks x no OpenMP threads

Minimization stats:
  Stopping criterion = energy tolerance
  Energy initial, next-to-last, final = 
        -17614.2059363     -17614.2068198     -17614.2068949
  Force two-norm initial, final = 34.4003 17.9617
  Force max component initial, final = 22.5683 6.55326
  Final line search alpha, max atom move = 2.0564e-05 0.000134761
  Iterations, force evaluations = 2 4

MPI task timing breakdown:
Section |  min time  |  avg time  |  max time  |%varavg| %total
---------------------------------------------------------------
Pair    | 0.0053122  | 0.0053468  | 0.0053946  |   0.0 | 53.89
Neigh   | 0          | 0          | 0          |   0.0 |  0.00
Comm    | 0.00030136 | 0.00035065 | 0.00038593 |   0.0 |  3.53
Output  | 0          | 0          | 0          |   0.0 |  0.00
Modify  | 0.004057   | 0.0040584  | 0.0040595  |   0.0 | 40.91
Other   |            | 0.0001651  |            |       |  1.66

Nlocal:    12.125 ave 13 max 12 min
Histogram: 7 0 0 0 0 0 0 0 0 1
Nghost:    369.25 ave 374 max 366 min
Histogram: 1 0 3 0 0 3 0 0 0 1
Neighs:    757.75 ave 823 max 741 min
Histogram: 4 3 0 0 0 0 0 0 0 1

Total # of neighbors = 6062
Ave neighs/atom = 62.4948
Neighbor list builds = 0
Dangerous builds = 0

unfix 1
###
min_style cg
minimize 1.0e-8 1.0e-8 100000 100000
WARNING: Using 'neigh_modify every 1 delay 0 check yes' setting during minimization (../min.cpp:190)
WARNING: Total cutoff < 2*bond cutoff. May need to use an increased neighbor list skin. (../pair_reaxc.cpp:413)
Per MPI rank memory allocation (min/avg/max) = 14.93 | 14.97 | 15.05 Mbytes
Step Temp E_pair E_mol TotEng Press 
     164            0   -17614.207            0   -17614.207    9.1683337 
     167            0   -17614.208            0   -17614.208    17.649659 
Loop time of 0.131015 on 8 procs for 3 steps with 97 atoms

99.5% CPU use with 8 MPI tasks x no OpenMP threads

Minimization stats:
  Stopping criterion = energy tolerance
  Energy initial, next-to-last, final = 
        -17614.2068949     -17614.2073862     -17614.2075167
  Force two-norm initial, final = 16.1803 11.8553
  Force max component initial, final = 3.2741 3.08954
  Final line search alpha, max atom move = 1.56002e-06 4.81975e-06
  Iterations, force evaluations = 3 54

MPI task timing breakdown:
Section |  min time  |  avg time  |  max time  |%varavg| %total
---------------------------------------------------------------
Pair    | 0.057957   | 0.05833    | 0.058761   |   0.1 | 44.52
Neigh   | 0          | 0          | 0          |   0.0 |  0.00
Comm    | 0.0031471  | 0.0036064  | 0.0040118  |   0.5 |  2.75
Output  | 0          | 0          | 0          |   0.0 |  0.00
Modify  | 0.068612   | 0.068632   | 0.068652   |   0.0 | 52.38
Other   |            | 0.0004465  |            |       |  0.34

Nlocal:    12.125 ave 13 max 12 min
Histogram: 7 0 0 0 0 0 0 0 0 1
Nghost:    369.25 ave 374 max 366 min
Histogram: 1 0 3 0 0 3 0 0 0 1
Neighs:    757.75 ave 823 max 741 min
Histogram: 4 3 0 0 0 0 0 0 0 1

Total # of neighbors = 6062
Ave neighs/atom = 62.4948
Neighbor list builds = 0
Dangerous builds = 0

undump 1
#############
#----------- Thermo ------------
reset_timestep 0
thermo  200

thermo_style    custom step temp etotal ke pe press
velocity all create 300 12345 mom yes rot yes
fix 1 all npt temp 300 300 25.0 iso 0.0 0.0 250.0

variable vpe equal pe
variable vtemp equal temp
variable vstep equal step

fix output all print 2500 "${vstep} ${vtemp} ${vpe}" file temp-tpdh-Pt.dat screen no

dump 1 all custom 2500 thermo-tpdh-Pt.lammpstrj id type x y z

run 1000000
WARNING: Total cutoff < 2*bond cutoff. May need to use an increased neighbor list skin. (../pair_reaxc.cpp:413)
Per MPI rank memory allocation (min/avg/max) = 13.8 | 13.84 | 13.92 Mbytes
Step Temp TotEng KinEng PotEng Press 
       0          300    -17528.36    85.847329   -17614.208    886.29821 
     200    223.28042   -17496.426    63.893425   -17560.319    226.98808 
     400    287.52832   -17447.395    82.278461   -17529.674   -2219.9445 
     600    327.04689   -17416.966    93.587008   -17510.553    2988.1568 
     800    304.27952   -17442.661    87.071946   -17529.733   -10660.567 
    1000     319.4893   -17457.803    91.424345   -17549.227   -7114.2431 
    1200     296.3391   -17438.316    84.799735   -17523.116   -1697.6562 
    1400    266.58891   -17432.636    76.286487   -17508.923    328.40679 
    1600     284.7639   -17456.615      81.4874   -17538.103    5878.4533 
    1800    290.83767   -17447.172    83.225458   -17530.397   -3118.4973 
    2000    264.90913    -17441.26    75.805805   -17517.066    1268.1369 
    2200    299.50098   -17414.963    85.704532   -17500.667    6443.8177 
    2400    328.47678   -17424.311    93.996181   -17518.307     5933.813 
    2600    285.94267   -17443.963    81.824715   -17525.788    5458.9777 
    2800    333.37049   -17443.417    95.396553   -17538.814    2685.6089 
    3000    320.94947   -17425.494    91.842182   -17517.336   -8447.3483 
    3200     270.3939   -17448.284    77.375315   -17525.659   -4863.1166 
    3400    306.24485   -17440.764    87.634341   -17528.398     -8302.64 
    3600    375.15301   -17413.652    107.35295   -17521.005   -5150.8971 
    3800    294.72401   -17436.407    84.337565   -17520.744   -550.38467 
    4000    257.03398   -17449.272     73.55227   -17522.824   -588.99198 
    4200    318.01938   -17427.756    91.003714    -17518.76   -12138.311 
    4400     277.6923   -17434.011    79.463809   -17513.475   -4587.1621 
    4600    286.95484   -17448.496    82.114355    -17530.61   -3353.9569 
    4800    331.56388   -17420.673    94.879578   -17515.552    2056.3474 
    5000    292.82441   -17441.966    83.793979    -17525.76    4710.7085 
    5200    303.66059   -17441.677    86.894836   -17528.572    3970.1857 
    5400    310.87948   -17415.579    88.960577   -17504.539   -7149.7395 
    5600    329.76687   -17432.439    94.365351   -17526.804   -11368.105 
    5800    277.04435   -17450.053    79.278391   -17529.331   -6072.6907 
    6000    320.00137   -17427.929    91.570877     -17519.5   -7326.8408 
    6200    312.30746   -17432.725    89.369204   -17522.094    690.76508 
    6400    301.40435   -17441.071    86.249194    -17527.32   -90.156264 
    6600    284.64777   -17440.604    81.454169   -17522.059   -2317.7656 
    6800    282.47287   -17455.475    80.831804   -17536.307   -2930.3578 
    7000    255.05776   -17443.113     72.98676   -17516.099   -5075.7335 
    7200    299.60512   -17429.637    85.734331   -17515.371    9340.9202 
    7400    282.12606   -17448.247    80.732563    -17528.98    11983.296 
    7600    248.88316    -17450.46    71.219849    -17521.68     4205.686 
    7800    356.47296   -17424.897    102.00751   -17526.905    2239.0279 
    8000    356.78702    -17415.27    102.09738   -17517.368    3734.8419 
    8200    303.70326   -17440.756    86.907047   -17527.663   -9711.9939 
    8400    292.47256   -17451.162    83.693294   -17534.855   -3514.2282 
    8600    272.80954     -17462.3    78.066569   -17540.366    7275.1242 
    8800    307.61273   -17434.298    88.025771   -17522.324    18977.682 
    9000    341.36645   -17428.812    97.684661   -17526.496    11954.467 
    9200    319.57585   -17451.209    91.449112   -17542.658    3785.5389 
    9400    319.08036   -17440.978    91.307323   -17532.285   -2299.6623 
    9600    356.81988   -17416.812    102.10678   -17518.918   -2537.5637 
    9800    343.74151   -17434.484    98.364303   -17532.848    9154.3223 
   10000    311.28047    -17444.75    89.075324   -17533.826   -1582.3308 
   10200    303.38866   -17451.915     86.81702   -17538.732    4621.6602 
   10400    296.33928   -17430.185    84.799785   -17514.985    13317.023 
   10600    293.03428   -17437.126    83.854035    -17520.98    3700.1767 
   10800    230.64674   -17463.613    66.001356   -17529.614    10596.085 
   11000    267.38927   -17448.552    76.515516   -17525.067   -3266.0881 
   11200    284.06238   -17435.865    81.286656   -17517.152    9560.6063 
   11400    312.96982   -17434.259    89.558745   -17523.818   -6160.2474 
   11600    273.78307   -17444.712    78.345153   -17523.057   -1817.8174 
   11800    246.95069   -17456.559    70.666857   -17527.226    -11927.22 
   12000    323.29869   -17431.679    92.514431   -17524.193   -6906.3878 
   12200    277.71895   -17440.357    79.471435   -17519.828       -16151 
   12400    250.48555   -17460.628    71.678386   -17532.306   -7015.8321 
   12600    276.54903   -17441.464    79.136652   -17520.601   -5247.1528 
   12800    310.82282   -17432.404    88.944364   -17521.349   -3961.0124 
   13000     246.2607   -17436.149    70.469411   -17506.618   -4086.1606 
   13200    282.76874   -17448.539     80.91647   -17529.455    7884.7501 
   13400    341.01144    -17420.37    97.583072   -17517.953    4611.1049 
   13600    310.38116   -17435.447     88.81798   -17524.265    5106.1237 
   13800    286.67894   -17439.935    82.035406   -17521.971    5386.7267 
   14000    293.38468    -17441.41    83.954305   -17525.364    1277.8815 
   14200    265.40873   -17445.173     75.94877   -17521.122   -7607.8265 
   14400    278.11721   -17445.617    79.585398   -17525.203   -8688.2344 
   14600    298.12488   -17424.925    85.310749   -17510.236    -5182.905 
   14800     296.7556   -17441.413    84.918918   -17526.332    2438.4821 
   15000    342.85911   -17441.228    98.111797   -17539.339    943.43687 
   15200    268.83002   -17442.799    76.927798   -17519.727    4889.0473 
   15400    309.59229   -17426.936    88.592238   -17515.528   -3180.1288 
   15600    252.14471   -17449.523    72.153168   -17521.676   -5198.6248 
   15800    280.85328   -17448.693    80.368345   -17529.062   -1670.4026 
   16000    308.44974   -17442.093    88.265288   -17530.358    3666.1074 
   16200    293.79459   -17434.458    84.071604    -17518.53   -2225.3465 
   16400    322.55392   -17420.696    92.301309   -17512.997   -717.24838 
   16600    283.74739    -17447.31    81.196519   -17528.506    6444.4213 
   16800    275.34204   -17442.769    78.791264    -17521.56    4971.6326 
   17000    325.58723   -17415.333    93.169315   -17508.503   -2110.8415 
   17200    293.45672    -17445.63     83.97492   -17529.605    6692.2422 
   17400    302.10466   -17441.164    86.449594   -17527.613   -6126.3023 
   17600    311.09074   -17434.278    89.021031   -17523.299     9468.105 
   17800    280.35728    -17455.05    80.226412   -17535.276      12708.3 
   18000    297.97253   -17434.182    85.267154   -17519.449    6447.0162 
   18200    296.17502    -17437.22    84.752782   -17521.972    6615.0919 
   18400    302.61506   -17450.172    86.595648   -17536.767   -5240.0879 
   18600    307.16512   -17441.499    87.897685   -17529.397    -852.9275 
   18800    305.40143   -17427.519     87.39299   -17514.912    -2481.588 
   19000    293.39376   -17438.757    83.956903   -17522.714   -6754.7353 
   19200    251.13572   -17451.133    71.864437   -17522.997    2375.8252 
   19400    294.23523   -17426.562    84.197697    -17510.76    11555.161 
   19600    327.83837   -17433.724    93.813495   -17527.537    11311.995 
   19800    303.81652   -17440.231    86.939457   -17527.171    8861.6173 
   20000    293.61029    -17450.31    84.018864   -17534.329   -6034.0918 
   20200    288.07182   -17439.662    82.433987   -17522.096   -3432.7316 
   20400    297.74472   -17430.227    85.201963   -17515.429   -4199.2421 
   20600    274.00712   -17451.738    78.409265   -17530.147    3769.9266 
   20800    294.37746   -17445.494    84.238397   -17529.732    6950.3975 
   21000    334.54334   -17430.857    95.732174   -17526.589    1785.0157 
   21200    299.06929    -17445.19       85.581   -17530.771    2068.0501 
   21400    327.83637   -17422.829    93.812921   -17516.642   -11564.948 
   21600    328.14092   -17434.864    93.900071   -17528.764    710.36174 
   21800    290.90479   -17448.718    83.244665   -17531.963   -2129.1379 
   22000    293.04677     -17423.5     83.85761   -17507.357   -7970.1476 
   22200     306.9244   -17433.485      87.8288   -17521.314   -4092.8373 
   22400    275.62127   -17452.649    78.871168    -17531.52     136.6807 
   22600    312.71347   -17427.251    89.485387   -17516.736     3657.711 
   22800    293.18891   -17433.119    83.898282   -17517.017    564.80888 
   23000    326.98992   -17446.034    93.570705   -17539.605   -6734.2504 
   23200    306.74422   -17460.459    87.777239   -17548.236     2919.257 
   23400    327.65416   -17438.737    93.760781   -17532.498   -8402.6949 
   23600    288.07547   -17441.538    82.435031   -17523.973   -4897.6093 
   23800    306.86049   -17418.026    87.810513   -17505.837    5981.3042 
   24000    305.47326   -17437.052    87.413544   -17524.465    4237.5883 
   24200    299.06949    -17447.61    85.581056   -17533.191    6537.2915 
   24400    299.20991   -17447.718    85.621239   -17533.339    120.55089 
   24600    298.70162   -17426.285    85.475787    -17511.76    1033.0805 
   24800    277.01065   -17445.531    79.268748     -17524.8   -1995.7455 
   25000    289.63552   -17452.574    82.881454   -17535.456    1990.2662 
   25200    306.48962   -17441.518    87.704384   -17529.223    4868.4216 
   25400    296.97962   -17434.172    84.983024   -17519.155    14693.721 
   25600    311.27266   -17439.592    89.073089   -17528.665    12552.447 
   25800    292.29028   -17461.089    83.641134    -17544.73    -4281.838 
   26000    285.98216   -17445.346    81.836015   -17527.182   -2526.9669 
   26200    293.84787   -17436.587    84.086851   -17520.674   -7322.0014 
   26400    326.51464   -17433.501      93.4347   -17526.936   -3417.5832 
   26600    294.01822   -17447.269    84.135597   -17531.405   -357.62793 
   26800    292.45186   -17453.289     83.68737   -17536.976    775.58737 
   27000    342.95013   -17426.066    98.137841   -17524.204    3429.5389 
   27200    307.49843   -17439.647    87.993062    -17527.64    1799.5697 
   27400    255.20634   -17465.447    73.029276   -17538.477   -1791.3011 
   27600    283.53143   -17451.552    81.134721   -17532.687   -3245.4852 
   27800    328.60844   -17438.261    94.033856   -17532.295     3234.492 
   28000    329.70751   -17424.954    94.348365   -17519.303   -9441.4255 
   28200    320.61062   -17443.542    91.745219   -17535.287    -6863.428 
   28400    292.13547   -17447.525    83.596833   -17531.122    8098.4337 
   28600    345.96215   -17422.905    98.999756   -17521.905   -3633.1906 
   28800    314.28687   -17434.056    89.935628   -17523.992    3878.6252 
   29000    271.61933   -17443.937     77.72598   -17521.663    4785.8787 
   29200     264.1806   -17467.307     75.59733   -17542.904    1291.0009 
   29400    334.64653   -17445.506    95.761704   -17541.268     -11762.3 
   29600    327.11263   -17435.236     93.60582   -17528.842   -2044.4934 
   29800    340.64177   -17422.851    97.477288   -17520.328   -6719.0177 
   30000    250.48835   -17450.152    71.679186   -17521.832    -11051.25 
   30200    288.83716   -17435.113    82.652995   -17517.766    3648.2248 
   30400    295.73785   -17438.481    84.627684   -17523.109    1762.0717 
   30600    263.07306   -17454.135    75.280399   -17529.416   -2551.8092 
   30800    290.57861   -17435.014    83.151325   -17518.165   -1808.0455 
   31000    293.56654   -17446.764    84.006344    -17530.77   -4962.6209 
   31200    297.98732   -17454.992    85.271385   -17540.263    -1045.788 
   31400    266.85448   -17440.682    76.362482   -17517.044    -10880.85 
   31600    261.08685   -17446.496    74.712028   -17521.208   -3829.9238 
   31800    281.61356   -17446.347    80.585908   -17526.933    11798.587 
   32000    359.66816   -17424.232    102.92184   -17527.154    4092.7542 
   32200    268.25055   -17445.584    76.761977   -17522.346    7046.7023 
   32400    269.06933   -17442.494    76.996277   -17519.491    8286.5506 
   32600    329.61522   -17425.774    94.321956   -17520.096    1203.6393 
   32800    294.62649   -17432.131    84.309658   -17516.441   -5114.2024 
   33000    290.08444   -17442.454    83.009914   -17525.464    -4905.359 
   33200    334.45919   -17430.196    95.708094   -17525.904   -7989.2075 
   33400    265.59833   -17445.745    76.003024   -17521.748   -5953.4253 
   33600    304.43456   -17442.477    87.116313   -17529.593   -2063.3459 
   33800    336.63996   -17420.739    96.332138   -17517.071    1273.4393 
   34000    314.60719   -17443.517    90.027291   -17533.544   -4144.2657 
   34200    279.89425   -17453.118    80.093913   -17533.212   -4857.0343 
   34400    283.06522   -17436.881    81.001311   -17517.883   -2885.7612 
   34600    293.01642   -17430.766    83.848922   -17514.615   -4657.6403 
   34800    262.41997   -17453.678    75.093512   -17528.771    3038.7335 
   35000    290.35806    -17448.27    83.088214   -17531.358    2704.0998 
   35200    258.34568   -17440.191    73.927623   -17514.119   -2286.6886 
   35400     280.3532   -17436.887    80.225244   -17517.113    1473.0136 
   35600    308.27748   -17430.382    88.215996   -17518.598    3513.6643 
   35800     282.2456   -17445.924     80.76677   -17526.691    2598.1974 
   36000    267.72163   -17454.821    76.610622   -17531.431   -718.55655 
   36200    366.92139   -17426.091     104.9974   -17531.089   -42.769764 
   36400    305.12694   -17444.614    87.314443   -17531.929    7359.9333 
   36600    311.06412   -17430.976    89.013412    -17519.99   -1772.5929 
   36800    333.93396   -17428.067    95.557797   -17523.625    6200.3667 
   37000    277.35223   -17450.783    79.366493   -17530.149    1989.5479 
   37200    333.35456   -17431.089    95.391997   -17526.481    11810.031 
   37400    319.02985   -17430.037    91.292868    -17521.33    14565.807 
   37600    260.03002    -17459.27    74.409609    -17533.68    8614.5371 
   37800    330.04674   -17434.716    94.445437   -17529.162    1111.4652 
   38000    325.31951   -17439.845    93.092702   -17532.937    -5523.017 
   38200    255.15906   -17458.922    73.015745   -17531.937    4928.6468 
   38400    283.41431   -17432.313    81.101204   -17513.415   -5908.8043 
   38600    303.31909   -17441.679    86.797112   -17528.476    172.49122 
   38800    268.42197   -17457.027    76.811031   -17533.838    7449.7061 
   39000    330.18761   -17428.121    94.485749   -17522.607    3518.5947 
   39200    303.80039   -17445.064    86.934842   -17531.999    15091.927 
   39400    308.12922   -17437.861    88.173569   -17526.034    3409.5493 
   39600    361.35062   -17426.671    103.40329   -17530.074    9110.0744 
   39800     261.7208   -17448.618    74.893439   -17523.511    -5349.791 
   40000    322.51862   -17434.323    92.291206   -17526.614    5810.9487 
   40200    335.93601   -17419.749    96.130698    -17515.88    -9367.667 
   40400    338.25451   -17437.883    96.794155   -17534.677   -16837.928 
   40600    304.74883   -17446.927    87.206245   -17534.133    6777.8214 
   40800    305.31708   -17443.096    87.368853   -17530.465    3216.0745 
   41000    323.68165   -17429.484    92.624018   -17522.108    5903.5651 
   41200    259.37077   -17451.882    74.220959   -17526.103    3944.1212 
   41400    322.88843   -17427.573    92.397031   -17519.971    39.917159 
   41600    330.17447   -17438.017    94.481988   -17532.499    212.97641 
   41800    278.12963   -17446.298    79.588954   -17525.887   -1324.4247 
   42000    284.97875   -17422.161    81.548883   -17503.709   -6236.6912 
   42200    340.44942   -17412.831    97.422244   -17510.253   -1566.2768 
   42400     285.4966   -17442.935    81.697069   -17524.632   -211.55849 
   42600    313.38948   -17446.029    89.678833   -17535.708     13053.62 
   42800    316.48246   -17426.109    90.563914   -17516.673    4872.6188 
   43000    271.28128   -17450.876    77.629244   -17528.505    7631.5104 
   43200    302.97096   -17445.339    86.697493   -17532.036    4372.9932 
   43400     320.9072   -17427.534    91.830086   -17519.364    -5348.819 
   43600    263.18081   -17453.041    75.311231   -17528.352   -1125.3683 
   43800    289.18266   -17440.344    82.751864   -17523.096    214.97923 
   44000    337.57276   -17430.289    96.599066   -17526.888   -1471.8621 
   44200    292.74121   -17454.396     83.77017   -17538.167    7885.0604 
   44400    302.65558   -17446.319    86.607243   -17532.926    4074.5141 
   44600    312.52717   -17430.646    89.432077   -17520.078    8130.1166 
   44800    295.09607   -17442.872    84.444032   -17527.316    80.877353 
   45000    325.50754   -17443.719    93.146509   -17536.865   -3375.0204 
   45200    334.20967   -17423.576    95.636693   -17519.212     2694.175 
   45400    254.29463   -17450.169    72.768382   -17522.937   -4183.2523 
   45600    292.43978   -17439.156    83.683915    -17522.84   -6376.3185 
   45800    357.74307       -17421    102.37096   -17523.371    -892.6946 
   46000    313.72783   -17428.368    89.775655   -17518.144   -5302.2661 
   46200    297.02124   -17446.731    84.994933   -17531.726   -3094.0805 
   46400     313.8322    -17426.88    89.805522   -17516.686    3287.9815 
   46600    302.84934   -17440.188    86.662689    -17526.85   -2289.7207 
   46800    291.36977   -17438.797    83.377722   -17522.175    7484.7018 
   47000    288.92357    -17437.11    82.677723   -17519.788     2545.721 
   47200    283.15587   -17453.615    81.027252   -17534.642    4214.5163 
   47400    325.34729   -17428.544    93.100654   -17521.645    284.89059 
   47600    287.93434   -17435.174    82.394646   -17517.569    -3895.851 
   47800    313.12152   -17442.661    89.602155   -17532.263   -3789.4648 
   48000    240.04434   -17468.919    68.690553    -17537.61    4251.7871 
   48200    323.51942   -17444.249    92.577595   -17536.827    3560.4854 
   48400    299.39529   -17436.866    85.674286   -17522.541    5504.8091 
   48600    356.18648   -17416.479    101.92553   -17518.405   -6365.5504 
   48800    285.67963   -17440.767    81.749444   -17522.517    5273.0923 
   49000    306.30876    -17445.56    87.652629   -17533.213   -3403.8869 
   49200    282.49353    -17452.74    80.837717   -17533.578    4314.3807 
   49400    366.59762   -17427.026    104.90476   -17531.931    11413.947 
   49600    330.24116   -17437.965    94.501071   -17532.466    6677.4498 
   49800     309.3456   -17443.259    88.521645   -17531.781    1789.5448 
   50000    299.25702   -17434.889    85.634719   -17520.523    -778.7754 
   50200    354.22263   -17408.449    101.36356   -17509.812   -14041.073 
   50400    284.74415   -17439.265    81.481751   -17520.747     2335.735 
   50600    319.48292    -17445.68     91.42252   -17537.103   -1791.4135 
   50800    277.24137    -17440.65    79.334772   -17519.984   -2000.9038 
   51000    321.77585   -17426.974    92.078659   -17519.052    4012.8396 
   51200     262.0468   -17451.387    74.986727   -17526.373    5722.0705 
   51400    276.30435   -17438.275    79.066636   -17517.342   -6215.4885 
   51600    332.46831   -17422.691    95.138388   -17517.829    2712.4822 
   51800    310.93726   -17442.804    88.977111   -17531.781    3624.3957 
   52000    291.26452   -17440.992    83.347603    -17524.34   -5393.7349 
   52200    381.96962   -17417.368    109.30357   -17526.671    1142.3358 
   52400    312.78901   -17441.802    89.507004   -17531.309   -14077.792 
   52600    282.42849   -17442.516    80.819105   -17523.335   -1560.7242 
   52800    306.22321   -17420.298    87.628151   -17507.926    7141.0216 
   53000    280.97243   -17438.443    80.402443   -17518.845    7445.6768 
   53200    296.47009   -17446.608    84.837218   -17531.445    654.50611 
   53400    392.10147   -17420.526    112.20288   -17532.729   -4113.8441 
   53600     286.1006   -17435.846    81.869908   -17517.716   -6983.7556 
   53800    284.73356   -17448.908     81.47872   -17530.387    4970.3928 
   54000    254.35743   -17470.477    72.786353   -17543.264    8484.2551 
   54200    285.55752   -17442.714    81.714502   -17524.429   -417.86001 
   54400    309.69043   -17435.439    88.620321   -17524.059    -13060.73 
   54600    304.44452   -17452.693    87.119162   -17539.813   -12762.875 
   54800    297.48168   -17439.803    85.126692    -17524.93   -6805.2219 
   55000    283.56947   -17434.401    81.145605   -17515.547   -3094.0167 
   55200    290.83441   -17440.391    83.224525   -17523.615   -6040.0819 
   55400    303.82646   -17459.079    86.942302   -17546.021   -4022.6143 
   55600    294.51403   -17438.407    84.277476   -17522.685   -9732.7276 
   55800    321.26835   -17432.016    91.933433   -17523.949   -5685.5858 
   56000    249.61082   -17454.402    71.428073    -17525.83    4663.7613 
   56200    285.97352   -17437.546    81.833543    -17519.38   -2955.8469 
   56400    331.48988   -17437.723    94.858402   -17532.582   -5919.8049 
   56600    256.76219   -17453.996    73.474494    -17527.47    7736.8104 
   56800    292.28697   -17426.933    83.640187   -17510.574    7739.6192 
   57000    307.44793   -17440.424    87.978614   -17528.403    8494.2483 
   57200    285.74761   -17450.268    81.768898   -17532.037     6774.324 
   57400    299.69286   -17441.871     85.75944    -17527.63    -7100.616 
   57600    325.95105   -17436.444    93.273424   -17529.717    3663.4447 
   57800    291.98116   -17442.529    83.552675   -17526.082    13621.787 
   58000    301.56093    -17433.58    86.294001   -17519.874    9857.3966 
   58200    338.38335   -17422.239    96.831022    -17519.07    2668.5689 
   58400     318.8794   -17438.487    91.249815   -17529.736   -11042.545 
   58600    294.13313   -17446.734     84.16848   -17530.902   -6584.4804 
   58800    300.30764   -17436.707    85.935363   -17522.643   -2078.9435 
   59000    331.97939   -17423.159    94.998479   -17518.158    8526.1289 
   59200    292.14281   -17446.283    83.598934   -17529.882    1298.3195 
   59400    314.41746   -17442.884    89.972998   -17532.857   -8257.3519 
   59600    343.77139   -17417.893    98.372852   -17516.266   -313.16228 
   59800    313.53784   -17439.671    89.721286   -17529.392   -1848.0904 
   60000    292.59391   -17440.264     83.72802   -17523.992    833.34903 
   60200    279.07898   -17442.987    79.860616   -17522.847   -737.34698 
   60400    281.29894   -17454.467    80.495876   -17534.963    6495.7058 
   60600    311.28764   -17432.742    89.077374    -17521.82    5227.3779 
   60800    300.06437   -17432.904    85.865748   -17518.769    8614.6066 
   61000    285.69599   -17449.635    81.754126   -17531.389   -5350.8663 
   61200    272.94334   -17442.301    78.104857   -17520.406   -1772.2127 
   61400    338.05639   -17424.901    96.737461   -17521.638    7366.7309 
   61600    277.36721   -17448.431    79.370781   -17527.802     3348.378 
   61800    305.53655   -17437.653    87.431656   -17525.084   -3396.5658 
   62000    303.25543   -17432.418    86.778895   -17519.197   -3392.2297 
   62200    282.59099   -17454.828    80.865605   -17535.694    2943.5687 
   62400    319.87158   -17433.772    91.533737   -17525.305    754.10587 
   62600    305.47073   -17431.263    87.412821   -17518.676    4257.8949 
   62800    286.84113   -17451.235    82.081818   -17533.317    10073.732 
   63000    297.27544   -17441.036    85.067674   -17526.104   -3618.1467 
   63200     326.6274   -17436.212    93.466967   -17529.679    6045.6383 
   63400    309.60606   -17443.882    88.596177   -17532.478    -5562.242 
   63600    294.26025   -17448.071    84.204855   -17532.276   -4804.9459 
   63800    265.87901    -17439.71    76.083342   -17515.793    -3760.508 
   64000    337.43541   -17418.003    96.559762   -17514.563   -9283.9479 
   64200    270.63727   -17429.936    77.444956   -17507.381   -6239.1311 
   64400    306.55661   -17437.438    87.723555   -17525.162   -7852.5544 
   64600    290.83777   -17439.912    83.225487   -17523.138    5070.5414 
   64800    306.87482   -17436.757    87.814614   -17524.572    564.32183 
   65000      357.424   -17419.051    102.27965   -17521.331    8907.0409 
   65200    290.23599   -17444.798    83.053282   -17527.852   -14377.876 
   65400    286.82733   -17439.737    82.077868   -17521.815   -16956.806 
   65600    315.28016   -17418.125    90.219867   -17508.345   -2063.5389 
   65800    300.04133   -17434.671    85.859156    -17520.53   -2928.2291 
   66000     286.2596   -17450.343    81.915406   -17532.258   -6045.4165 
   66200    331.18572   -17438.573    94.771365   -17533.344   -18175.851 
   66400    335.79509   -17430.116    96.090373   -17526.207   -5140.8248 
   66600    303.98413   -17442.954    86.987419   -17529.941   -4712.4174 
   66800    321.48879    -17444.81    91.996513   -17536.806     11342.52 
   67000    289.11033   -17451.904    82.731166   -17534.635    323.30416 
   67200    321.29721   -17431.328    91.941693    -17523.27    5019.4241 
   67400    322.15349   -17430.294    92.186721   -17522.481   -6338.0133 
   67600    301.37665   -17454.847    86.241268   -17541.088    1246.7478 
   67800    292.18916   -17440.599    83.612198   -17524.211   -2084.3631 
   68000    307.81834   -17433.282    88.084608   -17521.367    -2694.229 
   68200    287.48485   -17441.422    82.266023   -17523.688   -1638.3446 
   68400    307.92081   -17431.918    88.113931   -17520.031     -5178.84 
   68600    294.89214   -17452.961    84.385676   -17537.347   -4142.0315 
   68800    305.15958   -17445.769    87.323782   -17533.092    5030.4254 
   69000    300.40265   -17432.576    85.962552   -17518.538    3338.6089 
   69200    294.79611   -17446.642    84.358195       -17531   -1442.2725 
   69400    255.81098   -17450.532    73.202299   -17523.734    -6853.064 
   69600    315.35487   -17439.988    90.241245   -17530.229   -1881.7602 
   69800    325.77397   -17436.591     93.22275   -17529.814    -825.4501 
   70000    261.24352    -17455.85     74.75686   -17530.607   -849.37837 
   70200    312.98935   -17440.187    89.564333   -17529.751   -2021.0266 
   70400     263.4637   -17440.878    75.392183   -17516.271     11248.81 
   70600    297.15599   -17449.494    85.033494   -17534.528   -5686.4618 
   70800    313.71231   -17433.421    89.771214   -17523.193    1251.8998 
   71000    315.48691   -17442.262     90.27903   -17532.541    2996.5945 
   71200     283.7449   -17453.113    81.195807   -17534.309    4295.9566 
   71400    268.63883   -17441.913    76.873088   -17518.786    3789.8229 
   71600    304.65797   -17440.272    87.180243   -17527.452   -4610.6085 
   71800    280.99787   -17440.923    80.409722   -17521.333   -2658.3665 
   72000    308.24541   -17423.347    88.206818   -17511.554   -8712.8327 
   72200    289.46117   -17447.525     82.83156   -17530.357   -1449.0988 
   72400    282.06409   -17438.177     80.71483   -17518.892    2670.1677 
   72600    298.89578    -17431.12    85.531348   -17516.651    287.23359 
   72800    317.91631   -17437.857     90.97422   -17528.831   -8612.0355 
   73000     275.6283    -17449.62    78.873177   -17528.494   -12411.332 
   73200    355.79403   -17424.721    101.81322   -17526.534   -7840.8772 
   73400     291.5244    -17451.48    83.421969   -17534.902   -1960.6201 
   73600    320.57719   -17442.223    91.735653   -17533.958    3235.6719 
   73800    307.55762   -17429.372    88.010001   -17517.382   -2702.1086 
   74000    275.05619    -17450.34    78.709464    -17529.05    -609.3678 
   74200    289.46405   -17447.992    82.832385   -17530.825    68.168587 
   74400    334.12513   -17431.652      95.6125   -17527.264    -6936.314 
   74600    294.78084    -17445.82    84.353826   -17530.174    4461.4306 
   74800    266.29444   -17458.705    76.202221   -17534.907    4253.3837 
   75000    320.72557   -17433.972    91.778112    -17525.75    6396.3002 
   75200    259.65352   -17443.865    74.301871   -17518.167    9025.3949 
   75400    279.15467   -17455.144    79.882276   -17535.026   -1741.5932 
   75600    276.33507   -17433.441    79.075425   -17512.516   -8856.1437 
   75800    301.70899   -17450.599    86.336371   -17536.936   -10478.498 
   76000    265.78206   -17441.444      76.0556   -17517.499    -740.1551 
   76200     292.0107   -17433.792     83.56113   -17517.354   -6077.4152 
   76400    263.36608   -17451.513    75.364249   -17526.877     1809.677 
   76600    282.54113   -17459.107    80.851337   -17539.958   -1247.3708 
   76800    301.75581   -17436.005    86.349769   -17522.355   -3042.5889 
   77000     318.0008   -17445.342    90.998397    -17536.34   -3790.1534 
   77200     282.1684   -17452.519     80.74468   -17533.264   -6552.2268 
   77400    293.24247   -17434.765    83.913609   -17518.679    3335.5099 
   77600    285.86858   -17448.643    81.803513   -17530.446   -19373.402 
   77800    253.12521   -17459.094    72.433744   -17531.528   -11373.473 
   78000    320.90998   -17435.368    91.830882   -17527.199   -6783.5239 
   78200    311.22544   -17449.305    89.059576   -17538.365   -2867.9429 
   78400    280.15282   -17455.916    80.167905   -17536.084   -1441.3146 
   78600    297.85958   -17435.464    85.234832   -17520.699    9701.0749 
   78800    292.65377   -17440.113     83.74515   -17523.858   -6778.2906 
   79000    247.78056   -17458.307    70.904333   -17529.212    2806.0288 
   79200    346.37926   -17425.972    99.119116   -17525.091   -10019.546 
   79400    308.90949   -17441.179     88.39685   -17529.576    -5670.879 
   79600    290.58003   -17446.631    83.151731   -17529.783     2428.098 
   79800    291.46089     -17437.4    83.403796   -17520.804   -10916.182 
   80000    329.11421   -17438.815    94.178586   -17532.994    4085.7178 
   80200    280.33095   -17447.847    80.218879   -17528.066   -3408.7699 
   80400    300.70277   -17449.453    86.048432   -17535.501    5342.8303 
   80600     339.1316   -17431.165    97.045141    -17528.21    11315.746 
   80800    262.35752   -17454.737     75.07564   -17529.813    6027.2339 
   81000    277.63496   -17449.844    79.447399   -17529.292    1874.6157 
   81200    311.46992   -17437.569    89.129537   -17526.698    4997.3092 
   81400     279.1109   -17441.436    79.869752   -17521.306    2460.0825 
   81600    264.55269   -17456.367    75.703807   -17532.071     1085.375 
   81800    286.07614   -17434.217    81.862909    -17516.08    5964.2714 
   82000    296.93425   -17439.317    84.970041   -17524.287    13961.714 
   82200    232.89134   -17458.252    66.643667   -17524.896    10044.026 
   82400    293.57556   -17430.056    84.008925   -17514.065   -3834.8509 
   82600    324.76707   -17434.709    92.934618   -17527.644    1947.4969 
   82800    276.12419   -17450.148    79.015081   -17529.163   -7092.7485 
   83000    335.70235   -17426.177    96.063835    -17522.24    6522.2991 
   83200    306.57889   -17444.156    87.729929   -17531.885    680.02949 
   83400    279.86339   -17446.323    80.085081   -17526.408    9948.4314 
   83600    330.04677   -17436.123    94.445447   -17530.569   -3295.0251 
   83800    307.22816   -17441.835    87.915723   -17529.751   -1137.8719 
   84000    310.54069   -17444.477    88.863631    -17533.34   -4429.6166 
   84200    264.82163   -17452.237    75.780766   -17528.018   -2307.7448 
   84400    308.56879   -17429.641    88.299354    -17517.94   -4224.5202 
   84600    269.98904   -17446.129    77.259459   -17523.389   -3895.1199 
   84800     310.8899   -17442.487    88.963558   -17531.451    6365.4368 
   85000    315.79201   -17425.351    90.366335   -17515.717    5433.4911 
   85200    298.30965   -17430.448    85.363622   -17515.811     11954.73 
   85400    285.30353    -17448.37     81.64182   -17530.012   -255.27467 
   85600    274.00255   -17430.194    78.407958   -17508.601   -5320.5136 
   85800    313.35829   -17431.018    89.669907   -17520.688   -4077.3242 
   86000    267.24819   -17442.283    76.475146   -17518.758    2790.8912 
   86200    299.52402   -17440.686    85.711124   -17526.398    8972.7336 
   86400    277.05716    -17442.93    79.282058   -17522.212    3382.8917 
   86600    337.72721    -17419.11    96.643264   -17515.753   -5641.9914 
   86800    280.86416   -17442.892    80.371461   -17523.264     2153.494 
   87000    272.68863   -17448.112    78.031969   -17526.144    7149.2169 
   87200    311.61725   -17425.115    89.171696   -17514.287    5091.7152 
   87400    343.36137   -17428.279    98.255522   -17526.534     1238.195 
   87600    315.94696   -17443.601    90.410676   -17534.012    9457.4156 
   87800        336.4   -17426.887    96.263472    -17523.15    256.00328 
   88000    299.11646    -17448.49    85.594496   -17534.084    2068.8324 
   88200    281.59862   -17442.465    80.581633   -17523.046   -4471.6773 
   88400    381.44846   -17426.474    109.15444   -17535.629   -1138.0042 
   88600    309.72698   -17436.199    88.630779    -17524.83    1189.4825 
   88800    286.83619     -17447.2    82.080402   -17529.281   -1225.0509 
   89000    288.39111   -17435.223    82.525356   -17517.748   -1024.4407 
   89200    310.45087   -17432.336    88.837927   -17521.174    6162.4597 
   89400    284.44753   -17447.516     81.39687   -17528.913    4913.8598 
   89600    283.38233   -17440.906    81.092055   -17521.998   -2336.1885 
   89800    328.88006   -17412.273    94.111584   -17506.385   -3339.5915 
   90000    324.49357   -17431.757    92.856354   -17524.613    4449.8515 
   90200    301.67187   -17443.901    86.325748   -17530.227   -4207.9971 
   90400    305.25085   -17442.603      87.3499   -17529.953    2840.1591 
   90600    329.24115   -17426.841    94.214911   -17521.056   -11640.618 
   90800    277.50201   -17439.926    79.409354   -17519.335    5781.9321 
   91000    300.24115   -17436.408    85.916336   -17522.324   -10785.755 
   91200    267.87731   -17451.607    76.655173   -17528.262    32.282159 
   91400    304.70943   -17443.338    87.194969   -17530.533    7545.4317 
   91600    287.52196   -17432.824     82.27664     -17515.1    4665.9849 
   91800    272.74634   -17449.373    78.048482   -17527.422    11289.486 
   92000    233.98976   -17467.718    66.957987   -17534.676   -152.16349 
   92200     282.1682   -17438.892    80.744622   -17519.637    -1423.446 
   92400    321.52161   -17439.725    92.005904   -17531.731    1034.3391 
   92600    273.95757   -17453.225    78.395085    -17531.62    6793.1981 
   92800    342.47059   -17428.441     98.00062   -17526.442   -731.85414 
   93000    295.08285   -17446.586    84.440249   -17531.026   -1871.8747 
   93200    296.27149   -17439.796    84.780388   -17524.577    5710.3524 
   93400    293.51957   -17429.823    83.992905   -17513.816    8095.5898 
   93600    301.27136   -17449.401    86.211139   -17535.612   -9241.0468 
   93800     301.8314   -17438.489      86.3714    -17524.86    -1514.523 
   94000    325.78361   -17429.248    93.225509   -17522.474   -1243.7291 
   94200    279.11973   -17450.097    79.872277   -17529.969   -10305.547 
   94400    315.69843   -17434.341    90.339556   -17524.681   -6407.4268 
   94600    295.41734   -17431.267    84.535966   -17515.803   -17128.629 
   94800    288.96792   -17448.523    82.690414   -17531.214   -12194.219 
   95000    301.21307   -17440.761    86.194458   -17526.955   -5678.6951 
   95200    269.82754   -17444.575    77.213245   -17521.789   -8669.8931 
   95400    249.19888   -17468.574    71.310194   -17539.885    208.27776 
   95600    273.44206   -17446.794    78.247568   -17525.041   -1017.8455 
   95800    298.40734   -17437.275    85.391577   -17522.666   -4414.3124 
   96000     276.1666   -17458.059    79.027216   -17537.086    2429.5915 
   96200    313.82427   -17446.512    89.803252   -17536.316   -815.92063 
   96400    323.05101   -17435.359    92.443554   -17527.802   -5867.2536 
   96600    305.95259   -17448.958    87.550709   -17536.509    2485.3744 
   96800    285.13854   -17455.852    81.594608   -17537.446    6788.0294 
   97000    291.80922   -17439.536    83.503475   -17523.039    -2873.361 
   97200    323.61927   -17437.625    92.606168   -17530.231    2863.1557 
   97400    248.13503   -17460.936    71.005765   -17531.942    7972.1479 
   97600    239.08035   -17462.142    68.414698   -17530.556    2192.0364 
   97800    310.18751   -17437.048    88.762564    -17525.81    3978.3425 
   98000    307.09124   -17437.167    87.876544   -17525.044   -40.807523 
   98200    279.60182   -17451.875    80.010232   -17531.886   -1028.4877 
   98400    312.61194     -17445.4    89.456333   -17534.856     1281.996 
   98600    299.46228   -17436.394    85.693457   -17522.087   -6396.5329 
   98800    286.11177   -17449.266    81.873104   -17531.139   -4262.3737 
   99000    281.37866   -17463.523    80.518687   -17544.042    1083.7022 
   99200    301.24411   -17441.355     86.20334   -17527.558   -2052.2447 
   99400    324.16826   -17434.724    92.763264   -17527.487    602.86866 
   99600    259.74766   -17451.435     74.32881   -17525.764    855.72303 
   99800    315.27897    -17437.98    90.219527   -17528.199    5065.2829 
  100000    299.76165   -17436.122    85.779122   -17521.901    1781.4502 
  100200    293.43029   -17442.688    83.967355   -17526.655   -1078.6443 
  100400    319.80217   -17418.021    91.513875   -17509.534   -10887.085 
  100600    304.11795   -17439.448    87.025714   -17526.474   -540.84638 
  100800    314.23441   -17442.607    89.920618   -17532.527    4861.6868 
  101000    316.25111   -17438.781    90.497711   -17529.279    11709.705 
  101200    331.27425   -17429.891    94.796698   -17524.687     11805.77 
  101400    306.30412   -17453.109    87.651301    -17540.76    10690.693 
  101600    271.32975   -17441.146    77.643115   -17518.789    8204.9859 
  101800    327.96685   -17438.886     93.85026   -17532.736    2147.3824 
  102000    308.31251   -17444.922    88.226018   -17533.148   -3990.2632 
  102200    273.22343   -17443.788    78.185005   -17521.973    5334.6062 
  102400     314.7809   -17428.922    90.076998   -17518.999   -3407.2187 
  102600    301.73833   -17452.884    86.344767   -17539.228   -3157.1008 
  102800     344.7543   -17443.484     98.65412   -17542.138   -2031.3029 
  103000    342.78166   -17429.044    98.089634   -17527.133    2535.7855 
  103200    294.25663   -17442.468    84.203819   -17526.672    6535.5641 
  103400    257.97026   -17450.869    73.820193    -17524.69    7761.9927 
  103600    334.82181   -17428.479     95.81186    -17524.29   -1256.2873 
  103800    316.28972   -17443.983    90.508759   -17534.492   -6172.6828 
  104000    299.64937   -17450.377    85.746993   -17536.124   -4458.0142 
  104200    324.47957   -17437.937    92.852349    -17530.79   -1166.8976 
  104400    315.31337   -17445.266     90.22937   -17535.495     7949.131 
  104600    307.42323   -17454.359    87.971544   -17542.331    10672.763 
  104800    344.84175   -17430.631    98.679144    -17529.31   -242.91672 
  105000     287.3888   -17446.987    82.238538   -17529.225    -9660.487 
  105200    240.83072   -17469.301    68.915581   -17538.217    140.64853 
  105400    285.32074    -17448.65    81.646744   -17530.297    689.35836 
  105600    340.70842   -17431.908     97.49636   -17529.404    6703.5797 
  105800    285.95148   -17451.865    81.827236   -17533.693    8003.4248 
  106000    347.09253   -17429.012    99.323222   -17528.335    2789.3084 
  106200    310.68872   -17436.288    88.905989   -17525.194   -10306.609 
  106400    256.61034   -17460.149    73.431042    -17533.58   -8276.4891 
  106600    296.42494   -17451.552    84.824298   -17536.376   -117.00354 
  106800    349.62947   -17433.867    100.04919   -17533.916   -2307.2436 
  107000    295.27721   -17445.481    84.495868   -17529.976    617.05458 
  107200    270.32193   -17448.182    77.354718   -17525.537    4786.0545 
  107400    277.49444   -17438.045     79.40719   -17517.453    4643.9299 
  107600    282.37401   -17449.171    80.803516   -17529.974    3301.4302 
  107800    261.78437   -17446.993    74.911632   -17521.905    3506.8421 
  108000    292.95795    -17433.38    83.832193   -17517.212    6217.4343 
  108200    288.81762   -17438.948    82.647406   -17521.596    4393.1143 
  108400    243.15702   -17463.565     69.58127   -17533.146    11945.851 
  108600    301.99799   -17443.117    86.419071   -17529.536    9710.3434 
  108800    312.28572   -17436.178    89.362985   -17525.541   -2068.0054 
  109000    285.31058   -17446.111    81.643837   -17527.755    6268.2902 
  109200    286.66565   -17445.348    82.031602    -17527.38    4235.9846 
  109400      326.295   -17431.491    93.371849   -17524.863    1270.8812 
  109600    254.66018   -17462.505    72.872989   -17535.378    359.21722 
  109800    286.11749   -17443.595    81.874741    -17525.47    6861.3063 
  110000    316.97099   -17431.021    90.703711   -17521.725    10087.522 
  110200    310.52687   -17448.615    88.859675   -17537.475    4648.2812 
  110400    285.01438   -17445.727    81.559077   -17527.287   -3706.2346 
  110600    350.74966   -17434.668    100.36974   -17535.038    266.57758 
  110800    299.93463   -17449.044    85.828625   -17534.872   -942.46725 
  111000    269.45992   -17459.079    77.108049   -17536.187   -6961.8024 
  111200    305.74388   -17440.632    87.490984   -17528.123   -15110.369 
  111400    316.58695   -17428.962    90.593814   -17519.556   -9168.7004 
  111600    328.11671   -17429.026    93.893146   -17522.919    2190.3066 
  111800     290.6123   -17451.747    83.160965   -17534.908    8253.2471 
  112000    312.02557   -17431.226     89.28854   -17520.515    4652.6528 
  112200    312.29616   -17439.939    89.365972   -17529.305    7124.7198 
  112400    291.18064   -17445.382    83.323602   -17528.706   -14155.704 
  112600    282.23181   -17419.352    80.762824   -17500.115   -1611.1093 
  112800    316.71556   -17433.772    90.630617   -17524.403    4806.3071 
  113000    309.04937   -17443.707    88.436878   -17532.144    288.48145 
  113200    256.10628   -17459.027    73.286802   -17532.314   -707.07225 
  113400    306.55457   -17445.097    87.722971    -17532.82    1038.7326 
  113600    279.34268   -17437.241    79.936076   -17517.177    2725.1249 
  113800    310.93525   -17435.527    88.976535   -17524.504    6523.2635 
  114000    311.46162   -17441.113    89.127161   -17530.241   -3244.5198 
  114200    297.34416    -17455.29     85.08734   -17540.377   -1551.7911 
  114400    293.74928   -17433.809    84.058637   -17517.868    2637.4296 
  114600    296.61066   -17435.235    84.877443   -17520.112    6478.6988 
  114800     256.3107   -17457.913    73.345296   -17531.258    3074.7486 
  115000    276.50024   -17452.814    79.122691   -17531.937    6383.9734 
  115200    311.20807   -17430.712    89.054606   -17519.767   -230.51268 
  115400    304.80351   -17440.375    87.221891   -17527.597   -11332.071 
  115600    285.33501   -17452.653    81.650828   -17534.304    -1550.104 
  115800    341.51107    -17417.26    97.726045   -17514.986    5818.0167 
  116000    352.90061   -17418.697    100.98525   -17519.683    7564.6046 
  116200    284.34191   -17442.052    81.366647   -17523.418    4804.2043 
  116400    288.19447   -17439.085    82.469085   -17521.554   -3971.2349 
  116600    272.24775   -17450.114    77.905808    -17528.02   -3988.2975 
  116800      291.647   -17444.805    83.457055   -17528.262   -1052.4957 
  117000    289.41762   -17433.761      82.8191    -17516.58    2574.3838 
  117200    336.01942   -17438.966    96.154565    -17535.12   -1007.8744 
  117400    288.62981   -17457.355     82.59366   -17539.948   -1437.9759 
  117600    314.39753   -17436.543    89.967294    -17526.51    4690.8576 
  117800    302.05622   -17431.745    86.435731   -17518.181    2276.3994 
  118000    235.47548   -17457.441    67.383137   -17524.824   -3840.7211 
  118200     307.7453   -17439.542    88.063707   -17527.606   -7189.7093 
  118400    329.11901   -17436.728    94.179962   -17530.908    6123.7181 
  118600    304.62959   -17450.222    87.172124   -17537.394    688.87133 
  118800    332.84593   -17433.377    95.246447   -17528.624   -134.20577 
  119000    285.12994   -17448.532    81.592146   -17530.124      3126.01 
  119200    292.16146   -17454.271    83.604269   -17537.875   -2746.5664 
  119400     281.1945   -17436.831     80.46599   -17517.297   -5143.3138 
  119600    327.11817   -17438.874    93.607404   -17532.481    11826.093 
  119800      284.558   -17460.628    81.428482   -17542.056   -911.03081 
  120000     299.7902   -17443.708    85.787293   -17529.495    4446.1814 
  120200    326.26524   -17437.754    93.363331   -17531.117    9747.2941 
  120400    304.01953   -17440.304     86.99755   -17527.301   -110.25475 
  120600    320.26209   -17444.051    91.645482   -17535.697   -2757.6812 
  120800    299.17797    -17456.92    85.612099   -17542.532   -5885.7091 
  121000    297.90182   -17428.584     85.24692   -17513.831   -2076.6113 
  121200    296.08564   -17441.612    84.727205    -17526.34   -7402.1893 
  121400    332.69843    -17441.11    95.204238   -17536.314   -990.08994 
  121600    268.55215   -17457.029    76.848283   -17533.877   -1865.0826 
  121800    305.70631   -17449.384    87.480234   -17536.865   -3041.3887 
  122000     333.2861   -17433.584    95.372406   -17528.956    -5519.491 
  122200    258.34747   -17452.152    73.928134    -17526.08    3532.0952 
  122400    301.04047   -17448.506    86.145067   -17534.651    4023.0606 
  122600     297.4243   -17436.804    85.110272   -17521.914    354.82247 
  122800    306.54318   -17436.135    87.719712   -17523.854    -6268.158 
  123000    295.13865   -17441.179    84.456216   -17525.635    1930.2733 
  123200    251.92151   -17462.916    72.089295   -17535.005   -3352.0345 
  123400    290.65173   -17444.716    83.172248   -17527.888     3573.684 
  123600     357.5504   -17431.936    102.31582   -17534.252   -3207.5009 
  123800    311.75949   -17446.391    89.212398   -17535.603    198.73014 
  124000    302.15643   -17453.225    86.464407   -17539.689    4160.3699 
  124200    322.12153   -17427.478    92.177578   -17519.656    5944.5072 
  124400    291.99628   -17441.503    83.557003    -17525.06   -2108.5328 
  124600    239.78227   -17451.317    68.615557   -17519.933    14908.512 
  124800    294.89921   -17440.702    84.387699    -17525.09    4614.9904 
  125000    337.86444   -17420.366    96.682532   -17517.048   -1572.4692 
  125200    302.65081   -17440.691    86.605878   -17527.296    6597.9077 
  125400    269.17109    -17448.63    77.025398   -17525.655   -1637.2792 
  125600    348.90633   -17425.826    99.842256   -17525.668   -10019.912 
  125800    276.77997    -17440.14    79.202737   -17519.343   -3660.4181 
  126000    313.06737   -17438.325     89.58666   -17527.912   -1385.0945 
  126200     308.0343   -17444.001    88.146407   -17532.147    724.15344 
  126400    275.96833   -17460.646    78.970481   -17539.616    5135.9465 
  126600    335.84558   -17436.642    96.104821   -17532.746    9382.0876 
  126800    274.64196   -17436.271    78.590929   -17514.862    530.49895 
  127000    281.79451   -17443.174    80.637688   -17523.812   -6122.8444 
  127200    286.29091   -17457.465    81.924367    -17539.39    324.92431 
  127400    304.77859   -17429.339    87.214761   -17516.554   -6569.1933 
  127600    327.88761   -17438.363    93.827585   -17532.191   -9064.7364 
  127800    294.19649    -17445.44    84.186611   -17529.626   -8572.9478 
  128000    309.36372   -17441.108     88.52683   -17529.634   -5643.0189 
  128200    277.50036   -17455.726    79.408882   -17535.134    4416.7139 
  128400    315.59119   -17435.939     90.30887   -17526.248     444.6636 
  128600    314.29541   -17442.444    89.938071   -17532.382   -3872.6532 
  128800    263.77564   -17467.147    75.481447   -17542.629    2836.1664 
  129000    287.27901   -17447.762     82.20712   -17529.969   -4517.7745 
  129200    299.43049   -17440.613    85.684361   -17526.297   -291.78979 
  129400    304.80023   -17427.192    87.220953   -17514.413   -17676.962 
  129600    256.23994   -17449.111    73.325049   -17522.436    4092.6605 
  129800      317.259   -17438.988    90.786127   -17529.774    4309.0171 
  130000    299.07076   -17439.631    85.581421   -17525.213     2466.446 
  130200    285.86877   -17454.073    81.803569   -17535.876   -2553.1594 
  130400    322.07326   -17431.181    92.163763   -17523.345    -8373.786 
  130600    306.90032   -17439.712    87.821909   -17527.534   -13804.311 
  130800    288.31396   -17443.064    82.503278   -17525.568   -6352.7975 
  131000     311.4509   -17412.504    89.124093   -17501.628   -11537.641 
  131200    365.46123   -17434.905    104.57957   -17539.484   -2051.4068 
  131400    308.32333   -17444.774    88.229115   -17533.003    -1963.703 
  131600    322.41157   -17429.133    92.260576   -17521.393     11256.14 
  131800    301.14858   -17448.884    86.176003    -17535.06    3064.3933 
  132000    291.37746   -17451.945    83.379922   -17535.325    1203.2452 
  132200    277.84775   -17431.649    79.508292   -17511.158   -505.11615 
  132400    328.43998   -17444.645    93.985649    -17538.63    3873.0386 
  132600    271.33868   -17455.555     77.64567   -17533.201    1331.5763 
  132800    321.16582   -17441.307    91.904093   -17533.211    -1077.996 
  133000    322.05628   -17426.786    92.158906   -17518.945   -6742.5861 
  133200     287.1558   -17428.415    82.171861   -17510.587   -12950.839 
  133400    290.31417   -17443.711    83.075653   -17526.787   -7356.7163 
  133600    302.10457   -17433.799    86.449569   -17520.249   -9454.5328 
  133800    319.13212   -17426.379    91.322134   -17517.701   -2430.3044 
  134000    284.48604   -17443.315    81.407889   -17524.723    11742.676 
  134200      264.835   -17436.304    75.784593   -17512.088    4287.3674 
  134400    318.29619   -17425.596    91.082925   -17516.679    13949.887 
  134600    332.07778   -17440.146    95.026636   -17535.173     5225.812 
  134800    314.98434   -17446.628    90.135214   -17536.763    901.86389 
  135000    331.49206   -17422.475    94.859026   -17517.334    4471.4148 
  135200    301.51414   -17446.987    86.280613   -17533.268    4160.0029 
  135400    291.14858   -17442.282    83.314426   -17525.596   -7964.6962 
  135600    322.12359   -17423.172    92.178165   -17515.351    2391.2423 
  135800    323.38609   -17431.596     92.53944   -17524.136    -1463.616 
  136000    306.02406   -17448.482    87.571161   -17536.054    7849.7729 
  136200    302.14396   -17431.779     86.46084    -17518.24    4524.8227 
  136400    336.57802   -17431.949    96.314414   -17528.264    1280.0801 
  136600    293.16549   -17441.956    83.891582   -17525.848    -610.3903 
  136800    261.12691   -17453.555    74.723493   -17528.278   -538.25062 
  137000    307.53844   -17449.457    88.004513   -17537.461    7081.1237 
  137200     314.9124    -17431.67    90.114628   -17521.785    3599.0354 
  137400    279.74355   -17445.255     80.05079   -17525.306    1508.6752 
  137600    257.98869    -17458.63    73.825467   -17532.456   -4784.7554 
  137800    291.65883   -17438.963    83.460439   -17522.424   -2061.6255 
  138000     261.1626   -17444.994    74.733705   -17519.728   -2753.3194 
  138200    275.43614   -17457.749     78.81819   -17536.567   -8141.2987 
  138400    302.59123    -17441.57    86.588831   -17528.159   -3648.2859 
  138600    266.95022   -17444.901    76.389877   -17521.291    9621.4025 
  138800    230.89963   -17461.102    66.073721   -17527.175    3440.0201 
  139000    291.52973   -17434.558    83.423495   -17517.982    6177.4374 
  139200     316.5101   -17436.585    90.571822   -17527.157   -3222.2944 
  139400    288.03709   -17458.906    82.424051    -17541.33   -3649.9046 
  139600    310.88753   -17442.851     88.96288   -17531.814   -4446.8051 
  139800    286.77106   -17438.586    82.061766   -17520.647    -4959.625 
  140000    282.59126   -17443.243    80.865684   -17524.108    3955.5185 
  140200    284.80833   -17446.142    81.500117   -17527.642   -4280.5013 
  140400    268.12104   -17433.569    76.724917   -17510.294    1735.9251 
  140600    346.69088   -17428.822    99.208286    -17528.03   -988.18272 
  140800    317.06843   -17449.777    90.731593   -17540.508   -2679.8383 
  141000    329.81251   -17430.905     94.37841   -17525.283   -8009.0611 
  141200    282.68256   -17453.106    80.891809   -17533.998    3813.9596 
  141400    285.01564   -17443.659    81.559439   -17525.218    -10230.12 
  141600      286.487   -17434.044    81.980479   -17516.024   -2328.8175 
  141800    310.68482   -17451.444    88.904872   -17540.349   -5230.8805 
  142000    287.59236   -17452.521    82.296788   -17534.818   -731.72076 
  142200    295.01174   -17435.207      84.4199   -17519.627   -2108.8702 
  142400    290.32588   -17444.031    83.079005    -17527.11    4533.0371 
  142600    239.27051   -17456.386    68.469113   -17524.855   -6504.5249 
  142800    329.44935     -17429.4     94.27449   -17523.675   -1629.6432 
  143000    285.30967   -17447.874    81.643577   -17529.518   -1022.2611 
  143200    337.38928    -17427.24    96.546562   -17523.787    2715.0246 
  143400    309.02118   -17428.478     88.42881   -17516.907    7412.7944 
  143600    296.95256    -17444.26    84.975281   -17529.235   -12320.349 
  143800    293.49082   -17439.747    83.984677   -17523.731   -61.711274 
  144000    308.65796   -17424.571    88.324873   -17512.896   -10348.075 
  144200    280.72531   -17451.373    80.331727   -17531.705    3544.6413 
  144400    320.43461   -17435.625    91.694853    -17527.32   -10678.769 
  144600    278.06997   -17435.903    79.571882   -17515.475    1758.4073 
  144800    338.14196   -17432.345    96.761947   -17529.107   -9524.4033 
  145000    272.47183   -17456.853    77.969929   -17534.823   -5668.7576 
  145200    259.84123   -17444.332    74.355585   -17518.687    4886.8708 
  145400     316.8549   -17438.387     90.67049   -17529.058   -5742.8424 
  145600    261.89498   -17451.219    74.943282   -17526.162   -680.70851 
  145800    271.63949   -17449.606    77.731749   -17527.338      6973.86 
  146000    309.00172   -17434.018    88.423241   -17522.441    9997.9368 
  146200    258.91851   -17446.505    74.091542   -17520.597   -791.08898 
  146400    269.71989    -17455.69    77.182442   -17532.873    11092.633 
  146600    330.14391   -17431.771    94.473242   -17526.244    7407.3079 
  146800    285.63979   -17444.882    81.738043    -17526.62    11192.205 
  147000    250.50229   -17458.311    71.683175   -17529.994    7774.2465 
  147200    290.70501   -17437.221    83.187496   -17520.409     -1363.09 
  147400    297.11945   -17445.774    85.023038   -17530.797     6975.999 
  147600    323.06064   -17445.047     92.44631   -17537.493   -4972.9548 
  147800    322.99508    -17424.97     92.42755   -17517.398    6993.8272 
  148000    286.80931   -17447.349    82.072712   -17529.422   -754.95479 
  148200     285.1123   -17445.531    81.587098   -17527.118   -2474.1866 
  148400    289.62152    -17429.15    82.877448   -17512.028   -7200.6643 
  148600    274.85485   -17437.705    78.651848   -17516.357    10582.578 
  148800    322.80336   -17442.385    92.372688   -17534.757    3435.9694 
  149000    294.42024   -17438.727    84.250639   -17522.978    4150.1141 
  149200    329.51221   -17433.411    94.292477   -17527.703    9698.2535 
  149400    256.88359   -17452.665    73.509234   -17526.174   -2810.3092 
  149600    331.36567   -17422.162    94.822859   -17516.984    7001.1532 
  149800    304.54203   -17438.499    87.147067   -17525.646    -4907.371 
  150000    286.52866       -17445      81.9924   -17526.993   -5293.2921 
  150200    318.60214   -17425.191    91.170475   -17516.362   -1701.1988 
  150400    299.60117    -17418.97      85.7332   -17504.703   -152.74856 
  150600    309.89411    -17439.27    88.678605   -17527.949    564.09859 
  150800    287.84475   -17443.591    82.369012    -17525.96    4486.9077 
  151000    314.55515   -17424.985    90.012399   -17514.997    8551.5088 
  151200    294.82982   -17446.507    84.367842   -17530.875    6955.7122 
  151400    337.42047   -17439.952    96.555486   -17536.507    5698.3708 
  151600    315.82787   -17440.887    90.376597   -17531.264   -3603.6661 
  151800    265.88976   -17464.056    76.086421   -17540.143    4905.7861 
  152000    289.59527   -17444.297    82.869936   -17527.167   -1230.3172 
  152200    318.34182   -17430.871    91.095983   -17521.967   -3696.7605 
  152400    277.12886    -17451.01    79.302576   -17530.312   -2572.1887 
  152600      256.682   -17447.233    73.451547   -17520.685   -4134.0021 
  152800    307.86134   -17432.263    88.096913    -17520.36   -10416.552 
  153000    300.98399   -17445.941    86.128907    -17532.07   -4082.1911 
  153200    252.47431   -17468.321    72.247486   -17540.569    5502.1013 
  153400    268.40009   -17446.286    76.804769   -17523.091   -1122.6868 
  153600    296.75432   -17429.604    84.918553   -17514.523   -1867.6202 
  153800    294.28888   -17448.628    84.213048   -17532.841    1719.9343 
  154000     278.9173   -17448.642     79.81435   -17528.456    737.72765 
  154200    307.77139   -17428.973    88.071172   -17517.044      805.182 
  154400    296.74338   -17437.161    84.915422   -17522.077    10444.735 
  154600    294.98098   -17441.741    84.411098   -17526.152    11890.453 
  154800    311.98726   -17427.951    89.277576   -17517.229    12234.015 
  155000    234.82816   -17449.987    67.197901   -17517.185   -6522.8249 
  155200    288.94794   -17442.733    82.684696   -17525.418   -10799.927 
  155400    374.12932   -17413.543    107.06001   -17520.603    5763.7712 
  155600    384.17739   -17414.803    109.93534   -17524.738    1061.2218 
  155800    291.18129   -17444.765    83.323788   -17528.088   -4097.7052 
  156000    238.86527   -17448.454    68.353152   -17516.807   -1209.5279 
  156200    317.57423   -17430.014    90.876331    -17520.89   -3506.1836 
  156400    290.38356    -17446.23    83.095512   -17529.325   -6712.7934 
  156600    263.73561   -17449.463    75.469994   -17524.933     3773.985 
  156800    326.83936   -17430.109     93.52762   -17523.636     -4278.49 
  157000    278.23893     -17445.5    79.620231   -17525.121   -3443.0706 
  157200    300.75351   -17455.595    86.062951   -17541.658   -3835.0573 
  157400     342.7372   -17432.506    98.076912   -17530.583   -952.04098 
  157600    309.01586   -17434.719    88.427288   -17523.146   -754.17848 
  157800    263.29548   -17454.073    75.344046   -17529.417    9567.6625 
  158000     350.6821   -17432.889    100.35041   -17533.239   -4007.8211 
  158200     282.5326   -17444.102    80.848896   -17524.951   -866.70724 
  158400     264.3947   -17467.869    75.658595   -17543.528     3019.725 
  158600    270.40141   -17437.377    77.377464   -17514.754    3748.7383 
  158800    315.34645   -17429.933    90.238836   -17520.172   -492.05766 
  159000    272.19473   -17451.873    77.890635   -17529.764    6748.4693 
  159200    265.61502   -17440.121    76.007799   -17516.129    -9072.824 
  159400    361.50673   -17400.851    103.44796   -17504.299   -99.301814 
  159600    332.58095   -17425.165     95.17062   -17520.336    10547.438 
  159800    282.12574   -17450.409     80.73247   -17531.141   -7340.2036 
  160000    337.34316   -17437.345    96.533364   -17533.878    265.22444 
  160200    324.73703   -17433.671    92.926024   -17526.597    4032.5482 
  160400    279.12488   -17461.063    79.873753   -17540.937    3744.3893 
  160600    331.38283   -17438.052     94.82777    -17532.88    889.01404 
  160800    320.02838   -17435.504    91.578607   -17527.082   -6213.9787 
  161000    286.68961   -17456.247    82.038458   -17538.286   -311.67313 
  161200     311.8429   -17436.072    89.236268   -17525.308    6104.1329 
  161400    285.73338   -17438.546    81.764827   -17520.311   -4008.7789 
  161600    283.57497   -17438.446     81.14718   -17519.593   -6119.5556 
  161800    288.94035    -17433.22    82.682525   -17515.902    -3644.337 
  162000    290.43188   -17444.692    83.109338   -17527.801   -1692.4608 
  162200     255.3913   -17460.714    73.082205   -17533.796    -2946.936 
  162400     310.5244    -17432.45    88.858969   -17521.309     3957.665 
  162600    309.38471   -17438.559    88.532837   -17527.092    4320.2861 
  162800    277.59381   -17456.445    79.435623   -17535.881    4175.8861 
  163000    340.17075    -17429.38    97.342501   -17526.723     625.9752 
  163200    295.41069   -17445.925    84.534061   -17530.459    6387.4296 
  163400    283.27609    -17442.77    81.061654   -17523.832    12307.857 
  163600    329.91835   -17428.336    94.408697   -17522.744    6938.5482 
  163800    270.61449   -17444.136    77.438438   -17521.574      6885.05 
  164000    278.05173   -17450.176    79.566662   -17529.742   -640.14011 
  164200    345.03007   -17426.821    98.733034   -17525.554   -6420.5002 
  164400    287.68874   -17444.683    82.324367   -17527.007   -6733.0263 
  164600    275.61089   -17451.226    78.868197   -17530.094    420.79106 
  164800    280.37411   -17428.796    80.231228   -17509.028    5710.4874 
  165000    308.60687   -17444.655    88.310252   -17532.965    3769.8036 
  165200     357.2068   -17436.712     102.2175   -17538.929   -3217.7795 
  165400    324.32446   -17426.552    92.807963    -17519.36   -3790.6096 
  165600    267.56984   -17448.574    76.567188   -17525.141    6786.8285 
  165800     299.4526   -17439.214    85.690687   -17524.905    3837.4258 
  166000    348.63246   -17420.239    99.763885   -17520.003   -322.17125 
  166200    290.36983   -17446.369     83.09158   -17529.461   -1358.0223 
  166400     248.7588   -17442.511    71.184261   -17513.696   -9058.6932 
  166600    317.54512   -17427.512    90.868003    -17518.38    9416.6712 
  166800    283.36542   -17452.942    81.087215   -17534.029    5834.7748 
  167000    284.22586   -17440.692    81.333436   -17522.025    3569.4139 
  167200    317.74036   -17428.495    90.923872   -17519.419   -6240.3241 
  167400    296.77372   -17451.464    84.924103   -17536.388   -4510.9762 
  167600    293.25519   -17445.672     83.91725    -17529.59   -847.61159 
  167800    314.25393   -17425.256    89.926201   -17515.182   -6863.1902 
  168000     294.7393   -17445.856     84.34194   -17530.198   -1750.7799 
  168200    265.62618   -17449.216    76.010993   -17525.227    2134.2845 
  168400    315.41447   -17421.535    90.258298   -17511.793   -2971.5782 
  168600    327.91835   -17441.969    93.836383   -17535.805    -7678.394 
  168800    301.95033   -17445.986     86.40543   -17532.392    2030.0537 
  169000    299.33123   -17436.754    85.655956    -17522.41   -1840.9693 
  169200    286.69022   -17443.678    82.038632   -17525.717   -6695.1877 
  169400    280.91223   -17444.467    80.385214   -17524.853     6916.272 
  169600    316.74598    -17422.83    90.639322    -17513.47   -4565.9197 
  169800    267.91642   -17449.395    76.666363   -17526.061    1522.4019 
  170000     304.2181   -17438.763    87.054372   -17525.818   -652.81342 
  170200     327.5636   -17415.051    93.734867   -17508.786    5731.2668 
  170400    302.88259   -17433.669    86.672204   -17520.341    5716.4998 
  170600    268.99096   -17449.164     76.97385   -17526.138    3303.2188 
  170800    285.95769   -17443.641    81.829014    -17525.47    11706.317 
  171000     345.7379    -17424.66    98.935585   -17523.596     4604.643 
  171200    326.83118   -17446.144     93.52528    -17539.67   -5523.6986 
  171400    290.15075   -17442.246    83.028891   -17525.275   -1011.1732 
  171600    296.00642   -17417.612    84.704535   -17502.317   -8178.7317 
  171800    300.11759   -17440.902    85.880978   -17526.783   -5481.6084 
  172000    281.47641   -17443.703    80.546659   -17524.249    6099.1957 
  172200    366.26436   -17414.609    104.80939   -17519.418   -654.20478 
  172400    306.94952   -17438.576    87.835988   -17526.412    4673.2518 
  172600    334.11214   -17439.943    95.608782   -17535.552    10864.166 
  172800    313.56728   -17429.546    89.729713   -17519.276   -516.81101 
  173000     282.1955   -17448.315    80.752433   -17529.067    -3093.805 
  173200    274.51047   -17440.109    78.553302   -17518.662   -7271.2875 
  173400    279.33605   -17433.437    79.934179   -17513.371   -17868.343 
  173600    261.83809   -17463.412    74.927003   -17538.339   -8799.7149 
  173800    305.98427   -17448.762    87.559776   -17536.321   -2488.0067 
  174000    309.18319   -17435.017    88.475172   -17523.492    3178.8158 
  174200     308.0163   -17444.314    88.141256   -17532.455    8323.9988 
  174400    251.19935   -17460.192    71.882644   -17532.074    3642.1659 
  174600    301.63018   -17439.251    86.313817   -17525.565    1776.0578 
  174800    348.95994   -17426.467    99.857596   -17526.325    3739.5103 
  175000     278.8709   -17449.378    79.801073    -17529.18    2090.6324 
  175200    306.17444   -17436.797    87.614194   -17524.411   -2215.9883 
  175400    310.86339    -17410.42    88.955973   -17499.376    7529.7512 
  175600     296.9352   -17431.882    84.970314   -17516.853    4633.9266 
  175800    298.92698   -17450.645    85.540275   -17536.186   -7307.2976 
  176000    294.87411   -17429.649    84.380515    -17514.03    3887.7326 
  176200    286.33915   -17440.041    81.938172    -17521.98    3760.9406 
  176400    288.15566   -17442.961     82.45798   -17525.419    5246.8204 
  176600    286.90259   -17424.831    82.099403   -17506.931    5920.8628 
  176800    301.68718   -17441.976    86.330129   -17528.307    383.45284 
  177000    341.05983   -17437.949     97.59692   -17535.546   -4197.8388 
  177200    296.56049    -17449.01    84.863088   -17533.873    2719.0481 
  177400    339.53165   -17443.777    97.159617   -17540.937   -1251.9384 
  177600     297.1034   -17427.021    85.018445    -17512.04    -2590.365 
  177800    304.48476   -17449.818    87.130679   -17536.948   -4830.7257 
[...]
  950000    379.03421   -17409.892    108.46358   -17518.355    626.51803 
  950200    300.42979   -17437.888    85.970318   -17523.858    5101.8474 
  950400     269.2591   -17455.792    77.050581   -17532.843   -1880.3962 
  950600    321.93241   -17436.821    92.123459   -17528.944    -7159.214 
  950800    309.20358   -17435.472    88.481004   -17523.953   -3638.3148 
  951000    296.44644   -17453.857     84.83045   -17538.687    4913.7089 
  951200    313.89428   -17442.191    89.823286   -17532.015   -4435.0038 
  951400    314.71173   -17438.083    90.057206    -17528.14    201.28565 
  951600    285.95536   -17451.977    81.828346   -17533.806    270.11637 
  951800    298.30977   -17441.163    85.363658   -17526.527    1016.5466 
  952000    310.96984   -17433.286    88.986434   -17522.272   -8890.3845 
  952200    241.35703   -17461.139    69.066188   -17530.206    610.78078 
  952400    322.10359    -17438.67    92.172445   -17530.843    1338.1004 
  952600    320.07405   -17441.201    91.591675   -17532.793     2393.732 
  952800    235.39313   -17461.066    67.359571   -17528.426    -9457.001 
  953000    262.77128   -17441.359    75.194042   -17516.553   -7977.2257 
  953200    281.74341   -17440.433    80.623066   -17521.056    2815.9565 
  953400    247.95279   -17463.373    70.953617   -17534.327    2208.2732 
  953600    297.50175   -17449.635    85.132435   -17534.767     12670.12 
  953800     325.9092   -17439.095    93.261448   -17532.356    7343.8591 
  954000    294.67795    -17438.91    84.324384   -17523.235   -6975.2288 
  954200     291.3023   -17452.532    83.358415   -17535.891   -2973.8717 
  954400    270.12225    -17455.64     77.29758   -17532.938   -6610.1602 
  954600    304.47662   -17434.271    87.128348   -17521.399    5822.2245 
  954800    283.79188   -17452.077    81.209251   -17533.287   -7533.3193 
  955000     281.6503   -17446.139     80.59642   -17526.735   -599.67114 
  955200    295.97758   -17435.083    84.696284    -17519.78     750.5976 
  955400    276.57185   -17453.362    79.143182   -17532.505   -3460.7505 
  955600    229.63123   -17470.194    65.710761   -17535.905   -1197.1576 
  955800    301.39237   -17441.646    86.245766   -17527.892    11833.738 
  956000    331.13693   -17432.897    94.757403   -17527.655    786.77354 
  956200     259.5061   -17455.915    74.259687   -17530.175    4285.7955 
  956400    290.22522   -17442.274    83.050201   -17525.325     2870.018 
  956600    313.66098   -17437.766    89.756525   -17527.523    5198.2329 
  956800    288.35297   -17448.034    82.514441   -17530.548   -210.22678 
  957000    315.81834    -17429.33    90.373869   -17519.704   -1555.1342 
  957200    328.14239   -17430.932    93.900494   -17524.832    9349.4843 
  957400    282.05445   -17450.282     80.71207   -17530.994   -1793.3718 
  957600    294.66338   -17436.047    84.320213   -17520.367   -6483.2852 
  957800     305.4867   -17438.655    87.417391   -17526.072     4333.704 
  958000    311.90395   -17451.056    89.253736   -17540.309   -4383.3374 
  958200     314.5016   -17448.332    89.997075   -17538.329    4170.6021 
  958400    314.59324   -17439.158      90.0233   -17529.182    7310.9116 
  958600    292.74895   -17454.951    83.772384   -17538.723    757.40168 
  958800    290.21954   -17453.816    83.048574   -17536.865    4615.3448 
  959000     290.3342    -17438.88    83.081387   -17521.961    4785.1344 
  959200     286.9197   -17450.394    82.104299   -17532.498    1023.0922 
  959400    296.22214   -17459.789    84.766266   -17544.555    98.716469 
  959600    310.85494   -17434.099    88.953555   -17523.052    2023.3511 
  959800    315.25124   -17441.594    90.211589   -17531.806     3648.583 
  960000    292.77072   -17453.359    83.778614   -17537.137   -7566.7694 
  960200     270.2222   -17437.693    77.326181   -17515.019   -1241.7371 
  960400    296.41707   -17449.039    84.822046   -17533.861    1100.7936 
  960600    292.05009   -17447.353    83.572401   -17530.925   -394.71183 
  960800    296.49022   -17436.556    84.842979   -17521.399   -3158.1005 
  961000    247.19357   -17456.691    70.736359   -17527.427   -3368.9987 
  961200    329.65766   -17429.021    94.334098   -17523.355   -605.83746 
  961400    300.99205   -17444.482    86.131212   -17530.613    1057.1607 
  961600    286.33692   -17449.588    81.937534   -17531.525    -1278.538 
  961800    327.46911   -17420.592    93.707828     -17514.3   -101.42661 
  962000    289.05002    -17437.45    82.713909   -17520.164   -8790.5377 
  962200     285.7414    -17450.32    81.767122   -17532.087   -3176.1172 
  962400    330.49973   -17426.595    94.575063    -17521.17   -2853.9891 
  962600    342.96148   -17437.008    98.141091   -17535.149    8933.4248 
  962800    287.79091       -17449    82.353603   -17531.354   -5570.4518 
  963000    347.08837   -17418.985    99.322032   -17518.307   -10324.134 
  963200    344.05132   -17432.676    98.452957   -17531.129   -7503.3288 
  963400      295.817   -17451.504    84.650332   -17536.154   -5435.1381 
  963600    322.10041   -17437.588    92.171533   -17529.759    7268.2005 
  963800    289.65519   -17431.908    82.887081   -17514.795   -741.19386 
  964000    286.78632   -17454.108    82.066134   -17536.174    2674.3268 
  964200    301.46154   -17445.576    86.265561   -17531.841   -3037.7401 
  964400    338.28706   -17426.903    96.803469   -17523.706   -7038.9678 
  964600    347.37074   -17427.394    99.402834   -17526.797   -4108.5133 
  964800    293.37701   -17445.179     83.95211   -17529.131    -2902.493 
  965000    264.27416   -17455.966    75.624103    -17531.59   -9557.8842 
  965200    300.51799   -17438.425    85.995555    -17524.42   -15425.624 
  965400    332.47002   -17438.379    95.138879   -17533.518    -5969.428 
  965600    260.92919   -17460.169    74.666915   -17534.836    -3942.257 
  965800    324.53245   -17448.153    92.867481    -17541.02    3851.8346 
  966000    344.27776    -17436.77    98.517753   -17535.288    7072.6025 
  966200     338.7565   -17425.898    96.937803   -17522.836   -6530.1087 
  966400     262.6692   -17452.575    75.164831    -17527.74   -1749.2145 
  966600    307.66122   -17435.712    88.039648   -17523.751     340.0725 
  966800    288.97259   -17435.924    82.691752   -17518.616    2683.6617 
  967000    287.84074   -17441.178    82.367864   -17523.546   -4401.6311 
  967200    316.92969   -17440.363    90.691892   -17531.055   -5856.2083 
  967400    296.94174   -17439.145    84.972185   -17524.118   -8115.7752 
  967600    239.95041    -17458.36    68.663673   -17527.024     -4446.59 
  967800     297.3292   -17437.528    85.083058   -17522.611   -5549.4065 
  968000    325.95518   -17434.252    93.274606   -17527.527   -798.23535 
  968200     313.3042   -17455.252    89.654429   -17544.907     4836.209 
  968400    330.62285   -17440.489    94.610296     -17535.1    4623.8513 
  968600    327.54089   -17435.522    93.728368   -17529.251    3732.1092 
  968800    307.06859   -17448.709    87.870061   -17536.579    4673.4955 
  969000    282.12852   -17454.143    80.733266   -17534.876    7248.0696 
  969200    316.92852   -17434.902    90.691557   -17525.594   -1401.8202 
  969400    312.22309   -17436.061    89.345062   -17525.406    10044.077 
  969600     270.3995   -17455.859    77.376916   -17533.236    6943.2654 
  969800    322.55303   -17432.873    92.301054   -17525.174    1795.7887 
  970000    304.67645   -17436.177    87.185533   -17523.362   -7450.6655 
  970200    268.21006   -17445.075    76.750392   -17521.825    -8162.087 
  970400    318.08894   -17433.604     91.02362   -17524.628   -6921.5737 
  970600    312.05716   -17426.047    89.297579   -17515.344    2906.6572 
  970800    297.40162    -17451.44    85.103782   -17536.543    3912.2162 
  971000    332.08254   -17432.248    95.027998   -17527.276   -5469.0537 
  971200    328.15023   -17435.741    93.902737   -17529.644   -3401.4916 
  971400    305.76418   -17444.927    87.496796   -17532.424   -11069.604 
  971600    289.24614    -17445.19    82.770029    -17527.96   -7927.0083 
  971800    296.69718   -17436.824    84.902201   -17521.726   -4069.6082 
  972000    326.64226   -17436.317     93.47122   -17529.788    1264.8445 
  972200     303.3542   -17448.439    86.807161   -17535.246   -1335.8825 
  972400    316.16704    -17441.08    90.473653   -17531.553    2176.2364 
  972600    319.53623   -17427.432    91.437774    -17518.87    5075.3987 
  972800     284.2245   -17446.747    81.333047    -17528.08   -1889.7834 
  973000    281.78318   -17450.902    80.634445   -17531.536    34.374319 
  973200    350.64089   -17426.597    100.33861   -17526.936    1470.1374 
  973400    324.25023   -17442.116    92.786722   -17534.903   -1087.9324 
  973600    278.89426   -17454.305    79.807758   -17534.112   -351.22162 
  973800    324.66968   -17427.761    92.906749   -17520.667     5005.168 
  974000    307.88492    -17446.08    88.103662   -17534.184     4930.643 
  974200    282.56169   -17449.842    80.857221   -17530.699   -3423.2791 
  974400    298.13748   -17443.787    85.314355   -17529.102     3052.946 
  974600    321.99629   -17444.567    92.141738   -17536.709    6308.6982 
  974800    286.78145   -17460.855    82.064738   -17542.919   -2923.2475 
  975000    307.54878   -17445.256    88.007473   -17533.263   -1923.9799 
  975200    317.74442   -17435.221    90.925034   -17526.146   -3536.4118 
  975400    268.37601   -17452.653     76.79788   -17529.451   -9437.2468 
  975600    239.89364     -17476.7    68.647426   -17545.348    7339.8923 
  975800    263.65671   -17450.662    75.447413   -17526.109   -1807.1598 
  976000    306.46804   -17435.354     87.69821   -17523.052   -1572.4188 
  976200    343.60492   -17431.863    98.325215   -17530.188    12661.112 
  976400    278.37192   -17453.942    79.658287   -17533.601    2637.9761 
  976600    310.58096   -17435.513    88.875153   -17524.389     -6065.57 
  976800    338.12973   -17418.417    96.758449   -17515.175   -8790.0072 
  977000    291.98592   -17446.995    83.554039   -17530.549   -6154.9225 
  977200    304.71149   -17436.828     87.19556   -17524.024    1839.5607 
  977400    333.70944   -17437.521    95.493549   -17533.014    1512.4307 
  977600    264.32856   -17453.832    75.639671   -17529.472   -3465.6105 
  977800    317.52378   -17428.234    90.861896   -17519.096   -6416.1296 
  978000    335.92159   -17429.322    96.126571   -17525.448   -10589.253 
  978200    314.38911   -17452.211    89.964885   -17542.176    412.04801 
  978400    297.49276   -17443.213    85.129865   -17528.343   -1250.8674 
  978600    303.11197   -17436.675    86.737844   -17523.413    6115.1401 
  978800    271.56712   -17449.592     77.71104   -17527.303    6989.5562 
  979000    241.80593   -17467.422    69.194645   -17536.616    343.98986 
  979200    281.04979   -17441.753     80.42458   -17522.177    8536.3702 
  979400    313.80015   -17438.769     89.79635   -17528.566    11725.251 
  979600    272.61262   -17454.351    78.010217   -17532.362    1242.2004 
  979800    262.92341   -17448.085    75.237576   -17523.322   -3122.2232 
  980000    326.54589   -17428.677    93.443642   -17522.121   -1293.8095 
  980200    262.04748   -17456.026    74.986922   -17531.013    5446.4081 
  980400    267.33291   -17444.741    76.499388   -17521.241    2213.0282 
  980600    319.94764   -17438.901    91.555501   -17530.456   -7673.9279 
  980800     293.6711   -17450.187    84.036267   -17534.223   -2461.4071 
  981000    303.66504   -17437.679    86.896108   -17524.575     -9512.22 
  981200    324.90954   -17435.495    92.975388    -17528.47    1237.9464 
  981400    274.16835   -17455.336    78.455402   -17533.791    4313.7283 
  981600     306.6281   -17434.558     87.74401   -17522.302     5590.322 
  981800    306.71979   -17436.961    87.770249   -17524.732    5565.1445 
  982000    308.77488   -17448.615    88.358329   -17536.974    4454.4711 
  982200    316.06275    -17445.69    90.443811   -17536.134     794.4381 
  982400    312.54534    -17436.94    89.437275   -17526.378    5185.5095 
  982600    268.08351    -17444.47    76.714179   -17521.184    -1696.287 
  982800    267.17037   -17449.544    76.452877   -17525.997   -3895.4021 
  983000    325.29348    -17424.57    93.085255   -17517.656   -2774.8563 
  983200    312.47151   -17437.872    89.416149   -17527.288   -4737.5716 
  983400    312.32134   -17451.896    89.373176   -17541.269   -5684.7974 
  983600    277.45983   -17444.475    79.397284   -17523.872   -8432.2857 
  983800    311.72951   -17434.846     89.20382    -17524.05    1510.1147 
  984000    275.25379   -17449.836    78.766008   -17528.602     1403.662 
  984200    303.81444   -17442.993     86.93886   -17529.932    255.62917 
  984400    316.25372   -17442.817    90.498458   -17533.315    2281.3091 
  984600    316.10625   -17435.237    90.456259   -17525.694   -443.07269 
  984800    326.62693   -17427.405    93.466834   -17520.872    15311.862 
  985000    270.51255   -17449.849    77.409267   -17527.258   -8675.4749 
  985200    319.23437   -17437.176    91.351393   -17528.527   -2214.9909 
  985400    348.89847   -17416.251    99.840006   -17516.091    6030.7383 
  985600     328.8805   -17447.313    94.111709   -17541.425    5566.4256 
  985800    280.91573   -17449.515    80.386217   -17529.901     6597.021 
  986000    287.56311   -17434.822    82.288416   -17517.111   -6767.1869 
  986200     293.0086   -17450.368    83.846687   -17534.215    5628.9387 
  986400    295.11899   -17452.281    84.450592   -17536.731    4714.0715 
  986600    321.33137   -17435.237    91.951468   -17527.188   -2701.2141 
  986800    268.73892   -17450.404     76.90173   -17527.306    -1624.564 
  987000    255.89233    -17465.96    73.225578   -17539.185   -601.96088 
  987200    308.75623   -17441.414    88.352992   -17529.767    -2172.399 
  987400    300.80418   -17442.244    86.077452   -17528.321   -5370.7886 
  987600     279.4321   -17459.029    79.961666   -17538.991   -2904.5812 
  987800    311.57557   -17439.365    89.159767   -17528.525    3228.1578 
  988000    286.84448   -17438.485    82.082775   -17520.568    3220.1753 
  988200    292.96367    -17454.28    83.833828   -17538.113   -1042.6497 
  988400    282.41686   -17447.135    80.815778   -17527.951    334.05368 
  988600    316.98912   -17438.691    90.708897     -17529.4    7109.7345 
  988800    268.43378   -17457.037     76.81441   -17533.851   -2442.4061 
  989000    306.89205   -17440.335    87.819542   -17528.155    932.52652 
  989200    313.18125   -17437.678    89.619245   -17527.297     4400.287 
  989400    250.24059   -17456.007    71.608288   -17527.615    2390.0571 
  989600    249.46353   -17467.652    71.385927   -17539.038    2670.5529 
  989800    296.62647   -17441.112    84.881969   -17525.994    10478.087 
  990000    294.86855   -17436.125    84.378925   -17520.503     2013.668 
  990200    290.48124   -17459.699    83.123463   -17542.823    1003.6284 
  990400    349.66314   -17436.157    100.05882   -17536.216    3657.0032 
  990600    301.51467   -17443.944    86.280764   -17530.225   -1168.1041 
  990800    298.59722   -17443.903    85.445914   -17529.349    172.92441 
  991000    325.51418   -17425.006     93.14841   -17518.155   -5179.4247 
  991200    290.11022   -17442.549    83.017292   -17525.566   -7111.4587 
  991400      287.519   -17450.236    82.275793   -17532.512   -7290.0277 
  991600    328.97492   -17428.483    94.138727   -17522.621    -1930.388 
  991800    323.20281   -17440.996    92.486994   -17533.483     4560.665 
  992000    269.43838   -17447.719    77.101885   -17524.821    7261.3726 
  992200    281.14755   -17433.308    80.452555   -17513.761   -7418.5523 
  992400    245.46169    -17464.16     70.24077     -17534.4     346.7027 
  992600    248.18925   -17447.581    71.021281   -17518.602    359.92341 
  992800     277.7704   -17443.299    79.486156   -17522.786   -6355.9497 
  993000    304.41915   -17440.684    87.111905   -17527.796    5947.1581 
  993200    322.19338   -17440.413    92.198136   -17532.611    7954.7257 
  993400    300.48612   -17453.872    85.986438   -17539.858    3262.9198 
  993600    328.08916   -17435.351    93.885262   -17529.236   -187.72539 
  993800    316.08718   -17414.884    90.450801   -17505.334   -1344.3169 
  994000    335.44241   -17437.479     95.98945   -17533.469   -1739.4909 
  994200    282.65407   -17449.795    80.883657   -17530.679    2400.6538 
  994400     373.4187   -17421.066    106.85666   -17527.922    1315.0244 
  994600     312.2346   -17432.091    89.348355   -17521.439   -442.51057 
  994800    304.64307   -17440.935     87.17598   -17528.111    5623.9236 
  995000    299.31484   -17457.632    85.651265   -17543.283    2700.6848 
  995200    280.07156    -17456.88    80.144653   -17537.025   -2479.8826 
  995400    302.67353   -17442.524    86.612381   -17529.137    2999.9847 
  995600    322.33024   -17427.257      92.2373   -17519.494    5336.0571 
  995800    323.01005   -17425.433    92.431833   -17517.865    6157.5072 
  996000    268.36033     -17451.9    76.793391   -17528.693    7779.3161 
  996200    314.56392   -17437.537    90.014908   -17527.552    -715.7604 
  996400      283.005   -17433.845    80.984079   -17514.829   -7354.4135 
  996600    274.14642   -17462.417    78.449126   -17540.866   -4493.2176 
  996800    296.62942   -17444.028    84.882811   -17528.911   -1768.1216 
  997000    317.88706   -17435.785    90.965851   -17526.751   -4775.7296 
  997200    258.22888   -17461.302    73.894199   -17535.197    5683.3062 
  997400    295.47364   -17447.529    84.552077   -17532.081    4564.2412 
  997600    316.62206   -17439.259    90.603862   -17529.863    5438.2429 
  997800    317.97813   -17435.644    90.991912   -17526.636    3234.4904 
  998000    294.73869    -17454.17    84.341764   -17538.511   -17.000296 
  998200    274.51843   -17434.454     78.55558    -17513.01   -2718.2717 
  998400    298.81127   -17438.972    85.507166   -17524.479   -2129.4365 
  998600    304.24416   -17440.545    87.061829   -17527.607   -5443.5754 
  998800    311.14277   -17430.625    89.035919   -17519.661    3408.1249 
  999000    311.96428   -17453.837    89.271001   -17543.108    3400.1743 
  999200    300.10697   -17447.151     85.87794   -17533.029   -5846.7854 
  999400    286.92705   -17438.115    82.106403   -17520.222   -8579.7657 
  999600    300.33735   -17442.941    85.943864   -17528.885   -3691.3145 
  999800    265.14532   -17464.871    75.873393   -17540.745    493.16201 
 1000000    297.59641   -17444.247    85.159522   -17529.406   -2895.0377 
Loop time of 1998.59 on 8 procs for 1000000 steps with 97 atoms

Performance: 10.808 ns/day, 2.221 hours/ns, 500.354 timesteps/s
99.6% CPU use with 8 MPI tasks x no OpenMP threads

MPI task timing breakdown:
Section |  min time  |  avg time  |  max time  |%varavg| %total
---------------------------------------------------------------
Pair    | 1075       | 1083.9     | 1093.4     |  20.2 | 54.23
Neigh   | 0.1435     | 0.14545    | 0.14732    |   0.3 |  0.01
Comm    | 57.765     | 67.509     | 76.731     |  82.3 |  3.38
Output  | 0.11766    | 0.1246     | 0.14431    |   2.2 |  0.01
Modify  | 844.47     | 844.66     | 844.88     |   0.4 | 42.26
Other   |            | 2.255      |            |       |  0.11

Nlocal:    12.125 ave 13 max 11 min
Histogram: 2 0 0 0 0 3 0 0 0 3
Nghost:    369.25 ave 375 max 366 min
Histogram: 1 0 2 3 1 0 0 0 0 1
Neighs:    770.625 ave 832 max 694 min
Histogram: 1 1 0 0 1 2 0 0 1 2

Total # of neighbors = 6165
Ave neighs/atom = 63.5567
Neighbor list builds = 419
Dangerous builds = 0

unfix 1
unfix output
undump 1

Please see the log.cite file for references relevant to this simulation

Total wall time: 0:33:21
