ITEM: TIMESTEP
0
ITEM: NUMBER OF ATOMS
81
ITEM: BOX BOUNDS pp pp pp
0.0000000000000000e+00 1.3416000000000000e+01
0.0000000000000000e+00 1.3416000000000000e+01
0.0000000000000000e+00 1.3414999999999999e+01
ITEM: ATOMS id type x y z 
21 1 1.912 1.912 1.912 
22 1 2.794 2.794 2.795 
23 1 0.386 2.099 2.099 
33 1 2.098 2.099 0.386 
37 1 2.099 0.386 2.099 
41 1 4.371 4.372 4.372 
42 1 3.489 3.489 3.489 
43 1 4.184 5.897 4.185 
53 1 4.185 4.185 5.898 
57 1 5.897 4.185 4.185 
4 1 1.912 1.912 11.079 
5 1 2.794 2.794 10.197 
6 1 2.099 0.386 10.892 
16 1 2.098 2.099 12.605 
19 1 0.386 2.099 10.892 
64 1 4.371 4.372 8.62 
65 1 3.489 3.489 9.502 
66 1 5.897 4.185 8.807 
76 1 4.185 4.185 7.094 
79 1 4.184 5.897 8.807 
10 1 1.911 11.079 1.912 
11 1 2.794 10.197 2.795 
12 1 2.099 12.605 2.099 
15 1 2.099 10.892 0.386 
18 1 0.386 10.892 2.099 
67 1 4.372 8.62 4.371 
68 1 3.489 9.502 3.489 
69 1 5.897 8.807 4.185 
74 1 4.185 8.807 5.897 
80 1 4.185 7.094 4.185 
30 1 1.911 11.079 11.079 
31 1 2.794 10.197 10.197 
32 1 0.386 10.892 10.892 
35 1 2.099 10.892 12.605 
38 1 2.099 12.605 10.892 
47 1 4.372 8.62 8.62 
48 1 3.489 9.502 9.502 
49 1 4.184 7.094 8.807 
54 1 4.184 8.807 7.094 
60 1 5.897 8.807 8.807 
7 1 11.08 1.912 1.912 
8 1 10.197 2.794 2.795 
9 1 10.893 0.386 2.099 
14 1 10.893 2.099 0.386 
20 1 12.606 2.099 2.099 
70 1 8.62 4.372 4.372 
71 1 9.502 3.489 3.489 
72 1 7.094 4.185 4.185 
75 1 8.807 4.185 5.897 
78 1 8.807 5.898 4.185 
27 1 11.08 1.912 11.079 
28 1 10.197 2.794 10.197 
29 1 12.606 2.099 10.892 
34 1 10.893 2.099 12.605 
40 1 10.893 0.386 10.892 
50 1 8.62 4.372 8.62 
51 1 9.502 3.489 9.502 
52 1 8.807 5.897 8.807 
55 1 8.807 4.185 7.094 
58 1 7.094 4.185 8.807 
24 1 11.08 11.08 1.912 
25 1 10.197 10.197 2.795 
26 1 12.606 10.892 2.099 
36 1 10.893 10.892 0.386 
39 1 10.893 12.605 2.099 
44 1 8.62 8.62 4.372 
45 1 9.502 9.502 3.489 
46 1 8.807 7.094 4.185 
56 1 8.807 8.807 5.898 
59 1 7.094 8.807 4.185 
1 1 11.08 11.079 11.079 
2 1 10.197 10.197 10.197 
3 1 10.893 12.605 10.892 
13 1 10.893 10.892 12.605 
17 1 12.606 10.892 10.892 
61 1 8.62 8.62 8.62 
62 1 9.502 9.502 9.502 
63 1 7.094 8.807 8.807 
73 1 8.807 8.807 7.094 
77 1 8.807 7.094 8.807 
81 2 9.585 9.546 11.224 
ITEM: TIMESTEP
10
ITEM: NUMBER OF ATOMS
81
ITEM: BOX BOUNDS pp pp pp
0.0000000000000000e+00 1.3416000000000000e+01
0.0000000000000000e+00 1.3416000000000000e+01
0.0000000000000000e+00 1.3414999999999999e+01
ITEM: ATOMS id type x y z 
21 1 1.91099 1.91049 1.91062 
22 1 2.79588 2.79658 2.79694 
23 1 0.384608 2.10287 2.1028 
33 1 2.1018 2.10278 0.383738 
37 1 2.1029 0.384052 2.10276 
41 1 4.37241 4.37306 4.37324 
42 1 3.4872 3.48677 3.48706 
43 1 4.18034 5.90092 4.18115 
53 1 4.18118 4.18121 5.90078 
57 1 5.90035 4.18121 4.18122 
4 1 1.91052 1.91037 11.0799 
5 1 2.79662 2.79613 10.1951 
6 1 2.10312 0.377895 10.8884 
16 1 2.10187 2.10284 12.6074 
19 1 0.376247 2.1031 10.8884 
64 1 4.37269 4.37269 8.61871 
65 1 3.48632 3.48705 9.50414 
66 1 5.90085 4.1813 8.81078 
76 1 4.18123 4.18126 7.09139 
79 1 4.18022 5.89965 8.81084 
10 1 1.91018 11.0808 1.91075 
11 1 2.79603 10.1952 2.79686 
12 1 2.10269 12.6058 2.10273 
15 1 2.1029 10.8885 0.381938 
18 1 0.386234 10.8882 2.10281 
67 1 4.3732 8.61841 4.37238 
68 1 3.48656 9.50416 3.4868 
69 1 5.90031 8.81074 4.1812 
74 1 4.18111 8.8107 5.89963 
80 1 4.18115 7.09072 4.18131 
30 1 1.90191 11.0819 11.0801 
31 1 2.79529 10.1945 10.1945 
32 1 0.386186 10.8888 10.8894 
35 1 2.10199 10.8891 12.606 
38 1 2.10191 12.6084 10.8893 
47 1 4.36947 8.61777 8.61755 
48 1 3.48596 9.50492 9.50491 
49 1 4.18044 7.09306 8.81062 
54 1 4.18063 8.81073 7.09264 
60 1 5.89198 8.81025 8.81178 
7 1 11.0813 1.91015 1.91061 
8 1 10.1954 2.79608 2.79678 
9 1 10.8894 0.385975 2.10271 
14 1 10.8896 2.1029 0.383201 
20 1 12.6057 2.10268 2.10261 
70 1 8.61834 4.37297 4.37279 
71 1 9.50472 3.48656 3.48701 
72 1 7.09068 4.18126 4.18122 
75 1 8.81083 4.18126 5.90095 
78 1 8.8108 5.9003 4.18123 
27 1 11.0831 1.90136 11.0801 
28 1 10.195 2.79517 10.1947 
29 1 12.6098 2.10184 10.8896 
34 1 10.8903 2.10192 12.6046 
40 1 10.89 0.382127 10.8897 
50 1 8.6181 4.36955 8.61797 
51 1 9.50519 3.48584 9.50502 
52 1 8.8104 5.89221 8.81196 
55 1 8.81072 4.18122 7.09084 
58 1 7.09043 4.1812 8.81069 
24 1 11.0809 11.0808 1.90588 
25 1 10.1954 10.1954 2.79543 
26 1 12.6035 10.8883 2.10208 
36 1 10.8914 10.8904 0.376546 
39 1 10.8892 12.6041 2.10211 
44 1 8.6185 8.61873 4.37104 
45 1 9.50514 9.50517 3.48595 
46 1 8.81093 7.09075 4.181 
56 1 8.81114 8.81116 5.89139 
59 1 7.08994 8.81094 4.18102 
1 1 11.1253 11.1261 11.1239 
2 1 10.262 10.2645 10.1975 
3 1 10.897 12.5906 10.8952 
13 1 10.9188 10.9181 12.5981 
17 1 12.587 10.8958 10.895 
61 1 8.62621 8.62639 8.60338 
62 1 9.44066 9.4369 9.58864 
63 1 7.09014 8.81044 8.81175 
73 1 8.81414 8.81427 7.0821 
77 1 8.81035 7.09043 8.81183 
81 2 9.5319 9.49311 11.1383 
ITEM: TIMESTEP
20
ITEM: NUMBER OF ATOMS
81
ITEM: BOX BOUNDS pp pp pp
0.0000000000000000e+00 1.3416000000000000e+01
0.0000000000000000e+00 1.3416000000000000e+01
0.0000000000000000e+00 1.3414999999999999e+01
ITEM: ATOMS id type x y z 
21 1 1.90997 1.90992 1.91078 
22 1 2.79567 2.79577 2.79626 
23 1 0.38388 2.10658 2.10642 
33 1 2.10559 2.10649 0.384581 
37 1 2.10666 0.383928 2.1064 
41 1 4.37237 4.37266 4.37289 
42 1 3.48693 3.48709 3.48732 
43 1 4.17649 5.89892 4.17715 
53 1 4.17718 4.17724 5.89911 
57 1 5.89871 4.17727 4.17727 
4 1 1.91011 1.90989 11.0801 
5 1 2.79544 2.79548 10.1954 
6 1 2.10717 0.382695 10.885 
16 1 2.10557 2.10649 12.6057 
19 1 0.382242 2.1072 10.885 
64 1 4.37222 4.37275 8.61911 
65 1 3.48679 3.48693 9.50444 
66 1 5.89917 4.17757 8.81486 
76 1 4.17726 4.17728 7.09314 
79 1 4.17658 5.89964 8.81493 
10 1 1.90979 11.0811 1.91039 
11 1 2.7952 10.1959 2.79597 
12 1 2.10628 12.6054 2.10626 
15 1 2.10683 10.8854 0.383573 
18 1 0.383533 10.8846 2.10648 
67 1 4.37211 8.61871 4.37261 
68 1 3.48656 9.50435 3.48692 
69 1 5.89798 8.81485 4.17724 
74 1 4.17733 8.8147 5.89941 
80 1 4.17707 7.09285 4.17737 
30 1 1.90055 11.0805 11.0798 
31 1 2.79351 10.1951 10.195 
32 1 0.382236 10.8854 10.8858 
35 1 2.10482 10.8856 12.6051 
38 1 2.10487 12.605 10.8856 
47 1 4.36782 8.61767 8.61736 
48 1 3.48535 9.50458 9.50454 
49 1 4.17623 7.09327 8.81421 
54 1 4.17658 8.8144 7.09295 
60 1 5.89542 8.8135 8.81679 
7 1 11.0816 1.90942 1.91003 
8 1 10.1962 2.79513 2.79566 
9 1 10.8859 0.384187 2.10624 
14 1 10.8867 2.10679 0.383683 
20 1 12.6055 2.1061 2.10597 
70 1 8.6188 4.37216 4.37269 
71 1 9.50474 3.4864 3.48693 
72 1 7.09257 4.17731 4.17729 
75 1 8.81481 4.17752 5.89931 
78 1 8.81485 5.89817 4.17731 
27 1 11.0809 1.89963 11.0804 
28 1 10.1955 2.79338 10.1953 
29 1 12.6051 2.10466 10.886 
34 1 10.887 2.10467 12.6046 
40 1 10.8869 0.382999 10.8861 
50 1 8.61789 4.36791 8.61774 
51 1 9.50495 3.48516 9.50477 
52 1 8.81364 5.89529 8.81703 
55 1 8.81436 4.17708 7.09309 
58 1 7.09305 4.17702 8.81427 
24 1 11.0816 11.0813 1.90539 
25 1 10.1961 10.196 2.79372 
26 1 12.6062 10.8847 2.10508 
36 1 10.8905 10.8896 0.387384 
39 1 10.8856 12.607 2.10511 
44 1 8.61827 8.61846 4.36773 
45 1 9.5053 9.5054 3.48477 
46 1 8.81486 7.09151 4.17652 
56 1 8.81598 8.81607 5.88428 
59 1 7.09139 8.81488 4.17654 
1 1 11.1283 11.1288 11.1269 
2 1 10.2904 10.2939 10.175 
3 1 10.8972 12.5983 10.8948 
13 1 10.9325 10.9322 12.6059 
17 1 12.5981 10.8961 10.8948 
61 1 8.61602 8.61598 8.58656 
62 1 9.42167 9.4161 9.65523 
63 1 7.08881 8.81259 8.81222 
73 1 8.82098 8.82115 7.07998 
77 1 8.81231 7.08959 8.81215 
81 2 9.50395 9.46475 11.1071 
ITEM: TIMESTEP
30
ITEM: NUMBER OF ATOMS
81
ITEM: BOX BOUNDS pp pp pp
0.0000000000000000e+00 1.3416000000000000e+01
0.0000000000000000e+00 1.3416000000000000e+01
0.0000000000000000e+00 1.3414999999999999e+01
ITEM: ATOMS id type x y z 
21 1 1.91089 1.91061 1.91092 
22 1 2.79497 2.7957 2.79642 
23 1 0.384101 2.11114 2.11117 
33 1 2.11029 2.11115 0.384252 
37 1 2.11119 0.383757 2.11116 
41 1 4.37226 4.37257 4.37226 
42 1 3.48705 3.48668 3.48778 
43 1 4.17194 5.89891 4.17241 
53 1 4.17247 4.17252 5.89919 
57 1 5.89886 4.17261 4.17253 
4 1 1.90999 1.91004 11.0802 
5 1 2.7951 2.79534 10.1952 
6 1 2.11171 0.382875 10.8807 
16 1 2.11013 2.11093 12.6052 
19 1 0.383554 2.1117 10.8808 
64 1 4.37245 4.3727 8.62002 
65 1 3.48652 3.48684 9.50405 
66 1 5.89845 4.17302 8.81957 
76 1 4.17252 4.1726 7.09316 
79 1 4.17205 5.8996 8.81967 
10 1 1.91051 11.0807 1.91097 
11 1 2.79558 10.1948 2.79482 
12 1 2.11102 12.6064 2.11091 
15 1 2.11161 10.8809 0.383181 
18 1 0.38611 10.8799 2.11106 
67 1 4.37132 8.61898 4.37221 
68 1 3.48623 9.50496 3.48838 
69 1 5.89663 8.81983 4.17257 
74 1 4.17258 8.81942 5.89941 
80 1 4.17212 7.09266 4.17268 
30 1 1.90263 11.0794 11.0795 
31 1 2.79195 10.1951 10.1949 
32 1 0.379879 10.8816 10.8811 
35 1 2.10871 10.881 12.6056 
38 1 2.10876 12.6066 10.8809 
47 1 4.37013 8.6187 8.61855 
48 1 3.48431 9.50435 9.50417 
49 1 4.17105 7.0918 8.81885 
54 1 4.17159 8.81912 7.09183 
60 1 5.89527 8.81726 8.82232 
7 1 11.081 1.91113 1.91079 
8 1 10.1952 2.79523 2.79555 
9 1 10.8809 0.386145 2.11092 
14 1 10.8821 2.11169 0.383182 
20 1 12.6067 2.11095 2.11077 
70 1 8.6195 4.37129 4.37271 
71 1 9.50405 3.48648 3.4873 
72 1 7.09255 4.1725 4.17264 
75 1 8.81949 4.17285 5.89853 
78 1 8.81984 5.89682 4.17265 
27 1 11.0791 1.90331 11.0794 
28 1 10.1952 2.79198 10.195 
29 1 12.6078 2.10874 10.8809 
34 1 10.882 2.10871 12.6062 
40 1 10.8827 0.379791 10.8811 
50 1 8.61907 4.37035 8.61904 
51 1 9.50435 3.48452 9.5041 
52 1 8.81734 5.8962 8.82262 
55 1 8.81908 4.17194 7.09258 
58 1 7.09232 4.17177 8.81892 
24 1 11.0797 11.0798 1.91255 
25 1 10.1957 10.1958 2.793 
26 1 12.6098 10.8793 2.11074 
36 1 10.8896 10.8889 0.385249 
39 1 10.8803 12.6096 2.11068 
44 1 8.61824 8.61825 4.36533 
45 1 9.50391 9.50395 3.48425 
46 1 8.81961 7.09011 4.17069 
56 1 8.82248 8.8227 5.88322 
59 1 7.09008 8.81967 4.17068 
1 1 11.1227 11.1233 11.1197 
2 1 10.2931 10.2968 10.1635 
3 1 10.899 12.5984 10.8946 
13 1 10.9435 10.9434 12.6076 
17 1 12.5993 10.8979 10.8946 
61 1 8.60928 8.60876 8.57295 
62 1 9.41717 9.41108 9.68131 
63 1 7.08936 8.81433 8.81105 
73 1 8.82867 8.82876 7.07974 
77 1 8.81381 7.08942 8.81062 
81 2 9.49296 9.45285 11.1137 
ITEM: TIMESTEP
34
ITEM: NUMBER OF ATOMS
81
ITEM: BOX BOUNDS pp pp pp
0.0000000000000000e+00 1.3416000000000000e+01
0.0000000000000000e+00 1.3416000000000000e+01
0.0000000000000000e+00 1.3414999999999999e+01
ITEM: ATOMS id type x y z 
21 1 1.91089 1.91067 1.91094 
22 1 2.7951 2.79562 2.79641 
23 1 0.384446 2.11138 2.11141 
33 1 2.11054 2.11138 0.384258 
37 1 2.11144 0.384134 2.1114 
41 1 4.37225 4.37248 4.3723 
42 1 3.48696 3.4868 3.48776 
43 1 4.1717 5.89875 4.17216 
53 1 4.17224 4.17228 5.89915 
57 1 5.89863 4.17238 4.17228 
4 1 1.91009 1.91007 11.0802 
5 1 2.79511 2.79533 10.1952 
6 1 2.11193 0.382714 10.8805 
16 1 2.11036 2.11117 12.6052 
19 1 0.382696 2.11192 10.8805 
64 1 4.3724 4.3726 8.61996 
65 1 3.48657 3.48688 9.50406 
66 1 5.8983 4.17276 8.8198 
76 1 4.17229 4.17236 7.09321 
79 1 4.17178 5.89867 8.81991 
10 1 1.91069 11.0806 1.91089 
11 1 2.79554 10.195 2.79494 
12 1 2.11127 12.606 2.11116 
15 1 2.11183 10.8806 0.383071 
18 1 0.385954 10.8796 2.11129 
67 1 4.37127 8.61901 4.37223 
68 1 3.48627 9.50483 3.48825 
69 1 5.89661 8.82008 4.17232 
74 1 4.17231 8.81965 5.89869 
80 1 4.17186 7.09281 4.17243 
30 1 1.90245 11.0796 11.0796 
31 1 2.79192 10.195 10.1949 
32 1 0.380174 10.8815 10.8809 
35 1 2.10891 10.8808 12.6055 
38 1 2.10897 12.6065 10.8807 
47 1 4.37016 8.6188 8.61867 
48 1 3.48429 9.50432 9.50414 
49 1 4.17081 7.09277 8.81911 
54 1 4.17137 8.81938 7.0926 
60 1 5.89536 8.81748 8.82255 
7 1 11.081 1.91122 1.91079 
8 1 10.1953 2.79523 2.79557 
9 1 10.8806 0.385966 2.11115 
14 1 10.8819 2.11192 0.38324 
20 1 12.6064 2.11119 2.11102 
70 1 8.61946 4.3712 4.37268 
71 1 9.50408 3.4865 3.4873 
72 1 7.09272 4.17224 4.17239 
75 1 8.81973 4.17257 5.89853 
78 1 8.8201 5.89653 4.17239 
27 1 11.0796 1.90278 11.0794 
28 1 10.1951 2.79194 10.1949 
29 1 12.6079 2.10891 10.8808 
34 1 10.8819 2.10888 12.6058 
40 1 10.8826 0.37938 10.881 
50 1 8.61912 4.37033 8.61911 
51 1 9.50435 3.48445 9.50413 
52 1 8.81757 5.8957 8.82287 
55 1 8.81934 4.17171 7.09267 
58 1 7.09248 4.17153 8.81918 
24 1 11.0799 11.08 1.91209 
25 1 10.1958 10.1958 2.79316 
26 1 12.6095 10.8791 2.111 
36 1 10.8898 10.8891 0.385783 
39 1 10.8801 12.6094 2.11094 
44 1 8.61821 8.61829 4.36537 
45 1 9.50385 9.50389 3.48404 
46 1 8.81985 7.09034 4.17039 
56 1 8.82284 8.82305 5.88294 
59 1 7.09005 8.81991 4.17038 
1 1 11.1226 11.1232 11.1192 
2 1 10.2925 10.2962 10.1638 
3 1 10.899 12.5996 10.8944 
13 1 10.9438 10.9437 12.6078 
17 1 12.5991 10.8979 10.8945 
61 1 8.60914 8.60875 8.57323 
62 1 9.41642 9.41031 9.68122 
63 1 7.08974 8.8143 8.81086 
73 1 8.82901 8.82911 7.07997 
77 1 8.81379 7.09035 8.81043 
81 2 9.49306 9.45293 11.114 
ITEM: TIMESTEP
35
ITEM: NUMBER OF ATOMS
81
ITEM: BOX BOUNDS pp pp pp
0.0000000000000000e+00 1.3416000000000000e+01
0.0000000000000000e+00 1.3416000000000000e+01
0.0000000000000000e+00 1.3414999999999999e+01
ITEM: ATOMS id type x y z 
21 1 1.91089 1.91067 1.91094 
22 1 2.7951 2.79562 2.79641 
23 1 0.384446 2.11138 2.11141 
33 1 2.11054 2.11138 0.384258 
37 1 2.11144 0.384134 2.1114 
41 1 4.37225 4.37248 4.3723 
42 1 3.48696 3.4868 3.48776 
43 1 4.1717 5.89875 4.17216 
53 1 4.17224 4.17228 5.89915 
57 1 5.89863 4.17238 4.17228 
4 1 1.91009 1.91007 11.0802 
5 1 2.79511 2.79533 10.1952 
6 1 2.11193 0.382714 10.8805 
16 1 2.11036 2.11117 12.6052 
19 1 0.382696 2.11192 10.8805 
64 1 4.3724 4.3726 8.61996 
65 1 3.48657 3.48688 9.50406 
66 1 5.8983 4.17276 8.8198 
76 1 4.17229 4.17236 7.09321 
79 1 4.17178 5.89867 8.81991 
10 1 1.91069 11.0806 1.91089 
11 1 2.79554 10.195 2.79494 
12 1 2.11127 12.606 2.11116 
15 1 2.11183 10.8806 0.383071 
18 1 0.385954 10.8796 2.11129 
67 1 4.37127 8.61901 4.37223 
68 1 3.48627 9.50483 3.48825 
69 1 5.89661 8.82008 4.17232 
74 1 4.17231 8.81965 5.89869 
80 1 4.17186 7.09281 4.17243 
30 1 1.90245 11.0796 11.0796 
31 1 2.79192 10.195 10.1949 
32 1 0.380174 10.8815 10.8809 
35 1 2.10891 10.8808 12.6055 
38 1 2.10897 12.6065 10.8807 
47 1 4.37016 8.6188 8.61867 
48 1 3.48429 9.50432 9.50414 
49 1 4.17081 7.09277 8.81911 
54 1 4.17137 8.81938 7.0926 
60 1 5.89536 8.81748 8.82255 
7 1 11.081 1.91122 1.91079 
8 1 10.1953 2.79523 2.79557 
9 1 10.8806 0.385966 2.11115 
14 1 10.8819 2.11192 0.38324 
20 1 12.6064 2.11119 2.11102 
70 1 8.61946 4.3712 4.37268 
71 1 9.50408 3.4865 3.4873 
72 1 7.09272 4.17224 4.17239 
75 1 8.81973 4.17257 5.89853 
78 1 8.8201 5.89653 4.17239 
27 1 11.0796 1.90278 11.0794 
28 1 10.1951 2.79194 10.1949 
29 1 12.6079 2.10891 10.8808 
34 1 10.8819 2.10888 12.6058 
40 1 10.8826 0.37938 10.881 
50 1 8.61912 4.37033 8.61911 
51 1 9.50435 3.48445 9.50413 
52 1 8.81757 5.8957 8.82287 
55 1 8.81934 4.17171 7.09267 
58 1 7.09248 4.17153 8.81918 
24 1 11.0799 11.08 1.91209 
25 1 10.1958 10.1958 2.79316 
26 1 12.6095 10.8791 2.111 
36 1 10.8898 10.8891 0.385783 
39 1 10.8801 12.6094 2.11094 
44 1 8.61821 8.61829 4.36537 
45 1 9.50385 9.50389 3.48404 
46 1 8.81985 7.09034 4.17039 
56 1 8.82284 8.82305 5.88294 
59 1 7.09005 8.81991 4.17038 
1 1 11.1226 11.1232 11.1192 
2 1 10.2925 10.2962 10.1638 
3 1 10.899 12.5996 10.8944 
13 1 10.9438 10.9437 12.6078 
17 1 12.5991 10.8979 10.8945 
61 1 8.60914 8.60875 8.57323 
62 1 9.41642 9.41031 9.68122 
63 1 7.08974 8.8143 8.81086 
73 1 8.82901 8.82911 7.07997 
77 1 8.81379 7.09035 8.81043 
81 2 9.49306 9.45293 11.114 
ITEM: TIMESTEP
40
ITEM: NUMBER OF ATOMS
81
ITEM: BOX BOUNDS pp pp pp
-8.6004209554733100e-04 1.3416860042095548e+01
-7.9125445420337676e-04 1.3416791254454203e+01
-1.2974896439229783e-03 1.3416297489643922e+01
ITEM: ATOMS id type x y z 
21 1 1.91026 1.91009 1.90999 
22 1 2.7946 2.79515 2.79565 
23 1 0.383586 2.11084 2.11052 
33 1 2.10995 2.11084 0.382983 
37 1 2.11085 0.383338 2.11051 
41 1 4.37196 4.37222 4.37186 
42 1 3.48655 3.48642 3.48714 
43 1 4.17137 5.89869 4.17167 
53 1 4.17191 4.17198 5.89908 
57 1 5.89856 4.17207 4.17179 
4 1 1.90947 1.90951 11.081 
5 1 2.79461 2.79487 10.1959 
6 1 2.11134 0.381949 10.8813 
16 1 2.10977 2.11063 12.6064 
19 1 0.381919 2.11138 10.8813 
64 1 4.37211 4.37233 8.62032 
65 1 3.48616 3.4865 9.5046 
66 1 5.8983 4.17246 8.82021 
76 1 4.17196 4.17206 7.09319 
79 1 4.17146 5.89863 8.82032 
10 1 1.91008 11.0811 1.90996 
11 1 2.79504 10.1954 2.79419 
12 1 2.11068 12.6068 2.11027 
15 1 2.11125 10.8811 0.381823 
18 1 0.385135 10.8801 2.11041 
67 1 4.37096 8.61924 4.37178 
68 1 3.48586 9.50515 3.48763 
69 1 5.89654 8.82033 4.17182 
74 1 4.17197 8.81991 5.89853 
80 1 4.17153 7.0928 4.17194 
30 1 1.90182 11.0801 11.0804 
31 1 2.79142 10.1954 10.1955 
32 1 0.379335 10.882 10.8817 
35 1 2.10832 10.8812 12.6067 
38 1 2.10838 12.6072 10.8815 
47 1 4.36986 8.61902 8.61905 
48 1 3.48387 9.50465 9.50468 
49 1 4.17048 7.09275 8.81952 
54 1 4.17104 8.81963 7.09268 
60 1 5.8953 8.81773 8.82296 
7 1 11.0816 1.91065 1.90987 
8 1 10.1957 2.79477 2.79482 
9 1 10.8812 0.385208 2.11026 
14 1 10.8824 2.11138 0.382033 
20 1 12.6072 2.11066 2.11014 
70 1 8.61971 4.37092 4.37222 
71 1 9.50443 3.48612 3.48667 
72 1 7.09271 4.17193 4.1719 
75 1 8.82 4.17227 5.89844 
78 1 8.82038 5.89648 4.1719 
27 1 11.0801 1.90221 11.0802 
28 1 10.1956 2.79148 10.1956 
29 1 12.6086 2.10837 10.8816 
34 1 10.8824 2.10834 12.6069 
40 1 10.8832 0.378683 10.8818 
50 1 8.61935 4.37007 8.61946 
51 1 9.50471 3.48407 9.50467 
52 1 8.81784 5.89572 8.82328 
55 1 8.81961 4.17141 7.09271 
58 1 7.09244 4.17123 8.81959 
24 1 11.0805 11.0805 1.91115 
25 1 10.1962 10.1962 2.7924 
26 1 12.6103 10.8796 2.11012 
36 1 10.8903 10.8896 0.384553 
39 1 10.8807 12.6101 2.11006 
44 1 8.61845 8.61851 4.36494 
45 1 9.50421 9.50421 3.48341 
46 1 8.82013 7.09036 4.16989 
56 1 8.82311 8.8233 5.88284 
59 1 7.09008 8.82016 4.16989 
1 1 11.1232 11.1237 11.1201 
2 1 10.293 10.2966 10.1645 
3 1 10.8995 12.6002 10.8952 
13 1 10.9443 10.9442 12.609 
17 1 12.5999 10.8984 10.8953 
61 1 8.60937 8.60896 8.5736 
62 1 9.41675 9.41062 9.6818 
63 1 7.08975 8.81455 8.81126 
73 1 8.82929 8.82937 7.07995 
77 1 8.81406 7.09027 8.81084 
81 2 9.49342 9.45325 11.1148 
ITEM: TIMESTEP
42
ITEM: NUMBER OF ATOMS
81
ITEM: BOX BOUNDS pp pp pp
-8.5838042581754177e-04 1.3416858380425818e+01
-7.9205940458446566e-04 1.3416792059404585e+01
-1.2955245560323531e-03 1.3416295524556032e+01
ITEM: ATOMS id type x y z 
21 1 1.91026 1.91009 1.91 
22 1 2.7946 2.79515 2.79565 
23 1 0.383588 2.11084 2.11052 
33 1 2.10995 2.11084 0.382985 
37 1 2.11085 0.383337 2.11051 
41 1 4.37196 4.37222 4.37186 
42 1 3.48655 3.48642 3.48714 
43 1 4.17137 5.89869 4.17167 
53 1 4.17191 4.17198 5.89908 
57 1 5.89856 4.17207 4.17179 
4 1 1.90948 1.90951 11.081 
5 1 2.79461 2.79487 10.1959 
6 1 2.11134 0.381949 10.8813 
16 1 2.10978 2.11063 12.6064 
19 1 0.381921 2.11138 10.8813 
64 1 4.37211 4.37233 8.62032 
65 1 3.48616 3.4865 9.5046 
66 1 5.8983 4.17246 8.82021 
76 1 4.17196 4.17206 7.09318 
79 1 4.17146 5.89863 8.82032 
10 1 1.91008 11.0811 1.90996 
11 1 2.79504 10.1954 2.79419 
12 1 2.11068 12.6068 2.11027 
15 1 2.11125 10.8811 0.381825 
18 1 0.385136 10.8801 2.11041 
67 1 4.37097 8.61924 4.37178 
68 1 3.48586 9.50516 3.48763 
69 1 5.89654 8.82033 4.17182 
74 1 4.17198 8.81991 5.89853 
80 1 4.17154 7.0928 4.17194 
30 1 1.90182 11.0801 11.0804 
31 1 2.79142 10.1954 10.1955 
32 1 0.379337 10.882 10.8817 
35 1 2.10832 10.8812 12.6067 
38 1 2.10838 12.6072 10.8815 
47 1 4.36986 8.61902 8.61905 
48 1 3.48387 9.50465 9.50468 
49 1 4.17048 7.09275 8.81952 
54 1 4.17104 8.81964 7.09268 
60 1 5.8953 8.81773 8.82296 
7 1 11.0816 1.91065 1.90987 
8 1 10.1957 2.79477 2.79482 
9 1 10.8812 0.385208 2.11027 
14 1 10.8824 2.11138 0.382035 
20 1 12.6072 2.11066 2.11014 
70 1 8.61971 4.37092 4.37222 
71 1 9.50443 3.48612 3.48667 
72 1 7.09271 4.17193 4.1719 
75 1 8.82 4.17227 5.89844 
78 1 8.82038 5.89648 4.1719 
27 1 11.0801 1.90221 11.0802 
28 1 10.1956 2.79148 10.1956 
29 1 12.6086 2.10837 10.8816 
34 1 10.8824 2.10834 12.6069 
40 1 10.8832 0.378682 10.8818 
50 1 8.61935 4.37007 8.61946 
51 1 9.50471 3.48407 9.50467 
52 1 8.81784 5.89572 8.82328 
55 1 8.81961 4.17141 7.0927 
58 1 7.09244 4.17123 8.81959 
24 1 11.0805 11.0805 1.91115 
25 1 10.1962 10.1962 2.7924 
26 1 12.6103 10.8796 2.11012 
36 1 10.8903 10.8896 0.384555 
39 1 10.8807 12.6101 2.11006 
44 1 8.61845 8.61851 4.36494 
45 1 9.50421 9.50422 3.48341 
46 1 8.82013 7.09036 4.16989 
56 1 8.82311 8.8233 5.88284 
59 1 7.09008 8.82016 4.16989 
1 1 11.1232 11.1237 11.1201 
2 1 10.293 10.2966 10.1645 
3 1 10.8995 12.6002 10.8952 
13 1 10.9443 10.9442 12.609 
17 1 12.5999 10.8984 10.8953 
61 1 8.60937 8.60896 8.5736 
62 1 9.41675 9.41062 9.6818 
63 1 7.08975 8.81455 8.81126 
73 1 8.82929 8.82937 7.07995 
77 1 8.81406 7.09027 8.81084 
81 2 9.49342 9.45325 11.1148 
ITEM: TIMESTEP
44
ITEM: NUMBER OF ATOMS
81
ITEM: BOX BOUNDS pp pp pp
-8.5838042581754177e-04 1.3416858380425818e+01
-7.9205940458446566e-04 1.3416792059404585e+01
-1.2955245560323531e-03 1.3416295524556032e+01
ITEM: ATOMS id type x y z 
21 1 1.91025 1.91008 1.90999 
22 1 2.7946 2.79515 2.79565 
23 1 0.383579 2.11084 2.11052 
33 1 2.10995 2.11084 0.382976 
37 1 2.11085 0.383328 2.11051 
41 1 4.37197 4.37222 4.37186 
42 1 3.48655 3.48642 3.48714 
43 1 4.17137 5.89869 4.17167 
53 1 4.17191 4.17198 5.8991 
57 1 5.89858 4.17207 4.17179 
4 1 1.90948 1.90951 11.081 
5 1 2.79461 2.79487 10.1959 
6 1 2.11134 0.381945 10.8813 
16 1 2.10978 2.11063 12.6064 
19 1 0.381927 2.11138 10.8813 
64 1 4.37211 4.37233 8.62031 
65 1 3.48616 3.4865 9.5046 
66 1 5.89832 4.17246 8.82021 
76 1 4.17196 4.17206 7.09316 
79 1 4.17146 5.89864 8.82032 
10 1 1.91008 11.0811 1.90996 
11 1 2.79504 10.1954 2.79419 
12 1 2.11068 12.6068 2.11027 
15 1 2.11125 10.8811 0.38182 
18 1 0.385132 10.8801 2.11041 
67 1 4.37097 8.61924 4.37178 
68 1 3.48586 9.50516 3.48763 
69 1 5.89655 8.82033 4.17182 
74 1 4.17197 8.81991 5.89853 
80 1 4.17153 7.09279 4.17194 
30 1 1.90182 11.0801 11.0804 
31 1 2.79142 10.1954 10.1955 
32 1 0.379331 10.882 10.8817 
35 1 2.10832 10.8812 12.6067 
38 1 2.10838 12.6072 10.8815 
47 1 4.36987 8.61902 8.61905 
48 1 3.48387 9.50465 9.50468 
49 1 4.17048 7.09274 8.81952 
54 1 4.17104 8.81964 7.09268 
60 1 5.89531 8.81773 8.82296 
7 1 11.0816 1.91065 1.90987 
8 1 10.1957 2.79477 2.79482 
9 1 10.8812 0.385203 2.11027 
14 1 10.8824 2.11139 0.382038 
20 1 12.6072 2.11066 2.11014 
70 1 8.61971 4.37092 4.37222 
71 1 9.50443 3.48612 3.48667 
72 1 7.09269 4.17193 4.1719 
75 1 8.82 4.17227 5.89846 
78 1 8.82038 5.89649 4.1719 
27 1 11.0801 1.90221 11.0802 
28 1 10.1956 2.79148 10.1956 
29 1 12.6086 2.10837 10.8816 
34 1 10.8824 2.10834 12.6069 
40 1 10.8832 0.37869 10.8818 
50 1 8.61934 4.37008 8.61946 
51 1 9.50471 3.48407 9.50467 
52 1 8.81784 5.89574 8.82328 
55 1 8.81961 4.17141 7.09269 
58 1 7.09242 4.17123 8.81959 
24 1 11.0805 11.0805 1.91115 
25 1 10.1962 10.1962 2.7924 
26 1 12.6103 10.8796 2.11012 
36 1 10.8903 10.8896 0.384549 
39 1 10.8807 12.6101 2.11006 
44 1 8.61845 8.61851 4.36495 
45 1 9.50421 9.50421 3.48341 
46 1 8.82013 7.09036 4.16989 
56 1 8.82311 8.8233 5.88285 
59 1 7.09007 8.82016 4.16989 
1 1 11.1232 11.1237 11.1201 
2 1 10.293 10.2966 10.1645 
3 1 10.8995 12.6002 10.8952 
13 1 10.9443 10.9442 12.609 
17 1 12.5999 10.8984 10.8953 
61 1 8.60937 8.60896 8.5736 
62 1 9.41675 9.41061 9.6818 
63 1 7.08973 8.81455 8.81126 
73 1 8.82929 8.82937 7.07993 
77 1 8.81406 7.09025 8.81083 
81 2 9.49342 9.45325 11.1148 
ITEM: TIMESTEP
50
ITEM: NUMBER OF ATOMS
81
ITEM: BOX BOUNDS pp pp pp
-8.5094302104744249e-04 1.3416850943021048e+01
-8.2874811115933459e-04 1.3416828748111161e+01
-1.2697055301572214e-03 1.3416269705530155e+01
ITEM: ATOMS id type x y z 
21 1 1.91026 1.91006 1.91001 
22 1 2.79461 2.79513 2.79567 
23 1 0.383584 2.11081 2.11054 
33 1 2.10995 2.11081 0.382998 
37 1 2.11086 0.383292 2.11053 
41 1 4.37197 4.37221 4.37187 
42 1 3.48655 3.4864 3.48715 
43 1 4.17138 5.89869 4.17168 
53 1 4.17191 4.17197 5.89911 
57 1 5.89858 4.17206 4.1718 
4 1 1.90948 1.90948 11.081 
5 1 2.79461 2.79485 10.1959 
6 1 2.11135 0.381909 10.8812 
16 1 2.10978 2.1106 12.6064 
19 1 0.381935 2.11136 10.8813 
64 1 4.37211 4.37232 8.62031 
65 1 3.48616 3.48648 9.50459 
66 1 5.89832 4.17244 8.8202 
76 1 4.17196 4.17204 7.09316 
79 1 4.17146 5.89864 8.82031 
10 1 1.91008 11.0812 1.90998 
11 1 2.79505 10.1954 2.79421 
12 1 2.11069 12.6068 2.11029 
15 1 2.11125 10.8811 0.381843 
18 1 0.385138 10.8801 2.11043 
67 1 4.37097 8.61925 4.37179 
68 1 3.48586 9.50517 3.48764 
69 1 5.89655 8.82035 4.17183 
74 1 4.17198 8.81992 5.89854 
80 1 4.17154 7.09279 4.17195 
30 1 1.90182 11.0801 11.0804 
31 1 2.79142 10.1954 10.1955 
32 1 0.379336 10.882 10.8817 
35 1 2.10833 10.8813 12.6067 
38 1 2.10839 12.6073 10.8815 
47 1 4.36987 8.61903 8.61904 
48 1 3.48388 9.50467 9.50467 
49 1 4.17048 7.09274 8.81951 
54 1 4.17104 8.81965 7.09268 
60 1 5.89532 8.81774 8.82295 
7 1 11.0816 1.91063 1.90989 
8 1 10.1957 2.79475 2.79483 
9 1 10.8812 0.385167 2.11028 
14 1 10.8824 2.11136 0.382063 
20 1 12.6072 2.11063 2.11016 
70 1 8.6197 4.37091 4.37223 
71 1 9.50443 3.4861 3.48669 
72 1 7.09269 4.17192 4.17191 
75 1 8.82 4.17225 5.89847 
78 1 8.82038 5.89649 4.1719 
27 1 11.0801 1.90219 11.0802 
28 1 10.1956 2.79146 10.1956 
29 1 12.6086 2.10834 10.8816 
34 1 10.8824 2.10832 12.6069 
40 1 10.8832 0.378658 10.8818 
50 1 8.61934 4.37006 8.61945 
51 1 9.5047 3.48405 9.50466 
52 1 8.81784 5.89573 8.82327 
55 1 8.8196 4.1714 7.09269 
58 1 7.09242 4.17122 8.81958 
24 1 11.0805 11.0805 1.91116 
25 1 10.1962 10.1962 2.79242 
26 1 12.6103 10.8796 2.11014 
36 1 10.8903 10.8896 0.384572 
39 1 10.8806 12.6101 2.11008 
44 1 8.61844 8.61852 4.36496 
45 1 9.50421 9.50423 3.48343 
46 1 8.82012 7.09036 4.1699 
56 1 8.82311 8.82331 5.88286 
59 1 7.09007 8.82017 4.1699 
1 1 11.1232 11.1238 11.1201 
2 1 10.293 10.2966 10.1645 
3 1 10.8995 12.6002 10.8952 
13 1 10.9443 10.9442 12.6089 
17 1 12.5999 10.8985 10.8953 
61 1 8.60937 8.60897 8.57359 
62 1 9.41674 9.41063 9.68178 
63 1 7.08973 8.81456 8.81125 
73 1 8.82929 8.82938 7.07992 
77 1 8.81405 7.09025 8.81083 
81 2 9.49341 9.45327 11.1148 
ITEM: TIMESTEP
55
ITEM: NUMBER OF ATOMS
81
ITEM: BOX BOUNDS pp pp pp
-1.5062597433961821e-03 1.3417506259743398e+01
-1.9574669659870479e-03 1.3417957466965989e+01
-1.4053388851062061e-03 1.3416405338885104e+01
ITEM: ATOMS id type x y z 
21 1 1.90976 1.90922 1.90989 
22 1 2.79423 2.79447 2.79559 
23 1 0.382894 2.11004 2.11045 
33 1 2.1095 2.11004 0.382793 
37 1 2.11041 0.382152 2.11044 
41 1 4.37176 4.37184 4.37185 
42 1 3.48623 3.48586 3.48708 
43 1 4.17113 5.89862 4.17163 
53 1 4.17166 4.17154 5.89923 
57 1 5.89859 4.17163 4.17175 
4 1 1.90902 1.90868 11.0811 
5 1 2.79423 2.79419 10.196 
6 1 2.11091 0.38081 10.8813 
16 1 2.10934 2.10984 12.6066 
19 1 0.38137 2.11059 10.8814 
64 1 4.37189 4.37194 8.62032 
65 1 3.48584 3.48594 9.50465 
66 1 5.89837 4.17201 8.82025 
76 1 4.17171 4.17161 7.09302 
79 1 4.17121 5.89858 8.82036 
10 1 1.90962 11.0819 1.90988 
11 1 2.79466 10.196 2.79413 
12 1 2.11025 12.608 2.11021 
15 1 2.11081 10.8818 0.381672 
18 1 0.384486 10.8808 2.11034 
67 1 4.37074 8.61957 4.37174 
68 1 3.48555 9.50564 3.48757 
69 1 5.89653 8.82071 4.17177 
74 1 4.17172 8.82028 5.89855 
80 1 4.17128 7.09275 4.17189 
30 1 1.90133 11.0809 11.0805 
31 1 2.79104 10.196 10.1956 
32 1 0.378669 10.8827 10.8818 
35 1 2.10788 10.882 12.6068 
38 1 2.10794 12.6083 10.8816 
47 1 4.36967 8.61934 8.61908 
48 1 3.48356 9.50514 9.50473 
49 1 4.17023 7.09273 8.81956 
54 1 4.17079 8.82001 7.09267 
60 1 5.8953 8.8181 8.82299 
7 1 11.082 1.90982 1.90979 
8 1 10.1961 2.7941 2.79475 
9 1 10.8816 0.384063 2.1102 
14 1 10.8828 2.11059 0.381947 
20 1 12.6079 2.10987 2.11007 
70 1 8.61988 4.37051 4.37219 
71 1 9.50471 3.48555 3.48662 
72 1 7.09262 4.17148 4.17185 
75 1 8.82021 4.17182 5.89857 
78 1 8.82059 5.89642 4.17185 
27 1 11.0805 1.90139 11.0803 
28 1 10.1959 2.7908 10.1957 
29 1 12.6091 2.10758 10.8817 
34 1 10.8828 2.10755 12.607 
40 1 10.8836 0.377654 10.8819 
50 1 8.6195 4.3697 8.61947 
51 1 9.50498 3.4835 9.50472 
52 1 8.81804 5.8957 8.82331 
55 1 8.81981 4.17097 7.0926 
58 1 7.09236 4.17079 8.81962 
24 1 11.0809 11.0813 1.91103 
25 1 10.1966 10.1968 2.79235 
26 1 12.6109 10.8803 2.11005 
36 1 10.8907 10.8903 0.384401 
39 1 10.8811 12.6111 2.10999 
44 1 8.61862 8.61883 4.36495 
45 1 9.50448 9.5047 3.48335 
46 1 8.82033 7.09038 4.16985 
56 1 8.82332 8.82367 5.88294 
59 1 7.09008 8.82053 4.16984 
1 1 11.1236 11.1245 11.1201 
2 1 10.2933 10.2972 10.1646 
3 1 10.8999 12.6011 10.8953 
13 1 10.9448 10.9449 12.6091 
17 1 12.6006 10.8992 10.8954 
61 1 8.60955 8.60928 8.57364 
62 1 9.41699 9.41106 9.68184 
63 1 7.08969 8.81491 8.81129 
73 1 8.82951 8.82975 7.07979 
77 1 8.81426 7.09018 8.81086 
81 2 9.49369 9.45373 11.1149 
ITEM: TIMESTEP
56
ITEM: NUMBER OF ATOMS
81
ITEM: BOX BOUNDS pp pp pp
-1.5062597433961821e-03 1.3417506259743398e+01
-1.9574669659870479e-03 1.3417957466965989e+01
-1.4053388851062061e-03 1.3416405338885104e+01
ITEM: ATOMS id type x y z 
21 1 1.90976 1.90922 1.90989 
22 1 2.79423 2.79447 2.79559 
23 1 0.382894 2.11004 2.11045 
33 1 2.1095 2.11004 0.382793 
37 1 2.11041 0.382152 2.11044 
41 1 4.37176 4.37184 4.37185 
42 1 3.48623 3.48586 3.48708 
43 1 4.17113 5.89862 4.17163 
53 1 4.17166 4.17154 5.89923 
57 1 5.89859 4.17163 4.17175 
4 1 1.90902 1.90868 11.0811 
5 1 2.79423 2.79419 10.196 
6 1 2.11091 0.38081 10.8813 
16 1 2.10934 2.10984 12.6066 
19 1 0.38137 2.11059 10.8814 
64 1 4.37189 4.37194 8.62032 
65 1 3.48584 3.48594 9.50465 
66 1 5.89837 4.17201 8.82025 
76 1 4.17171 4.17161 7.09302 
79 1 4.17121 5.89858 8.82036 
10 1 1.90962 11.0819 1.90988 
11 1 2.79466 10.196 2.79413 
12 1 2.11025 12.608 2.11021 
15 1 2.11081 10.8818 0.381672 
18 1 0.384486 10.8808 2.11034 
67 1 4.37074 8.61957 4.37174 
68 1 3.48555 9.50564 3.48757 
69 1 5.89653 8.82071 4.17177 
74 1 4.17172 8.82028 5.89855 
80 1 4.17128 7.09275 4.17189 
30 1 1.90133 11.0809 11.0805 
31 1 2.79104 10.196 10.1956 
32 1 0.378669 10.8827 10.8818 
35 1 2.10788 10.882 12.6068 
38 1 2.10794 12.6083 10.8816 
47 1 4.36967 8.61934 8.61908 