LAMMPS (3 Mar 2020)
Reading data file ...
  orthogonal box = (0 0 0) to (13.416 13.416 13.415)
  2 by 2 by 2 MPI processor grid
  reading atoms ...
  81 atoms
  read_data CPU = 0.00691557 secs
WARNING: Changed valency_val to valency_boc for X (../reaxc_ffield.cpp:315)
WARNING: Using 'neigh_modify every 1 delay 0 check yes' setting during minimization (../min.cpp:190)
Neighbor list info ...
  update every 1 steps, delay 0 steps, check yes
  max neighbors/atom: 2000, page size: 100000
  master list distance cutoff = 12
  ghost atom cutoff = 12
  binsize = 6, bins = 3 3 3
  2 neighbor lists, perpetual/occasional/extra = 2 0 0
  (1) pair reax/c, perpetual
      attributes: half, newton off, ghost
      pair build: half/bin/newtoff/ghost
      stencil: half/ghost/bin/3d/newtoff
      bin: standard
  (2) fix qeq/reax, perpetual, copy from (1)
      attributes: half, newton off, ghost
      pair build: copy
      stencil: none
      bin: none
Setting up cg style minimization ...
  Unit style    : real
  Current step  : 0
Per MPI rank memory allocation (min/avg/max) = 27.51 | 27.65 | 27.84 Mbytes
Step Temp E_pair E_mol TotEng Press 
       0            0    -14322.56            0    -14322.56    -39243.19 
      34            0   -14416.585            0   -14416.585    9863.7371 
Loop time of 4.9154 on 8 procs for 34 steps with 81 atoms

99.8% CPU use with 8 MPI tasks x no OpenMP threads

Minimization stats:
  Stopping criterion = energy tolerance
  Energy initial, next-to-last, final = 
        -14322.5600589     -14416.5848283     -14416.5848277
  Force two-norm initial, final = 1249.91 155.442
  Force max component initial, final = 350.479 53.3579
  Final line search alpha, max atom move = 7.42815e-13 3.9635e-11
  Iterations, force evaluations = 34 242

MPI task timing breakdown:
Section |  min time  |  avg time  |  max time  |%varavg| %total
---------------------------------------------------------------
Pair    | 3.7932     | 3.8455     | 3.9244     |   1.8 | 78.23
Neigh   | 0          | 0          | 0          |   0.0 |  0.00
Comm    | 0.066115   | 0.14437    | 0.19523    |   9.3 |  2.94
Output  | 0.00050696 | 0.00068338 | 0.00098361 |   0.0 |  0.01
Modify  | 0.91167    | 0.91207    | 0.91319    |   0.0 | 18.56
Other   |            | 0.01274    |            |       |  0.26

Nlocal:    10.125 ave 11 max 10 min
Histogram: 7 0 0 0 0 0 0 0 0 1
Nghost:    1105.5 ave 1116 max 1098 min
Histogram: 1 0 3 0 0 3 0 0 0 1
Neighs:    2390.75 ave 2579 max 2355 min
Histogram: 7 0 0 0 0 0 0 0 0 1

Total # of neighbors = 19126
Ave neighs/atom = 236.123
Neighbor list builds = 0
Dangerous builds = 0
WARNING: Using 'neigh_modify every 1 delay 0 check yes' setting during minimization (../min.cpp:190)
Setting up cg style minimization ...
  Unit style    : real
  Current step  : 34
Per MPI rank memory allocation (min/avg/max) = 27.51 | 27.65 | 27.84 Mbytes
Step Temp E_pair E_mol TotEng Press 
      34            0   -14416.585            0   -14416.585     9863.739 
      35            0   -14416.585            0   -14416.585    9863.7366 
Loop time of 1.1332 on 8 procs for 1 steps with 81 atoms

99.9% CPU use with 8 MPI tasks x no OpenMP threads

Minimization stats:
  Stopping criterion = linesearch alpha is zero
  Energy initial, next-to-last, final = 
        -14416.5848275     -14416.5848275      -14416.584828
  Force two-norm initial, final = 155.442 155.442
  Force max component initial, final = 53.3579 53.3579
  Final line search alpha, max atom move = 4.36356e-13 2.32831e-11
  Iterations, force evaluations = 1 61

MPI task timing breakdown:
Section |  min time  |  avg time  |  max time  |%varavg| %total
---------------------------------------------------------------
Pair    | 0.96586    | 0.97392    | 0.98448    |   0.6 | 85.94
Neigh   | 0          | 0          | 0          |   0.0 |  0.00
Comm    | 0.015417   | 0.02592    | 0.034051   |   3.8 |  2.29
Output  | 0          | 0          | 0          |   0.0 |  0.00
Modify  | 0.1303     | 0.13034    | 0.13053    |   0.0 | 11.50
Other   |            | 0.003031   |            |       |  0.27

Nlocal:    10.125 ave 11 max 10 min
Histogram: 7 0 0 0 0 0 0 0 0 1
Nghost:    1105.5 ave 1116 max 1098 min
Histogram: 1 0 3 0 0 3 0 0 0 1
Neighs:    2404.75 ave 2605 max 2370 min
Histogram: 7 0 0 0 0 0 0 0 0 1

Total # of neighbors = 19238
Ave neighs/atom = 237.506
Neighbor list builds = 0
Dangerous builds = 0
WARNING: Using 'neigh_modify every 1 delay 0 check yes' setting during minimization (../min.cpp:190)
Setting up cg style minimization ...
  Unit style    : real
  Current step  : 35
WARNING: Energy due to 3 extra global DOFs will be included in minimizer energies
Per MPI rank memory allocation (min/avg/max) = 27.51 | 27.65 | 27.84 Mbytes
Step Temp E_pair E_mol TotEng Press Volume 
      35            0   -14416.585            0   -14416.585    9863.7366    2414.5532 
      42            0   -14416.858            0   -14416.858   -1086.8112    2415.6138 
Loop time of 1.48594 on 8 procs for 7 steps with 81 atoms

99.7% CPU use with 8 MPI tasks x no OpenMP threads

Minimization stats:
  Stopping criterion = energy tolerance
  Energy initial, next-to-last, final = 
         -14416.584828     -14416.8579819     -14416.8580855
  Force two-norm initial, final = 621.511 293.288
  Force max component initial, final = 354.983 80.9673
  Final line search alpha, max atom move = 1.20304e-09 9.74066e-08
  Iterations, force evaluations = 7 81

MPI task timing breakdown:
Section |  min time  |  avg time  |  max time  |%varavg| %total
---------------------------------------------------------------
Pair    | 1.2799     | 1.2891     | 1.3043     |   0.8 | 86.75
Neigh   | 0          | 0          | 0          |   0.0 |  0.00
Comm    | 0.025706   | 0.04076    | 0.050187   |   4.6 |  2.74
Output  | 0.00012515 | 0.00017447 | 0.00026155 |   0.0 |  0.01
Modify  | 0.14603    | 0.14608    | 0.14631    |   0.0 |  9.83
Other   |            | 0.009841   |            |       |  0.66

Nlocal:    10.125 ave 11 max 10 min
Histogram: 7 0 0 0 0 0 0 0 0 1
Nghost:    1105.5 ave 1116 max 1098 min
Histogram: 1 0 3 0 0 3 0 0 0 1
Neighs:    2404.75 ave 2605 max 2370 min
Histogram: 7 0 0 0 0 0 0 0 0 1

Total # of neighbors = 19238
Ave neighs/atom = 237.506
Neighbor list builds = 0
Dangerous builds = 0
WARNING: Using 'neigh_modify every 1 delay 0 check yes' setting during minimization (../min.cpp:190)
Setting up cg style minimization ...
  Unit style    : real
  Current step  : 42
Per MPI rank memory allocation (min/avg/max) = 27.51 | 27.65 | 27.84 Mbytes
Step Temp E_pair E_mol TotEng Press 
      42            0   -14416.858            0   -14416.858    -1086.816 
      44            0   -14416.871            0   -14416.871   -22.489082 
Loop time of 1.68877 on 8 procs for 2 steps with 81 atoms

99.7% CPU use with 8 MPI tasks x no OpenMP threads

Minimization stats:
  Stopping criterion = linesearch alpha is zero
  Energy initial, next-to-last, final = 
        -14416.8580863     -14416.8711227     -14416.8711225
  Force two-norm initial, final = 271.456 252.328
  Force max component initial, final = 76.3415 72.6487
  Final line search alpha, max atom move = 1.60244e-13 1.16415e-11
  Iterations, force evaluations = 2 91

MPI task timing breakdown:
Section |  min time  |  avg time  |  max time  |%varavg| %total
---------------------------------------------------------------
Pair    | 1.4248     | 1.4371     | 1.4598     |   0.9 | 85.10
Neigh   | 0          | 0          | 0          |   0.0 |  0.00
Comm    | 0.019166   | 0.04174    | 0.054216   |   5.6 |  2.47
Output  | 0          | 0          | 0          |   0.0 |  0.00
Modify  | 0.20541    | 0.20552    | 0.20583    |   0.0 | 12.17
Other   |            | 0.00441    |            |       |  0.26

Nlocal:    10.125 ave 11 max 10 min
Histogram: 7 0 0 0 0 0 0 0 0 1
Nghost:    1105.5 ave 1116 max 1098 min
Histogram: 1 0 3 0 0 3 0 0 0 1
Neighs:    2404.75 ave 2605 max 2370 min
Histogram: 7 0 0 0 0 0 0 0 0 1

Total # of neighbors = 19238
Ave neighs/atom = 237.506
Neighbor list builds = 0
Dangerous builds = 0
WARNING: Using 'neigh_modify every 1 delay 0 check yes' setting during minimization (../min.cpp:190)
Setting up cg style minimization ...
  Unit style    : real
  Current step  : 44
WARNING: Energy due to 3 extra global DOFs will be included in minimizer energies
Per MPI rank memory allocation (min/avg/max) = 27.51 | 27.65 | 27.84 Mbytes
Step Temp E_pair E_mol TotEng Press Volume 
      44            0   -14416.871            0   -14416.871   -22.488181    2415.6138 
      55            0   -14417.099            0   -14417.099   -3623.4295    2416.3063 
Loop time of 2.6098 on 8 procs for 11 steps with 81 atoms

99.7% CPU use with 8 MPI tasks x no OpenMP threads

Minimization stats:
  Stopping criterion = linesearch alpha is zero
  Energy initial, next-to-last, final = 
        -14416.8711223     -14417.0987235     -14417.0987226
  Force two-norm initial, final = 270.059 367.157
  Force max component initial, final = 74.6247 194.67
  Final line search alpha, max atom move = 6.12367e-14 1.19209e-11
  Iterations, force evaluations = 11 144

MPI task timing breakdown:
Section |  min time  |  avg time  |  max time  |%varavg| %total
---------------------------------------------------------------
Pair    | 2.2542     | 2.2773     | 2.3104     |   1.2 | 87.26
Neigh   | 0          | 0          | 0          |   0.0 |  0.00
Comm    | 0.034871   | 0.068086   | 0.091305   |   7.0 |  2.61
Output  | 0.00014177 | 0.00019145 | 0.00034319 |   0.0 |  0.01
Modify  | 0.24719    | 0.24728    | 0.24765    |   0.0 |  9.47
Other   |            | 0.01696    |            |       |  0.65

Nlocal:    10.125 ave 11 max 10 min
Histogram: 7 0 0 0 0 0 0 0 0 1
Nghost:    1105.5 ave 1116 max 1098 min
Histogram: 1 0 3 0 0 3 0 0 0 1
Neighs:    2404.75 ave 2605 max 2370 min
Histogram: 7 0 0 0 0 0 0 0 0 1

Total # of neighbors = 19238
Ave neighs/atom = 237.506
Neighbor list builds = 0
Dangerous builds = 0
WARNING: Using 'neigh_modify every 1 delay 0 check yes' setting during minimization (../min.cpp:190)
Setting up cg style minimization ...
  Unit style    : real
  Current step  : 55
Per MPI rank memory allocation (min/avg/max) = 27.51 | 27.65 | 27.84 Mbytes
Step Temp E_pair E_mol TotEng Press 
      55            0   -14417.099            0   -14417.099   -3623.4262 
      56            0   -14417.099            0   -14417.099   -3623.4312 
Loop time of 1.12697 on 8 procs for 1 steps with 81 atoms

99.5% CPU use with 8 MPI tasks x no OpenMP threads

Minimization stats:
  Stopping criterion = linesearch alpha is zero
  Energy initial, next-to-last, final = 
        -14417.0987218     -14417.0987218     -14417.0987232
  Force two-norm initial, final = 281.355 281.355
  Force max component initial, final = 82.6316 82.6316
  Final line search alpha, max atom move = 1.40885e-13 1.16415e-11
  Iterations, force evaluations = 1 61

MPI task timing breakdown:
Section |  min time  |  avg time  |  max time  |%varavg| %total
---------------------------------------------------------------
Pair    | 0.96243    | 0.97283    | 0.98749    |   0.7 | 86.32
Neigh   | 0          | 0          | 0          |   0.0 |  0.00
Comm    | 0.014682   | 0.029226   | 0.039492   |   4.2 |  2.59
Output  | 0          | 0          | 0          |   0.0 |  0.00
Modify  | 0.12148    | 0.12154    | 0.1217     |   0.0 | 10.78
Other   |            | 0.003373   |            |       |  0.30

Nlocal:    10.125 ave 11 max 10 min
Histogram: 7 0 0 0 0 0 0 0 0 1
Nghost:    1105.5 ave 1116 max 1098 min
Histogram: 1 0 3 0 0 3 0 0 0 1
Neighs:    2404.75 ave 2605 max 2370 min
Histogram: 7 0 0 0 0 0 0 0 0 1

Total # of neighbors = 19238
Ave neighs/atom = 237.506
Neighbor list builds = 0
Dangerous builds = 0
Setting up Verlet run ...
  Unit style    : real
  Current step  : 0
  Time step     : 0.25
Per MPI rank memory allocation (min/avg/max) = 26.39 | 26.52 | 26.72 Mbytes
Step Temp TotEng KinEng PotEng Press 
       0          300   -14345.559    71.539441   -14417.099     -2270.03 
     200    239.45246   -14317.731    57.100983   -14374.832    9736.5049 
     400    350.64476   -14283.451    83.616434   -14367.067     -6321.43 
     600    292.37864   -14287.718    69.722014    -14357.44   -622.09451 
     800    297.24621   -14301.276    70.882759   -14372.159   -3396.6077 
    1000    283.17619   -14311.187    67.527553   -14378.714    13267.792 
    1200    337.63065    -14285.78    80.513028   -14366.293   -3016.1144 
    1400    284.66832   -14304.288    67.883375   -14372.172    3043.6933 
    1600    289.97089   -14305.541    69.147852   -14374.689     2653.842 
    1800    364.68584   -14282.412    86.964738   -14369.377    3006.6134 
    2000    260.53679    -14300.13    62.128855   -14362.258    6616.7799 
    2200      289.797   -14302.945    69.106386   -14372.051    5510.0789 
    2400    328.79556   -14282.754     78.40617    -14361.16    20054.137 
    2600    304.94812   -14297.525    72.719393   -14370.244   -28897.268 
    2800    357.43311   -14273.021    85.235216   -14358.257    1541.8308 
    3000    261.92312   -14290.074    62.459446   -14352.534    24041.263 
    3200    310.88293   -14294.749    74.134637   -14368.883    12770.139 
    3400    319.47217   -14304.744    76.182869   -14380.926   -7380.1483 
    3600    290.52236   -14297.385    69.279357   -14366.665   -4972.6329 
    3800    292.97954   -14297.337    69.865309   -14367.202    9948.9193 
    4000    318.54253   -14292.948    75.961182   -14368.909   -18881.181 
    4200    303.41397   -14291.053    72.353552   -14363.407   -1738.3875 
    4400    270.07849   -14308.762    64.404215   -14373.166   -2316.5602 
    4600    318.04405    -14289.68    75.842313   -14365.523    1466.0995 
    4800    328.73959   -14269.517    78.392823    -14347.91   -15878.803 
    5000    299.27992   -14290.204    71.367727   -14361.572    10050.171 
    5200    302.75636   -14302.995    72.196737   -14375.191   -13105.077 
    5400    276.91667   -14280.243    66.034879   -14346.278   -1584.7849 
    5600    313.24819   -14287.328    74.698667   -14362.027   -3623.9776 
    5800    279.86258   -14300.729    66.737376   -14367.466   -5031.9884 
    6000      328.228   -14293.585    78.270825   -14371.856    4253.4738 
    6200     289.7188   -14299.241    69.087736   -14368.328    16136.695 
    6400    270.26859   -14311.812    64.449547   -14376.262   -2772.4104 
    6600    335.05672   -14295.258    79.899236   -14375.157   -6023.3466 
    6800    315.71977   -14291.514    75.288052   -14366.803    6293.2282 
    7000    277.52335   -14309.628    66.179551   -14375.807    -3973.922 
    7200    301.49125   -14296.809    71.895052   -14368.704    7477.0565 
    7400    336.38477   -14287.299    80.215929   -14367.515   -2555.0876 
    7600    257.73251   -14308.579    61.460133   -14370.039    12390.633 
    7800    286.84364   -14302.389    68.402113   -14370.791    9312.9462 
    8000    339.79964   -14284.725    81.030254   -14365.755    5513.4888 
    8200    295.55084   -14299.689    70.478472   -14370.168    14636.801 
    8400    245.93601    -14298.06    58.647083   -14356.708    10200.104 
    8600    329.35567   -14283.653    78.539735   -14362.193   -14817.554 
    8800    278.54642   -14300.651    66.423518   -14367.075    1800.2806 
    9000    312.19518   -14280.566    74.447563   -14355.013   -7184.8367 
    9200    330.82805   -14285.593    78.890845   -14364.484   -11958.989 
    9400    276.47967   -14305.013    65.930671   -14370.944   -2301.9544 
    9600    278.50102   -14290.926    66.412692   -14357.339    797.56013 
    9800    320.70389   -14286.144     76.47659    -14362.62   -15375.912 
   10000    283.29903   -14305.165    67.556849   -14372.722    27016.828 
   10200    285.74006   -14299.075    68.138948   -14367.214   -4147.7469 
   10400    282.83396   -14286.725    67.445945   -14354.171    8485.1903 
   10600     302.1942   -14303.675    72.062681   -14375.738   -2623.4098 
   10800    293.87771   -14295.669     70.07949   -14365.748   -9104.6282 
   11000    329.36244   -14271.784     78.54135   -14350.325    2609.0897 
   11200    291.69612   -14290.382    69.559258   -14359.941   -2571.4489 
   11400    298.76864   -14299.597    71.245805   -14370.843   -6323.7565 
   11600    313.48827   -14300.065    74.755918   -14374.821    -8611.804 
   11800    366.21655   -14281.809    87.329759   -14369.139    2190.7313 
   12000    272.94156    -14300.82    65.086957   -14365.907    8936.2639 
   12200    340.98529   -14299.002     81.31299   -14380.315   -6584.9929 
   12400    334.66025   -14277.416     79.80469    -14357.22    18028.036 
   12600    289.62356   -14296.584    69.065025   -14365.649   -3167.7554 
   12800    333.61844   -14290.187    79.556256   -14369.743   -3117.2196 
   13000    264.78363   -14299.794    63.141576   -14362.935    -12731.64 
   13200    300.51245   -14304.238    71.661643     -14375.9   -13893.142 
   13400    371.14526   -14286.121    88.505082   -14374.627    10107.151 
   13600     279.2691   -14304.847    66.595852   -14371.443    -5838.824 
   13800    282.12583   -14300.572    67.277081   -14367.849   -2906.3918 
   14000    334.87129   -14279.752    79.855016   -14359.607   -9307.8196 
   14200    321.13384   -14292.172    76.579119   -14368.751    7349.3184 
   14400    291.55056   -14303.991    69.524546   -14373.516    3615.6566 
   14600     286.6385   -14288.938    68.353194   -14357.291    2694.4937 
   14800    296.54865   -14307.382    70.716416   -14378.098    2691.0862 
   15000    289.23365   -14305.444    68.972046   -14374.416    6273.6817 
   15200    298.51382   -14289.911    71.185041   -14361.096    10074.993 
   15400    266.12702   -14312.014    63.461928   -14375.476   -27925.177 
   15600    315.86425   -14299.173    75.322507   -14374.495   -14259.541 
   15800    333.37812   -14290.781    79.498947    -14370.28    9624.8328 
   16000    288.08151   -14306.593    68.697302   -14375.291    17621.678 
   16200     304.4088   -14298.779    72.590784    -14371.37   -5957.3813 
   16400    306.87167   -14290.076    73.178092   -14363.254   -11710.674 
   16600    266.96889   -14303.311    63.662684   -14366.973     7400.955 
   16800    278.70487   -14305.386    66.461303   -14371.847    3728.7156 
   17000    312.54833   -14287.608    74.531776    -14362.14    4494.3392 
   17200     275.5157    -14295.26    65.700798   -14360.961   -15534.768 
   17400    243.79743     -14319.7    58.137107   -14377.837    2237.4161 
   17600    291.06098   -14308.133    69.407799    -14377.54    13582.592 
   17800    314.73512   -14291.474    75.053248   -14366.527   -13733.961 
   18000    287.70782   -14301.328     68.60819   -14369.936   -1295.4776 
   18200    302.10664   -14308.496      72.0418   -14380.537   -6682.9335 
   18400    313.90969   -14291.774    74.856412    -14366.63    4999.3981 
   18600    297.59369   -14288.938    70.965622   -14359.904   -28919.017 
   18800    263.31855    -14303.98    62.792206   -14366.773    24716.602 
   19000    284.26572   -14305.723     67.78737    -14373.51   -5740.0832 
   19200    312.50874   -14286.012    74.522336   -14360.534   -14244.407 
   19400    283.39609   -14302.543    67.579994   -14370.123    3361.0933 
   19600    296.31282   -14298.658    70.660179   -14369.318    11995.976 
   19800    321.08591   -14292.629    76.567688   -14369.197    12048.578 
   20000    274.26498   -14308.148    65.402545   -14373.551    8379.8321 
   20200    317.57076   -14295.959     75.72945   -14371.688   -23996.914 
   20400    316.12364   -14290.381    75.384361   -14365.766    9487.1922 
   20600    328.61539   -14300.942    78.363205   -14379.305   -3381.2559 
   20800    279.56779   -14300.648    66.667079   -14367.315    257.00316 
   21000    338.11593   -14276.694    80.628749   -14357.323   -12142.142 
   21200    309.61484   -14297.939    73.832243   -14371.771    10324.571 
   21400    263.45679   -14301.852    62.825171   -14364.678   -24198.823 
   21600    330.25592   -14291.278    78.754414   -14370.032    24222.358 
   21800    297.96499   -14297.439    71.054163   -14368.494   -2405.1488 
   22000    288.71461   -14313.882    68.848274    -14382.73    3711.0834 
   22200    320.15416   -14297.427    76.345499   -14373.772   -9284.9314 
   22400    319.52179   -14298.133    76.194701   -14374.327   -19130.963 
   22600    375.90402   -14278.156    89.639879   -14367.796    -17024.28 
   22800    303.11911   -14305.266    72.283239   -14377.549    12560.809 
   23000    304.17455   -14293.432    72.534923   -14365.967   -9035.0705 
   23200    292.87954   -14292.182    69.841463   -14362.024    16806.572 
   23400    255.47616   -14315.316    60.922072   -14376.238    14331.482 
   23600    308.69528   -14297.071    73.612959   -14370.684    12478.699 
   23800     298.4812   -14292.071    71.177262   -14363.249     13002.59 
   24000    252.51293   -14311.902    60.215447   -14372.118    5126.8636 
   24200    315.66294   -14292.901    75.274502   -14368.176   -2372.5633 
   24400    338.11648   -14288.516    80.628881   -14369.145   -27589.889 
   24600     296.9235    -14296.08    70.805805   -14366.886    6955.3901 
   24800    263.17628   -14305.739    62.758279   -14368.498    3267.0673 
   25000    342.17818    -14284.49    81.597454   -14366.087     16298.28 
   25200    232.63533   -14311.659    55.475339   -14367.135   -18973.943 
   25400    296.22058   -14298.592    70.638184    -14369.23    9255.8113 
   25600    317.06643   -14283.535    75.609185   -14359.144    11597.392 
   25800    284.13139   -14307.011    67.755335   -14374.766    -135.4377 
   26000    293.42358   -14303.168    69.971196    -14373.14   -3155.9774 
   26200    349.59489   -14284.145    83.366077   -14367.511    9856.1567 
   26400    318.73468   -14298.548    76.007003   -14374.555   -7121.9764 
   26600    310.26993   -14300.281    73.988458   -14374.269     -6606.57 
   26800    318.43428   -14281.493    75.935368   -14357.429   -1145.8018 
   27000    321.14273   -14298.799    76.581238    -14375.38    15166.653 
   27200    323.79312   -14280.551    77.213264   -14357.764    19993.555 
   27400    332.97978    -14284.39    79.403959   -14363.794    15865.979 
   27600    315.88235   -14298.869    75.326822   -14374.196    778.42912 
   27800    252.38018   -14308.603     60.18379   -14368.786    1498.4298 
   28000    354.91757   -14289.197    84.635348   -14373.832    18390.058 
   28200    289.68791   -14303.249     69.08037    -14372.33   -12109.742 
   28400    290.27329   -14310.406    69.219962   -14379.626   -8671.2447 
   28600    302.53814   -14295.365    72.144698    -14367.51    16474.656 
   28800    282.14141   -14294.243    67.280797   -14361.523    6186.8998 
   29000    278.44623   -14317.355    66.399626   -14383.755   -1339.1425 
   29200    308.55046   -14299.895    73.578426   -14373.473    18440.778 
   29400    281.12883   -14292.464    67.039332   -14359.503   -3322.0792 
   29600    368.72577   -14278.378    87.928118   -14366.306     6110.507 
   29800    294.42058   -14295.454    70.208946   -14365.663   -823.82284 
   30000    326.38475   -14296.233    77.831275   -14374.064    4671.7638 
   30200    315.09615   -14281.037    75.139341   -14356.176   -3762.9721 
   30400    336.34458   -14284.161    80.206344   -14364.367    -17267.63 
   30600    299.71368   -14302.142    71.471163   -14373.613   -10408.103 
   30800    297.71297   -14292.996    70.994064    -14363.99    4238.1041 
   31000    351.14373   -14278.341    83.735421   -14362.077    5051.3928 
   31200    280.76115    -14306.09    66.951652   -14373.041    11370.254 
   31400    324.01968    -14292.77     77.26729   -14370.037    16962.267 
   31600    319.32703   -14287.759    76.148257   -14363.907    10717.285 
   31800    267.08428   -14309.985    63.690202   -14373.675   -16486.439 
   32000    296.56681   -14294.032    70.720746   -14364.752    24440.668 
   32200    329.63414   -14286.261    78.606139   -14364.867   -20363.407 
   32400    264.91993   -14308.141     63.17408   -14371.315    3180.5613 
   32600    274.28182   -14299.579    65.406561   -14364.985   -11834.354 
   32800    303.86837   -14290.018     72.46191    -14362.48   -1285.9442 
   33000    305.94341   -14291.376    72.956734   -14364.333    2507.8733 
   33200     300.6729   -14289.924    71.699905   -14361.624    15933.249 
   33400    302.51669   -14304.685    72.139583   -14376.824    7450.1725 
   33600    326.86952   -14303.089    77.946875   -14381.035    1923.9713 
   33800    295.72076   -14283.685    70.518992   -14354.204    964.36508 
   34000     303.7019   -14297.858    72.422214    -14370.28   -3594.1256 
   34200    314.09011   -14306.726    74.899436   -14381.626     16891.04 
   34400    291.85889     -14288.5    69.598074   -14358.098   -11708.179 
   34600    272.82963   -14291.859    65.060264   -14356.919   -16863.712 
   34800    266.88007   -14298.081    63.641505   -14361.722    2669.3373 
   35000    327.26664   -14280.314    78.041575   -14358.356    9676.7292 
   35200    278.24573    -14294.77    66.351813   -14361.122   -27954.325 
   35400    313.09923   -14291.875    74.663146   -14366.538   -9698.4889 
   35600    296.34744   -14294.597    70.668434   -14365.266   -1675.9355 
   35800    299.07918   -14307.634    71.319857   -14378.954    -2491.403 
   36000    378.92155   -14289.876    90.359454   -14380.235   -20845.993 
   36200    270.18428   -14300.835    64.429441   -14365.265    13394.641 
   36400    323.90087   -14292.276    77.238957   -14369.515    16824.969 
   36600    297.94367   -14297.372    71.049078   -14368.421    5237.2766 
   36800     299.6105   -14303.167    71.446558   -14374.614   -2804.4919 
   37000     344.8546   -14296.956    82.235685   -14379.192   -11274.876 
   37200    283.55793   -14291.029    67.618586   -14358.647   -984.46291 
   37400    316.72124   -14286.927    75.526869   -14362.454    982.44134 
   37600    256.57801   -14305.976    61.184824   -14367.161    2324.3125 
   37800    352.14269   -14283.809    83.973637   -14367.783    456.35042 
   38000    267.38488   -14291.166    63.761882   -14354.928    1386.1449 
   38200    297.53514   -14294.026    70.951658   -14364.978   -8942.5569 
   38400    324.09527   -14281.128    77.285315   -14358.413    4549.3499 
   38600    304.55254   -14287.824    72.625062   -14360.449   -15133.719 
   38800    290.32537   -14298.169    69.232383   -14367.401    7072.8103 
   39000    263.05749   -14308.178    62.729954   -14370.908   -3605.0794 
   39200    330.66718   -14295.223    78.852483   -14374.076    13033.214 
   39400    291.65519   -14290.075    69.549498   -14359.624   -23423.972 
   39600    286.74578   -14311.425    68.378777   -14379.804   -5135.7991 
   39800    303.03938   -14297.873    72.264226   -14370.138   -3430.3395 
   40000    325.12531   -14282.808    77.530943   -14360.339   -7423.8653 
   40200    294.51395    -14294.96     70.23121   -14365.191    -2441.435 
   40400    319.70663   -14297.904     76.23878   -14374.143    3582.4443 
   40600    303.43739   -14304.278    72.359138   -14376.637    3930.1091 
   40800    336.26488   -14283.663     80.18734    -14363.85    15302.124 
   41000     316.1645   -14293.569    75.394104   -14368.963    4415.4358 
   41200    239.12072   -14316.796    57.021875   -14373.818    6587.4309 
   41400    304.29063   -14305.279    72.562605   -14377.842    11781.307 
   41600    264.75057   -14288.084    63.133693   -14351.217    6271.5974 
   41800    299.29928    -14289.84    71.372345   -14361.213   -2769.8471 
   42000    300.83031   -14306.835     71.73744   -14378.573    5123.0115 
   42200    294.94686    -14297.67    70.334444   -14368.005   -7063.2702 
   42400    324.23826   -14286.323    77.319413   -14363.643    8205.8564 
   42600    305.63712    -14303.58    72.883696   -14376.464   -12277.199 
   42800    271.87051   -14298.538    64.831548    -14363.37   -20209.793 
   43000    323.26509   -14292.513    77.087347     -14369.6    6162.2738 
   43200    302.94562   -14299.693    72.241868   -14371.935   -11609.093 
   43400    340.08095    -14276.43    81.097337   -14357.527    1868.2878 
   43600     303.9825   -14295.416    72.489128   -14367.905   -6468.8258 
   43800    305.06291   -14294.991    72.746768   -14367.738   -3958.0955 
   44000    261.52508   -14308.124    62.364527   -14370.488    17465.615 
   44200    277.55291   -14289.715      66.1866   -14355.901    16815.589 
   44400    282.87785   -14292.947     67.45641   -14360.403    20319.768 
   44600    344.96589   -14293.281    82.262224   -14375.544    8047.6777 
   44800    342.26323   -14275.336    81.617734   -14356.954    5693.4972 
   45000    277.16335   -14301.255    66.093703   -14367.349    430.97206 
   45200    343.37433    -14291.49    81.882693   -14373.372    4719.1185 
   45400    260.47601   -14303.344     62.11436   -14365.458   -11583.093 
   45600     262.2562   -14306.284    62.538873   -14368.823   -8066.5227 
   45800    301.22897   -14288.103    71.832507   -14359.936   -23925.099 
   46000    294.42238    -14287.11    70.209374   -14357.319    3323.7881 
   46200    253.33997    -14307.28    60.412667   -14367.693    10574.976 
   46400    320.97309   -14295.862    76.540784   -14372.403   -3667.2951 
   46600    305.23538   -14287.956    72.787896   -14360.744    22663.543 
   46800    284.48967    -14294.25    67.840774   -14362.091    22298.745 
   47000    337.75014   -14285.231    80.541521   -14365.773   -35128.489 
   47200    263.11487   -14299.074    62.743637   -14361.818   -7026.4266 
   47400    276.50777   -14301.762    65.937371     -14367.7   -4711.1457 
   47600    340.67135   -14283.978    81.238127   -14365.216    9040.5506 
   47800    298.01185   -14298.159    71.065337   -14369.225   -10845.782 
   48000    320.30333   -14298.814    76.381071   -14375.195   -7363.9353 
   48200    268.37351   -14313.616    63.997637   -14377.614    4518.9024 
   48400    308.50024   -14291.601    73.566449   -14365.167    14559.261 
   48600    260.26056   -14296.052    62.062984   -14358.115   -14430.886 
   48800     272.6712    -14300.64    65.022483   -14365.662   -27811.751 
   49000    309.35288   -14287.037    73.769775   -14360.807   -9320.7318 
   49200    287.61776    -14300.85    68.586712   -14369.437    9914.8585 
   49400    334.71034   -14295.529    79.816636   -14375.346    12847.162 
   49600    316.55954   -14287.982    75.488308    -14363.47    6255.5002 
   49800    298.16586   -14307.997    71.102063   -14379.099    3357.9758 
   50000    319.66892   -14289.062    76.229785   -14365.292    14662.588 
   50200    341.38042   -14283.723    81.407215    -14365.13   -11108.368 
   50400    306.29365   -14301.058    73.040256   -14374.098   -12384.423 
   50600    289.53343    -14299.64    69.043533   -14368.684    20600.569 
   50800    336.48158   -14277.632    80.239015   -14357.871   -6494.5331 
   51000    320.76069   -14293.229    76.490136   -14369.719   -5230.1435 
   51200    331.27087   -14303.624    78.996443   -14382.621    13919.622 
   51400    313.32814   -14292.987    74.717734   -14367.705   -5903.7837 
   51600    304.57881   -14293.552    72.631325   -14366.184    17157.276 
   51800    240.95194   -14303.747    57.458558   -14361.205   -13048.446 
   52000    310.12315   -14286.806    73.953455    -14360.76   -7580.8711 
   52200    293.01287   -14298.381    69.873257   -14368.254    12605.017 
   52400    322.31922   -14302.525    76.861789   -14379.387    186.26392 
   52600    324.00154   -14288.129    77.262963   -14365.392    3408.1555 
   52800    299.22928   -14290.197    71.355652   -14361.552    14370.928 
   53000    269.41708   -14309.523    64.246492    -14373.77   -9595.4903 
   53200     305.6972   -14307.043    72.898023   -14379.941   -10275.425 
   53400    310.94184   -14287.527    74.148686   -14361.676    -8733.421 
   53600    322.27546   -14299.993    76.851354   -14376.844   -23055.512 
   53800    256.98519   -14317.681    61.281923   -14378.963    8381.4801 
   54000    285.00634   -14300.934    67.963982   -14368.898    10926.432 
   54200     301.9455    -14291.67    72.003374   -14363.674     10965.97 
   54400    340.04044   -14278.947    81.087677   -14360.034   -12218.182 
   54600    277.27785   -14298.716    66.121008   -14364.838    3076.7351 
   54800    280.31975   -14293.879    66.846394   -14360.726     10376.99 
   55000    348.49249   -14282.751    83.103193   -14365.854    4093.0691 
   55200    288.70766   -14302.512    68.846617   -14371.358    24931.202 
   55400    276.26238   -14296.091    65.878853    -14361.97   -20233.898 
   55600    349.80715   -14278.587    83.416693   -14362.004   -3606.9403 
   55800    292.43866   -14298.567    69.736328   -14368.303    5969.8292 
   56000    299.30806   -14298.238    71.374438   -14369.613   -14742.452 
   56200    348.33075   -14277.277    83.064625   -14360.342    7855.5097 
   56400    321.13571   -14297.032    76.579564   -14373.611    8209.7702 
   56600    282.56701   -14299.905    67.382287   -14367.287   -9934.6508 
   56800    316.76019   -14284.413    75.536157   -14359.949    -12730.04 
   57000    325.44119   -14288.328    77.606269   -14365.934    1336.0559 
   57200    262.91894   -14302.326    62.696913   -14365.023    13209.676 
   57400    324.16405   -14288.187    77.301717   -14365.489    12923.324 
   57600    315.02864   -14281.143    75.123244   -14356.267    11315.178 
   57800    295.70468   -14296.951    70.515158   -14367.466   -11741.633 
   58000    313.56422   -14289.852    74.774031   -14364.626   -19326.103 
   58200     324.2679    -14277.43     77.32648   -14354.756   -9882.7092 
   58400     306.0764   -14299.602     72.98845   -14372.591    8389.0984 
   58600    264.10482   -14299.429    62.979705   -14362.409    10596.678 
   58800    313.80426    -14281.85    74.831272   -14356.681    8024.0878 
   59000    292.30574   -14305.126    69.704632   -14374.831    8472.4231 
   59200    320.04086   -14292.028    76.318482   -14368.346    8394.8983 
   59400    286.84392   -14293.389    68.402179   -14361.791   -6012.6005 
   59600    274.88852   -14313.166    65.551237   -14378.717   -15844.407 
   59800    331.29829   -14293.609    79.002983   -14372.612     10111.63 
   60000    274.90205   -14289.734    65.554463   -14355.289    595.87803 
   60200    276.68731   -14299.992    65.980184   -14365.972    15673.573 
   60400     284.1398   -14300.366    67.757342   -14368.123   -19194.472 
   60600    322.32211   -14286.545    76.862478   -14363.407    7503.3703 
   60800    256.58777   -14297.933    61.187152    -14359.12    591.71659 
   61000    255.18422   -14317.945    60.852454   -14378.798   -11549.522 
   61200     302.0985   -14295.929    72.039859   -14367.969   -7141.1907 
   61400    322.67454   -14293.891     76.94652   -14370.838   -27182.482 
   61600    284.67543   -14306.104     67.88507   -14373.989   -670.58682 
   61800    309.78305   -14298.049    73.872354   -14371.921   -11174.386 
   62000    289.12868   -14292.461    68.947013   -14361.408    19537.746 
   62200    299.87731    -14297.63    71.510183    -14369.14    20776.212 
   62400    278.79772   -14306.868    66.483445   -14373.352    6839.0698 
   62600    313.99982   -14292.608    74.877907   -14367.486   -11561.706 
   62800    295.13164   -14295.193    70.378508   -14365.572    6928.3413 
   63000    273.80996   -14311.184    65.294038   -14376.478   -13931.228 
   63200    256.87434   -14298.644    61.255489     -14359.9   -12916.012 
   63400    310.90351   -14288.843    74.139545   -14362.982    31462.364 
   63600    337.85231   -14274.365    80.565886   -14354.931    -7671.297 
   63800    291.13893    -14300.97    69.426388   -14370.397   -2104.8014 
   64000    303.78933   -14296.318    72.443064   -14368.761    5883.5496 
   64200    338.35455   -14276.899    80.685652   -14357.584   -298.85876 
   64400    271.06457    -14301.09     64.63936   -14365.729   -12141.234 
   64600     305.4615   -14297.684    72.841817   -14370.526   -5371.3597 
   64800     363.6054   -14279.824     86.70709   -14366.532    15726.183 
   65000     252.0389   -14303.559    60.102408   -14363.661    5447.5114 
   65200    342.39807    -14290.28     81.64989    -14371.93   -8040.5693 
   65400    297.61334   -14292.667    70.970307   -14363.637     1732.111 
   65600    274.41306   -14312.071    65.437857   -14377.508    7359.0844 
   65800    283.91667   -14293.728    67.704132   -14361.433     3774.054 
   66000    324.07374   -14283.881    77.280181   -14361.161    2366.8464 
   66200     266.0812   -14304.939    63.451001    -14368.39     9090.612 
   66400    341.37209   -14295.054    81.405229   -14376.459    305.02603 
   66600    270.63634   -14294.102    64.537242   -14358.639    9468.2324 
   66800    261.76171    -14311.13    62.420955   -14373.551    5110.4015 
   67000     311.8476   -14302.342    74.364677   -14376.706    10611.178 
   67200    277.45791   -14289.258    66.163946   -14355.422    3381.4178 
   67400      336.304   -14289.807    80.196669   -14370.004    3240.4554 
   67600     294.8963   -14298.786    70.322389   -14369.109    3001.7556 
   67800    330.60759   -14290.204    78.838275   -14369.042     -2725.59 
   68000    266.94999   -14292.558    63.658176   -14356.216   -18366.934 
   68200    298.16246   -14304.602    71.101253   -14375.703   -743.49543 
   68400    284.82985   -14293.501    67.921894   -14361.423    7402.8197 
   68600     320.5628   -14297.763    76.442945   -14374.206   -24210.877 
   68800    362.19037   -14270.646    86.369655   -14357.015    11028.487 
   69000    302.24533   -14286.395    72.074873    -14358.47    8456.2766 
   69200    302.97842   -14297.968     72.24969   -14370.217    3928.0407 
   69400    252.69804   -14312.415    60.259588   -14372.674    2050.7869 
   69600    326.09636   -14287.388    77.762504   -14365.151   -6094.9034 
   69800    287.82745   -14294.438    68.636716   -14363.075    17544.106 
   70000    275.02782   -14306.619    65.584456   -14372.204    194.61089 
   70200    347.36521   -14280.004    82.834378   -14362.839    12080.953 
   70400    273.12105   -14295.465    65.129757   -14360.595   -11214.794 
   70600    295.80423   -14299.208    70.538897   -14369.746   -2541.3406 
   70800    316.19426   -14276.069    75.401203    -14351.47    6526.2497 
   71000    288.99262   -14295.306    68.914569    -14364.22   -10958.069 
   71200    285.05688   -14296.217    67.976032   -14364.193   -13444.877 
   71400    332.80891   -14280.546    79.363211   -14359.909   -2100.2482 
   71600    298.10619   -14301.271    71.087835   -14372.359   -2809.5508 
   71800    284.74641   -14299.771    67.901996   -14367.673   -7103.8001 
   72000    357.65515   -14273.881    85.288166   -14359.169    -16674.43 
   72200    308.37311   -14289.262    73.536132   -14362.798   -8107.9489 
   72400    290.31693    -14304.79    69.230371   -14374.021   -10717.407 
   72600    293.86009   -14296.749    70.075288   -14366.825    12338.303 
   72800    335.85849   -14285.641     80.09043   -14365.731   -7533.8545 
   73000    318.67533   -14299.557     75.99285   -14375.549    -1840.876 
   73200    263.57829   -14293.588    62.854144   -14356.443   -1937.6316 
   73400    326.69573   -14282.932    77.905434   -14360.838    -5412.054 
   73600    316.33802   -14307.794    75.435485    -14383.23   -8336.9396 
   73800    292.54298   -14295.652    69.761205   -14365.414    3936.5152 
   74000    340.45635   -14289.435    81.186856   -14370.622    -6130.963 
   74200     284.5001   -14308.213    67.843261   -14376.056   -5087.6711 
   74400    262.45965    -14303.87    62.587389   -14366.457    906.83128 
   74600    295.85655    -14299.78    70.551375   -14370.331    1700.7225 
   74800    339.44491   -14282.391    80.945663   -14363.337    2152.0102 
   75000    299.71715   -14295.505    71.471992   -14366.977   -12581.242 
   75200    292.17011   -14304.871    69.672289   -14374.543   -25942.264 
   75400    342.24175   -14283.763    81.612612   -14365.375    6486.7598 
   75600    301.06537   -14291.934    71.793494   -14363.728   -12477.755 
   75800    294.68377   -14299.042    70.271707   -14369.314    17777.219 
   76000    314.23867   -14289.889    74.934862   -14364.823    11693.103 
   76200    287.11528   -14311.043     68.46689    -14379.51     4524.747 
   76400     335.7013   -14287.751    80.052946   -14367.804    1792.0599 
   76600    334.16653     -14288.4    79.686955   -14368.087   -3187.3428 
   76800    239.08428    -14310.37    57.013187   -14367.384    7133.4004 
   77000    297.12574   -14307.545    70.854031   -14378.399   -6470.6143 
   77200    275.44821   -14297.932    65.684704   -14363.617   -17686.093 
   77400    301.31771   -14289.365    71.853669   -14361.219   -4860.6587 
   77600    334.11872   -14290.154    79.675555    -14369.83    13434.714 
   77800    277.99733   -14308.868    66.292578    -14375.16    1523.0163 
   78000    312.27801   -14287.355    74.467315   -14361.822    14549.947 
   78200    330.97037   -14286.362    78.924784   -14365.287    -15654.67 
   78400    264.24338   -14305.453    63.012747   -14368.466   -2641.0886 
   78600     283.5503   -14305.188    67.616767   -14372.804    11254.408 
   78800    303.43597   -14291.777    72.358798   -14364.136    2336.3645 
   79000    326.52892   -14275.803    77.865655   -14353.668    8454.8226 
   79200    301.83284   -14292.443    71.976509    -14364.42   -3787.9424 
   79400     311.1922   -14301.669    74.208386   -14375.877   -13159.823 
   79600    347.75737   -14287.418    82.927893   -14370.346    26213.531 
   79800    297.51696   -14282.439    70.947324   -14353.387    1137.5312 
   80000    305.00167   -14305.303    72.732165   -14378.035    656.33057 
   80200    323.38308   -14296.002    77.115484   -14373.117   -6553.2528 
   80400    331.13042   -14278.637    78.962951     -14357.6    13876.913 
   80600    269.58311   -14304.345    64.286083   -14368.631    604.45109 
   80800    334.18399   -14284.647    79.691119   -14364.338    7453.1657 
   81000    305.82786   -14299.286     72.92918   -14372.215    6957.4732 
   81200    302.52372   -14300.448    72.141261    -14372.59    9224.9132 
   81400      321.824   -14284.552    76.743696   -14361.296   -6175.6927 
   81600    228.00687   -14306.102    54.371613   -14360.473   -14069.419 
   81800    340.62123   -14291.561    81.226176   -14372.787   -4925.2351 
   82000    279.11377   -14286.615    66.558811   -14353.174    27491.557 
   82200    254.08663   -14303.603    60.590717   -14364.193   -13290.176 
   82400    307.53416   -14300.492    73.336074   -14373.828   -15444.938 
   82600     339.2457   -14284.319     80.89816   -14365.217    15461.957 
   82800    276.03325   -14305.621    65.824214   -14371.445    15678.685 
   83000     319.8598   -14297.571    76.275303   -14373.847    6729.9371 
   83200    307.69786   -14292.561    73.375109   -14365.936   -4747.0847 
   83400    281.06049   -14301.182    67.023034   -14368.205    7009.8702 
   83600    363.88856   -14284.631    86.774614   -14371.406     4660.714 
   83800    340.17517   -14284.664    81.119805   -14365.783    6923.5156 
   84000    306.72714   -14297.018    73.143628   -14370.162   -2664.5826 
   84200    231.28642   -14306.142     55.15367   -14361.296   -468.42792 
   84400    315.73826    -14285.11    75.292462   -14360.402    3681.7198 
   84600    312.93827   -14294.158    74.624763   -14368.783   -3156.8829 
   84800    280.66518   -14299.226    66.928767   -14366.155   -27102.409 
   85000    330.77038   -14294.577    78.877094   -14373.454    13426.319 
   85200    293.69652   -14294.389    70.036284   -14364.426   -17346.068 
   85400    307.74115   -14295.101    73.385434   -14368.487    1693.8541 
   85600    277.93344    -14309.27    66.277344   -14375.547    28.666945 
   85800    292.79238   -14284.734    69.820679   -14354.555   -20815.504 
   86000    294.08626   -14294.928    70.129222   -14365.057    3653.2767 
   86200    270.42893   -14301.751    64.487781   -14366.239    -14559.35 
   86400    305.93747   -14296.772     72.95532   -14369.727   -10383.834 
   86600    261.93033   -14300.169    62.461165    -14362.63    -6042.528 
   86800    334.78976   -14284.381    79.835576   -14364.216   -11968.845 
   87000    293.22518   -14305.037    69.923886   -14374.961    4271.4857 
   87200    241.85857   -14305.914    57.674756   -14363.589   -13686.701 
   87400    307.54925   -14292.493    73.339673   -14365.833    10436.713 
   87600    301.18063   -14290.825    71.820981   -14362.646   -1407.2553 
   87800    281.55503   -14288.501    67.140964   -14355.642   -2986.7636 
   88000    294.60809   -14308.999     70.25366   -14379.253    8534.5279 
   88200    313.35113   -14292.878    74.723216   -14367.601   -9658.6739 
   88400    336.42094     -14288.7    80.224554   -14368.924    18065.466 
   88600     279.6668   -14306.364    66.690688   -14373.055   -572.92475 
   88800    303.48033   -14292.345    72.369378   -14364.714    24677.457 
   89000     376.6772   -14267.612    89.824255   -14357.437   -25793.673 
   89200     276.7556   -14290.106    65.996469   -14356.102   -4473.0213 
   89400    281.17888   -14303.049    67.051267     -14370.1   -24582.566 
   89600    292.30348   -14297.851    69.704092   -14367.555   -8006.6155 
   89800    335.42901   -14283.134    79.988014   -14363.122   -31562.499 
   90000    278.13425   -14301.529     66.32523   -14367.855     3384.374 
   90200    354.19994   -14292.084    84.464218   -14376.549    8315.6764 
   90400    329.83631   -14276.288    78.654351   -14354.943   -4995.5263 
   90600    305.51506   -14296.437    72.854589   -14369.291   -15183.641 
   90800    314.08459   -14295.259    74.898119   -14370.157   -3832.1431 
   91000    286.73619   -14309.005     68.37649   -14377.382   -22633.521 
   91200    280.44946   -14294.539    66.877325   -14361.416   -6004.3194 
   91400    289.88353   -14298.965    69.127019   -14368.092   -15576.659 
   91600     309.0873   -14292.736    73.706443   -14366.443    14829.084 
   91800    236.52351   -14306.526    56.402533   -14362.928    5192.0459 
   92000    319.45738   -14287.498    76.179341   -14363.677    953.66346 
   92200    305.78432   -14296.656    72.918798   -14369.574    1791.4309 
   92400    295.27162   -14303.734     70.41189   -14374.145   -6215.9352 
   92600    332.58524   -14285.056    79.309874   -14364.366    19713.027 
   92800    293.22631   -14293.048    69.924155   -14362.972     13978.49 
   93000    249.52166   -14313.972    59.502134   -14373.474   -19046.785 
   93200    345.52758   -14290.046    82.396167   -14372.442    13638.384 
   93400    278.31548   -14300.354    66.368446   -14366.722     16605.86 
   93600    314.58613   -14295.425     75.01772   -14370.443    3662.2846 
   93800    317.95837    -14295.74     75.82188   -14371.562    18836.926 
   94000    332.72382   -14292.367    79.342921    -14371.71    32.879437 
   94200    255.25185   -14308.913    60.868582   -14369.781   -3433.3735 
   94400    291.47602   -14299.452    69.506773   -14368.959   -6523.1697 
   94600    327.54064   -14290.307    78.106915   -14368.414    1849.4387 
   94800    267.55633   -14304.796    63.802767   -14368.599    21769.551 
   95000    350.54282   -14280.204    83.592125   -14363.796   -2372.4671 
   95200    305.85437   -14293.847    72.935503   -14366.782   -16837.834 
   95400     260.9568   -14304.138    62.229013   -14366.367   -1802.7078 
   95600    314.11155   -14285.777     74.90455   -14360.681   -8127.2003 
   95800    307.13791   -14301.235    73.241582   -14374.477   -22216.788 
   96000     294.6964   -14298.821    70.274719   -14369.095    15626.282 
   96200    338.01514   -14281.475    80.604714    -14362.08   -2571.9209 
   96400    326.52118   -14300.248     77.86381   -14378.112    12984.647 
   96600    298.90001   -14297.668    71.277133   -14368.945    18009.543 
   96800    277.99943    -14300.32    66.293079   -14366.613    8161.1266 
   97000    275.48046   -14308.598    65.692393    -14374.29    5836.6017 
   97200    323.70962   -14287.015    77.193352   -14364.208    5466.3724 
   97400    269.65224   -14296.304    64.302569   -14360.607   -4371.6963 
   97600     300.5759   -14298.367    71.676772   -14370.043    840.01884 
   97800    313.78738   -14287.021    74.827246   -14361.848   -8307.3661 
   98000    335.97446   -14278.419    80.118085   -14358.537   -8672.8357 
   98200    280.00049    -14303.29    66.770261    -14370.06    15736.158 
   98400    301.09552    -14289.12    71.800684    -14360.92   -23067.085 
   98600    323.89467   -14281.596     77.23748   -14358.834   -3322.1511 
   98800     273.9526   -14300.064    65.328052   -14365.392    6063.4897 
   99000    319.08397   -14305.088    76.090297   -14381.179   -246.21285 
   99200    327.25333   -14280.247    78.038402   -14358.286    3484.4774 
   99400    321.50699   -14292.995    76.668101   -14369.663    7931.6648 
   99600    296.13394   -14301.564    70.617522   -14372.181    752.55485 
   99800     316.5933   -14288.682     75.49636   -14364.178   -287.58296 
  100000    266.21546   -14305.249    63.483018   -14368.732   -1838.7807 
  100200    268.10089    -14297.97    63.932627   -14361.902   -2328.7053 
  100400    274.16256   -14289.288     65.37812   -14354.667    2095.3048 
  100600    272.67706   -14307.388    65.023882   -14372.412   -5653.5735 
  100800    346.65771    -14288.25    82.665664   -14370.916   -33824.657 
  101000    291.43263    -14288.31    69.496424   -14357.807    2988.9496 
  101200    275.70915   -14300.166    65.746927   -14365.913    3001.1116 
  101400    323.65099   -14305.548    77.179371   -14382.727    7463.2894 
  101600    296.41706   -14284.129    70.685037   -14354.814   -16110.009 
  101800     307.3146   -14294.761    73.283715   -14368.045   -1018.1756 
  102000    289.15229   -14304.626    68.952645   -14373.579    11502.118 
  102200    316.37899    -14287.33    75.445254   -14362.775    5320.1626 
  102400    269.00746   -14309.594    64.148811   -14373.743    7191.4769 
  102600    306.23777   -14301.046    73.026929   -14374.073    6594.2559 
  102800    301.24148   -14287.258     71.83549   -14359.094    4043.8088 
  103000     266.9738   -14299.667    63.663855    -14363.33    -15347.02 
  103200    283.31702   -14297.756    67.561138   -14365.317   -7662.3519 
  103400    378.71228   -14279.301    90.309549    -14369.61   -15933.895 
  103600    307.73438   -14296.741    73.383819   -14370.125    8699.6284 
  103800    317.00415   -14300.707    75.594333   -14376.301    13636.339 
  104000    321.72766    -14279.05    76.720724   -14355.771    13516.004 
  104200    285.52457   -14297.134    68.087561   -14365.222   -18110.204 
  104400    289.43096   -14304.692    69.019097   -14373.711    660.40675 
  104600     292.8661   -14285.616    69.838258   -14355.454   -6714.0125 
  104800    271.12077   -14311.341    64.652762   -14375.994    -2321.271 
  105000     273.8766   -14302.758    65.309931   -14368.068    29525.325 
  105200     262.3363   -14295.097    62.557975   -14357.655    2229.1706 
  105400    298.63812   -14305.884    71.214681   -14377.098   -4259.8115 
  105600    253.68782   -14301.138    60.495616   -14361.634   -225.47259 
  105800    338.82632   -14287.507    80.798153   -14368.305   -2513.7566 
  106000    266.43374   -14304.378    63.535071   -14367.913    9060.0115 
  106200    275.01864   -14296.009    65.582267   -14361.592    14774.345 
  106400    303.07908   -14287.468    72.273692   -14359.741    3511.7102 
  106600     290.0612   -14302.307    69.169388   -14371.476    16862.049 
  106800     306.7291   -14294.262    73.144095   -14367.406   -24486.235 
  107000    276.89301   -14288.723    66.029238   -14354.752   -6903.0738 
  107200    305.20927   -14297.475    72.781668   -14370.257    5299.1846 
  107400    282.10451   -14309.773    67.271997   -14377.045   -11551.159 
  107600    276.18825   -14302.257    65.861178   -14368.118    11331.164 
  107800    349.37446   -14288.962    83.313512   -14372.276    8734.5037 
  108000    284.09906   -14302.827    67.747627   -14370.575    22112.102 
  108200    315.11673   -14299.443     75.14425   -14374.587   -9734.6144 
  108400    286.73459   -14296.246    68.376107   -14364.622    8827.9819 
  108600    341.40569   -14280.542     81.41324   -14361.955   -11578.095 
  108800     284.8502   -14300.913    67.926748   -14368.839    10968.412 
  109000     303.0931   -14298.942    72.277036   -14371.219   -15508.036 
  109200    300.13129   -14291.893    71.570749   -14363.464   -135.49092 
  109400    315.89308    -14293.52    75.329382   -14368.849   -19855.398 
  109600    306.12475    -14299.96    72.999979    -14372.96   -14436.725 
  109800    274.38669   -14307.435    65.431567   -14372.866   -20029.817 
  110000    302.40187   -14294.188    72.112204     -14366.3    2041.1918 
  110200     258.7711   -14305.685    61.707799   -14367.393   -3394.1344 
  110400    309.31565   -14305.632    73.760897   -14379.393    1075.4714 
  110600    328.09686   -14292.487    78.239552   -14370.727    8239.8959 
  110800    256.82039   -14312.152    61.242625   -14373.394    4599.5609 
  111000     304.2854   -14295.976    72.561358   -14368.537    2182.3894 
  111200    304.01295   -14289.603    72.496388   -14362.099    2075.0907 
  111400    289.32776   -14300.596    68.994488    -14369.59   -3435.3183 
  111600    275.05143   -14307.416    65.590086   -14373.006   -8507.3832 
  111800     253.5993   -14288.689    60.474507   -14349.163   -6680.4815 
  112000    329.09842   -14286.276    78.478389   -14364.754    4180.3098 
  112200    274.38175   -14296.162     65.43039   -14361.593   -16694.435 
  112400    327.50782   -14290.213    78.099088   -14368.312   -10929.925 
  112600    286.75591   -14313.961    68.381192   -14382.342   -15375.237 
  112800    296.21019   -14302.559    70.635705   -14373.195    12018.772 
  113000    339.05065   -14292.301    80.851647   -14373.152    10453.002 
  113200    300.31014   -14307.177    71.613398    -14378.79   -12660.365 
  113400    318.76422   -14313.423    76.014048   -14389.437    7247.8452 
  113600    321.27728   -14298.155    76.613323   -14374.768    1194.4664 
  113800    307.50846   -14290.356    73.329945   -14363.686    -15665.97 
  114000    340.32518   -14282.127    81.155578   -14363.283    8006.1583 
  114200     324.8112   -14304.982    77.456038   -14382.438    -954.7158 
  114400    295.84344   -14292.192    70.548247    -14362.74     5784.653 
  114600    272.32814   -14291.074    64.940676   -14356.015   -7814.7929 
  114800    315.61166   -14297.374    75.262272   -14372.637    7793.3879 
  115000    318.75246   -14307.681    76.011243   -14383.692    8596.2879 
  115200    326.19341   -14288.825    77.785648    -14366.61   -30098.343 
  115400    321.53682   -14290.523    76.675214   -14367.198   -37095.974 
  115600    276.16587   -14309.569    65.855839   -14375.425   -8857.9506 
  115800    361.20056   -14290.834     86.13362   -14376.967    6334.9863 
  116000    328.06815   -14293.876    78.232706   -14372.109    9750.1937 
  116200     305.4466   -14293.995    72.838264   -14366.833    13037.236 
  116400    350.07904   -14281.721    83.481531   -14365.203    10654.458 
  116600    360.47077    -14288.59    85.959593    -14374.55     4463.396 
  116800    312.34703   -14300.299    74.483773   -14374.783   -11373.829 
  117000    306.88667   -14282.362     73.18167   -14355.544    33777.143 
  117200    253.50809   -14295.232    60.452757   -14355.685   -56.614368 
  117400    287.05655   -14304.165    68.452885   -14372.618    -6381.829 
  117600    298.73169   -14289.683    71.236994    -14360.92    12528.407 
  117800    326.58712   -14269.849    77.879533   -14347.729    8327.8502 
  118000    286.70164    -14296.81    68.368249   -14365.178    16354.855 
  118200    279.15008    -14302.65    66.567469   -14369.218   -4704.1061 
  118400    291.63372    -14310.34    69.544378   -14379.885   -12571.843 
  118600    295.45891   -14295.279    70.456551   -14365.735   -1822.6152 
  118800    319.04701   -14286.247    76.081483   -14362.328    31165.009 
  119000    292.82724   -14312.715    69.828991   -14382.544    4243.8715 
  119200    277.02671   -14301.426     66.06112   -14367.487    7905.1794 
  119400    321.09849   -14290.463    76.570688   -14367.034    6801.5187 
  119600    290.78048   -14304.709    69.340909    -14374.05    3469.3587 
  119800    271.13983   -14312.438    64.657307   -14377.096    28909.048 
  120000    289.81449    -14297.03    69.110556   -14366.141    23.039333 
  120200    323.50447   -14297.861    77.144429   -14375.005   -6685.3137 
  120400    309.55539   -14290.944    73.818064   -14364.763   -12952.372 
  120600    326.31874   -14290.738    77.815534   -14368.553   -651.57224 
  120800    286.13029   -14311.811    68.232003   -14380.043    1254.0489 
  121000    268.01212   -14299.756    63.911458   -14363.667    23251.361 
  121200    309.50261   -14290.713     73.80548   -14364.519   -9677.3842 
  121400     292.3715   -14294.554    69.720312   -14364.274    8573.5509 
  121600    277.14623   -14309.689    66.089621   -14375.779   -6259.0618 
  121800    282.56098    -14289.65    67.380849    -14357.03    13602.918 
  122000     317.9602   -14291.182    75.822317   -14367.004     6563.215 
  122200    297.75585   -14295.475    71.004289   -14366.479   -5283.1376 
  122400    327.42944   -14290.935    78.080397   -14369.015   -21611.653 
  122600    267.07244    -14309.34    63.687377   -14373.028    4224.7095 
  122800    309.80389   -14290.701    73.877323   -14364.579    -5585.296 
  123000    332.50351   -14283.643    79.290385   -14362.934   -4033.7582 
  123200    274.13305   -14306.449    65.371085   -14371.821      11901.9 
  123400    285.17977   -14303.234    68.005339    -14371.24   -13698.385 
  123600    329.15034   -14277.285    78.490771   -14355.776    -19372.58 
  123800     300.2901   -14288.962    71.608619   -14360.571    10295.374 
  124000    273.03757   -14300.482     65.10985   -14365.591    7464.0615 
  124200    309.20679   -14299.384    73.734936   -14373.119    13780.455 
  124400    336.38689   -14278.719    80.216433   -14358.936    12362.815 
  124600    279.87663   -14299.093    66.740726   -14365.834    1762.3199 
  124800    311.60948   -14297.358    74.307894   -14371.666    10993.941 
  125000    312.98506   -14299.372     74.63592   -14374.008   -19681.692 
  125200    274.99878   -14306.437     65.57753   -14372.015    8643.3615 
  125400    351.74328   -14286.709    83.878391   -14370.587   -813.24194 
  125600    253.07339   -14306.051    60.349097     -14366.4    4867.7148 
  125800    337.70359   -14297.088    80.530421   -14377.618    6432.5532 
  126000    274.39564   -14291.676    65.433704    -14357.11   -10233.981 
  126200    235.22123   -14311.516    56.091984   -14367.608   -4526.1688 
  126400    331.49662   -14294.979    79.050276    -14374.03    3845.5381 
  126600    316.16165   -14292.498    75.393426   -14367.892    12705.706 
  126800    271.64154   -14309.872    64.776946   -14374.649    4126.3933 
  127000    319.64077   -14284.525    76.223073   -14360.748    2092.4015 
  127200    336.21951   -14282.394     80.17652   -14362.571     8471.254 
  127400     309.2801   -14306.604    73.752418   -14380.356   -12253.059 
  127600    300.55478   -14294.798    71.671736   -14366.469   -18772.021 
  127800    358.44973   -14290.704    85.477645   -14376.181     -4382.09 
  128000    261.32205   -14303.468    62.316113   -14365.784    11548.118 
  128200    303.38962   -14298.068    72.347746   -14370.416    12095.941 
  128400    297.61299   -14300.184    70.970223   -14371.154   -18443.477 
  128600    256.72583   -14312.568    61.220074   -14373.788   -11582.765 
  128800     310.6966   -14291.041    74.090203   -14365.131   -5155.1624 
  129000    316.96557   -14300.482    75.585133   -14376.067    4004.0254 
  129200    264.94997   -14308.618    63.181243   -14371.799    2202.8772 
  129400    347.67942   -14286.681    82.909304   -14369.591   -3048.8002 
  129600    281.68187   -14303.239    67.171211   -14370.411   -7589.2576 
  129800    376.50451   -14279.938    89.783075   -14369.721    15910.563 
  130000    295.50431   -14295.406    70.467378   -14365.874    4272.1296 
  130200    332.72549   -14293.939     79.34332   -14373.282   -4463.7499 
  130400    271.24181   -14312.157    64.681625   -14376.839    6518.7739 
  130600    344.64707   -14289.953    82.186195   -14372.139    10212.361 
  130800    294.12756   -14299.348    70.139071   -14369.487   -9163.1453 
  131000    301.55528   -14301.091    71.910321   -14373.001   -15995.123 
  131200    310.39527   -14277.122    74.018347    -14351.14    6127.2642 
  131400    275.26258    -14299.98    65.640438   -14365.621    9268.0922 
  131600     298.8063   -14298.546    71.254785   -14369.801    13337.539 
  131800    319.61451   -14274.582    76.216812   -14350.799   -13999.718 
  132000    339.58698   -14292.378    80.979544   -14373.358    5940.9947 
  132200    297.97565   -14301.671    71.056705   -14372.728    15083.501 
  132400     260.1389   -14318.755    62.033973   -14380.789    13671.703 
  132600    287.23969    -14296.73    68.496555   -14365.227    3647.8275 
  132800    318.43647   -14281.994    75.935891    -14357.93    21393.532 
  133000    306.35123   -14301.407    73.053986   -14374.461    4343.5154 
  133200    291.50916   -14302.804    69.514676   -14372.319    2309.6897 
  133400    285.12331   -14298.174    67.991875   -14366.166   -14915.999 
  133600    292.15714   -14306.996    69.669195   -14376.665    -18954.27 
  133800    305.88513   -14286.609    72.942838   -14359.552   -13087.136 
  134000    276.17809   -14311.474    65.858755   -14377.333   -12671.081 
  134200    309.17977   -14302.148    73.728493   -14375.876   -6125.3668 
  134400    290.80912   -14289.003     69.34774   -14358.351     1808.266 
  134600    304.54947   -14294.509    72.624329   -14367.133    1655.7908 
  134800    331.54422   -14310.421    79.061627   -14389.483    14316.771 
  135000    295.41158   -14291.041    70.445265   -14361.486   -30231.944 
  135200    332.04595   -14291.529    79.181272    -14370.71    12564.937 
  135400    268.81608    -14314.56    64.103173   -14378.663    7460.6023 
  135600    301.02956   -14294.345    71.784955    -14366.13    7095.0744 
  135800    296.45678    -14302.98    70.694507   -14373.674    -25274.44 
  136000    285.18469   -14310.044    68.006511   -14378.051    2363.4588 
  136200    288.13055   -14298.788    68.708995   -14367.497    6644.0991 
  136400    339.53453   -14280.968    80.967034   -14361.935    6010.9565 
  136600    327.62186   -14289.117    78.126283   -14367.243    4317.7976 
  136800    283.58128   -14295.391    67.624154   -14363.015   -8433.0347 
  137000    296.12726   -14300.512    70.615928   -14371.127    7128.7784 
  137200    237.95609   -14306.399    56.744151   -14363.143   -4143.8442 
  137400     296.9079   -14288.618    70.802083    -14359.42   -433.47914 
  137600    412.63417   -14268.373    98.398726   -14366.772    -4182.611 
  137800    270.88803   -14293.426    64.597261   -14358.023   -17124.104 
  138000    268.53071   -14303.978    64.035124   -14368.013   -2399.0418 
  138200    346.09492   -14292.962    82.531457   -14375.494   -7666.9578 
  138400    330.03721   -14279.208    78.702259    -14357.91    10960.052 
  138600    300.69814   -14299.634    71.705923    -14371.34   -7296.2768 
  138800    278.29503   -14301.423     66.36357   -14367.787    23703.511 
  139000    290.07871   -14289.623    69.173563   -14358.796     940.0202 
  139200    300.85488   -14294.416    71.743301    -14366.16    11916.164 
  139400    258.98709   -14302.835    61.759305   -14364.594   -17099.858 
  139600    327.40142   -14291.134    78.073716   -14369.208   -19441.166 
  139800    269.11173   -14312.361    64.173675   -14376.535    6000.9932 
  140000    294.85198   -14308.806    70.311819   -14379.118   -370.14959 
  140200    337.75882   -14291.532    80.543592   -14372.075    7606.3916 
  140400    251.90235   -14299.582    60.069845   -14359.652    5512.2207 
  140600     272.7542   -14309.531    65.042276   -14374.573   -2957.0849 
  140800     315.7818   -14289.193    75.302844   -14364.496    7536.1115 
  141000    277.36484    -14299.51    66.141752   -14365.652    17226.512 
  141200    329.97525   -14294.401    78.687483   -14373.088    2423.6879 
  141400     301.8558   -14281.894    71.981984   -14353.876    1311.9142 
  141600    297.32631   -14300.087    70.901861   -14370.989    17589.379 
  141800    305.32276   -14300.233    72.808732   -14373.042   -6834.3473 
  142000    317.67145   -14273.862    75.753461   -14349.615   -355.83922 
  142200    290.68084    -14292.36     69.31715   -14361.677   -9398.3438 
  142400    298.25541   -14300.269    71.123418   -14371.392    5885.1054 
  142600    379.02178   -14276.789    90.383354   -14367.172     9479.827 
  142800    324.75608   -14284.308    77.442895   -14361.751   -7800.5501 
  143000     292.2545   -14304.816    69.692411   -14374.508   -10169.131 
  143200    350.68153   -14293.201    83.625202   -14376.827    8152.5189 
  143400    351.45827   -14282.131    83.810427   -14365.941     1820.249 
  143600    268.17871   -14304.157    63.951184   -14368.108    4.8135925 
  143800    355.66874   -14299.433    84.814476   -14384.248   -1971.7232 
  144000    346.29917   -14280.321    82.580163   -14362.901   -14693.085 
  144200    302.48002   -14295.877    72.130839   -14368.008    18939.627 
  144400    286.19389   -14302.678     68.24717   -14370.925    7403.1383 
  144600    342.17041   -14283.117    81.595601   -14364.713    6310.2201 
  144800    293.25884    -14305.33    69.931912   -14375.262   -18427.923 
  145000    282.33706   -14301.399    67.327452   -14368.726   -15471.824 
  145200    351.35831   -14286.942     83.78659   -14370.729    1191.7377 
  145400    272.76328   -14309.715    65.044442    -14374.76    2487.6384 
  145600    308.08721   -14296.779    73.467957   -14370.247    33615.972 
  145800     334.9371   -14287.768    79.870709   -14367.639    17885.778 
  146000    260.71865   -14294.658    62.172222    -14356.83    -8065.197 
  146200    271.68156   -14298.758     64.78649   -14363.544    14641.816 
  146400    369.56521   -14278.061    88.128295   -14366.189    16824.153 
  146600    297.98607   -14300.288    71.059189   -14371.348   -4375.7874 
  146800    307.99988    -14296.21    73.447131   -14369.657     6121.805 
  147000    375.58606   -14285.717    89.564056   -14375.281   -5481.0489 
  147200    301.21294   -14273.424    71.828685   -14345.252   -13449.792 
  147400    313.60143    -14296.69    74.782903   -14371.473   -7657.6502 
  147600     338.4608   -14295.596    80.710989   -14376.307    1984.1847 
  147800    295.01516   -14305.029    70.350733    -14375.38   -8614.7126 
  148000    284.94346   -14303.658    67.948986   -14371.607    18950.846 
  148200    299.89084   -14291.598    71.513409   -14363.112    11541.058 
  148400     286.0559   -14304.472    68.214265   -14372.686    6061.9042 
  148600    278.23565    -14312.95    66.349409     -14379.3   -1790.8701 
  148800    289.21708   -14297.342    68.968094    -14366.31    2869.8994 
  149000    336.04677   -14287.476    80.135327   -14367.611    6409.1955 
  149200    295.18122   -14308.462    70.390331   -14378.852     17967.04 
  149400    328.88176   -14290.096    78.426724   -14368.523    10068.747 
  149600    297.34875   -14295.153    70.907211    -14366.06    2672.7411 
  149800    317.63627   -14301.357    75.745071   -14377.103    254.23024 
  150000    279.03322    -14306.56    66.539603     -14373.1    2203.8547 
  150200    339.26916   -14289.713    80.903753   -14370.617   -8173.2914 
  150400     270.6995   -14312.268    64.552303   -14376.821   -6615.9607 
  150600     289.3709   -14300.148    69.004775   -14369.153    -6393.938 
  150800    334.78694   -14293.478    79.834901   -14373.313    6974.4307 
  151000    395.55809   -14275.807    94.326682   -14370.134   -10775.732 
  151200    289.26571   -14297.412    68.979691   -14366.392    13699.891 
  151400     267.8458    -14295.88    63.871796   -14359.751   -7590.9089 
  151600    339.71046    -14280.24    81.008988   -14361.249   -2897.2706 
  151800    289.02979   -14292.365    68.923433   -14361.289    5415.2808 
  152000     274.7175   -14307.507    65.510455   -14373.017    -4778.434 
  152200    255.00449   -14320.528    60.809595   -14381.338   -465.03021 
  152400    266.47716   -14296.377    63.545423   -14359.923    24634.177 
  152600    307.54128   -14289.067    73.337771   -14362.405    5579.2299 
  152800    275.81147   -14310.442    65.771328   -14376.213    8825.1885 
  153000    271.27281   -14301.365    64.689018   -14366.054   -8537.7796 
  153200    307.06299   -14296.056    73.223716    -14369.28   -16638.516 
  153400    259.10297   -14314.103    61.786938    -14375.89    11077.195 
  153600    315.66766   -14296.243    75.275626   -14371.519    962.10297 
  153800    294.19374   -14290.472    70.154851   -14360.627    36367.213 
  154000    259.98243   -14312.294    61.996659   -14374.291   -13662.917 
  154200    303.69417   -14293.017    72.420371   -14365.437    5792.5836 
  154400    288.97433    -14292.05    68.910207    -14360.96     7925.272 
  154600    263.70167   -14312.782    62.883567   -14375.666      31.2871 
  154800    295.59377   -14301.436     70.48871   -14371.925   -271.07491 
  155000    333.33509   -14296.199    79.488687   -14375.688   -1377.8238 
  155200     261.5715   -14318.841    62.375597   -14381.216    2458.7455 
  155400    289.79079   -14304.722    69.104904   -14373.827    6345.9039 
  155600    311.21405   -14290.027    74.213597   -14364.241    2615.5661 
  155800    338.53014   -14279.233    80.727523    -14359.96   -4075.3044 
  156000    250.82293    -14305.68    59.812441   -14365.493    6362.8099 
  156200     317.1977       -14292    75.640487    -14367.64    3998.5235 
  156400    291.70605    -14287.02    69.561627   -14356.581    31138.394 
  156600    217.91015   -14312.131      51.9639   -14364.095    8306.5189 
  156800    300.13743   -14292.013    71.572214   -14363.585    3.3602412 
  157000     350.3229   -14286.697    83.539683   -14370.237    8954.5152 
  157200    242.97507   -14308.535    57.941002   -14366.476   -8698.7756 
  157400    317.17788   -14294.459    75.635761   -14370.094    11620.398 
  157600    311.25927   -14296.186    74.224382   -14370.411   -6953.1361 
  157800     296.8013    -14302.07    70.776664   -14372.846   -7017.9717 
  158000    311.53538   -14297.472    74.290224   -14371.762    4204.0426 
  158200    339.36676   -14285.822    80.927029   -14366.749   -10056.611 
  158400    268.38889   -14308.997    64.001305   -14372.998    1657.2055 
  158600    292.98695   -14294.933    69.867075     -14364.8    3985.4273 
  158800    305.56134   -14290.546    72.865624   -14363.411    9656.0382 
  159000    281.94897   -14308.569    67.234906   -14375.804    1767.1476 
  159200    294.67967   -14295.671     70.27073   -14365.941    4216.7341 
  159400    353.21372   -14292.524     84.22904   -14376.753   -4880.8796 
  159600    235.25724   -14303.368    56.100572   -14359.469    4828.9383 
  159800    343.00686   -14287.542    81.795063   -14369.337    14458.841 
  160000    321.03128   -14295.389    76.554662   -14371.944   -22231.198 
  160200    273.54773   -14310.126    65.231505   -14375.358   -8883.9785 
  160400    294.95663   -14285.066    70.336774   -14355.403   -8140.8162 
  160600    300.63653   -14290.381     71.69123   -14362.072     -3932.19 
  160800    276.54084   -14305.335    65.945257    -14371.28   -15719.115 
  161000    312.57914   -14280.582    74.539124   -14355.121    7854.1808 
  161200    280.01276   -14298.279    66.773187   -14365.053   -5298.1769 
  161400    272.17114   -14300.526    64.903237   -14365.429   -16903.085 
  161600    287.14753   -14279.439    68.474579   -14347.914    7065.9612 
  161800    326.34918   -14290.357    77.822793    -14368.18   -5539.4706 
  162000    274.68365   -14299.577    65.502383   -14365.079    1761.6362 
  162200    262.52741   -14296.552    62.603546   -14359.155    15293.687 
  162400     340.6405   -14291.557    81.230771   -14372.788   -14575.239 
  162600    302.26396   -14303.819    72.079315   -14375.898     9141.194 
  162800     301.3554   -14289.186    71.862656   -14361.049   -6943.9553 
  163000     335.7133    -14291.28    80.055806   -14371.336    -6659.926 
  163200    287.63913   -14299.651    68.591808   -14368.243    11602.764 
  163400    298.47216   -14302.749    71.175105   -14373.924    365.39061 
  163600    308.83635     -14289.3      73.6466   -14362.947    11936.462 
  163800    248.10048   -14307.732    59.163232   -14366.895   -13829.043 
  164000    317.19803   -14304.436    75.640565   -14380.077   -12677.281 
  164200     340.1792   -14281.299    81.120765    -14362.42   -17001.781 
  164400    293.01183   -14302.372    69.873009   -14372.245   -9995.7986 
  164600    280.28561   -14311.126    66.838254   -14377.964    4169.3257 
  164800    364.26605    -14286.91    86.864632   -14373.774    4655.5221 
  165000    310.47377   -14303.571    74.037067   -14377.608   -1515.0374 
  165200    264.29053   -14306.362     63.02399   -14369.386    10442.665 
  165400     337.5083   -14289.294    80.483851   -14369.777    -5509.538 
  165600    298.32514   -14304.409    71.140045   -14375.549   -3887.7181 
  165800    233.27267   -14300.721    55.627322   -14356.348    372.54635 
  166000    307.12969   -14289.259    73.239622   -14362.499    5428.3063 
  166200    249.99871   -14296.992    59.615894   -14356.608   -1720.5134 
  166400     281.6229   -14287.172     67.15715   -14354.329    2070.3873 
  166600    355.41471     -14282.8    84.753899   -14367.554      2836.26 
  166800    271.99402   -14305.286       64.861   -14370.147   -8961.8717 
  167000    272.31664   -14303.412    64.937935    -14368.35    -3233.212 
  167200    343.10494   -14284.609    81.818452   -14366.428   -7158.7643 
  167400    285.16924   -14307.177    68.002826    -14375.18    11521.202 
  167600    292.87227   -14297.706    69.839729   -14367.546   -12295.508 
  167800     333.4662   -14286.636    79.519951   -14366.156   -228.45274 
  168000    274.21984   -14306.371     65.39178   -14371.763   -9112.9602 
  168200    322.25462   -14290.794    76.846386    -14367.64   -15717.512 
  168400    240.32345   -14305.447    57.308686   -14362.756   -2991.6559 
  168600    305.64833   -14301.247     72.88637   -14374.133    1546.3364 
  168800     396.1271   -14271.423     94.46237   -14365.886   -14683.715 
  169000    288.57988   -14303.421    68.816144   -14372.237   -9276.7864 
  169200    253.29029   -14306.098    60.400819   -14366.499    6374.8907 
  169400    296.00744   -14296.096    70.587355   -14366.683    3689.8844 
  169600    269.68225   -14291.172    64.309725   -14355.482   -2761.2438 
  169800    264.27689   -14310.363    63.020736   -14373.384    8573.3408 
  170000    274.50524    -14291.19    65.459837    -14356.65    2963.7373 
  170200    289.31886   -14297.073    68.992365   -14366.066   -1920.8774 
  170400    266.47752    -14313.14    63.545509   -14376.685    2456.7582 
  170600    295.09818   -14288.821     70.37053   -14359.192    9223.4261 
  170800    284.05262   -14295.407    67.736552   -14363.143   -8248.9244 
  171000     265.7454   -14308.492    63.370925   -14371.863    2260.8242 
  171200    320.72809   -14293.529    76.482361   -14370.011   -8794.4388 
  171400    322.93258   -14286.961    77.008054   -14363.969    20807.079 
  171600    282.90642    -14310.59    67.463225   -14378.053    11678.763 
  171800    300.56593   -14297.177    71.674396   -14368.851    9869.1089 
  172000    301.06041    -14297.47    71.792311   -14369.262    7502.0327 
  172200    249.21425    -14317.84    59.428828   -14377.269   -4520.1024 
  172400    282.17908   -14295.965    67.289779   -14363.255    2954.8082 
  172600    345.82721   -14294.323    82.467618    -14376.79   -11206.878 
  172800    258.12464   -14313.478    61.553642   -14375.032    97.811122 
  173000     292.9039    -14295.35    69.847271   -14365.197   -4898.9904 
  173200    326.00118   -14300.707    77.739808   -14378.447   -6335.6116 
  173400     267.5553   -14313.135    63.802522   -14376.937    15375.023 
  173600    323.48566   -14294.684    77.139945   -14371.824    -6015.796 
  173800    301.64861   -14293.002    71.932577   -14364.934    763.95156 
  174000    309.14417   -14306.931    73.720004   -14380.651   -10845.963 
  174200     302.3698   -14293.216    72.104554    -14365.32   -10401.965 
  174400    324.49877   -14283.039    77.381535    -14360.42   -13097.202 
  174600    288.22253   -14291.189    68.730928    -14359.92    -1106.386 
  174800    269.63871   -14301.441    64.299343    -14365.74   -5630.6484 
  175000     333.2516   -14276.856    79.468776   -14356.324   -1528.3756 
  175200    291.45787    -14294.47    69.502443   -14363.973    20088.642 
  175400    304.24933   -14298.714    72.552758   -14371.266   -17848.434 
  175600    293.48924   -14280.536    69.986854   -14350.522    12171.587 
  175800    319.69732   -14299.581     76.23656   -14375.817   -8900.1736 
  176000    268.75562   -14305.675    64.088756   -14369.763   -6064.3875 
  176200     306.5359   -14292.636    73.098024   -14365.734     4050.882 
  176400    275.59434   -14300.649    65.719551   -14366.368   -5191.2464 
  176600    316.42384   -14301.804    75.455949    -14377.26   -15831.228 
  176800    292.10419   -14300.233    69.656568    -14369.89     936.2675 
  177000    360.38946   -14286.669    85.940201   -14372.609    11398.539 
  177200     261.1384   -14307.458    62.272319    -14369.73   -727.39128 
  177400    301.59026   -14292.265    71.918662   -14364.184   -18190.671 
  177600    338.86215   -14282.036    80.806697   -14362.843   -3389.1562 
  177800     296.0774   -14298.958    70.604039   -14369.562   -9304.9856 
  178000    241.22869   -14315.822    57.524552   -14373.347   -13587.898 
  178200    316.58442   -14293.357    75.494241   -14368.851   -255.44081 
  178400    274.73678   -14305.184    65.515053   -14370.699    7788.4771 
  178600    338.99469   -14291.721    80.838302   -14372.559   -2273.3277 
  178800     306.3133   -14284.918     73.04494   -14357.963    2550.8455 
  179000    296.16878   -14306.011    70.625831   -14376.637    2716.4643 
  179200     315.4437   -14291.827    75.222221   -14367.049   -13664.986 
  179400    340.39244   -14274.372    81.171616   -14355.543    12322.003 
  179600    337.09689   -14278.327    80.385744   -14358.713    739.61385 
  179800    260.68116   -14300.271    62.163281   -14362.435    6661.1738 
  180000    318.46566   -14293.404    75.942852   -14369.347   -11747.657 
  180200    242.20628   -14306.459    57.757673   -14364.217   -797.90987 
  180400    343.20933   -14284.043    81.843347   -14365.886    7713.3363 
  180600    287.86649   -14290.288    68.646027   -14358.934   -444.40083 
  180800    326.14403   -14297.555    77.773872   -14375.329     4290.639 
  181000     254.0408   -14319.316     60.57979   -14379.895    7075.9674 
  181200    278.29444   -14299.493     66.36343   -14365.856    3867.0572 
[...]
  950000    276.74951   -14298.626    65.995018   -14364.621    306.69701 
  950200    290.77215   -14293.375    69.338925   -14362.714   -2217.5166 
  950400    305.03225    -14298.32    72.739456   -14371.059   -7605.2461 
  950600     290.4783   -14301.603    69.268852   -14370.872   -4085.4776 
  950800    317.82469   -14281.797    75.790002   -14357.587    12126.278 
  951000    288.47516   -14298.431    68.791171   -14367.222    6187.6892 
  951200    282.13594   -14299.081    67.279491   -14366.361   -420.18012 
  951400    329.84943   -14288.721    78.657479   -14367.378   -23332.429 
  951600    314.69394   -14287.104    75.043428   -14362.147    8100.3982 
  951800     297.2719   -14303.236    70.888885   -14374.125     20664.79 
  952000    299.34733   -14292.629    71.383802   -14364.013    19687.051 
  952200    253.19168   -14308.646    60.377304   -14369.024    8747.8439 
  952400    284.04215   -14302.538    67.734056   -14370.272    22957.319 
  952600    354.36297    -14287.88    84.503097   -14372.384   -7855.5125 
  952800    257.73328   -14307.615    61.460316   -14369.075   -3524.3191 
  953000    289.19855    -14304.97    68.963675   -14373.933   -6353.7556 
  953200    320.82234   -14281.161    76.504836   -14357.666    1854.5825 
  953400    280.55228   -14300.844    66.901844   -14367.746   -17090.636 
  953600     269.7135   -14306.243    64.317177    -14370.56   -10559.112 
  953800    262.85655   -14293.494    62.682037   -14356.176    8909.3724 
  954000    274.67057   -14296.561    65.499263    -14362.06    4133.6261 
  954200    225.94941   -14317.154    53.880982   -14371.035    7181.6888 
  954400    289.74164   -14299.097    69.093184    -14368.19    29220.213 
  954600     284.2461   -14288.511    67.782691   -14356.293    13001.275 
  954800    358.21717   -14281.421    85.422188   -14366.843    6685.2007 
  955000    288.60834    -14307.84    68.822931   -14376.662   -2814.3264 
  955200    268.19295    -14295.63    63.954579   -14359.585   -22451.336 
  955400    319.72849   -14292.426    76.243992    -14368.67    4780.5309 
  955600    275.87987   -14300.336     65.78764   -14366.123    8761.3937 
  955800    292.53555   -14306.995    69.759433   -14376.755    372.85711 
  956000    348.96964   -14285.842    83.216978   -14369.059   -10400.078 
  956200    318.05697   -14289.436    75.845393   -14365.282    8634.6384 
  956400     299.9886   -14303.475    71.536723   -14375.011    3790.5248 
  956600    329.94126   -14292.233    78.679377   -14370.912    13069.841 
  956800    298.23398    -14283.95    71.118307   -14355.068   -18975.656 
  957000      245.334   -14305.356    58.503525    -14363.86    10073.851 
  957200    312.41546   -14290.909    74.500091   -14365.409   -7761.7592 
  957400    345.82652   -14278.283    82.467454    -14360.75    17373.272 
  957600    256.02974   -14300.642    61.054082   -14361.696    3755.6718 
  957800     311.4967    -14292.63    74.280998   -14366.911   -30246.436 
  958000    351.80709   -14276.424    83.893609   -14360.317    3874.3903 
  958200    315.11192   -14299.271    75.143103   -14374.414    11146.465 
  958400    276.27824   -14296.418    65.882636   -14362.301    15148.661 
  958600    352.91631   -14284.474    84.158118   -14368.632    14819.269 
  958800    271.75729   -14296.796    64.804548   -14361.601   -275.87931 
  959000    314.74244   -14295.926    75.054995   -14370.981   -19613.591 
  959200    353.30844   -14275.061    84.251628   -14359.313    14327.742 
  959400    294.21098   -14297.155    70.158964   -14367.314    6677.2931 
  959600     290.2459   -14301.085    69.213431   -14370.298   -11478.207 
  959800    357.81507   -14283.263      85.3263    -14368.59    9965.4812 
  960000    292.45499   -14291.535    69.740222   -14361.275    3210.9691 
  960200    288.87564   -14299.173    68.886674    -14368.06   -17601.095 
  960400     299.7961    -14294.12    71.490818   -14365.611   -9176.7117 
  960600    307.00713   -14277.472    73.210394   -14350.683    -27835.33 
  960800    283.92508   -14299.587    67.706138   -14367.293    12506.502 
  961000    273.79167   -14297.395    65.289676   -14362.685    -5929.477 
  961200     258.4431   -14300.814    61.629582   -14362.444    -6048.456 
  961400     318.2662   -14304.038    75.895286   -14379.933      -1774.1 
  961600    263.61257   -14291.167     62.86232   -14354.029    3506.1377 
  961800    322.44065   -14295.722    76.890747   -14372.613    7442.2926 
  962000    260.67964   -14312.196     62.16292   -14374.358    4178.6342 
  962200    316.02138   -14292.862    75.359976   -14368.222   -10364.943 
  962400    325.03914   -14293.825    77.510396   -14371.336   -4712.5534 
  962600    245.37618   -14306.276    58.513582    -14364.79   -11962.486 
  962800    319.12781   -14293.083     76.10075   -14369.184    813.84275 
  963000    286.52178   -14299.193     68.32536   -14367.518   -11931.607 
  963200    234.41647   -14306.022    55.900077   -14361.922     16072.54 
  963400    317.03739   -14287.635     75.60226   -14363.237   -5844.4583 
  963600    231.10436   -14304.496    55.110255   -14359.606    10566.854 
  963800    295.23601   -14299.881    70.403396   -14370.285    5173.9265 
  964000    310.00794   -14294.329    73.925982   -14368.255   -4492.0411 
  964200    301.44621   -14294.595    71.884312   -14366.479    6345.1652 
  964400    248.87641   -14310.848    59.348264   -14370.196    1939.2455 
  964600    312.94287   -14292.272    74.625859   -14366.898    2243.3781 
  964800    338.83985   -14294.756    80.801379   -14375.557   -8001.6988 
  965000    273.28262   -14303.494    65.168287   -14368.663   -8354.3805 
  965200    265.33932   -14296.769    63.274088   -14360.043   -16260.963 
  965400    270.71763    -14292.87    64.556626   -14357.426   -1775.5341 
  965600    317.04075   -14289.427    75.603061    -14365.03     9765.889 
  965800    262.21341   -14305.054    62.528669   -14367.583    12261.229 
  966000    333.42105    -14284.58    79.509186   -14364.089    2244.8798 
  966200     328.4087   -14289.489    78.313916   -14367.803   -4153.9678 
  966400     270.5206    -14299.27    64.509642   -14363.779   -4988.0282 
  966600    316.28723   -14291.249    75.423373   -14366.673    -3068.285 
  966800    336.46509   -14275.251    80.235081   -14355.486    3359.8434 
  967000    314.46492   -14303.334    74.988816   -14378.323   -180.85363 
  967200    302.60974   -14293.236    72.161771   -14365.397    9139.2798 
  967400    296.25564    -14281.76    70.646544   -14352.406    20657.701 
  967600    269.62975    -14310.96    64.297207   -14375.257    4010.9072 
  967800    300.31319   -14292.508    71.614126   -14364.122    6165.5501 
  968000    329.18747   -14291.301    78.499626     -14369.8    910.85678 
  968200    305.09588    -14301.07     72.75463   -14373.825    1059.0538 
  968400    312.29746   -14296.629    74.471954   -14371.101    12481.677 
  968600    319.62863   -14279.388    76.220179   -14355.608     9283.187 
  968800    278.72359   -14306.177    66.465766   -14372.643   -2590.3889 
  969000    304.56551   -14296.041    72.628156   -14368.669    -3173.691 
  969200    326.56073   -14287.096     77.87324   -14364.969    13912.502 
  969400    298.16633   -14295.886    71.102177   -14366.989   -660.82868 
  969600    256.62163   -14308.096    61.195227   -14369.291    12592.433 
  969800    274.17415   -14312.451    65.380886   -14377.831    9347.0203 
  970000    306.00587   -14293.456    72.971629   -14366.427   -5213.1681 
  970200     316.9974   -14287.803    75.592722   -14363.396    3348.6935 
  970400    259.36033   -14309.786     61.84831   -14371.634   -972.69412 
  970600    305.42013   -14292.202    72.831951   -14365.034    3743.8704 
  970800    311.70587   -14291.538    74.330879   -14365.869    7468.1012 
  971000    301.11643   -14295.846     71.80567   -14367.652   -1048.4456 
  971200    298.68906   -14295.269    71.226827   -14366.496    17203.109 
  971400    281.96316   -14304.154    67.238291   -14371.392    8488.4718 
  971600    304.28192   -14287.457    72.560529   -14360.017   -33944.833 
  971800    324.43467   -14293.179     77.36625   -14370.545    -3112.646 
  972000     296.1984   -14306.955    70.632893   -14377.588    18551.807 
  972200    346.82179   -14289.386    82.704789    -14372.09    13731.394 
  972400    346.26371   -14299.145    82.571709   -14381.717    6375.2877 
  972600    293.90423    -14313.13    70.085815   -14383.216   -17150.938 
  972800    294.01293    -14292.26    70.111736   -14362.372   -1459.3051 
  973000    291.44364   -14292.986     69.49905   -14362.486    -26350.61 
  973200    335.34391   -14291.688    79.967721   -14371.656    7744.8802 
  973400    263.02242   -14306.656    62.721589   -14369.377   -2308.2104 
  973600    326.67533   -14286.308    77.900569   -14364.209    13746.949 
  973800    293.65088   -14295.176      70.0254   -14365.202     7207.751 
  974000    315.18881   -14296.703    75.161439   -14371.865     16998.76 
  974200    293.99012    -14299.16    70.106297   -14369.266   -4279.1354 
  974400    327.97228   -14288.258    78.209846   -14366.468   -6416.5044 
  974600    285.96904   -14296.296    68.193551   -14364.489   -13257.242 
  974800    293.25913   -14306.562    69.931982   -14376.494   -7391.7386 
  975000    311.84035   -14296.806    74.362947   -14371.169    4963.3643 
  975200    343.42751   -14285.624    81.895375    -14367.52    6791.7208 
  975400    334.63642   -14287.765    79.799007   -14367.564   -7967.9427 
  975600    296.38359   -14303.602    70.677056   -14374.279   -10174.418 
  975800    360.94992   -14288.873    86.073852   -14374.947    7150.6597 
  976000    276.57082   -14291.485    65.952406   -14357.437   -53.545486 
  976200    267.47509   -14297.784    63.783395   -14361.568   -15874.896 
  976400    301.45082   -14290.759     71.88541   -14362.645    8352.1608 
  976600    338.93142   -14295.659    80.823214   -14376.482   -3865.3435 
  976800    267.22449    -14307.08    63.723636   -14370.804   -7472.7553 
  977000     289.4158   -14294.561    69.015482   -14363.577    2577.0788 
  977200    331.36624   -14291.968    79.019186   -14370.987    11860.934 
  977400    245.77573   -14312.455    58.608862   -14371.063    10052.024 
  977600    327.13188    -14285.37     78.00944   -14363.379   -6478.0236 
  977800    292.67409   -14295.098    69.792469   -14364.891   -20583.825 
  978000    255.65981   -14310.398    60.965867   -14371.364   -23223.393 
  978200    265.19167   -14310.706    63.238878   -14373.945    -1574.955 
  978400     319.1308   -14293.415    76.101464   -14369.517   -14121.041 
  978600     301.0509   -14304.398    71.790043   -14376.188    5521.3938 
  978800    293.68219    -14298.41    70.032866   -14368.443   -13808.879 
  979000    275.28834   -14293.527     65.64658   -14359.173    29773.486 
  979200    252.88345   -14307.325    60.303801   -14367.629    3193.2099 
  979400    286.04918   -14304.866    68.212662   -14373.079    6033.0535 
  979600    304.21687   -14292.448    72.545017   -14364.993   -24558.558 
  979800    288.28457   -14298.246    68.745722   -14366.991   -3659.3147 
  980000     281.1572   -14309.756    67.046097   -14376.802   -5845.2206 
  980200    327.68608    -14291.24    78.141598   -14369.381   -15022.702 
  980400    311.58778     -14295.3    74.302719   -14369.602   -0.6466377 
  980600    270.25133   -14314.431    64.445431   -14378.876    10702.696 
  980800    290.11129   -14293.247    69.181332   -14362.428    11153.399 
  981000    272.17331   -14296.667    64.903754   -14361.571    8920.8244 
  981200    287.31555    -14300.18    68.514646   -14368.695    5800.9024 
  981400    286.75811   -14294.829    68.381717   -14363.211     2646.948 
  981600      328.502   -14284.317    78.336165   -14362.653   -11159.803 
  981800    265.40374   -14306.654    63.289451   -14369.944    2120.3875 
  982000    316.71956   -14291.098    75.526468   -14366.625    4734.6681 
  982200    290.45325   -14295.099    69.262878   -14364.362   -9270.5752 
  982400    300.48694   -14298.664    71.655559    -14370.32   -10139.368 
  982600    331.75495   -14271.735     79.11188   -14350.847    1135.5124 
  982800    305.76452   -14291.244    72.914077   -14364.158    4482.7276 
  983000    284.95861    -14302.84    67.952598   -14370.793     9007.401 
  983200    267.01483   -14306.912    63.673639   -14370.585   -7407.7603 
  983400    317.82493   -14282.351    75.790059   -14358.141   -4332.7167 
  983600    286.53562   -14300.461    68.328661    -14368.79    6158.3835 
  983800    308.82038   -14294.223    73.642793   -14367.866    15184.212 
  984000    301.17783   -14298.207    71.820312   -14370.028    8888.3394 
  984200    281.11201   -14306.574    67.035321   -14373.609    -13900.81 
  984400    335.77578    -14287.73    80.070705   -14367.801   -7332.9724 
  984600    280.30238   -14298.112    66.842252   -14364.954    17541.968 
  984800    339.30139     -14285.1     80.91144   -14366.011    12381.915 
  985000    305.92818   -14296.246    72.953104   -14369.199    595.19198 
  985200    301.58459   -14298.128     71.91731   -14370.045    20566.509 
  985400    313.10567   -14279.514    74.664682   -14354.178    7135.1077 
  985600    313.57168   -14290.281     74.77581   -14365.057    17561.992 
  985800    282.55781   -14302.188    67.380094   -14369.568    4862.0519 
  986000    285.18619   -14302.797    68.006869   -14370.804    3318.2372 
  986200     328.1109   -14283.922    78.242901   -14362.165   -1616.2379 
  986400    268.11756   -14304.147    63.936603   -14368.083   -32094.007 
  986600    321.83672   -14297.162     76.74673   -14373.909    29311.601 
  986800     335.4095   -14273.957    79.983362    -14353.94    1590.4529 
  987000    324.63781   -14296.737    77.414692   -14374.152   -15147.797 
  987200    285.44602   -14302.589    68.068828   -14370.658    11051.596 
  987400    362.42853   -14281.654    86.426448    -14368.08    8636.2044 
  987600    322.91188   -14294.053    77.003119   -14371.056   -17843.815 
  987800    305.25966   -14298.573    72.793684   -14371.366   -10573.536 
  988000    303.19869   -14288.433    72.302217   -14360.735   -4539.2664 
  988200     303.2713   -14298.101    72.319532    -14370.42   -2946.8731 
  988400    290.25037   -14299.823    69.214498   -14369.037     5824.313 
  988600    304.59178   -14285.305    72.634419   -14357.939    10731.871 
  988800     300.8549   -14311.721    71.743304   -14383.464   -3766.5169 
  989000    307.32068   -14295.696    73.285165   -14368.981    6611.7033 
  989200    314.79728   -14285.491    75.068073   -14360.559   -15427.818 
  989400    270.80075   -14310.173    64.576447   -14374.749    13376.261 
  989600    303.89158   -14303.281    72.467445   -14375.748    3163.5673 
  989800    322.84846   -14288.066    76.987995   -14365.054      676.518 
  990000    259.71523   -14306.775    61.932941   -14368.708   -5172.7279 
  990200    274.36566   -14303.114    65.426553    -14368.54    8133.3315 
  990400    307.24715   -14293.404    73.267632   -14366.672    8164.7294 
  990600    239.67992   -14308.222    57.155225   -14365.377   -2933.2023 
  990800      291.009   -14308.209    69.395404   -14377.604   -8954.5473 
  991000    290.34049    -14295.92    69.235987   -14365.156    14442.998 
  991200    276.20711   -14292.476    65.865675   -14358.341    14660.906 
  991400    301.13251   -14311.899    71.809504   -14383.709    12377.797 
  991600    340.80318   -14293.227    81.269564   -14374.496   -8082.6101 
  991800    303.46913   -14295.601    72.366707   -14367.967   -1921.2813 
  992000    288.53112   -14302.805    68.804517   -14371.609   -12866.751 
  992200    321.08355   -14282.203    76.567125    -14358.77   -21564.199 
  992400    280.87863   -14302.618    66.979668   -14369.598    7297.7736 
  992600    295.87724    -14298.46    70.556308   -14369.017    23896.728 
  992800    314.07242   -14294.809    74.895219   -14369.704    10465.668 
  993000     340.8338   -14280.169    81.276864   -14361.446   -4342.1238 
  993200    251.53657   -14302.961    59.982618   -14362.943   -13765.714 
  993400    271.25311   -14295.219    64.684319   -14359.903    15258.388 
  993600    304.48843   -14295.723    72.609773   -14368.333   -6429.7649 
  993800    298.88102   -14293.599    71.272603   -14364.872    1469.8342 
  994000     320.9232   -14293.345    76.528887   -14369.874   -11500.742 
  994200    321.08932   -14296.168    76.568501   -14372.736    8225.7623 
  994400    298.04994   -14304.392    71.074421   -14375.466   -14011.059 
  994600    271.33745   -14300.248    64.704433   -14364.952     3958.342 
  994800    291.29115    -14287.73    69.462687   -14357.193    570.88371 
  995000    296.28682   -14309.589    70.653979   -14380.243   -5275.0136 
  995200    264.57679   -14303.024    63.092253   -14366.116       6468.7 
  995400    284.04643   -14294.483    67.735075   -14362.218   -4881.0167 
  995600    290.39348   -14291.694    69.248624   -14360.943   -364.35679 
  995800    284.12983    -14309.69    67.754964   -14377.445    15407.006 
  996000    302.50377   -14292.896    72.136502   -14365.032    3661.4122 
  996200    278.84477   -14295.579    66.494663   -14362.074    -4836.473 
  996400     343.0216    -14277.47    81.798579   -14359.269    12450.401 
  996600    268.12986   -14295.963    63.939536   -14359.903   -1446.5395 
  996800    319.60162   -14294.736    76.213737    -14370.95   -1537.6015 
  997000    278.96776    -14306.96    66.523992   -14373.484   -2669.8422 
  997200    294.57474   -14301.683    70.245707   -14371.929   -1027.6403 
  997400    309.51696   -14287.714    73.808902   -14361.523    6139.0198 
  997600    266.51351   -14301.761    63.554091   -14365.315   -6590.4411 
  997800     279.3328    -14310.96    66.611042   -14377.571   -20646.547 
  998000    315.70442   -14291.718    75.284393   -14367.002   -12494.044 
  998200    300.78192   -14289.983    71.725901   -14361.709   -12504.632 
  998400    282.36375   -14310.202    67.333817   -14377.536    5900.8241 
  998600    303.36287   -14296.683    72.341367   -14369.025    13036.468 
  998800    302.67962   -14292.958    72.178436   -14365.137    12004.445 
  999000    249.95067   -14311.005    59.604437   -14370.609   -4690.5873 
  999200    347.96953   -14290.406    82.978486   -14373.384    1120.6066 
  999400    301.54847   -14295.791    71.908697     -14367.7    11429.146 
  999600    280.52555   -14308.547     66.89547   -14375.443    11477.168 
  999800     303.5425   -14295.247    72.384203   -14367.631     2781.832 
 1000000    334.69663   -14286.056    79.813367   -14365.869   -4972.1519 
Loop time of 18285.2 on 8 procs for 1000000 steps with 81 atoms

Performance: 1.181 ns/day, 20.317 hours/ns, 54.689 timesteps/s
99.7% CPU use with 8 MPI tasks x no OpenMP threads

MPI task timing breakdown:
Section |  min time  |  avg time  |  max time  |%varavg| %total
---------------------------------------------------------------
Pair    | 15993      | 16146      | 16329      |  80.1 | 88.30
Neigh   | 3.6137     | 3.6387     | 3.6612     |   0.9 |  0.02
Comm    | 262.34     | 443.94     | 599.28     | 480.0 |  2.43
Output  | 0.48536    | 0.52206    | 0.73766    |  11.3 |  0.00
Modify  | 1668.4     | 1670.3     | 1674.1     |   4.8 |  9.13
Other   |            | 20.63      |            |       |  0.11

Nlocal:    10.125 ave 11 max 9 min
Histogram: 1 0 0 0 0 5 0 0 0 2
Nghost:    1105.5 ave 1116 max 1098 min
Histogram: 1 0 3 0 0 3 0 0 0 1
Neighs:    2464.88 ave 2668 max 2197 min
Histogram: 1 0 0 0 1 4 0 0 0 2

Total # of neighbors = 19719
Ave neighs/atom = 243.444
Neighbor list builds = 512
Dangerous builds = 0

Please see the log.cite file for references relevant to this simulation

Total wall time: 5:04:58
