ITEM: TIMESTEP
0
ITEM: NUMBER OF ATOMS
50
ITEM: BOX BOUNDS pp pp pp
0.0000000000000000e+00 1.1000000000000000e+01
0.0000000000000000e+00 1.1002000000000001e+01
0.0000000000000000e+00 1.1000000000000000e+01
ITEM: ATOMS id type x y z 
10 1 4.603 4.603 4.603 
11 1 3.085 3.085 3.085 
12 1 3.796 3.796 3.796 
46 1 0.726 0.725 0.725 
47 1 2.26 2.259 2.26 
48 1 1.551 1.55 1.55 
19 1 4.546 4.545 6.226 
20 1 3.013 3.013 7.764 
21 1 3.721 3.721 7.053 
31 1 0.668 0.667 10.103 
32 1 2.187 2.187 8.589 
33 1 1.476 1.475 9.298 
16 1 4.546 6.225 4.546 
17 1 3.013 7.765 3.013 
18 1 3.721 7.053 3.722 
25 1 0.668 10.103 0.668 
26 1 2.188 8.589 2.188 
27 1 1.476 9.298 1.476 
49 2 1.975 9.003 3.46 
50 3 1.975 9.003 4.436 
4 1 4.608 6.169 6.169 
5 1 3.086 7.684 7.684 
6 1 3.799 6.974 6.974 
37 1 0.729 10.046 10.046 
38 1 2.259 8.509 8.508 
39 1 1.552 9.219 9.219 
13 1 6.225 4.546 4.546 
14 1 7.764 3.013 3.013 
15 1 7.053 3.721 3.722 
28 1 10.102 0.667 0.668 
29 1 8.589 2.187 2.188 
30 1 9.298 1.475 1.476 
1 1 6.168 4.608 6.169 
2 1 7.684 3.086 7.684 
3 1 6.974 3.799 6.974 
40 1 10.045 0.728 10.046 
41 1 8.508 2.259 8.508 
42 1 9.218 1.551 9.218 
7 1 6.169 6.169 4.608 
8 1 7.684 7.684 3.086 
9 1 6.974 6.974 3.799 
43 1 10.046 10.047 0.729 
44 1 8.508 8.509 2.259 
45 1 9.219 9.219 1.552 
22 1 6.229 6.229 6.229 
23 1 7.764 7.765 7.765 
24 1 7.055 7.056 7.055 
34 1 10.108 10.108 10.107 
35 1 8.59 8.59 8.59 
36 1 9.301 9.301 9.3 
ITEM: TIMESTEP
10
ITEM: NUMBER OF ATOMS
50
ITEM: BOX BOUNDS pp pp pp
0.0000000000000000e+00 1.1000000000000000e+01
0.0000000000000000e+00 1.1002000000000001e+01
0.0000000000000000e+00 1.1000000000000000e+01
ITEM: ATOMS id type x y z 
10 1 4.59677 4.57992 4.59698 
11 1 3.07944 3.08173 3.07937 
12 1 3.78969 3.78449 3.78982 
46 1 0.732422 0.740675 0.731607 
47 1 2.2695 2.26731 2.26901 
48 1 1.5601 1.56193 1.56006 
19 1 4.53741 4.53451 6.23691 
20 1 3.00184 3.00225 7.77468 
21 1 3.70921 3.70832 7.06578 
31 1 0.675806 0.673197 10.0986 
32 1 2.18943 2.19046 8.5855 
33 1 1.48364 1.48064 9.29236 
16 1 4.54449 6.22755 4.54827 
17 1 3.04105 7.72371 2.95814 
18 1 3.7266 7.0464 3.71746 
25 1 0.684907 10.0841 0.679234 
26 1 2.1729 8.61184 2.1697 
27 1 1.45418 9.32088 1.44413 
49 2 1.94501 9.0307 3.50195 
50 3 1.96031 9.0282 4.45903 
4 1 4.60118 6.1748 6.19173 
5 1 3.08014 7.68987 7.68714 
6 1 3.7926 6.98029 6.98591 
37 1 0.736036 10.0389 10.0292 
38 1 2.26862 8.49906 8.49956 
39 1 1.56218 9.20961 9.20599 
13 1 6.2363 4.53505 4.53726 
14 1 7.77461 3.00216 3.00205 
15 1 7.06584 3.70858 3.70994 
28 1 10.098 0.671433 0.676355 
29 1 8.58573 2.18999 2.1906 
30 1 9.2921 1.48139 1.48319 
1 1 6.17651 4.59868 6.17759 
2 1 7.68754 3.08236 7.68755 
3 1 6.981 3.792 6.981 
40 1 10.037 0.736066 10.0378 
41 1 8.49885 2.26807 8.4987 
42 1 9.20669 1.56265 9.20695 
7 1 6.19143 6.17492 4.60127 
8 1 7.68731 7.6899 3.08006 
9 1 6.98598 6.98041 3.79256 
43 1 10.0297 10.0402 0.735916 
44 1 8.50026 8.4998 2.26814 
45 1 9.20686 9.2101 1.56125 
22 1 6.2402 6.23816 6.23982 
23 1 7.77436 7.77581 7.77489 
24 1 7.06742 7.06734 7.06816 
34 1 10.1018 10.0998 10.1018 
35 1 8.58692 8.58737 8.5859 
36 1 9.29414 9.29341 9.29514 
ITEM: TIMESTEP
20
ITEM: NUMBER OF ATOMS
50
ITEM: BOX BOUNDS pp pp pp
0.0000000000000000e+00 1.1000000000000000e+01
0.0000000000000000e+00 1.1002000000000001e+01
0.0000000000000000e+00 1.1000000000000000e+01
ITEM: ATOMS id type x y z 
10 1 4.60375 4.58911 4.6064 
11 1 3.08144 3.08782 3.08126 
12 1 3.79873 3.78046 3.79826 
46 1 0.728296 0.759797 0.727598 
47 1 2.27684 2.27092 2.2777 
48 1 1.56185 1.57582 1.5611 
19 1 4.54807 4.52202 6.24744 
20 1 2.99839 2.99899 7.77925 
21 1 3.70566 3.70231 7.0682 
31 1 0.673763 0.679208 10.0917 
32 1 2.192 2.18343 8.58754 
33 1 1.47148 1.48806 9.29508 
16 1 4.54911 6.22256 4.55476 
17 1 3.06103 7.68255 2.87141 
18 1 3.73111 7.03124 3.66134 
25 1 0.626814 10.1406 0.628017 
26 1 2.24323 8.55872 1.99762 
27 1 1.482 9.28634 1.38328 
49 2 1.94507 9.01826 3.7694 
50 3 1.89496 9.13868 4.61761 
4 1 4.60652 6.16556 6.18716 
5 1 3.07993 7.68701 7.68101 
6 1 3.80228 6.9731 6.99123 
37 1 0.726804 10.0479 9.9976 
38 1 2.27711 8.49311 8.49808 
39 1 1.56109 9.20982 9.18832 
13 1 6.24416 4.5273 4.54343 
14 1 7.77826 2.99822 2.99531 
15 1 7.0715 3.7029 3.70953 
28 1 10.0894 0.6791 0.675358 
29 1 8.5864 2.18333 2.19127 
30 1 9.29851 1.48672 1.47576 
1 1 6.17633 4.60305 6.17061 
2 1 7.69477 3.08205 7.68605 
3 1 6.9722 3.7871 6.98859 
40 1 10.0332 0.736349 10.0324 
41 1 8.49601 2.26749 8.49605 
42 1 9.20617 1.57068 9.20652 
7 1 6.18378 6.16767 4.60733 
8 1 7.68188 7.68739 3.0802 
9 1 6.99017 6.97319 3.8014 
43 1 10.0075 10.0435 0.729129 
44 1 8.49688 8.49238 2.27748 
45 1 9.19185 9.20844 1.56316 
22 1 6.25232 6.23021 6.24786 
23 1 7.77609 7.78167 7.77592 
24 1 7.07526 7.06458 7.07567 
34 1 10.0902 10.1042 10.0921 
35 1 8.58836 8.58641 8.58865 
36 1 9.29354 9.29961 9.29384 
ITEM: TIMESTEP
30
ITEM: NUMBER OF ATOMS
50
ITEM: BOX BOUNDS pp pp pp
0.0000000000000000e+00 1.1000000000000000e+01
0.0000000000000000e+00 1.1002000000000001e+01
0.0000000000000000e+00 1.1000000000000000e+01
ITEM: ATOMS id type x y z 
10 1 4.60452 4.60091 4.60535 
11 1 3.08775 3.08564 3.08801 
12 1 3.79606 3.79194 3.79509 
46 1 0.727534 0.752461 0.728225 
47 1 2.27352 2.27028 2.27382 
48 1 1.56321 1.57368 1.56332 
19 1 4.54194 4.52651 6.24317 
20 1 2.99848 2.99921 7.77646 
21 1 3.70921 3.70333 7.07059 
31 1 0.67165 0.678917 10.094 
32 1 2.18941 2.18847 8.58728 
33 1 1.47809 1.48238 9.29282 
16 1 4.54505 6.22567 4.55005 
17 1 3.06289 7.68877 2.86411 
18 1 3.72744 7.03288 3.64707 
25 1 0.64175 10.1233 0.642409 
26 1 2.25209 8.534 1.99944 
27 1 1.50059 9.27816 1.38217 
49 2 1.94318 9.01965 3.75906 
50 3 1.88715 9.15068 4.66144 
4 1 4.60831 6.16703 6.17416 
5 1 3.08719 7.68181 7.68492 
6 1 3.79655 6.97533 6.97867 
37 1 0.725144 10.049 10.0069 
38 1 2.27326 8.49648 8.49822 
39 1 1.56182 9.20982 9.1912 
13 1 6.24224 4.52966 4.53928 
14 1 7.7758 3.00024 2.99964 
15 1 7.06994 3.70476 3.709 
28 1 10.0945 0.677286 0.673044 
29 1 8.58687 2.18765 2.19008 
30 1 9.29418 1.48238 1.47985 
1 1 6.17695 4.59727 6.17718 
2 1 7.68689 3.08254 7.68736 
3 1 6.98008 3.79176 6.98003 
40 1 10.0305 0.7431 10.0322 
41 1 8.49658 2.27152 8.49574 
42 1 9.2036 1.56638 9.20438 
7 1 6.17118 6.16731 4.60849 
8 1 7.68406 7.68184 3.08762 
9 1 6.97875 6.97468 3.79689 
43 1 10.0148 10.0449 0.729452 
44 1 8.49814 8.49644 2.27315 
45 1 9.19499 9.20795 1.56377 
22 1 6.24789 6.23236 6.24531 
23 1 7.77584 7.77776 7.77597 
24 1 7.07156 7.0658 7.07111 
34 1 10.0937 10.1038 10.0944 
35 1 8.58652 8.58658 8.58671 
36 1 9.29266 9.29684 9.29341 
ITEM: TIMESTEP
40
ITEM: NUMBER OF ATOMS
50
ITEM: BOX BOUNDS pp pp pp
0.0000000000000000e+00 1.1000000000000000e+01
0.0000000000000000e+00 1.1002000000000001e+01
0.0000000000000000e+00 1.1000000000000000e+01
ITEM: ATOMS id type x y z 
10 1 4.60146 4.60635 4.60218 
11 1 3.08946 3.08479 3.08906 
12 1 3.79495 3.79503 3.79535 
46 1 0.729874 0.743834 0.730977 
47 1 2.27277 2.27207 2.2728 
48 1 1.56392 1.57004 1.56447 
19 1 4.54094 4.53153 6.24005 
20 1 3.00118 3.00059 7.77516 
21 1 3.71012 3.70551 7.06829 
31 1 0.670456 0.676498 10.0959 
32 1 2.1887 2.18906 8.58676 
33 1 1.47895 1.48214 9.29285 
16 1 4.53389 6.23524 4.53821 
17 1 3.06693 7.69006 2.84728 
18 1 3.72976 7.03171 3.63462 
25 1 0.658584 10.1119 0.657073 
26 1 2.26071 8.51713 2.00105 
27 1 1.51276 9.26113 1.37444 
49 2 1.93736 9.02721 3.77417 
50 3 1.87692 9.16453 4.6903 
4 1 4.60368 6.17087 6.16665 
5 1 3.08839 7.68104 7.68579 
6 1 3.79612 6.97572 6.97662 
37 1 0.72619 10.0476 10.0163 
38 1 2.27141 8.49804 8.49685 
39 1 1.56176 9.21014 9.19435 
13 1 6.23899 4.53344 4.53909 
14 1 7.77513 3.00091 3.00163 
15 1 7.06803 3.7064 3.70937 
28 1 10.0964 0.674749 0.672368 
29 1 8.5871 2.18876 2.18931 
30 1 9.29333 1.48094 1.48056 
1 1 6.17572 4.59818 6.17569 
2 1 7.68604 3.08325 7.68669 
3 1 6.97955 3.79228 6.97898 
40 1 10.0302 0.74325 10.0332 
41 1 8.4962 2.27202 8.49522 
42 1 9.20322 1.567 9.20444 
7 1 6.16498 6.17044 4.60476 
8 1 7.68502 7.68054 3.08874 
9 1 6.97579 6.97567 3.7967 
43 1 10.0242 10.0434 0.731446 
44 1 8.49693 8.49762 2.27178 
45 1 9.19873 9.20791 1.56404 
22 1 6.24232 6.23306 6.24126 
23 1 7.77419 7.77444 7.77423 
24 1 7.0691 7.06454 7.06852 
34 1 10.096 10.1053 10.0975 
35 1 8.58575 8.58673 8.586 
36 1 9.29183 9.29643 9.29288 
ITEM: TIMESTEP
50
ITEM: NUMBER OF ATOMS
50
ITEM: BOX BOUNDS pp pp pp
0.0000000000000000e+00 1.1000000000000000e+01
0.0000000000000000e+00 1.1002000000000001e+01
0.0000000000000000e+00 1.1000000000000000e+01
ITEM: ATOMS id type x y z 
10 1 4.59363 4.60656 4.59542 
11 1 3.08602 3.08058 3.08529 
12 1 3.78956 3.794 3.79081 
46 1 0.740937 0.727281 0.741704 
47 1 2.27006 2.27361 2.27021 
48 1 1.56586 1.56069 1.5661 
19 1 4.53197 4.54545 6.23006 
20 1 3.00762 3.00061 7.7744 
21 1 3.70553 3.71145 7.06318 
31 1 0.671603 0.675417 10.1033 
32 1 2.18716 2.18791 8.58605 
33 1 1.47854 1.48348 9.29584 
16 1 4.52419 6.24418 4.52701 
17 1 3.09489 7.6656 2.79543 
18 1 3.75052 7.01731 3.59963 
25 1 0.685191 10.0896 0.665052 
26 1 2.26888 8.49337 2.00444 
27 1 1.5246 9.24172 1.37668 
49 2 1.91516 9.05435 3.82695 
50 3 1.8435 9.20729 4.7425 
4 1 4.59165 6.18089 6.16229 
5 1 3.08514 7.68493 7.69316 
6 1 3.78769 6.98367 6.97427 
37 1 0.735284 10.0391 10.0297 
38 1 2.26858 8.50101 8.49399 
39 1 1.56205 9.20996 9.19971 
13 1 6.22801 4.54354 4.53077 
14 1 7.7731 3.00014 3.00582 
15 1 7.06634 3.7133 3.70703 
28 1 10.1023 0.664723 0.676024 
29 1 8.58651 2.18815 2.18702 
30 1 9.29611 1.48006 1.48256 
1 1 6.1703 4.60329 6.16982 
2 1 7.6838 3.08571 7.68419 
3 1 6.97744 3.79408 6.97515 
40 1 10.0365 0.737498 10.0421 
41 1 8.49874 2.2697 8.49822 
42 1 9.20516 1.56541 9.20791 
7 1 6.16283 6.17877 4.59563 
8 1 7.69062 7.68524 3.0844 
9 1 6.97676 6.98271 3.78949 
43 1 10.0442 10.0333 0.741539 
44 1 8.49636 8.50186 2.26766 
45 1 9.20915 9.20688 1.5653 
22 1 6.22658 6.2424 6.22816 
23 1 7.77293 7.76729 7.77188 
24 1 7.06238 7.0666 7.06296 
34 1 10.0954 10.1038 10.1031 
35 1 8.58678 8.5898 8.58184 
36 1 9.28789 9.29264 9.30041 
ITEM: TIMESTEP
60
ITEM: NUMBER OF ATOMS
50
ITEM: BOX BOUNDS pp pp pp
0.0000000000000000e+00 1.1000000000000000e+01
0.0000000000000000e+00 1.1002000000000001e+01
0.0000000000000000e+00 1.1000000000000000e+01
ITEM: ATOMS id type x y z 
10 1 4.594 4.60558 4.5963 
11 1 3.08561 3.08138 3.08522 
12 1 3.79045 3.79344 3.79112 
46 1 0.740214 0.727694 0.74039 
47 1 2.27059 2.27312 2.27077 
48 1 1.56597 1.56158 1.56614 
19 1 4.53192 4.54423 6.23056 
20 1 3.00614 3.00123 7.77363 
21 1 3.7075 3.7104 7.06441 
31 1 0.670933 0.676322 10.1033 
32 1 2.18744 2.18885 8.58641 
33 1 1.4794 1.48263 9.29462 
16 1 4.52612 6.24367 4.52732 
17 1 3.09583 7.6652 2.79445 
18 1 3.7514 7.01403 3.59711 
25 1 0.683694 10.0909 0.664564 
26 1 2.2689 8.49289 2.00447 
27 1 1.5256 9.24209 1.37623 
49 2 1.91471 9.05478 3.82898 
50 3 1.84153 9.20977 4.74436 
4 1 4.59149 6.18109 6.16231 
5 1 3.08461 7.68549 7.69103 
6 1 3.78928 6.98197 6.97637 
37 1 0.733288 10.0409 10.0274 
38 1 2.26829 8.50151 8.49452 
39 1 1.56172 9.21005 9.20004 
13 1 6.23006 4.54379 4.53187 
14 1 7.77409 3.00177 3.00538 
15 1 7.06444 3.71052 3.70688 
28 1 10.1026 0.667443 0.6767 
29 1 8.58756 2.18878 2.18752 
30 1 9.29437 1.47834 1.48234 
1 1 6.16927 4.60445 6.1684 
2 1 7.68412 3.08552 7.68348 
3 1 6.97714 3.7942 6.97663 
40 1 10.0363 0.73714 10.042 
41 1 8.49859 2.26984 8.49835 
42 1 9.20502 1.56568 9.20754 
7 1 6.16414 6.17859 4.596 
8 1 7.6896 7.68546 3.08425 
9 1 6.97694 6.98163 3.79045 
43 1 10.0433 10.0335 0.740504 
44 1 8.49657 8.50126 2.26854 
45 1 9.20842 9.2065 1.56525 
22 1 6.22826 6.24173 6.22952 
23 1 7.7726 7.76784 7.77163 
24 1 7.06289 7.06651 7.06297 
34 1 10.0947 10.1034 10.1051 
35 1 8.58478 8.5872 8.58442 
36 1 9.28965 9.29501 9.29421 
ITEM: TIMESTEP
70
ITEM: NUMBER OF ATOMS
50
ITEM: BOX BOUNDS pp pp pp
0.0000000000000000e+00 1.1000000000000000e+01
0.0000000000000000e+00 1.1002000000000001e+01
0.0000000000000000e+00 1.1000000000000000e+01
ITEM: ATOMS id type x y z 
10 1 4.59407 4.60556 4.5963 
11 1 3.08566 3.08139 3.0852 
12 1 3.79038 3.79349 3.79118 
46 1 0.740177 0.727721 0.740339 
47 1 2.27058 2.27308 2.27077 
48 1 1.56597 1.56158 1.56614 
19 1 4.53196 4.54416 6.23061 
20 1 3.00612 3.0012 7.77366 
21 1 3.70747 3.71042 7.06439 
31 1 0.670924 0.67636 10.1032 
32 1 2.18746 2.18885 8.5864 
33 1 1.47939 1.48265 9.29462 
16 1 4.52619 6.2436 4.52734 
17 1 3.09589 7.66511 2.79446 
18 1 3.75151 7.01391 3.59697 
25 1 0.683623 10.091 0.664546 
26 1 2.26888 8.49287 2.00444 
27 1 1.52564 9.24214 1.37625 
49 2 1.91469 9.0548 3.82909 
50 3 1.84142 9.20991 4.74446 
4 1 4.59152 6.18106 6.16235 
5 1 3.08463 7.68547 7.69106 
6 1 3.78924 6.98202 6.97625 
37 1 0.733202 10.041 10.0273 
38 1 2.2683 8.50149 8.49452 
39 1 1.56173 9.21007 9.20004 
13 1 6.23009 4.54374 4.53188 
14 1 7.77408 3.0018 3.00533 
15 1 7.06448 3.71046 3.70692 
28 1 10.1025 0.667389 0.676713 
29 1 8.58744 2.18865 2.18754 
30 1 9.29459 1.47858 1.48235 
1 1 6.16923 4.60443 6.16843 
2 1 7.68406 3.08551 7.6835 
3 1 6.97723 3.79425 6.97656 
40 1 10.0363 0.737145 10.042 
41 1 8.4986 2.26983 8.49836 
42 1 9.20501 1.5657 9.20753 
7 1 6.16414 6.1786 4.596 
8 1 7.68953 7.68548 3.08427 
9 1 6.97699 6.98157 3.79045 
43 1 10.0432 10.0335 0.740468 
44 1 8.49658 8.50124 2.26857 
45 1 9.20843 9.20649 1.56525 
22 1 6.22832 6.24172 6.22958 
23 1 7.77261 7.76788 7.77165 
24 1 7.06291 7.06651 7.06296 
34 1 10.0947 10.1034 10.105 
35 1 8.58478 8.5872 8.5844 
36 1 9.28963 9.29499 9.29426 
ITEM: TIMESTEP
76
ITEM: NUMBER OF ATOMS
50
ITEM: BOX BOUNDS pp pp pp
0.0000000000000000e+00 1.1000000000000000e+01
0.0000000000000000e+00 1.1002000000000001e+01
0.0000000000000000e+00 1.1000000000000000e+01
ITEM: ATOMS id type x y z 
10 1 4.59407 4.60556 4.5963 
11 1 3.08566 3.0814 3.0852 
12 1 3.79039 3.79349 3.79119 
46 1 0.740177 0.727721 0.740338 
47 1 2.27058 2.27308 2.27077 
48 1 1.56596 1.56158 1.56614 
19 1 4.53196 4.54415 6.23061 
20 1 3.00612 3.0012 7.77366 
21 1 3.70748 3.71042 7.06439 
31 1 0.670926 0.676357 10.1032 
32 1 2.18747 2.18885 8.5864 
33 1 1.47939 1.48266 9.29462 
16 1 4.52619 6.24359 4.52734 
17 1 3.09589 7.66511 2.79446 
18 1 3.75152 7.0139 3.59697 
25 1 0.683621 10.091 0.664548 
26 1 2.26888 8.49287 2.00444 
27 1 1.52564 9.24214 1.37624 
49 2 1.91469 9.0548 3.82909 
50 3 1.84142 9.20991 4.74446 
4 1 4.59152 6.18106 6.16235 
5 1 3.08463 7.68547 7.69106 
6 1 3.78924 6.98202 6.97625 
37 1 0.7332 10.041 10.0273 
38 1 2.2683 8.50149 8.49452 
39 1 1.56173 9.21007 9.20004 
13 1 6.23009 4.54374 4.53188 
14 1 7.77408 3.0018 3.00533 
15 1 7.06448 3.71046 3.70692 
28 1 10.1025 0.66739 0.676713 
29 1 8.58744 2.18865 2.18754 
30 1 9.2946 1.47858 1.48235 
1 1 6.16922 4.60443 6.16844 
2 1 7.68406 3.08551 7.6835 
3 1 6.97723 3.79425 6.97656 
40 1 10.0363 0.737144 10.042 
41 1 8.4986 2.26983 8.49836 
42 1 9.20502 1.5657 9.20753 
7 1 6.16414 6.17859 4.596 
8 1 7.68954 7.68548 3.08427 
9 1 6.97698 6.98157 3.79044 
43 1 10.0432 10.0335 0.740466 
44 1 8.49658 8.50124 2.26857 
45 1 9.20843 9.20649 1.56525 
22 1 6.22833 6.24172 6.22959 
23 1 7.77261 7.76789 7.77165 
24 1 7.06291 7.06651 7.06297 
34 1 10.0947 10.1034 10.105 
35 1 8.58478 8.5872 8.5844 
36 1 9.28963 9.29499 9.29425 
ITEM: TIMESTEP
77
ITEM: NUMBER OF ATOMS
50
ITEM: BOX BOUNDS pp pp pp
0.0000000000000000e+00 1.1000000000000000e+01
0.0000000000000000e+00 1.1002000000000001e+01
0.0000000000000000e+00 1.1000000000000000e+01
ITEM: ATOMS id type x y z 
10 1 4.59407 4.60556 4.5963 
11 1 3.08566 3.0814 3.0852 
12 1 3.79039 3.79349 3.79119 
46 1 0.740177 0.727721 0.740338 
47 1 2.27058 2.27308 2.27077 
48 1 1.56596 1.56158 1.56614 
19 1 4.53196 4.54415 6.23061 
20 1 3.00612 3.0012 7.77366 
21 1 3.70748 3.71042 7.06439 
31 1 0.670926 0.676357 10.1032 
32 1 2.18747 2.18885 8.5864 
33 1 1.47939 1.48266 9.29462 
16 1 4.52619 6.24359 4.52734 
17 1 3.09589 7.66511 2.79446 
18 1 3.75152 7.0139 3.59697 
25 1 0.683621 10.091 0.664548 
26 1 2.26888 8.49287 2.00444 
27 1 1.52564 9.24214 1.37624 
49 2 1.91469 9.0548 3.82909 
50 3 1.84142 9.20991 4.74446 
4 1 4.59152 6.18106 6.16235 
5 1 3.08463 7.68547 7.69106 
6 1 3.78924 6.98202 6.97625 
37 1 0.733199 10.041 10.0273 
38 1 2.2683 8.50149 8.49452 
39 1 1.56173 9.21007 9.20004 
13 1 6.23009 4.54374 4.53188 
14 1 7.77408 3.0018 3.00533 
15 1 7.06448 3.71046 3.70692 
28 1 10.1025 0.66739 0.676713 
29 1 8.58744 2.18865 2.18754 
30 1 9.2946 1.47858 1.48235 
1 1 6.16922 4.60443 6.16844 
2 1 7.68406 3.08551 7.6835 
3 1 6.97723 3.79425 6.97656 
40 1 10.0363 0.737144 10.042 
41 1 8.4986 2.26983 8.49836 
42 1 9.20502 1.5657 9.20753 
7 1 6.16414 6.17859 4.596 
8 1 7.68954 7.68548 3.08427 
9 1 6.97698 6.98157 3.79044 
43 1 10.0432 10.0335 0.740466 
44 1 8.49658 8.50124 2.26857 
45 1 9.20843 9.20649 1.56525 
22 1 6.22833 6.24172 6.22959 
23 1 7.77261 7.76789 7.77165 
24 1 7.06291 7.06651 7.06297 
34 1 10.0947 10.1034 10.105 
35 1 8.58478 8.5872 8.5844 
36 1 9.28963 9.29499 9.29425 
ITEM: TIMESTEP
80
ITEM: NUMBER OF ATOMS
50
ITEM: BOX BOUNDS pp pp pp
-1.6152418885720023e-03 1.1001615241888572e+01
-1.6326746344562566e-03 1.1003632674634458e+01
-1.6500000000000000e-03 1.1001650000000001e+01
ITEM: ATOMS id type x y z 
10 1 4.5938 4.6053 4.59603 
11 1 3.08495 3.08068 3.08448 
12 1 3.78989 3.79298 3.79067 
46 1 0.738775 0.726303 0.738906 
47 1 2.26963 2.27212 2.2698 
48 1 1.56481 1.56041 1.56496 
19 1 4.53168 4.54387 6.23083 
20 1 3.00538 3.00046 7.77434 
21 1 3.70695 3.70989 7.06486 
31 1 0.669504 0.674924 10.1046 
32 1 2.18649 2.18787 8.58733 
33 1 1.47821 1.48147 9.29576 
16 1 4.52591 6.24381 4.52705 
17 1 3.09519 7.66575 2.79365 
18 1 3.75101 7.01435 3.59639 
25 1 0.682201 10.0923 0.663093 
26 1 2.26793 8.49376 2.00339 
27 1 1.52448 9.24325 1.37501 
49 2 1.91363 9.05586 3.82859 
50 3 1.84034 9.21102 4.74424 
4 1 4.59126 6.18126 6.16255 
5 1 3.08392 7.68612 7.69172 
6 1 3.78873 6.98246 6.97669 
37 1 0.731796 10.0423 10.0287 
38 1 2.26735 8.50238 8.49542 
39 1 1.56057 9.21118 9.20115 
13 1 6.2303 4.54346 4.53159 
14 1 7.77474 3.00106 3.00459 
15 1 7.06493 3.70993 3.70638 
28 1 10.1038 0.665954 0.675264 
29 1 8.58835 2.18766 2.18654 
30 1 9.29571 1.47739 1.48114 
1 1 6.16942 4.60417 6.16863 
2 1 7.6847 3.08479 7.68416 
3 1 6.97766 3.79374 6.977 
40 1 10.0376 0.735729 10.0434 
41 1 8.49948 2.26887 8.49926 
42 1 9.2061 1.56453 9.20865 
7 1 6.16434 6.17879 4.59574 
8 1 7.69018 7.68612 3.08355 
9 1 6.97741 6.98201 3.78993 
43 1 10.0445 10.0349 0.739035 
44 1 8.49746 8.50213 2.2676 
45 1 9.20952 9.20759 1.56407 
22 1 6.22854 6.24193 6.2298 
23 1 7.77328 7.76856 7.77233 
24 1 7.06336 7.06697 7.06343 
34 1 10.0961 10.1048 10.1064 
35 1 8.58569 8.58811 8.58533 
36 1 9.29074 9.29612 9.29539 
ITEM: TIMESTEP
90
ITEM: NUMBER OF ATOMS
50
ITEM: BOX BOUNDS pp pp pp
-4.2364472676751875e-03 1.1004236447267676e+01
-5.1721973655141848e-03 1.1007172197365517e+01
-4.6802266441073360e-03 1.1004680226644107e+01
ITEM: ATOMS id type x y z 
10 1 4.59409 4.60536 4.59622 
11 1 3.084 3.07935 3.08334 
12 1 3.78886 3.79169 3.78954 
46 1 0.73591 0.722744 0.735671 
47 1 2.26776 2.26966 2.26769 
48 1 1.56262 1.55757 1.56247 
19 1 4.5318 4.54371 6.23074 
20 1 3.00447 2.99917 7.77527 
21 1 3.70642 3.70903 7.0654 
31 1 0.666535 0.671189 10.1078 
32 1 2.18477 2.18555 8.5892 
33 1 1.4765 1.47914 9.29764 
16 1 4.52613 6.2436 4.527 
17 1 3.09441 7.66673 2.79255 
18 1 3.75065 7.01482 3.59549 
25 1 0.679179 10.0961 0.659729 
26 1 2.2662 8.49594 2.0013 
27 1 1.5228 9.24535 1.37292 
49 2 1.91189 9.05818 3.82783 
50 3 1.83843 9.21361 4.74395 
4 1 4.59149 6.18102 6.16226 
5 1 3.08294 7.68733 7.69269 
6 1 3.78773 6.98364 6.97769 
37 1 0.72888 10.0459 10.0317 
38 1 2.26548 8.50464 8.49743 
39 1 1.55835 9.21391 9.20348 
13 1 6.23017 4.54329 4.53165 
14 1 7.77549 2.9998 3.00349 
15 1 7.06538 3.70907 3.70572 
28 1 10.1066 0.66224 0.671958 
29 1 8.58997 2.18532 2.18456 
30 1 9.29736 1.47506 1.47916 
1 1 6.16907 4.60425 6.16835 
2 1 7.68554 3.08342 7.68517 
3 1 6.97858 3.79245 6.978 
40 1 10.0403 0.732124 10.0464 
41 1 8.50123 2.26647 8.50126 
42 1 9.20819 1.5617 9.211 
7 1 6.16404 6.17853 4.59591 
8 1 7.69098 7.68734 3.08239 
9 1 6.97834 6.98317 3.78881 
43 1 10.0472 10.0384 0.735796 
44 1 8.49925 8.50435 2.26551 
45 1 9.21159 9.21031 1.5616 
22 1 6.22844 6.24184 6.22974 
23 1 7.77404 7.76975 7.77325 
24 1 7.06379 7.06763 7.064 
34 1 10.0989 10.1084 10.1095 
35 1 8.58731 8.59026 8.58723 
36 1 9.29236 9.29834 9.29724 
ITEM: TIMESTEP
100
ITEM: NUMBER OF ATOMS
50
ITEM: BOX BOUNDS pp pp pp
-6.3473271008883028e-03 1.1006347327100887e+01
-8.7107884097855741e-03 1.1010710788409787e+01
-7.2753071789858062e-03 1.1007275307178984e+01
ITEM: ATOMS id type x y z 
10 1 4.59504 4.60577 4.59701 
11 1 3.08344 3.07814 3.0825 
12 1 3.78776 3.79034 3.78843 
46 1 0.73297 0.718792 0.73228 
47 1 2.26562 2.26656 2.26527 
48 1 1.56091 1.55482 1.56039 
19 1 4.53256 4.54391 6.23024 
20 1 3.00437 2.99852 7.77545 
21 1 3.7059 3.70805 7.06588 
31 1 0.663573 0.666975 10.1109 
32 1 2.18332 2.18308 8.59091 
33 1 1.47526 1.47711 9.29911 
16 1 4.52707 6.24277 4.52742 
17 1 3.09443 7.66708 2.79236 
18 1 3.75057 7.01515 3.59434 
25 1 0.676015 10.1003 0.656146 
26 1 2.26467 8.49821 1.99939 
27 1 1.52168 9.24739 1.37139 
49 2 1.91045 9.06052 3.82742 
50 3 1.83666 9.21645 4.74387 
4 1 4.59222 6.18024 6.16145 
5 1 3.08219 7.68843 7.6933 
6 1 3.78688 6.98503 6.97879 
37 1 0.72587 10.05 10.0347 
38 1 2.26337 8.5075 8.4999 
39 1 1.55648 9.21657 9.2053 
13 1 6.2296 4.54347 4.53231 
14 1 7.77543 2.99914 3.00315 
15 1 7.06579 3.70809 3.70509 
28 1 10.1094 0.658088 0.668582 
29 1 8.59137 2.18284 2.18275 
30 1 9.29857 1.47295 1.47771 
1 1 6.16814 4.60477 6.1676 
2 1 7.68599 3.08215 7.68591 
3 1 6.97963 3.79108 6.97899 
40 1 10.0429 0.728077 10.0495 
41 1 8.50331 2.26349 8.50361 
42 1 9.20978 1.55896 9.21297 
7 1 6.16331 6.1777 4.5966 
8 1 7.69141 7.68841 3.08146 
9 1 6.97928 6.98456 3.78781 
43 1 10.0498 10.0424 0.732406 
44 1 8.50144 8.50716 2.26313 
45 1 9.21321 9.21292 1.55948 
22 1 6.22796 6.24122 6.22924 
23 1 7.77401 7.77039 7.77335 
24 1 7.06415 7.06842 7.06461 
34 1 10.1017 10.1125 10.1127 
35 1 8.58883 8.59239 8.58902 
36 1 9.29329 9.30058 9.29859 
ITEM: TIMESTEP
110
ITEM: NUMBER OF ATOMS
50
ITEM: BOX BOUNDS pp pp pp
-9.1456856076309340e-03 1.1009145685607631e+01
-1.2473308097565177e-02 1.1014473308097566e+01
-1.0647010086024063e-02 1.1010647010086023e+01
ITEM: ATOMS id type x y z 
10 1 4.59553 4.60624 4.59761 
11 1 3.08227 3.07708 3.08134 
12 1 3.78699 3.78846 3.78702 
46 1 0.729357 0.714518 0.728191 
47 1 2.26308 2.2632 2.26247 
48 1 1.55865 1.55205 1.55758 
19 1 4.53316 4.54408 6.22972 
20 1 3.00385 2.99777 7.77577 
21 1 3.70533 3.70697 7.06687 
31 1 0.659955 0.663007 10.1148 
32 1 2.18134 2.18079 8.5932 
33 1 1.4738 1.47436 9.30081 
16 1 4.52802 6.24183 4.52773 
17 1 3.09417 7.66749 2.79184 
18 1 3.75036 7.01543 3.59277 
25 1 0.672397 10.1048 0.652005 
26 1 2.26284 8.50076 1.9971 
27 1 1.51985 9.24932 1.36922 
49 2 1.90854 9.06303 3.82691 
50 3 1.83432 9.21958 4.74372 
4 1 4.5931 6.17976 6.16095 
5 1 3.08143 7.68985 7.69431 
6 1 3.78521 6.98608 6.97988 
37 1 0.72207 10.0543 10.0382 
38 1 2.2607 8.51052 8.5027 
39 1 1.55443 9.21931 9.20781 
13 1 6.22909 4.54365 4.53284 
14 1 7.77558 2.99846 3.00236 
15 1 7.06652 3.7069 3.70433 
28 1 10.113 0.65402 0.664704 
29 1 8.59344 2.18042 2.18061 
30 1 9.29969 1.4703 1.47551 
1 1 6.16766 4.60534 6.16696 
2 1 7.68702 3.08092 7.68681 
3 1 6.98032 3.78937 6.98046 
40 1 10.0461 0.723814 10.0533 
41 1 8.5058 2.2604 8.5064 
42 1 9.21179 1.55602 9.21546 
7 1 6.16283 6.17722 4.5974 
8 1 7.69213 7.68985 3.08046 
9 1 6.98036 6.98554 3.78602 
43 1 10.053 10.0467 0.728283 
44 1 8.50407 8.51016 2.26029 
45 1 9.21526 9.2156 1.55678 
22 1 6.22741 6.24055 6.22892 
23 1 7.7741 7.77114 7.77386 
24 1 7.06494 7.06921 7.06521 
34 1 10.1048 10.1168 10.1162 
35 1 8.59048 8.5949 8.59118 
36 1 9.29511 9.30241 9.30059 
ITEM: TIMESTEP
120
ITEM: NUMBER OF ATOMS
50
ITEM: BOX BOUNDS pp pp pp
-1.3071172900736606e-02 1.1013071172900736e+01
-1.6568239497369248e-02 1.1018568239497371e+01
-1.5096147396914485e-02 1.1015096147396918e+01
ITEM: ATOMS id type x y z 
10 1 4.59625 4.60618 4.59815 
11 1 3.081 3.07551 3.07976 
12 1 3.78506 3.78725 3.78512 
46 1 0.72454 0.709845 0.722753 
47 1 2.25978 2.25952 2.25877 
48 1 1.55555 1.54886 1.55426 
19 1 4.53393 4.54438 6.2293 
20 1 3.00298 2.99709 7.77648 
21 1 3.70433 3.70577 7.06791 
31 1 0.65541 0.658575 10.1192 
32 1 2.17877 2.17805 8.59592 
33 1 1.4715 1.47194 9.30351 
16 1 4.52926 6.24046 4.528 
17 1 3.09357 7.66781 2.79106 
18 1 3.75012 7.01538 3.59053 
25 1 0.667571 10.1095 0.646733 
26 1 2.26018 8.50351 1.99428 
27 1 1.51746 9.25162 1.36632 
49 2 1.90584 9.06581 3.82642 
50 3 1.83091 9.22332 4.74355 
4 1 4.59351 6.17899 6.16059 
5 1 3.07986 7.69111 7.69564 
6 1 3.7837 6.98788 6.98129 
37 1 0.71699 10.0593 10.0428 
38 1 2.25733 8.51385 8.50639 
39 1 1.55126 9.22243 9.2109 
13 1 6.22867 4.5438 4.53359 
14 1 7.77608 2.99773 3.00125 
15 1 7.06747 3.70576 3.70309 
28 1 10.1171 0.649394 0.659931 
29 1 8.5958 2.17743 2.17785 
30 1 9.30215 1.46813 1.47263 
1 1 6.16705 4.60559 6.16659 
2 1 7.68813 3.07931 7.68821 
3 1 6.98201 3.78796 6.98211 
40 1 10.0504 0.719033 10.0582 
41 1 8.50903 2.25697 8.50993 
42 1 9.21459 1.55289 9.21872 
7 1 6.1627 6.17632 4.59774 
8 1 7.6933 7.69101 3.07862 
9 1 6.98166 6.98748 3.78448 
43 1 10.0572 10.0515 0.722845 
44 1 8.50756 8.51343 2.25668 
45 1 9.21818 9.21867 1.55324 
22 1 6.22698 6.2396 6.22858 
23 1 7.77457 7.77192 7.77455 
24 1 7.06587 7.07012 7.06626 
34 1 10.109 10.1213 10.1206 
35 1 8.59301 8.59734 8.59394 
36 1 9.29713 9.30481 9.30329 
ITEM: TIMESTEP
130
ITEM: NUMBER OF ATOMS
50
ITEM: BOX BOUNDS pp pp pp
-1.5226738917393293e-02 1.1015226738917391e+01
-1.8214976248024144e-02 1.1020214976248027e+01
-1.7679151539656383e-02 1.1017679151539660e+01
ITEM: ATOMS id type x y z 
10 1 4.59654 4.60607 4.59827 
11 1 3.08003 3.07529 3.07863 
12 1 3.78427 3.78607 3.78421 
46 1 0.721507 0.707569 0.719232 
47 1 2.2578 2.2576 2.25656 
48 1 1.55376 1.54722 1.55209 
19 1 4.53476 4.54473 6.22903 
20 1 3.00261 2.99716 7.77675 
21 1 3.70378 3.70544 7.06841 
31 1 0.653148 0.656911 10.1216 
32 1 2.17766 2.17689 8.59752 
33 1 1.47004 1.47139 9.30483 
16 1 4.53055 6.23902 4.52815 
17 1 3.09333 7.66756 2.79083 
18 1 3.75058 7.01448 3.58865 
25 1 0.664898 10.1115 0.643573 
26 1 2.2585 8.50471 1.99294 
27 1 1.51648 9.25276 1.36488 
49 2 1.90428 9.06702 3.82674 
50 3 1.82845 9.22568 4.74368 
4 1 4.59371 6.17869 6.16057 
5 1 3.07888 7.69182 7.69613 
6 1 3.78279 6.9885 6.98246 
37 1 0.713817 10.062 10.0455 
38 1 2.2554 8.51553 8.50881 
39 1 1.54926 9.22385 9.21259 
13 1 6.22843 4.54399 4.53442 
14 1 7.77614 2.99785 3.00065 
15 1 7.0679 3.70535 3.70248 
28 1 10.1192 0.647885 0.65723 
29 1 8.59708 2.17636 2.17626 
30 1 9.30334 1.46716 1.47137 
1 1 6.16696 4.6058 6.16668 
2 1 7.68883 3.07877 7.68916 
3 1 6.98299 3.78704 6.983 
40 1 10.0528 0.716733 10.0612 
41 1 8.51091 2.25528 8.51212 
42 1 9.21625 1.5516 9.2207 
7 1 6.16321 6.17575 4.59805 
8 1 7.69395 7.69161 3.07759 
9 1 6.9824 6.98835 3.78321 
43 1 10.0597 10.054 0.719313 
44 1 8.50979 8.51498 2.25447 
45 1 9.21985 9.22009 1.5512 
22 1 6.22664 6.23847 6.22844 
23 1 7.77464 7.77191 7.77489 
24 1 7.06624 7.07058 7.06658 
34 1 10.1112 10.1231 10.1225 
35 1 8.59462 8.59806 8.59526 
36 1 9.29744 9.30579 9.30513 
ITEM: TIMESTEP
140
ITEM: NUMBER OF ATOMS
50
ITEM: BOX BOUNDS pp pp pp
-1.6178492702856300e-02 1.1016178492702855e+01
-1.9169260829384464e-02 1.1021169260829387e+01
-1.7964014244782701e-02 1.1017964014244786e+01
ITEM: ATOMS id type x y z 
10 1 4.59642 4.6059 4.59833 
11 1 3.07957 3.07494 3.07849 
12 1 3.78387 3.78565 3.78398 
46 1 0.720392 0.706531 0.718647 
47 1 2.25705 2.25671 2.2562 
48 1 1.55307 1.54651 1.55187 
19 1 4.53491 4.54473 6.22894 
20 1 3.00229 2.99692 7.77666 
21 1 3.70357 3.70525 7.06838 
31 1 0.652277 0.656185 10.1217 
32 1 2.17719 2.17637 8.59769 
33 1 1.46944 1.47082 9.30484 
16 1 4.53101 6.23854 4.52824 
17 1 3.09326 7.66752 2.79122 
18 1 3.75074 7.01419 3.58808 
25 1 0.663756 10.1122 0.643108 
26 1 2.2578 8.50528 1.993 
27 1 1.51606 9.25351 1.36484 
49 2 1.90359 9.0677 3.82714 
50 3 1.82735 9.22689 4.74387 
4 1 4.59359 6.17871 6.16053 
5 1 3.07843 7.69224 7.69616 
6 1 3.78236 6.98889 6.98252 
37 1 0.712546 10.0632 10.0458 
38 1 2.25472 8.51619 8.50917 
39 1 1.54837 9.22471 9.2129 
13 1 6.2285 4.54387 4.53472 
14 1 7.77643 2.99755 3.00052 
15 1 7.06805 3.70511 3.70251 
28 1 10.1199 0.64703 0.657003 
29 1 8.59762 2.1758 2.17616 
30 1 9.30385 1.46654 1.47132 
1 1 6.16709 4.60558 6.16685 
2 1 7.68923 3.07832 7.68929 
3 1 6.98338 3.78666 6.98321 
40 1 10.0537 0.715714 10.0617 
41 1 8.51163 2.25459 8.51247 
42 1 9.2169 1.5508 9.221 
7 1 6.16316 6.17597 4.59797 
8 1 7.69401 7.69224 3.0773 
9 1 6.98327 6.98839 3.78319 
43 1 10.0607 10.0552 0.718623 
44 1 8.51074 8.51576 2.25405 
45 1 9.22061 9.22087 1.55086 
22 1 6.22664 6.23843 6.22822 
23 1 7.77484 7.77239 7.77459 
24 1 7.06643 7.07046 7.06699 
34 1 10.1116 10.1239 10.123 
35 1 8.59473 8.59849 8.59581 
36 1 9.29862 9.30633 9.30445 
ITEM: TIMESTEP
150
ITEM: NUMBER OF ATOMS
50
ITEM: BOX BOUNDS pp pp pp
-1.6600368851522457e-02 1.1016600368851520e+01
-1.9966818243378086e-02 1.1021966818243381e+01
-1.8765367378061597e-02 1.1018765367378066e+01
ITEM: ATOMS id type x y z 
10 1 4.59652 4.6055 4.59825 
11 1 3.07931 3.07464 3.078 
12 1 3.78351 3.78523 3.78368 
46 1 0.719635 0.70555 0.717498 
47 1 2.25652 2.25574 2.25547 
48 1 1.5527 1.54584 1.55115 
19 1 4.53524 4.54479 6.22891 
20 1 3.00219 2.99686 7.77669 
21 1 3.70364 3.70511 7.0685 
31 1 0.651857 0.655695 10.1221 
32 1 2.17707 2.17595 8.59803 
33 1 1.46936 1.47054 9.3053 
16 1 4.53175 6.23786 4.52818 
17 1 3.09329 7.66748 2.79127 
18 1 3.7514 7.01349 3.58718 
25 1 0.663332 10.113 0.642247 
26 1 2.25759 8.5061 1.99303 
27 1 1.51564 9.25363 1.3643 
49 2 1.90321 9.0683 3.82761 
50 3 1.82634 9.22831 4.74411 
4 1 4.59362 6.17874 6.16076 
5 1 3.07822 7.69268 7.69639 
6 1 3.78191 6.98924 6.9827 
37 1 0.711627 10.0644 10.0465 
38 1 2.25423 8.51689 8.50997 
39 1 1.5479 9.22544 9.21345 
13 1 6.22849 4.54373 4.53505 