ITEM: TIMESTEP
0
ITEM: NUMBER OF ATOMS
49
ITEM: BOX BOUNDS pp pp pp
0.0000000000000000e+00 1.1000000000000000e+01
0.0000000000000000e+00 1.1002000000000001e+01
0.0000000000000000e+00 1.1000000000000000e+01
ITEM: ATOMS id type x y z 
10 1 4.603 4.603 4.603 
11 1 3.085 3.085 3.085 
12 1 3.796 3.796 3.796 
46 1 0.726 0.725 0.725 
47 1 2.26 2.259 2.26 
48 1 1.551 1.55 1.55 
49 2 2.685 2.783 4.347 
19 1 4.546 4.545 6.226 
20 1 3.013 3.013 7.764 
21 1 3.721 3.721 7.053 
31 1 0.668 0.667 10.103 
32 1 2.187 2.187 8.589 
33 1 1.476 1.475 9.298 
16 1 4.546 6.225 4.546 
17 1 3.013 7.765 3.013 
18 1 3.721 7.053 3.722 
25 1 0.668 10.103 0.668 
26 1 2.188 8.589 2.188 
27 1 1.476 9.298 1.476 
4 1 4.608 6.169 6.169 
5 1 3.086 7.684 7.684 
6 1 3.799 6.974 6.974 
37 1 0.729 10.046 10.046 
38 1 2.259 8.509 8.508 
39 1 1.552 9.219 9.219 
13 1 6.225 4.546 4.546 
14 1 7.764 3.013 3.013 
15 1 7.053 3.721 3.722 
28 1 10.102 0.667 0.668 
29 1 8.589 2.187 2.188 
30 1 9.298 1.475 1.476 
1 1 6.168 4.608 6.169 
2 1 7.684 3.086 7.684 
3 1 6.974 3.799 6.974 
40 1 10.045 0.728 10.046 
41 1 8.508 2.259 8.508 
42 1 9.218 1.551 9.218 
7 1 6.169 6.169 4.608 
8 1 7.684 7.684 3.086 
9 1 6.974 6.974 3.799 
43 1 10.046 10.047 0.729 
44 1 8.508 8.509 2.259 
45 1 9.219 9.219 1.552 
22 1 6.229 6.229 6.229 
23 1 7.764 7.765 7.765 
24 1 7.055 7.056 7.055 
34 1 10.108 10.108 10.107 
35 1 8.59 8.59 8.59 
36 1 9.301 9.301 9.3 
ITEM: TIMESTEP
10
ITEM: NUMBER OF ATOMS
49
ITEM: BOX BOUNDS pp pp pp
0.0000000000000000e+00 1.1000000000000000e+01
0.0000000000000000e+00 1.1002000000000001e+01
0.0000000000000000e+00 1.1000000000000000e+01
ITEM: ATOMS id type x y z 
10 1 4.60436 4.60239 4.60181 
11 1 3.05081 3.04941 3.01012 
12 1 3.79655 3.80043 3.85781 
46 1 0.739538 0.738223 0.740172 
47 1 2.23985 2.23833 2.22528 
48 1 1.56446 1.56305 1.55934 
49 2 2.70839 2.8067 4.37665 
19 1 4.53801 4.53766 6.23727 
20 1 3.00362 3.00321 7.77373 
21 1 3.70967 3.71036 7.0641 
31 1 0.674852 0.674294 10.0991 
32 1 2.18953 2.18943 8.58504 
33 1 1.48284 1.48208 9.29391 
16 1 4.53978 6.23696 4.53663 
17 1 3.00344 7.77339 3.00428 
18 1 3.71079 7.06522 3.71019 
25 1 0.675465 10.0996 0.675567 
26 1 2.19016 8.58568 2.19022 
27 1 1.48282 9.29357 1.48279 
4 1 4.60129 6.17598 6.17651 
5 1 3.0831 7.68754 7.68741 
6 1 3.79135 6.98039 6.98054 
37 1 0.736743 10.0386 10.0384 
38 1 2.26789 8.50014 8.49932 
39 1 1.56281 9.20824 9.20798 
13 1 6.23701 4.53993 4.53618 
14 1 7.77302 3.00295 3.00394 
15 1 7.06518 3.71068 3.7099 
28 1 10.0986 0.674283 0.674998 
29 1 8.58548 2.1893 2.19041 
30 1 9.29332 1.4821 1.48287 
1 1 6.17472 4.60057 6.17695 
2 1 7.6867 3.08246 7.68739 
3 1 6.98176 3.7927 6.98048 
40 1 10.0376 0.735147 10.038 
41 1 8.49944 2.26706 8.49911 
42 1 9.20771 1.56241 9.20826 
7 1 6.17668 6.17677 4.60128 
8 1 7.68766 7.68751 3.08298 
9 1 6.98045 6.98082 3.79123 
43 1 10.0384 10.0389 0.736686 
44 1 8.49939 8.49961 2.26792 
45 1 9.20792 9.20929 1.56267 
22 1 6.2372 6.23765 6.23731 
23 1 7.77314 7.77449 7.77366 
24 1 7.06574 7.06598 7.06653 
34 1 10.1007 10.101 10.1003 
35 1 8.58671 8.58635 8.58712 
36 1 9.29435 9.29517 9.29267 
ITEM: TIMESTEP
20
ITEM: NUMBER OF ATOMS
49
ITEM: BOX BOUNDS pp pp pp
0.0000000000000000e+00 1.1000000000000000e+01
0.0000000000000000e+00 1.1002000000000001e+01
0.0000000000000000e+00 1.1000000000000000e+01
ITEM: ATOMS id type x y z 
10 1 4.63471 4.63053 4.62216 
11 1 3.04298 3.03604 2.92123 
12 1 3.72839 3.74161 3.9315 
46 1 0.747795 0.746214 0.750484 
47 1 2.23656 2.23525 2.21189 
48 1 1.55474 1.5533 1.54229 
49 2 2.74808 2.8456 4.40045 
19 1 4.54053 4.54136 6.25157 
20 1 2.9986 2.99839 7.77509 
21 1 3.70817 3.70845 7.07419 
31 1 0.672486 0.671674 10.089 
32 1 2.18979 2.18937 8.58854 
33 1 1.47827 1.47809 9.29018 
16 1 4.54355 6.25279 4.53477 
17 1 2.99715 7.77579 2.99901 
18 1 3.70928 7.0744 3.7063 
25 1 0.673059 10.0886 0.673225 
26 1 2.19022 8.58871 2.19005 
27 1 1.47842 9.2907 1.47931 
4 1 4.60147 6.17757 6.17923 
5 1 3.08162 7.68779 7.68748 
6 1 3.79279 6.98124 6.98176 
37 1 0.737698 10.0386 10.0375 
38 1 2.26843 8.49927 8.49893 
39 1 1.56432 9.20769 9.20649 
13 1 6.25352 4.54362 4.53355 
14 1 7.77596 2.99616 2.9984 
15 1 7.07476 3.70884 3.70539 
28 1 10.088 0.672074 0.672937 
29 1 8.58902 2.18925 2.19035 
30 1 9.28992 1.47742 1.47854 
1 1 6.17688 4.6016 6.18023 
2 1 7.68785 3.08159 7.68743 
3 1 6.98099 3.79293 6.98208 
40 1 10.0376 0.736418 10.0373 
41 1 8.49898 2.26807 8.4989 
42 1 9.20658 1.56303 9.20633 
7 1 6.18047 6.18163 4.60148 
8 1 7.68836 7.68841 3.08061 
9 1 6.98245 6.98299 3.79256 
43 1 10.0373 10.0382 0.737391 
44 1 8.49923 8.49983 2.2682 
45 1 9.20712 9.20742 1.5637 
22 1 6.23847 6.2384 6.24045 
23 1 7.77451 7.77538 7.77489 
24 1 7.06758 7.06845 7.06832 
34 1 10.1009 10.1015 10.1005 
35 1 8.58689 8.58693 8.58667 
36 1 9.29447 9.29479 9.29426 
ITEM: TIMESTEP
30
ITEM: NUMBER OF ATOMS
49
ITEM: BOX BOUNDS pp pp pp
0.0000000000000000e+00 1.1000000000000000e+01
0.0000000000000000e+00 1.1002000000000001e+01
0.0000000000000000e+00 1.1000000000000000e+01
ITEM: ATOMS id type x y z 
10 1 4.64356 4.63886 4.62087 
11 1 3.07223 3.06308 2.90872 
12 1 3.70509 3.72223 3.96983 
46 1 0.740519 0.739597 0.745357 
47 1 2.2424 2.23992 2.20721 
48 1 1.55684 1.55504 1.53847 
49 2 2.72169 2.82163 4.40632 
19 1 4.54682 4.54695 6.24907 
20 1 2.9997 2.99968 7.77503 
21 1 3.7095 3.70962 7.07492 
31 1 0.669571 0.668702 10.0873 
32 1 2.18731 2.18678 8.58897 
33 1 1.47661 1.47644 9.29153 
16 1 4.5459 6.24959 4.53504 
17 1 2.99628 7.77725 2.99819 
18 1 3.70827 7.0755 3.70467 
25 1 0.670531 10.0877 0.669618 
26 1 2.18647 8.59019 2.18703 
27 1 1.47619 9.29285 1.47611 
4 1 4.60216 6.18046 6.18302 
5 1 3.08133 7.68761 7.68697 
6 1 3.79407 6.98132 6.98234 
37 1 0.739219 10.0368 10.0354 
38 1 2.26993 8.49806 8.49798 
39 1 1.56495 9.20674 9.20491 
13 1 6.25105 4.54585 4.53432 
14 1 7.77771 2.99538 2.99746 
15 1 7.07601 3.70754 3.70353 
28 1 10.0874 0.669287 0.669016 
29 1 8.59085 2.18532 2.18681 
30 1 9.29225 1.47437 1.47541 
1 1 6.1797 4.60324 6.18374 
2 1 7.6879 3.08166 7.68688 
3 1 6.98008 3.79363 6.98302 
40 1 10.036 0.738074 10.035 
41 1 8.49796 2.26966 8.49768 
42 1 9.20558 1.56358 9.2049 
7 1 6.18573 6.18747 4.60406 
8 1 7.6888 7.68888 3.07943 
9 1 6.98391 6.98465 3.79425 
43 1 10.0351 10.0359 0.738435 
44 1 8.49845 8.49879 2.26951 
45 1 9.20588 9.20645 1.56367 
22 1 6.24133 6.24107 6.24374 
23 1 7.77633 7.7775 7.77668 
24 1 7.06948 7.06942 7.07054 
34 1 10.0991 10.1004 10.0971 
35 1 8.58752 8.58834 8.58704 
36 1 9.29576 9.29498 9.29596 
ITEM: TIMESTEP
40
ITEM: NUMBER OF ATOMS
49
ITEM: BOX BOUNDS pp pp pp
0.0000000000000000e+00 1.1000000000000000e+01
0.0000000000000000e+00 1.1002000000000001e+01
0.0000000000000000e+00 1.1000000000000000e+01
ITEM: ATOMS id type x y z 
10 1 4.64343 4.63872 4.62052 
11 1 3.07173 3.06255 2.90821 
12 1 3.70416 3.7216 3.97405 
46 1 0.741447 0.740434 0.745799 
47 1 2.24299 2.24039 2.20479 
48 1 1.55756 1.55572 1.53927 
49 2 2.71932 2.81939 4.40502 
19 1 4.54656 4.54676 6.24941 
20 1 2.99974 2.99974 7.77521 
21 1 3.70946 3.70952 7.07503 
31 1 0.669688 0.668933 10.0884 
32 1 2.18741 2.18717 8.58896 
33 1 1.47673 1.47602 9.29077 
16 1 4.54587 6.2497 4.53479 
17 1 2.99631 7.77733 2.99838 
18 1 3.70838 7.0753 3.70437 
25 1 0.670277 10.0886 0.669535 
26 1 2.18646 8.59012 2.18703 
27 1 1.47611 9.29261 1.47608 
4 1 4.60278 6.18068 6.18282 
5 1 3.08137 7.68753 7.68713 
6 1 3.79403 6.98151 6.98209 
37 1 0.738844 10.0368 10.0348 
38 1 2.26994 8.49812 8.49759 
39 1 1.56521 9.20634 9.2053 
13 1 6.25104 4.54582 4.5339 
14 1 7.7777 2.99535 2.99746 
15 1 7.07606 3.70773 3.70357 
28 1 10.0882 0.668901 0.669015 
29 1 8.59054 2.18518 2.18678 
30 1 9.29238 1.47456 1.47548 
1 1 6.17977 4.60344 6.18359 
2 1 7.68743 3.08139 7.68701 
3 1 6.98088 3.7943 6.98274 
40 1 10.0357 0.737534 10.0345 
41 1 8.49769 2.26947 8.49739 
42 1 9.20571 1.56433 9.20495 
7 1 6.18563 6.18724 4.60467 
8 1 7.68876 7.68881 3.07944 
9 1 6.984 6.98482 3.79452 
43 1 10.0349 10.0356 0.73776 
44 1 8.49839 8.49873 2.26929 
45 1 9.20611 9.20664 1.56387 
22 1 6.24165 6.24127 6.2437 
23 1 7.77657 7.7775 7.7769 
24 1 7.06946 7.06982 7.0706 
34 1 10.0994 10.1 10.0979 
35 1 8.58761 8.58784 8.58761 
36 1 9.29572 9.29606 9.29501 
ITEM: TIMESTEP
50
ITEM: NUMBER OF ATOMS
49
ITEM: BOX BOUNDS pp pp pp
0.0000000000000000e+00 1.1000000000000000e+01
0.0000000000000000e+00 1.1002000000000001e+01
0.0000000000000000e+00 1.1000000000000000e+01
ITEM: ATOMS id type x y z 
10 1 4.64256 4.63779 4.62035 
11 1 3.07129 3.06203 2.90932 
12 1 3.69779 3.71656 3.99041 
46 1 0.744692 0.743407 0.748675 
47 1 2.24735 2.24424 2.19791 
48 1 1.56029 1.55827 1.53774 
49 2 2.70849 2.80908 4.39827 
19 1 4.54632 4.54654 6.24994 
20 1 3.00023 3.00013 7.77496 
21 1 3.71024 3.71048 7.07595 
31 1 0.669698 0.669039 10.0909 
32 1 2.18736 2.18717 8.58775 
33 1 1.47713 1.47635 9.29059 
16 1 4.54541 6.25017 4.53461 
17 1 2.99592 7.77782 2.99979 
18 1 3.70968 7.07427 3.70186 
25 1 0.669653 10.0905 0.668498 
26 1 2.18534 8.5883 2.18593 
27 1 1.4769 9.29512 1.47722 
4 1 4.60202 6.18114 6.17903 
5 1 3.07903 7.68765 7.68402 
6 1 3.79936 6.98078 6.98743 
37 1 0.738217 10.0367 10.0343 
38 1 2.27032 8.49781 8.49801 
39 1 1.56498 9.20641 9.20377 
13 1 6.25085 4.54559 4.5327 
14 1 7.77753 2.99509 2.9977 
15 1 7.07646 3.7088 3.70325 
28 1 10.0909 0.670045 0.667005 
29 1 8.58968 2.18618 2.1847 
30 1 9.29285 1.47157 1.47857 
1 1 6.18041 4.60446 6.18256 
2 1 7.68684 3.08155 7.68684 
3 1 6.98115 3.79521 6.98233 
40 1 10.0347 0.735838 10.0338 
41 1 8.49614 2.26886 8.49773 
42 1 9.208 1.56599 9.20348 
7 1 6.18536 6.18666 4.60626 
8 1 7.68835 7.68861 3.07975 
9 1 6.98433 6.98494 3.7958 
43 1 10.0342 10.0345 0.735524 
44 1 8.498 8.49823 2.26884 
45 1 9.20644 9.2071 1.56459 
22 1 6.24263 6.24242 6.24379 
23 1 7.77752 7.77826 7.77818 
24 1 7.07023 7.07081 7.07102 
34 1 10.1 10.1006 10.0982 
35 1 8.58813 8.58819 8.58816 
36 1 9.29603 9.2968 9.2951 
ITEM: TIMESTEP
60
ITEM: NUMBER OF ATOMS
49
ITEM: BOX BOUNDS pp pp pp
0.0000000000000000e+00 1.1000000000000000e+01
0.0000000000000000e+00 1.1002000000000001e+01
0.0000000000000000e+00 1.1000000000000000e+01
ITEM: ATOMS id type x y z 
10 1 4.64098 4.63677 4.62042 
11 1 3.07326 3.06408 2.91252 
12 1 3.69319 3.71259 3.99725 
46 1 0.744358 0.743161 0.749113 
47 1 2.25095 2.24727 2.19468 
48 1 1.5633 1.56111 1.5349 
49 2 2.70006 2.80124 4.39592 
19 1 4.54737 4.54747 6.25001 
20 1 3.00042 3.00038 7.77563 
21 1 3.71024 3.71034 7.0758 
31 1 0.669917 0.66938 10.0913 
32 1 2.18674 2.18663 8.58735 
33 1 1.47721 1.47631 9.29108 
16 1 4.54637 6.24839 4.53331 
17 1 2.9968 7.77731 2.99865 
18 1 3.70865 7.07493 3.70393 
25 1 0.67044 10.0924 0.669084 
26 1 2.18499 8.58938 2.1861 
27 1 1.47575 9.29338 1.47563 
4 1 4.60489 6.18095 6.18127 
5 1 3.08251 7.68679 7.6876 
6 1 3.79398 6.98187 6.98028 
37 1 0.738584 10.0377 10.0342 
38 1 2.26994 8.49785 8.49747 
39 1 1.56516 9.20662 9.20456 
13 1 6.25002 4.54613 4.53254 
14 1 7.77807 2.99555 2.99766 
15 1 7.07578 3.70816 3.70298 
28 1 10.0918 0.668812 0.668449 
29 1 8.58955 2.18375 2.18572 
30 1 9.29326 1.47428 1.47516 
1 1 6.18092 4.60459 6.18178 
2 1 7.68643 3.08207 7.68688 
3 1 6.98116 3.79518 6.98164 
40 1 10.0373 0.737415 10.0334 
41 1 8.49784 2.26995 8.49706 
42 1 9.20505 1.56389 9.20462 
7 1 6.18506 6.18655 4.60608 
8 1 7.68845 7.68873 3.08037 
9 1 6.98409 6.98476 3.79569 
43 1 10.0349 10.0353 0.73611 
44 1 8.4983 8.49864 2.26927 
45 1 9.20584 9.20626 1.56349 
22 1 6.24329 6.24293 6.24411 
23 1 7.77796 7.77852 7.77876 
24 1 7.07071 7.07158 7.0714 
34 1 10.1005 10.1006 10.0979 
35 1 8.58875 8.58817 8.58855 
36 1 9.29588 9.29791 9.29527 
ITEM: TIMESTEP
70
ITEM: NUMBER OF ATOMS
49
ITEM: BOX BOUNDS pp pp pp
0.0000000000000000e+00 1.1000000000000000e+01
0.0000000000000000e+00 1.1002000000000001e+01
0.0000000000000000e+00 1.1000000000000000e+01
ITEM: ATOMS id type x y z 
10 1 4.64001 4.63562 4.62068 
11 1 3.07387 3.0647 2.91371 
12 1 3.69046 3.71029 4.00188 
46 1 0.744627 0.743642 0.749309 
47 1 2.25293 2.24924 2.19178 
48 1 1.5649 1.56207 1.53414 
49 2 2.6958 2.79729 4.39469 
19 1 4.54781 4.54781 6.25021 
20 1 3.00058 3.00058 7.77576 
21 1 3.71042 3.71045 7.0759 
31 1 0.670337 0.669604 10.0916 
32 1 2.18662 2.18645 8.5871 
33 1 1.47716 1.47636 9.29114 
16 1 4.54626 6.24794 4.53316 
17 1 2.99661 7.77768 2.99847 
18 1 3.7086 7.07467 3.70366 
25 1 0.670445 10.093 0.669118 
26 1 2.18486 8.58931 2.18593 
27 1 1.4755 9.29326 1.47556 
4 1 4.60492 6.18136 6.18057 
5 1 3.08226 7.68671 7.68698 
6 1 3.79496 6.98181 6.98102 
37 1 0.738904 10.038 10.0344 
38 1 2.2699 8.49778 8.49746 
39 1 1.56526 9.20669 9.20453 
13 1 6.2494 4.54598 4.53239 
14 1 7.7781 2.9956 2.99771 
15 1 7.07574 3.70816 3.70275 
28 1 10.0923 0.668819 0.668585 
29 1 8.58946 2.1835 2.18546 
30 1 9.29331 1.47407 1.47507 
1 1 6.1812 4.60516 6.18113 
2 1 7.68638 3.0821 7.68686 
3 1 6.98131 3.79537 6.98155 
40 1 10.0372 0.737526 10.0336 
41 1 8.49736 2.26964 8.49719 
42 1 9.20577 1.56456 9.20423 
7 1 6.18523 6.18638 4.60641 
8 1 7.68854 7.68881 3.0806 
9 1 6.98407 6.98481 3.79572 
43 1 10.0352 10.0356 0.736061 
44 1 8.49843 8.49877 2.26902 
45 1 9.20608 9.20647 1.56326 
22 1 6.24337 6.24316 6.24396 
23 1 7.77776 7.77852 7.77859 
24 1 7.07094 7.07137 7.07163 
34 1 10.1006 10.1012 10.0981 
35 1 8.58865 8.58883 8.58863 
36 1 9.29666 9.29731 9.29566 
ITEM: TIMESTEP
80
ITEM: NUMBER OF ATOMS
49
ITEM: BOX BOUNDS pp pp pp
0.0000000000000000e+00 1.1000000000000000e+01
0.0000000000000000e+00 1.1002000000000001e+01
0.0000000000000000e+00 1.1000000000000000e+01
ITEM: ATOMS id type x y z 
10 1 4.63975 4.63543 4.62078 
11 1 3.07398 3.06482 2.91399 
12 1 3.68975 3.70969 4.00311 
46 1 0.74473 0.743626 0.749489 
47 1 2.25353 2.24957 2.19119 
48 1 1.56516 1.56258 1.53349 
49 2 2.69472 2.79628 4.39437 
19 1 4.54788 4.54788 6.25027 
20 1 3.00062 3.00063 7.7758 
21 1 3.71047 3.71047 7.07592 
31 1 0.670412 0.669602 10.0918 
32 1 2.18665 2.18633 8.587 
33 1 1.47706 1.47655 9.29121 
16 1 4.5462 6.24773 4.5331 
17 1 2.99665 7.77761 2.99853 
18 1 3.70863 7.07469 3.70361 
25 1 0.670434 10.0931 0.669138 
26 1 2.18471 8.58914 2.18585 
27 1 1.47565 9.29351 1.47561 
4 1 4.60483 6.1815 6.18027 
5 1 3.08216 7.68671 7.68681 
6 1 3.79524 6.98177 6.98126 
37 1 0.738962 10.0381 10.0343 
38 1 2.26987 8.4978 8.49736 
39 1 1.56538 9.2066 9.20464 
13 1 6.24925 4.546 4.53227 
14 1 7.77816 2.99569 2.99765 
15 1 7.07563 3.70802 3.70281 
28 1 10.0925 0.668859 0.668566 
29 1 8.5894 2.18342 2.18543 
30 1 9.29335 1.47409 1.47503 
1 1 6.1813 4.60517 6.18098 
2 1 7.68633 3.08209 7.68684 
3 1 6.98138 3.79547 6.98154 
40 1 10.0372 0.73757 10.0337 
41 1 8.4973 2.26957 8.49721 
42 1 9.20593 1.56463 9.20422 
7 1 6.18518 6.18636 4.60642 
8 1 7.68857 7.68886 3.08069 
9 1 6.98406 6.98478 3.79566 
43 1 10.0352 10.0357 0.736106 
44 1 8.49849 8.49885 2.26899 
45 1 9.20602 9.20639 1.5632 
22 1 6.24342 6.24325 6.24391 
23 1 7.77783 7.77862 7.77866 
24 1 7.07098 7.07133 7.07169 
34 1 10.1006 10.1013 10.0981 
35 1 8.58865 8.58892 8.58869 
36 1 9.29681 9.29731 9.29568 
ITEM: TIMESTEP
90
ITEM: NUMBER OF ATOMS
49
ITEM: BOX BOUNDS pp pp pp
0.0000000000000000e+00 1.1000000000000000e+01
0.0000000000000000e+00 1.1002000000000001e+01
0.0000000000000000e+00 1.1000000000000000e+01
ITEM: ATOMS id type x y z 
10 1 4.63301 4.62953 4.62315 
11 1 3.07669 3.06761 2.92124 
12 1 3.67297 3.69559 4.03144 
46 1 0.747358 0.746495 0.75201 
47 1 2.26662 2.26111 2.17406 
48 1 1.57385 1.56989 1.52388 
49 2 2.66987 2.77331 4.38746 
19 1 4.54985 4.54916 6.25181 
20 1 3.00183 3.00111 7.7768 
21 1 3.71064 3.71175 7.07701 
31 1 0.67112 0.671076 10.0942 
32 1 2.18508 2.1863 8.58465 
33 1 1.47939 1.47613 9.29228 
16 1 4.54594 6.24364 4.53139 
17 1 2.99821 7.77815 2.99856 
18 1 3.7069 7.07229 3.70324 
25 1 0.671353 10.0971 0.669306 
26 1 2.18421 8.58844 2.18533 
27 1 1.47469 9.29234 1.47538 
4 1 4.60557 6.18383 6.17677 
5 1 3.08169 7.68557 7.68632 
6 1 3.79798 6.98359 6.98082 
37 1 0.740772 10.0401 10.0349 
38 1 2.26958 8.49745 8.49691 
39 1 1.56622 9.20709 9.20487 
13 1 6.24456 4.5449 4.53042 
14 1 7.77844 2.99586 2.99781 
15 1 7.07465 3.7084 3.70166 
28 1 10.0957 0.669482 0.669137 
29 1 8.58796 2.18175 2.18446 
30 1 9.29425 1.47437 1.4748 
1 1 6.18358 4.60677 6.17755 
2 1 7.68549 3.08206 7.68673 
3 1 6.98329 3.79686 6.9806 
40 1 10.0392 0.739544 10.0344 
41 1 8.49718 2.26958 8.49687 
42 1 9.2057 1.56516 9.20441 
7 1 6.18403 6.18485 4.60624 
8 1 7.68888 7.68934 3.08148 
9 1 6.98472 6.98532 3.79642 
43 1 10.0369 10.0373 0.735949 
44 1 8.49889 8.49919 2.26778 
45 1 9.20661 9.20701 1.56321 
22 1 6.24431 6.24433 6.24275 
23 1 7.77821 7.77896 7.78017 
24 1 7.07235 7.07238 7.07115 
34 1 10.1026 10.1032 10.0985 
35 1 8.58964 8.59049 8.58979 
36 1 9.29845 9.29823 9.29697 
ITEM: TIMESTEP
100
ITEM: NUMBER OF ATOMS
49
ITEM: BOX BOUNDS pp pp pp
0.0000000000000000e+00 1.1000000000000000e+01
0.0000000000000000e+00 1.1002000000000001e+01
0.0000000000000000e+00 1.1000000000000000e+01
ITEM: ATOMS id type x y z 
10 1 4.6326 4.62884 4.62381 
11 1 3.07654 3.06755 2.92164 
12 1 3.67182 3.69462 4.03337 
46 1 0.74763 0.746649 0.751501 
47 1 2.26783 2.26184 2.17168 
48 1 1.57448 1.57077 1.52395 
49 2 2.66805 2.77167 4.38738 
19 1 4.54961 4.54952 6.25182 
20 1 3.00149 3.00153 7.77669 
21 1 3.71159 3.71136 7.07731 
31 1 0.671863 0.670926 10.0949 
32 1 2.18599 2.18574 8.58508 
33 1 1.47759 1.47705 9.29143 
16 1 4.54493 6.24266 4.53138 
17 1 2.99745 7.77772 2.99884 
18 1 3.7084 7.07269 3.70272 
25 1 0.671376 10.0967 0.669524 
26 1 2.18353 8.58764 2.18504 
27 1 1.47572 9.29397 1.47566 
4 1 4.60644 6.18438 6.17699 
5 1 3.08267 7.68604 7.68678 
6 1 3.79618 6.98291 6.97984 
37 1 0.740974 10.0402 10.035 
38 1 2.26952 8.49741 8.49701 
39 1 1.56637 9.20712 9.2047 
13 1 6.2441 4.54488 4.53015 
14 1 7.77851 2.99649 2.99798 
15 1 7.07374 3.70779 3.70175 
28 1 10.0962 0.67004 0.668931 
29 1 8.58792 2.18193 2.18447 
30 1 9.29401 1.47411 1.47496 
1 1 6.1842 4.60693 6.1773 
2 1 7.68574 3.08255 7.68679 
3 1 6.98275 3.79625 6.98009 
40 1 10.0392 0.739475 10.0346 
41 1 8.49712 2.26914 8.49721 
42 1 9.20639 1.56538 9.20448 
7 1 6.18419 6.18472 4.60601 
8 1 7.6891 7.6896 3.08198 
9 1 6.98429 6.98483 3.79571 
43 1 10.037 10.0374 0.73613 
44 1 8.49884 8.49917 2.2679 
45 1 9.20668 9.20704 1.56299 
22 1 6.24473 6.24461 6.24239 
23 1 7.77858 7.7792 7.78003 
24 1 7.07219 7.07247 7.07192 
34 1 10.1028 10.1035 10.0986 
35 1 8.5898 8.59021 8.5901 
36 1 9.29826 9.29886 9.29649 
ITEM: TIMESTEP
110
ITEM: NUMBER OF ATOMS
49
ITEM: BOX BOUNDS pp pp pp
0.0000000000000000e+00 1.1000000000000000e+01
0.0000000000000000e+00 1.1002000000000001e+01
0.0000000000000000e+00 1.1000000000000000e+01
ITEM: ATOMS id type x y z 
10 1 4.63255 4.62879 4.62383 
11 1 3.07654 3.06755 2.92168 
12 1 3.67174 3.69455 4.03348 
46 1 0.747658 0.746669 0.751514 
47 1 2.26791 2.2619 2.17158 
48 1 1.57455 1.57084 1.52393 
49 2 2.66796 2.77158 4.38736 
19 1 4.54965 4.54949 6.25184 
20 1 3.00151 3.00147 7.7767 
21 1 3.71154 3.71145 7.07735 
31 1 0.671876 0.670932 10.0949 
32 1 2.18598 2.18574 8.58507 
33 1 1.47761 1.47703 9.29144 
16 1 4.54496 6.24266 4.53134 
17 1 2.9975 7.77775 2.99881 
18 1 3.70831 7.07262 3.70276 
25 1 0.671384 10.0966 0.669526 
26 1 2.18352 8.58764 2.18504 
27 1 1.47572 9.29397 1.47566 
4 1 4.60648 6.18442 6.17698 
5 1 3.08268 7.68603 7.68677 
6 1 3.79617 6.98292 6.97984 
37 1 0.741001 10.0402 10.0351 
38 1 2.26954 8.49739 8.49707 
39 1 1.56632 9.20718 9.20461 
13 1 6.24409 4.54489 4.53013 
14 1 7.77853 2.99652 2.99797 
15 1 7.07368 3.70774 3.70176 
28 1 10.0962 0.670027 0.668945 
29 1 8.58789 2.18193 2.18447 
30 1 9.29405 1.47413 1.47496 
1 1 6.18424 4.60698 6.17729 
2 1 7.68574 3.08255 7.6868 
3 1 6.98276 3.79626 6.98006 
40 1 10.0392 0.739456 10.0346 
41 1 8.49706 2.26912 8.49721 
42 1 9.20649 1.56544 9.20446 
7 1 6.18418 6.18471 4.60602 
8 1 7.6891 7.68961 3.08197 
9 1 6.9843 6.98482 3.79573 
43 1 10.037 10.0374 0.73613 
44 1 8.49884 8.49918 2.26789 
45 1 9.2067 9.20705 1.56297 
22 1 6.24473 6.2446 6.24237 
23 1 7.77855 7.77916 7.78002 
24 1 7.0722 7.07248 7.0719 
34 1 10.1028 10.1035 10.0986 
35 1 8.58979 8.59025 8.5901 
36 1 9.2983 9.29881 9.29649 
ITEM: TIMESTEP
118
ITEM: NUMBER OF ATOMS
49
ITEM: BOX BOUNDS pp pp pp
0.0000000000000000e+00 1.1000000000000000e+01
0.0000000000000000e+00 1.1002000000000001e+01
0.0000000000000000e+00 1.1000000000000000e+01
ITEM: ATOMS id type x y z 
10 1 4.63253 4.62878 4.62383 
11 1 3.07654 3.06755 2.92169 
12 1 3.67172 3.69454 4.0335 
46 1 0.747661 0.746673 0.751517 
47 1 2.26792 2.26191 2.17156 
48 1 1.57457 1.57085 1.52392 
49 2 2.66793 2.77156 4.38736 
19 1 4.54965 4.54949 6.25184 
20 1 3.00151 3.00147 7.7767 
21 1 3.71154 3.71145 7.07735 
31 1 0.671879 0.670934 10.0949 
32 1 2.18598 2.18574 8.58507 
33 1 1.47761 1.47703 9.29144 
16 1 4.54496 6.24265 4.53134 
17 1 2.9975 7.77775 2.99881 
18 1 3.70831 7.07262 3.70276 
25 1 0.671386 10.0966 0.669527 
26 1 2.18352 8.58764 2.18504 
27 1 1.47572 9.29397 1.47566 
4 1 4.60649 6.18442 6.17698 
5 1 3.08268 7.68603 7.68677 
6 1 3.79617 6.98293 6.97984 
37 1 0.741001 10.0402 10.0351 
38 1 2.26953 8.4974 8.49707 
39 1 1.56633 9.20717 9.20463 
13 1 6.24408 4.54489 4.53013 
14 1 7.77853 2.99651 2.99797 
15 1 7.07369 3.70775 3.70176 
28 1 10.0962 0.670036 0.66895 
29 1 8.5879 2.18194 2.18447 
30 1 9.29403 1.47412 1.47496 
1 1 6.18424 4.60698 6.17729 
2 1 7.68574 3.08254 7.6868 
3 1 6.98276 3.79627 6.98006 
40 1 10.0392 0.739463 10.0346 
41 1 8.49706 2.26913 8.49721 
42 1 9.20648 1.56543 9.20446 
7 1 6.18418 6.18471 4.60602 
8 1 7.68911 7.68961 3.08197 
9 1 6.9843 6.98482 3.79574 
43 1 10.037 10.0374 0.736129 
44 1 8.49885 8.49918 2.26789 
45 1 9.2067 9.20706 1.56297 
22 1 6.24473 6.2446 6.24237 
23 1 7.77854 7.77916 7.78001 
24 1 7.0722 7.07248 7.07191 
34 1 10.1028 10.1035 10.0986 
35 1 8.5898 8.59024 8.59011 
36 1 9.29828 9.29883 9.29649 
ITEM: TIMESTEP
119
ITEM: NUMBER OF ATOMS
49
ITEM: BOX BOUNDS pp pp pp
0.0000000000000000e+00 1.1000000000000000e+01
0.0000000000000000e+00 1.1002000000000001e+01
0.0000000000000000e+00 1.1000000000000000e+01
ITEM: ATOMS id type x y z 
10 1 4.63253 4.62878 4.62383 
11 1 3.07654 3.06755 2.92169 
12 1 3.67172 3.69454 4.0335 
46 1 0.74766 0.746673 0.751518 
47 1 2.26792 2.26191 2.17156 
48 1 1.57457 1.57085 1.52392 
49 2 2.66793 2.77156 4.38736 
19 1 4.54965 4.54949 6.25184 
20 1 3.00151 3.00147 7.7767 
21 1 3.71154 3.71145 7.07735 
31 1 0.67188 0.670933 10.0949 
32 1 2.18598 2.18574 8.58507 
33 1 1.47761 1.47703 9.29144 
16 1 4.54496 6.24265 4.53134 
17 1 2.9975 7.77775 2.99881 
18 1 3.70831 7.07262 3.70276 
25 1 0.671385 10.0966 0.669527 
26 1 2.18352 8.58764 2.18504 
27 1 1.47572 9.29397 1.47566 
4 1 4.60649 6.18442 6.17698 
5 1 3.08268 7.68603 7.68677 
6 1 3.79617 6.98293 6.97984 
37 1 0.741001 10.0402 10.0351 
38 1 2.26953 8.4974 8.49707 
39 1 1.56633 9.20717 9.20463 
13 1 6.24408 4.54489 4.53013 
14 1 7.77853 2.99651 2.99797 
15 1 7.07368 3.70775 3.70176 
28 1 10.0962 0.670036 0.66895 
29 1 8.5879 2.18194 2.18447 
30 1 9.29403 1.47412 1.47496 
1 1 6.18424 4.60698 6.17729 
2 1 7.68574 3.08254 7.6868 
3 1 6.98276 3.79627 6.98006 
40 1 10.0392 0.739463 10.0346 
41 1 8.49706 2.26913 8.49721 
42 1 9.20648 1.56543 9.20446 
7 1 6.18418 6.18471 4.60602 
8 1 7.6891 7.68961 3.08197 
9 1 6.9843 6.98482 3.79574 
43 1 10.037 10.0374 0.736129 
44 1 8.49885 8.49918 2.26789 
45 1 9.2067 9.20706 1.56297 
22 1 6.24473 6.2446 6.24237 
23 1 7.77854 7.77916 7.78001 
24 1 7.0722 7.07248 7.07191 
34 1 10.1028 10.1035 10.0986 
35 1 8.5898 8.59024 8.59011 
36 1 9.29828 9.29883 9.29649 
ITEM: TIMESTEP
120
ITEM: NUMBER OF ATOMS
49
ITEM: BOX BOUNDS pp pp pp
-5.4820230568710889e-04 1.1000548202305687e+01
-5.4759736714499641e-04 1.1002547597367146e+01
-5.4999999999999992e-04 1.1000550000000000e+01
ITEM: ATOMS id type x y z 
10 1 4.63245 4.6287 4.62374 
11 1 3.07629 3.06731 2.92143 
12 1 3.67154 3.69436 4.03335 
46 1 0.747187 0.7462 0.751043 
47 1 2.2676 2.26159 2.17122 
48 1 1.57418 1.57046 1.52352 
49 2 2.66765 2.77129 4.38725 
19 1 4.54956 4.5494 6.25192 
20 1 3.00126 3.00122 7.77693 
21 1 3.71136 3.71127 7.0775 
31 1 0.671399 0.670452 10.0953 
32 1 2.18565 2.18541 8.58538 
33 1 1.4772 1.47663 9.29182 
16 1 4.54486 6.24272 4.53124 
17 1 2.99725 7.77798 2.99856 
18 1 3.70813 7.07278 3.70258 
25 1 0.670905 10.0971 0.669044 
26 1 2.18319 8.58794 2.18471 
27 1 1.47532 9.29435 1.47525 
4 1 4.6064 6.18449 6.17705 
5 1 3.08244 7.68625 7.68699 
6 1 3.79601 6.98308 6.97999 
37 1 0.740527 10.0407 10.0355 
38 1 2.26921 8.4977 8.49737 
39 1 1.56593 9.20754 9.205 
13 1 6.24415 4.54479 4.53003 
14 1 7.77875 2.99626 2.99772 
15 1 7.07384 3.70757 3.70158 
28 1 10.0967 0.669556 0.668467 
29 1 8.58821 2.18161 2.18414 
30 1 9.29441 1.47371 1.47456 
1 1 6.18431 4.60689 6.17736 
2 1 7.68596 3.0823 7.68701 
3 1 6.9829 3.7961 6.98021 
40 1 10.0396 0.738989 10.035 
41 1 8.49736 2.26881 8.49751 
42 1 9.20685 1.56504 9.20483 
7 1 6.18425 6.18478 4.60594 
8 1 7.68932 7.68983 3.08173 
9 1 6.98445 6.98497 3.79556 
43 1 10.0374 10.0378 0.735653 
44 1 8.49915 8.49948 2.26756 
45 1 9.20707 9.20742 1.56258 
22 1 6.2448 6.24468 6.24244 
23 1 7.77877 7.77939 7.78024 
24 1 7.07236 7.07263 7.07206 
34 1 10.1033 10.1039 10.0991 
35 1 8.59011 8.59055 8.59041 
36 1 9.29866 9.2992 9.29687 
ITEM: TIMESTEP
130
ITEM: NUMBER OF ATOMS
49
ITEM: BOX BOUNDS pp pp pp
-3.9507830060953762e-03 1.1003950783006095e+01
-3.9650820311242169e-03 1.1005965082031127e+01
-5.3794944590636693e-03 1.1005379494459069e+01
ITEM: ATOMS id type x y z 
10 1 4.6323 4.62855 4.62344 
11 1 3.0748 3.06581 2.91928 
12 1 3.67032 3.69316 4.03224 
46 1 0.743946 0.742968 0.746545 
47 1 2.26558 2.25959 2.1681 
48 1 1.57135 1.56755 1.51949 
49 2 2.66582 2.76952 4.38622 
19 1 4.54934 4.54915 6.25222 
20 1 2.9999 2.99984 7.77877 
21 1 3.7105 3.71044 7.07863 
31 1 0.668009 0.667022 10.0998 
32 1 2.18347 2.18321 8.58816 
33 1 1.47486 1.4743 9.29508 
16 1 4.5446 6.24279 4.53071 
17 1 2.99589 7.77923 2.99654 
18 1 3.70723 7.07347 3.70122 
25 1 0.667502 10.1004 0.664389 
26 1 2.181 8.58994 2.18167 
27 1 1.473 9.29664 1.47188 
4 1 4.60633 6.18452 6.17726 
5 1 3.0811 7.6875 7.6888 
6 1 3.79476 6.98411 6.98138 
37 1 0.737263 10.0438 10.0399 
38 1 2.26703 8.49973 8.5002 
39 1 1.56326 9.21009 9.20846 
13 1 6.24419 4.54452 4.52947 
14 1 7.77999 2.9949 2.99568 
15 1 7.07456 3.70667 3.70025 
28 1 10.1 0.666138 0.663814 
29 1 8.59019 2.17942 2.1811 
30 1 9.2967 1.47137 1.47119 
1 1 6.18434 4.60677 6.17752 
2 1 7.68721 3.0809 7.68879 
3 1 6.98393 3.79495 6.98169 
40 1 10.0428 0.735713 10.0394 
41 1 8.4994 2.26664 8.5003 
42 1 9.20935 1.56235 9.20833 
7 1 6.18426 6.1848 4.60559 
8 1 7.69058 7.6911 3.07976 
9 1 6.98548 6.98599 3.79388 
43 1 10.0406 10.041 0.731144 
44 1 8.5012 8.50152 2.26455 
45 1 9.20958 9.20999 1.55887 
22 1 6.24492 6.2448 6.24275 
23 1 7.77997 7.7806 7.78206 
24 1 7.07312 7.07339 7.07319 
34 1 10.1065 10.1072 10.1036 
35 1 8.59212 8.59263 8.59325 
36 1 9.30092 9.30137 9.30007 
ITEM: TIMESTEP
140
ITEM: NUMBER OF ATOMS
49
ITEM: BOX BOUNDS pp pp pp
-5.6628104298036700e-03 1.1005662810429804e+01
-5.7309733296004774e-03 1.1007730973329602e+01
-1.0148700657810214e-02 1.1010148700657821e+01
ITEM: ATOMS id type x y z 
10 1 4.63278 4.62903 4.62365 
11 1 3.07409 3.0651 2.91737 
12 1 3.66956 3.69242 4.03136 
46 1 0.741924 0.740868 0.74177 
47 1 2.26447 2.25835 2.16458 
48 1 1.56951 1.56571 1.51522 
49 2 2.66482 2.76853 4.38515 
19 1 4.54978 4.54959 6.25212 
20 1 2.99975 2.99968 7.78016 
21 1 3.71021 3.7101 7.07976 
31 1 0.665681 0.664632 10.1046 
32 1 2.18222 2.18194 8.59107 
33 1 1.47386 1.47325 9.29806 
16 1 4.54497 6.24215 4.53053 
17 1 2.99574 7.77933 2.99499 
18 1 3.70691 7.0737 3.69987 
25 1 0.665184 10.1027 0.659366 
26 1 2.17976 8.59117 2.17858 
27 1 1.47199 9.29754 1.46864 
4 1 4.60692 6.18389 6.17698 
5 1 3.08051 7.68797 7.69042 
6 1 3.79407 6.98492 6.98302 
37 1 0.735072 10.046 10.0445 
38 1 2.26539 8.50134 8.50341 
39 1 1.56182 9.21151 9.21197 
13 1 6.24354 4.54487 4.52931 
14 1 7.7801 2.99473 2.99415 
15 1 7.07473 3.70631 3.69887 
28 1 10.1022 0.663756 0.658804 
29 1 8.59138 2.17816 2.17803 
30 1 9.29755 1.47033 1.46795 
1 1 6.18373 4.60741 6.1773 
2 1 7.68767 3.08035 7.69047 
3 1 6.98469 3.79413 6.98321 
40 1 10.0449 0.733484 10.044 
41 1 8.50093 2.26499 8.50352 
42 1 9.21077 1.56085 9.21179 
7 1 6.18361 6.18415 4.60564 
8 1 7.69104 7.69157 3.07787 
9 1 6.98624 6.98678 3.79217 
43 1 10.0427 10.0432 0.726284 
44 1 8.50274 8.50314 2.2611 
45 1 9.21104 9.2114 1.55522 
22 1 6.24445 6.24433 6.24263 
23 1 7.78004 7.78069 7.78338 
24 1 7.07336 7.07365 7.07432 
34 1 10.1089 10.1096 10.1084 
35 1 8.59333 8.59384 8.59616 
36 1 9.30181 9.30233 9.30308 
ITEM: TIMESTEP
150
ITEM: NUMBER OF ATOMS
49
ITEM: BOX BOUNDS pp pp pp
-6.6231194450387240e-03 1.1006623119445038e+01
-6.7701432776926746e-03 1.1008770143277694e+01
-1.4083340480547404e-02 1.1014083340480560e+01
ITEM: ATOMS id type x y z 
10 1 4.63333 4.62958 4.62402 
11 1 3.07376 3.06474 2.91604 
12 1 3.66902 3.69189 4.03076 
46 1 0.74055 0.739399 0.737666 
47 1 2.26366 2.25747 2.16128 
48 1 1.56838 1.56451 1.51168 
49 2 2.66422 2.76793 4.38422 
19 1 4.55043 4.55021 6.25187 
20 1 3.00008 2.99997 7.78108 
21 1 3.71006 3.70993 7.08074 
31 1 0.66402 0.662865 10.1086 
32 1 2.18147 2.1811 8.59354 
33 1 1.47337 1.47274 9.30039 
16 1 4.54554 6.24138 4.53057 
17 1 2.99606 7.77904 2.99394 
18 1 3.70674 7.07374 3.69871 
25 1 0.663528 10.1043 0.65507 
26 1 2.17899 8.59201 2.17603 
27 1 1.47151 9.29786 1.46598 
4 1 4.60768 6.1832 6.17659 
5 1 3.08029 7.68817 7.69174 
6 1 3.79353 6.98551 6.98438 
37 1 0.733481 10.0476 10.0485 
38 1 2.26408 8.50267 8.50631 
39 1 1.56097 9.21238 9.21482 
13 1 6.24273 4.5454 4.52933 
14 1 7.77977 2.99502 2.99309 
15 1 7.07476 3.7061 3.69773 
28 1 10.1037 0.661979 0.654478 
29 1 8.59209 2.17731 2.17545 
30 1 9.29795 1.46988 1.46538 
1 1 6.18305 4.60814 6.17691 
2 1 7.68785 3.0801 7.69178 
3 1 6.98524 3.79359 6.98459 
40 1 10.0465 0.731823 10.0481 
41 1 8.50217 2.26365 8.50642 
42 1 9.21163 1.55996 9.21459 
7 1 6.18284 6.18344 4.60586 
8 1 7.69121 7.69182 3.07639 
9 1 6.98681 6.98729 3.79062 
43 1 10.0443 10.0448 0.722083 
44 1 8.50405 8.50444 2.25804 