ITEM: TIMESTEP
0
ITEM: NUMBER OF ATOMS
49
ITEM: BOX BOUNDS pp pp pp
0.0000000000000000e+00 1.1000000000000000e+01
0.0000000000000000e+00 1.1002000000000001e+01
0.0000000000000000e+00 1.1000000000000000e+01
ITEM: ATOMS id type x y z 
10 1 4.603 4.603 4.603 
11 1 3.085 3.085 3.085 
12 1 3.796 3.796 3.796 
46 1 0.726 0.725 0.725 
47 1 2.26 2.259 2.26 
48 1 1.551 1.55 1.55 
49 2 1.268 1.188 2.55 
19 1 4.546 4.545 6.226 
20 1 3.013 3.013 7.764 
21 1 3.721 3.721 7.053 
31 1 0.668 0.667 10.103 
32 1 2.187 2.187 8.589 
33 1 1.476 1.475 9.298 
16 1 4.546 6.225 4.546 
17 1 3.013 7.765 3.013 
18 1 3.721 7.053 3.722 
25 1 0.668 10.103 0.668 
26 1 2.188 8.589 2.188 
27 1 1.476 9.298 1.476 
4 1 4.608 6.169 6.169 
5 1 3.086 7.684 7.684 
6 1 3.799 6.974 6.974 
37 1 0.729 10.046 10.046 
38 1 2.259 8.509 8.508 
39 1 1.552 9.219 9.219 
13 1 6.225 4.546 4.546 
14 1 7.764 3.013 3.013 
15 1 7.053 3.721 3.722 
28 1 10.102 0.667 0.668 
29 1 8.589 2.187 2.188 
30 1 9.298 1.475 1.476 
1 1 6.168 4.608 6.169 
2 1 7.684 3.086 7.684 
3 1 6.974 3.799 6.974 
40 1 10.045 0.728 10.046 
41 1 8.508 2.259 8.508 
42 1 9.218 1.551 9.218 
7 1 6.169 6.169 4.608 
8 1 7.684 7.684 3.086 
9 1 6.974 6.974 3.799 
43 1 10.046 10.047 0.729 
44 1 8.508 8.509 2.259 
45 1 9.219 9.219 1.552 
22 1 6.229 6.229 6.229 
23 1 7.764 7.765 7.765 
24 1 7.055 7.056 7.055 
34 1 10.108 10.108 10.107 
35 1 8.59 8.59 8.59 
36 1 9.301 9.301 9.3 
ITEM: TIMESTEP
10
ITEM: NUMBER OF ATOMS
49
ITEM: BOX BOUNDS pp pp pp
0.0000000000000000e+00 1.1000000000000000e+01
0.0000000000000000e+00 1.1002000000000001e+01
0.0000000000000000e+00 1.1000000000000000e+01
ITEM: ATOMS id type x y z 
10 1 4.59494 4.59233 4.59881 
11 1 3.10981 3.10839 3.08151 
12 1 3.81565 3.81897 3.80703 
46 1 0.718656 0.718738 0.692028 
47 1 2.33311 2.3348 2.30757 
48 1 1.57561 1.57787 1.5191 
49 2 1.20324 1.11434 2.63266 
19 1 4.53791 4.53841 6.24464 
20 1 3.00236 3.00355 7.77221 
21 1 3.71022 3.70814 7.0688 
31 1 0.669756 0.670061 10.0741 
32 1 2.19832 2.1977 8.5883 
33 1 1.482 1.48203 9.27059 
16 1 4.537 6.2446 4.53897 
17 1 3.00155 7.77377 3.00368 
18 1 3.70996 7.06961 3.70696 
25 1 0.668821 10.0803 0.671365 
26 1 2.19701 8.59023 2.19675 
27 1 1.48088 9.2733 1.48177 
4 1 4.60064 6.17396 6.17438 
5 1 3.0831 7.68656 7.68551 
6 1 3.79021 6.98357 6.98528 
37 1 0.734896 10.0266 10.0294 
38 1 2.27211 8.49904 8.49644 
39 1 1.56561 9.19917 9.20243 
13 1 6.24378 4.53745 4.53899 
14 1 7.77233 3.00148 3.0034 
15 1 7.06948 3.71096 3.70856 
28 1 10.079 0.667642 0.669578 
29 1 8.58958 2.19646 2.19698 
30 1 9.27324 1.48031 1.48235 
1 1 6.17406 4.60162 6.17414 
2 1 7.68658 3.08475 7.6864 
3 1 6.98306 3.78739 6.98337 
40 1 10.0254 0.733493 10.0297 
41 1 8.4988 2.2711 8.49765 
42 1 9.1993 1.56407 9.20151 
7 1 6.17436 6.17392 4.60068 
8 1 7.68522 7.68656 3.08349 
9 1 6.98569 6.98336 3.78959 
43 1 10.0317 10.0323 0.736356 
44 1 8.49818 8.49853 2.27176 
45 1 9.20034 9.20136 1.56515 
22 1 6.23735 6.23793 6.23627 
23 1 7.77353 7.775 7.77293 
24 1 7.06843 7.06829 7.07117 
34 1 10.0991 10.1023 10.0993 
35 1 8.58596 8.58796 8.58708 
36 1 9.29227 9.28878 9.28936 
ITEM: TIMESTEP
20
ITEM: NUMBER OF ATOMS
49
ITEM: BOX BOUNDS pp pp pp
0.0000000000000000e+00 1.1000000000000000e+01
0.0000000000000000e+00 1.1002000000000001e+01
0.0000000000000000e+00 1.1000000000000000e+01
ITEM: ATOMS id type x y z 
10 1 4.60809 4.60675 4.61315 
11 1 3.12342 3.12437 3.07676 
12 1 3.82934 3.82926 3.80531 
46 1 0.721084 0.719996 0.694396 
47 1 2.34884 2.35495 2.25823 
48 1 1.5822 1.58481 1.54428 
49 2 1.1251 1.0315 2.63694 
19 1 4.54162 4.54114 6.25575 
20 1 3.00245 3.00182 7.77232 
21 1 3.71084 3.71217 7.07143 
31 1 0.666427 0.666489 10.0795 
32 1 2.19317 2.19211 8.58613 
33 1 1.47946 1.48014 9.28259 
16 1 4.54133 6.25466 4.54199 
17 1 3.00102 7.77481 3.00043 
18 1 3.71047 7.07184 3.71206 
25 1 0.667632 10.0891 0.668972 
26 1 2.19183 8.58731 2.19172 
27 1 1.47932 9.28747 1.48071 
4 1 4.60166 6.17698 6.17566 
5 1 3.08521 7.68524 7.68653 
6 1 3.79313 6.98018 6.97671 
37 1 0.732089 10.023 10.0292 
38 1 2.27382 8.49618 8.49603 
39 1 1.56371 9.20188 9.20152 
13 1 6.25464 4.54198 4.54176 
14 1 7.774 3.00197 3.00126 
15 1 7.07038 3.70932 3.71212 
28 1 10.0877 0.666427 0.668178 
29 1 8.58756 2.19086 2.19198 
30 1 9.28644 1.47905 1.48002 
1 1 6.17676 4.60098 6.17435 
2 1 7.68491 3.08393 7.68569 
3 1 6.98092 3.79525 6.97882 
40 1 10.0217 0.730487 10.0285 
41 1 8.49771 2.27006 8.4978 
42 1 9.20001 1.56569 9.20065 
7 1 6.17641 6.17483 4.60056 
8 1 7.68628 7.6854 3.08526 
9 1 6.97722 6.97941 3.79256 
43 1 10.0297 10.0306 0.736218 
44 1 8.49741 8.49777 2.27113 
45 1 9.20183 9.20241 1.56636 
22 1 6.23923 6.23931 6.23973 
23 1 7.77275 7.77345 7.77327 
24 1 7.06767 7.06819 7.06801 
34 1 10.099 10.0991 10.097 
35 1 8.58546 8.58443 8.5848 
36 1 9.29099 9.29388 9.29172 
ITEM: TIMESTEP
30
ITEM: NUMBER OF ATOMS
49
ITEM: BOX BOUNDS pp pp pp
0.0000000000000000e+00 1.1000000000000000e+01
0.0000000000000000e+00 1.1002000000000001e+01
0.0000000000000000e+00 1.1000000000000000e+01
ITEM: ATOMS id type x y z 
10 1 4.61382 4.61246 4.61719 
11 1 3.12128 3.12662 3.06795 
12 1 3.82719 3.82624 3.80223 
46 1 0.73164 0.733078 0.674759 
47 1 2.37463 2.38287 2.19708 
48 1 1.53864 1.53209 1.65899 
49 2 1.1111 1.01842 2.6138 
19 1 4.54359 4.5433 6.25776 
20 1 3.00095 3.00161 7.7728 
21 1 3.71215 3.71206 7.07477 
31 1 0.668446 0.66741 10.0828 
32 1 2.191 2.19023 8.58471 
33 1 1.4801 1.47924 9.28417 
16 1 4.54262 6.25791 4.54205 
17 1 2.99896 7.77549 2.99972 
18 1 3.71084 7.07561 3.71096 
25 1 0.667078 10.1005 0.667513 
26 1 2.18646 8.5892 2.18715 
27 1 1.47808 9.29449 1.47756 
4 1 4.6011 6.17714 6.17508 
5 1 3.08368 7.68729 7.68591 
6 1 3.79491 6.97995 6.98095 
37 1 0.729641 10.0179 10.0292 
38 1 2.27353 8.49769 8.49567 
39 1 1.56173 9.19862 9.20247 
13 1 6.25718 4.54305 4.54251 
14 1 7.77459 2.99902 2.99955 
15 1 7.07591 3.71029 3.71075 
28 1 10.099 0.665618 0.667665 
29 1 8.5883 2.1863 2.18804 
30 1 9.29348 1.47778 1.4786 
1 1 6.17754 4.60193 6.17482 
2 1 7.68629 3.08544 7.68561 
3 1 6.97887 3.79241 6.97873 
40 1 10.0162 0.728789 10.0282 
41 1 8.49735 2.27353 8.49582 
42 1 9.19798 1.56094 9.20284 
7 1 6.17493 6.17467 4.60037 
8 1 7.68535 7.68668 3.08406 
9 1 6.98095 6.97862 3.79442 
43 1 10.0316 10.0327 0.736192 
44 1 8.49709 8.49803 2.27172 
45 1 9.20327 9.20326 1.56297 
22 1 6.24125 6.24181 6.24035 
23 1 7.77521 7.77629 7.77624 
24 1 7.06773 7.06843 7.06743 
34 1 10.0984 10.0986 10.0987 
35 1 8.58429 8.58559 8.58519 
36 1 9.2941 9.29177 9.29196 
ITEM: TIMESTEP
40
ITEM: NUMBER OF ATOMS
49
ITEM: BOX BOUNDS pp pp pp
0.0000000000000000e+00 1.1000000000000000e+01
0.0000000000000000e+00 1.1002000000000001e+01
0.0000000000000000e+00 1.1000000000000000e+01
ITEM: ATOMS id type x y z 
10 1 4.61325 4.61254 4.61629 
11 1 3.12433 3.12857 3.05175 
12 1 3.82578 3.82711 3.79029 
46 1 0.737037 0.739078 0.669837 
47 1 2.37996 2.39141 2.17688 
48 1 1.51658 1.50466 1.70869 
49 2 1.10314 1.00947 2.63303 
19 1 4.54421 4.54387 6.25552 
20 1 3.00232 3.00266 7.77331 
21 1 3.71257 3.71283 7.07322 
31 1 0.669115 0.668836 10.0832 
32 1 2.19028 2.18952 8.58333 
33 1 1.47969 1.47903 9.28396 
16 1 4.54325 6.2551 4.54302 
17 1 2.99892 7.7767 2.99958 
18 1 3.70945 7.07646 3.7096 
25 1 0.668922 10.1107 0.666122 
26 1 2.18366 8.5902 2.18506 
27 1 1.47799 9.29842 1.47681 
4 1 4.60197 6.17989 6.17381 
5 1 3.08503 7.6862 7.6862 
6 1 3.79515 6.98116 6.97833 
37 1 0.728542 10.0156 10.0305 
38 1 2.27298 8.49787 8.49571 
39 1 1.56033 9.19809 9.2041 
13 1 6.25531 4.54308 4.54307 
14 1 7.77554 2.99933 3.00004 
15 1 7.07615 3.70958 3.70969 
28 1 10.1084 0.668194 0.666385 
29 1 8.58992 2.183 2.18518 
30 1 9.2977 1.47676 1.47726 
1 1 6.17912 4.60236 6.17325 
2 1 7.68575 3.08417 7.6864 
3 1 6.98186 3.79488 6.97783 
40 1 10.0142 0.726919 10.0294 
41 1 8.49678 2.27384 8.49539 
42 1 9.19701 1.55965 9.20361 
7 1 6.17501 6.17481 4.5999 
8 1 7.6863 7.68662 3.08439 
9 1 6.97969 6.97943 3.79321 
43 1 10.0349 10.0349 0.737977 
44 1 8.49737 8.49729 2.26905 
45 1 9.20522 9.20685 1.56597 
22 1 6.24183 6.24219 6.24048 
23 1 7.77428 7.77544 7.77495 
24 1 7.06762 7.0681 7.06768 
34 1 10.0972 10.0972 10.0978 
35 1 8.58542 8.58566 8.58533 
36 1 9.29306 9.29279 9.29353 
ITEM: TIMESTEP
50
ITEM: NUMBER OF ATOMS
49
ITEM: BOX BOUNDS pp pp pp
0.0000000000000000e+00 1.1000000000000000e+01
0.0000000000000000e+00 1.1002000000000001e+01
0.0000000000000000e+00 1.1000000000000000e+01
ITEM: ATOMS id type x y z 
10 1 4.60638 4.60467 4.60414 
11 1 3.13524 3.13585 2.98754 
12 1 3.81677 3.82759 3.75167 
46 1 0.751427 0.75476 0.681333 
47 1 2.37333 2.38905 2.14352 
48 1 1.47866 1.45791 1.79784 
49 2 1.06928 0.969948 2.71407 
19 1 4.54366 4.54402 6.24256 
20 1 3.0048 3.00639 7.77138 
21 1 3.7171 3.71623 7.07286 
31 1 0.67509 0.673946 10.0935 
32 1 2.19011 2.1875 8.57707 
33 1 1.48011 1.48194 9.28311 
16 1 4.54216 6.24633 4.53828 
17 1 2.99659 7.77885 2.99851 
18 1 3.70714 7.07859 3.7069 
25 1 0.678927 10.1365 0.66553 
26 1 2.1804 8.59123 2.18007 
27 1 1.47916 9.31173 1.47999 
4 1 4.60425 6.18227 6.16722 
5 1 3.08627 7.68809 7.68647 
6 1 3.79444 6.98344 6.97759 
37 1 0.727312 10.0196 10.0336 
38 1 2.26909 8.49681 8.49924 
39 1 1.55789 9.19919 9.20543 
13 1 6.24808 4.54265 4.53537 
14 1 7.77832 2.99713 2.99848 
15 1 7.07753 3.70728 3.70697 
28 1 10.1342 0.680091 0.664735 
29 1 8.59178 2.18015 2.18012 
30 1 9.30875 1.47615 1.48094 
1 1 6.17869 4.60384 6.16725 
2 1 7.68963 3.08483 7.68705 
3 1 6.97976 3.79327 6.98111 
40 1 10.0176 0.723899 10.033 
41 1 8.49789 2.26954 8.49781 
42 1 9.19822 1.55721 9.20508 
7 1 6.17227 6.17143 4.59536 
8 1 7.68912 7.6875 3.08255 
9 1 6.97962 6.9829 3.7903 
43 1 10.0451 10.0459 0.744726 
44 1 8.5007 8.50254 2.26706 
45 1 9.2102 9.20819 1.56299 
22 1 6.24024 6.2447 6.23677 
23 1 7.77189 7.77573 7.77406 
24 1 7.07013 7.06608 7.06532 
34 1 10.096 10.096 10.1078 
35 1 8.58621 8.58477 8.58825 
36 1 9.29249 9.29483 9.29353 
ITEM: TIMESTEP
60
ITEM: NUMBER OF ATOMS
49
ITEM: BOX BOUNDS pp pp pp
0.0000000000000000e+00 1.1000000000000000e+01
0.0000000000000000e+00 1.1002000000000001e+01
0.0000000000000000e+00 1.1000000000000000e+01
ITEM: ATOMS id type x y z 
10 1 4.60329 4.60315 4.6015 
11 1 3.13457 3.14289 2.98299 
12 1 3.82246 3.82668 3.74722 
46 1 0.752282 0.755191 0.682616 
47 1 2.36746 2.3802 2.14009 
48 1 1.4777 1.45674 1.80377 
49 2 1.06567 0.965679 2.72237 
19 1 4.54482 4.54441 6.24178 
20 1 3.00641 3.00714 7.77266 
21 1 3.71523 3.71534 7.06937 
31 1 0.674767 0.674811 10.0959 
32 1 2.18875 2.18808 8.57569 
33 1 1.48282 1.48154 9.28481 
16 1 4.54124 6.24722 4.53743 
17 1 2.99785 7.77921 2.99983 
18 1 3.70671 7.07553 3.70601 
25 1 0.679693 10.1382 0.667572 
26 1 2.1789 8.59278 2.18115 
27 1 1.48131 9.31171 1.47735 
4 1 4.60344 6.18172 6.16666 
5 1 3.08568 7.68796 7.68668 
6 1 3.79527 6.98411 6.9772 
37 1 0.727268 10.0228 10.0339 
38 1 2.26861 8.49641 8.49908 
39 1 1.5582 9.19998 9.20653 
13 1 6.2475 4.54217 4.53662 
14 1 7.77851 2.99782 2.99956 
15 1 7.07527 3.70754 3.70608 
28 1 10.1355 0.679255 0.667282 
29 1 8.59169 2.1783 2.18231 
30 1 9.31019 1.48043 1.4778 
1 1 6.1783 4.60293 6.16763 
2 1 7.68689 3.08577 7.68713 
3 1 6.98233 3.79425 6.9779 
40 1 10.0204 0.724631 10.0328 
41 1 8.49759 2.2689 8.49833 
42 1 9.19925 1.55729 9.20539 
7 1 6.17168 6.17233 4.5954 
8 1 7.68855 7.68946 3.08292 
9 1 6.98109 6.98008 3.78836 
43 1 10.0455 10.0452 0.744693 
44 1 8.50116 8.50159 2.26531 
45 1 9.21164 9.21175 1.56557 
22 1 6.24081 6.24153 6.23514 
23 1 7.77364 7.77444 7.77411 
24 1 7.06739 7.06854 7.0652 
34 1 10.0967 10.0974 10.107 
35 1 8.58571 8.58607 8.58648 
36 1 9.29227 9.29166 9.29679 
ITEM: TIMESTEP
70
ITEM: NUMBER OF ATOMS
49
ITEM: BOX BOUNDS pp pp pp
0.0000000000000000e+00 1.1000000000000000e+01
0.0000000000000000e+00 1.1002000000000001e+01
0.0000000000000000e+00 1.1000000000000000e+01
ITEM: ATOMS id type x y z 
10 1 4.60103 4.60099 4.59925 
11 1 3.13595 3.14529 2.97353 
12 1 3.8245 3.82891 3.7374 
46 1 0.753061 0.755802 0.685959 
47 1 2.36408 2.37639 2.14088 
48 1 1.47319 1.45118 1.81451 
49 2 1.06076 0.960021 2.73356 
19 1 4.54377 4.54381 6.23868 
20 1 3.00745 3.00792 7.77268 
21 1 3.71478 3.71515 7.06688 
31 1 0.676549 0.676334 10.0985 
32 1 2.18914 2.18795 8.57492 
33 1 1.48303 1.48294 9.28518 
16 1 4.54037 6.2455 4.53626 
17 1 2.9979 7.77916 2.99979 
18 1 3.70663 7.07466 3.70588 
25 1 0.681407 10.14 0.668134 
26 1 2.17955 8.59338 2.18158 
27 1 1.48172 9.31262 1.478 
4 1 4.60319 6.18151 6.16572 
5 1 3.08584 7.68803 7.6868 
6 1 3.79469 6.98434 6.97688 
37 1 0.728044 10.0256 10.0343 
38 1 2.2679 8.49634 8.49985 
39 1 1.55813 9.20099 9.20685 
13 1 6.24548 4.54129 4.53607 
14 1 7.77847 2.99805 2.99981 
15 1 7.07424 3.70722 3.70573 
28 1 10.1371 0.680602 0.667952 
29 1 8.5922 2.17866 2.18268 
30 1 9.31115 1.48137 1.4783 
1 1 6.17922 4.60263 6.16683 
2 1 7.68688 3.08594 7.68719 
3 1 6.98251 3.79413 6.97714 
40 1 10.0233 0.725474 10.0332 
41 1 8.4971 2.2682 8.49884 
42 1 9.20032 1.5574 9.2059 
7 1 6.17185 6.17192 4.59422 
8 1 7.68912 7.68932 3.08199 
9 1 6.9809 6.98129 3.78785 
43 1 10.0468 10.0468 0.745828 
44 1 8.50223 8.50257 2.26489 
45 1 9.21278 9.21296 1.56576 
22 1 6.24035 6.24086 6.23376 
23 1 7.77313 7.77396 7.77348 
24 1 7.06723 7.06821 7.06461 
34 1 10.0973 10.0977 10.108 
35 1 8.58576 8.58587 8.58689 
36 1 9.29189 9.29173 9.29715 
ITEM: TIMESTEP
80
ITEM: NUMBER OF ATOMS
49
ITEM: BOX BOUNDS pp pp pp
0.0000000000000000e+00 1.1000000000000000e+01
0.0000000000000000e+00 1.1002000000000001e+01
0.0000000000000000e+00 1.1000000000000000e+01
ITEM: ATOMS id type x y z 
10 1 4.58845 4.5892 4.56739 
11 1 3.1549 3.16917 2.88314 
12 1 3.82621 3.83652 3.67539 
46 1 0.760124 0.760971 0.715646 
47 1 2.33563 2.34509 2.14943 
48 1 1.43059 1.3995 1.90715 
49 2 1.02191 0.915266 2.82399 
19 1 4.53729 4.5397 6.21407 
20 1 3.01242 3.01211 7.76851 
21 1 3.71448 3.71527 7.05282 
31 1 0.691178 0.693468 10.1212 
32 1 2.19149 2.19247 8.56886 
33 1 1.49219 1.48953 9.28736 
16 1 4.53665 6.23333 4.52709 
17 1 2.9976 7.77721 2.99744 
18 1 3.70521 7.07193 3.70588 
25 1 0.695444 10.1561 0.669818 
26 1 2.18775 8.6015 2.18489 
27 1 1.48103 9.31493 1.48474 
4 1 4.60118 6.17571 6.16222 
5 1 3.08548 7.68651 7.69038 
6 1 3.79089 6.99038 6.97014 
37 1 0.734742 10.0483 10.0363 
38 1 2.26623 8.50064 8.50515 
39 1 1.55168 9.20076 9.21071 
13 1 6.2315 4.53493 4.52819 
14 1 7.77559 2.99738 2.99838 
15 1 7.07274 3.70664 3.70642 
28 1 10.1496 0.691498 0.671546 
29 1 8.59633 2.18357 2.18564 
30 1 9.31914 1.48746 1.48382 
1 1 6.17562 4.59978 6.15868 
2 1 7.68517 3.08047 7.68716 
3 1 6.99201 3.79972 6.97737 
40 1 10.0428 0.733523 10.0368 
41 1 8.49552 2.26545 8.50658 
42 1 9.20649 1.55278 9.20421 
7 1 6.16869 6.17485 4.58953 
8 1 7.68969 7.69554 3.0768 
9 1 6.98718 6.97756 3.77831 
43 1 10.0583 10.0597 0.750128 
44 1 8.51153 8.5115 2.26698 
45 1 9.21885 9.21916 1.56128 
22 1 6.23456 6.23632 6.22322 
23 1 7.76845 7.77222 7.7706 
24 1 7.06915 7.06381 7.05787 
34 1 10.103 10.104 10.1142 
35 1 8.58491 8.58701 8.59013 
36 1 9.29239 9.28864 9.30243 
ITEM: TIMESTEP
90
ITEM: NUMBER OF ATOMS
49
ITEM: BOX BOUNDS pp pp pp
0.0000000000000000e+00 1.1000000000000000e+01
0.0000000000000000e+00 1.1002000000000001e+01
0.0000000000000000e+00 1.1000000000000000e+01
ITEM: ATOMS id type x y z 
10 1 4.58772 4.58879 4.56705 
11 1 3.15385 3.16864 2.87909 
12 1 3.82642 3.83647 3.67046 
46 1 0.760082 0.761384 0.716735 
47 1 2.33344 2.34242 2.15215 
48 1 1.42843 1.39719 1.90914 
49 2 1.02059 0.913624 2.82961 
19 1 4.53773 4.5398 6.21269 
20 1 3.01275 3.01271 7.76679 
21 1 3.71512 3.7157 7.05153 
31 1 0.692095 0.693668 10.1223 
32 1 2.19179 2.19093 8.56752 
33 1 1.49285 1.49339 9.29211 
16 1 4.53656 6.23515 4.52851 
17 1 2.99782 7.77896 2.99926 
18 1 3.70507 7.06915 3.70182 
25 1 0.692663 10.1541 0.670993 
26 1 2.18317 8.59934 2.18616 
27 1 1.48895 9.32109 1.48196 
4 1 4.60032 6.17716 6.16014 
5 1 3.08523 7.68998 7.68678 
6 1 3.79117 6.98391 6.97673 
37 1 0.733429 10.0466 10.0361 
38 1 2.26434 8.49821 8.50534 
39 1 1.55547 9.20509 9.21014 
13 1 6.23349 4.53614 4.52894 
14 1 7.77794 2.99766 2.99955 
15 1 7.06924 3.70499 3.70325 
28 1 10.1506 0.692497 0.671606 
29 1 8.59698 2.18269 2.18626 
30 1 9.31986 1.48932 1.48209 
1 1 6.1771 4.60244 6.16086 
2 1 7.68815 3.08485 7.68734 
3 1 6.98508 3.79261 6.97621 
40 1 10.0435 0.731738 10.0354 
41 1 8.49607 2.2627 8.50486 
42 1 9.20722 1.55656 9.20818 
7 1 6.17208 6.17187 4.58761 
8 1 7.69232 7.6914 3.0753 
9 1 6.98268 6.9849 3.78131 
43 1 10.0558 10.057 0.746604 
44 1 8.51003 8.51034 2.26494 
45 1 9.22061 9.22125 1.56672 
22 1 6.23657 6.23573 6.22319 
23 1 7.7708 7.77133 7.76983 
24 1 7.06616 7.06649 7.06011 
34 1 10.1032 10.1035 10.1131 
35 1 8.58493 8.58534 8.59253 
36 1 9.29253 9.29219 9.29914 
ITEM: TIMESTEP
100
ITEM: NUMBER OF ATOMS
49
ITEM: BOX BOUNDS pp pp pp
0.0000000000000000e+00 1.1000000000000000e+01
0.0000000000000000e+00 1.1002000000000001e+01
0.0000000000000000e+00 1.1000000000000000e+01
ITEM: ATOMS id type x y z 
10 1 4.58784 4.58918 4.56607 
11 1 3.15382 3.16935 2.87759 
12 1 3.8267 3.83563 3.66994 
46 1 0.759857 0.761214 0.716979 
47 1 2.33263 2.34144 2.15297 
48 1 1.42759 1.39626 1.91034 
49 2 1.02025 0.913192 2.83136 
19 1 4.53797 4.53983 6.21212 
20 1 3.01286 3.01271 7.7665 
21 1 3.71486 3.71563 7.05096 
31 1 0.692521 0.694175 10.123 
32 1 2.19186 2.19117 8.56771 
33 1 1.49328 1.49352 9.29247 
16 1 4.53671 6.23488 4.52824 
17 1 2.99775 7.77888 2.99915 
18 1 3.70501 7.06929 3.70186 
25 1 0.692411 10.1538 0.67101 
26 1 2.18274 8.59931 2.18617 
27 1 1.48974 9.32204 1.48163 
4 1 4.60021 6.1766 6.16084 
5 1 3.08529 7.68956 7.68714 
6 1 3.79103 6.98441 6.97599 
37 1 0.733401 10.0463 10.0362 
38 1 2.26369 8.49768 8.50542 
39 1 1.55665 9.20645 9.21 
13 1 6.23359 4.53642 4.52898 
14 1 7.77813 2.99786 3.00003 
15 1 7.0683 3.70495 3.70272 
28 1 10.1509 0.692446 0.671511 
29 1 8.59734 2.18266 2.18634 
30 1 9.31999 1.48949 1.48177 
1 1 6.17708 4.60231 6.16099 
2 1 7.68836 3.08515 7.68726 
3 1 6.98429 3.79199 6.97618 
40 1 10.0435 0.731673 10.0353 
41 1 8.49593 2.26205 8.50456 
42 1 9.20783 1.55789 9.20878 
7 1 6.17201 6.17232 4.58789 
8 1 7.69197 7.69204 3.0756 
9 1 6.98328 6.98364 3.78069 
43 1 10.0556 10.0568 0.746452 
44 1 8.51013 8.51039 2.26506 
45 1 9.22079 9.22149 1.56664 
22 1 6.23652 6.23596 6.22346 
23 1 7.77072 7.77137 7.76997 
24 1 7.06639 7.06648 7.05998 
34 1 10.1036 10.1037 10.1122 
35 1 8.58516 8.58533 8.5922 
36 1 9.29196 9.29209 9.29975 
ITEM: TIMESTEP
110
ITEM: NUMBER OF ATOMS
49
ITEM: BOX BOUNDS pp pp pp
0.0000000000000000e+00 1.1000000000000000e+01
0.0000000000000000e+00 1.1002000000000001e+01
0.0000000000000000e+00 1.1000000000000000e+01
ITEM: ATOMS id type x y z 
10 1 4.58911 4.59104 4.55375 
11 1 3.15589 3.17318 2.86036 
12 1 3.82629 3.83447 3.65827 
46 1 0.758763 0.760508 0.721213 
47 1 2.32232 2.32941 2.1643 
48 1 1.41659 1.38376 1.92793 
49 2 1.01574 0.907496 2.8551 
19 1 4.53822 4.53964 6.20431 
20 1 3.01159 3.01224 7.76167 
21 1 3.71522 3.71445 7.04577 
31 1 0.698516 0.698622 10.131 
32 1 2.19424 2.19352 8.57049 
33 1 1.49636 1.49707 9.29711 
16 1 4.53865 6.23278 4.52629 
17 1 2.99721 7.77827 2.99945 
18 1 3.70496 7.06874 3.70087 
25 1 0.692518 10.1527 0.669445 
26 1 2.18418 8.60387 2.18557 
27 1 1.48883 9.32364 1.48061 
4 1 4.59954 6.17378 6.16274 
5 1 3.08375 7.68812 7.68661 
6 1 3.79159 6.98362 6.97688 
37 1 0.734069 10.045 10.0372 
38 1 2.25717 8.49245 8.50629 
39 1 1.56979 9.22139 9.209 
13 1 6.23178 4.53855 4.52631 
14 1 7.77778 2.99751 3.00119 
15 1 7.06561 3.70545 3.70091 
28 1 10.1511 0.690894 0.668946 
29 1 8.6012 2.18411 2.18635 
30 1 9.32192 1.48991 1.48123 
1 1 6.17362 4.5996 6.16376 
2 1 7.68719 3.08444 7.68657 
3 1 6.982 3.7908 6.97592 
40 1 10.0481 0.737467 10.0372 
41 1 8.49709 2.26224 8.50451 
42 1 9.20998 1.56044 9.20927 
7 1 6.17331 6.17298 4.58915 
8 1 7.69184 7.69203 3.07469 
9 1 6.98388 6.98388 3.78056 
43 1 10.0539 10.0562 0.743177 
44 1 8.51263 8.51287 2.26617 
45 1 9.22244 9.22318 1.56517 
22 1 6.23598 6.23741 6.22495 
23 1 7.77065 7.77057 7.76925 
24 1 7.06557 7.06658 7.06068 
34 1 10.1048 10.1051 10.1075 
35 1 8.58378 8.58382 8.59367 
36 1 9.29273 9.29319 9.29672 
ITEM: TIMESTEP
120
ITEM: NUMBER OF ATOMS
49
ITEM: BOX BOUNDS pp pp pp
0.0000000000000000e+00 1.1000000000000000e+01
0.0000000000000000e+00 1.1002000000000001e+01
0.0000000000000000e+00 1.1000000000000000e+01
ITEM: ATOMS id type x y z 
10 1 4.58891 4.59071 4.54763 
11 1 3.15601 3.17304 2.85224 
12 1 3.82704 3.83695 3.6476 
46 1 0.759438 0.760572 0.725084 
47 1 2.31685 2.32308 2.17126 
48 1 1.40964 1.37583 1.9385 
49 2 1.01308 0.904142 2.86964 
19 1 4.53812 4.53832 6.20096 
20 1 3.01198 3.01201 7.75894 
21 1 3.71339 3.71366 7.04211 
31 1 0.701221 0.701154 10.1353 
32 1 2.19563 2.19562 8.57234 
33 1 1.49885 1.49847 9.29928 
16 1 4.53911 6.23236 4.52506 
17 1 2.99671 7.77832 2.99942 
18 1 3.705 7.06842 3.70022 
25 1 0.691723 10.1519 0.668093 
26 1 2.18532 8.60544 2.18611 
27 1 1.48985 9.32433 1.48048 
4 1 4.60042 6.1731 6.16311 
5 1 3.08304 7.68758 7.68678 
6 1 3.79017 6.98226 6.97723 
37 1 0.735076 10.0481 10.0377 
38 1 2.2563 8.4914 8.50576 
39 1 1.57433 9.22584 9.20869 
13 1 6.23053 4.5392 4.52457 
14 1 7.77705 2.99693 3.00074 
15 1 7.06634 3.70548 3.70068 
28 1 10.1504 0.69076 0.667823 
29 1 8.60316 2.1854 2.18685 
30 1 9.32244 1.4904 1.48122 
1 1 6.17166 4.59931 6.16401 
2 1 7.68683 3.08346 7.68624 
3 1 6.98078 3.79003 6.97663 
40 1 10.0512 0.739841 10.0375 
41 1 8.49741 2.26288 8.50431 
42 1 9.21181 1.56158 9.20953 
7 1 6.17394 6.17367 4.59021 
8 1 7.69227 7.69236 3.07373 
9 1 6.98463 6.98471 3.78041 
43 1 10.0534 10.0557 0.740376 
44 1 8.51397 8.51399 2.26741 
45 1 9.22195 9.22314 1.56459 
22 1 6.23473 6.23682 6.22538 
23 1 7.77094 7.77067 7.76967 
24 1 7.06483 7.06603 7.06028 
34 1 10.1065 10.1073 10.1041 
35 1 8.58355 8.5836 8.59367 
36 1 9.29254 9.29307 9.29653 
ITEM: TIMESTEP
130
ITEM: NUMBER OF ATOMS
49
ITEM: BOX BOUNDS pp pp pp
0.0000000000000000e+00 1.1000000000000000e+01
0.0000000000000000e+00 1.1002000000000001e+01
0.0000000000000000e+00 1.1000000000000000e+01
ITEM: ATOMS id type x y z 
10 1 4.58767 4.59049 4.54245 
11 1 3.15509 3.17229 2.84938 
12 1 3.82831 3.83774 3.64206 
46 1 0.759915 0.759109 0.731655 
47 1 2.31391 2.31992 2.17583 
48 1 1.40448 1.36976 1.94684 
49 2 1.01164 0.902258 2.88141 
19 1 4.53525 4.53554 6.19855 
20 1 3.01209 3.01217 7.75633 
21 1 3.71359 3.71366 7.03879 
31 1 0.702861 0.702917 10.1373 
32 1 2.19804 2.19746 8.57354 
33 1 1.50058 1.50121 9.3 
16 1 4.53715 6.23381 4.52439 
17 1 2.9969 7.7792 2.99912 
18 1 3.70474 7.06865 3.70023 
25 1 0.689925 10.1526 0.668537 
26 1 2.1874 8.60453 2.18763 
27 1 1.49143 9.32317 1.48195 
4 1 4.59942 6.17216 6.1605 
5 1 3.08212 7.68499 7.6869 
6 1 3.78856 6.98024 6.97596 
37 1 0.742191 10.0609 10.035 
38 1 2.26664 8.50178 8.50401 
39 1 1.5616 9.21092 9.2097 
13 1 6.23136 4.53779 4.52542 
14 1 7.77769 2.99682 2.99991 
15 1 7.06715 3.70525 3.70076 
28 1 10.1494 0.691804 0.66984 
29 1 8.60308 2.18691 2.18803 
30 1 9.32182 1.49125 1.48193 
1 1 6.16966 4.60046 6.15942 
2 1 7.6863 3.08311 7.68643 
3 1 6.97974 3.78821 6.97652 
40 1 10.0534 0.738817 10.0346 
41 1 8.49883 2.264 8.50493 
42 1 9.21226 1.56185 9.20856 
7 1 6.17412 6.17513 4.58941 
8 1 7.69304 7.69415 3.07411 
9 1 6.98626 6.98416 3.77935 
43 1 10.0536 10.0558 0.73526 
44 1 8.51393 8.51398 2.26833 
45 1 9.22141 9.22288 1.56353 
22 1 6.2328 6.2329 6.22492 
23 1 7.77042 7.77083 7.76999 
24 1 7.06535 7.06553 7.06158 
34 1 10.1084 10.1104 10.1046 
35 1 8.58471 8.58446 8.59456 
36 1 9.29384 9.29511 9.29595 
ITEM: TIMESTEP
140
ITEM: NUMBER OF ATOMS
49
ITEM: BOX BOUNDS pp pp pp
0.0000000000000000e+00 1.1000000000000000e+01
0.0000000000000000e+00 1.1002000000000001e+01
0.0000000000000000e+00 1.1000000000000000e+01
ITEM: ATOMS id type x y z 
10 1 4.58797 4.5907 4.54166 
11 1 3.15554 3.17234 2.84848 
12 1 3.82728 3.83748 3.64254 
46 1 0.759007 0.758531 0.731852 
47 1 2.31334 2.31928 2.17628 
48 1 1.40415 1.36936 1.94772 
49 2 1.01151 0.902078 2.88268 
19 1 4.5352 4.53573 6.19762 
20 1 3.01194 3.01194 7.7563 
21 1 3.71336 3.71354 7.03861 
31 1 0.703078 0.703253 10.1372 
32 1 2.19781 2.19761 8.57294 
33 1 1.50166 1.50163 9.30146 
16 1 4.53743 6.23349 4.52442 
17 1 2.9969 7.77913 2.99922 
18 1 3.70502 7.06873 3.70026 
25 1 0.690353 10.1525 0.668596 
26 1 2.18687 8.60475 2.18724 
27 1 1.49144 9.32396 1.48159 
4 1 4.59946 6.17197 6.16053 
5 1 3.08211 7.68479 7.68676 
6 1 3.7888 6.98035 6.97598 
37 1 0.742099 10.0598 10.0351 
38 1 2.26594 8.50135 8.50448 
39 1 1.56224 9.21263 9.20952 
13 1 6.23135 4.53799 4.52491 
14 1 7.77782 2.9969 2.9999 
15 1 7.06715 3.70508 3.7007 
28 1 10.1498 0.691765 0.669806 
29 1 8.60308 2.18664 2.18783 
30 1 9.32239 1.49144 1.48186 
1 1 6.16973 4.59999 6.16023 
2 1 7.68565 3.08295 7.68633 
3 1 6.98011 3.78894 6.97608 
40 1 10.0531 0.738894 10.0349 
41 1 8.49825 2.2639 8.50479 
42 1 9.21334 1.56253 9.20851 
7 1 6.17447 6.1747 4.58959 
8 1 7.69339 7.69332 3.07386 
9 1 6.98544 6.98548 3.78033 
43 1 10.0532 10.0556 0.735421 
44 1 8.5142 8.5144 2.26794 
45 1 9.22155 9.22278 1.56357 
22 1 6.23288 6.23314 6.22495 
23 1 7.77009 7.77042 7.76982 
24 1 7.06501 7.06532 7.06124 
34 1 10.1088 10.1106 10.1037 
35 1 8.58484 8.58483 8.59423 
36 1 9.29381 9.29461 9.29644 
ITEM: TIMESTEP
150
ITEM: NUMBER OF ATOMS
49
ITEM: BOX BOUNDS pp pp pp
0.0000000000000000e+00 1.1000000000000000e+01
0.0000000000000000e+00 1.1002000000000001e+01
0.0000000000000000e+00 1.1000000000000000e+01
ITEM: ATOMS id type x y z 
10 1 4.58797 4.59068 4.54162 
11 1 3.15552 3.17233 2.84841 
12 1 3.82727 3.83746 3.64244 
46 1 0.758892 0.758477 0.731903 
47 1 2.31324 2.31915 2.17637 
48 1 1.40409 1.36928 1.94793 
49 2 1.01148 0.902042 2.88294 
19 1 4.5352 4.53575 6.19745 
20 1 3.01196 3.01194 7.75625 
21 1 3.71329 3.71352 7.03855 
31 1 0.703144 0.703344 10.1373 
32 1 2.19784 2.19764 8.57296 
33 1 1.5017 1.50169 9.30153 
16 1 4.53749 6.23346 4.5244 
17 1 2.9969 7.77917 2.99922 
18 1 3.70501 7.06871 3.70025 
25 1 0.690407 10.1524 0.668624 
26 1 2.18681 8.60482 2.1872 
27 1 1.49142 9.32401 1.48151 
4 1 4.59946 6.17195 6.16055 
5 1 3.08213 7.68482 7.68675 
6 1 3.78875 6.98027 6.976 
37 1 0.742057 10.0596 10.0351 
38 1 2.26583 8.50124 8.50455 
39 1 1.56239 9.21294 9.20946 
13 1 6.23132 4.53801 4.52485 
14 1 7.77782 2.9969 2.99992 
15 1 7.06713 3.70511 3.70069 
28 1 10.1499 0.691764 0.669755 
29 1 8.60312 2.18662 2.18781 
30 1 9.32243 1.49143 1.48184 
1 1 6.16975 4.59991 6.1603 
2 1 7.6856 3.08295 7.6863 
3 1 6.98008 3.78897 6.97606 
40 1 10.0531 0.738941 10.0349 
41 1 8.49828 2.2639 8.50479 
42 1 9.21339 1.56254 9.20854 
7 1 6.1745 6.17471 4.58964 
8 1 7.69339 7.6933 3.07388 
9 1 6.98544 6.98549 3.78037 
43 1 10.0532 10.0555 0.735421 
44 1 8.51424 8.51446 2.2679 
45 1 9.22157 9.22278 1.56354 
22 1 6.23289 6.23317 6.22496 
23 1 7.77007 7.77039 7.76982 
24 1 7.06498 7.06529 7.06121 
34 1 10.1089 10.1106 10.1036 
35 1 8.58484 8.58483 8.59423 
36 1 9.29383 9.29462 9.29638 
ITEM: TIMESTEP
152
ITEM: NUMBER OF ATOMS
49
ITEM: BOX BOUNDS pp pp pp
0.0000000000000000e+00 1.1000000000000000e+01
0.0000000000000000e+00 1.1002000000000001e+01
0.0000000000000000e+00 1.1000000000000000e+01
ITEM: ATOMS id type x y z 
10 1 4.58798 4.59068 4.54162 
11 1 3.15552 3.17233 2.84841 
12 1 3.82727 3.83746 3.64244 
46 1 0.758891 0.758476 0.731904 
47 1 2.31324 2.31915 2.17638 
48 1 1.40409 1.36928 1.94793 
49 2 1.01148 0.902042 2.88294 
19 1 4.5352 4.53575 6.19745 
20 1 3.01197 3.01194 7.75625 
21 1 3.71329 3.71352 7.03855 
31 1 0.703144 0.703346 10.1373 
32 1 2.19784 2.19764 8.57296 
33 1 1.5017 1.50169 9.30153 
16 1 4.53749 6.23346 4.5244 
17 1 2.9969 7.77917 2.99922 
18 1 3.70501 7.06871 3.70025 
25 1 0.690407 10.1524 0.668624 
26 1 2.18681 8.60482 2.1872 
27 1 1.49142 9.32401 1.48151 
4 1 4.59946 6.17195 6.16055 
5 1 3.08213 7.68482 7.68675 
6 1 3.78875 6.98027 6.976 
37 1 0.742057 10.0596 10.0351 
38 1 2.26583 8.50123 8.50455 
39 1 1.56239 9.21294 9.20946 
13 1 6.23132 4.53801 4.52485 
14 1 7.77782 2.9969 2.99992 
15 1 7.06713 3.70511 3.70069 
28 1 10.1499 0.691763 0.669755 
29 1 8.60312 2.18662 2.18781 
30 1 9.32243 1.49143 1.48184 
1 1 6.16975 4.5999 6.1603 
2 1 7.6856 3.08295 7.6863 
3 1 6.98008 3.78898 6.97606 
40 1 10.0531 0.738942 10.0349 
41 1 8.49828 2.2639 8.50479 
42 1 9.21339 1.56254 9.20854 
7 1 6.1745 6.17471 4.58964 
8 1 7.69339 7.6933 3.07388 
9 1 6.98543 6.98549 3.78037 
43 1 10.0532 10.0555 0.735421 
44 1 8.51424 8.51446 2.2679 
45 1 9.22157 9.22278 1.56354 
22 1 6.23289 6.23317 6.22496 
23 1 7.77007 7.77039 7.76982 
24 1 7.06498 7.06528 7.06121 
34 1 10.1089 10.1106 10.1036 
35 1 8.58484 8.58482 8.59423 
36 1 9.29383 9.29463 9.29638 
ITEM: TIMESTEP
155
ITEM: NUMBER OF ATOMS
49
ITEM: BOX BOUNDS pp pp pp
0.0000000000000000e+00 1.1000000000000000e+01
0.0000000000000000e+00 1.1002000000000001e+01
0.0000000000000000e+00 1.1000000000000000e+01
ITEM: ATOMS id type x y z 
10 1 4.58798 4.59068 4.54162 
11 1 3.15552 3.17233 2.84841 
12 1 3.82727 3.83746 3.64244 
46 1 0.758891 0.758476 0.731904 
47 1 2.31324 2.31915 2.17638 
48 1 1.40409 1.36928 1.94793 
49 2 1.01148 0.902042 2.88294 
19 1 4.5352 4.53575 6.19745 
20 1 3.01197 3.01194 7.75625 
21 1 3.71329 3.71352 7.03855 
31 1 0.703144 0.703346 10.1373 
32 1 2.19784 2.19764 8.57296 
33 1 1.5017 1.50169 9.30153 
16 1 4.53749 6.23346 4.5244 
17 1 2.9969 7.77917 2.99922 
18 1 3.70501 7.06871 3.70025 
25 1 0.690408 10.1524 0.668624 
26 1 2.18681 8.60482 2.1872 
27 1 1.49142 9.32401 1.48151 
4 1 4.59946 6.17195 6.16055 
5 1 3.08213 7.68482 7.68675 
6 1 3.78875 6.98027 6.976 
37 1 0.742057 10.0596 10.0351 
38 1 2.26583 8.50123 8.50455 
39 1 1.56239 9.21294 9.20946 
13 1 6.23132 4.53801 4.52485 
14 1 7.77782 2.9969 2.99992 
15 1 7.06713 3.70511 3.70069 
28 1 10.1499 0.691763 0.669755 
29 1 8.60312 2.18662 2.18781 
30 1 9.32243 1.49144 1.48184 
1 1 6.16975 4.5999 6.1603 
2 1 7.6856 3.08295 7.6863 
3 1 6.98008 3.78898 6.97606 
40 1 10.0531 0.738942 10.0349 
41 1 8.49828 2.2639 8.50479 
42 1 9.21339 1.56254 9.20854 
7 1 6.1745 6.17471 4.58964 
8 1 7.69339 7.6933 3.07388 
9 1 6.98544 6.98549 3.78037 
43 1 10.0532 10.0555 0.735421 
44 1 8.51424 8.51446 2.2679 