ITEM: TIMESTEP
0
ITEM: NUMBER OF ATOMS
202
ITEM: BOX BOUNDS pp pp pp
0.0000000000000000e+00 1.6114000000000001e+01
0.0000000000000000e+00 1.6113000000000000e+01
0.0000000000000000e+00 1.6111999999999998e+01
ITEM: ATOMS id type x y z 
5 1 5.384 5.384 5.384 
65 1 5.66 6.662 2.461 
66 1 5.336 7.323 3.711 
68 1 4.865 6.606 4.866 
79 1 5.364 7.322 1.219 
89 1 6.662 2.461 5.66 
90 1 7.323 3.711 5.336 
92 1 6.606 4.866 4.866 
101 1 7.322 1.219 5.364 
109 1 2.461 5.66 6.662 
110 1 3.71 5.336 7.323 
112 1 4.865 4.866 6.606 
121 1 1.218 5.364 7.322 
129 1 6.662 5.66 2.461 
130 1 7.323 5.336 3.711 
137 1 7.322 5.364 1.219 
141 1 2.461 6.662 5.66 
142 1 3.71 7.323 5.336 
149 1 1.218 7.322 5.364 
153 1 5.66 2.461 6.662 
154 1 5.336 3.711 7.323 
161 1 5.364 1.219 7.322 
7 1 6.662 5.66 13.616 
8 1 7.323 5.336 12.366 
10 1 6.606 4.866 11.211 
21 1 7.322 5.364 14.858 
32 1 1.218 7.322 10.713 
40 1 2.461 6.662 10.417 
41 1 3.71 7.323 10.741 
43 1 4.865 6.606 11.211 
47 1 5.364 1.219 8.755 
55 1 5.66 2.461 9.415 
56 1 5.336 3.711 8.754 
58 1 4.865 4.866 9.471 
64 1 5.629 6.643 16.094 
75 1 5.384 5.384 10.693 
118 1 6.643 5.629 16.094 
168 1 5.66 6.662 13.616 
169 1 5.336 7.323 12.366 
176 1 5.364 7.322 14.858 
182 1 7.322 1.219 10.713 
186 1 6.662 2.461 10.417 
187 1 7.323 3.711 10.741 
191 1 1.218 5.364 8.755 
195 1 2.461 5.66 9.415 
196 1 3.71 5.336 8.754 
9 1 7.322 10.713 1.219 
19 1 6.662 10.417 2.461 
20 1 7.323 10.741 3.711 
22 1 6.606 11.211 4.866 
27 1 1.218 8.755 5.364 
35 1 2.461 9.415 5.66 
36 1 3.71 8.754 5.336 
38 1 4.865 9.471 4.866 
44 1 6.643 16.095 5.63 
50 1 5.66 13.616 6.662 
51 1 5.336 12.366 7.323 
53 1 4.865 11.211 6.606 
62 1 5.364 14.858 7.322 
76 1 5.629 16.095 6.643 
81 1 5.384 10.693 5.384 
167 1 5.364 8.755 1.219 
171 1 5.66 9.415 2.461 
172 1 5.336 8.754 3.711 
180 1 6.662 13.616 5.66 
181 1 7.323 12.366 5.336 
188 1 7.322 14.858 5.364 
194 1 1.218 10.713 7.322 
198 1 2.461 10.417 6.662 
199 1 3.71 10.741 7.323 
17 1 5.384 10.693 10.693 
39 1 6.643 16.095 10.448 
49 1 5.629 9.434 16.095 
73 1 5.364 8.755 14.858 
82 1 5.629 16.095 9.434 
83 1 5.66 9.415 13.616 
84 1 5.336 8.754 12.366 
86 1 4.865 9.471 11.211 
91 1 7.322 14.858 10.713 
99 1 6.662 13.616 10.417 
100 1 7.323 12.366 10.741 
102 1 6.606 11.211 11.211 
113 1 6.643 10.448 16.094 
114 1 2.461 10.417 9.415 
115 1 3.71 10.741 8.754 
117 1 4.865 11.211 9.471 
126 1 1.218 10.713 8.755 
131 1 7.322 10.713 14.858 
135 1 6.662 10.417 13.616 
136 1 7.323 10.741 12.366 
144 1 2.461 9.415 10.417 
145 1 3.71 8.754 10.741 
152 1 1.218 8.755 10.713 
158 1 5.364 14.858 8.755 
162 1 5.66 13.616 9.415 
163 1 5.336 12.366 8.754 
3 1 8.755 5.364 1.219 
13 1 9.415 5.66 2.461 
14 1 8.754 5.336 3.711 
16 1 9.471 4.866 4.866 
24 1 16.095 5.629 6.643 
30 1 13.616 6.662 5.66 
31 1 12.367 7.323 5.336 
33 1 11.212 6.606 4.866 
42 1 14.859 7.322 5.364 
52 1 10.713 1.219 7.322 
60 1 10.417 2.461 6.662 
61 1 10.741 3.711 7.323 
63 1 11.212 4.866 6.606 
87 1 10.693 5.384 5.384 
98 1 16.095 6.643 5.63 
170 1 10.713 7.322 1.219 
174 1 10.417 6.662 2.461 
175 1 10.741 7.323 3.711 
179 1 8.755 1.219 5.364 
183 1 9.415 2.461 5.66 
184 1 8.754 3.711 5.336 
192 1 13.616 5.66 6.662 
193 1 12.367 5.336 7.323 
200 1 14.859 5.364 7.322 
6 1 16.096 5.629 9.434 
23 1 10.693 5.384 10.693 
59 1 10.448 6.643 16.095 
67 1 10.713 7.322 14.858 
77 1 10.417 6.662 13.616 
78 1 10.741 7.323 12.366 
80 1 11.212 6.606 11.211 
93 1 16.096 6.643 10.448 
94 1 9.415 2.461 10.417 
95 1 8.754 3.711 10.741 
97 1 9.471 4.866 11.211 
106 1 8.755 1.219 10.713 
116 1 14.859 5.364 8.755 
123 1 9.434 5.629 16.094 
124 1 13.616 5.66 9.415 
125 1 12.367 5.336 8.754 
127 1 11.212 4.866 9.471 
134 1 8.755 5.364 14.858 
138 1 9.415 5.66 13.616 
139 1 8.754 5.336 12.366 
143 1 14.859 7.322 10.713 
147 1 13.616 6.662 10.417 
148 1 12.367 7.323 10.741 
156 1 10.417 2.461 9.415 
157 1 10.741 3.711 8.754 
164 1 10.713 1.219 8.755 
201 2 16.096 4.279 9.434 
202 3 16.096 3.303 9.434 
11 1 10.693 10.693 5.384 
18 1 16.096 10.448 6.643 
29 1 9.434 16.095 5.63 
70 1 10.448 16.095 6.643 
71 1 10.417 9.415 2.461 
72 1 10.741 8.754 3.711 
74 1 11.212 9.471 4.866 
85 1 10.713 8.755 1.219 
96 1 8.755 14.858 5.364 
103 1 16.095 9.434 5.63 
104 1 9.415 13.616 5.66 
105 1 8.754 12.366 5.336 
107 1 9.471 11.211 4.866 
111 1 14.859 10.713 7.322 
119 1 13.616 10.417 6.662 
120 1 12.367 10.741 7.323 
122 1 11.212 11.211 6.606 
132 1 9.415 10.417 2.461 
133 1 8.754 10.741 3.711 
140 1 8.755 10.713 1.219 
146 1 14.859 8.755 5.364 
150 1 13.616 9.415 5.66 
151 1 12.367 8.754 5.336 
155 1 10.713 14.858 7.322 
159 1 10.417 13.616 6.662 
160 1 10.741 12.366 7.323 
1 1 9.415 10.417 13.616 
2 1 8.754 10.741 12.366 
4 1 9.471 11.211 11.211 
12 1 16.096 10.448 9.434 
15 1 8.755 10.713 14.858 
25 1 13.616 9.415 10.417 
26 1 12.367 8.754 10.741 
28 1 11.212 9.471 11.211 
34 1 9.434 16.095 10.448 
37 1 14.859 8.755 10.713 
45 1 10.417 13.616 9.415 
46 1 10.741 12.366 8.754 
48 1 11.212 11.211 9.471 
54 1 10.448 9.434 16.094 
57 1 10.713 14.858 8.755 
69 1 10.693 10.693 10.693 
88 1 10.448 16.095 9.434 
108 1 16.096 9.434 10.448 
128 1 9.434 10.448 16.094 
165 1 10.417 9.415 13.616 
166 1 10.741 8.754 12.366 
173 1 10.713 8.755 14.858 
177 1 9.415 13.616 10.417 
178 1 8.754 12.366 10.741 
185 1 8.755 14.858 10.713 
189 1 13.616 10.417 9.415 
190 1 12.367 10.741 8.754 
197 1 14.859 10.713 8.755 
ITEM: TIMESTEP
10
ITEM: NUMBER OF ATOMS
202
ITEM: BOX BOUNDS pp pp pp
0.0000000000000000e+00 1.6114000000000001e+01
0.0000000000000000e+00 1.6113000000000000e+01
0.0000000000000000e+00 1.6111999999999998e+01
ITEM: ATOMS id type x y z 
5 1 5.38507 5.38399 5.38043 
65 1 5.6594 6.66139 2.46015 
66 1 5.33784 7.32405 3.70944 
68 1 4.86914 6.60597 4.86404 
79 1 5.36287 7.32239 1.21896 
89 1 6.66311 2.4601 5.65777 
90 1 7.32369 3.7096 5.33708 
92 1 6.60787 4.86531 4.86538 
101 1 7.32209 1.21804 5.3633 
109 1 2.47283 5.6563 6.64499 
110 1 3.71627 5.33744 7.31914 
112 1 4.86898 4.86433 6.60554 
121 1 1.22232 5.36094 7.30373 
129 1 6.66138 5.65927 2.46049 
130 1 7.32344 5.33715 3.70974 
137 1 7.32193 5.36282 1.21911 
141 1 2.4631 6.66397 5.65115 
142 1 3.71349 7.32601 5.33637 
149 1 1.21833 7.32427 5.35982 
153 1 5.65896 2.45942 6.66062 
154 1 5.33832 3.70925 7.32251 
161 1 5.36285 1.21625 7.32195 
7 1 6.66109 5.6594 13.6168 
8 1 7.32314 5.33735 12.3677 
10 1 6.60837 4.86502 11.2117 
21 1 7.322 5.36271 14.8579 
32 1 1.20461 7.31835 10.7124 
40 1 2.46088 6.67052 10.4315 
41 1 3.70966 7.32439 10.7424 
43 1 4.86593 6.60816 11.2126 
47 1 5.36264 1.2165 8.75451 
55 1 5.65951 2.45848 9.41713 
56 1 5.33879 3.70947 8.75293 
58 1 4.87348 4.86354 9.4727 
64 1 5.62822 6.6424 16.0945 
75 1 5.38373 5.38382 10.6952 
118 1 6.6422 5.62827 16.0944 
168 1 5.65944 6.66136 13.6167 
169 1 5.33761 7.32342 12.3669 
176 1 5.36273 7.32241 14.8579 
182 1 7.32241 1.21782 10.7138 
186 1 6.66274 2.46008 10.419 
187 1 7.32402 3.70958 10.7398 
191 1 1.27115 5.41534 8.71325 
195 1 2.47598 5.66154 9.42827 
196 1 3.72785 5.3379 8.75063 
9 1 7.32195 10.7138 1.219 
19 1 6.66207 10.4178 2.46128 
20 1 7.32334 10.7405 3.71081 
22 1 6.60705 11.2114 4.86597 
27 1 1.21921 8.75813 5.36175 
35 1 2.46053 9.41684 5.65911 
36 1 3.71168 8.7577 5.33665 
38 1 4.86669 9.47185 4.86554 
44 1 6.64278 16.0947 5.62956 
50 1 5.65975 13.6162 6.66195 
51 1 5.33661 12.3666 7.32344 
53 1 4.866 11.2116 6.6065 
62 1 5.36362 14.8581 7.32247 
76 1 5.62901 16.0943 6.64277 
81 1 5.38425 10.6942 5.38412 
167 1 5.36304 8.75482 1.21918 
171 1 5.65958 9.41581 2.46076 
172 1 5.33717 8.75441 3.71022 
180 1 6.66202 13.6159 5.65971 
181 1 7.32351 12.3666 5.33663 
188 1 7.32196 14.8581 5.36374 
194 1 1.21862 10.7144 7.32186 
198 1 2.46051 10.419 6.6622 
199 1 3.7107 10.7407 7.32287 
17 1 5.38396 10.6936 10.693 
39 1 6.64266 16.0948 10.4479 
49 1 5.62862 9.43491 16.0946 
73 1 5.36306 8.7551 14.8578 
82 1 5.62927 16.0934 9.43475 
83 1 5.65955 9.41572 13.616 
84 1 5.3365 8.75471 12.3658 
86 1 4.86639 9.47151 11.2115 
91 1 7.32203 14.8581 10.7133 
99 1 6.66205 13.616 10.4173 
100 1 7.32329 12.3664 10.7405 
102 1 6.60722 11.2116 11.211 
113 1 6.6427 10.4485 16.0943 
114 1 2.46028 10.4178 9.41629 
115 1 3.71173 10.7409 8.75392 
117 1 4.86598 11.2118 9.47037 
126 1 1.21913 10.7153 8.75362 
131 1 7.322 10.7138 14.8578 
135 1 6.66197 10.4177 13.6157 
136 1 7.3232 10.7406 12.3659 
144 1 2.45828 9.41575 10.4187 
145 1 3.70982 8.75682 10.7406 
152 1 1.21721 8.75796 10.7135 
158 1 5.36376 14.8582 8.75472 
162 1 5.65978 13.6163 9.41512 
163 1 5.33657 12.3663 8.7538 
3 1 8.75501 5.3628 1.21905 
13 1 9.41563 5.65926 2.46055 
14 1 8.75353 5.33714 3.70974 
16 1 9.46902 4.86532 4.86528 
24 1 16.0954 5.62639 6.62299 
30 1 13.6137 6.66441 5.6508 
31 1 12.3637 7.32599 5.33642 
33 1 11.208 6.60606 4.86415 
42 1 14.8583 7.32414 5.35972 
52 1 10.7141 1.21633 7.32192 
60 1 10.418 2.45935 6.66061 
61 1 10.7387 3.70922 7.3225 
63 1 11.2082 4.86441 6.60576 
87 1 10.692 5.38394 5.38047 
98 1 16.0954 6.64156 5.62267 
170 1 10.7142 7.32246 1.21908 
174 1 10.4176 6.6614 2.4601 
175 1 10.7391 7.32412 3.70943 
179 1 8.75489 1.21804 5.36329 
183 1 9.41395 2.46007 5.65782 
184 1 8.75323 3.70955 5.33711 
192 1 13.6039 5.65621 6.64496 
193 1 12.3602 5.33729 7.31935 
200 1 14.855 5.36076 7.30645 
6 1 16.0937 5.52458 9.48826 
23 1 10.6932 5.38374 10.6952 
59 1 10.4488 6.64241 16.0946 
67 1 10.7142 7.32238 14.858 
77 1 10.4176 6.66135 13.6167 
78 1 10.7394 7.32347 12.367 
80 1 11.211 6.60815 11.2126 
93 1 16.0957 6.65496 10.4542 
94 1 9.41428 2.46008 10.419 
95 1 8.75301 3.70965 10.7398 
97 1 9.46869 4.86502 11.2116 
106 1 8.75458 1.21782 10.7138 
116 1 14.8058 5.41556 8.71399 
123 1 9.43481 5.62829 16.0945 
124 1 13.6032 5.66114 9.42682 
125 1 12.3499 5.33808 8.75075 
127 1 11.2034 4.8635 9.47281 
134 1 8.75507 5.36274 14.8578 
138 1 9.4159 5.6594 13.6169 
139 1 8.75387 5.33736 12.3677 
143 1 14.8729 7.31853 10.7123 
147 1 13.6162 6.66979 10.431 
148 1 12.3672 7.32458 10.7425 
156 1 10.4175 2.45854 9.41711 
157 1 10.7382 3.70943 8.75298 
164 1 10.7144 1.21654 8.75451 
201 2 16.0954 4.25571 9.53475 
202 3 16.096 3.27465 9.43968 
11 1 10.6927 10.6943 5.38408 
18 1 16.0956 10.4505 6.64346 
29 1 9.43419 16.0946 5.62953 
70 1 10.448 16.0943 6.64276 
71 1 10.4174 9.41587 2.46075 
72 1 10.7399 8.7545 3.71023 
74 1 11.2103 9.47186 4.86549 
85 1 10.7139 8.75491 1.21895 
96 1 8.75504 14.8581 5.36374 
103 1 16.0955 9.43572 5.62805 
104 1 9.41498 13.6159 5.65971 
105 1 8.75352 12.3666 5.33661 
107 1 9.47001 11.2115 4.86605 
111 1 14.8585 10.7143 7.32185 
119 1 13.6164 10.419 6.66231 
120 1 12.3664 10.7407 7.3229 
122 1 11.2111 11.2116 6.60652 
132 1 9.41489 10.4178 2.46118 
133 1 8.75364 10.7405 3.7108 
140 1 8.75511 10.7138 1.21902 
146 1 14.8577 8.75818 5.36164 
150 1 13.6163 9.41695 5.65917 
151 1 12.3653 8.75759 5.33666 
155 1 10.7134 14.858 7.32251 
159 1 10.4173 13.6162 6.66197 
160 1 10.7404 12.3666 7.32351 
1 1 9.41507 10.4176 13.6156 
2 1 8.75392 10.7406 12.3659 
4 1 9.46977 11.2115 11.2111 
12 1 16.0956 10.4493 9.43543 
15 1 8.75499 10.7138 14.8578 
25 1 13.6189 9.41574 10.4187 
26 1 12.3671 8.7569 10.7406 
28 1 11.2106 9.47159 11.2115 
34 1 9.43433 16.0948 10.4479 
37 1 14.86 8.75807 10.7134 
45 1 10.4172 13.6163 9.41511 
46 1 10.7405 12.3662 8.75385 
48 1 11.211 11.2118 9.4704 
54 1 10.4484 9.43488 16.0944 
57 1 10.7132 14.8581 8.75472 
69 1 10.6931 10.6936 10.693 
88 1 10.4477 16.0934 9.43475 
108 1 16.0955 9.43499 10.4507 
128 1 9.43431 10.4485 16.0943 
165 1 10.4174 9.41566 13.616 
166 1 10.7405 8.75468 12.3659 
173 1 10.7139 8.75504 14.8576 
177 1 9.41495 13.616 10.4172 
178 1 8.75378 12.3664 10.7405 
185 1 8.75498 14.8581 10.7133 
189 1 13.6168 10.4177 9.41622 
190 1 12.3653 10.7409 8.75395 
197 1 14.858 10.7152 8.75372 
ITEM: TIMESTEP
20
ITEM: NUMBER OF ATOMS
202
ITEM: BOX BOUNDS pp pp pp
0.0000000000000000e+00 1.6114000000000001e+01
0.0000000000000000e+00 1.6113000000000000e+01
0.0000000000000000e+00 1.6111999999999998e+01
ITEM: ATOMS id type x y z 
5 1 5.38546 5.38386 5.38099 
65 1 5.65939 6.66156 2.45993 
66 1 5.33821 7.32408 3.70955 
68 1 4.86901 6.6071 4.8646 
79 1 5.36275 7.32247 1.21834 
89 1 6.66208 2.45982 5.65861 
90 1 7.32347 3.70965 5.33696 
92 1 6.60791 4.86522 4.86517 
101 1 7.32213 1.21809 5.36297 
109 1 2.47537 5.65539 6.64151 
110 1 3.71591 5.3381 7.31988 
112 1 4.87013 4.86443 6.60514 
121 1 1.22434 5.37113 7.30524 
129 1 6.66148 5.65908 2.46014 
130 1 7.32335 5.33706 3.70972 
137 1 7.32202 5.36274 1.21869 
141 1 2.46316 6.66442 5.64917 
142 1 3.71508 7.32683 5.33513 
149 1 1.2189 7.32507 5.36039 
153 1 5.65935 2.45924 6.66088 
154 1 5.33877 3.70825 7.32259 
161 1 5.36296 1.21734 7.32224 
7 1 6.66111 5.65965 13.6168 
8 1 7.32317 5.3368 12.367 
10 1 6.60799 4.86547 11.2122 
21 1 7.32208 5.36284 14.8581 
32 1 1.1963 7.31228 10.7034 
40 1 2.45866 6.66798 10.429 
41 1 3.707 7.32458 10.7449 
43 1 4.86556 6.6078 11.2121 
47 1 5.36306 1.21756 8.7548 
55 1 5.66005 2.45809 9.41622 
56 1 5.33982 3.70808 8.75303 
58 1 4.87446 4.8649 9.47167 
64 1 5.62853 6.64252 16.0943 
75 1 5.38502 5.3857 10.6966 
118 1 6.64221 5.62856 16.0943 
168 1 5.65961 6.66193 13.6164 
169 1 5.33723 7.32351 12.366 
176 1 5.36285 7.32253 14.8577 
182 1 7.32207 1.21809 10.714 
186 1 6.66219 2.46013 10.4183 
187 1 7.32341 3.71025 10.7402 
191 1 1.25807 5.43314 8.71725 
195 1 2.47776 5.67115 9.41746 
196 1 3.72782 5.34172 8.75054 
9 1 7.32207 10.7139 1.21883 
19 1 6.66208 10.4178 2.46089 
20 1 7.32324 10.7404 3.7109 
22 1 6.60716 11.2114 4.866 
27 1 1.21847 8.75715 5.36197 
35 1 2.46074 9.41687 5.65943 
36 1 3.71148 8.75784 5.33686 
38 1 4.86738 9.47256 4.86535 
44 1 6.64276 16.0945 5.62919 
50 1 5.65979 13.6159 6.66197 
51 1 5.33657 12.3665 7.32369 
53 1 4.86522 11.2112 6.60736 
62 1 5.36334 14.8576 7.32239 
76 1 5.62881 16.0944 6.6427 
81 1 5.38443 10.6943 5.38428 
167 1 5.36315 8.75505 1.21879 
171 1 5.65957 9.41595 2.46035 
172 1 5.33736 8.75472 3.71028 
180 1 6.66178 13.6162 5.65987 
181 1 7.32331 12.3665 5.33672 
188 1 7.32222 14.8579 5.36362 
194 1 1.21847 10.7142 7.32243 
198 1 2.46049 10.4188 6.66236 
199 1 3.71106 10.7409 7.32409 
17 1 5.38409 10.6931 10.6927 
39 1 6.64296 16.0945 10.4481 
49 1 5.62875 9.43463 16.0941 
73 1 5.36341 8.75523 14.8575 
82 1 5.62894 16.0939 9.43458 
83 1 5.65963 9.41524 13.6155 
84 1 5.33589 8.75452 12.3655 
86 1 4.86487 9.47108 11.211 
91 1 7.32203 14.8578 10.7134 
99 1 6.6622 13.6159 10.4172 
100 1 7.32309 12.3661 10.7406 
102 1 6.60674 11.2112 11.2108 
113 1 6.64277 10.4483 16.0942 
114 1 2.46022 10.4162 9.4159 
115 1 3.70976 10.7405 8.7547 
117 1 4.86569 11.2112 9.4707 
126 1 1.21843 10.7144 8.75522 
131 1 7.322 10.7136 14.8575 
135 1 6.66203 10.4173 13.6156 
136 1 7.32301 10.7406 12.3657 
144 1 2.4559 9.41388 10.4185 
145 1 3.70859 8.75675 10.7417 
152 1 1.21595 8.75333 10.7103 
158 1 5.36357 14.8575 8.75493 
162 1 5.65994 13.6159 9.4152 
163 1 5.33625 12.3658 8.75411 
3 1 8.75496 5.36273 1.21867 
13 1 9.41552 5.65908 2.46015 
14 1 8.75363 5.33705 3.70974 
16 1 9.46904 4.86522 4.86512 
24 1 16.0953 5.62463 6.62346 
30 1 13.6138 6.66442 5.64917 
31 1 12.3619 7.32683 5.33518 
33 1 11.208 6.60712 4.86465 
42 1 14.8579 7.32507 5.36033 
52 1 10.714 1.21734 7.32225 
60 1 10.4176 2.45922 6.66088 
61 1 10.7382 3.70824 7.32264 
63 1 11.207 4.86447 6.60525 
87 1 10.6916 5.38385 5.38101 
98 1 16.0954 6.64178 5.62161 
170 1 10.7143 7.32253 1.21842 
174 1 10.4176 6.66159 2.45993 
175 1 10.7387 7.32411 3.70955 
179 1 8.75486 1.21809 5.36297 
183 1 9.41495 2.4598 5.65862 
184 1 8.75348 3.70963 5.33697 
192 1 13.6016 5.65535 6.64168 
193 1 12.361 5.33809 7.31994 
200 1 14.8526 5.37111 7.30574 
6 1 16.0953 5.48354 9.49815 
23 1 10.692 5.38569 10.6965 
59 1 10.4485 6.64252 16.0943 
67 1 10.7141 7.32248 14.8578 
77 1 10.4174 6.66192 13.6163 
78 1 10.7398 7.32349 12.366 
80 1 11.2115 6.60784 11.2121 
93 1 16.0956 6.64106 10.4373 
94 1 9.41481 2.46013 10.4183 
95 1 8.75363 3.71028 10.7403 
97 1 9.46907 4.86548 11.2122 
106 1 8.75495 1.21809 10.714 
116 1 14.819 5.43304 8.71741 
123 1 9.43479 5.62856 16.0944 
124 1 13.5997 5.67108 9.41731 
125 1 12.3494 5.34175 8.75062 
127 1 11.2025 4.86488 9.47173 
134 1 8.75494 5.36285 14.8581 
138 1 9.41588 5.65964 13.6168 
139 1 8.75385 5.33681 12.367 
143 1 14.8809 7.31233 10.7033 
147 1 13.6183 6.66787 10.4288 
148 1 12.3701 7.32461 10.7449 
156 1 10.417 2.45812 9.4162 
157 1 10.7372 3.70812 8.75309 
164 1 10.7139 1.21757 8.75482 
201 2 16.0956 4.26878 9.58146 
202 3 16.096 3.27034 9.4486 
11 1 10.6925 10.6943 5.38429 
18 1 16.0955 10.4495 6.64296 
29 1 9.43424 16.0944 5.62919 
70 1 10.4482 16.0944 6.6427 
71 1 10.4174 9.41599 2.46031 
72 1 10.7397 8.75478 3.71026 
74 1 11.2096 9.47257 4.8653 
85 1 10.7138 8.75512 1.2187 
96 1 8.75478 14.8579 5.36362 
103 1 16.0954 9.43534 5.62871 
104 1 9.41522 13.6162 5.65988 
105 1 8.7537 12.3665 5.33671 
107 1 9.46987 11.2115 4.86604 
111 1 14.8586 10.7142 7.32245 
119 1 13.6165 10.4189 6.66243 
120 1 12.366 10.741 7.3241 
122 1 11.2118 11.2112 6.6074 
132 1 9.41492 10.4178 2.46085 
133 1 8.75376 10.7404 3.71089 
140 1 8.75495 10.7139 1.21883 
146 1 14.8584 8.75718 5.36193 
150 1 13.6162 9.41691 5.65944 
151 1 12.3655 8.75787 5.33688 
155 1 10.7137 14.8576 7.32239 
159 1 10.4172 13.6158 6.66198 
160 1 10.7404 12.3665 7.32371 
1 1 9.41498 10.4172 13.6156 
2 1 8.75403 10.7406 12.3657 
4 1 9.47028 11.2112 11.2109 
12 1 16.0956 10.449 9.43358 
15 1 8.75499 10.7136 14.8575 
25 1 13.6212 9.41384 10.4184 
26 1 12.3684 8.75669 10.7417 
28 1 11.2122 9.4711 11.2109 
34 1 9.43404 16.0945 10.4481 
37 1 14.8612 8.75339 10.7102 
45 1 10.4171 13.6159 9.41519 
46 1 10.7408 12.3658 8.75413 
48 1 11.2113 11.2112 9.47074 
54 1 10.4483 9.43463 16.094 
57 1 10.7134 14.8575 8.75494 
69 1 10.693 10.6931 10.6926 
88 1 10.4481 16.0939 9.43456 
108 1 16.0955 9.43535 10.4506 
128 1 9.43422 10.4483 16.0941 
165 1 10.4173 9.41521 13.6154 
166 1 10.7411 8.75447 12.3654 
173 1 10.7136 8.75517 14.8574 
177 1 9.41481 13.6159 10.4172 
178 1 8.75394 12.3661 10.7406 
185 1 8.75498 14.8578 10.7133 
189 1 13.6169 10.4162 9.41587 
190 1 12.3673 10.7405 8.75472 
197 1 14.8587 10.7144 8.75525 
ITEM: TIMESTEP
30
ITEM: NUMBER OF ATOMS
202
ITEM: BOX BOUNDS pp pp pp
0.0000000000000000e+00 1.6114000000000001e+01
0.0000000000000000e+00 1.6113000000000000e+01
0.0000000000000000e+00 1.6111999999999998e+01
ITEM: ATOMS id type x y z 
5 1 5.3857 5.38375 5.38171 
65 1 5.65951 6.66168 2.45953 
66 1 5.33911 7.32441 3.70937 
68 1 4.86947 6.60844 4.86497 
79 1 5.36253 7.32255 1.21818 
89 1 6.66159 2.45956 5.65866 
90 1 7.32344 3.7095 5.33686 
92 1 6.60839 4.86496 4.86477 
101 1 7.32219 1.21782 5.36251 
109 1 2.47663 5.65688 6.63966 
110 1 3.71606 5.33922 7.31821 
112 1 4.87248 4.86382 6.60431 
121 1 1.22387 5.38167 7.30679 
129 1 6.66119 5.65905 2.45979 
130 1 7.32332 5.33703 3.70952 
137 1 7.3221 5.36241 1.21846 
141 1 2.46379 6.66316 5.64731 
142 1 3.71685 7.32816 5.33397 
149 1 1.22021 7.32632 5.36033 
153 1 5.65943 2.45856 6.66076 
154 1 5.3393 3.7087 7.32304 
161 1 5.36276 1.21753 7.32231 
7 1 6.66106 5.65972 13.6168 
8 1 7.32326 5.33669 12.3672 
10 1 6.60734 4.86577 11.2121 
21 1 7.32216 5.3627 14.8581 
32 1 1.19282 7.30705 10.6937 
40 1 2.45878 6.66662 10.4284 
41 1 3.70427 7.32449 10.7481 
43 1 4.86554 6.60706 11.2121 
47 1 5.36309 1.21728 8.75501 
55 1 5.66014 2.45902 9.41568 
56 1 5.34016 3.70852 8.75362 
58 1 4.87364 4.86694 9.46935 
64 1 5.62845 6.64263 16.094 
75 1 5.38547 5.38684 10.6963 
118 1 6.64202 5.62854 16.0943 
168 1 5.65962 6.66221 13.6161 
169 1 5.33716 7.32354 12.3654 
176 1 5.36273 7.32254 14.8575 
182 1 7.32204 1.21818 10.7144 
186 1 6.66241 2.46025 10.4184 
187 1 7.32336 3.7103 10.7405 
191 1 1.24967 5.43969 8.71806 
195 1 2.47544 5.67919 9.40652 
196 1 3.72946 5.34548 8.74848 
9 1 7.32213 10.7141 1.21873 
19 1 6.66214 10.418 2.46077 
20 1 7.32323 10.7403 3.7108 
22 1 6.60719 11.2114 4.86606 
27 1 1.2186 8.7562 5.36228 
35 1 2.46097 9.41734 5.66015 
36 1 3.7116 8.75834 5.33678 
38 1 4.86777 9.47297 4.86503 
44 1 6.64251 16.0944 5.62892 
50 1 5.65959 13.6157 6.66208 
51 1 5.33641 12.3659 7.32377 
53 1 4.86504 11.211 6.60793 
62 1 5.36307 14.8576 7.32234 
76 1 5.62865 16.094 6.64258 
81 1 5.38448 10.6948 5.38496 
167 1 5.3631 8.7553 1.21852 
171 1 5.65945 9.41609 2.46017 
172 1 5.33757 8.7554 3.71032 
180 1 6.66153 13.6162 5.65987 
181 1 7.32315 12.3664 5.33688 
188 1 7.32218 14.8579 5.36331 
194 1 1.21836 10.7139 7.32235 
198 1 2.46043 10.4185 6.66252 
199 1 3.71048 10.7408 7.32489 
17 1 5.38396 10.6928 10.6924 
39 1 6.64289 16.0945 10.4483 
49 1 5.62875 9.43461 16.0939 
73 1 5.36335 8.7553 14.8572 
82 1 5.62878 16.094 9.43455 
83 1 5.65947 9.41509 13.6149 
84 1 5.33557 8.75453 12.3653 
86 1 4.86313 9.47076 11.2104 
91 1 7.32211 14.8578 10.7136 
99 1 6.66212 13.6157 10.4173 
100 1 7.32309 12.3658 10.7404 
102 1 6.60626 11.2106 11.2105 
113 1 6.64283 10.4483 16.0941 
114 1 2.45962 10.4148 9.41573 
115 1 3.7084 10.7399 8.75561 
117 1 4.86481 11.2106 9.47067 
126 1 1.21827 10.714 8.75569 
131 1 7.32212 10.7136 14.8573 
135 1 6.66203 10.4171 13.6154 
136 1 7.32307 10.7405 12.3656 
144 1 2.45308 9.41087 10.4185 
145 1 3.70666 8.75693 10.743 
152 1 1.21377 8.74876 10.7063 
158 1 5.36333 14.8573 8.75504 
162 1 5.65973 13.6154 9.41521 
163 1 5.33603 12.3654 8.75442 
3 1 8.75489 5.3624 1.21848 
13 1 9.4158 5.65906 2.4598 
14 1 8.75368 5.33703 3.70953 
16 1 9.46862 4.86496 4.86478 
24 1 16.0954 5.62633 6.62038 
30 1 13.6131 6.66315 5.64734 
31 1 12.3601 7.32817 5.33401 
33 1 11.2075 6.60847 4.86499 
42 1 14.8567 7.32634 5.36029 
52 1 10.7142 1.21753 7.32231 
60 1 10.4176 2.45856 6.66077 
61 1 10.7377 3.70871 7.32305 
63 1 11.2045 4.86383 6.60434 
87 1 10.6913 5.38374 5.38175 
98 1 16.0954 6.64165 5.61854 
170 1 10.7145 7.32258 1.21819 
174 1 10.4175 6.66171 2.45956 
175 1 10.7379 7.32443 3.70939 
179 1 8.75481 1.21782 5.36251 
183 1 9.41542 2.45956 5.65867 
184 1 8.75356 3.7095 5.33687 
192 1 13.6004 5.65689 6.63977 
193 1 12.3609 5.33924 7.31827 
200 1 14.8531 5.38163 7.30713 
6 1 16.0954 5.45487 9.50923 
23 1 10.6916 5.38687 10.6964 
59 1 10.4486 6.64263 16.0941 
67 1 10.7143 7.32251 14.8575 
77 1 10.4174 6.66218 13.6161 
78 1 10.7399 7.32352 12.3654 
80 1 11.2115 6.60705 11.2121 
93 1 16.0956 6.62791 10.4292 
94 1 9.41461 2.46026 10.4184 
95 1 8.75366 3.71031 10.7405 
97 1 9.46968 4.86578 11.2121 
106 1 8.75497 1.21818 10.7144 
116 1 14.8274 5.43959 8.71813 
123 1 9.43498 5.62854 16.0943 
124 1 13.6019 5.67905 9.40646 
125 1 12.3476 5.34547 8.74855 
127 1 11.2034 4.86693 9.46939 
134 1 8.75486 5.36271 14.8582 
138 1 9.41596 5.65971 13.6168 
139 1 8.75376 5.33669 12.3672 
143 1 14.8843 7.30706 10.6937 
147 1 13.6183 6.66662 10.4284 
148 1 12.3728 7.3245 10.7481 
156 1 10.4169 2.45903 9.41568 
157 1 10.7369 3.70851 8.75363 
164 1 10.7139 1.21729 8.75501 
201 2 16.0957 4.26964 9.62871 
202 3 16.096 3.27763 9.46624 
11 1 10.6925 10.6948 5.38498 
18 1 16.0955 10.4487 6.64283 
29 1 9.4345 16.0944 5.62892 
70 1 10.4483 16.094 6.64258 
71 1 10.4176 9.41612 2.46013 
72 1 10.7394 8.75542 3.71029 
74 1 11.2092 9.473 4.86502 
85 1 10.7139 8.75533 1.2185 
96 1 8.75482 14.8579 5.36332 
103 1 16.0955 9.43552 5.62958 
104 1 9.41547 13.6162 5.65988 
105 1 8.75384 12.3664 5.33688 
107 1 9.4698 11.2114 4.86606 
111 1 14.8587 10.7139 7.32237 
119 1 13.6166 10.4184 6.66255 
120 1 12.3666 10.7409 7.32491 
122 1 11.212 11.211 6.60794 
132 1 9.41488 10.418 2.46076 
133 1 8.75379 10.7403 3.71079 
140 1 8.75488 10.7141 1.21871 
146 1 14.8583 8.75621 5.36225 
150 1 13.616 9.41738 5.66016 
151 1 12.3653 8.75834 5.3368 
155 1 10.7139 14.8575 7.32234 
159 1 10.4174 13.6157 6.66208 
160 1 10.7406 12.3659 7.32378 
1 1 9.41497 10.4171 13.6154 
2 1 8.75394 10.7404 12.3656 
4 1 9.47076 11.2106 11.2105 
12 1 16.0956 10.4496 9.43262 
15 1 8.75487 10.7136 14.8573 
25 1 13.624 9.41083 10.4185 
26 1 12.3704 8.75693 10.743 
28 1 11.2139 9.47073 11.2104 
34 1 9.43412 16.0945 10.4483 
37 1 14.8634 8.74877 10.7062 
45 1 10.4173 13.6154 9.4152 
46 1 10.741 12.3654 8.75443 
48 1 11.2122 11.2106 9.47068 
54 1 10.4482 9.4346 16.0938 
57 1 10.7137 14.8573 8.75504 
69 1 10.6931 10.6928 10.6924 
88 1 10.4482 16.094 9.43454 
108 1 16.0956 9.43459 10.4509 
128 1 9.43418 10.4483 16.094 
165 1 10.4175 9.41506 13.6149 
166 1 10.7414 8.75452 12.3652 
173 1 10.7136 8.75527 14.8572 
177 1 9.41489 13.6157 10.4173 
178 1 8.75393 12.3658 10.7404 
185 1 8.7549 14.8578 10.7136 
189 1 13.6175 10.4148 9.41572 
190 1 12.3687 10.7399 8.75564 
197 1 14.8588 10.714 8.75571 
ITEM: TIMESTEP
40
ITEM: NUMBER OF ATOMS
202
ITEM: BOX BOUNDS pp pp pp
0.0000000000000000e+00 1.6114000000000001e+01
0.0000000000000000e+00 1.6113000000000000e+01
0.0000000000000000e+00 1.6111999999999998e+01
ITEM: ATOMS id type x y z 
5 1 5.39048 5.38521 5.37919 
65 1 5.66012 6.66286 2.45759 
66 1 5.34498 7.32735 3.708 
68 1 4.87663 6.61273 4.86478 
79 1 5.36171 7.32339 1.21654 
89 1 6.66062 2.4571 5.65832 
90 1 7.3238 3.7062 5.33664 
92 1 6.61157 4.86306 4.86246 
101 1 7.32214 1.21624 5.36125 
109 1 2.47587 5.67229 6.64133 
110 1 3.72121 5.34497 7.30453 
112 1 4.88098 4.86117 6.60094 
121 1 1.21817 5.41467 7.31173 
129 1 6.66008 5.65838 2.45698 
130 1 7.32365 5.3371 3.70609 
137 1 7.32201 5.361 1.21649 
141 1 2.46813 6.66226 5.63462 
142 1 3.72176 7.33068 5.32985 
149 1 1.22444 7.32821 5.34924 
153 1 5.66041 2.45693 6.66273 
154 1 5.34469 3.70781 7.3249 
161 1 5.36259 1.21592 7.32398 
7 1 6.66195 5.6594 13.6154 
8 1 7.32299 5.33529 12.3656 
10 1 6.60553 4.86655 11.2104 
21 1 7.32214 5.36258 14.8573 
32 1 1.18774 7.28951 10.6692 
40 1 2.46228 6.65668 10.4191 
41 1 3.69858 7.3203 10.7627 
43 1 4.86523 6.60479 11.2134 
47 1 5.36516 1.2191 8.75654 
55 1 5.66138 2.46233 9.41471 
56 1 5.33775 3.71265 8.75492 
58 1 4.87089 4.87548 9.46142 
64 1 5.62807 6.64292 16.0928 
75 1 5.38596 5.38838 10.6896 
118 1 6.6414 5.62848 16.0931 
168 1 5.66076 6.66227 13.6156 
169 1 5.33965 7.32385 12.3649 
176 1 5.3623 7.32297 14.8565 
182 1 7.32216 1.21836 10.7139 
186 1 6.66308 2.46099 10.4173 
187 1 7.32294 3.71114 10.7419 
191 1 1.23202 5.42067 8.71958 
195 1 2.46868 5.69556 9.37393 
196 1 3.73446 5.3624 8.73251 
9 1 7.32211 10.7151 1.2177 
19 1 6.66268 10.4195 2.4601 
20 1 7.32339 10.7404 3.71062 
22 1 6.60801 11.2119 4.86637 
27 1 1.22034 8.75789 5.36267 
35 1 2.46301 9.41872 5.66044 
36 1 3.7136 8.76123 5.33579 
38 1 4.8697 9.47626 4.8642 
44 1 6.64159 16.0935 5.62869 
50 1 5.65944 13.6151 6.66313 
51 1 5.33635 12.3658 7.32574 
53 1 4.8646 11.2101 6.61116 
62 1 5.36253 14.857 7.32338 
76 1 5.62865 16.0931 6.64317 
81 1 5.38523 10.6969 5.38706 
167 1 5.36273 8.75612 1.2171 
171 1 5.65924 9.4181 2.45816 
172 1 5.33983 8.75843 3.70929 
180 1 6.66075 13.6165 5.66063 
181 1 7.3232 12.367 5.33757 
188 1 7.32224 14.8575 5.36304 
194 1 1.21813 10.7144 7.32194 
198 1 2.46056 10.4196 6.66348 
199 1 3.71034 10.7402 7.32801 
17 1 5.38266 10.6912 10.6926 
39 1 6.64374 16.0944 10.448 
49 1 5.62882 9.43501 16.0924 
73 1 5.363 8.75568 14.8558 
82 1 5.62961 16.0944 9.43434 
83 1 5.65894 9.41576 13.6137 
84 1 5.33449 8.75507 12.364 
86 1 4.85749 9.47133 11.2111 
91 1 7.32212 14.8571 10.7131 
99 1 6.66285 13.6147 10.417 
100 1 7.32297 12.3643 10.7398 
102 1 6.60587 11.2091 11.2089 
113 1 6.64318 10.4484 16.0931 
114 1 2.45708 10.4093 9.41698 
115 1 3.70567 10.7369 8.75865 
117 1 4.8626 11.2101 9.47207 
126 1 1.21752 10.7157 8.75561 
131 1 7.32212 10.7131 14.8561 
135 1 6.66236 10.4167 13.6139 
136 1 7.32292 10.7397 12.3637 
144 1 2.44724 9.40126 10.4154 
145 1 3.70026 8.75355 10.752 
152 1 1.20794 8.73176 10.6881 
158 1 5.36389 14.8571 8.75608 
162 1 5.65959 13.6149 9.41574 
163 1 5.33441 12.3647 8.75609 
3 1 8.75501 5.36102 1.21647 
13 1 9.4169 5.65838 2.45698 
14 1 8.75334 5.3371 3.70609 
16 1 9.4654 4.86306 4.86246 
24 1 16.0955 5.6456 6.60952 
30 1 13.6089 6.6623 5.63475 
31 1 12.3552 7.33069 5.32992 
33 1 11.2003 6.61278 4.86481 
42 1 14.8526 7.3282 5.34934 
52 1 10.7144 1.21592 7.32398 
60 1 10.4166 2.45695 6.66273 
61 1 10.7323 3.70783 7.32492 
63 1 11.1961 4.86123 6.60101 
87 1 10.6865 5.38525 5.37921 
98 1 16.0955 6.64602 5.59155 
170 1 10.7153 7.32339 1.21652 
174 1 10.4169 6.66288 2.45757 
175 1 10.732 7.32737 3.70799 
179 1 8.75486 1.21624 5.36125 
183 1 9.41637 2.45711 5.65832 
184 1 8.75318 3.70619 5.33665 
192 1 13.6011 5.67236 6.64143 
193 1 12.3559 5.345 7.30459 
200 1 14.8588 5.41479 7.31196 
6 1 16.0954 5.40369 9.52886 
23 1 10.6911 5.38835 10.6896 
59 1 10.4489 6.64292 16.0928 
67 1 10.7147 7.32299 14.8565 
77 1 10.4163 6.66225 13.6156 
78 1 10.7374 7.32384 12.3649 
80 1 11.2119 6.60482 11.2134 
93 1 16.0955 6.59616 10.4352 
94 1 9.41393 2.46099 10.4173 
95 1 8.75407 3.71113 10.7419 
97 1 9.47148 4.86654 11.2105 
106 1 8.75485 1.21835 10.7139 
116 1 14.845 5.42045 8.71962 
123 1 9.43561 5.62848 16.0931 
124 1 13.6086 5.69551 9.37384 
125 1 12.3426 5.36233 8.73253 
127 1 11.2062 4.87545 9.46143 
134 1 8.75486 5.36256 14.8573 
138 1 9.41507 5.65939 13.6154 
139 1 8.75401 5.3353 12.3656 
143 1 14.8892 7.2895 10.6692 
147 1 13.6148 6.65662 10.419 
148 1 12.3786 7.32026 10.7627 
156 1 10.4156 2.46228 9.41476 
157 1 10.7392 3.71265 8.75496 
164 1 10.7119 1.21907 8.75653 
201 2 16.0955 4.26511 9.82238 
202 3 16.0959 3.29113 9.58904 
11 1 10.6918 10.697 5.38706 
18 1 16.0955 10.4486 6.64198 
29 1 9.43541 16.0935 5.62869 
70 1 10.4484 16.0931 6.64317 
71 1 10.4178 9.41812 2.45817 
72 1 10.7372 8.75844 3.7093 
74 1 11.2073 9.47627 4.86422 
85 1 10.7143 8.75611 1.2171 
96 1 8.75477 14.8575 5.36304 
103 1 16.0955 9.43368 5.63049 
104 1 9.41625 13.6165 5.66064 
105 1 8.7538 12.367 5.33757 
107 1 9.46901 11.2119 4.86638 
111 1 14.8589 10.7145 7.32194 
119 1 13.6164 10.4196 6.66347 
120 1 12.3667 10.7403 7.32802 
122 1 11.2124 11.2101 6.61118 
132 1 9.41435 10.4195 2.46009 
133 1 8.75363 10.7404 3.71061 
140 1 8.75489 10.7151 1.21772 
146 1 14.8567 8.75785 5.36268 
150 1 13.614 9.4187 5.66044 
151 1 12.3634 8.76123 5.33584 
155 1 10.7145 14.857 7.32337 
159 1 10.4176 13.6151 6.66314 
160 1 10.7407 12.3658 7.32576 
1 1 9.41463 10.4167 13.6139 
2 1 8.75411 10.7397 12.3637 
4 1 9.47115 11.2091 11.2089 
12 1 16.0955 10.4539 9.434 
15 1 8.7549 10.7131 14.8561 