ITEM: TIMESTEP
0
ITEM: NUMBER OF ATOMS
65
ITEM: BOX BOUNDS pp pp pp
0.0000000000000000e+00 1.4190000000000000e+01
0.0000000000000000e+00 1.4190000000000000e+01
0.0000000000000000e+00 1.4190000000000000e+01
ITEM: ATOMS id type x y z 
57 1 2.098 0.759 2.098 
58 1 2.801 0.056 2.801 
59 1 0.759 0.759 0.759 
60 1 0.056 0.056 0.056 
61 1 0.759 2.098 2.098 
62 1 0.056 2.801 2.801 
63 1 2.098 2.098 0.759 
64 1 2.801 2.801 0.056 
41 1 4.307 4.307 12.741 
42 1 3.604 3.604 13.443 
43 1 4.307 5.646 11.401 
44 1 3.604 6.348 10.699 
45 1 5.646 5.646 12.741 
46 1 6.348 6.348 13.443 
47 1 5.646 4.307 11.401 
48 1 6.348 3.604 10.699 
25 1 4.307 12.741 4.307 
26 1 3.604 13.443 3.604 
27 1 5.646 11.401 4.307 
28 1 6.348 10.699 3.604 
29 1 5.646 12.741 5.646 
30 1 6.348 13.443 6.348 
31 1 4.307 11.401 5.646 
32 1 3.604 10.699 6.348 
1 1 0.759 9.193 9.193 
2 1 0.056 9.896 9.896 
3 1 2.098 7.854 9.193 
4 1 2.801 7.151 9.896 
5 1 0.759 7.854 7.854 
6 1 0.056 7.151 7.151 
7 1 2.098 9.193 7.854 
8 1 2.801 9.896 7.151 
65 2 6.348 7.698 13.443 
33 1 12.741 4.307 4.307 
34 1 13.443 3.604 3.604 
35 1 11.401 4.307 5.646 
36 1 10.699 3.604 6.348 
37 1 12.741 5.646 5.646 
38 1 13.443 6.348 6.348 
39 1 11.401 5.646 4.307 
40 1 10.699 6.348 3.604 
9 1 9.193 0.759 9.193 
10 1 9.896 0.056 9.896 
11 1 9.193 2.098 7.854 
12 1 9.896 2.801 7.151 
13 1 7.854 0.759 7.854 
14 1 7.151 0.056 7.151 
15 1 7.854 2.098 9.193 
16 1 7.151 2.801 9.896 
17 1 9.193 9.193 0.759 
18 1 9.896 9.896 0.056 
19 1 7.854 9.193 2.098 
20 1 7.151 9.896 2.801 
21 1 7.854 7.854 0.759 
22 1 7.151 7.151 0.056 
23 1 9.193 7.854 2.098 
24 1 9.896 7.151 2.801 
49 1 12.741 12.741 12.741 
50 1 13.443 13.443 13.443 
51 1 12.74 11.401 11.401 
52 1 13.443 10.699 10.699 
53 1 11.401 11.401 12.741 
54 1 10.699 10.699 13.443 
55 1 11.401 12.74 11.401 
56 1 10.699 13.443 10.699 
ITEM: TIMESTEP
10
ITEM: NUMBER OF ATOMS
65
ITEM: BOX BOUNDS pp pp pp
0.0000000000000000e+00 1.4190000000000000e+01
0.0000000000000000e+00 1.4190000000000000e+01
0.0000000000000000e+00 1.4190000000000000e+01
ITEM: ATOMS id type x y z 
57 1 2.08026 0.776862 2.07951 
58 1 2.79222 0.0644812 2.79333 
59 1 0.777231 0.777239 0.776794 
60 1 0.0643728 0.0643809 0.0635447 
61 1 0.776859 2.08024 2.07947 
62 1 0.0645792 2.79233 2.79344 
63 1 2.07882 2.07892 0.776988 
64 1 2.79358 2.79419 0.0616063 
41 1 4.32981 4.32834 12.7259 
42 1 3.6159 3.6142 13.4394 
43 1 4.32975 5.63233 11.4233 
44 1 3.61465 6.34304 10.7092 
45 1 5.60452 5.58748 12.6979 
46 1 6.29312 6.28952 13.3914 
47 1 5.63134 4.3289 11.4243 
48 1 6.34311 3.61376 10.7091 
25 1 4.32505 12.7212 4.32522 
26 1 3.61311 13.4367 3.61114 
27 1 5.62876 11.42 4.32717 
28 1 6.34132 10.7058 3.60941 
29 1 5.62749 12.7227 5.62594 
30 1 6.34089 13.4341 6.34213 
31 1 4.32562 11.4194 5.62663 
32 1 3.6123 10.7054 6.34053 
1 1 0.776741 9.17461 9.17476 
2 1 0.0650242 9.88781 9.88876 
3 1 2.07937 7.87136 9.17303 
4 1 2.79365 7.1581 9.89077 
5 1 0.777268 7.87183 7.87242 
6 1 0.064911 7.1589 7.15829 
7 1 2.08033 9.17406 7.87172 
8 1 2.79229 9.88926 7.16024 
65 2 6.28853 7.76842 13.3836 
33 1 12.7211 4.32531 4.3252 
34 1 13.4365 3.61296 3.61105 
35 1 11.4194 4.32593 5.62663 
36 1 10.7053 3.61196 6.34012 
37 1 12.7225 5.62747 5.62582 
38 1 13.434 6.34098 6.34205 
39 1 11.4203 5.62859 4.32727 
40 1 10.706 6.3412 3.60969 
9 1 9.17448 0.776891 9.17479 
10 1 9.88777 0.0650196 9.88874 
11 1 9.17392 2.08024 7.87182 
12 1 9.88927 2.79266 7.16053 
13 1 7.8718 0.777367 7.87249 
14 1 7.15893 0.064992 7.1584 
15 1 7.87183 2.07955 9.17283 
16 1 7.15785 2.79325 9.89054 
17 1 9.16978 9.17155 0.771971 
18 1 9.88611 9.88623 0.0605104 
19 1 7.86714 9.17147 2.0752 
20 1 7.1547 9.88605 2.79044 
21 1 7.91379 7.89614 0.81893 
22 1 7.24912 7.15798 0.152587 
23 1 9.17019 7.8664 2.07547 
24 1 9.88582 7.15422 2.79096 
49 1 12.7216 12.7216 12.7221 
50 1 13.4355 13.4355 13.4364 
51 1 12.7208 11.4192 11.4204 
52 1 13.4353 10.7068 10.7057 
53 1 11.4214 11.4209 12.724 
54 1 10.704 10.7047 13.4352 
55 1 11.4192 12.7207 11.4203 
56 1 10.7067 13.4354 10.7058 
ITEM: TIMESTEP
20
ITEM: NUMBER OF ATOMS
65
ITEM: BOX BOUNDS pp pp pp
0.0000000000000000e+00 1.4190000000000000e+01
0.0000000000000000e+00 1.4190000000000000e+01
0.0000000000000000e+00 1.4190000000000000e+01
ITEM: ATOMS id type x y z 
57 1 2.07494 0.784619 2.07312 
58 1 2.78965 0.0682559 2.78852 
59 1 0.784912 0.784955 0.781184 
60 1 0.0680561 0.0680643 0.06811 
61 1 0.784224 2.07435 2.0732 
62 1 0.0689562 2.79081 2.78845 
63 1 2.07039 2.07152 0.782291 
64 1 2.78893 2.78849 0.0701689 
41 1 4.33529 4.33072 12.7284 
42 1 3.6139 3.6109 13.4441 
43 1 4.33328 5.63541 11.4278 
44 1 3.61428 6.34834 10.7084 
45 1 5.57221 5.53432 12.665 
46 1 6.23944 6.30019 13.3394 
47 1 5.6335 4.3305 11.43 
48 1 6.34842 3.61093 10.7078 
25 1 4.33182 12.7154 4.33014 
26 1 3.61626 13.4318 3.61437 
27 1 5.62181 11.4281 4.33496 
28 1 6.33411 10.7108 3.61596 
29 1 5.62311 12.715 5.61945 
30 1 6.33743 13.4314 6.33689 
31 1 4.33229 11.4238 5.61984 
32 1 3.61574 10.7099 6.33682 
1 1 0.784571 9.16867 9.1695 
2 1 0.0678271 9.88299 9.88507 
3 1 2.07105 7.87658 9.16663 
4 1 2.78953 7.1653 9.88407 
5 1 0.784613 7.87691 7.87946 
6 1 0.067975 7.16236 7.1632 
7 1 2.07445 9.16815 7.87912 
8 1 2.78999 9.88357 7.16335 
65 2 6.30198 7.74616 13.3972 
33 1 12.715 4.33213 4.32994 
34 1 13.4313 3.61597 3.61429 
35 1 11.4232 4.33266 5.61912 
36 1 10.7101 3.61585 6.33715 
37 1 12.7146 5.62312 5.61933 
38 1 13.4313 6.33765 6.33634 
39 1 11.4297 5.62187 4.33478 
40 1 10.7104 6.33301 3.6173 
9 1 9.16808 0.784839 9.16974 
10 1 9.88299 0.0683007 9.88511 
11 1 9.16723 2.0749 7.87941 
12 1 9.8839 2.78996 7.16367 
13 1 7.87671 0.785008 7.87981 
14 1 7.1624 0.0684625 7.16347 
15 1 7.87748 2.07093 9.16559 
16 1 7.166 2.78891 9.88362 
17 1 9.166 9.1708 0.769393 
18 1 9.88663 9.88965 0.0550546 
19 1 7.86413 9.1712 2.07087 
20 1 7.15019 9.88941 2.79186 
21 1 7.95992 7.92609 0.865405 
22 1 7.26975 7.18924 0.171727 
23 1 9.16824 7.86215 2.07276 
24 1 9.88901 7.14838 2.79369 
49 1 12.7145 12.7145 12.7183 
50 1 13.4319 13.4319 13.4319 
51 1 12.7148 11.4247 11.4265 
52 1 13.4308 10.7092 10.7103 
53 1 11.4294 11.4284 12.7168 
54 1 10.7107 10.7108 13.429 
55 1 11.4247 12.7146 11.4263 
56 1 10.7091 13.4311 10.7105 
ITEM: TIMESTEP
30
ITEM: NUMBER OF ATOMS
65
ITEM: BOX BOUNDS pp pp pp
0.0000000000000000e+00 1.4190000000000000e+01
0.0000000000000000e+00 1.4190000000000000e+01
0.0000000000000000e+00 1.4190000000000000e+01
ITEM: ATOMS id type x y z 
57 1 2.0754 0.784152 2.07357 
58 1 2.79066 0.0679599 2.78894 
59 1 0.784442 0.784496 0.780757 
60 1 0.0678447 0.0678684 0.06669 
61 1 0.784101 2.07532 2.07367 
62 1 0.0680807 2.79103 2.78889 
63 1 2.07027 2.0716 0.782374 
64 1 2.78928 2.78841 0.070615 
41 1 4.33376 4.3288 12.7306 
42 1 3.61258 3.60982 13.4442 
43 1 4.33197 5.63714 11.426 
44 1 3.61322 6.34899 10.7078 
45 1 5.57283 5.53309 12.6657 
46 1 6.23421 6.30187 13.3343 
47 1 5.6353 4.32897 11.4279 
48 1 6.34946 3.60965 10.7073 
25 1 4.3312 12.7161 4.32931 
26 1 3.61577 13.432 3.61407 
27 1 5.62164 11.4279 4.335 
28 1 6.33411 10.711 3.61626 
29 1 5.62386 12.7155 5.62029 
30 1 6.33808 13.4319 6.33681 
31 1 4.33146 11.4236 5.62066 
32 1 3.61576 10.7086 6.33684 
1 1 0.783878 9.16891 9.17012 
2 1 0.0674588 9.88393 9.88544 
3 1 2.07136 7.87675 9.16643 
4 1 2.78945 7.16506 9.88449 
5 1 0.784008 7.87614 7.87897 
6 1 0.0676312 7.1618 7.16268 
7 1 2.07496 9.16898 7.87878 
8 1 2.79052 9.884 7.16276 
65 2 6.30286 7.7436 13.3981 
33 1 12.7157 4.33165 4.32909 
34 1 13.4315 3.61566 3.6139 
35 1 11.4235 4.33158 5.62028 
36 1 10.7083 3.61612 6.33673 
37 1 12.7152 5.6239 5.61989 
38 1 13.4316 6.33824 6.33663 
39 1 11.4296 5.62161 4.3352 
40 1 10.7111 6.3329 3.61711 
9 1 9.16834 0.784287 9.17037 
10 1 9.88374 0.0679221 9.88567 
11 1 9.16863 2.07531 7.87941 
12 1 9.88365 2.79074 7.16289 
13 1 7.87598 0.784496 7.87949 
14 1 7.16164 0.0680499 7.16302 
15 1 7.87792 2.07153 9.16511 
16 1 7.16554 2.78812 9.88405 
17 1 9.1671 9.17257 0.767861 
18 1 9.8874 9.89022 0.0543723 
19 1 7.86272 9.17273 2.07208 
20 1 7.14929 9.8906 2.79211 
21 1 7.96248 7.92608 0.867998 
22 1 7.27118 7.19218 0.173032 
23 1 9.16957 7.86065 2.07418 
24 1 9.88988 7.14699 2.79479 
49 1 12.7153 12.7153 12.719 
50 1 13.4317 13.4318 13.433 
51 1 12.7151 11.4239 11.4257 
52 1 13.4314 10.7087 10.7103 
53 1 11.4297 11.4281 12.7166 
54 1 10.7103 10.7115 13.4289 
55 1 11.4238 12.715 11.4255 
56 1 10.7087 13.4316 10.7105 
ITEM: TIMESTEP
40
ITEM: NUMBER OF ATOMS
65
ITEM: BOX BOUNDS pp pp pp
0.0000000000000000e+00 1.4190000000000000e+01
0.0000000000000000e+00 1.4190000000000000e+01
0.0000000000000000e+00 1.4190000000000000e+01
ITEM: ATOMS id type x y z 
57 1 2.07572 0.7839 2.07388 
58 1 2.79092 0.0678187 2.78909 
59 1 0.784142 0.784364 0.780272 
60 1 0.067734 0.0674732 0.0666537 
61 1 0.784048 2.07587 2.07393 
62 1 0.0674673 2.7908 2.7891 
63 1 2.07026 2.07143 0.782652 
64 1 2.78893 2.78845 0.0705804 
41 1 4.33277 4.32779 12.7315 
42 1 3.61214 3.60897 13.4449 
43 1 4.33112 5.63803 11.4252 
44 1 3.61267 6.34939 10.7072 
45 1 5.57256 5.53152 12.6654 
46 1 6.23179 6.3034 13.3319 
47 1 5.63613 4.32787 11.427 
48 1 6.35023 3.60894 10.7068 
25 1 4.33083 12.7163 4.32902 
26 1 3.6157 13.4322 3.61371 
27 1 5.62157 11.4279 4.33532 
28 1 6.3337 10.7114 3.61584 
29 1 5.62418 12.7158 5.62058 
30 1 6.33854 13.4319 6.33696 
31 1 4.33119 11.4233 5.62101 
32 1 3.6155 10.7083 6.33682 
1 1 0.783516 9.16915 9.17046 
2 1 0.0673575 9.88415 9.88569 
3 1 2.07137 7.8769 9.1665 
4 1 2.78939 7.16507 9.88438 
5 1 0.783633 7.87591 7.87866 
6 1 0.0676116 7.1612 7.16264 
7 1 2.0752 9.16932 7.87848 
8 1 2.79094 9.88416 7.16269 
65 2 6.30318 7.74264 13.3984 
33 1 12.7158 4.33118 4.32874 
34 1 13.4321 3.61602 3.61354 
35 1 11.423 4.3313 5.62048 
36 1 10.7081 3.61596 6.33689 
37 1 12.7154 5.62427 5.62023 
38 1 13.4317 6.33877 6.33656 
39 1 11.4296 5.62125 4.33555 
40 1 10.7117 6.33292 3.61703 
9 1 9.16866 0.784174 9.17086 
10 1 9.88384 0.0676241 9.88582 
11 1 9.16885 2.07565 7.87913 
12 1 9.88387 2.79109 7.16279 
13 1 7.87558 0.784196 7.87929 
14 1 7.16125 0.0680435 7.16282 
15 1 7.87815 2.07135 9.16515 
16 1 7.1655 2.78813 9.88367 
17 1 9.16767 9.17337 0.767105 
18 1 9.88755 9.89112 0.0538196 
19 1 7.86186 9.17371 2.07236 
20 1 7.14905 9.891 2.79308 
21 1 7.96412 7.9261 0.869656 
22 1 7.27225 7.19384 0.174014 
23 1 9.17036 7.85971 2.07492 
24 1 9.89029 7.14616 2.79556 
49 1 12.7154 12.7155 12.7195 
50 1 13.432 13.4322 13.433 
51 1 12.7153 11.4234 11.4255 
52 1 13.4317 10.7085 10.7101 
53 1 11.4297 11.4282 12.7164 
54 1 10.7108 10.7115 13.4289 
55 1 11.4235 12.7154 11.4253 
56 1 10.7084 13.4317 10.7102 
ITEM: TIMESTEP
50
ITEM: NUMBER OF ATOMS
65
ITEM: BOX BOUNDS pp pp pp
0.0000000000000000e+00 1.4190000000000000e+01
0.0000000000000000e+00 1.4190000000000000e+01
0.0000000000000000e+00 1.4190000000000000e+01
ITEM: ATOMS id type x y z 
57 1 2.08026 0.78027 2.07816 
58 1 2.79664 0.0659655 2.79041 
59 1 0.781559 0.780908 0.773499 
60 1 0.0646435 0.0653395 0.0627873 
61 1 0.781587 2.08248 2.07784 
62 1 0.0641583 2.79416 2.79141 
63 1 2.06622 2.06806 0.78804 
64 1 2.78519 2.78386 0.0742854 
41 1 4.31787 4.31056 12.7448 
42 1 3.60075 3.59691 13.4564 
43 1 4.31824 5.64888 11.4115 
44 1 3.60361 6.35822 10.6987 
45 1 5.56359 5.49754 12.657 
46 1 6.18514 6.3271 13.286 
47 1 5.64913 4.31026 11.4119 
48 1 6.36188 3.59698 10.6952 
25 1 4.32609 12.7195 4.32367 
26 1 3.61309 13.4356 3.61004 
27 1 5.61653 11.431 4.33881 
28 1 6.33035 10.7143 3.62036 
29 1 5.63147 12.7186 5.6241 
30 1 6.34002 13.4374 6.33984 
31 1 4.32732 11.4175 5.62438 
32 1 3.61326 10.7047 6.34035 
1 1 0.77952 9.17329 9.17552 
2 1 0.0642149 9.88738 9.88847 
3 1 2.06965 7.87948 9.16432 
4 1 2.78703 7.16851 9.88252 
5 1 0.779784 7.8708 7.87414 
6 1 0.0639644 7.15805 7.15993 
7 1 2.08007 9.17355 7.87443 
8 1 2.79368 9.88698 7.1591 
65 2 6.30997 7.73265 13.4055 
33 1 12.7195 4.32806 4.32271 
34 1 13.4341 3.61296 3.609 
35 1 11.4169 4.32821 5.62411 
36 1 10.7036 3.61282 6.33867 
37 1 12.7179 5.63268 5.62239 
38 1 13.4354 6.34073 6.34025 
39 1 11.4353 5.61501 4.34081 
40 1 10.7171 6.3282 3.62216 
9 1 9.17275 0.781344 9.17683 
10 1 9.88576 0.0643672 9.88989 
11 1 9.17277 2.08255 7.87663 
12 1 9.88626 2.79453 7.15937 
13 1 7.86767 0.781999 7.87602 
14 1 7.16007 0.0628586 7.16027 
15 1 7.88263 2.06716 9.16095 
16 1 7.17031 2.78471 9.88032 
17 1 9.17655 9.19077 0.755473 
18 1 9.89348 9.90248 0.0437441 
19 1 7.84949 9.19094 2.08053 
20 1 7.13965 9.90308 2.79931 
21 1 7.99418 7.92514 0.900253 
22 1 7.29323 7.22599 0.1934 
23 1 9.18618 7.84404 2.08876 
24 1 9.89993 7.13078 2.80786 
49 1 12.7194 12.7189 12.7256 
50 1 13.4342 13.4353 13.4374 
51 1 12.7189 11.4177 11.422 
52 1 13.4343 10.7048 10.7072 
53 1 11.4339 11.4311 12.7117 
54 1 10.7144 10.7152 13.4254 
55 1 11.4181 12.7195 11.4215 
56 1 10.7048 13.4343 10.7071 
ITEM: TIMESTEP
60
ITEM: NUMBER OF ATOMS
65
ITEM: BOX BOUNDS pp pp pp
0.0000000000000000e+00 1.4190000000000000e+01
0.0000000000000000e+00 1.4190000000000000e+01
0.0000000000000000e+00 1.4190000000000000e+01
ITEM: ATOMS id type x y z 
57 1 2.08091 0.781193 2.07709 
58 1 2.79478 0.0656165 2.79127 
59 1 0.781398 0.78152 0.774345 
60 1 0.0654668 0.0654793 0.0625951 
61 1 0.781282 2.08106 2.07739 
62 1 0.0652123 2.79508 2.79111 
63 1 2.06509 2.06689 0.78904 
64 1 2.78454 2.78349 0.0754764 
41 1 4.31837 4.31127 12.7441 
42 1 3.60107 3.59679 13.4556 
43 1 4.31871 5.64821 11.4127 
44 1 3.60455 6.35691 10.6988 
45 1 5.56205 5.49535 12.6556 
46 1 6.18353 6.32668 13.2844 
47 1 5.64895 4.31139 11.4125 
48 1 6.36071 3.5967 10.6954 
25 1 4.32703 12.7196 4.32403 
26 1 3.61336 13.435 3.61007 
27 1 5.61601 11.4311 4.34071 
28 1 6.32911 10.7159 3.61929 
29 1 5.63031 12.719 5.6236 
30 1 6.34185 13.4349 6.33963 
31 1 4.32779 11.4183 5.62428 
32 1 3.6132 10.7046 6.3395 
1 1 0.779893 9.17321 9.17441 
2 1 0.0644687 9.88677 9.88863 
3 1 2.06857 7.881 9.164 
4 1 2.78671 7.16851 9.88148 
5 1 0.780238 7.87064 7.87529 
6 1 0.0646536 7.15865 7.15958 
7 1 2.07912 9.17335 7.87482 
8 1 2.79385 9.88655 7.1596 
65 2 6.31124 7.73442 13.4068 
33 1 12.7183 4.32774 4.32304 
34 1 13.4344 3.61372 3.60935 
35 1 11.4173 4.32784 5.62293 
36 1 10.7039 3.61375 6.33917 
37 1 12.7181 5.63072 5.62286 
38 1 13.4341 6.34268 6.33901 
39 1 11.4366 5.6144 4.34225 
40 1 10.7164 6.32568 3.6226 
9 1 9.17204 0.781259 9.17613 
10 1 9.8861 0.0652646 9.88968 
11 1 9.17237 2.08119 7.87645 
12 1 9.88589 2.79528 7.16024 
13 1 7.86934 0.781491 7.87654 
14 1 7.15761 0.065567 7.16044 
15 1 7.88434 2.06669 9.16007 
16 1 7.17065 2.78339 9.87939 
17 1 9.17606 9.19105 0.75583 
18 1 9.89382 9.90278 0.0450241 
19 1 7.85034 9.19139 2.08061 
20 1 7.14004 9.90282 2.79906 
21 1 7.9947 7.92466 0.900847 
22 1 7.29278 7.22702 0.19286 
23 1 9.1857 7.84333 2.08974 
24 1 9.90216 7.13271 2.80732 
49 1 12.7184 12.7188 12.7254 
50 1 13.4345 13.4347 13.4369 
51 1 12.7185 11.4185 11.4221 
52 1 13.434 10.7048 10.7077 
53 1 11.4352 11.4316 12.711 
54 1 10.7139 10.716 13.424 
55 1 11.4187 12.7187 11.4215 
56 1 10.7047 13.4344 10.7079 
ITEM: TIMESTEP
70
ITEM: NUMBER OF ATOMS
65
ITEM: BOX BOUNDS pp pp pp
0.0000000000000000e+00 1.4190000000000000e+01
0.0000000000000000e+00 1.4190000000000000e+01
0.0000000000000000e+00 1.4190000000000000e+01
ITEM: ATOMS id type x y z 
57 1 2.08085 0.781274 2.07706 
58 1 2.79475 0.0656161 2.79119 
59 1 0.781512 0.781565 0.774368 
60 1 0.0654209 0.0655398 0.0626821 
61 1 0.781322 2.08099 2.07734 
62 1 0.0652901 2.79507 2.79107 
63 1 2.06495 2.06675 0.789221 
64 1 2.78442 2.78338 0.0755983 
41 1 4.31843 4.31133 12.744 
42 1 3.60106 3.5968 13.4555 
43 1 4.31885 5.64802 11.4128 
44 1 3.60457 6.35683 10.6989 
45 1 5.56187 5.49507 12.6554 
46 1 6.18324 6.32667 13.2841 
47 1 5.64886 4.31144 11.4126 
48 1 6.36066 3.59671 10.6954 
25 1 4.32709 12.7195 4.3241 
26 1 3.61337 13.435 3.61014 
27 1 5.61579 11.4311 4.34087 
28 1 6.32908 10.7161 3.61937 
29 1 5.63022 12.7189 5.62354 
30 1 6.34184 13.4349 6.3396 
31 1 4.32792 11.4183 5.6242 
32 1 3.61317 10.7047 6.33951 
1 1 0.779945 9.17318 9.1743 
2 1 0.0644822 9.88668 9.8886 
3 1 2.06851 7.88114 9.16385 
4 1 2.78657 7.16859 9.88143 
5 1 0.78034 7.87067 7.87538 
6 1 0.0646269 7.15879 7.15959 
7 1 2.07911 9.17319 7.87485 
8 1 2.7937 9.88663 7.15965 
65 2 6.31146 7.73463 13.407 
33 1 12.7183 4.3278 4.3231 
34 1 13.4343 3.61373 3.60936 
35 1 11.4174 4.32789 5.62287 
36 1 10.7039 3.6138 6.33914 
37 1 12.7181 5.63062 5.62285 
38 1 13.4341 6.3427 6.33893 
39 1 11.4365 5.61402 4.34242 
40 1 10.7168 6.32578 3.62269 
9 1 9.17199 0.781288 9.17602 
10 1 9.88606 0.0653179 9.88969 
11 1 9.17232 2.08115 7.87652 
12 1 9.88585 2.79521 7.16026 
13 1 7.86939 0.781559 7.87659 
14 1 7.15766 0.0656059 7.16048 
15 1 7.88454 2.06652 9.15996 
16 1 7.17073 2.7833 9.8792 
17 1 9.17592 9.19105 0.755755 
18 1 9.89389 9.90288 0.0452681 
19 1 7.85035 9.19129 2.08062 
20 1 7.14021 9.9031 2.79892 
21 1 7.99477 7.92457 0.900921 
22 1 7.29269 7.2272 0.192754 
23 1 9.18557 7.84319 2.08981 
24 1 9.90237 7.1328 2.80739 
49 1 12.7184 12.7187 12.7253 
50 1 13.4345 13.4346 13.4368 
51 1 12.7184 11.4185 11.4221 
52 1 13.434 10.7049 10.7077 
53 1 11.4352 11.4315 12.7107 
54 1 10.714 10.7163 13.424 
55 1 11.4187 12.7186 11.4215 
56 1 10.7048 13.4344 10.708 
ITEM: TIMESTEP
80
ITEM: NUMBER OF ATOMS
65
ITEM: BOX BOUNDS pp pp pp
0.0000000000000000e+00 1.4190000000000000e+01
0.0000000000000000e+00 1.4190000000000000e+01
0.0000000000000000e+00 1.4190000000000000e+01
ITEM: ATOMS id type x y z 
57 1 2.08084 0.781279 2.07704 
58 1 2.79474 0.0656302 2.7912 
59 1 0.781531 0.781579 0.774362 
60 1 0.0654173 0.0655373 0.0627051 
61 1 0.781335 2.08099 2.07733 
62 1 0.0652892 2.79505 2.79107 
63 1 2.06493 2.06673 0.789259 
64 1 2.78439 2.78335 0.0756019 
41 1 4.31844 4.31134 12.744 
42 1 3.60106 3.5968 13.4555 
43 1 4.31887 5.64799 11.4128 
44 1 3.60458 6.35682 10.6989 
45 1 5.56184 5.49502 12.6554 
46 1 6.1832 6.32667 13.284 
47 1 5.64885 4.31145 11.4126 
48 1 6.36064 3.59672 10.6954 
25 1 4.3271 12.7195 4.32411 
26 1 3.61339 13.435 3.61013 
27 1 5.61576 11.4311 4.34089 
28 1 6.32907 10.7161 3.61938 
29 1 5.63019 12.7189 5.62353 
30 1 6.34184 13.4348 6.33959 
31 1 4.32792 11.4183 5.62418 
32 1 3.61317 10.7048 6.33951 
1 1 0.779956 9.17317 9.17429 
2 1 0.064483 9.88668 9.88859 
3 1 2.0685 7.88116 9.16382 
4 1 2.78655 7.1686 9.88142 
5 1 0.780357 7.87067 7.8754 
6 1 0.0646243 7.15882 7.15958 
7 1 2.07909 9.17318 7.87485 
8 1 2.7937 9.88662 7.15966 
65 2 6.31149 7.73466 13.4071 
33 1 12.7183 4.32781 4.32311 
34 1 13.4343 3.61373 3.60936 
35 1 11.4174 4.32789 5.62286 
36 1 10.7039 3.61381 6.33914 
37 1 12.7181 5.6306 5.62284 
38 1 13.4341 6.3427 6.33892 
39 1 11.4365 5.61395 4.34245 
40 1 10.7169 6.3258 3.62271 
9 1 9.17198 0.781297 9.17601 
10 1 9.88605 0.0653253 9.88969 
11 1 9.17231 2.08114 7.87653 
12 1 9.88585 2.7952 7.16027 
13 1 7.86939 0.78158 7.8766 
14 1 7.15768 0.0655958 7.16049 
15 1 7.88458 2.0665 9.15994 
16 1 7.17074 2.78328 9.87918 
17 1 9.1759 9.19104 0.755742 
18 1 9.8939 9.90291 0.0453181 
19 1 7.85036 9.19131 2.08061 
20 1 7.14021 9.9031 2.79891 
21 1 7.99478 7.92455 0.900933 
22 1 7.29267 7.22723 0.192737 
23 1 9.18555 7.84316 2.08982 
24 1 9.9024 7.13283 2.80741 
49 1 12.7184 12.7187 12.7253 
50 1 13.4344 13.4346 13.4368 
51 1 12.7184 11.4185 11.4222 
52 1 13.434 10.7049 10.7077 
53 1 11.4352 11.4315 12.7106 
54 1 10.714 10.7163 13.424 
55 1 11.4187 12.7186 11.4216 
56 1 10.7048 13.4344 10.708 
ITEM: TIMESTEP
90
ITEM: NUMBER OF ATOMS
65
ITEM: BOX BOUNDS pp pp pp
0.0000000000000000e+00 1.4190000000000000e+01
0.0000000000000000e+00 1.4190000000000000e+01
0.0000000000000000e+00 1.4190000000000000e+01
ITEM: ATOMS id type x y z 
57 1 2.08084 0.78128 2.07704 
58 1 2.79474 0.06563 2.7912 
59 1 0.781533 0.78158 0.774363 
60 1 0.065418 0.0655378 0.0627058 
61 1 0.781337 2.08098 2.07733 
62 1 0.0652887 2.79505 2.79107 
63 1 2.06493 2.06673 0.789259 
64 1 2.78439 2.78335 0.0756085 
41 1 4.31844 4.31134 12.744 
42 1 3.60106 3.5968 13.4555 
43 1 4.31887 5.64799 11.4128 
44 1 3.60458 6.35682 10.6989 
45 1 5.56183 5.49502 12.6554 
46 1 6.18319 6.32666 13.284 
47 1 5.64885 4.31145 11.4126 
48 1 6.36064 3.59672 10.6954 
25 1 4.3271 12.7195 4.32411 
26 1 3.61338 13.435 3.61014 
27 1 5.61575 11.4311 4.34089 
28 1 6.32907 10.7161 3.61938 
29 1 5.63019 12.7189 5.62353 
30 1 6.34184 13.4348 6.33959 
31 1 4.32792 11.4183 5.62418 
32 1 3.61318 10.7048 6.33951 
1 1 0.779955 9.17317 9.17429 
2 1 0.0644855 9.88668 9.88859 
3 1 2.0685 7.88116 9.16382 
4 1 2.78654 7.1686 9.88142 
5 1 0.780359 7.87067 7.8754 
6 1 0.0646246 7.15882 7.15958 
7 1 2.07909 9.17318 7.87485 
8 1 2.7937 9.88662 7.15966 
65 2 6.3115 7.73466 13.4071 
33 1 12.7183 4.32781 4.32311 
34 1 13.4343 3.61373 3.60936 
35 1 11.4174 4.32789 5.62286 
36 1 10.7039 3.61381 6.33914 
37 1 12.7181 5.6306 5.62284 
38 1 13.4341 6.3427 6.33892 
39 1 11.4365 5.61394 4.34245 
40 1 10.7169 6.3258 3.62271 
9 1 9.17197 0.781297 9.176 
10 1 9.88605 0.0653278 9.88969 
11 1 9.17231 2.08114 7.87653 
12 1 9.88585 2.7952 7.16027 
13 1 7.86939 0.781582 7.8766 
14 1 7.15768 0.0655967 7.16049 
15 1 7.88458 2.0665 9.15994 
16 1 7.17075 2.78327 9.87918 
17 1 9.1759 9.19104 0.75574 
18 1 9.8939 9.90292 0.0453236 
19 1 7.85036 9.19131 2.08061 
20 1 7.14022 9.90311 2.79891 
21 1 7.99479 7.92455 0.900934 
22 1 7.29267 7.22724 0.192735 
23 1 9.18555 7.84315 2.08982 
24 1 9.9024 7.13283 2.80741 
49 1 12.7184 12.7187 12.7253 
50 1 13.4344 13.4346 13.4368 
51 1 12.7184 11.4185 11.4222 
52 1 13.434 10.7049 10.7077 
53 1 11.4352 11.4315 12.7106 
54 1 10.714 10.7163 13.424 
55 1 11.4187 12.7186 11.4216 
56 1 10.7048 13.4344 10.708 
ITEM: TIMESTEP
92
ITEM: NUMBER OF ATOMS
65
ITEM: BOX BOUNDS pp pp pp
0.0000000000000000e+00 1.4190000000000000e+01
0.0000000000000000e+00 1.4190000000000000e+01
0.0000000000000000e+00 1.4190000000000000e+01
ITEM: ATOMS id type x y z 
57 1 2.08084 0.78128 2.07704 
58 1 2.79474 0.0656297 2.7912 
59 1 0.781533 0.78158 0.774363 
60 1 0.0654183 0.0655379 0.0627056 
61 1 0.781337 2.08099 2.07733 
62 1 0.065289 2.79505 2.79107 
63 1 2.06493 2.06673 0.789259 
64 1 2.78439 2.78335 0.0756082 
41 1 4.31844 4.31134 12.744 
42 1 3.60106 3.5968 13.4555 
43 1 4.31887 5.64799 11.4128 
44 1 3.60458 6.35682 10.6989 
45 1 5.56183 5.49502 12.6554 
46 1 6.18319 6.32666 13.284 
47 1 5.64885 4.31145 11.4126 
48 1 6.36064 3.59672 10.6954 
25 1 4.3271 12.7195 4.32411 
26 1 3.61338 13.435 3.61014 
27 1 5.61575 11.4311 4.34089 
28 1 6.32907 10.7161 3.61938 
29 1 5.63019 12.7189 5.62353 
30 1 6.34184 13.4348 6.33959 
31 1 4.32792 11.4183 5.62418 
32 1 3.61318 10.7048 6.33951 
1 1 0.779955 9.17317 9.17429 
2 1 0.0644854 9.88668 9.88859 
3 1 2.0685 7.88116 9.16382 
4 1 2.78654 7.1686 9.88142 
5 1 0.780359 7.87067 7.8754 
6 1 0.0646247 7.15882 7.15958 
7 1 2.07909 9.17318 7.87485 
8 1 2.7937 9.88662 7.15966 
65 2 6.3115 7.73466 13.4071 
33 1 12.7183 4.32781 4.32311 
34 1 13.4343 3.61373 3.60936 
35 1 11.4174 4.32789 5.62286 
36 1 10.7039 3.61381 6.33914 
37 1 12.7181 5.6306 5.62284 
38 1 13.4341 6.3427 6.33892 
39 1 11.4365 5.61394 4.34245 
40 1 10.7169 6.3258 3.62271 
9 1 9.17197 0.781297 9.176 
10 1 9.88605 0.0653275 9.88969 
11 1 9.17231 2.08114 7.87653 
12 1 9.88585 2.7952 7.16027 
13 1 7.86939 0.781582 7.8766 
14 1 7.15768 0.0655967 7.16049 
15 1 7.88458 2.0665 9.15994 
16 1 7.17075 2.78327 9.87918 
17 1 9.1759 9.19104 0.75574 
18 1 9.8939 9.90292 0.045324 
19 1 7.85036 9.19131 2.08061 
20 1 7.14022 9.90311 2.79891 
21 1 7.99479 7.92455 0.900934 
22 1 7.29267 7.22724 0.192735 
23 1 9.18555 7.84315 2.08982 
24 1 9.9024 7.13283 2.80741 
49 1 12.7184 12.7187 12.7253 
50 1 13.4344 13.4346 13.4368 
51 1 12.7184 11.4185 11.4222 
52 1 13.434 10.7049 10.7077 
53 1 11.4352 11.4315 12.7106 
54 1 10.714 10.7163 13.424 
55 1 11.4187 12.7186 11.4216 
56 1 10.7048 13.4344 10.708 
ITEM: TIMESTEP
93
ITEM: NUMBER OF ATOMS
65
ITEM: BOX BOUNDS pp pp pp
0.0000000000000000e+00 1.4190000000000000e+01
0.0000000000000000e+00 1.4190000000000000e+01
0.0000000000000000e+00 1.4190000000000000e+01
ITEM: ATOMS id type x y z 
57 1 2.08084 0.78128 2.07704 
58 1 2.79474 0.0656298 2.7912 
59 1 0.781533 0.78158 0.774363 
60 1 0.0654182 0.0655378 0.0627057 
61 1 0.781337 2.08099 2.07733 
62 1 0.0652889 2.79505 2.79107 
63 1 2.06493 2.06673 0.789259 
64 1 2.78439 2.78335 0.0756082 
41 1 4.31844 4.31134 12.744 
42 1 3.60106 3.5968 13.4555 
43 1 4.31887 5.64799 11.4128 
44 1 3.60458 6.35682 10.6989 
45 1 5.56183 5.49502 12.6554 
46 1 6.18319 6.32666 13.284 
47 1 5.64885 4.31145 11.4126 
48 1 6.36064 3.59672 10.6954 
25 1 4.3271 12.7195 4.32411 
26 1 3.61338 13.435 3.61014 
27 1 5.61575 11.4311 4.34089 
28 1 6.32907 10.7161 3.61938 
29 1 5.63019 12.7189 5.62353 
30 1 6.34184 13.4348 6.33959 
31 1 4.32792 11.4183 5.62418 
32 1 3.61318 10.7048 6.33951 
1 1 0.779955 9.17317 9.17429 
2 1 0.0644855 9.88668 9.88859 
3 1 2.0685 7.88116 9.16382 
4 1 2.78654 7.1686 9.88142 
5 1 0.780359 7.87067 7.8754 
6 1 0.0646247 7.15882 7.15958 
7 1 2.07909 9.17318 7.87485 
8 1 2.7937 9.88662 7.15966 
65 2 6.3115 7.73466 13.4071 
33 1 12.7183 4.32781 4.32311 
34 1 13.4343 3.61373 3.60936 
35 1 11.4174 4.32789 5.62286 
36 1 10.7039 3.61381 6.33914 
37 1 12.7181 5.6306 5.62284 
38 1 13.4341 6.3427 6.33892 
39 1 11.4365 5.61394 4.34245 
40 1 10.7169 6.3258 3.62271 
9 1 9.17197 0.781297 9.176 
10 1 9.88605 0.0653276 9.88969 
11 1 9.17231 2.08114 7.87653 
12 1 9.88585 2.7952 7.16027 
13 1 7.86939 0.781582 7.8766 
14 1 7.15768 0.0655968 7.16049 
15 1 7.88458 2.0665 9.15994 
16 1 7.17075 2.78327 9.87918 
17 1 9.1759 9.19104 0.75574 
18 1 9.8939 9.90292 0.045324 
19 1 7.85036 9.19131 2.08061 
20 1 7.14022 9.90311 2.79891 
21 1 7.99479 7.92455 0.900934 
22 1 7.29267 7.22724 0.192735 
23 1 9.18555 7.84315 2.08982 
24 1 9.9024 7.13283 2.80741 
49 1 12.7184 12.7187 12.7253 
50 1 13.4344 13.4346 13.4368 
51 1 12.7184 11.4185 11.4222 
52 1 13.434 10.7049 10.7077 
53 1 11.4352 11.4315 12.7106 
54 1 10.714 10.7163 13.424 
55 1 11.4187 12.7186 11.4216 
56 1 10.7048 13.4344 10.708 
ITEM: TIMESTEP
100
ITEM: NUMBER OF ATOMS
65
ITEM: BOX BOUNDS pp pp pp
4.9655905833132169e-03 1.4185034409416685e+01
4.7607793935857288e-03 1.4185239220606412e+01
4.9665000000000004e-03 1.4185033500000005e+01
ITEM: ATOMS id type x y z 
57 1 2.08434 0.785526 2.08054 
58 1 2.79777 0.0703381 2.79422 
59 1 0.785961 0.785827 0.778799 
60 1 0.0703292 0.0702437 0.0676129 
61 1 0.785768 2.08434 2.08084 
62 1 0.0701929 2.79795 2.79409 
63 1 2.06843 2.07009 0.793689 
64 1 2.78742 2.78625 0.0805111 
41 1 4.3204 4.31323 12.74 
42 1 3.60349 3.59913 13.4511 
43 1 4.32083 5.64894 11.4098 
44 1 3.60701 6.35732 10.6964 
45 1 5.5629 5.49608 12.6515 
46 1 6.18382 6.32718 13.2797 
47 1 5.64984 4.31333 11.4096 
48 1 6.36118 3.59905 10.6929 
25 1 4.32905 12.7157 4.32606 
26 1 3.61581 13.4307 3.61256 
27 1 5.61678 11.4282 4.34283 
28 1 6.32961 10.7137 3.6218 
29 1 5.63121 12.7151 5.62455 
30 1 6.34237 13.4306 6.34013 
31 1 4.32987 11.4154 5.6252 
32 1 3.6156 10.7023 6.34005 
1 1 0.784387 9.17177 9.17282 
2 1 0.0693907 9.88481 9.88664 
3 1 2.072 7.88064 9.16236 
4 1 2.78957 7.16855 9.87948 
5 1 0.78479 7.87016 7.87486 
6 1 0.0695303 7.15876 7.15953 
7 1 2.08259 9.17178 7.87431 
8 1 2.79672 9.88476 7.15961 
65 2 6.31205 7.73424 13.4027 
33 1 12.7143 4.32968 4.32506 
34 1 13.4299 3.61606 3.61179 
35 1 11.4144 4.32976 5.62388 
36 1 10.7013 3.61613 6.33968 
37 1 12.7141 5.63157 5.62387 
38 1 13.4296 6.34322 6.33946 
39 1 11.4335 5.61491 4.3444 
40 1 10.7143 6.32633 3.62513 
9 1 9.17051 0.785544 9.17454 
10 1 9.88411 0.0700338 9.88775 
11 1 9.17084 2.08449 7.87599 
12 1 9.88391 2.7981 7.16021 
13 1 7.86886 0.785828 7.87607 
14 1 7.15763 0.0703038 7.16043 
15 1 7.88404 2.06986 9.15848 
16 1 7.17068 2.78617 9.87724 
17 1 9.17443 9.18962 0.760185 
18 1 9.89195 9.90106 0.0502542 
19 1 7.84985 9.18989 2.0841 
20 1 7.14017 9.90124 2.80194 
21 1 7.99417 7.924 0.905284 
22 1 7.29252 7.22714 0.197553 
23 1 9.18407 7.84266 2.09331 
24 1 9.90046 7.13279 2.81043 
49 1 12.7145 12.7149 12.7213 
50 1 13.43 13.4304 13.4324 
51 1 12.7145 11.4156 11.4191 
52 1 13.4296 10.7025 10.7052 
53 1 11.4322 11.4286 12.7067 
54 1 10.7115 10.7139 13.4196 
55 1 11.4157 12.7148 11.4185 
56 1 10.7023 13.4301 10.7055 
ITEM: TIMESTEP
110
ITEM: NUMBER OF ATOMS
65
ITEM: BOX BOUNDS pp pp pp
1.2060584446531955e-02 1.4177939415553473e+01
9.0329553147220683e-03 1.4180967044685275e+01
1.2052863482223225e-02 1.4177947136517785e+01
ITEM: ATOMS id type x y z 
57 1 2.08904 0.789636 2.08525 
58 1 2.80246 0.0741782 2.79891 
59 1 0.792576 0.78994 0.785424 
60 1 0.0769704 0.0740883 0.0742382 
61 1 0.792395 2.08705 2.08554 
62 1 0.0768246 2.80093 2.79878 
63 1 2.07313 2.07279 0.800322 
64 1 2.79207 2.78918 0.0871936 
41 1 4.32358 4.31532 12.7339 
42 1 3.60647 3.60072 13.4453 
43 1 4.32399 5.64943 11.4058 
44 1 3.61006 6.3582 10.6924 
45 1 5.56432 5.49685 12.6458 
46 1 6.18468 6.32771 13.2734 
47 1 5.65087 4.31543 11.4057 
48 1 6.36243 3.60064 10.6888 
25 1 4.33213 12.712 4.32915 
26 1 3.6189 13.4273 3.61565 
27 1 5.61793 11.4259 4.3459 
28 1 6.33072 10.7112 3.62493 
29 1 5.63235 12.7114 5.62571 
30 1 6.34352 13.4272 6.34127 
31 1 4.33294 11.4131 5.62636 
32 1 3.61869 10.6998 6.3412 
1 1 0.791003 9.17021 9.17042 
2 1 0.0760385 9.88353 9.88424 
3 1 2.07672 7.88049 9.15998 
4 1 2.79422 7.16815 9.87705 
5 1 0.79141 7.87003 7.87439 
6 1 0.076169 7.15833 7.15907 
7 1 2.08727 9.17022 7.87384 
8 1 2.80141 9.88347 7.15914 
65 2 6.31284 7.73407 13.3964 
33 1 12.7084 4.33165 4.32813 
34 1 13.424 3.61776 3.61488 
35 1 11.4104 4.33173 5.62504 
36 1 10.6973 3.61783 6.34083 
37 1 12.7082 5.63215 5.62503 
38 1 13.4237 6.34407 6.3406 
39 1 11.4294 5.61536 4.34749 
40 1 10.7105 6.32727 3.62826 
9 1 9.16812 0.789657 9.17215 
10 1 9.88171 0.0738785 9.88535 
11 1 9.16846 2.08719 7.87552 
12 1 9.8815 2.80109 7.15976 
13 1 7.8684 0.789942 7.87559 
14 1 7.15717 0.074141 7.15998 
15 1 7.88358 2.07255 9.15608 
16 1 7.17029 2.78911 9.8748 
17 1 9.17195 9.18798 0.766866 
18 1 9.88963 9.89996 0.0568571 
19 1 7.84948 9.1883 2.08869 
20 1 7.13963 9.90007 2.80672 
21 1 7.99361 7.92378 0.91182 
22 1 7.29201 7.2267 0.204118 
23 1 9.18153 7.84255 2.09793 