LAMMPS (3 Mar 2020)
# Alpha
clear
units		real
dimension 3
boundary        p p p
atom_style	charge
newton on
read_data       OOH_2.lmp
  orthogonal box = (0 0 0) to (21.884 21.886 21.885)
  2 by 2 by 2 MPI processor grid
  reading atoms ...
  147 atoms
  read_data CPU = 0.00207054 secs

timestep 0.25

# ---------- Define Interatomic Potential ---------------------
pair_style      reax/c NULL checkqeq no
pair_coeff      * * ffield.reax C H O
fix             2 all qeq/reax 1 0.0 10.0 1.0e-6 reax/c

#------------ Equilibration of the system -------------------------
reset_timestep 0

dump 1 all custom 10 min.lammpstrj id type x y z

minimize 1.0e-8 1.0e-8 100000 100000
WARNING: Using 'neigh_modify every 1 delay 0 check yes' setting during minimization (../min.cpp:190)
WARNING: Total cutoff < 2*bond cutoff. May need to use an increased neighbor list skin. (../pair_reaxc.cpp:413)
Neighbor list info ...
  update every 1 steps, delay 0 steps, check yes
  max neighbors/atom: 2000, page size: 100000
  master list distance cutoff = 9.5
  ghost atom cutoff = 9.5
  binsize = 4.75, bins = 5 5 5
  2 neighbor lists, perpetual/occasional/extra = 2 0 0
  (1) pair reax/c, perpetual
      attributes: half, newton off, ghost
      pair build: half/bin/newtoff/ghost
      stencil: half/ghost/bin/3d/newtoff
      bin: standard
  (2) fix qeq/reax, perpetual, copy from (1)
      attributes: half, newton off, ghost
      pair build: copy
      stencil: none
      bin: none
Per MPI rank memory allocation (min/avg/max) = 12.7 | 13.64 | 15.25 Mbytes
Step Temp E_pair E_mol TotEng Press 
       0            0   -26369.121            0   -26369.121    617.19528 
      90            0   -26420.742            0   -26420.742    172.20086 
Loop time of 1.33229 on 8 procs for 90 steps with 147 atoms

99.5% CPU use with 8 MPI tasks x no OpenMP threads

Minimization stats:
  Stopping criterion = linesearch alpha is zero
  Energy initial, next-to-last, final = 
        -26369.1210289     -26420.7417453     -26420.7417453
  Force two-norm initial, final = 306.073 42.0514
  Force max component initial, final = 146.2 21.6682
  Final line search alpha, max atom move = 5.06741e-11 1.09801e-09
  Iterations, force evaluations = 90 444

MPI task timing breakdown:
Section |  min time  |  avg time  |  max time  |%varavg| %total
---------------------------------------------------------------
Pair    | 0.27604    | 0.33188    | 0.50367    |  16.5 | 24.91
Neigh   | 0          | 0          | 0          |   0.0 |  0.00
Comm    | 0.019597   | 0.18734    | 0.24702    |  21.4 | 14.06
Output  | 0.00048312 | 0.00056428 | 0.00067168 |   0.0 |  0.04
Modify  | 0.80175    | 0.80463    | 0.80693    |   0.3 | 60.39
Other   |            | 0.007878   |            |       |  0.59

Nlocal:    18.375 ave 72 max 0 min
Histogram: 6 0 0 0 0 0 0 0 0 2
Nghost:    312.125 ave 319 max 307 min
Histogram: 1 2 1 0 2 0 0 0 0 2
Neighs:    618.375 ave 2415 max 0 min
Histogram: 6 0 0 0 0 0 0 0 0 2

Total # of neighbors = 4947
Ave neighs/atom = 33.6531
Neighbor list builds = 0
Dangerous builds = 0

###
min_style cg
minimize 1.0e-8 1.0e-8 100000 100000
WARNING: Using 'neigh_modify every 1 delay 0 check yes' setting during minimization (../min.cpp:190)
WARNING: Total cutoff < 2*bond cutoff. May need to use an increased neighbor list skin. (../pair_reaxc.cpp:413)
Per MPI rank memory allocation (min/avg/max) = 12.7 | 13.65 | 15.25 Mbytes
Step Temp E_pair E_mol TotEng Press 
      90            0   -26420.742            0   -26420.742    172.20086 
     133            0   -26422.233            0   -26422.233   -211.00717 
Loop time of 0.725785 on 8 procs for 43 steps with 147 atoms

99.6% CPU use with 8 MPI tasks x no OpenMP threads

Minimization stats:
  Stopping criterion = energy tolerance
  Energy initial, next-to-last, final = 
        -26420.7417453     -26422.2326584     -26422.2328851
  Force two-norm initial, final = 42.0514 18.407
  Force max component initial, final = 21.6682 4.76358
  Final line search alpha, max atom move = 0.000252323 0.00120196
  Iterations, force evaluations = 43 242

MPI task timing breakdown:
Section |  min time  |  avg time  |  max time  |%varavg| %total
---------------------------------------------------------------
Pair    | 0.15112    | 0.18177    | 0.27453    |  12.0 | 25.04
Neigh   | 0          | 0          | 0          |   0.0 |  0.00
Comm    | 0.010465   | 0.10106    | 0.13121    |  15.6 | 13.92
Output  | 0.0002354  | 0.00027354 | 0.00032566 |   0.0 |  0.04
Modify  | 0.43656    | 0.43816    | 0.43938    |   0.2 | 60.37
Other   |            | 0.004514   |            |       |  0.62

Nlocal:    18.375 ave 71 max 0 min
Histogram: 6 0 0 0 0 0 0 0 0 2
Nghost:    312.625 ave 321 max 307 min
Histogram: 1 2 1 1 1 0 0 0 0 2
Neighs:    622.125 ave 2387 max 0 min
Histogram: 6 0 0 0 0 0 0 0 0 2

Total # of neighbors = 4977
Ave neighs/atom = 33.8571
Neighbor list builds = 0
Dangerous builds = 0

###
fix 1 all box/relax aniso 0.0
min_style cg
minimize 1.0e-8 1.0e-8 100000 100000
WARNING: Using 'neigh_modify every 1 delay 0 check yes' setting during minimization (../min.cpp:190)
WARNING: Total cutoff < 2*bond cutoff. May need to use an increased neighbor list skin. (../pair_reaxc.cpp:413)
Per MPI rank memory allocation (min/avg/max) = 12.7 | 13.65 | 15.25 Mbytes
Step Temp E_pair E_mol TotEng Press Volume 
     133            0   -26422.233            0   -26422.233   -211.00717    10481.891 
     137            0   -26422.239            0   -26422.239    2.5650307    10480.543 
Loop time of 0.0194943 on 8 procs for 4 steps with 147 atoms

98.8% CPU use with 8 MPI tasks x no OpenMP threads

Minimization stats:
  Stopping criterion = energy tolerance
  Energy initial, next-to-last, final = 
        -26422.2328851     -26422.2386374      -26422.238886
  Force two-norm initial, final = 61.198 25.0047
  Force max component initial, final = 44.9925 7.80446
  Final line search alpha, max atom move = 8.30534e-06 6.48187e-05
  Iterations, force evaluations = 4 8

MPI task timing breakdown:
Section |  min time  |  avg time  |  max time  |%varavg| %total
---------------------------------------------------------------
Pair    | 0.0055436  | 0.0066661  | 0.0099939  |   2.2 | 34.20
Neigh   | 0          | 0          | 0          |   0.0 |  0.00
Comm    | 0.00039981 | 0.0036382  | 0.0047703  |   3.0 | 18.66
Output  | 0          | 0          | 0          |   0.0 |  0.00
Modify  | 0.0087092  | 0.0087649  | 0.0088195  |   0.0 | 44.96
Other   |            | 0.0004251  |            |       |  2.18

Nlocal:    18.375 ave 71 max 0 min
Histogram: 6 0 0 0 0 0 0 0 0 2
Nghost:    312.625 ave 321 max 306 min
Histogram: 1 0 3 0 2 0 0 0 0 2
Neighs:    621 ave 2386 max 0 min
Histogram: 6 0 0 0 0 0 0 0 0 2

Total # of neighbors = 4968
Ave neighs/atom = 33.7959
Neighbor list builds = 0
Dangerous builds = 0

unfix 1
###
min_style cg
minimize 1.0e-8 1.0e-8 100000 100000
WARNING: Using 'neigh_modify every 1 delay 0 check yes' setting during minimization (../min.cpp:190)
WARNING: Total cutoff < 2*bond cutoff. May need to use an increased neighbor list skin. (../pair_reaxc.cpp:413)
Per MPI rank memory allocation (min/avg/max) = 12.7 | 13.65 | 15.25 Mbytes
Step Temp E_pair E_mol TotEng Press 
     137            0   -26422.239            0   -26422.239    2.5650307 
     139            0   -26422.248            0   -26422.248   0.67368244 
Loop time of 0.0463914 on 8 procs for 2 steps with 147 atoms

99.6% CPU use with 8 MPI tasks x no OpenMP threads

Minimization stats:
  Stopping criterion = energy tolerance
  Energy initial, next-to-last, final = 
         -26422.238886     -26422.2475607     -26422.2476302
  Force two-norm initial, final = 24.8696 19.1581
  Force max component initial, final = 7.80446 4.76074
  Final line search alpha, max atom move = 0.00131282 0.00624999
  Iterations, force evaluations = 2 15

MPI task timing breakdown:
Section |  min time  |  avg time  |  max time  |%varavg| %total
---------------------------------------------------------------
Pair    | 0.0099558  | 0.01196    | 0.01795    |   3.0 | 25.78
Neigh   | 0          | 0          | 0          |   0.0 |  0.00
Comm    | 0.00068953 | 0.0065393  | 0.0085581  |   4.0 | 14.10
Output  | 0          | 0          | 0          |   0.0 |  0.00
Modify  | 0.027426   | 0.027535   | 0.027619   |   0.1 | 59.35
Other   |            | 0.0003579  |            |       |  0.77

Nlocal:    18.375 ave 71 max 0 min
Histogram: 6 0 0 0 0 0 0 0 0 2
Nghost:    312.625 ave 321 max 306 min
Histogram: 1 0 3 0 2 0 0 0 0 2
Neighs:    621.25 ave 2387 max 0 min
Histogram: 6 0 0 0 0 0 0 0 0 2

Total # of neighbors = 4970
Ave neighs/atom = 33.8095
Neighbor list builds = 0
Dangerous builds = 0

###
fix 1 all box/relax aniso 0.0
min_style cg
minimize 1.0e-8 1.0e-8 100000 100000
WARNING: Using 'neigh_modify every 1 delay 0 check yes' setting during minimization (../min.cpp:190)
WARNING: Total cutoff < 2*bond cutoff. May need to use an increased neighbor list skin. (../pair_reaxc.cpp:413)
Per MPI rank memory allocation (min/avg/max) = 12.7 | 13.65 | 15.25 Mbytes
Step Temp E_pair E_mol TotEng Press Volume 
     139            0   -26422.248            0   -26422.248   0.67368244    10480.543 
     180            0   -26422.654            0   -26422.654   -132.40479    10480.945 
Loop time of 0.217555 on 8 procs for 41 steps with 147 atoms

99.6% CPU use with 8 MPI tasks x no OpenMP threads

Minimization stats:
  Stopping criterion = linesearch alpha is zero
  Energy initial, next-to-last, final = 
        -26422.2476302     -26422.6541093     -26422.6541093
  Force two-norm initial, final = 19.6479 47.3113
  Force max component initial, final = 4.76074 34.2744
  Final line search alpha, max atom move = 5.53934e-12 1.89858e-10
  Iterations, force evaluations = 41 102

MPI task timing breakdown:
Section |  min time  |  avg time  |  max time  |%varavg| %total
---------------------------------------------------------------
Pair    | 0.063043   | 0.075782   | 0.11395    |   7.6 | 34.83
Neigh   | 0          | 0          | 0          |   0.0 |  0.00
Comm    | 0.004384   | 0.041519   | 0.054441   |  10.0 | 19.08
Output  | 0.00023238 | 0.00026875 | 0.00031113 |   0.0 |  0.12
Modify  | 0.096089   | 0.096747   | 0.097344   |   0.2 | 44.47
Other   |            | 0.003239   |            |       |  1.49

Nlocal:    18.375 ave 71 max 0 min
Histogram: 6 0 0 0 0 0 0 0 0 2
Nghost:    312.625 ave 321 max 306 min
Histogram: 1 0 3 0 2 0 0 0 0 2
Neighs:    621.25 ave 2387 max 0 min
Histogram: 6 0 0 0 0 0 0 0 0 2

Total # of neighbors = 4970
Ave neighs/atom = 33.8095
Neighbor list builds = 0
Dangerous builds = 0

unfix 1
###
min_style cg
minimize 1.0e-8 1.0e-8 100000 100000
WARNING: Using 'neigh_modify every 1 delay 0 check yes' setting during minimization (../min.cpp:190)
WARNING: Total cutoff < 2*bond cutoff. May need to use an increased neighbor list skin. (../pair_reaxc.cpp:413)
Per MPI rank memory allocation (min/avg/max) = 12.7 | 13.65 | 15.25 Mbytes
Step Temp E_pair E_mol TotEng Press 
     180            0   -26422.654            0   -26422.654   -132.40479 
     183            0    -26422.68            0    -26422.68   -281.45764 
Loop time of 0.0761836 on 8 procs for 3 steps with 147 atoms

99.5% CPU use with 8 MPI tasks x no OpenMP threads

Minimization stats:
  Stopping criterion = energy tolerance
  Energy initial, next-to-last, final = 
        -26422.6541093      -26422.679651       -26422.67978
  Force two-norm initial, final = 23.7 16.9493
  Force max component initial, final = 4.50736 4.50411
  Final line search alpha, max atom move = 0.000693807 0.00312499
  Iterations, force evaluations = 3 25

MPI task timing breakdown:
Section |  min time  |  avg time  |  max time  |%varavg| %total
---------------------------------------------------------------
Pair    | 0.016175   | 0.019523   | 0.029543   |   4.0 | 25.63
Neigh   | 0          | 0          | 0          |   0.0 |  0.00
Comm    | 0.0011292  | 0.010927   | 0.014322   |   5.2 | 14.34
Output  | 0          | 0          | 0          |   0.0 |  0.00
Modify  | 0.045077   | 0.045232   | 0.045367   |   0.1 | 59.37
Other   |            | 0.0005012  |            |       |  0.66

Nlocal:    18.375 ave 71 max 0 min
Histogram: 6 0 0 0 0 0 0 0 0 2
Nghost:    312.625 ave 321 max 306 min
Histogram: 1 0 3 0 2 0 0 0 0 2
Neighs:    621.125 ave 2387 max 0 min
Histogram: 6 0 0 0 0 0 0 0 0 2

Total # of neighbors = 4969
Ave neighs/atom = 33.8027
Neighbor list builds = 0
Dangerous builds = 0

undump 1
#############
#----------- Thermo ------------
reset_timestep 0
thermo  200

thermo_style    custom step temp etotal ke pe press
velocity all create 300 12345 mom yes rot yes
fix 1 all npt temp 300 300 25.0 iso 0.0 0.0 250.0

variable vpe equal pe
variable vtemp equal temp
variable vstep equal step

fix output all print 2500 "${vstep} ${vtemp} ${vpe}" file temp-tpdh-Pt.dat screen no

dump 1 all custom 2500 thermo-tpdh-Pt.lammpstrj id type x y z

run 1000000
WARNING: Total cutoff < 2*bond cutoff. May need to use an increased neighbor list skin. (../pair_reaxc.cpp:413)
Per MPI rank memory allocation (min/avg/max) = 11.58 | 12.53 | 14.12 Mbytes
Step Temp TotEng KinEng PotEng Press 
       0          300    -26292.12    130.55948    -26422.68    287.97297 
     200    218.71605   -26247.009    95.184847   -26342.194    627.81269 
     400    290.07276   -26184.373    126.23916   -26310.612    1171.1367 
     600    300.06383   -26156.602    130.58726   -26287.189    963.07876 
     800    280.83398   -26168.545    122.21846   -26290.763   -108.23126 
    1000     305.8208    -26155.09    133.09268   -26288.182   -3010.1259 
    1200    315.49222   -26161.531    137.30167   -26298.833   -3822.5636 
    1400    316.96101   -26185.507    137.94088   -26323.448   -3431.0374 
    1600     256.5352   -26190.888    111.64367   -26302.532   -5290.5188 
    1800    314.36164   -26168.801    136.80964    -26305.61   -4429.6164 
    2000    281.40357    -26182.78    122.46635   -26305.246    223.00634 
    2200    287.24159   -26168.876    125.00704   -26293.883   -1103.3764 
    2400    307.53303   -26147.199    133.83784   -26281.037   -8869.2526 
    2600     311.7956   -26167.945    135.69291   -26303.638   -4019.4785 
    2800    301.54167   -26178.547    131.23041   -26309.778    1803.5612 
    3000     279.9765   -26209.352    121.84529   -26331.197    8509.7181 
    3200     296.7949   -26192.636    129.16463     -26321.8    3072.9253 
    3400    304.90752   -26175.119    132.69523   -26307.814   -3226.3625 
    3600    334.05013   -26173.549    145.37804   -26318.927    162.33572 
    3800    292.24102    -26203.19    127.18279   -26330.373    2906.4102 
    4000    269.19355   -26196.274    117.15257   -26313.426    3181.5673 
    4200    291.17324   -26171.826    126.71809   -26298.545   -1187.2339 
    4400    281.99626   -26192.747    122.72428   -26315.471   -2852.1207 
    4600    288.03015   -26196.955    125.35022   -26322.305    619.30895 
    4800    317.42644   -26164.783    138.14344   -26302.927     3667.406 
    5000    348.39231   -26164.405    151.61973   -26316.024    1457.7667 
    5200    311.08432   -26190.219    135.38336   -26325.602    811.55377 
    5400    311.45002   -26191.713    135.54251   -26327.256     8779.114 
    5600    270.56044   -26206.634    117.74744   -26324.382    5543.7954 
    5800    303.96553   -26180.929    132.28527   -26313.215   -422.31749 
    6000    260.73231   -26199.733    113.47025   -26313.204    4029.4652 
    6200    272.79483   -26203.215    118.71984   -26321.935    1805.2383 
    6400    281.24957   -26183.305    122.39932   -26305.704     3015.953 
    6600    320.90568   -26168.359     139.6576   -26308.016   -5363.4574 
    6800    343.71826   -26149.921    149.58559   -26299.506     648.3632 
    7000    308.31601   -26188.524    134.17859   -26322.702   -4209.1106 
    7200    308.16596   -26199.615    134.11329   -26333.728    -578.8243 
    7400    284.66256   -26210.493    123.88465   -26334.378   -724.14116 
    7600    296.73354   -26180.014    129.13792   -26309.151    1824.4695 
    7800     318.9724   -26194.156    138.81624   -26332.972    451.93348 
    8000    293.99119   -26205.011    127.94446   -26332.956   -3245.5632 
    8200     323.6161   -26180.019    140.83717   -26320.856   -5094.7619 
    8400    295.05352   -26189.561    128.40678   -26317.968   -202.59062 
    8600    287.42161   -26209.608    125.08538   -26334.694    1070.3215 
    8800    286.30491   -26190.458     124.5994   -26315.057   -1367.8332 
    9000    289.93297   -26174.555    126.17833   -26300.733   -2888.0248 
    9200    327.13207   -26166.901    142.36731   -26309.268    387.95698 
    9400    280.44409   -26189.347    122.04878   -26311.395    -1632.501 
    9600    286.91311   -26192.157    124.86409   -26317.021    1023.5006 
    9800    264.77771   -26193.728     115.2308   -26308.958      577.234 
   10000    312.51064   -26178.111    136.00409   -26314.115     2771.202 
   10200    296.96594   -26203.953    129.23906   -26333.193   -1995.5799 
   10400    274.97258   -26200.824    119.66759   -26320.492   -131.35048 
   10600    312.84809   -26175.467    136.15095   -26311.618    4773.3063 
   10800    279.84269   -26184.324    121.78705   -26306.112    124.77609 
   11000     318.5497   -26173.879    138.63228   -26312.512   -2136.4308 
   11200    273.24407    -26185.25    118.91535   -26304.165    161.77355 
   11400    299.96677   -26188.226    130.54502   -26318.771   -5132.8576 
   11600    317.75326   -26163.434    138.28567    -26301.72   -2382.6555 
   11800    306.90809   -26188.394    133.56587    -26321.96   -4589.8794 
   12000    304.01326   -26191.449    132.30604   -26323.755   -2246.3333 
   12200    262.63881   -26190.696    114.29996   -26304.996   -2160.4459 
   12400    313.90433   -26174.842    136.61062   -26311.452    2585.9684 
   12600    269.14069   -26199.127    117.12956   -26316.257   -950.53027 
   12800    305.66288   -26176.597    133.02395   -26309.621   -3565.4615 
   13000    375.14617    -26140.06    163.26296   -26303.323    1102.7863 
   13200    311.56449   -26175.789    135.59232   -26311.381    560.47032 
   13400    284.81832    -26199.02    123.95244   -26322.972   -2316.5181 
   13600    297.00845   -26181.001    129.25756   -26310.258    -2734.923 
   13800    290.24128   -26183.351     126.3125   -26309.664    6136.2776 
   14000    314.00354   -26191.246     136.6538     -26327.9    6644.3586 
   14200    298.07451   -26197.203    129.72151   -26326.925   -404.90649 
   14400    312.78052   -26190.482    136.12154   -26326.603    3371.8608 
   14600    313.29027   -26190.517    136.34338    -26326.86    1201.9028 
   14800    333.60045    -26182.23    145.18234   -26327.412    2792.7067 
   15000    335.93871   -26163.084    146.19995   -26309.284    2347.8131 
   15200    299.01969   -26184.161    130.13285   -26314.294   -491.16721 
   15400     303.1655   -26177.625     131.9371   -26309.562    967.05942 
   15600    269.98307   -26197.251    117.49617   -26314.748    422.99589 
   15800    317.62754   -26180.765    138.23095   -26318.996   -1548.2724 
   16000    300.03311   -26179.604    130.57389   -26310.178     714.0641 
   16200    307.04202   -26183.542    133.62416   -26317.166     3588.512 
   16400    290.96397   -26179.697    126.62702   -26306.324    134.62429 
   16600    279.74442   -26201.346    121.74429   -26323.091    1147.9941 
   16800    332.10827   -26167.744    144.53294   -26312.277   -1938.4821 
   17000    306.89325   -26174.392    133.55941   -26307.951   -2586.1653 
   17200    320.93728   -26175.887    139.67135   -26315.558   -1122.3816 
   17400    285.46353   -26195.003    124.23324   -26319.237    243.04439 
   17600    342.23448   -26170.715    148.93985   -26319.655    3929.7461 
   17800    282.96983   -26182.741    123.14798   -26305.889    1806.5013 
   18000    301.94636   -26172.605    131.40653   -26304.012    1082.7215 
   18200    263.57388   -26205.362     114.7069   -26320.069   -187.79386 
   18400    299.01889   -26180.981     130.1325   -26311.113   -2952.6932 
   18600    330.28472   -26174.754    143.73934   -26318.494   -3980.2281 
   18800    286.82783   -26199.436    124.82697   -26324.263    -1790.861 
   19000    321.77461   -26187.219    140.03575   -26327.255    2797.3823 
   19200    291.41671    -26175.76    126.82405   -26302.584    -3462.879 
   19400    323.83171   -26170.535      140.931   -26311.466   -2592.6532 
   19600    298.32882   -26194.328    129.83218    -26324.16    1571.1414 
   19800    251.69028   -26221.732    109.53517   -26331.267     184.0265 
   20000       289.98   -26201.616    126.19879   -26327.815   -3748.3997 
   20200    322.53556   -26188.713    140.36692    -26329.08   -948.59908 
   20400    265.56463   -26215.682    115.57327   -26331.255   -2091.1236 
   20600    283.91708   -26196.697    123.56022   -26320.257   -136.54126 
   20800    306.11033   -26178.487    133.21869   -26311.706   -593.91524 
   21000    312.23114   -26188.858    135.88245    -26324.74   -986.42827 
   21200    311.68424   -26196.187    135.64444   -26331.831   -2034.7282 
   21400     334.2582   -26169.658    145.46859   -26315.127   -3063.3767 
   21600    281.78919   -26188.994    122.63417   -26311.628   -5676.1046 
   21800    308.42718   -26188.006    134.22697   -26322.233   -254.05543 
   22000    276.06446   -26216.579    120.14278   -26336.722   -3187.5582 
   22200    317.06938   -26191.498    137.98804   -26329.486    -1501.482 
   22400    274.49662    -26197.74    119.46045     -26317.2   -870.07215 
   22600     337.9041   -26163.455    147.05528   -26310.511   -2604.3052 
   22800    271.39248   -26199.418    118.10954   -26317.528   -3248.6929 
   23000    310.58866   -26181.198    135.16765   -26316.366   -2473.5471 
   23200    300.90312    -26178.32    130.95252   -26309.273   -451.07604 
   23400    338.03541   -26169.118    147.11242   -26316.231   -5144.8809 
   23600    314.61842   -26189.109    136.92139   -26326.031    4362.7346 
   23800    287.86783   -26200.225    125.27958   -26325.504    1729.4483 
   24000    358.97128   -26168.213    156.22368   -26324.437   -2543.2908 
   24200     306.0509   -26192.375    133.19282   -26325.567   -2036.4896 
   24400    298.54488   -26195.075    129.92622   -26325.001    3459.3574 
   24600      335.109   -26163.597    145.83885   -26309.435    4021.3687 
   24800    296.95667   -26188.367    129.23503   -26317.602    627.47601 
   25000    314.01452   -26176.681    136.65858    -26313.34    989.01623 
   25200     297.5299   -26196.987     129.4845   -26326.472   -3013.4946 
   25400    290.27947   -26191.123    126.32912   -26317.452   -5449.5248 
   25600    280.07771   -26179.524    121.88934   -26301.414   -906.75301 
   25800    319.62216   -26184.957    139.09901   -26324.056   -1056.6745 
   26000    273.07052   -26209.822    118.83982   -26328.662    1662.5433 
   26200    295.87642   -26188.004    128.76491   -26316.769   -6470.2823 
   26400    324.87944   -26177.272    141.38697   -26318.659   -2560.8798 
   26600     269.7615   -26206.926    117.39974   -26324.326   -3457.2304 
   26800    301.81935   -26180.779    131.35126    -26312.13    3239.5522 
   27000    272.08513   -26185.048    118.41098   -26303.459    -616.1146 
   27200    295.50448   -26200.877    128.60304    -26329.48   -5686.7375 
   27400    309.93258   -26197.099    134.88212   -26331.981   -150.19515 
   27600    305.07683   -26179.758    132.76891   -26312.527    8196.9135 
   27800    289.62406   -26189.198    126.04389   -26315.242    1493.0464 
   28000    293.44617   -26209.446    127.70726   -26337.154    162.02791 
   28200    332.62775   -26179.917    144.75902   -26324.676    3758.1236 
   28400    309.51588   -26188.262    134.70078   -26322.963   -55.144831 
   28600     291.9505   -26196.502    127.05635   -26323.558   -3570.1461 
   28800    341.48909   -26168.801    148.61546   -26317.416   -90.789928 
   29000    305.19695   -26198.741    132.82118   -26331.563    2319.1595 
   29200    325.59946   -26188.218    141.70032   -26329.918   -1832.1166 
   29400    321.40889   -26167.677    139.87659   -26307.554    752.01801 
   29600    262.86845   -26196.828    114.39989   -26311.228    5351.3123 
   29800    292.77037   -26180.352    127.41316   -26307.765     3091.168 
   30000     279.2469   -26201.748    121.52777   -26323.275    1490.4119 
   30200    269.20099   -26197.762     117.1558   -26314.918   -133.58354 
   30400     321.9997   -26182.284    140.13371   -26322.417    327.90341 
   30600    285.59582   -26207.398    124.29081   -26331.689   -235.46897 
   30800    283.04714   -26202.323    123.18163   -26325.505   -2817.3836 
   31000    287.33785   -26188.487    125.04893   -26313.536   -420.43404 
   31200    299.59465   -26179.639    130.38307   -26310.022   -4011.3428 
   31400     268.0866   -26208.506    116.67083   -26325.177   -1914.0811 
   31600    299.07783   -26180.239    130.15815   -26310.397   -3525.4594 
   31800     302.4692   -26185.637    131.63407   -26317.271    2089.1979 
   32000    254.77548   -26207.759    110.87785   -26318.637    3122.3493 
   32200    305.85987   -26183.409    133.10968   -26316.519    706.95501 
   32400    297.60003   -26189.143    129.51502   -26318.658   -1029.9279 
   32600     273.6197   -26209.329    119.07882   -26328.408    7.1439933 
   32800    309.52396   -26186.006    134.70429   -26320.711    2511.8605 
   33000    295.63024   -26195.077    128.65777   -26323.734   -5054.1444 
   33200    278.73637   -26205.624    121.30559   -26326.929   -2492.8741 
   33400    303.30068   -26173.833    131.99593   -26305.829   -4384.6369 
   33600    303.14446   -26189.806    131.92795   -26321.734   -3827.0285 
   33800    299.88153   -26206.028    130.50792   -26336.535   -4191.8575 
   34000    279.29527   -26175.428    121.54882   -26296.977    1687.5279 
   34200    286.27714   -26194.329    124.58732   -26318.916    -382.0015 
   34400    277.22704   -26210.365    120.64873   -26331.014    -2852.254 
   34600     296.2408   -26195.236    128.92348    -26324.16    1629.0351 
   34800    310.58464   -26184.112     135.1659   -26319.278   -983.91677 
   35000    269.40071   -26211.577    117.24272    -26328.82   -2629.7326 
   35200    274.61946   -26194.594    119.51391   -26314.108     -1026.13 
   35400    315.95303   -26184.309    137.50221   -26321.811    2006.2533 
   35600    273.72775   -26206.435    119.12584   -26325.561    329.43521 
   35800    301.24524   -26187.174    131.10141   -26318.275   -5832.7085 
   36000     288.7075   -26181.617      125.645   -26307.262   -447.26874 
   36200    272.89337   -26203.721    118.76272   -26322.484   -1965.5029 
   36400     288.6246   -26221.263    125.60893   -26346.872    728.84351 
   36600    290.43019   -26190.066    126.39472   -26316.461    1230.9624 
   36800    289.49031   -26191.147    125.98568   -26317.133    3500.0413 
   37000    290.07954   -26190.609    126.24211   -26316.851   -1902.7986 
   37200    328.99729   -26180.655    143.17905   -26323.834   -3813.7027 
   37400    286.38919   -26203.791    124.63608   -26328.427   -199.86769 
   37600    301.28273   -26172.077    131.11772   -26303.195    1142.3491 
   37800    276.81547   -26193.112    120.46961   -26313.581   -4074.5611 
   38000     296.6836   -26189.505    129.11619   -26318.621    5604.4235 
   38200    337.59849   -26149.518    146.92228   -26296.441    3257.8424 
   38400    315.16919   -26181.446    137.16108   -26318.607     2983.444 
   38600    311.19741   -26192.895    135.43257   -26328.328    1974.2101 
   38800    320.25572   -26177.932    139.37473   -26317.306    2508.8934 
   39000    319.66433   -26168.867    139.11736   -26307.984    3834.2299 
   39200    309.25231   -26192.676    134.58607   -26327.262    2532.2242 
   39400    298.73892   -26197.348    130.01066   -26327.359   -396.25824 
   39600    279.26291   -26198.293    121.53474   -26319.828    1316.7981 
   39800    271.19578   -26177.228    118.02393   -26295.252    3196.9758 
   40000    260.45583    -26198.77    113.34993    -26312.12   -1735.5635 
   40200    263.36703   -26214.397    114.61688   -26329.013    510.26107 
   40400     292.9914   -26183.719    127.50935   -26311.228   -550.19622 
   40600    299.61193   -26171.941    130.39059   -26302.331    424.53737 
   40800    256.58295   -26206.832    111.66445   -26318.496    5299.9327 
   41000    298.22597   -26186.822    129.78743   -26316.609   -7963.2834 
   41200    296.54585   -26177.675    129.05624   -26306.731   -3288.2399 
   41400    281.03948   -26184.975    122.30789   -26307.283    569.34361 
   41600    322.60384   -26187.698    140.39663   -26328.095    2555.8351 
   41800    279.80669    -26208.43    121.77139   -26330.202    2829.3355 
   42000    297.87618   -26188.843     129.6352   -26318.478    1970.8361 
   42200    305.51083   -26187.376    132.95778   -26320.334    1826.9103 
   42400    274.01323   -26204.547    119.25008   -26323.797    2813.4135 
   42600    301.14786   -26193.223    131.05903   -26324.282   -3987.4325 
   42800     290.4846   -26180.807    126.41839   -26307.225   -5849.8271 
   43000    285.44623   -26187.105     124.2257   -26311.331    54.799545 
   43200    277.49545   -26205.332    120.76554   -26326.097    2469.5394 
   43400     302.1353   -26194.114    131.48876   -26325.603   -2688.7751 
   43600    324.52011   -26180.829    141.23059    -26322.06    2355.7053 
   43800    278.91879   -26195.702    121.38498   -26317.087     2.139358 
   44000    336.67296   -26177.797    146.51949   -26324.316    1850.0448 
   44200    322.05679   -26172.049    140.15856   -26312.208    3.5803744 
   44400    282.43449   -26196.782      122.915   -26319.697    559.75198 
   44600     314.4966   -26184.923    136.86838   -26321.791   -1192.0303 
   44800    321.22866   -26189.686    139.79816   -26329.484    357.71781 
   45000    275.68329   -26216.065    119.97689   -26336.042    2623.8095 
   45200    304.66224    -26193.38    132.58848   -26325.968    -3642.864 
   45400    291.65822    -26184.81    126.92915   -26311.739    1076.1281 
   45600    293.05153   -26176.992    127.53552   -26304.528    3475.3367 
   45800    316.83302    -26167.27    137.88518   -26305.155   -564.36141 
   46000    298.34064   -26190.114    129.83733   -26319.952   -4012.3092 
   46200    330.19508   -26183.929    143.70033    -26327.63   -3892.9646 
   46400    337.26963   -26163.756    146.77916   -26310.535   -3390.4825 
   46600    294.94516   -26193.302    128.35962   -26321.661   -1851.9295 
   46800    293.47423    -26198.41    127.71948    -26326.13     1037.816 
   47000    292.53616   -26174.643    127.31123   -26301.955   -1616.1361 
   47200    285.07394    -26198.28    124.06369   -26322.343   -4329.3161 
   47400    334.53954   -26180.925    145.59103   -26326.516   0.21917099 
   47600    313.79298     -26199.4    136.56216   -26335.962     1896.857 
   47800    290.36016   -26204.669    126.36424   -26331.033    1214.2136 
   48000    300.31488   -26177.829    130.69651   -26308.525    2506.9409 
   48200    298.01218   -26189.022    129.69439   -26318.717    1574.9978 
   48400    287.34582   -26211.224     125.0524   -26336.276   -13.912637 
   48600    305.38143   -26179.184    132.90147   -26312.085    -45.20249 
   48800    299.61182   -26190.463    130.39055   -26320.853   -1064.9531 
   49000    286.85473   -26218.542    124.83868    -26343.38   -1266.6416 
   49200    302.87679    -26196.43    131.81145   -26328.241   -377.34546 
   49400    298.22893   -26185.805    129.78871   -26315.593    1803.6057 
   49600    270.19737   -26199.606    117.58943   -26317.196    6125.6445 
   49800    312.20759   -26189.253     135.8722   -26325.125   -1866.7926 
   50000    302.81251    -26176.83    131.78348   -26308.614   -903.40687 
   50200    309.66862   -26191.914    134.76725   -26326.681   -551.71967 
   50400    268.14437   -26208.147    116.69596   -26324.843    4619.9747 
   50600    315.69671   -26178.121    137.39066   -26315.512    1583.3434 
   50800    288.45612   -26198.103     125.5356   -26323.639    586.17212 
   51000    289.43888   -26198.019     125.9633   -26323.982      3158.45 
   51200    314.18525   -26188.999    136.73288   -26325.732    6938.3723 
   51400    266.37054    -26214.66      115.924   -26330.584    2581.7389 
   51600    262.71907   -26211.693    114.33489   -26326.027    3368.0116 
   51800    331.51292   -26183.218    144.27385   -26327.492   -2534.3659 
   52000    296.41436   -26177.744    128.99901   -26306.743    54.771711 
   52200     280.1751   -26203.645    121.93172   -26325.577    613.52971 
   52400    325.59894   -26191.447    141.70009   -26333.148    -1138.386 
   52600    334.90675   -26163.778    145.75084   -26309.529   -1656.5135 
   52800    331.25022    -26170.94    144.15952   -26315.099    3207.7852 
   53000    298.66305   -26199.988    129.97764   -26329.966   -134.83228 
   53200     296.9924   -26192.434    129.25058   -26321.684     3821.242 
   53400    333.13945   -26169.722    144.98171   -26314.703    2182.9116 
   53600    273.81022   -26201.884    119.16173   -26321.046   -472.73902 
   53800    325.96946   -26186.404    141.86134   -26328.266   -662.93156 
   54000    261.63791    -26209.21    113.86437   -26323.074    8616.6638 
   54200    293.19728   -26195.889    127.59895   -26323.488    2662.6769 
   54400    309.36796   -26179.763     134.6364   -26314.399    3615.4737 
   54600    279.57455   -26205.374    121.67036   -26327.045    2413.5658 
   54800    281.15215   -26210.456    122.35693   -26332.813   -2106.4731 
   55000    290.85262   -26182.636    126.57856   -26309.214    1462.2148 
   55200     303.0794   -26181.988    131.89963   -26313.887    833.42838 
   55400    288.17516   -26199.646    125.41333   -26325.059   -482.47816 
   55600    288.68519   -26197.936    125.63529   -26323.571   -7072.0208 
   55800    283.52458   -26207.273    123.38941   -26330.662    -4669.436 
   56000    284.36962   -26180.134    123.75717   -26303.892    -2446.799 
   56200    297.17998   -26172.744    129.33221   -26302.076   -3193.2519 
   56400    287.47434   -26198.948    125.10833   -26324.057   -3696.1527 
   56600    273.55606     -26193.3    119.05112   -26312.351   -6807.0198 
   56800    311.29421   -26173.274     135.4747   -26308.748    171.82069 
   57000    271.88554   -26192.008    118.32412   -26310.332   -1204.7427 
   57200    303.52464   -26187.734     132.0934   -26319.828   -652.88115 
   57400    263.54199   -26218.187    114.69302    -26332.88    -6839.416 
   57600    298.93978   -26191.829    130.09807   -26321.927   -2506.4217 
   57800     290.3828   -26186.246    126.37409   -26312.621   -1533.4627 
   58000    346.84877   -26166.595    150.94798   -26317.543   -4911.0133 
   58200    267.94427   -26201.052    116.60888   -26317.661    3645.7261 
   58400    312.06004   -26182.332    135.80799    -26318.14    2303.2673 
   58600    267.09034   -26202.949    116.23725   -26319.186    367.71857 
   58800    302.36129   -26202.626    131.58711   -26334.213   -687.39864 
   59000    306.45808   -26187.793    133.37002   -26321.163    -4183.952 
   59200    300.15845   -26194.223    130.62844   -26324.852    1325.1764 
   59400    280.70904    -26210.24    122.16409   -26332.404    2828.9426 
   59600    301.35825   -26191.767    131.15059   -26322.917    2930.9139 
   59800    336.22298   -26183.982    146.32366   -26330.306     518.7791 
   60000    306.80324   -26203.156    133.52024   -26336.676   -238.53056 
   60200    299.81214   -26198.694    130.47772   -26329.171   -5722.4238 
   60400    302.91657   -26186.615    131.82877   -26318.444     3585.835 
   60600    296.40484   -26195.151    128.99487   -26324.146   -1742.9578 
   60800    298.87896    -26191.82     130.0716   -26321.892   -930.42071 
   61000    299.18692   -26200.458    130.20563   -26330.664   -2497.0952 
   61200    322.51208   -26194.154     140.3567   -26334.511    1410.2015 
   61400    293.77484   -26189.076     127.8503   -26316.926    7810.8865 
   61600    300.66959   -26194.621    130.85089   -26325.472    1160.9031 
   61800    276.11463    -26202.24    120.16461   -26322.405   -4036.7438 
   62000     298.0221   -26199.526     129.6987   -26329.225    -2195.215 
   62200    288.23549   -26187.046    125.43959   -26312.485   -2969.3953 
   62400    269.43873   -26186.389    117.25927   -26303.648   -3910.8154 
   62600    302.51232   -26195.059    131.65284   -26326.712   -4823.5932 
   62800    274.29429   -26195.778     119.3724   -26315.151    1915.7374 
   63000    332.69095   -26177.505    144.78652   -26322.292   -249.46694 
   63200    316.63954   -26187.383    137.80098   -26325.184   -2975.0216 
   63400    299.22369   -26219.857    130.22163   -26350.079    1173.1934 
   63600    290.44611   -26213.516    126.40164   -26339.918    2206.1768 
   63800    256.49569   -26187.746    111.62648   -26299.373   -1387.2966 
   64000     320.0368   -26182.429    139.27946   -26321.708   -4178.3545 
   64200    283.61079   -26201.258    123.42692   -26324.685    -3301.433 
   64400    321.09433   -26188.742     139.7397   -26328.482    2209.9476 
   64600      336.855   -26174.877    146.59871   -26321.476    3058.2749 
   64800    301.32027   -26201.668    131.13406   -26332.802    2981.5809 
   65000    298.09472   -26198.407     129.7303   -26328.137    1848.9873 
   65200    309.31917   -26170.079    134.61517   -26304.694   -2192.1983 
   65400    276.99035    -26208.73    120.54572   -26329.276    504.02751 
   65600    319.00424   -26187.874    138.83009   -26326.704   -988.58038 
   65800    291.83834   -26193.745    127.00754   -26320.753     700.8813 
   66000    298.58242   -26200.301    129.94255   -26330.244    1685.4277 
   66200    299.91778   -26195.906     130.5237    -26326.43   -4539.5067 
   66400    302.16553   -26165.692    131.50192   -26297.194     6066.254 
   66600    319.34018   -26191.993    138.97629    -26330.97    972.09877 
   66800    289.17995    -26201.63    125.85061   -26327.481   -2178.3491 
   67000    333.21646   -26172.438    145.01523   -26317.453   -924.36579 
   67200    298.05998   -26189.004    129.71519   -26318.719   -5222.2561 
   67400    294.75858   -26196.623    128.27842   -26324.902    652.45308 
   67600    286.17502   -26211.538    124.54287   -26336.081    1173.1327 
   67800    299.98335   -26191.599    130.55223   -26322.151    4105.8722 
   68000    318.35075   -26182.607    138.54569   -26321.152   -1747.2196 
   68200    277.40246   -26189.712    120.72507   -26310.437    5223.6309 
   68400     282.0769   -26201.097    122.75938   -26323.857    1375.4247 
   68600    253.44775   -26206.178    110.30002   -26316.478   -4361.8302 
   68800    295.47221   -26183.035      128.589   -26311.624   -468.44996 
   69000    260.75729    -26203.31    113.48112   -26316.791    100.89508 
   69200    297.68914   -26210.336     129.5538    -26339.89    2778.8988 
   69400    299.21667   -26181.117    130.21857   -26311.336    3313.5324 
   69600    288.79222   -26191.082    125.68187   -26316.764    1840.6088 
   69800    291.74093   -26203.134    126.96515   -26330.099    411.82604 
   70000     332.7663   -26172.211    144.81932   -26317.031   -1888.5959 
   70200    357.82756   -26163.029    155.72593   -26318.754     -4955.86 
   70400    305.75241   -26190.959    133.06292   -26324.022   -8588.3286 
   70600    273.22658   -26198.809    118.90773   -26317.717    804.77686 
   70800    333.17906   -26176.385    144.99895   -26321.384   -3185.4729 
   71000    259.87975    -26200.35    113.09922   -26313.449   -1288.6498 
   71200    293.35116   -26194.071    127.66592   -26321.737    4642.8709 
   71400    296.45721   -26201.385    129.01766   -26330.403    3688.3233 
   71600    268.94139   -26222.512    117.04283   -26339.555    1109.7648 
   71800    306.66775   -26194.111    133.46127   -26327.572    2921.9933 
   72000    316.75772   -26187.447    137.85241   -26325.299    -3284.612 
   72200    268.73023   -26216.593    116.95093   -26333.544    774.76362 
   72400    284.72093   -26194.133    123.91006   -26318.043   -5838.4024 
   72600    296.31908   -26196.626    128.95755   -26325.584    2002.6733 
   72800    313.22068   -26198.745     136.3131   -26335.058    229.05921 
   73000    278.64862    -26210.83     121.2674   -26332.098    2129.5719 
   73200    300.84932   -26189.036     130.9291   -26319.965   -2261.4352 
   73400    341.96635   -26166.404    148.82316   -26315.228    1957.9625 
   73600    308.59016   -26189.161     134.2979   -26323.459    4365.9964 
   73800    291.49589   -26210.572    126.85851    -26337.43    3963.2686 
   74000    293.82241   -26184.854      127.871   -26312.725   -5288.1702 
   74200    308.14698   -26185.292    134.10503   -26319.397   -3578.8204 
   74400    302.59112   -26198.301    131.68713   -26329.989    2306.2419 
   74600    286.46371   -26210.458    124.66851   -26335.126    3972.1507 
   74800    313.91338   -26187.926    136.61456    -26324.54    1727.5153 
   75000    295.46092    -26190.74    128.58408   -26319.324   -4710.3481 
   75200    294.52594   -26201.586    128.17718   -26329.763   -1261.5737 
   75400    307.51296   -26184.989    133.82911   -26318.818    36.399695 
   75600    282.33162   -26208.493    122.87023   -26331.363   -2772.2928 
   75800    341.50074   -26174.583    148.62053   -26323.204    2322.6063 
   76000    285.06737   -26193.304    124.06083   -26317.364      6295.66 
   76200    313.85464   -26186.474      136.589   -26323.063   -1556.2268 
   76400    316.67555   -26174.032    137.81665   -26311.849   -6296.2006 
   76600    277.91249    -26196.56    120.94704   -26317.507    2950.5714 
   76800     299.1206   -26192.304    130.17677   -26322.481   -47.711421 
   77000    280.37996   -26202.781    122.02087   -26324.802   -292.83534 
   77200    239.37439   -26231.272    104.17532   -26335.447   -408.94036 
   77400    312.44531   -26199.074    135.97566    -26335.05     1594.454 
   77600    274.32325   -26185.545      119.385    -26304.93     1364.425 
   77800    305.03124   -26166.454    132.74907   -26299.203   -4185.3818 
   78000    273.76897   -26199.253    119.14378   -26318.397    4099.8318 
   78200    306.55656   -26192.239    133.41288   -26325.652     6190.402 
   78400    354.19193   -26172.286    154.14371    -26326.43    -5153.886 
   78600    282.47601    -26201.45    122.93307   -26324.383   -1188.9418 
   78800    331.56916   -26183.159    144.29832   -26327.457    1161.5404 
   79000    258.47444   -26208.545    112.48763   -26321.032    3184.2037 
   79200    285.71792   -26191.888    124.34394   -26316.232   -240.12004 
   79400    295.41684   -26185.698     128.5649   -26314.263   -1586.2472 
   79600    264.60874   -26220.744    115.15727   -26335.901    2763.5492 
   79800    277.75915   -26211.492     120.8803   -26332.372   -3227.0092 
   80000    304.59087   -26188.064    132.55742   -26320.621    1564.7292 
   80200    309.38916   -26201.277    134.64562   -26335.923    4399.2923 
   80400    279.21949   -26212.862    121.51584   -26334.378    1826.5068 
   80600    332.16663   -26199.578    144.55834   -26344.137    213.34732 
   80800    316.51906   -26188.869    137.74855   -26326.617    831.25798 
   81000    330.47453   -26165.165    143.82194   -26308.987   -1410.7078 
   81200    282.17227   -26194.821    122.80088   -26317.622   -2640.0528 
   81400    291.05111   -26197.986    126.66494   -26324.651   -3819.9932 
   81600    331.60876   -26172.777    144.31556   -26317.092   -237.71428 
   81800    285.85275     -26196.1    124.40262   -26320.502    2682.5659 
   82000    307.77679   -26196.024    133.94392   -26329.968    5337.4384 
   82200     260.5798   -26206.862    113.40388   -26320.265    3080.6698 
   82400    294.72279    -26189.79    128.26285   -26318.053   -1440.1245 
   82600    324.70267   -26187.812    141.31004   -26329.122   -14.662087 
   82800    291.20189   -26205.856    126.73056   -26332.587   -1656.1325 
   83000    296.87942   -26187.593    129.20141   -26316.794     1828.466 
   83200    313.66674    -26196.71    136.50722   -26333.217   -1723.0403 
   83400    311.06041   -26181.134    135.37295   -26316.507     1091.724 
   83600    324.40255   -26180.068    141.17943   -26321.247    -136.2691 
   83800    280.03985   -26198.652    121.87286   -26320.525    2525.0323 
   84000    366.60768   -26166.534    159.54703   -26326.081    2279.4725 
   84200     319.3227    -26179.83    138.96869   -26318.798    794.66868 
   84400    325.76099   -26194.936    141.77062   -26336.706    2147.5013 
   84600    294.03673   -26189.878    127.96428   -26317.842   -2760.0783 
   84800    321.68977   -26181.414    139.99883   -26321.413    3750.1696 
   85000    281.47582   -26203.881    122.49779   -26326.379    5000.3171 
   85200     298.3579    -26192.27    129.84484   -26322.115    5320.6999 
   85400    323.91083   -26181.044    140.96543    -26322.01    3060.6578 
   85600    338.13529   -26175.286    147.15589   -26322.442   -958.91883 
   85800    297.99019    -26201.53    129.68481   -26331.215   -181.13607 
   86000    323.36159   -26186.739     140.7264   -26327.465   -1073.0659 
   86200    285.84529   -26189.688    124.39938   -26314.087   -475.98825 
   86400    302.18688   -26206.867    131.51121   -26338.378    1491.4307 
   86600    307.12206   -26183.411    133.65899    -26317.07    463.83545 
   86800    319.84422   -26189.663    139.19565   -26328.859   -4694.1143 
   87000    307.51912   -26206.601    133.83179   -26340.432   -2929.2946 
   87200    320.29486     -26180.1    139.39177   -26319.492    2192.6567 
   87400    283.78423   -26196.052    123.50241   -26319.554   -2156.5616 
   87600     298.6315   -26199.912    129.96391   -26329.876   -2759.5155 
   87800      331.235   -26181.773     144.1529   -26325.925   -3567.6035 
   88000    298.01671   -26209.478    129.69636   -26339.174   -902.76167 
   88200      295.207   -26192.125    128.47358   -26320.599    5759.3377 
   88400    327.77382   -26184.878     142.6466   -26327.525   -1094.2056 
   88600       288.97   -26207.269    125.75924   -26333.028   -4672.6053 
   88800    322.31725   -26176.791    140.27191   -26317.063   -5192.4036 
   89000    328.88335   -26176.545    143.12947   -26319.675   -4448.4581 
   89200    270.73022   -26201.391    117.82132   -26319.212    1145.0646 
   89400    293.33372   -26183.651    127.65833   -26311.309   -1322.5116 
   89600    297.44779   -26180.142    129.44876   -26309.591      -4560.6 
   89800    300.63231   -26197.444    130.83466   -26328.278    5717.2043 
   90000    286.70484   -26197.879    124.77345   -26322.653    -1387.962 
   90200     315.4828   -26175.792    137.29757    -26313.09    48.933858 
   90400    278.70482   -26201.031    121.29186   -26322.323   -1146.0033 
   90600    317.76307   -26176.881    138.28994   -26315.171   -2090.0475 
   90800    290.29138   -26200.457    126.33431   -26326.792   -818.15452 
   91000    307.73825   -26193.478    133.92716   -26327.405   -634.71883 
   91200     322.1447   -26180.395    140.19681   -26320.592    2096.4943 
   91400    287.73034   -26207.872    125.21975   -26333.092    652.90006 
   91600    336.19862   -26180.665    146.31305   -26326.978    5214.3274 
   91800    293.61709   -26199.164    127.78165   -26326.946    6184.1506 
   92000    321.37865   -26193.229    139.86343   -26333.093    3517.2734 
   92200    292.34263   -26185.882      127.227   -26313.109   -1127.5711 
   92400    285.27306   -26217.188    124.15034   -26341.338   -4406.9096 
   92600    273.36268    -26192.71    118.96697   -26311.677   -256.40994 
   92800    307.50065   -26192.634    133.82375   -26326.458   -7017.2789 
   93000    290.57382   -26208.839    126.45722   -26335.297   -4603.7593 
   93200    304.94648   -26203.366    132.71218   -26336.078   -3110.8871 
   93400    333.26768    -26177.52    145.03752   -26322.558   -739.29862 
   93600    284.03471   -26202.144    123.61141   -26325.756   -3364.1087 
   93800    286.90795    -26221.81    124.86184   -26346.672    912.95713 
   94000    300.43426   -26198.912    130.74847   -26329.661    3244.3256 
   94200    295.10903   -26192.455    128.43094   -26320.886    2617.8399 
   94400    357.48654   -26163.478    155.57752   -26319.056   -1865.3477 
   94600     297.7228   -26193.152    129.56845   -26322.721    159.37103 
   94800    267.84483   -26198.531    116.56561   -26315.097   -843.99452 
   95000    329.51451   -26170.728    143.40414   -26314.132   -1922.3773 
   95200    271.94667   -26198.116    118.35072   -26316.466    1773.5668 
   95400    327.17437   -26195.419    142.38572   -26337.804    233.12316 
   95600    331.85406   -26186.407    144.42231   -26330.829     586.5269 
   95800    302.31391   -26197.151    131.56649   -26328.717    2604.1889 
   96000    322.05225   -26171.955    140.15658   -26312.112   -1425.2354 
   96200    304.48338   -26208.352    132.51064   -26340.862    388.92992 
   96400    267.67611   -26201.561    116.49218   -26318.053    3391.2843 
   96600     287.9692   -26177.809     125.3237   -26303.132   -1002.4622 
   96800    289.19217   -26199.046    125.85593   -26324.902    3298.0667 
   97000    327.85765   -26190.633    142.68308   -26333.316    1080.1164 
   97200    284.48514   -26220.417    123.80744   -26344.224   -5730.1981 
   97400    307.27364   -26199.049    133.72496   -26332.774   -3860.7624 
   97600    303.50604   -26193.381     132.0853   -26325.467   -1739.6518 
   97800    288.95569   -26213.693    125.75301   -26339.446   -4978.9254 
   98000    297.73149   -26195.059    129.57223   -26324.632   -3740.5678 
   98200    301.34014   -26187.969    131.14271   -26319.111    2802.9797 
   98400    323.67739   -26188.862    140.86384   -26329.726    539.95198 
   98600    285.22877   -26203.728    124.13106   -26327.859   -485.13633 
   98800    305.85307   -26188.349    133.10673   -26321.455    2407.3484 
   99000    286.69229    -26198.45    124.76799   -26323.218   -2171.6991 
   99200    285.73679    -26182.35    124.35216   -26306.702   -1359.1425 
   99400    306.19344   -26193.881    133.25486   -26327.136   -8524.2031 
   99600    294.44534   -26207.674     128.1421   -26335.816    -1622.494 
   99800    321.82591   -26181.714    140.05808   -26321.772     3169.648 
  100000      318.362   -26194.674    138.55059   -26333.224    -2024.764 
  100200    286.28922    -26218.71    124.59257   -26343.303    -612.1803 
  100400    283.47636   -26212.267    123.36842   -26335.635   -113.47611 
  100600    325.99881   -26186.985    141.87412   -26328.859    1781.6358 
  100800    298.67173   -26182.069    129.98142   -26312.051   -144.85675 
  101000     330.3428   -26184.582    143.76461   -26328.346   -3292.5143 
  101200    288.73321   -26203.603    125.65619   -26329.259    3635.7642 
  101400    299.33293   -26195.299    130.26917   -26325.568    1239.0896 
  101600    324.02974   -26175.735    141.01718   -26316.752    8531.0963 
  101800    294.13937   -26204.095    128.00895   -26332.104    432.37179 
  102000    298.01523   -26202.855    129.69571    -26332.55   -619.84722 
  102200    344.34775   -26174.704    149.85955   -26324.564   -1573.7523 
  102400    313.93616   -26188.657    136.62447   -26325.281   -5570.9412 
  102600    332.89714   -26196.461    144.87626   -26341.337   -3629.1788 
  102800    286.62103   -26201.113    124.73698    -26325.85    2134.5396 
  103000     297.5288   -26191.169    129.48402   -26320.653   -877.04829 
  103200    294.00942   -26194.665    127.95239   -26322.618    1207.8926 
  103400     271.8742   -26218.075    118.31918   -26336.394    3472.2637 
  103600    307.45624   -26182.999    133.80442   -26316.803   -2034.5574 
  103800    282.13465    -26190.99    122.78451   -26313.774    3397.7351 
  104000    305.65543   -26201.427    133.02071   -26334.448   -100.52451 
  104200    333.13083   -26168.251    144.97796   -26313.228    -1452.758 
  104400     300.2005   -26194.892    130.64674   -26325.538    -2948.704 
  104600    286.39977   -26194.437    124.64068   -26319.078    -1945.169 
  104800    325.56358   -26187.952    141.68471   -26329.636   -3447.0649 
  105000    293.84628   -26201.925    127.88139   -26329.806    4629.6751 
  105200    291.28152    -26209.78    126.76521   -26336.545   -3003.4558 
  105400    300.93394   -26177.976    130.96593   -26308.942   -3994.4802 
  105600    311.18657   -26198.702    135.42786    -26334.13   -1847.0504 
  105800    260.53256   -26215.498    113.38332   -26328.881     -2633.09 
  106000    311.06893   -26177.299    135.37666   -26312.676    2093.7692 
  106200    282.18212   -26199.845    122.80517    -26322.65   -853.82135 
  106400    300.62275    -26197.43     130.8305   -26328.261   -5383.2249 
  106600    307.33071   -26168.301    133.74979   -26302.051   -5363.2783 
  106800    293.74939   -26204.588    127.83923   -26332.427   -1001.5673 
  107000     276.3048   -26200.847    120.24737   -26321.094    2371.5519 
  107200    301.54302    -26187.48      131.231   -26318.711    823.88971 
  107400    286.40609   -26212.179    124.64344   -26336.823   -59.499312 
  107600     334.2073   -26196.021    145.44644   -26341.468    2826.2603 
  107800    315.91666   -26193.427    137.48638   -26330.913     1807.173 
  108000    294.26559    -26192.26    128.06387   -26320.324    19.599584 
  108200    339.76387   -26173.081    147.86465   -26320.945    5035.7733 
  108400    290.32332   -26202.594     126.3482   -26328.942     2707.558 
  108600    346.99738   -26183.666    151.01266   -26334.679    1067.1428 
  108800    288.95824   -26194.393    125.75413   -26320.147   -1515.9824 
  109000    298.52902   -26204.966    129.91931   -26334.885    1217.7529 
  109200    312.54998   -26178.908    136.02121   -26314.929   -183.25694 
  109400    266.99789   -26188.597    116.19702   -26304.794    100.17166 
  109600    311.09848   -26187.928    135.38952   -26323.317    3321.1189 
  109800    298.11432   -26193.868    129.73884   -26323.607   -1852.5446 
  110000    301.51701   -26202.197    131.21968   -26333.416    1443.4032 
  110200    304.08835   -26201.147    132.33872   -26333.486    1750.4519 
  110400    322.55487   -26188.142    140.37532   -26328.517    5006.2168 
  110600    281.44615   -26196.682    122.48488   -26319.167     4925.875 
  110800    279.92337    -26195.71    121.82216   -26317.532   -5551.0758 
  111000    347.61262   -26189.854    151.28041   -26341.135   -3591.2403 
  111200    251.07731   -26222.396    109.26841   -26331.665    -1108.643 
  111400    283.41369   -26205.307    123.34115   -26328.648    2205.3755 
  111600    292.19843   -26193.306    127.16425    -26320.47   -2988.7843 
  111800    313.22586   -26179.633    136.31535   -26315.949    4628.6532 
  112000    275.94868   -26197.813    120.09239   -26317.905   -1884.6966 
  112200    302.92407   -26210.613    131.83203   -26342.445    -1079.276 
  112400    311.41613   -26182.524    135.52776   -26318.051    7.8142186 
  112600    314.70218   -26188.979    136.95784   -26325.937   -937.58951 
  112800    285.67916   -26218.068    124.32708   -26342.395    1222.9766 
  113000    268.13637   -26225.793    116.69248   -26342.486   -4398.7502 
  113200    307.82463   -26187.804    133.96475   -26321.768   -4525.4769 
  113400    294.36439   -26189.264    128.10687   -26317.371   -2576.8342 
  113600     313.9203   -26204.526    136.61757   -26341.144   -2813.7179 
  113800    344.86292   -26176.937    150.08375    -26327.02    1289.3613 
  114000    299.69388   -26200.128    130.42626   -26330.554   -1412.9949 
  114200    275.24125   -26202.139    119.78451   -26321.924    215.56775 
  114400    292.59795   -26179.439    127.33812   -26306.777   -1630.3243 
  114600    289.45059   -26192.419    125.96839   -26318.387    1284.1489 
  114800    289.53189    -26196.48    126.00378   -26322.483    4722.4871 
  115000    276.13116   -26191.865     120.1718   -26312.037     4272.061 
  115200    304.60489   -26181.904    132.56352   -26314.468    4653.1337 
  115400    283.45658   -26203.093    123.35981   -26326.453    262.91982 
  115600    294.29957   -26195.231    128.07866    -26323.31   -2212.5585 
  115800    335.89226   -26176.513    146.17973   -26322.693    7801.6597 
  116000    289.96261   -26196.556    126.19122   -26322.748   -2344.2308 
  116200    277.59207   -26200.097    120.80759   -26320.905   -4108.7698 
  116400    286.66517   -26193.527    124.75619   -26318.283    5288.0671 
  116600    317.82906   -26172.518    138.31866   -26310.836    2448.5605 
  116800    303.54952   -26196.091    132.10422   -26328.195    1071.7094 
  117000    303.91715   -26190.678    132.26422   -26322.942     3574.273 
  117200    336.18667   -26165.413    146.30785   -26311.721   -2015.8291 
  117400    320.07282    -26193.07    139.29514   -26332.365   -366.98161 
  117600    313.98227   -26196.818    136.64454   -26333.463   -513.99531 
  117800    334.42866   -26174.288    145.54277    -26319.83    1288.8558 
  118000    269.67913   -26197.809    117.36389   -26315.173   -3951.9185 
  118200    291.99678   -26200.267    127.07649   -26327.343   -93.477204 
  118400    311.10527   -26174.299    135.39247   -26309.691   -1982.7369 
  118600     301.2162   -26182.758    131.08877   -26313.847   -3378.0562 
  118800    296.93584   -26201.926    129.22596   -26331.152    1273.2818 
  119000    326.09544   -26177.563    141.91617   -26319.479    8892.0852 
  119200    299.53563   -26185.429    130.35739   -26315.786    700.19495 
  119400    297.03149   -26197.315    129.26759   -26326.583   -56.286164 
  119600    279.22097   -26205.755    121.51648   -26327.271    149.70249 
  119800    306.89894   -26175.254    133.56189   -26308.816    2373.8897 
  120000    284.47557    -26193.32    123.80327   -26317.123     1244.978 
  120200    282.55424   -26207.506    122.96711   -26330.473    2594.9705 
  120400    307.01936   -26183.746    133.61429   -26317.361   -2438.4134 
  120600    281.67617   -26195.839    122.58498   -26318.424    3855.3448 
  120800    271.64584   -26216.764     118.2198   -26334.984   -2671.8873 
  121000    305.25538   -26184.191    132.84661   -26317.037    819.89464 
  121200    296.56121   -26195.276    129.06292   -26324.339    609.45448 
  121400     285.4719   -26205.348    124.23688   -26329.585   -161.98549 
  121600    314.92161   -26174.968    137.05334   -26312.021   -179.87107 
  121800    281.38549   -26200.213    122.45848   -26322.672   -6496.5355 
  122000    295.94423   -26200.067    128.79442   -26328.861   -6676.2685 
  122200    313.21951    -26165.62    136.31259   -26301.933    1746.0377 
  122400    294.32879   -26196.844    128.09138   -26324.935   -4189.4307 
  122600    279.86325   -26202.728      121.796   -26324.524    1451.7546 
  122800    339.16779     -26171.4    147.60523   -26319.005     466.2831 
  123000    296.04982   -26195.469    128.84037   -26324.309    272.87778 
  123200    295.39755       -26198     128.5565   -26326.556    806.10587 
  123400    311.30139   -26181.532    135.47783    -26317.01   -4990.4298 
  123600    286.78735   -26192.243    124.80936   -26317.052   -5575.6009 
  123800    282.10004   -26202.033    122.76945   -26324.803   -4565.7605 
  124000    312.63245   -26188.869     136.0571   -26324.926    2523.8984 
  124200    305.43699   -26190.485    132.92565   -26323.411    1662.5734 
  124400    287.32721   -26202.328    125.04431   -26327.373    2021.8767 
  124600     332.2839   -26170.996    144.60938   -26315.606   -5132.3641 
  124800    273.37603   -26198.375    118.97278   -26317.348    2429.3278 
  125000    280.48082   -26199.426    122.06477   -26321.491   -3198.2216 
  125200    309.71608   -26168.682     134.7879    -26303.47   -4241.3194 
  125400    299.53489   -26182.225    130.35706   -26312.582    375.83618 
  125600    290.67744   -26198.128    126.50232    -26324.63    223.25926 
  125800    309.53908   -26183.343    134.71087   -26318.053   -3265.9598 
  126000    292.37984   -26179.812     127.2432   -26307.055   -3760.1394 
  126200    319.62734   -26191.097    139.10127   -26330.198    2028.2378 
  126400     326.5353   -26186.181     142.1076   -26328.289     454.6892 
  126600    310.88718   -26173.427    135.29756   -26308.724   -2544.7936 
  126800    284.14104   -26199.918    123.65769   -26323.575    2356.7471 
  127000    277.29486   -26197.151    120.67824   -26317.829   -1535.5589 
  127200    344.90162   -26170.618    150.10059   -26320.718    563.59219 
  127400    307.66409   -26197.669    133.89488   -26331.564    290.54387 
  127600    298.27595   -26192.741    129.80918    -26322.55   -2116.1555 
  127800    304.49079   -26188.875    132.51386   -26321.389   -1527.9862 
  128000    269.33955   -26187.986     117.2161   -26305.202   -2570.3392 
  128200    347.56273   -26154.646     151.2587   -26305.905     -1624.96 
  128400    296.53684   -26185.334    129.05232   -26314.386    -911.5103 
  128600    279.95655   -26198.122    121.83661   -26319.959   -196.94455 
  128800    274.94722    -26189.29    119.65656   -26308.947    -3252.092 
  129000     323.9991   -26170.127    141.00385   -26311.131   -3228.3789 
  129200    276.18116   -26203.241    120.19356   -26323.435   -3847.7506 
  129400    309.90468   -26193.624    134.86998   -26328.494   -1093.2795 
  129600    330.07708   -26163.038    143.64897   -26306.687    1408.6691 
  129800    302.87128   -26194.365    131.80905   -26326.174    8206.4387 
  130000    304.23031   -26198.764     132.4005   -26331.165    6452.4965 
  130200    356.37125   -26169.421    155.09215   -26324.513    307.39639 
  130400     333.1944   -26184.279    145.00563   -26329.284   -2012.5644 
  130600    288.56893   -26201.048     125.5847   -26326.633    575.91593 
  130800    313.41262   -26179.241    136.39663   -26315.638    4365.1834 
  131000    263.85928   -26201.368     114.8311     -26316.2   -2412.3093 
  131200    265.80705   -26203.443    115.67877   -26319.122   -1960.0718 
  131400     287.3333   -26174.262    125.04695   -26299.309   -2534.2404 
  131600    300.73168   -26196.729    130.87791   -26327.607   -2475.1695 
  131800    322.23534   -26183.317    140.23626   -26323.554   -1233.1162 
  132000    329.44831   -26173.889    143.37533   -26317.264     2516.442 
  132200    280.40871   -26203.685    122.03339   -26325.718    3935.3673 
  132400       310.84   -26183.636    135.27703   -26318.913   -3573.1559 
  132600    327.99178   -26171.374    142.74145   -26314.115   -365.78844 
  132800    310.30183   -26193.535    135.04282   -26328.578   -1577.6213 
  133000    330.25938   -26182.421    143.72831    -26326.15     2277.401 
  133200    281.38658   -26206.549    122.45895   -26329.008    64.741252 
  133400    285.01467   -26193.138    124.03789   -26317.176    1788.9563 
  133600    324.22477   -26177.542    141.10206   -26318.644   -2067.7375 
  133800    287.50222   -26202.335    125.12047   -26327.456   -4574.1788 
  134000     315.6837   -26179.294      137.385   -26316.679   -5264.5116 
  134200    274.74037   -26193.003    119.56653    -26312.57   -793.00393 
  134400    259.95869    -26206.42    113.13357   -26319.553    1056.8512 
  134600    310.17345   -26180.122    134.98695   -26315.109      4371.78 
  134800    305.19633   -26205.022    132.82091   -26337.843    3177.3927 
  135000     316.4587   -26198.019    137.72228   -26335.742   -4936.4034 
  135200    324.68551   -26188.185    141.30257   -26329.488   -441.35321 
  135400    275.81118   -26213.053    120.03255   -26333.086    2587.8391 
  135600    303.71101   -26194.911     132.1745   -26327.085    3190.7862 
  135800    278.93564   -26193.075    121.39231   -26314.467   -3857.0991 
  136000    324.26873   -26205.283    141.12119   -26346.404   -208.09014 
  136200    276.84962   -26213.033    120.48447   -26333.518    1863.1936 
  136400    313.08719   -26187.553      136.255   -26323.808    88.007346 
  136600    294.10143   -26208.454    127.99243   -26336.447   -2395.0719 
  136800    294.43626   -26220.194    128.13815   -26348.332   -1074.3354 
  137000    303.28698   -26197.814    131.98997   -26329.804   -966.86755 
  137200    334.41812   -26184.523    145.53819   -26330.061    625.30442 
  137400    329.79411     -26183.7    143.52582   -26327.225   -1378.9466 
  137600    282.21054   -26204.856    122.81754   -26327.674   -2697.3675 
  137800    313.78921   -26191.166    136.56052   -26327.726   -3428.6096 
  138000    344.42684   -26180.805    149.89396   -26330.699   -143.03536 
  138200    277.20926   -26202.311    120.64099   -26322.952   -1630.0548 
  138400    296.34658   -26194.169    128.96952   -26323.139   -2011.3293 
  138600    333.56942   -26171.526    145.16883   -26316.695    2684.1622 
  138800    274.03886   -26203.437    119.26124   -26322.699    3188.5276 
  139000    331.34555   -26192.854    144.20101   -26337.055    -268.4665 
  139200    351.77168   -26168.509    153.09043     -26321.6    774.68481 
  139400    287.60246   -26207.074    125.16409   -26332.238   -671.31601 
  139600    321.85444   -26189.321    140.07049   -26329.391    2798.0606 
  139800     317.1566   -26191.131      138.026   -26329.157    5161.0048 
  140000    293.40411   -26214.001    127.68896    -26341.69    4835.1015 
  140200    304.11461   -26185.119    132.35015   -26317.469    1239.8756 
  140400    286.76807   -26196.255    124.80097   -26321.056   -3447.6176 
  140600      303.197   -26190.421    131.95081   -26322.372   -2378.7697 
  140800    324.38341   -26169.623     141.1711   -26310.794    4140.1294 
  141000    287.52406    -26201.49    125.12997    -26326.62    1083.5413 
  141200    297.23474   -26195.375    129.35604   -26324.731   -623.14893 
  141400    327.70067   -26179.104    142.61476   -26321.719    2066.6156 
  141600    278.25063   -26214.786    121.09419    -26335.88    315.40104 
  141800    303.01734   -26186.123    131.87262   -26317.996   -1293.7987 
  142000    303.93666   -26193.452    132.27271   -26325.725    1621.6834 
  142200    268.42819   -26219.174    116.81948   -26335.994   -2196.2464 
  142400    296.46171   -26183.066    129.01962   -26312.086     2338.589 
  142600    312.94831     -26184.4    136.19456   -26320.595   -2116.4433 
  142800    304.04759   -26198.811    132.32098   -26331.132    -2703.602 
  143000    285.88596   -26201.826    124.41707   -26326.243   -13.899475 
  143200    292.47703   -26177.739     127.2855   -26305.025   -1014.6836 
  143400    263.15883   -26199.832    114.52627   -26314.358   -4576.3818 
  143600    260.68657   -26236.503    113.45035   -26349.953   -663.21022 
  143800    316.90594   -26210.242    137.91691   -26348.159    1542.7642 
  144000    319.62286   -26189.677    139.09931   -26328.776   -285.54696 
  144200    278.64206    -26189.73    121.26454   -26310.994   -2413.4936 
  144400    284.63703   -26205.618    123.87354   -26329.492    2727.3464 
  144600    301.94843   -26184.752    131.40743   -26316.159    890.56804 
  144800    299.64202   -26191.054    130.40369   -26321.458   -3669.2324 
  145000    268.39544   -26204.103    116.80523   -26320.908     2010.745 
  145200    275.67598   -26213.334    119.97371   -26333.307   -3862.5373 
  145400    336.60306   -26189.753    146.48907   -26336.242   -38.147445 
  145600    273.47442   -26209.018     119.0156   -26328.033   -1546.2627 
  145800    264.52326   -26225.861    115.12006   -26340.981    2116.6256 
  146000    298.20992   -26193.343    129.78044   -26323.123     2862.192 
  146200    296.98669    -26183.26    129.24809   -26312.508   -4010.3572 
  146400    291.33403   -26189.566    126.78807   -26316.354   -2696.0256 
  146600    317.64694   -26191.053     138.2394   -26329.292   -528.22773 
  146800    303.87334    -26206.33    132.24515   -26338.575    1818.0832 
  147000    280.42616   -26200.775    122.04098   -26322.816   -2603.0103 
  147200    312.90647   -26188.608    136.17635   -26324.784    2890.2915 
  147400    283.78972   -26213.199    123.50479   -26336.704    -2232.988 
  147600    287.61055   -26202.023    125.16761   -26327.191   -1676.4894 
  147800    302.81036   -26176.997    131.78255   -26308.779    96.026104 
  148000    300.13663   -26200.718    130.61894   -26331.337   -80.364994 
  148200    302.70198   -26188.076    131.73538   -26319.812   -4094.1767 
  148400    286.35359   -26172.577    124.62059   -26297.197   -4098.4001 
  148600    253.83614   -26192.566    110.46905   -26303.035    2663.6566 
  148800    298.22669   -26195.676    129.78774   -26325.464    2553.8825 
  149000    301.65012   -26204.759    131.27761   -26336.036   -2435.0811 
  149200    288.04286   -26189.826    125.35575   -26315.182   -4342.9853 
  149400    286.14482   -26181.894    124.52973   -26306.424    -5326.881 
  149600    276.72295   -26215.713    120.42935   -26336.142   -5025.6066 
  149800    277.38371   -26199.721    120.71691   -26320.438    328.73661 
  150000    307.97154   -26179.971    134.02868       -26314    3066.7946 
  150200     270.8794   -26209.937    117.88624   -26327.823    2481.5136 
  150400    291.44796    -26200.55    126.83765   -26327.388    4582.3883 
  150600    299.33916   -26177.469    130.27188   -26307.741   -6397.5689 
  150800    292.27978   -26206.799    127.19965   -26333.999     1024.137 
  151000    297.94141   -26199.891    129.66359   -26329.554    4252.7116 
  151200    302.39083   -26186.152    131.59997   -26317.752   -2845.3914 
  151400     282.2373   -26212.763    122.82918   -26335.593   -3079.6673 
  151600    298.01981   -26178.785    129.69771   -26308.482    1514.8047 
  151800    303.91008   -26195.903    132.26114   -26328.164    1617.0865 
  152000    287.01556   -26192.273    124.90867   -26317.182    5728.7534 
  152200    290.60193   -26186.088    126.46946   -26312.558   -3301.5631 
  152400    298.93015   -26195.815    130.09388   -26325.909    1723.7641 
  152600    259.33238   -26218.862      112.861   -26331.723   -1587.7875 
  152800     284.0508    -26191.71    123.61841   -26315.328   -1538.4363 
  153000    275.26391   -26190.139    119.79438   -26309.933   -773.58905 
  153200    337.60333   -26157.922    146.92438   -26304.846     4537.531 
  153400    288.42202   -26185.083    125.52076   -26310.603    4988.3541 
  153600    277.91545   -26195.253    120.94832   -26316.202   -3073.3151 
  153800    349.92805   -26172.062    152.28808    -26324.35   -4093.9993 
  154000    313.01531   -26190.587    136.22372   -26326.811    720.60702 
  154200    311.16238   -26194.868    135.41733   -26330.285   -454.73808 
  154400     282.5633   -26201.578    122.97106   -26324.549    -1694.941 
  154600     276.8982   -26212.103    120.50562   -26332.609    149.59363 
  154800    317.70497   -26189.434    138.26465   -26327.699   -1235.8567 
  155000    272.31799     -26188.1    118.51232   -26306.612   -2697.2101 
  155200    316.22755   -26178.313    137.62168   -26315.935    -4505.512 
  155400    309.04257   -26198.891    134.49479   -26333.386    -8159.402 
  155600    298.02459    -26187.47    129.69979    -26317.17   -255.46767 
  155800    370.70915   -26163.237    161.33198   -26324.569    3427.6223 
  156000    307.95346   -26196.136    134.02081   -26330.157    6360.6923 
  156200     298.7652   -26202.376     130.0221   -26332.398   -1784.2236 
  156400     303.4579   -26202.583    132.06435   -26334.648   -331.52624 
  156600    304.25788   -26181.363     132.4125   -26313.775    406.03903 
  156800    273.10718    -26198.29    118.85577   -26317.145   -3811.9167 
  157000    295.51392   -26202.236    128.60715   -26330.843    1961.7072 
  157200    311.83743   -26183.392    135.71111   -26319.103    2611.4373 
  157400    321.94512   -26193.859    140.10996   -26333.969   -3448.9868 
  157600    335.30348   -26165.744    145.92349   -26311.667   -3823.7143 
  157800    322.32696   -26178.546    140.27613   -26318.822   -902.41109 
  158000    304.59055   -26205.911    132.55728   -26338.469    -4661.747 
  158200    297.32811   -26202.619    129.39668   -26332.016   -7486.5448 
  158400    285.58809   -26188.922    124.28744   -26313.209   -1213.7489 
  158600    289.36782   -26196.225    125.93237   -26322.158     923.6799 
  158800    277.14688   -26214.497    120.61384   -26335.111   -3770.2805 
  159000     319.0995   -26191.316    138.87155   -26330.187    1109.8759 
  159200    335.59014   -26181.091    146.04825   -26327.139   -3221.2902 
  159400    296.26177   -26210.496    128.93261   -26339.428   -27.616652 
  159600    275.59323   -26205.564     119.9377   -26325.502    -1807.899 
  159800    311.42328   -26191.273    135.53087   -26326.804   -4629.4435 
  160000    314.93564   -26190.321    137.05944   -26327.381    1101.7509 
  160200    318.81926    -26175.55    138.74959   -26314.299    6446.7981 
  160400     308.7783   -26189.063    134.37978   -26323.443   -3373.8073 
  160600    307.64994   -26193.735    133.88872   -26327.624   -2387.2248 
  160800    351.89454   -26154.071    153.14389   -26307.214    376.03953 
  161000    310.11256   -26184.128    134.96045   -26319.088    1052.5083 
  161200    310.43823   -26191.588    135.10218    -26326.69   -920.23181 
  161400    311.14252   -26204.263    135.40869   -26339.671   -1349.1798 
  161600    293.77209   -26204.175    127.84911   -26332.024    2821.9135 
  161800    307.05622   -26178.733    133.63033   -26312.364   -2933.4461 
  162000    261.57915   -26193.126    113.83879   -26306.965   -1391.2493 
  162200    319.36627   -26187.925    138.98765   -26326.913    2261.2803 
  162400    299.10517   -26196.356    130.17005   -26326.526   -1163.5969 
  162600    294.90952   -26197.086    128.34411    -26325.43   -5355.9995 
  162800    319.96091   -26173.124    139.24643    -26312.37   -5711.8758 
  163000    315.60278    -26198.98    137.34978    -26336.33   -4129.9638 
  163200    289.61679   -26197.374    126.04073   -26323.415    1951.2998 
  163400    297.16712   -26203.408    129.32662   -26332.734    4490.9272 
  163600    311.23725   -26182.659    135.44991   -26318.109    1376.6536 
  163800    308.37495   -26191.583    134.20424   -26325.787   -5099.5722 
  164000    277.61181   -26204.496    120.81618   -26325.312   -7485.1982 
  164200    291.19551    -26191.07    126.72778   -26317.797   -4632.2054 
  164400    285.43576   -26193.311    124.22115   -26317.532   -1834.2664 
  164600    302.99379    -26192.75    131.86237   -26324.612   -3235.0794 
  164800    302.26589   -26193.882    131.54559   -26325.428   -2458.8418 
  165000    304.63728   -26192.031    132.57762   -26324.608    2020.3622 
  165200     287.2298   -26204.752    125.00191   -26329.753    4261.4637 
  165400    302.11188   -26181.093    131.47857   -26312.571    76.270937 
  165600    287.28199   -26190.245    125.02462   -26315.269    6845.8197 
  165800    293.18622    -26206.58    127.59413   -26334.174   -452.85582 
  166000    322.57075   -26186.501    140.38223   -26326.884   -1311.3631 
  166200    290.97783   -26199.183    126.63305   -26325.816    1381.6267 
  166400    275.67723   -26213.141    119.97425   -26333.116   -520.27386 
  166600     297.0346   -26196.105    129.26894   -26325.374    387.63664 
  166800    309.03337     -26188.5    134.49079   -26322.991     3887.474 
  167000    286.88919   -26196.656    124.85368   -26321.509   -215.28961 
  167200    277.41291    -26212.42    120.72962   -26333.149   -877.08644 
  167400    301.71498   -26181.915    131.30584   -26313.221    1142.9065 
  167600    278.04994   -26195.759    121.00685   -26316.766   -2096.0956 
  167800    367.59027   -26160.786    159.97465   -26320.761    454.05844 
  168000    301.41081   -26184.857    131.17346    -26316.03    1417.8102 
  168200    283.28849   -26198.996    123.28666   -26322.282    5599.0055 
  168400    302.37898    -26177.83    131.59481   -26309.425    -1604.633 
  168600    263.73489   -26206.743    114.77697    -26321.52    -1594.612 
  168800    285.33013    -26197.26    124.17518   -26321.435   -2098.6144 
  169000    301.61313   -26189.261    131.26151   -26320.522    4604.4609 
  169200    285.59958   -26197.569    124.29244   -26321.861   -955.42941 
  169400    317.63594   -26182.777    138.23461   -26321.011   -769.00335 
  169600    262.28246   -26212.584    114.14487   -26326.729    217.49239 
  169800    271.69541   -26196.848    118.24137    -26315.09   -4620.8614 
  170000    283.68527     -26194.1    123.45934   -26317.559   -240.60296 
  170200    271.20654   -26212.298    118.02862   -26330.326   -1035.1838 
  170400    284.31264   -26202.021    123.73237   -26325.754   -3331.0572 
  170600    275.29462   -26179.056    119.80774   -26298.864   -5048.6589 
  170800    313.18937   -26193.729    136.29947   -26330.029   -5490.1048 
  171000    297.04045   -26205.602    129.27149   -26334.874   -3726.7057 
  171200    307.56762   -26179.629    133.85289   -26313.482    189.80973 
  171400    288.52105   -26202.074    125.56386   -26327.638    8379.7936 
  171600    285.86224   -26201.652    124.40675   -26326.059    2789.5511 
  171800    280.77965   -26192.573    122.19482   -26314.767   -2739.6914 
  172000    312.97613   -26166.387    136.20667   -26302.593    90.986558 
  172200    276.85003   -26200.674    120.48465   -26321.158    5363.3196 
  172400    298.67494   -26199.369    129.98282   -26329.352   -1078.5611 
  172600    323.46523   -26171.447    140.77151   -26312.218   -3104.4935 
  172800    284.32984   -26205.301    123.73985   -26329.041    1717.5847 
  173000    297.92536    -26202.39     129.6566   -26332.047    914.97202 
  173200    315.26994   -26185.569    137.20493   -26322.774    1696.9622 
  173400    251.67619   -26222.046    109.52904   -26331.575   -5517.0686 
  173600    260.27823   -26208.977    113.27263    -26322.25    355.89298 
  173800    320.64446   -26184.492    139.54391   -26324.036    2687.8132 
  174000    289.94443   -26195.244    126.18331   -26321.428   -3593.1107 
  174200    271.64239   -26231.237     118.2183   -26349.456   -1084.6409 
  174400    320.58991   -26199.265    139.52018   -26338.785    7472.5245 
  174600     311.4235   -26193.411    135.53097   -26328.942     2808.693 
  174800    312.95404   -26198.995    136.19706   -26335.192   -3714.2237 
  175000    323.25554   -26172.597    140.68025   -26313.277   -1493.4558 
  175200    288.99449   -26197.779     125.7699   -26323.549    1601.8669 
  175400    315.10978   -26191.526    137.13523   -26328.661   -517.56714 
  175600    286.88645   -26195.176    124.85249   -26320.028    3985.8219 
  175800    274.92645   -26220.363    119.64751    -26340.01    2289.0094 
  176000    299.29678    -26194.98    130.25344   -26325.234    2252.4183 
  176200    319.97091   -26196.911    139.25079   -26336.162    1193.2583 
  176400    277.85562   -26208.225    120.92228   -26329.148   -549.83236 
  176600    335.59516   -26181.749    146.05043   -26327.799    -983.1864 
  176800    271.05735   -26200.179    117.96369   -26318.142    4614.0679 
  177000    311.46097   -26187.903    135.54727    -26323.45   -1513.5763 
  177200    291.99114   -26184.733    127.07404   -26311.807    -4691.208 
  177400    268.27677    -26210.05    116.75359   -26326.803   -1195.3994 
  177600    324.84194   -26175.628    141.37065   -26316.998   -557.96188 
  177800    285.02972   -26188.275    124.04444    -26312.32    -1593.559 
[...]
  950000    292.78439   -26269.981    127.41926     -26397.4    4422.6808 
  950200     315.5443   -26241.277    137.32433   -26378.601   -4246.9926 
  950400    284.43233   -26266.041    123.78446   -26389.825   -3856.0576 
  950600    292.85472   -26268.282    127.44987   -26395.732   -2375.5031 
  950800    338.12218    -26250.85    147.15019       -26398    4868.3208 
  951000    276.96608   -26275.589    120.53516   -26396.124    2564.7685 
  951200    291.27046   -26261.092     126.7604   -26387.853    1286.3203 
  951400    333.92951   -26251.849    145.32554   -26397.175   -2839.7478 
  951600    257.12029   -26270.929    111.89831   -26382.828   -5447.1235 
  951800    294.54178   -26250.784    128.18407   -26378.968   -3201.2906 
  952000    349.03998   -26237.123    151.90159   -26389.025    8432.1146 
  952200    295.79795   -26270.863    128.73076   -26399.594    3791.8116 
  952400    312.26172   -26257.989    135.89576   -26393.885    1549.9731 
  952600    300.83933    -26259.57    130.92476   -26390.495    2769.7184 
  952800    291.00408    -26268.71    126.64447   -26395.355      2385.23 
  953000    292.20312   -26261.984    127.16629   -26389.151    698.26739 
  953200    330.07784   -26250.918     143.6493   -26394.568    2811.6973 
  953400    292.83082   -26262.106    127.43946   -26389.546    7108.0266 
  953600    261.42665   -26266.684    113.77242   -26380.457   -143.32483 
  953800    321.77012   -26241.373     140.0338   -26381.407   -2841.1558 
  954000    322.57869   -26274.863    140.38569   -26415.248    -2237.419 
  954200     265.4077   -26269.149    115.50497   -26384.654    7757.4221 
  954400    311.47365   -26255.083    135.55279   -26390.636    3260.7928 
  954600    320.85442   -26262.456    139.63529   -26402.091     3086.369 
  954800    302.07679   -26263.004    131.46329   -26394.467    5242.6045 
  955000    312.81451   -26266.504    136.13633    -26402.64    5975.2909 
  955200    300.06438   -26256.518     130.5875   -26387.106    5929.5744 
  955400    333.29911   -26250.924     145.0512   -26395.975    1368.1368 
  955600    280.78813   -26267.988    122.19851   -26390.186    1984.9733 
  955800    303.70811   -26257.779    132.17324   -26389.952    4212.0402 
  956000    323.32882   -26233.189    140.71214   -26373.901    767.59016 
  956200    295.70239   -26266.094    128.68917   -26394.783    161.41444 
  956400    273.94836   -26279.757    119.22185   -26398.979    3881.3271 
  956600    265.81136   -26267.647    115.68064   -26383.327   -2845.9031 
  956800    275.24407   -26260.457    119.78574   -26380.243    1009.4749 
  957000    320.26047   -26253.875     139.3768   -26393.251     1622.627 
  957200    275.86605   -26275.031    120.05643   -26395.087   -4102.7014 
  957400    311.69769   -26249.981    135.65029   -26385.632   -2829.8407 
  957600    349.98539    -26227.11    152.31304   -26379.423    3964.4078 
  957800    290.80968   -26262.175    126.55987   -26388.735    2682.8663 
  958000    267.81297    -26277.18    116.55174   -26393.731    2554.1797 
  958200    289.86872   -26252.278    126.15037   -26378.429   -12.029517 
  958400    321.11751   -26249.094    139.74978   -26388.844   -3398.4757 
  958600    272.26483   -26273.583    118.48918   -26392.072    1464.0292 
  958800    275.77088   -26271.444    120.01501   -26391.459    4134.6335 
  959000    318.33906    -26237.76    138.54061     -26376.3    3939.8966 
  959200    272.46027   -26255.625    118.57424   -26374.199    3761.5786 
  959400    313.90273   -26263.557    136.60992   -26400.167    155.58137 
  959600    302.13915   -26270.952    131.49043   -26402.442    437.13837 
  959800    320.94334   -26242.058    139.67398   -26381.732    3015.5761 
  960000    330.60768    -26266.36    143.87989    -26410.24     864.7075 
  960200     285.3167    -26275.57    124.16933   -26399.739   -2910.1218 
  960400    306.28661    -26247.98     133.2954   -26381.276   -7211.2177 
  960600    311.64446    -26256.11    135.62713   -26391.737   -2953.5458 
  960800    289.27303   -26281.789    125.89112    -26407.68    3237.9731 
  961000    299.52199   -26267.482    130.35145   -26397.834    4315.8628 
  961200    291.73324   -26265.622     126.9618   -26392.584   -752.67487 
  961400    334.42591   -26246.869    145.54158    -26392.41   -1311.5926 
  961600    262.85313   -26277.891    114.39323   -26392.284   -295.43751 
  961800     294.8532   -26265.897     128.3196   -26394.217   -1668.8859 
  962000    316.96737   -26240.393    137.94365   -26378.337   -95.588635 
  962200    299.76166   -26252.395    130.45576   -26382.851   -7072.6725 
  962400    290.38943   -26277.668    126.37698   -26404.044   -1226.6712 
  962600    323.96433   -26269.973    140.98871   -26410.962     2932.989 
  962800     316.6917   -26258.322    137.82368   -26396.145    3272.8594 
  963000    343.09102   -26227.503    149.31262   -26376.816    -291.2631 
  963200    294.56092   -26251.097     128.1924    -26379.29    5788.9346 
  963400    314.34519   -26270.764    136.80248   -26407.566    3202.4641 
  963600    262.87816   -26272.885    114.40412   -26387.289    5223.6009 
  963800    300.23701   -26260.841    130.66263   -26391.503    -2942.405 
  964000    304.80361   -26262.034       132.65   -26394.684    2097.5307 
  964200    323.93568   -26237.624    140.97625   -26378.601    1129.0053 
  964400    296.29055   -26273.275    128.94513    -26402.22    -2614.142 
  964600    264.91925    -26271.01     115.2924   -26386.302   -2904.4239 
  964800     315.1517   -26254.643    137.15348   -26391.797    3601.8413 
  965000    310.85647   -26264.573     135.2842   -26399.857   -76.126188 
  965200    289.63933   -26262.802    126.05053   -26388.852   -6210.7334 
  965400    312.23963   -26265.513    135.88615   -26401.399    2720.4902 
  965600    346.05473   -26239.535    150.60242   -26390.137   -1145.7721 
  965800    295.83431   -26264.469    128.74658   -26393.216   -261.32677 
  966000     265.7349   -26283.731    115.64737   -26399.378    3775.9789 
  966200    329.38831   -26264.376    143.34922   -26407.725    1069.2401 
  966400    323.70036    -26256.07    140.87383   -26396.944    1889.4664 
  966600    274.69217   -26280.918    119.54556   -26400.463   -1327.9303 
  966800    304.45096   -26253.369    132.49653   -26385.865    1776.9089 
  967000    297.69082   -26259.506    129.55453   -26389.061    200.35714 
  967200    285.13996   -26271.994    124.09241   -26396.087   -824.03936 
  967400    293.54983    -26254.45    127.75238   -26382.202   -3953.5984 
  967600    332.83065    -26236.85    144.84732   -26381.698    900.64133 
  967800    307.39521   -26261.761    133.77786   -26395.539     2756.891 
  968000    277.84611   -26273.049    120.91815   -26393.967   -108.06213 
  968200    318.39001   -26246.476    138.56278   -26385.038    1548.7594 
  968400    293.68886   -26273.427    127.81288    -26401.24    2153.8361 
  968600    291.73609   -26262.703    126.96304   -26389.666    3978.8069 
  968800    347.63846   -26238.217    151.29165   -26389.509   -1049.6223 
  969000    303.58422   -26261.926    132.11933   -26394.046    1168.9099 
  969200    312.07645   -26267.624    135.81513    -26403.44    1598.6285 
  969400    332.83021   -26241.414    144.84713   -26386.262    3345.1472 
  969600    335.53602   -26243.782    146.02469   -26389.807   -3272.6347 
  969800    310.50978    -26261.66    135.13332   -26396.793    1008.0711 
  970000    274.87511    -26276.24    119.62517   -26395.865   -9869.7852 
  970200    286.95917   -26273.336    124.88413    -26398.22   -2221.3459 
  970400    281.38352   -26254.833    122.45762   -26377.291   -1382.8644 
  970600    288.13158   -26273.142    125.39436   -26398.537   -4003.5572 
  970800    287.20841   -26276.663     124.9926   -26401.656    520.04032 
  971000     279.0064   -26262.538     121.4231   -26383.961   -1360.3554 
  971200    296.19403   -26245.213    128.90313   -26374.116    902.55574 
  971400    309.18175   -26246.949    134.55536   -26381.505   -2496.7785 
  971600    301.05493   -26268.301    131.01858   -26399.319   -2191.8382 
  971800    332.62343    -26252.85    144.75714   -26397.607   -4211.8361 
  972000    294.31797   -26277.485    128.08667   -26405.571   -5149.0464 
  972200    306.43672   -26262.414    133.36073   -26395.774   -2378.1403 
  972400    311.93368    -26256.86      135.753   -26392.613    5829.8701 
  972600    331.96228   -26261.637    144.46941   -26406.107     5853.071 
  972800    307.85989   -26263.036    133.98009   -26397.016   -3671.0235 
  973000    297.44499   -26245.245    129.44755   -26374.692   -3434.6461 
  973200    295.88759   -26272.702    128.76977   -26401.471   -1623.9362 
  973400      269.072   -26275.928    117.09967   -26393.027   -1185.9556 
  973600    309.29452   -26259.317    134.60444   -26393.921    749.24071 
  973800    286.30791   -26261.074    124.60071   -26385.675   -4560.7455 
  974000    291.21533   -26295.167    126.73641   -26421.904   -817.26942 
  974200    308.05266   -26269.565    134.06398   -26403.629   -2155.4826 
  974400    298.87437   -26255.662    130.06961   -26385.732    2672.9876 
  974600    348.35511   -26230.707    151.60354    -26382.31    187.98633 
  974800    281.86654    -26266.91    122.66783   -26389.578   -3435.2933 
  975000    336.92578   -26247.565    146.62952   -26394.194   -1115.9367 
  975200    286.78681   -26279.881    124.80912    -26404.69     5019.171 
  975400     296.5575   -26267.657    129.06131   -26396.719    2968.1008 
  975600    291.96105   -26261.013    127.06094   -26388.074    3086.6168 
  975800    303.93204   -26267.188     132.2707   -26399.459    5757.7378 
  976000    312.26428    -26265.52    135.89687   -26401.416    42.816332 
  976200    294.59889   -26266.969    128.20893   -26395.178   -7960.9034 
  976400    359.44728   -26229.368    156.43083   -26385.798    -2186.438 
  976600    298.49163   -26247.064    129.90304   -26376.967    -2070.639 
  976800    296.20917   -26268.623    128.90972   -26397.533   -387.99972 
  977000    317.40124   -26252.144    138.13247   -26390.276    -2339.159 
  977200    307.08858   -26248.696    133.64442    -26382.34   -763.91889 
  977400     295.8912   -26271.666    128.77134   -26400.437    1512.7135 
  977600    274.15847   -26269.317    119.31329    -26388.63    2183.4655 
  977800    322.14692   -26256.619    140.19778   -26396.817     940.1564 
  978000    281.12382   -26269.464     122.3446   -26391.809   -34.206119 
  978200    285.21969   -26272.724    124.12712   -26396.852    2831.5968 
  978400    288.33668    -26241.84    125.48363   -26367.324    -3233.574 
  978600    271.55325   -26272.353    118.17951   -26390.533    1393.6774 
  978800    317.76887   -26256.438    138.29246   -26394.731    1418.1473 
  979000    313.93785    -26259.41    136.62521   -26396.035    1261.5191 
  979200    310.44055   -26263.598    135.10319   -26398.702   -3748.6742 
  979400    305.64643   -26261.187    133.01679   -26394.203   -2853.1654 
  979600    255.74322   -26285.984    111.29901   -26397.283    4610.3846 
  979800    295.30775   -26265.634    128.51742   -26394.152   -612.51857 
  980000    299.62933   -26262.053    130.39817   -26392.451    -334.1201 
  980200    345.48624   -26244.729    150.35501   -26395.084   -252.26152 
  980400    287.30482    -26258.89    125.03456   -26383.925    525.05397 
  980600    284.94011    -26273.98    124.00544   -26397.986   -902.44594 
  980800    275.30685   -26285.451    119.81306   -26405.264    357.51233 
  981000    301.75773   -26259.068    131.32444   -26390.392     6937.496 
  981200    314.33031   -26263.722    136.79601   -26400.518    3220.4731 
  981400    270.60907   -26285.556     117.7686   -26403.324    2883.2552 
  981600    308.05798   -26259.469     134.0663   -26393.535    6386.2533 
  981800    304.15677   -26264.154     132.3685   -26396.523    3565.0752 
  982000    322.35489   -26267.123    140.28829   -26407.411    -2253.583 
  982200    293.70711   -26268.681    127.82082   -26396.501   -864.80476 
  982400    344.41561   -26245.871    149.88908    -26395.76    1612.0357 
  982600    293.27341   -26263.507    127.63208   -26391.139   -771.30905 
  982800    313.17974    -26260.75    136.29528   -26397.045   -3007.3525 
  983000    314.23893   -26267.342    136.75624   -26404.098   -471.23127 
  983200     308.0875   -26283.416    134.07915   -26417.495    4697.7352 
  983400    319.93448   -26258.449    139.23493   -26397.684    2840.3031 
  983600    277.29215   -26263.839    120.67706   -26384.516    4066.3018 
  983800    334.77102   -26236.257    145.69177   -26381.949    3592.0654 
  984000    296.58866   -26262.677    129.07487   -26391.752    4349.3456 
  984200    287.59162   -26269.528    125.15937   -26394.687    -3303.585 
  984400    337.30448   -26243.567    146.79433   -26390.361   -1643.6815 
  984600    279.66749   -26261.096    121.71081   -26382.807    5713.7702 
  984800    292.34968   -26267.239    127.23007   -26394.469    2943.1941 
  985000    275.12503   -26280.807    119.73394   -26400.541    19.289534 
  985200    306.57611   -26263.196    133.42139   -26396.617    3923.7604 
  985400    343.04445   -26239.576    149.29235   -26388.869    5228.4825 
  985600    343.04288   -26255.375    149.29167   -26404.667   -1573.3846 
  985800    307.48415    -26265.42    133.81657   -26399.237   -6275.5914 
  986000    290.54468   -26275.122    126.44454   -26401.567   -583.27649 
  986200    302.92768   -26251.736     131.8336    -26383.57     811.4567 
  986400    313.35283   -26272.628    136.37061   -26408.999   -3749.9707 
  986600    260.72918   -26291.567    113.46889   -26405.036    137.43275 
  986800    328.26382   -26257.027    142.85984   -26399.887    3518.3569 
  987000    275.18071    -26262.06    119.75817   -26381.818   -2550.4152 
  987200    272.20611   -26285.441    118.46363   -26403.905   -2212.8791 
  987400    319.30333   -26254.276    138.96026   -26393.236   -8726.0646 
  987600    301.70063    -26258.59    131.29959   -26389.889   -5243.8882 
  987800    306.33873   -26242.236    133.31809   -26375.554   -1048.7322 
  988000    290.16585   -26272.277    126.27968   -26398.557   -2200.3593 
  988200    289.87006   -26263.998    126.15095   -26390.149    3024.5937 
  988400    327.60678   -26248.527     142.5739   -26391.101   -507.03283 
  988600    286.61601   -26262.289    124.73479   -26387.024   -4585.3078 
  988800     339.3589   -26249.181     147.6884   -26396.869   -2813.2265 
  989000    262.25484   -26277.886    114.13285   -26392.018    532.30359 
  989200    296.87152   -26258.131    129.19797   -26387.329    1776.3481 
  989400    295.98899   -26273.512    128.81389   -26402.326    3094.2369 
  989600    266.54229   -26272.359    115.99874   -26388.358    1944.2576 
  989800    320.05389   -26261.035     139.2869   -26400.322   -886.56482 
  990000    266.39695   -26275.962    115.93549   -26391.897   -2842.2878 
  990200    286.91908    -26279.95    124.86669   -26404.817   -3782.2313 
  990400    288.08835   -26254.658    125.37555   -26380.034      971.323 
  990600    286.89752   -26276.613     124.8573   -26401.471    416.96446 
  990800    304.21683   -26266.042    132.39464   -26398.437    310.76272 
  991000    304.93907   -26258.238    132.70895   -26390.947   -3222.2915 
  991200    309.34505   -26260.749    134.62643   -26395.375   -4854.2833 
  991400    253.50641   -26288.399    110.32555   -26398.724    -1103.295 
  991600    297.17371   -26261.851    129.32948    -26391.18    469.76303 
  991800    295.57722   -26271.988    128.63469   -26400.622     374.9822 
  992000     293.5508   -26275.321     127.7528   -26403.074    -220.2848 
  992200    274.57078   -26250.334    119.49273   -26369.827    53.594869 
  992400    291.17397   -26271.856    126.71841   -26398.574   -318.25839 
  992600    292.43525   -26258.465    127.26731   -26385.732   -709.98781 
  992800    300.81506   -26256.063    130.91419   -26386.978   -2232.0615 
  993000    276.85727   -26270.219     120.4878   -26390.707    2633.5972 
  993200    297.23544   -26256.913    129.35635   -26386.269    2668.0002 
  993400    310.86601   -26251.593    135.28835   -26386.881   -455.85886 
  993600    275.12997   -26277.767    119.73609   -26397.503   -2273.6627 
  993800    330.63718   -26259.028    143.89273   -26402.921    3162.2891 
  994000    332.13787   -26235.665    144.54583   -26380.211   -1719.4106 
  994200    303.14031     -26268.2    131.92614   -26400.127    3259.9695 
  994400    326.14386   -26261.758    141.93724   -26403.695   -89.298213 
  994600    303.31164   -26241.218     132.0007   -26373.218   -6201.7704 
  994800    266.09843   -26265.616    115.80558   -26381.422   -1880.3274 
  995000    285.92696     -26259.9    124.43492   -26384.334    379.23141 
  995200    325.57231   -26224.064    141.68851   -26365.753    1933.2006 
  995400    297.73626   -26262.353     129.5743   -26391.927   -6628.2442 
  995600    282.69376   -26267.741    123.02783   -26390.768   -816.03086 
  995800    334.53991   -26246.631    145.59119   -26392.222    3615.7142 
  996000    285.54284   -26277.607    124.26775   -26401.875    2094.5237 
  996200    275.61001   -26266.788      119.945   -26386.733   -1810.8218 
  996400    329.34868   -26241.536    143.33197   -26384.868    417.66175 
  996600     271.5939   -26277.786    118.19719   -26395.984   -31.036995 
  996800    300.14221   -26262.833    130.62137   -26393.454   -165.05901 
  997000    347.03383   -26240.783    151.02852   -26391.812    419.63972 
  997200    300.25197   -26273.404    130.66914   -26404.074   -3445.6065 
  997400    312.58246   -26256.683    136.03535   -26392.718   -5563.9187 
  997600     303.2861   -26265.202    131.98959   -26397.191    80.701819 
  997800    302.47184   -26279.662    131.63522   -26411.298     997.3477 
  998000    308.05391   -26253.255    134.06453   -26387.319    983.93034 
  998200    310.38762   -26253.283    135.08016   -26388.364   -4582.5828 
  998400    302.24431   -26263.105     131.5362   -26394.641   -329.23751 
  998600    294.31214   -26279.914    128.08413   -26407.998   -3077.4836 
  998800    263.58784   -26272.112    114.71297   -26386.825   -2973.4867 
  999000    308.57242   -26249.536    134.29018   -26383.826    -690.4732 
  999200    293.54999   -26273.291    127.75245   -26401.043    926.57616 
  999400     271.1793   -26283.447    118.01676   -26401.464    1014.7126 
  999600    294.72647   -26262.572    128.26445   -26390.837   -796.63942 
  999800    308.66312   -26260.145    134.32966   -26394.474   -2196.8898 
 1000000     272.0429   -26273.441     118.3926   -26391.834    411.51661 
Loop time of 2268.65 on 8 procs for 1000000 steps with 147 atoms

Performance: 9.521 ns/day, 2.521 hours/ns, 440.790 timesteps/s
99.5% CPU use with 8 MPI tasks x no OpenMP threads

MPI task timing breakdown:
Section |  min time  |  avg time  |  max time  |%varavg| %total
---------------------------------------------------------------
Pair    | 693.8      | 830.75     | 1237.5     | 745.3 | 36.62
Neigh   | 0.43543    | 0.46366    | 0.53619    |   4.8 |  0.02
Comm    | 46.76      | 449.29     | 585.09     | 999.9 | 19.80
Output  | 0.1079     | 0.11384    | 0.13565    |   2.5 |  0.01
Modify  | 977.61     | 984.71     | 990.62     |  15.8 | 43.41
Other   |            | 3.331      |            |       |  0.15

Nlocal:    18.375 ave 64 max 1 min
Histogram: 6 0 0 0 0 0 0 0 0 2
Nghost:    328.5 ave 364 max 314 min
Histogram: 3 1 1 0 2 0 0 0 0 1
Neighs:    699.375 ave 2340 max 40 min
Histogram: 5 1 0 0 0 0 0 0 0 2

Total # of neighbors = 5595
Ave neighs/atom = 38.0612
Neighbor list builds = 1898
Dangerous builds = 0

unfix 1
unfix output
undump 1

Please see the log.cite file for references relevant to this simulation

Total wall time: 0:37:51
