ITEM: TIMESTEP
0
ITEM: NUMBER OF ATOMS
147
ITEM: BOX BOUNDS pp pp pp
0.0000000000000000e+00 2.1884000000000000e+01
0.0000000000000000e+00 2.1885999999999999e+01
0.0000000000000000e+00 2.1885000000000002e+01
ITEM: ATOMS id type x y z 
146 2 1.337 1.055 21.352 
147 3 1.501 1.999 21.539 
16 1 1.605 12.547 12.547 
32 1 0.024 10.965 10.965 
64 1 4.318 12.218 12.218 
68 1 1.276 15.26 12.218 
78 1 1.276 12.218 15.26 
112 1 3.118 12.317 12.317 
116 1 1.375 14.061 12.317 
126 1 1.375 12.317 14.061 
144 1 0.722 11.664 11.663 
9 1 8.524 12.547 12.547 
25 1 10.105 10.965 10.965 
57 1 5.811 12.218 12.218 
65 1 8.853 15.26 12.218 
73 1 8.853 12.219 15.26 
105 1 7.01 12.317 12.317 
113 1 8.754 14.061 12.317 
121 1 8.754 12.317 14.061 
137 1 9.407 11.664 11.664 
11 1 1.605 19.466 12.547 
27 1 0.023 21.047 10.964 
59 1 4.318 19.795 12.218 
69 1 1.276 16.754 12.218 
79 1 1.276 19.795 15.26 
107 1 3.119 19.696 12.317 
117 1 1.375 17.953 12.317 
127 1 1.375 19.696 14.061 
139 1 0.721 20.349 11.663 
14 1 8.524 19.467 12.547 
30 1 10.106 21.049 10.966 
62 1 5.811 19.795 12.218 
72 1 8.853 16.753 12.218 
76 1 8.853 19.796 15.26 
110 1 7.01 19.696 12.317 
120 1 8.754 17.953 12.317 
124 1 8.754 19.697 14.061 
142 1 9.407 20.35 11.664 
13 1 1.605 12.547 19.466 
29 1 0.023 10.966 21.048 
61 1 4.318 12.218 19.795 
71 1 1.276 15.26 19.795 
75 1 1.276 12.218 16.754 
109 1 3.119 12.317 19.696 
119 1 1.375 14.061 19.696 
123 1 1.375 12.317 17.953 
141 1 0.721 11.664 20.35 
12 1 8.524 12.547 19.466 
28 1 10.106 10.965 21.047 
60 1 5.811 12.219 19.795 
70 1 8.853 15.26 19.796 
80 1 8.853 12.219 16.754 
108 1 7.011 12.317 19.696 
118 1 8.754 14.061 19.696 
128 1 8.754 12.318 17.953 
140 1 9.408 11.664 20.349 
10 1 1.604 19.466 19.466 
26 1 0.023 21.047 21.049 
58 1 4.317 19.796 19.795 
66 1 1.276 16.754 19.795 
74 1 1.276 19.795 16.753 
106 1 3.118 19.696 19.696 
114 1 1.375 17.953 19.696 
122 1 1.375 19.696 17.952 
138 1 0.721 20.349 20.35 
15 1 8.524 19.467 19.466 
31 1 10.106 21.048 21.049 
63 1 5.811 19.796 19.795 
67 1 8.853 16.754 19.795 
77 1 8.853 19.796 16.753 
111 1 7.01 19.697 19.696 
115 1 8.754 17.953 19.696 
125 1 8.754 19.697 17.952 
143 1 9.407 20.35 20.35 
8 1 12.547 1.604 1.605 
24 1 10.965 0.023 0.022 
40 1 15.26 1.275 1.276 
44 1 12.218 4.317 1.276 
54 1 12.218 1.275 4.318 
88 1 14.061 1.374 1.375 
92 1 12.317 3.118 1.375 
102 1 12.317 1.374 3.119 
136 1 11.664 0.721 0.721 
1 1 19.466 1.604 1.604 
17 1 21.048 0.023 0.022 
33 1 16.753 1.275 1.276 
41 1 19.795 4.317 1.276 
49 1 19.795 1.275 4.317 
81 1 17.952 1.374 1.375 
89 1 19.696 3.118 1.375 
97 1 19.696 1.374 3.118 
129 1 20.35 0.722 0.721 
3 1 12.546 8.524 1.604 
19 1 10.965 10.106 0.024 
35 1 15.26 8.852 1.276 
45 1 12.218 5.811 1.275 
55 1 12.218 8.852 4.317 
83 1 14.06 8.753 1.375 
93 1 12.317 7.01 1.374 
103 1 12.317 8.753 3.118 
131 1 11.663 9.407 0.722 
6 1 19.466 8.524 1.605 
22 1 21.048 10.105 0.023 
38 1 16.753 8.852 1.276 
48 1 19.795 5.811 1.276 
52 1 19.795 8.853 4.318 
86 1 17.952 8.754 1.375 
96 1 19.696 7.01 1.375 
100 1 19.696 8.754 3.118 
134 1 20.35 9.407 0.721 
5 1 12.547 1.604 8.524 
21 1 10.965 0.022 10.105 
37 1 15.26 1.275 8.853 
47 1 12.218 4.317 8.853 
51 1 12.218 1.276 5.811 
85 1 14.06 1.374 8.754 
95 1 12.317 3.118 8.754 
99 1 12.317 1.375 7.01 
133 1 11.663 0.72 9.407 
4 1 19.466 1.605 8.524 
20 1 21.048 0.024 10.107 
36 1 16.753 1.275 8.853 
46 1 19.795 4.317 8.853 
56 1 19.795 1.275 5.811 
84 1 17.952 1.374 8.754 
94 1 19.695 3.118 8.754 
104 1 19.696 1.374 7.01 
132 1 20.35 0.722 9.408 
2 1 12.547 8.524 8.524 
18 1 10.965 10.106 10.106 
34 1 15.26 8.853 8.853 
42 1 12.218 5.811 8.853 
50 1 12.218 8.852 5.811 
82 1 14.061 8.754 8.754 
90 1 12.317 7.01 8.754 
98 1 12.317 8.754 7.01 
130 1 11.664 9.407 9.407 
7 1 19.466 8.524 8.524 
23 1 21.047 10.106 10.106 
39 1 16.753 8.853 8.853 
43 1 19.795 5.811 8.853 
53 1 19.795 8.853 5.811 
87 1 17.952 8.754 8.754 
91 1 19.696 7.01 8.754 
101 1 19.696 8.754 7.01 
135 1 20.349 9.407 9.407 
145 2 21.721 1.055 21.352 
ITEM: TIMESTEP
10
ITEM: NUMBER OF ATOMS
147
ITEM: BOX BOUNDS pp pp pp
0.0000000000000000e+00 2.1884000000000000e+01
0.0000000000000000e+00 2.1885999999999999e+01
0.0000000000000000e+00 2.1885000000000002e+01
ITEM: ATOMS id type x y z 
146 2 1.36178 1.06695 21.3518 
147 3 1.49282 1.99458 21.5384 
16 1 1.60499 12.5469 12.547 
32 1 0.0239375 10.9651 10.9651 
64 1 4.31836 12.2185 12.2185 
68 1 1.2765 15.2599 12.2185 
78 1 1.2765 12.2185 15.2601 
112 1 3.11775 12.3174 12.3174 
116 1 1.3754 14.0607 12.3174 
126 1 1.37538 12.3174 14.0606 
144 1 0.721499 11.664 11.6631 
9 1 8.52384 12.5469 12.547 
25 1 10.1052 10.9648 10.9653 
57 1 5.81151 12.2186 12.2186 
65 1 8.85243 15.2596 12.2186 
73 1 8.85252 12.2192 15.2601 
105 1 7.00961 12.3173 12.3173 
113 1 8.75366 14.0613 12.3173 
121 1 8.75365 12.3177 14.0607 
137 1 9.40718 11.6642 11.6633 
11 1 1.60467 19.4664 12.5465 
27 1 0.023025 21.0476 10.9649 
59 1 4.3178 19.7945 12.2185 
69 1 1.27643 16.7534 12.2185 
79 1 1.27613 19.7949 15.2578 
107 1 3.11872 19.6957 12.3172 
117 1 1.37522 17.9524 12.3172 
127 1 1.37545 19.6956 14.0581 
139 1 0.721445 20.3495 11.6625 
14 1 8.52404 19.4664 12.547 
30 1 10.1057 21.0488 10.9655 
62 1 5.81136 19.7945 12.2184 
72 1 8.8525 16.7529 12.2185 
76 1 8.85251 19.7956 15.2598 
110 1 7.01033 19.6958 12.3173 
120 1 8.75368 17.9532 12.3174 
124 1 8.75367 19.6965 14.0607 
142 1 9.40756 20.3504 11.664 
13 1 1.60503 12.5469 19.4666 
29 1 0.0231764 10.966 21.0483 
61 1 4.31741 12.2187 19.7944 
71 1 1.27616 15.2581 19.7948 
75 1 1.27646 12.2184 16.7535 
109 1 3.11967 12.3172 19.6959 
119 1 1.37551 14.0586 19.6956 
123 1 1.37525 12.3173 17.9524 
141 1 0.7211 11.6634 20.3493 
12 1 8.5244 12.5472 19.4662 
28 1 10.1062 10.9651 21.0474 
60 1 5.81091 12.219 19.7945 
70 1 8.85252 15.2604 19.795 
80 1 8.85259 12.2195 16.7532 
108 1 7.01114 12.3177 19.6958 
118 1 8.75366 14.061 19.6961 
128 1 8.75373 12.3182 17.9531 
140 1 9.40721 11.6638 20.3496 
10 1 1.62357 19.4493 19.447 
26 1 0.0309432 20.9909 21.0355 
58 1 4.32159 19.7968 19.7962 
66 1 1.27498 16.7497 19.7961 
74 1 1.2749 19.7961 16.7491 
106 1 3.12234 19.6953 19.6945 
114 1 1.37662 17.9487 19.6942 
122 1 1.37633 19.6949 17.9482 
138 1 0.724078 20.3206 20.3459 
15 1 8.52429 19.4669 19.4663 
31 1 10.1055 21.048 21.0486 
63 1 5.81291 19.7958 19.7948 
67 1 8.85247 16.7539 19.7947 
77 1 8.85251 19.7955 16.7533 
111 1 7.01257 19.6965 19.6955 
115 1 8.75364 17.9529 19.6957 
125 1 8.75366 19.6966 17.9525 
143 1 9.4075 20.3502 20.3495 
8 1 12.5461 1.60421 1.60469 
24 1 10.9652 0.0226301 0.0219678 
40 1 15.255 1.275 1.27599 
44 1 12.2185 4.31735 1.27629 
54 1 12.2184 1.27561 4.31774 
88 1 14.0555 1.37461 1.37554 
92 1 12.3172 3.1184 1.37526 
102 1 12.3172 1.37424 3.11897 
136 1 11.6629 0.720322 0.721237 
1 1 19.4817 1.57461 1.58875 
17 1 21.0835 0.192419 -0.00820861 
33 1 16.7456 1.27551 1.27589 
41 1 19.7947 4.32147 1.27638 
49 1 19.7952 1.2754 4.32539 
81 1 17.9478 1.36829 1.37054 
89 1 19.7011 3.12033 1.37009 
97 1 19.7008 1.36808 3.12299 
129 1 20.2977 0.739184 0.767828 
3 1 12.5463 8.52364 1.60448 
19 1 10.9646 10.106 0.0234676 
35 1 15.2599 8.85145 1.27653 
45 1 12.2185 5.81078 1.27561 
55 1 12.2185 8.85147 4.3176 
83 1 14.0598 8.75282 1.37515 
93 1 12.3171 7.01008 1.37431 
103 1 12.3172 8.7528 3.118 
131 1 11.6637 9.40735 0.721206 
6 1 19.4659 8.52458 1.60466 
22 1 21.048 10.1052 0.0224174 
38 1 16.7535 8.85171 1.2766 
48 1 19.7949 5.81485 1.27611 
52 1 19.7946 8.85259 4.31837 
86 1 17.9509 8.75359 1.37507 
96 1 19.6955 7.01413 1.37547 
100 1 19.6957 8.75378 3.1183 
134 1 20.3502 9.408 0.72162 
5 1 12.5467 1.60427 8.52401 
21 1 10.9649 0.0221905 10.1049 
37 1 15.26 1.27543 8.85254 
47 1 12.2185 4.31751 8.85252 
51 1 12.2184 1.2763 5.81124 
85 1 14.0597 1.37439 8.75364 
95 1 12.3173 3.11792 8.75369 
99 1 12.3173 1.37517 7.01055 
133 1 11.6635 0.719916 9.40787 
4 1 19.4659 1.60454 8.52495 
20 1 21.0482 0.0233997 10.1065 
36 1 16.7536 1.2755 8.85242 
46 1 19.7943 4.31781 8.85262 
56 1 19.795 1.275 5.81598 
84 1 17.9509 1.37432 8.75391 
94 1 19.6953 3.11862 8.75377 
104 1 19.6954 1.37477 7.01547 
132 1 20.3497 0.721057 9.40831 
2 1 12.547 8.52396 8.52409 
18 1 10.9651 10.1058 10.1062 
34 1 15.2599 8.85254 8.85251 
42 1 12.2185 5.81095 8.85243 
50 1 12.2186 8.85174 5.8111 
82 1 14.0603 8.75359 8.75364 
90 1 12.3174 7.01007 8.75366 
98 1 12.3173 8.75329 7.01037 
130 1 11.6636 9.40712 9.40655 
7 1 19.4661 8.524 8.52386 
23 1 21.0477 10.1061 10.1058 
39 1 16.7531 8.85253 8.85253 
43 1 19.7945 5.81112 8.85252 
53 1 19.7944 8.85243 5.81189 
87 1 17.9524 8.7536 8.75361 
91 1 19.6957 7.01022 8.75361 
101 1 19.6957 8.75369 7.00959 
135 1 20.3487 9.40707 9.40752 
145 2 21.6751 0.998964 21.3864 
ITEM: TIMESTEP
20
ITEM: NUMBER OF ATOMS
147
ITEM: BOX BOUNDS pp pp pp
0.0000000000000000e+00 2.1884000000000000e+01
0.0000000000000000e+00 2.1885999999999999e+01
0.0000000000000000e+00 2.1885000000000002e+01
ITEM: ATOMS id type x y z 
146 2 1.3776 1.06893 21.3501 
147 3 1.491 1.99952 21.5396 
16 1 1.60476 12.5469 12.5468 
32 1 0.0233853 10.9654 10.965 
64 1 4.31764 12.2188 12.2188 
68 1 1.27677 15.2595 12.2188 
78 1 1.27679 12.2188 15.2596 
112 1 3.11859 12.3175 12.3175 
116 1 1.37552 14.0604 12.3176 
126 1 1.3755 12.3176 14.0605 
144 1 0.722106 11.6635 11.6632 
9 1 8.524 12.547 12.5468 
25 1 10.1052 10.9653 10.9651 
57 1 5.81109 12.2188 12.2189 
65 1 8.85214 15.26 12.2189 
73 1 8.85218 12.2195 15.2599 
105 1 7.01031 12.3176 12.3175 
113 1 8.7534 14.0608 12.3175 
121 1 8.75344 12.3179 14.0607 
137 1 9.40732 11.6634 11.6638 
11 1 1.60495 19.4661 12.5453 
27 1 0.0231072 21.0478 10.965 
59 1 4.31835 19.7944 12.2187 
69 1 1.27658 16.7527 12.2186 
79 1 1.27558 19.7954 15.2554 
107 1 3.11927 19.6957 12.317 
117 1 1.37524 17.9518 12.317 
127 1 1.37545 19.6956 14.0563 
139 1 0.721851 20.3495 11.6627 
14 1 8.52432 19.4665 12.5469 
30 1 10.1055 21.0488 10.9657 
62 1 5.81166 19.7943 12.2187 
72 1 8.85215 16.7535 12.2189 
76 1 8.85223 19.7953 15.2595 
110 1 7.0108 19.6956 12.3175 
120 1 8.75355 17.9526 12.3175 
124 1 8.7535 19.6963 14.0604 
142 1 9.40753 20.3498 11.6637 
13 1 1.60507 12.5458 19.4662 
29 1 0.0228995 10.9656 21.0482 
61 1 4.31852 12.2189 19.7943 
71 1 1.27561 15.2559 19.7954 
75 1 1.27661 12.2187 16.7529 
109 1 3.11936 12.3172 19.6958 
119 1 1.37558 14.0567 19.6956 
123 1 1.37534 12.3171 17.952 
141 1 0.721642 11.6632 20.3496 
12 1 8.52451 12.5472 19.4663 
28 1 10.1059 10.9652 21.0476 
60 1 5.81182 12.2192 19.7942 
70 1 8.85221 15.2599 19.7947 
80 1 8.85225 12.2198 16.7534 
108 1 7.01093 12.3179 19.6956 
118 1 8.75355 14.0608 19.696 
128 1 8.75365 12.3183 17.9525 
140 1 9.40755 11.6637 20.3496 
10 1 1.62475 19.4452 19.4463 
26 1 0.0201136 20.9888 21.0428 
58 1 4.32333 19.7979 19.797 
66 1 1.27417 16.7476 19.7968 
74 1 1.27399 19.7971 16.7473 
106 1 3.12531 19.6933 19.6924 
114 1 1.37975 17.9455 19.6912 
122 1 1.37862 19.6927 17.9454 
138 1 0.71455 20.3079 20.352 
15 1 8.52531 19.4667 19.466 
31 1 10.1054 21.0482 21.0482 
63 1 5.81522 19.7963 19.7954 
67 1 8.85227 16.7533 19.7945 
77 1 8.85229 19.7954 16.7528 
111 1 7.01434 19.6964 19.6955 
115 1 8.75379 17.9523 19.6957 
125 1 8.75384 19.6966 17.9518 
143 1 9.40774 20.3499 20.3494 
8 1 12.5439 1.60438 1.60506 
24 1 10.9649 0.0217899 0.0218837 
40 1 15.2512 1.27499 1.27562 
44 1 12.2186 4.31823 1.27627 
54 1 12.2186 1.27569 4.31873 
88 1 14.0519 1.37459 1.37548 
92 1 12.3167 3.11922 1.37522 
102 1 12.3167 1.37431 3.11969 
136 1 11.6619 0.720492 0.720897 
1 1 19.4765 1.57357 1.59365 
17 1 21.0907 0.206614 -0.0170679 
33 1 16.7412 1.27485 1.27448 
41 1 19.795 4.32057 1.27621 
49 1 19.7967 1.27479 4.32947 
81 1 17.9433 1.3647 1.36917 
89 1 19.7018 3.11976 1.36932 
97 1 19.7022 1.36444 3.12736 
129 1 20.2979 0.741153 0.766249 
3 1 12.5464 8.52387 1.60436 
19 1 10.9651 10.1059 0.0228908 
35 1 15.2591 8.85122 1.27679 
45 1 12.2187 5.81148 1.27588 
55 1 12.2188 8.85118 4.31757 
83 1 14.0599 8.75271 1.37527 
93 1 12.3172 7.01058 1.37454 
103 1 12.3173 8.75268 3.11845 
131 1 11.663 9.40765 0.721675 
6 1 19.4658 8.52615 1.60502 
22 1 21.0483 10.1055 0.022647 
38 1 16.7524 8.85156 1.27666 
48 1 19.7946 5.81538 1.27645 
52 1 19.7944 8.85232 4.31822 
86 1 17.9516 8.75367 1.37533 
96 1 19.6957 7.01407 1.37528 
100 1 19.6956 8.75404 3.11913 
134 1 20.3493 9.40818 0.721271 
5 1 12.5466 1.60428 8.52453 
21 1 10.9651 0.0220283 10.1056 
37 1 15.2588 1.27566 8.85223 
47 1 12.2188 4.31745 8.85217 
51 1 12.2187 1.27646 5.81201 
85 1 14.0597 1.37459 8.75356 
95 1 12.3174 3.11835 8.75364 
99 1 12.3175 1.37531 7.01106 
133 1 11.663 0.720267 9.40694 
4 1 19.4656 1.6048 8.52705 
20 1 21.0485 0.0224671 10.1065 
36 1 16.7519 1.27547 8.85236 
46 1 19.7942 4.31854 8.85243 
56 1 19.7954 1.27504 5.81963 
84 1 17.951 1.37444 8.75432 
94 1 19.6953 3.11955 8.75428 
104 1 19.6954 1.37474 7.01892 
132 1 20.3497 0.721129 9.40929 
2 1 12.5467 8.52398 8.52406 
18 1 10.965 10.1056 10.1055 
34 1 15.2596 8.85219 8.85218 
42 1 12.2189 5.81093 8.85214 
50 1 12.2189 8.85144 5.81105 
82 1 14.0604 8.75343 8.75345 
90 1 12.3175 7.01011 8.75344 
98 1 12.3175 8.75307 7.01025 
130 1 11.6638 9.40746 9.40747 
7 1 19.466 8.52428 8.52416 
23 1 21.0474 10.106 10.1057 
39 1 16.753 8.85221 8.85222 
43 1 19.7943 5.81181 8.85228 
53 1 19.7943 8.85222 5.81152 
87 1 17.9521 8.75351 8.75348 
91 1 19.6955 7.01089 8.75343 
101 1 19.6955 8.7535 7.01068 
135 1 20.3494 9.40714 9.40764 
145 2 21.6822 1.01449 21.376 
ITEM: TIMESTEP
30
ITEM: NUMBER OF ATOMS
147
ITEM: BOX BOUNDS pp pp pp
0.0000000000000000e+00 2.1884000000000000e+01
0.0000000000000000e+00 2.1885999999999999e+01
0.0000000000000000e+00 2.1885000000000002e+01
ITEM: ATOMS id type x y z 
146 2 1.53765 1.1042 21.3369 
147 3 1.47313 2.02987 21.5475 
16 1 1.60604 12.5459 12.5456 
32 1 0.0216095 10.9666 10.9666 
64 1 4.31948 12.2205 12.2204 
68 1 1.27755 15.2595 12.2201 
78 1 1.27756 12.2204 15.2582 
112 1 3.11901 12.3177 12.3177 
116 1 1.37573 14.0593 12.3176 
126 1 1.37596 12.3177 14.0584 
144 1 0.725894 11.6602 11.6624 
9 1 8.524 12.5446 12.5474 
25 1 10.1035 10.9649 10.9642 
57 1 5.81194 12.2207 12.2212 
65 1 8.85054 15.2579 12.2211 
73 1 8.85023 12.2214 15.2607 
105 1 7.01055 12.3187 12.3181 
113 1 8.75254 14.0601 12.3178 
121 1 8.75284 12.3187 14.0611 
137 1 9.40973 11.6651 11.6637 
11 1 1.60818 19.4622 12.5466 
27 1 0.0253709 21.0428 10.9671 
59 1 4.3186 19.7941 12.219 
69 1 1.27788 16.75 12.2191 
79 1 1.27532 19.7991 15.2594 
107 1 3.12016 19.6935 12.3149 
117 1 1.37737 17.9497 12.3156 
127 1 1.37201 19.6984 14.0639 
139 1 0.724985 20.3457 11.6671 
14 1 8.52727 19.4641 12.5464 
30 1 10.1068 21.0495 10.9666 
62 1 5.81247 19.7935 12.2197 
72 1 8.85074 16.7517 12.2202 
76 1 8.85094 19.7944 15.2588 
110 1 7.01191 19.6957 12.3172 
120 1 8.75351 17.9524 12.3176 
124 1 8.75341 19.6958 14.0594 
142 1 9.40625 20.3464 11.6622 
13 1 1.60451 12.542 19.4668 
29 1 0.0192055 10.9668 21.0516 
61 1 4.31728 12.2185 19.7924 
71 1 1.27371 15.252 19.7971 
75 1 1.27799 12.2187 16.7532 
109 1 3.1198 12.3148 19.6948 
119 1 1.37259 14.0549 19.6989 
123 1 1.37649 12.3143 17.9512 
141 1 0.721133 11.6563 20.3483 
12 1 8.52705 12.5439 19.4639 
28 1 10.107 10.9623 21.0437 
60 1 5.81306 12.2215 19.795 
70 1 8.85082 15.2569 19.7952 
80 1 8.85044 12.2221 16.7489 
108 1 7.01281 12.317 19.6943 
118 1 8.75424 14.0579 19.695 
128 1 8.75267 12.3184 17.9503 
140 1 9.40785 11.665 20.3496 
10 1 1.60594 19.4301 19.4642 
26 1 -0.0245536 20.965 21.0605 
58 1 4.31336 19.7898 19.786 
66 1 1.28882 16.7367 19.7828 
74 1 1.28592 19.7882 16.757 
106 1 3.11682 19.6812 19.6911 
114 1 1.3923 17.9354 19.6783 
122 1 1.38122 19.6789 17.9533 
138 1 0.649996 20.2361 20.3948 
15 1 8.52216 19.4652 19.4625 
31 1 10.0978 21.0477 21.0462 
63 1 5.80883 19.7992 19.7955 
67 1 8.85272 16.7536 19.7932 
77 1 8.85243 19.7944 16.752 
111 1 7.00441 19.6989 19.6987 
115 1 8.75516 17.9521 19.6944 
125 1 8.75541 19.6946 17.9508 
143 1 9.40714 20.344 20.3439 
8 1 12.5275 1.60859 1.60729 
24 1 10.9668 0.0146339 0.0169257 
40 1 15.2378 1.27304 1.26861 
44 1 12.2169 4.32156 1.27554 
54 1 12.2165 1.27569 4.32219 
88 1 14.0379 1.37607 1.37339 
92 1 12.3065 3.12345 1.37595 
102 1 12.3066 1.37561 3.12296 
136 1 11.6505 0.722235 0.721714 
1 1 19.464 1.54914 1.60421 
17 1 21.1418 0.307601 -0.0913236 
33 1 16.7256 1.26477 1.26913 
41 1 19.7875 4.30304 1.28482 
49 1 19.8025 1.26511 4.34253 
81 1 17.9296 1.34907 1.37149 
89 1 19.6873 3.10059 1.3839 
97 1 19.7001 1.34839 3.13977 
129 1 20.3319 0.798122 0.722652 
3 1 12.547 8.52801 1.60528 
19 1 10.9651 10.107 0.0230168 
35 1 15.2623 8.84997 1.2783 
45 1 12.2198 5.8179 1.27605 
55 1 12.2199 8.8497 4.31841 
83 1 14.0631 8.75366 1.37536 
93 1 12.3179 7.01667 1.37504 
103 1 12.3179 8.75369 3.11899 
131 1 11.6605 9.40978 0.726205 
6 1 19.4649 8.51762 1.60617 
22 1 21.0454 10.1045 0.0269028 
38 1 16.7556 8.85092 1.27883 
48 1 19.7912 5.7968 1.27963 
52 1 19.7911 8.85176 4.31553 
86 1 17.9546 8.75166 1.37683 
96 1 19.6943 6.99612 1.37742 
100 1 19.694 8.7515 3.11656 
134 1 20.3486 9.40153 0.723296 
5 1 12.5432 1.60651 8.52996 
21 1 10.9658 0.0229386 10.1072 
37 1 15.2542 1.27442 8.85066 
47 1 12.2198 4.32152 8.85061 
51 1 12.22 1.27476 5.81708 
85 1 14.0555 1.37518 8.75524 
95 1 12.3166 3.12175 8.75508 
99 1 12.316 1.37512 7.01591 
133 1 11.6575 0.718791 9.40767 
4 1 19.4622 1.60719 8.54212 
20 1 21.0544 0.0193203 10.1068 
36 1 16.75 1.27522 8.8543 
46 1 19.7941 4.32268 8.85412 
56 1 19.8019 1.27317 5.83062 
84 1 17.948 1.3757 8.7639 
94 1 19.6945 3.1235 8.76378 
104 1 19.6977 1.37686 7.03154 
132 1 20.3485 0.722416 9.42052 
2 1 12.5455 8.52414 8.52529 
18 1 10.9629 10.1053 10.1067 
34 1 15.259 8.85049 8.85045 
42 1 12.2212 5.81216 8.85079 
50 1 12.2209 8.84981 5.81187 
82 1 14.0592 8.75285 8.75268 
90 1 12.3179 7.01233 8.75216 
98 1 12.3177 8.75219 7.01123 
130 1 11.6663 9.40812 9.40826 
7 1 19.4647 8.52903 8.52398 
23 1 21.0472 10.1076 10.1061 
39 1 16.7511 8.85003 8.85089 
43 1 19.7948 5.81811 8.85067 
53 1 19.7934 8.84981 5.80819 
87 1 17.9508 8.75456 8.75261 
91 1 19.6949 7.01703 8.75318 
101 1 19.6945 8.75471 7.00741 
135 1 20.35 9.40753 9.40646 
145 2 21.7263 1.13232 21.2917 
ITEM: TIMESTEP
40
ITEM: NUMBER OF ATOMS
147
ITEM: BOX BOUNDS pp pp pp
0.0000000000000000e+00 2.1884000000000000e+01
0.0000000000000000e+00 2.1885999999999999e+01
0.0000000000000000e+00 2.1885000000000002e+01
ITEM: ATOMS id type x y z 
146 2 1.56697 1.10755 21.3342 
147 3 1.47209 2.03841 21.5496 
16 1 1.60536 12.5461 12.5459 
32 1 0.0240288 10.9649 10.9645 
64 1 4.31868 12.2204 12.2202 
68 1 1.27756 15.2592 12.2195 
78 1 1.27773 12.22 15.2587 
112 1 3.11927 12.3177 12.3178 
116 1 1.37612 14.0597 12.3175 
126 1 1.37643 12.3178 14.0594 
144 1 0.722057 11.6618 11.6644 
9 1 8.52373 12.546 12.5463 
25 1 10.1047 10.965 10.9646 
57 1 5.81142 12.2204 12.2206 
65 1 8.85071 15.2594 12.2203 
73 1 8.85056 12.221 15.2599 
105 1 7.01069 12.3183 12.3183 
113 1 8.75297 14.06 12.3182 
121 1 8.75321 12.3184 14.0604 
137 1 9.40804 11.6639 11.6637 
11 1 1.60589 19.4641 12.5502 
27 1 0.0266059 21.0433 10.9666 
59 1 4.31834 19.7928 12.2185 
69 1 1.27861 16.7519 12.2188 
79 1 1.27898 19.7955 15.265 
107 1 3.11914 19.6939 12.3185 
117 1 1.37732 17.9511 12.3188 
127 1 1.3752 19.6978 14.0653 
139 1 0.724934 20.3457 11.6661 
14 1 8.52484 19.4656 12.5475 
30 1 10.1057 21.0474 10.9665 
62 1 5.81166 19.7937 12.2192 
72 1 8.85111 16.7523 12.2201 
76 1 8.85175 19.7941 15.2594 
110 1 7.01093 19.6949 12.3176 
120 1 8.75327 17.9518 12.3177 
124 1 8.75314 19.6952 14.0601 
142 1 9.40712 20.3479 11.6638 
13 1 1.60407 12.5379 19.4672 
29 1 0.0186763 10.962 21.0519 
61 1 4.31885 12.2192 19.7932 
71 1 1.2769 15.2481 19.7945 
75 1 1.27805 12.2188 16.752 
109 1 3.11964 12.3142 19.6947 
119 1 1.37276 14.0468 19.6982 
123 1 1.37623 12.314 17.9515 
141 1 0.718694 11.6579 20.3523 
12 1 8.52528 12.5463 19.4654 
28 1 10.1063 10.9642 21.0463 
60 1 5.81267 12.22 19.7933 
70 1 8.85185 15.2593 19.7938 
80 1 8.85048 12.2213 16.7525 
108 1 7.01181 12.3183 19.6952 
118 1 8.75355 14.0601 19.6955 
128 1 8.75299 12.3189 17.952 
140 1 9.40898 11.6624 20.3471 
10 1 1.59877 19.4332 19.4694 
26 1 -0.0246571 20.9771 21.0592 
58 1 4.309 19.7891 19.7882 
66 1 1.28842 16.7366 19.7832 
74 1 1.28415 19.7875 16.7599 
106 1 3.11056 19.6812 19.6936 
114 1 1.38975 17.9369 19.6805 
122 1 1.37873 19.6785 17.9585 
138 1 0.651045 20.2464 20.3949 
15 1 8.51834 19.4654 19.465 
31 1 10.1026 21.0446 21.0436 
63 1 5.80416 19.7959 19.7918 
67 1 8.85216 16.7529 19.793 
77 1 8.85223 19.7937 16.7527 
111 1 7.00368 19.6979 19.6954 
115 1 8.75189 17.952 19.6937 
125 1 8.7522 19.6944 17.9519 
143 1 9.40354 20.3456 20.3463 
8 1 12.5277 1.60747 1.60716 
24 1 10.96 0.018216 0.0192795 
40 1 15.2369 1.27363 1.27005 
44 1 12.2151 4.32245 1.27648 
54 1 12.2153 1.27598 4.32167 
88 1 14.0377 1.37651 1.37256 
92 1 12.3065 3.12319 1.37623 
102 1 12.3068 1.37636 3.12219 
136 1 11.6525 0.720437 0.719824 
1 1 19.4684 1.54564 1.60019 
17 1 21.1424 0.322127 -0.0983555 
33 1 16.7268 1.26386 1.27143 
41 1 19.782 4.30111 1.28998 
49 1 19.8003 1.26388 4.34166 
81 1 17.9305 1.34415 1.36934 
89 1 19.6847 3.09935 1.38629 
97 1 19.7023 1.34327 3.13781 
129 1 20.3399 0.797293 0.712468 
3 1 12.5485 8.5284 1.60561 
19 1 10.9642 10.1072 0.024736 
35 1 15.263 8.85063 1.27851 
45 1 12.2195 5.81641 1.27599 
55 1 12.2201 8.85009 4.31801 
83 1 14.0636 8.75426 1.37644 
93 1 12.3189 7.01522 1.37496 
103 1 12.3187 8.75397 3.11875 
131 1 11.6637 9.40878 0.721723 
6 1 19.468 8.51163 1.6037 
22 1 21.0445 10.103 0.0277341 
38 1 16.7559 8.85013 1.27939 
48 1 19.7884 5.79459 1.28336 
52 1 19.7912 8.85049 4.31478 
86 1 17.955 8.74779 1.37637 
96 1 19.6937 6.99289 1.37754 
100 1 19.6941 8.74791 3.11577 
134 1 20.3478 9.39932 0.723079 
5 1 12.5438 1.60579 8.52753 
21 1 10.963 0.0214 10.1066 
37 1 15.256 1.27529 8.8522 
47 1 12.2197 4.31949 8.85156 
51 1 12.2189 1.27551 5.81523 
85 1 14.0567 1.37458 8.75446 
95 1 12.3163 3.1199 8.75477 
99 1 12.3166 1.37485 7.01437 
133 1 11.661 0.722174 9.40968 
4 1 19.4643 1.60804 8.54162 
20 1 21.0514 0.0197739 10.1107 
36 1 16.7494 1.27565 8.85538 
46 1 19.7935 4.32277 8.85547 
56 1 19.8008 1.27422 5.83193 
84 1 17.9489 1.37611 8.7634 
94 1 19.6939 3.12326 8.76352 
104 1 19.6982 1.3769 7.03103 
132 1 20.3501 0.721845 9.41881 
2 1 12.5458 8.52528 8.52434 
18 1 10.9647 10.1054 10.1061 
34 1 15.2597 8.85043 8.85087 
42 1 12.2202 5.81238 8.85072 
50 1 12.22 8.84978 5.81119 
82 1 14.0604 8.75324 8.7531 
90 1 12.318 7.01193 8.75308 
98 1 12.3179 8.75283 7.01044 
130 1 11.6639 9.40832 9.40797 
7 1 19.4651 8.52815 8.52224 
23 1 21.0464 10.1066 10.1064 
39 1 16.7527 8.85091 8.85067 
43 1 19.7941 5.81619 8.85133 
53 1 19.792 8.85129 5.80791 
87 1 17.952 8.75436 8.75204 
91 1 19.6956 7.01516 8.75173 
101 1 19.6945 8.75442 7.00719 
135 1 20.3495 9.40963 9.4053 
145 2 21.7311 1.14265 21.275 
ITEM: TIMESTEP
50
ITEM: NUMBER OF ATOMS
147
ITEM: BOX BOUNDS pp pp pp
0.0000000000000000e+00 2.1884000000000000e+01
0.0000000000000000e+00 2.1885999999999999e+01
0.0000000000000000e+00 2.1885000000000002e+01
ITEM: ATOMS id type x y z 
146 2 1.60516 1.11865 21.3322 
147 3 1.47297 2.04417 21.5513 
16 1 1.60472 12.5466 12.5463 
32 1 0.0234987 10.9644 10.9656 
64 1 4.31794 12.2201 12.2202 
68 1 1.27841 15.2599 12.219 
78 1 1.27835 12.2199 15.2591 
112 1 3.11849 12.318 12.3179 
116 1 1.37612 14.0607 12.3174 
126 1 1.37642 12.318 14.0599 
144 1 0.721445 11.6631 11.6639 
9 1 8.52442 12.5467 12.5471 
25 1 10.1051 10.9647 10.9653 
57 1 5.81132 12.2202 12.2203 
65 1 8.85104 15.2595 12.2202 
73 1 8.85077 12.2209 15.2599 
105 1 7.01026 12.3181 12.3182 
113 1 8.75277 14.0607 12.3181 
121 1 8.75289 12.3184 14.0609 
137 1 9.40779 11.6643 11.6631 
11 1 1.60545 19.4655 12.5546 
27 1 0.027749 21.0434 10.9672 
59 1 4.31715 19.7922 12.2197 
69 1 1.27916 16.7533 12.2202 
79 1 1.28286 19.7924 15.2694 
107 1 3.11824 19.6935 12.3209 
117 1 1.37734 17.952 12.3213 
127 1 1.37809 19.696 14.0701 
139 1 0.724619 20.3466 11.6678 
14 1 8.52374 19.4658 12.5478 
30 1 10.1048 21.0473 10.9662 
62 1 5.81041 19.7928 12.2187 
72 1 8.85102 16.7531 12.22 
76 1 8.85211 19.7933 15.2609 
110 1 7.00967 19.695 12.318 
120 1 8.7527 17.9523 12.3186 
124 1 8.75316 19.6951 14.0617 
142 1 9.40753 20.347 11.6638 
13 1 1.60341 12.5349 19.4675 
29 1 0.0186752 10.961 21.0541 
61 1 4.31896 12.2188 19.7928 
71 1 1.27963 15.2455 19.7918 
75 1 1.27823 12.2188 16.7526 
109 1 3.1196 12.3129 19.6955 
119 1 1.37405 14.0448 19.6974 
123 1 1.37588 12.3128 17.9518 
141 1 0.716901 11.6546 20.3518 
12 1 8.52546 12.5475 19.466 
28 1 10.1059 10.9643 21.0468 
60 1 5.81236 12.2202 19.793 
70 1 8.85203 15.2606 19.7931 
80 1 8.8506 12.2211 16.7528 
108 1 7.01167 12.3184 19.6948 
118 1 8.75388 14.0617 19.6951 
128 1 8.7529 12.3191 17.9522 
140 1 9.40828 11.6638 20.3492 
10 1 1.59278 19.4331 19.475 
26 1 -0.0212176 20.9904 21.0545 
58 1 4.30361 19.7876 19.7892 
66 1 1.28858 16.7342 19.7829 
74 1 1.28333 19.7856 16.7642 
106 1 3.10474 19.6812 19.6978 
114 1 1.38591 17.935 19.6841 
122 1 1.37448 19.6785 17.9631 
138 1 0.650209 20.2562 20.3957 
15 1 8.51411 19.4657 19.4654 
31 1 10.1021 21.0433 21.043 
63 1 5.7986 19.7929 19.7883 
67 1 8.85079 16.7544 19.7919 
77 1 8.85111 19.7927 16.7541 
111 1 6.99808 19.6962 19.6924 
115 1 8.74848 17.9529 19.6936 
125 1 8.74907 19.6943 17.953 
143 1 9.40223 20.3448 20.3473 
8 1 12.5281 1.60771 1.60598 
24 1 10.9579 0.0190656 0.0196739 
40 1 15.2382 1.27426 1.27165 
44 1 12.2137 4.32206 1.27742 
54 1 12.214 1.27691 4.32075 
88 1 14.0388 1.37657 1.37246 
92 1 12.3061 3.12247 1.37656 
102 1 12.3067 1.37638 3.12137 
136 1 11.6499 0.721683 0.718906 
1 1 19.4708 1.53835 1.5976 
17 1 21.1491 0.340357 -0.113304 
33 1 16.7288 1.26184 1.27273 
41 1 19.7761 4.2963 1.29589 
49 1 19.7992 1.26152 4.3393 
81 1 17.9321 1.33895 1.36853 
89 1 19.6811 3.09362 1.38984 
97 1 19.7035 1.33763 3.13606 
129 1 20.3422 0.805394 0.706872 
3 1 12.5498 8.52754 1.60428 
19 1 10.9653 10.1064 0.0232821 
35 1 15.2636 8.85156 1.27945 
45 1 12.2192 5.81534 1.2764 
55 1 12.2203 8.85049 4.31768 
83 1 14.0639 8.75483 1.37696 
93 1 12.3198 7.01448 1.375 
103 1 12.3195 8.75415 3.11838 
131 1 11.6647 9.40945 0.721689 
6 1 19.4682 8.50719 1.60262 
22 1 21.0438 10.0999 0.0279559 
38 1 16.7568 8.84809 1.27933 
48 1 19.785 5.78882 1.28686 
52 1 19.7912 8.84864 4.31423 
86 1 17.9557 8.74422 1.37624 
96 1 19.6932 6.99039 1.37846 
100 1 19.6947 8.74441 3.11513 
134 1 20.3472 9.39709 0.722914 
5 1 12.5442 1.60549 8.52707 
21 1 10.9629 0.0225798 10.1075 
37 1 15.2571 1.27569 8.85291 
47 1 12.2193 4.31881 8.85174 
51 1 12.2181 1.276 5.81421 
85 1 14.058 1.37483 8.75452 
95 1 12.3166 3.11956 8.7546 
99 1 12.3166 1.37499 7.01324 
133 1 11.6617 0.721411 9.40959 
4 1 19.4646 1.60771 8.54103 
20 1 21.0506 0.0203938 10.1124 
36 1 16.7506 1.27666 8.85646 
46 1 19.7926 4.32231 8.85684 
56 1 19.7993 1.27478 5.83037 
84 1 17.95 1.37656 8.76312 
94 1 19.694 3.12274 8.76386 
104 1 19.6986 1.37735 7.02967 
132 1 20.3494 0.720386 9.41963 
2 1 12.547 8.52534 8.52417 
18 1 10.965 10.1056 10.1057 
34 1 15.2598 8.85065 8.85106 
42 1 12.22 5.81207 8.85117 
50 1 12.2198 8.85006 5.81099 
82 1 14.0605 8.75316 8.75299 
90 1 12.3179 7.01117 8.75287 
98 1 12.3178 8.75281 7.01026 
130 1 11.6635 9.40796 9.40745 
7 1 19.4664 8.52768 8.5205 
23 1 21.0473 10.107 10.1048 
39 1 16.7531 8.85122 8.85053 
43 1 19.7938 5.81561 8.85154 
53 1 19.7913 8.85198 5.80706 
87 1 17.9522 8.75457 8.75125 
91 1 19.6954 7.01456 8.75095 
101 1 19.6937 8.7551 7.00684 
135 1 20.3493 9.40925 9.40555 
145 2 21.7346 1.15667 21.2536 
ITEM: TIMESTEP
60
ITEM: NUMBER OF ATOMS
147
ITEM: BOX BOUNDS pp pp pp
0.0000000000000000e+00 2.1884000000000000e+01
0.0000000000000000e+00 2.1885999999999999e+01
0.0000000000000000e+00 2.1885000000000002e+01
ITEM: ATOMS id type x y z 
146 2 1.71023 1.15272 21.3281 
147 3 1.48655 2.06341 21.5575 
16 1 1.60482 12.5497 12.5447 
32 1 0.0234038 10.9646 10.965 
64 1 4.31842 12.2212 12.2208 
68 1 1.28026 15.2603 12.2211 
78 1 1.27893 12.2214 15.2569 
112 1 3.12002 12.3182 12.3186 
116 1 1.37789 14.062 12.3173 
126 1 1.37674 12.3189 14.0587 
144 1 0.71857 11.6697 11.66 
9 1 8.52186 12.5453 12.5462 
25 1 10.1043 10.9653 10.9645 
57 1 5.81051 12.2207 12.2214 
65 1 8.84994 15.2607 12.2208 
73 1 8.84945 12.2213 15.2605 
105 1 7.01124 12.3197 12.3187 
113 1 8.75287 14.0606 12.3183 
121 1 8.75225 12.3199 14.0602 
137 1 9.4098 11.6635 11.6665 
11 1 1.60461 19.4656 12.5626 
27 1 0.0254281 21.0458 10.9767 
59 1 4.31793 19.7902 12.2233 
69 1 1.28044 16.7552 12.2245 
79 1 1.2876 19.7866 15.2796 
107 1 3.118 19.6941 12.326 
117 1 1.37824 17.9544 12.3275 
127 1 1.38448 19.6917 14.0796 
139 1 0.723679 20.345 11.6723 
14 1 8.52213 19.468 12.5491 
30 1 10.1046 21.0487 10.9669 
62 1 5.81063 19.7909 12.2219 
72 1 8.84941 16.7545 12.2221 
76 1 8.84977 19.7912 15.2615 
110 1 7.00972 19.6925 12.318 
120 1 8.75154 17.9523 12.3196 
124 1 8.75325 19.6932 14.0625 
142 1 9.40441 20.35 11.6641 
13 1 1.60648 12.5284 19.4694 
29 1 0.0165903 10.9548 21.0526 
61 1 4.32066 12.2168 19.7932 
71 1 1.28301 15.2399 19.7891 
75 1 1.27834 12.2158 16.7511 
109 1 3.11967 12.3069 19.6949 
119 1 1.37877 14.0387 19.6923 
123 1 1.37486 12.307 17.9519 
141 1 0.719478 11.6501 20.3577 
12 1 8.52492 12.5473 19.4668 
28 1 10.1055 10.9652 21.0483 
60 1 5.81346 12.2219 19.7913 
70 1 8.85057 15.2613 19.7907 
80 1 8.84975 12.222 16.7531 
108 1 7.01222 12.321 19.6943 
118 1 8.75529 14.0627 19.694 
128 1 8.75383 12.32 17.9517 
140 1 9.40611 11.6653 20.3526 
10 1 1.57949 19.4298 19.4874 
26 1 -0.0125268 21.0264 21.0413 
58 1 4.29219 19.7841 19.7915 
66 1 1.28544 16.7281 19.7856 
74 1 1.2813 19.7815 16.7747 
106 1 3.09266 19.6778 19.7061 
114 1 1.37657 17.9294 19.6927 
122 1 1.36589 19.6743 17.9735 
138 1 0.647497 20.2689 20.3976 
15 1 8.50405 19.4689 19.4648 
31 1 10.0954 21.0443 21.0431 
63 1 5.78748 19.7877 19.7835 
67 1 8.84506 16.7563 19.7909 
77 1 8.8463 19.7912 16.7547 
111 1 6.98721 19.6908 19.6873 
115 1 8.74186 17.9551 19.6931 
125 1 8.74297 19.6934 17.9541 
143 1 9.39163 20.347 20.3495 
8 1 12.5265 1.60454 1.60644 
24 1 10.9549 0.0177758 0.0184834 
40 1 15.2361 1.27275 1.27386 
44 1 12.2125 4.32245 1.27876 