ITEM: TIMESTEP
0
ITEM: NUMBER OF ATOMS
129
ITEM: BOX BOUNDS pp pp pp
0.0000000000000000e+00 1.8762000000000000e+01
0.0000000000000000e+00 1.8762000000000000e+01
0.0000000000000000e+00 1.8760999999999999e+01
ITEM: ATOMS id type x y z 
1 1 3.12 3.119 3.121 
10 1 5.595 5.596 5.595 
17 1 4.011 4.011 4.012 
26 1 4.704 4.704 4.704 
33 1 0.414 3.456 3.456 
41 1 3.456 0.413 3.456 
49 1 3.456 3.456 0.414 
58 1 8.301 5.259 5.259 
66 1 5.259 8.301 5.259 
74 1 5.259 5.259 8.301 
81 1 1.612 3.354 3.354 
89 1 3.353 1.612 3.354 
97 1 3.354 3.354 1.613 
106 1 7.103 5.361 5.361 
114 1 5.362 7.103 5.361 
122 1 5.361 5.361 7.103 
4 1 3.12 3.12 14.976 
11 1 5.595 5.595 12.5 
20 1 4.011 4.011 14.084 
27 1 4.704 4.704 13.392 
36 1 0.414 3.456 14.639 
46 1 3.456 0.414 14.639 
56 1 3.456 3.456 17.682 
59 1 8.301 5.259 12.837 
69 1 5.259 8.301 12.837 
79 1 5.259 5.259 9.794 
84 1 1.612 3.354 14.742 
94 1 3.354 1.612 14.742 
104 1 3.354 3.354 16.483 
107 1 7.103 5.361 12.735 
117 1 5.361 7.103 12.735 
127 1 5.361 5.361 10.993 
6 1 3.12 14.976 3.12 
13 1 5.595 12.501 5.596 
22 1 4.011 14.085 4.011 
29 1 4.704 13.392 4.705 
38 1 0.414 14.64 3.457 
48 1 3.456 17.682 3.456 
52 1 3.456 14.64 0.414 
61 1 8.301 12.837 5.259 
71 1 5.259 9.794 5.259 
75 1 5.259 12.837 8.301 
86 1 1.612 14.742 3.354 
96 1 3.354 16.483 3.354 
100 1 3.354 14.742 1.612 
109 1 7.103 12.735 5.361 
119 1 5.361 10.993 5.361 
123 1 5.361 12.735 7.103 
7 1 3.12 14.976 14.976 
16 1 5.595 12.501 12.5 
23 1 4.011 14.085 14.084 
32 1 4.704 13.392 13.391 
39 1 0.414 14.64 14.639 
43 1 3.456 17.682 14.639 
53 1 3.456 14.64 17.682 
64 1 8.302 12.837 12.837 
68 1 5.259 9.795 12.837 
78 1 5.259 12.837 9.794 
87 1 1.612 14.742 14.741 
91 1 3.354 16.483 14.741 
101 1 3.353 14.742 16.483 
112 1 7.103 12.735 12.735 
116 1 5.361 10.993 12.735 
126 1 5.361 12.735 10.993 
8 1 14.976 3.12 3.12 
15 1 12.501 5.595 5.595 
24 1 14.084 4.011 4.011 
31 1 13.392 4.704 4.704 
40 1 17.682 3.456 3.456 
44 1 14.64 0.414 3.457 
54 1 14.64 3.456 0.414 
63 1 9.795 5.259 5.259 
67 1 12.837 8.301 5.259 
77 1 12.837 5.259 8.301 
88 1 16.483 3.354 3.354 
92 1 14.742 1.612 3.354 
102 1 14.742 3.354 1.612 
111 1 10.993 5.361 5.361 
115 1 12.735 7.103 5.361 
125 1 12.735 5.361 7.103 
5 1 14.976 3.119 14.975 
14 1 12.501 5.596 12.501 
21 1 14.085 4.011 14.084 
30 1 13.392 4.703 13.392 
37 1 17.682 3.456 14.639 
47 1 14.64 0.413 14.639 
51 1 14.64 3.456 17.682 
62 1 9.794 5.259 12.837 
72 1 12.837 8.301 12.837 
76 1 12.837 5.259 9.795 
85 1 16.483 3.354 14.741 
95 1 14.742 1.612 14.741 
99 1 14.742 3.354 16.483 
110 1 10.993 5.361 12.735 
120 1 12.734 7.103 12.735 
124 1 12.735 5.361 10.993 
3 1 14.976 14.976 3.12 
12 1 12.501 12.501 5.595 
19 1 14.085 14.085 4.011 
28 1 13.392 13.392 4.704 
35 1 17.682 14.64 3.457 
45 1 14.64 17.682 3.457 
55 1 14.64 14.64 0.414 
60 1 9.794 12.837 5.259 
70 1 12.837 9.794 5.259 
80 1 12.837 12.837 8.301 
83 1 16.484 14.742 3.354 
93 1 14.742 16.483 3.354 
103 1 14.742 14.742 1.613 
108 1 10.993 12.735 5.361 
118 1 12.734 10.993 5.361 
128 1 12.734 12.734 7.103 
2 1 14.976 14.976 14.975 
9 1 12.501 12.501 12.501 
18 1 14.084 14.085 14.084 
25 1 13.391 13.393 13.392 
34 1 17.682 14.64 14.639 
42 1 14.64 17.682 14.639 
50 1 14.64 14.64 17.682 
57 1 9.795 12.837 12.837 
65 1 12.837 9.794 12.837 
73 1 12.837 12.837 9.794 
82 1 16.483 14.742 14.741 
90 1 14.742 16.483 14.741 
98 1 14.742 14.742 16.483 
105 1 10.993 12.734 12.734 
113 1 12.735 10.993 12.735 
121 1 12.735 12.734 10.993 
129 2 9.795 14.187 12.837 
ITEM: TIMESTEP
10
ITEM: NUMBER OF ATOMS
129
ITEM: BOX BOUNDS pp pp pp
0.0000000000000000e+00 1.8762000000000000e+01
0.0000000000000000e+00 1.8762000000000000e+01
0.0000000000000000e+00 1.8760999999999999e+01
ITEM: ATOMS id type x y z 
1 1 3.11674 3.11584 3.1172 
10 1 5.59908 5.59838 5.59887 
17 1 4.01312 4.01284 4.0137 
26 1 4.70187 4.70211 4.70228 
33 1 0.41699 3.45542 3.45537 
41 1 3.4551 0.418235 3.45522 
49 1 3.45502 3.45508 0.42076 
58 1 8.29404 5.25992 5.25995 
66 1 5.25972 8.29745 5.2596 
74 1 5.25998 5.25993 8.29374 
81 1 1.60926 3.35448 3.35472 
89 1 3.35381 1.60664 3.355 
97 1 3.35494 3.35503 1.60653 
106 1 7.10909 5.36018 5.36011 
114 1 5.36118 7.10689 5.36027 
122 1 5.36009 5.36014 7.10927 
4 1 3.11667 3.11666 14.9797 
11 1 5.59846 5.5984 12.4965 
20 1 4.01288 4.01288 14.0826 
27 1 4.7021 4.7021 13.3934 
36 1 0.418599 3.45529 14.6398 
46 1 3.45532 0.418052 14.6398 
56 1 3.45508 3.45506 17.6753 
59 1 8.29669 5.2597 12.8363 
69 1 5.25971 8.29666 12.8363 
79 1 5.25988 5.2599 9.80059 
84 1 1.60781 3.35461 14.7411 
94 1 3.35458 1.60807 14.7412 
104 1 3.35493 3.35493 16.4894 
107 1 7.10661 5.36041 12.7357 
117 1 5.36039 7.10674 12.7357 
127 1 5.3601 5.36011 10.9871 
6 1 3.11678 14.9796 3.11664 
13 1 5.59847 12.4978 5.59936 
22 1 4.01325 14.0827 4.01366 
29 1 4.70176 13.3944 4.70234 
38 1 0.41822 14.6407 3.45627 
48 1 3.45511 17.6756 3.45508 
52 1 3.45537 14.6407 0.417886 
61 1 8.29646 12.8363 5.25967 
71 1 5.25982 9.79994 5.25984 
75 1 5.2596 12.8364 8.29742 
86 1 1.60833 14.7413 3.35464 
96 1 3.35491 16.4892 3.35491 
100 1 3.35455 14.7413 1.60872 
109 1 7.10652 12.7358 5.36053 
119 1 5.36004 10.9872 5.36014 
123 1 5.36056 12.7356 7.10563 
7 1 3.11778 14.9796 14.9794 
16 1 5.60684 12.4988 12.4999 
23 1 4.01312 14.0827 14.082 
32 1 4.70211 13.3942 13.3931 
39 1 0.415642 14.6405 14.6395 
43 1 3.45506 17.6756 14.6399 
53 1 3.45503 14.6408 17.6754 
64 1 8.22031 12.8158 12.8365 
68 1 5.25967 9.79889 12.8363 
78 1 5.25972 12.8363 9.79895 
87 1 1.60954 14.7413 14.7404 
91 1 3.35493 16.4895 14.74 
101 1 3.35398 14.741 16.4891 
112 1 7.10898 12.7338 12.7313 
116 1 5.36056 10.9894 12.7359 
126 1 5.3603 12.736 10.9884 
8 1 14.9794 3.11661 3.11662 
15 1 12.4976 5.59823 5.59853 
24 1 14.0827 4.01272 4.01272 
31 1 13.3934 4.70214 4.70215 
40 1 17.6754 3.45509 3.45509 
44 1 14.6407 0.418154 3.45623 
54 1 14.6407 3.45533 0.418377 
63 1 9.8013 5.2599 5.2599 
67 1 12.8362 8.2952 5.25984 
77 1 12.8361 5.25993 8.29423 
88 1 16.4892 3.35493 3.35492 
92 1 14.7412 1.60791 3.3547 
102 1 14.7413 3.35459 1.60849 
111 1 10.9866 5.35995 5.35999 
115 1 12.736 7.10884 5.35999 
125 1 12.736 5.35994 7.10961 
5 1 14.9798 3.11539 14.9788 
14 1 12.4975 5.59934 12.4974 
21 1 14.0834 4.01211 14.0826 
30 1 13.3937 4.70186 13.3935 
37 1 17.6756 3.45511 14.6399 
47 1 14.6409 0.419619 14.6399 
51 1 14.6409 3.45509 17.6748 
62 1 9.80078 5.25989 12.8361 
72 1 12.8364 8.29671 12.8363 
76 1 12.8363 5.25969 9.79933 
85 1 16.4886 3.35478 14.7401 
95 1 14.7412 1.6064 14.7401 
99 1 14.7411 3.35489 16.4889 
110 1 10.9867 5.36007 12.736 
120 1 12.7348 7.10591 12.7354 
124 1 12.7358 5.36051 10.9894 
3 1 14.9781 14.9796 3.11618 
12 1 12.4973 12.4973 5.59857 
19 1 14.083 14.0829 4.01306 
28 1 13.394 13.394 4.70216 
35 1 17.6801 14.6405 3.45647 
45 1 14.6409 17.6756 3.45604 
55 1 14.6409 14.6409 0.420783 
60 1 9.80084 12.8361 5.25992 
70 1 12.8361 9.80034 5.25985 
80 1 12.8364 12.8363 8.29709 
83 1 16.4865 14.7413 3.35474 
93 1 14.7411 16.4896 3.35513 
103 1 14.7411 14.7409 1.60639 
108 1 10.9872 12.736 5.3602 
118 1 12.7351 10.9875 5.36025 
128 1 12.7346 12.7346 7.1053 
2 1 14.9795 14.9795 14.9787 
9 1 12.4937 12.4922 12.4981 
18 1 14.0805 14.0819 14.0806 
25 1 13.3939 13.3954 13.394 
34 1 17.6763 14.6408 14.6398 
42 1 14.6409 17.6759 14.6398 
50 1 14.6409 14.6409 17.6757 
57 1 9.75626 12.794 12.8461 
65 1 12.8351 9.80986 12.8356 
73 1 12.8352 12.8355 9.80981 
82 1 16.488 14.7412 14.7401 
90 1 14.7412 16.4883 14.7401 
98 1 14.7411 14.7411 16.4888 
105 1 11.0819 12.7336 12.7237 
113 1 12.7358 10.9804 12.737 
121 1 12.736 12.7364 10.9803 
129 2 9.81793 14.2547 12.8379 
ITEM: TIMESTEP
20
ITEM: NUMBER OF ATOMS
129
ITEM: BOX BOUNDS pp pp pp
0.0000000000000000e+00 1.8762000000000000e+01
0.0000000000000000e+00 1.8762000000000000e+01
0.0000000000000000e+00 1.8760999999999999e+01
ITEM: ATOMS id type x y z 
1 1 3.11044 3.10989 3.1114 
10 1 5.60445 5.60459 5.60421 
17 1 4.01302 4.01274 4.0136 
26 1 4.70201 4.70191 4.70232 
33 1 0.417953 3.45461 3.45454 
41 1 3.45434 0.417688 3.45463 
49 1 3.45454 3.45462 0.418329 
58 1 8.2962 5.26042 5.26045 
66 1 5.26057 8.29617 5.26028 
74 1 5.26047 5.26043 8.29601 
81 1 1.60747 3.3546 3.35492 
89 1 3.35396 1.60686 3.35488 
97 1 3.35484 3.35478 1.60835 
106 1 7.10805 5.36016 5.3602 
114 1 5.36091 7.1082 5.3602 
122 1 5.36022 5.36013 7.10817 
4 1 3.11049 3.11052 14.9851 
11 1 5.60436 5.60429 12.4911 
20 1 4.01282 4.01283 14.0827 
27 1 4.70212 4.70206 13.3936 
36 1 0.418123 3.45461 14.6406 
46 1 3.4546 0.418159 14.6406 
56 1 3.45461 3.45461 17.6779 
59 1 8.29748 5.26029 12.8357 
69 1 5.26026 8.29668 12.8357 
79 1 5.26035 5.26035 9.79819 
84 1 1.60718 3.35466 14.741 
94 1 3.35468 1.60706 14.741 
104 1 3.35477 3.35478 16.4876 
107 1 7.10629 5.36036 12.7356 
117 1 5.36035 7.10633 12.7356 
127 1 5.36017 5.36017 10.9882 
6 1 3.11062 14.9851 3.1106 
13 1 5.60417 12.492 5.60498 
22 1 4.0131 14.0829 4.01339 
29 1 4.70188 13.3943 4.7025 
38 1 0.418431 14.6413 3.45548 
48 1 3.45463 17.6777 3.45457 
52 1 3.45464 14.6414 0.418348 
61 1 8.29753 12.8357 5.26022 
71 1 5.26033 9.79861 5.26032 
75 1 5.26022 12.8358 8.29668 
86 1 1.60763 14.7413 3.35484 
96 1 3.35482 16.488 3.35477 
100 1 3.35466 14.7413 1.60764 
109 1 7.10621 12.7358 5.36056 
119 1 5.36008 10.9881 5.36021 
123 1 5.36051 12.7358 7.10615 
7 1 3.11056 14.9856 14.9853 
16 1 5.59699 12.4925 12.4945 
23 1 4.01218 14.084 14.0832 
32 1 4.70002 13.3958 13.395 
39 1 0.417739 14.6414 14.6404 
43 1 3.45452 17.6778 14.6404 
53 1 3.45437 14.6413 17.6772 
64 1 8.21543 12.7762 12.833 
68 1 5.25995 9.79547 12.8361 
78 1 5.25997 12.8361 9.79517 
87 1 1.60707 14.7411 14.7402 
91 1 3.35493 16.4881 14.7403 
101 1 3.35413 14.7414 16.4878 
112 1 7.06653 12.7277 12.729 
116 1 5.35962 10.9859 12.7376 
126 1 5.35931 12.7375 10.9854 
8 1 14.9849 3.1105 3.11056 
15 1 12.4915 5.6041 5.60452 
24 1 14.0825 4.01302 4.01307 
31 1 13.3939 4.70176 4.70191 
40 1 17.6778 3.45458 3.45457 
44 1 14.6414 0.418176 3.45543 
54 1 14.6414 3.45461 0.418544 
63 1 9.79958 5.26043 5.26045 
67 1 12.8356 8.2963 5.26033 
77 1 12.8355 5.26041 8.29631 
88 1 16.4883 3.35484 3.35483 
92 1 14.7412 1.60706 3.3549 
102 1 14.7412 3.3547 1.60755 
111 1 10.9878 5.35999 5.36006 
115 1 12.736 7.10769 5.36004 
125 1 12.7359 5.36 7.10816 
5 1 14.9854 3.10979 14.9846 
14 1 12.4919 5.60325 12.4917 
21 1 14.0828 4.01268 14.0822 
30 1 13.3945 4.70098 13.394 
37 1 17.6777 3.45455 14.6404 
47 1 14.6415 0.417478 14.6404 
51 1 14.6415 3.4546 17.677 
62 1 9.79792 5.26036 12.8357 
72 1 12.8362 8.29256 12.8363 
76 1 12.8358 5.26039 9.79848 
85 1 16.4883 3.35471 14.7401 
95 1 14.7412 1.60688 14.7401 
99 1 14.7411 3.35477 16.4878 
110 1 10.9878 5.36006 12.7361 
120 1 12.7347 7.10195 12.7351 
124 1 12.7361 5.3604 10.9885 
3 1 14.9851 14.9854 3.11065 
12 1 12.4912 12.4915 5.60134 
19 1 14.0823 14.0825 4.01355 
28 1 13.3946 13.3946 4.70123 
35 1 17.678 14.6413 3.45551 
45 1 14.6414 17.6776 3.45543 
55 1 14.6414 14.6414 0.418384 
60 1 9.79915 12.8357 5.26056 
70 1 12.8356 9.7989 5.26041 
80 1 12.8362 12.8361 8.29014 
83 1 16.4886 14.7413 3.35496 
93 1 14.7411 16.4884 3.35496 
103 1 14.7411 14.7412 1.60788 
108 1 10.9875 12.7363 5.36013 
118 1 12.7355 10.9879 5.36023 
128 1 12.7347 12.7346 7.10274 
2 1 14.9873 14.9875 14.9869 
9 1 12.5134 12.479 12.4927 
18 1 14.0848 14.0863 14.0841 
25 1 13.4037 13.4026 13.3997 
34 1 17.6779 14.6414 14.6403 
42 1 14.6414 17.6778 14.6404 
50 1 14.6414 14.6414 17.6777 
57 1 9.73438 12.8403 12.8598 
65 1 12.837 9.79032 12.8376 
73 1 12.8364 12.8373 9.79823 
82 1 16.4881 14.7413 14.7402 
90 1 14.7413 16.4882 14.7403 
98 1 14.7412 14.7412 16.4881 
105 1 11.0552 12.7796 12.7215 
113 1 12.7404 10.9785 12.7373 
121 1 12.7414 12.7362 10.9827 
129 2 9.87941 14.2329 12.8397 
ITEM: TIMESTEP
30
ITEM: NUMBER OF ATOMS
129
ITEM: BOX BOUNDS pp pp pp
0.0000000000000000e+00 1.8762000000000000e+01
0.0000000000000000e+00 1.8762000000000000e+01
0.0000000000000000e+00 1.8760999999999999e+01
ITEM: ATOMS id type x y z 
1 1 3.10694 3.10654 3.10747 
10 1 5.60854 5.60566 5.60864 
17 1 4.01353 4.01342 4.01438 
26 1 4.70156 4.70072 4.70153 
33 1 0.417195 3.45375 3.45374 
41 1 3.45338 0.417009 3.45383 
49 1 3.45374 3.45379 0.417711 
58 1 8.29258 5.26161 5.26163 
66 1 5.26074 8.30289 5.26033 
74 1 5.26153 5.26154 8.29314 
81 1 1.60669 3.3538 3.35427 
89 1 3.35334 1.60604 3.35419 
97 1 3.3541 3.35401 1.6076 
106 1 7.11188 5.36057 5.36064 
114 1 5.36204 7.10168 5.36161 
122 1 5.36084 5.36081 7.1105 
4 1 3.10692 3.10679 14.9887 
11 1 5.60747 5.60671 12.488 
20 1 4.01319 4.01329 14.0825 
27 1 4.7008 4.7006 13.3947 
36 1 0.415863 3.4539 14.6414 
46 1 3.45382 0.417069 14.6414 
56 1 3.4538 3.45383 17.6789 
59 1 8.2982 5.26092 12.8351 
69 1 5.26013 8.29427 12.8355 
79 1 5.26108 5.26106 9.79765 
84 1 1.60753 3.35383 14.7417 
94 1 3.35385 1.60712 14.7416 
104 1 3.35407 3.35409 16.4884 
107 1 7.10657 5.36101 12.7348 
117 1 5.36133 7.10113 12.7345 
127 1 5.36072 5.36055 10.9865 
6 1 3.10714 14.9887 3.10681 
13 1 5.60743 12.4894 5.60697 
22 1 4.01353 14.0824 4.01395 
29 1 4.70052 13.3954 4.70108 
38 1 0.416061 14.642 3.45463 
48 1 3.45392 17.68 3.45389 
52 1 3.45376 14.6422 0.418062 
61 1 8.29591 12.8348 5.26113 
71 1 5.26059 9.79523 5.26057 
75 1 5.26015 12.8355 8.29404 
86 1 1.6077 14.742 3.3542 
96 1 3.35414 16.4877 3.35394 
100 1 3.3539 14.742 1.60694 
109 1 7.10973 12.7353 5.36095 
119 1 5.36097 10.9915 5.36117 
123 1 5.36143 12.7345 7.10148 
7 1 3.10377 14.9921 14.9914 
16 1 5.55755 12.4824 12.4854 
23 1 4.0067 14.0902 14.0894 
32 1 4.69009 13.4006 13.4002 
39 1 0.41711 14.642 14.641 
43 1 3.45405 17.6804 14.641 
53 1 3.45377 14.6419 17.6797 
64 1 8.21939 12.7009 12.8218 
68 1 5.26141 9.79072 12.8382 
78 1 5.26143 12.8382 9.79033 
87 1 1.60578 14.7418 14.7409 
91 1 3.35424 16.4899 14.741 
101 1 3.35364 14.742 16.4894 
112 1 7.02375 12.7197 12.7332 
116 1 5.352 10.9762 12.7388 
126 1 5.35181 12.7387 10.976 
8 1 14.9879 3.10671 3.10693 
15 1 12.4882 5.60823 5.60773 
24 1 14.0809 4.0146 4.01499 
31 1 13.3956 4.69991 4.69995 
40 1 17.6822 3.45408 3.45401 
44 1 14.6422 0.416831 3.45452 
54 1 14.6422 3.45381 0.417158 
63 1 9.79696 5.26101 5.26103 
67 1 12.8347 8.29467 5.26115 
77 1 12.835 5.26091 8.2983 
88 1 16.4861 3.35386 3.35385 
92 1 14.742 1.60684 3.35413 
102 1 14.7419 3.35381 1.60709 
111 1 10.9894 5.36102 5.36103 
115 1 12.7351 7.10921 5.36087 
125 1 12.7349 5.36101 7.1058 
5 1 14.9895 3.10589 14.9885 
14 1 12.488 5.60291 12.4881 
21 1 14.0832 4.01209 14.0829 
30 1 13.3954 4.69943 13.3947 
37 1 17.6789 3.45377 14.6412 
47 1 14.6421 0.417287 14.6411 
51 1 14.6422 3.45384 17.6786 
62 1 9.7952 5.26099 12.8355 
72 1 12.8363 8.28794 12.8372 
76 1 12.8355 5.26121 9.79641 
85 1 16.4895 3.35396 14.7408 
95 1 14.742 1.60698 14.741 
99 1 14.7419 3.35398 16.4887 
110 1 10.9874 5.36017 12.7359 
120 1 12.734 7.09524 12.7341 
124 1 12.7359 5.36044 10.9869 
3 1 14.9896 14.9891 3.10707 
12 1 12.4877 12.4883 5.59857 
19 1 14.0826 14.0828 4.01306 
28 1 13.3955 13.3957 4.69928 
35 1 17.6789 14.6421 3.45456 
45 1 14.6421 17.6799 3.45459 
55 1 14.642 14.6421 0.417347 
60 1 9.79379 12.8359 5.26144 
70 1 12.8355 9.7943 5.26145 
80 1 12.8366 12.8375 8.29874 
83 1 16.4897 14.7421 3.35436 
93 1 14.742 16.4886 3.35441 
103 1 14.742 14.742 1.60856 
108 1 10.9879 12.7357 5.35963 
118 1 12.7353 10.9867 5.35957 
128 1 12.7341 12.7341 7.09091 
2 1 14.9935 14.9941 14.9938 
9 1 12.5089 12.476 12.4941 
18 1 14.0873 14.0884 14.0844 
25 1 13.409 13.3981 13.3948 
34 1 17.6805 14.6417 14.6406 
42 1 14.6418 17.6806 14.6406 
50 1 14.6418 14.6418 17.6802 
57 1 9.6789 12.8652 12.88 
65 1 12.8395 9.77798 12.8387 
73 1 12.8381 12.8375 9.79517 
82 1 16.4892 14.7424 14.7415 
90 1 14.7423 16.4898 14.7415 
98 1 14.7422 14.7423 16.4899 
105 1 11.0437 12.9032 12.7203 
113 1 12.7456 10.9704 12.7365 
121 1 12.7493 12.7324 10.9842 
129 2 10.0316 14.2113 12.8398 
ITEM: TIMESTEP
40
ITEM: NUMBER OF ATOMS
129
ITEM: BOX BOUNDS pp pp pp
0.0000000000000000e+00 1.8762000000000000e+01
0.0000000000000000e+00 1.8762000000000000e+01
0.0000000000000000e+00 1.8760999999999999e+01
ITEM: ATOMS id type x y z 
1 1 3.10609 3.10636 3.10684 
10 1 5.60765 5.60384 5.60839 
17 1 4.01281 4.0125 4.01356 
26 1 4.70179 4.69987 4.70219 
33 1 0.417271 3.45274 3.45288 
41 1 3.45237 0.416507 3.45294 
49 1 3.45295 3.45292 0.416467 
58 1 8.29865 5.26221 5.26179 
66 1 5.2617 8.30003 5.26125 
74 1 5.26168 5.26219 8.2981 
81 1 1.60617 3.35254 3.35293 
89 1 3.35223 1.60572 3.35285 
97 1 3.35263 3.35251 1.60788 
106 1 7.10776 5.36173 5.3619 
114 1 5.36306 7.10468 5.36301 
122 1 5.36214 5.36229 7.10538 
4 1 3.10588 3.10608 14.9898 
11 1 5.60715 5.60275 12.4884 
20 1 4.01163 4.01158 14.084 
27 1 4.7006 4.69993 13.3951 
36 1 0.416155 3.45296 14.6424 
46 1 3.45315 0.418298 14.6422 
56 1 3.45289 3.45294 17.6794 
59 1 8.29769 5.26165 12.8346 
69 1 5.25977 8.28676 12.8363 
79 1 5.26161 5.26165 9.79523 
84 1 1.60643 3.35261 14.7428 
94 1 3.35235 1.60868 14.743 
104 1 3.35284 3.35278 16.4895 
107 1 7.10859 5.36147 12.734 
117 1 5.36235 7.09227 12.7324 
127 1 5.36151 5.36125 10.9848 
6 1 3.10586 14.99 3.10646 
13 1 5.60725 12.4912 5.60308 
22 1 4.01135 14.0844 4.01198 
29 1 4.70055 13.3957 4.70064 
38 1 0.416162 14.6429 3.45353 
48 1 3.45298 17.6797 3.45289 
52 1 3.4531 14.6428 0.418674 
61 1 8.2971 12.8347 5.26182 
71 1 5.26127 9.79723 5.26138 
75 1 5.25982 12.8364 8.28665 
86 1 1.60668 14.7431 3.35303 
96 1 3.3531 16.4896 3.35271 
100 1 3.3523 14.7436 1.60882 
109 1 7.10964 12.7345 5.36191 
119 1 5.36106 10.9852 5.36122 
123 1 5.36277 12.7329 7.09243 
7 1 3.09741 14.9997 14.9989 
16 1 5.5146 12.4771 12.4811 
23 1 3.99754 14.1003 14.0994 
32 1 4.67389 13.4068 13.4066 
39 1 0.412841 14.6417 14.6407 
43 1 3.45415 17.6849 14.6411 
53 1 3.45379 14.6419 17.6844 
64 1 8.1907 12.6074 12.8075 
68 1 5.26209 9.77633 12.843 
78 1 5.26218 12.8431 9.77544 
87 1 1.60416 14.7431 14.7422 
91 1 3.35305 16.4933 14.7421 
101 1 3.3526 14.7432 16.4923 
112 1 6.98882 12.7026 12.7334 
116 1 5.33886 10.9692 12.7398 
126 1 5.33901 12.7396 10.9707 
8 1 14.9878 3.10571 3.10621 
15 1 12.4884 5.60652 5.60784 
24 1 14.0829 4.01241 4.0128 
31 1 13.3943 4.70099 4.70173 
40 1 17.6816 3.4531 3.45295 
44 1 14.6431 0.416595 3.45339 
54 1 14.6431 3.45285 0.41683 
63 1 9.79699 5.26191 5.26177 
67 1 12.8343 8.29681 5.26166 
77 1 12.8343 5.26183 8.29647 
88 1 16.4885 3.3529 3.35291 
92 1 14.7432 1.60713 3.35216 
102 1 14.7431 3.35168 1.60752 
111 1 10.9886 5.3624 5.3621 
115 1 12.7331 7.10721 5.36244 
125 1 12.7337 5.36222 7.10632 
5 1 14.991 3.10511 14.9901 
14 1 12.4865 5.599 12.487 
21 1 14.0845 4.01067 14.0843 
30 1 13.3959 4.69765 13.3952 
37 1 17.68 3.45302 14.642 
47 1 14.6427 0.417225 14.6416 
51 1 14.643 3.45305 17.6797 
62 1 9.79517 5.26181 12.8354 
72 1 12.8364 8.28266 12.8379 
76 1 12.8354 5.26212 9.79448 
85 1 16.4904 3.35268 14.7421 
95 1 14.7434 1.60722 14.7424 
99 1 14.7432 3.35268 16.4897 
110 1 10.9856 5.36007 12.7351 
120 1 12.7329 7.0923 12.7337 
124 1 12.7351 5.36023 10.9848 
3 1 14.9908 14.9903 3.10635 
12 1 12.4844 12.4856 5.59191 
19 1 14.0845 14.0846 4.01101 
28 1 13.3939 13.3945 4.69828 
35 1 17.6802 14.6429 3.45368 
45 1 14.6429 17.6804 3.45363 
55 1 14.6426 14.6427 0.417971 
60 1 9.79742 12.8355 5.26276 
70 1 12.8352 9.79459 5.26281 
80 1 12.8346 12.8369 8.29357 
83 1 16.4902 14.7435 3.3531 
93 1 14.7433 16.4905 3.35349 
103 1 14.7435 14.7433 1.60849 
108 1 10.987 12.7341 5.35834 
118 1 12.7337 10.986 5.35837 
128 1 12.7354 12.7363 7.10518 
2 1 14.9931 14.9944 14.9935 
9 1 12.496 12.4929 12.4897 
18 1 14.0831 14.0808 14.0757 
25 1 13.4102 13.3851 13.3827 
34 1 17.6794 14.642 14.6409 
42 1 14.6422 17.6814 14.6411 
50 1 14.6422 14.6422 17.6812 
57 1 9.64922 12.8396 12.9074 
65 1 12.8419 9.77798 12.8372 
73 1 12.8412 12.8325 9.80861 
82 1 16.4893 14.7446 14.7437 
90 1 14.7441 16.4919 14.7437 
98 1 14.7441 14.7444 16.4917 
105 1 11.0386 13.0496 12.7169 
113 1 12.7428 10.9716 12.735 
121 1 12.7514 12.7262 10.9952 
129 2 10.247 14.2342 12.838 
ITEM: TIMESTEP
50
ITEM: NUMBER OF ATOMS
129
ITEM: BOX BOUNDS pp pp pp
0.0000000000000000e+00 1.8762000000000000e+01
0.0000000000000000e+00 1.8762000000000000e+01
0.0000000000000000e+00 1.8760999999999999e+01
ITEM: ATOMS id type x y z 
1 1 3.10643 3.10647 3.10698 
10 1 5.6079 5.60514 5.60798 
17 1 4.0125 4.01186 4.01311 
26 1 4.70174 4.70006 4.70234 
33 1 0.416536 3.45266 3.45281 
41 1 3.45229 0.416182 3.45286 
49 1 3.45276 3.45273 0.417011 
58 1 8.29861 5.26241 5.26198 
66 1 5.26214 8.29667 5.26171 
74 1 5.26188 5.26238 8.29695 
81 1 1.60675 3.35232 3.3527 
89 1 3.35195 1.60648 3.35263 
97 1 3.35249 3.35241 1.60732 
106 1 7.10837 5.36166 5.36219 
114 1 5.36297 7.10687 5.36291 
122 1 5.36237 5.36219 7.1064 
4 1 3.10584 3.10646 14.9898 
11 1 5.60717 5.60143 12.4878 
20 1 4.01155 4.0114 14.0841 
27 1 4.70024 4.69932 13.3953 
36 1 0.416098 3.45287 14.6425 
46 1 3.4532 0.418879 14.6421 
56 1 3.45283 3.45283 17.6799 
59 1 8.29833 5.26174 12.8347 
69 1 5.26009 8.28384 12.8366 
79 1 5.26157 5.26183 9.79443 
84 1 1.60637 3.35249 14.7429 
94 1 3.35214 1.60949 14.7433 
104 1 3.3527 3.35266 16.4898 
107 1 7.10796 5.36137 12.734 
117 1 5.36224 7.09253 12.7324 
127 1 5.36153 5.36105 10.9848 
6 1 3.10583 14.9899 3.10673 
13 1 5.60738 12.4899 5.60198 
22 1 4.01122 14.0846 4.01183 
29 1 4.70013 13.3961 4.69986 
38 1 0.416099 14.6429 3.45343 
48 1 3.45293 17.68 3.45279 
52 1 3.45316 14.6427 0.419127 
61 1 8.29955 12.8348 5.26203 
71 1 5.26124 9.79608 5.26151 
75 1 5.26016 12.8367 8.28438 
86 1 1.60636 14.7432 3.35294 
96 1 3.35294 16.4898 3.35262 
100 1 3.35209 14.7438 1.60968 
109 1 7.10909 12.7346 5.36179 
119 1 5.36112 10.9858 5.36104 
123 1 5.36264 12.7329 7.09282 
7 1 3.0961 15.0013 15.0005 
16 1 5.51518 12.4768 12.4809 
23 1 3.99654 14.1015 14.1006 
32 1 4.67197 13.4061 13.4059 
39 1 0.412128 14.6415 14.6405 
43 1 3.45432 17.6853 14.6408 
53 1 3.45394 14.6417 17.6845 
64 1 8.19595 12.6108 12.8079 
68 1 5.26171 9.77598 12.8434 
78 1 5.26194 12.8435 9.77549 
87 1 1.60254 14.7433 14.7425 
91 1 3.35282 16.4947 14.7424 
101 1 3.3524 14.7435 16.4939 
112 1 6.99769 12.6937 12.7306 
116 1 5.33644 10.969 12.7397 
126 1 5.33654 12.7397 10.9692 
8 1 14.9885 3.10616 3.10652 
15 1 12.4883 5.6068 5.60743 
24 1 14.083 4.01218 4.01271 
31 1 13.3942 4.70092 4.70156 
40 1 17.6797 3.4528 3.45267 
44 1 14.6432 0.416784 3.45317 
54 1 14.6432 3.45262 0.417111 
63 1 9.79729 5.26221 5.26198 
67 1 12.8342 8.29718 5.26195 
77 1 12.8342 5.26199 8.29658 
88 1 16.4897 3.35277 3.35278 
92 1 14.7433 1.60692 3.35203 
102 1 14.7432 3.35155 1.60724 
111 1 10.9874 5.36231 5.36219 
115 1 12.733 7.10712 5.36253 
125 1 12.7335 5.36226 7.10634 
5 1 14.991 3.10542 14.9902 
14 1 12.4868 5.5987 12.4869 
21 1 14.0849 4.01036 14.0844 
30 1 13.3954 4.69766 13.395 
37 1 17.6802 3.45296 14.642 
47 1 14.6428 0.416835 14.6417 
51 1 14.6431 3.45295 17.68 
62 1 9.79566 5.26189 12.8354 
72 1 12.8364 8.28506 12.8375 
76 1 12.8353 5.26227 9.79446 
85 1 16.49 3.35246 14.7424 
95 1 14.7436 1.60707 14.7426 
99 1 14.7434 3.35251 16.4898 
110 1 10.9861 5.35998 12.7348 
120 1 12.7329 7.09465 12.734 
124 1 12.7349 5.36008 10.9848 
3 1 14.9907 14.9904 3.10674 
12 1 12.4855 12.4855 5.59604 
19 1 14.0838 14.084 4.01164 
28 1 13.3939 13.3944 4.69769 
35 1 17.6802 14.643 3.45356 
45 1 14.6431 17.6806 3.45354 
55 1 14.6428 14.6428 0.417892 
60 1 9.79712 12.8352 5.2627 
70 1 12.8348 9.79568 5.26285 
80 1 12.834 12.836 8.29588 
83 1 16.4901 14.7437 3.35292 
93 1 14.7435 16.4904 3.3533 
103 1 14.7437 14.7435 1.60807 
108 1 10.9879 12.7337 5.35852 
118 1 12.7333 10.9863 5.35847 
128 1 12.7347 12.7364 7.10856 
2 1 14.9904 14.992 14.991 
9 1 12.4951 12.4958 12.4889 
18 1 14.0823 14.0784 14.0736 
25 1 13.4102 13.3841 13.3816 
34 1 17.6779 14.6422 14.6411 
42 1 14.6424 17.6809 14.6413 
50 1 14.6425 14.6424 17.6807 
57 1 9.65294 12.8416 12.9088 
65 1 12.841 9.78099 12.8365 
73 1 12.8414 12.8304 9.80807 
82 1 16.4878 14.7451 14.7442 
90 1 14.7445 16.491 14.744 
98 1 14.7444 14.7447 16.4908 
105 1 11.0318 13.0491 12.7153 
113 1 12.7389 10.9753 12.7345 
121 1 12.7494 12.7261 10.9957 
129 2 10.2596 14.2331 12.839 
ITEM: TIMESTEP
60
ITEM: NUMBER OF ATOMS
129
ITEM: BOX BOUNDS pp pp pp
0.0000000000000000e+00 1.8762000000000000e+01
0.0000000000000000e+00 1.8762000000000000e+01
0.0000000000000000e+00 1.8760999999999999e+01
ITEM: ATOMS id type x y z 
1 1 3.10664 3.10656 3.10705 
10 1 5.60806 5.60671 5.60684 
17 1 4.01257 4.01089 4.01333 
26 1 4.70163 4.7007 4.70169 
33 1 0.415971 3.45207 3.45223 
41 1 3.4518 0.416772 3.45234 
49 1 3.45226 3.45225 0.417592 
58 1 8.2991 5.26281 5.26263 
66 1 5.26273 8.29622 5.26256 
74 1 5.26228 5.26265 8.29623 
81 1 1.60625 3.35183 3.35214 
89 1 3.35131 1.60703 3.35205 
97 1 3.35182 3.35183 1.60776 
106 1 7.1087 5.36195 5.3627 
114 1 5.36339 7.1062 5.3631 
122 1 5.36304 5.36249 7.10581 
4 1 3.10531 3.10764 14.9907 
11 1 5.60737 5.59595 12.4859 
20 1 4.01092 4.01081 14.0846 
27 1 4.70003 4.69766 13.3953 
36 1 0.4154 3.45248 14.6426 
46 1 3.45344 0.421332 14.6418 
56 1 3.45262 3.45241 17.681 
59 1 8.2997 5.26252 12.8351 
69 1 5.26111 8.28026 12.8382 
79 1 5.26142 5.26258 9.79327 
84 1 1.60569 3.35217 14.7435 
94 1 3.35141 1.61193 14.744 
104 1 3.35219 3.35232 16.4906 
107 1 7.10913 5.3604 12.734 
117 1 5.3623 7.09008 12.7324 
127 1 5.36148 5.36004 10.984 
6 1 3.10507 14.9909 3.10775 
13 1 5.60875 12.4868 5.59719 
22 1 4.01108 14.0851 4.01141 
29 1 4.70014 13.3961 4.69839 
38 1 0.415125 14.6431 3.45306 
48 1 3.4527 17.6811 3.45237 
52 1 3.45339 14.6425 0.42145 
61 1 8.30185 12.8351 5.2634 
71 1 5.2613 9.79396 5.26236 
75 1 5.26128 12.8383 8.28038 
86 1 1.60539 14.7437 3.35265 
96 1 3.35241 16.4909 3.35235 
100 1 3.35138 14.7445 1.61213 
109 1 7.11154 12.7348 5.36078 
119 1 5.3612 10.9848 5.36012 
123 1 5.36272 12.7327 7.08987 
7 1 3.09199 15.006 15.0052 
16 1 5.52631 12.476 12.4826 
23 1 3.99506 14.1032 14.1019 
32 1 4.66474 13.4045 13.4045 
39 1 0.407835 14.6407 14.6397 
43 1 3.45515 17.6882 14.6399 
53 1 3.45479 14.6408 17.6874 
64 1 8.20937 12.6189 12.8096 
68 1 5.25893 9.77616 12.8437 
78 1 5.25944 12.8442 9.77411 
87 1 1.59721 14.7446 14.7437 
91 1 3.35157 16.4979 14.744 
101 1 3.35117 14.745 16.4972 
112 1 7.00758 12.659 12.7171 
116 1 5.32878 10.9681 12.7399 
126 1 5.32911 12.7403 10.9679 
8 1 14.9896 3.10676 3.10715 
15 1 12.4878 5.60739 5.60659 
24 1 14.0829 4.01207 4.01259 
31 1 13.3939 4.70105 4.70127 
40 1 17.6797 3.45218 3.45211 
44 1 14.6435 0.416648 3.45237 
54 1 14.6435 3.45184 0.417202 
63 1 9.79728 5.26295 5.2626 
67 1 12.8336 8.29834 5.26326 
77 1 12.8339 5.26268 8.29641 
88 1 16.4895 3.35211 3.3521 
92 1 14.744 1.6068 3.35167 
102 1 14.744 3.3512 1.6074 
111 1 10.9875 5.36261 5.36272 
115 1 12.733 7.10851 5.36285 
125 1 12.733 5.36266 7.10625 
5 1 14.9909 3.10599 14.9905 
14 1 12.4874 5.60085 12.4865 
21 1 14.0845 4.01036 14.0839 
30 1 13.3945 4.69731 13.3943 
37 1 17.6799 3.4525 14.6423 
47 1 14.6432 0.415661 14.6421 
51 1 14.6435 3.45244 17.6801 
62 1 9.7977 5.26227 12.835 
72 1 12.8359 8.29277 12.8354 
76 1 12.8347 5.26276 9.7954 
85 1 16.4896 3.35175 14.7433 
95 1 14.7442 1.60549 14.7432 
99 1 14.7443 3.3519 16.4899 
110 1 10.9878 5.35989 12.7337 
120 1 12.7329 7.10303 12.7346 
124 1 12.734 5.35993 10.9855 
3 1 14.9902 14.9905 3.10783 
12 1 12.488 12.4871 5.60838 
19 1 14.0827 14.0831 4.01197 
28 1 13.3917 13.3916 4.69871 
35 1 17.6795 14.6435 3.45298 
45 1 14.6436 17.6804 3.45298 
55 1 14.6434 14.6433 0.416887 
60 1 9.80081 12.8336 5.26243 
70 1 12.833 9.7983 5.26264 
80 1 12.8325 12.8331 8.3064 
83 1 16.4892 14.7445 3.35228 
93 1 14.7443 16.4901 3.35264 
103 1 14.7443 14.7441 1.60665 
108 1 10.9899 12.7324 5.3601 
118 1 12.7323 10.9872 5.36005 
128 1 12.7317 12.7356 7.11344 
2 1 14.9827 14.9856 14.9847 
9 1 12.4913 12.5007 12.4853 
18 1 14.0835 14.0732 14.07 
25 1 13.4101 13.3807 13.3773 
34 1 17.6723 14.6429 14.6419 
42 1 14.6437 17.6783 14.6426 
50 1 14.6438 14.6437 17.678 
57 1 9.65892 12.8451 12.917 
65 1 12.8357 9.79007 12.8343 
73 1 12.8419 12.8238 9.80645 
82 1 16.4824 14.7464 14.7453 
90 1 14.7452 16.4885 14.7447 
98 1 14.745 14.7455 16.4883 
105 1 11.0286 13.0458 12.708 
113 1 12.7263 10.983 12.7322 
121 1 12.7439 12.7256 10.9958 
129 2 10.3024 14.2438 12.8441 
ITEM: TIMESTEP
65
ITEM: NUMBER OF ATOMS
129
ITEM: BOX BOUNDS pp pp pp
0.0000000000000000e+00 1.8762000000000000e+01
0.0000000000000000e+00 1.8762000000000000e+01
0.0000000000000000e+00 1.8760999999999999e+01
ITEM: ATOMS id type x y z 
1 1 3.10647 3.10653 3.10721 
10 1 5.60797 5.60647 5.60665 
17 1 4.01304 4.01167 4.01372 
26 1 4.70137 4.70007 4.70133 
33 1 0.415876 3.45195 3.4521 
41 1 3.45173 0.416835 3.45226 
49 1 3.45218 3.45218 0.417637 
58 1 8.2994 5.26285 5.26278 
66 1 5.26277 8.29644 5.26269 
74 1 5.26235 5.2627 8.29627 
81 1 1.60621 3.35174 3.35205 
89 1 3.35121 1.60728 3.35191 
97 1 3.35171 3.35171 1.60799 
106 1 7.10865 5.36211 5.36269 
114 1 5.3635 7.10599 5.36312 
122 1 5.36313 5.36263 7.1054 
4 1 3.10501 3.10794 14.991 
11 1 5.60766 5.59559 12.4857 
20 1 4.01091 4.01073 14.0848 
27 1 4.70021 4.69748 13.3949 
36 1 0.415123 3.45239 14.6426 
46 1 3.45351 0.421759 14.6417 
56 1 3.4526 3.45233 17.6812 
59 1 8.30009 5.26275 12.8352 
69 1 5.26137 8.28004 12.8384 
79 1 5.2614 5.2627 9.79313 
84 1 1.6054 3.35219 14.7435 
94 1 3.35134 1.61206 14.7441 
104 1 3.35211 3.35232 16.4908 
107 1 7.10959 5.36007 12.734 
117 1 5.3625 7.0898 12.7325 
127 1 5.3615 5.35978 10.9839 
6 1 3.10487 14.9912 3.10813 
13 1 5.60896 12.4865 5.59673 
22 1 4.01099 14.0852 4.01133 
29 1 4.70058 13.3956 4.69837 
38 1 0.414776 14.6432 3.45295 
48 1 3.45267 17.6814 3.45229 
52 1 3.45346 14.6424 0.421863 
61 1 8.30235 12.8351 5.26358 
71 1 5.26132 9.79405 5.26254 
75 1 5.26156 12.8384 8.28001 
86 1 1.60507 14.7438 3.35266 
96 1 3.35231 16.491 3.35234 
100 1 3.35129 14.7446 1.61235 
109 1 7.11176 12.7347 5.36058 
119 1 5.3613 10.9844 5.35986 
123 1 5.36297 12.7328 7.08965 
7 1 3.09184 15.006 15.0051 
16 1 5.52707 12.4759 12.4842 
23 1 3.99506 14.1027 14.1012 
32 1 4.66377 13.4045 13.4046 
39 1 0.406654 14.6407 14.6397 
43 1 3.45528 17.6886 14.6398 
53 1 3.45493 14.6407 17.6878 
64 1 8.21156 12.6197 12.8101 