 # File generated with Atomsk by ana on 2024-01-23 16:05:37
  
         128  atoms
           1  atom types
 
      0.000000000000      18.095710579800  xlo xhi
      0.000000000000      18.095710579800  ylo yhi
      0.000000000000      18.095710579800  zlo zhi
 
Masses
 
            1   12.01100000             # C
 
Atoms # charge
 
         1    1   0.000000        3.333924803976       3.333924803976       3.333924803976
         2    1   0.000000       14.761785504388      14.761785504388      14.761785504388
         3    1   0.000000       14.761785504388      14.761785504388       3.333924803976
         4    1   0.000000        3.333924803976       3.333924803976      14.761785504388
         5    1   0.000000       14.761785504388       3.333924803976      14.761785504388
         6    1   0.000000        3.333924803976      14.761785504388       3.333924803976
         7    1   0.000000        3.333924803976      14.761785504388      14.761785504388
         8    1   0.000000       14.761785504388       3.333924803976       3.333924803976
         9    1   0.000000       12.381780365312      12.381780365312      12.381780365312
        10    1   0.000000        5.713930214488       5.713930214488       5.713930214488
        11    1   0.000000        5.713930214488       5.713930214488      12.381780365312
        12    1   0.000000       12.381780365312      12.381780365312       5.713930214488
        13    1   0.000000        5.713930214488      12.381780365312       5.713930214488
        14    1   0.000000       12.381780365312       5.713930214488      12.381780365312
        15    1   0.000000       12.381780365312       5.713930214488       5.713930214488
        16    1   0.000000        5.713930214488      12.381780365312      12.381780365312
        17    1   0.000000        4.177088613793       4.177088613793       4.177088613793
        18    1   0.000000       13.918621966007      13.918621966007      13.918621966007
        19    1   0.000000       13.918621966007      13.918621966007       4.177088613793
        20    1   0.000000        4.177088613793       4.177088613793      13.918621966007
        21    1   0.000000       13.918621966007       4.177088613793      13.918621966007
        22    1   0.000000        4.177088613793      13.918621966007       4.177088613793
        23    1   0.000000        4.177088613793      13.918621966007      13.918621966007
        24    1   0.000000       13.918621966007       4.177088613793       4.177088613793
        25    1   0.000000       13.224943903693      13.224943903693      13.224943903693
        26    1   0.000000        4.870766676107       4.870766676107       4.870766676107
        27    1   0.000000        4.870766676107       4.870766676107      13.224943903693
        28    1   0.000000       13.224943903693      13.224943903693       4.870766676107
        29    1   0.000000        4.870766676107      13.224943903693       4.870766676107
        30    1   0.000000       13.224943903693       4.870766676107      13.224943903693
        31    1   0.000000       13.224943903693       4.870766676107       4.870766676107
        32    1   0.000000        4.870766676107      13.224943903693      13.224943903693
        33    1   0.000000        0.673906588974       3.562027842153       3.562027842153
        34    1   0.000000       17.421803936539      14.533682466212      14.533682466212
        35    1   0.000000       17.421803936539      14.533682466212       3.562027842153
        36    1   0.000000        0.673906588974       3.562027842153      14.533682466212
        37    1   0.000000       17.421803936539       3.562027842153      14.533682466212
        38    1   0.000000        0.673906588974      14.533682466212       3.562027842153
        39    1   0.000000        0.673906588974      14.533682466212      14.533682466212
        40    1   0.000000       17.421803936539       3.562027842153       3.562027842153
        41    1   0.000000        3.562027842153       0.673906588974       3.562027842153
        42    1   0.000000       14.533682466212      17.421803936539      14.533682466212
        43    1   0.000000        3.562027842153      17.421803936539      14.533682466212
        44    1   0.000000       14.533682466212       0.673906588974       3.562027842153
        45    1   0.000000       14.533682466212      17.421803936539       3.562027842153
        46    1   0.000000        3.562027842153       0.673906588974      14.533682466212
        47    1   0.000000       14.533682466212       0.673906588974      14.533682466212
        48    1   0.000000        3.562027842153      17.421803936539       3.562027842153
        49    1   0.000000        3.562027842153       3.562027842153       0.673906588974
        50    1   0.000000       14.533682466212      14.533682466212      17.421803936539
        51    1   0.000000       14.533682466212       3.562027842153      17.421803936539
        52    1   0.000000        3.562027842153      14.533682466212       0.673906588974
        53    1   0.000000        3.562027842153      14.533682466212      17.421803936539
        54    1   0.000000       14.533682466212       3.562027842153       0.673906588974
        55    1   0.000000       14.533682466212      14.533682466212       0.673906588974
        56    1   0.000000        3.562027842153       3.562027842153      17.421803936539
        57    1   0.000000        9.721761933161      12.609883403488      12.609883403488
        58    1   0.000000        8.373948646639       5.485827176312       5.485827176312
        59    1   0.000000        8.373948646639       5.485827176312      12.609883403488
        60    1   0.000000        9.721761933161      12.609883403488       5.485827176312
        61    1   0.000000        8.373948646639      12.609883403488       5.485827176312
        62    1   0.000000        9.721761933161       5.485827176312      12.609883403488
        63    1   0.000000        9.721761933161       5.485827176312       5.485827176312
        64    1   0.000000        8.373948646639      12.609883403488      12.609883403488
        65    1   0.000000       12.609883403488       9.721761933161      12.609883403488
        66    1   0.000000        5.485827176312       8.373948646639       5.485827176312
        67    1   0.000000       12.609883403488       8.373948646639       5.485827176312
        68    1   0.000000        5.485827176312       9.721761933161      12.609883403488
        69    1   0.000000        5.485827176312       8.373948646639      12.609883403488
        70    1   0.000000       12.609883403488       9.721761933161       5.485827176312
        71    1   0.000000        5.485827176312       9.721761933161       5.485827176312
        72    1   0.000000       12.609883403488       8.373948646639      12.609883403488
        73    1   0.000000       12.609883403488      12.609883403488       9.721761933161
        74    1   0.000000        5.485827176312       5.485827176312       8.373948646639
        75    1   0.000000        5.485827176312      12.609883403488       8.373948646639
        76    1   0.000000       12.609883403488       5.485827176312       9.721761933161
        77    1   0.000000       12.609883403488       5.485827176312       8.373948646639
        78    1   0.000000        5.485827176312      12.609883403488       9.721761933161
        79    1   0.000000        5.485827176312       5.485827176312       9.721761933161
        80    1   0.000000       12.609883403488      12.609883403488       8.373948646639
        81    1   0.000000        1.892786096834       3.575133888443       3.575133888443
        82    1   0.000000       16.202924066765      14.520576962793      14.520576962793
        83    1   0.000000       16.202924066765      14.520576962793       3.575133888443
        84    1   0.000000        1.892786096834       3.575133888443      14.520576962793
        85    1   0.000000       16.202924066765       3.575133888443      14.520576962793
        86    1   0.000000        1.892786096834      14.520576962793       3.575133888443
        87    1   0.000000        1.892786096834      14.520576962793      14.520576962793
        88    1   0.000000       16.202924066765       3.575133888443       3.575133888443
        89    1   0.000000        3.575133888443       1.892786096834       3.575133888443
        90    1   0.000000       14.520576962793      16.202924066765      14.520576962793
        91    1   0.000000        3.575133888443      16.202924066765      14.520576962793
        92    1   0.000000       14.520576962793       1.892786096834       3.575133888443
        93    1   0.000000       14.520576962793      16.202924066765       3.575133888443
        94    1   0.000000        3.575133888443       1.892786096834      14.520576962793
        95    1   0.000000       14.520576962793       1.892786096834      14.520576962793
        96    1   0.000000        3.575133888443      16.202924066765       3.575133888443
        97    1   0.000000        3.575133888443       3.575133888443       1.892786096834
        98    1   0.000000       14.520576962793      14.520576962793      16.202924066765
        99    1   0.000000       14.520576962793       3.575133888443      16.202924066765
       100    1   0.000000        3.575133888443      14.520576962793       1.892786096834
       101    1   0.000000        3.575133888443      14.520576962793      16.202924066765
       102    1   0.000000       14.520576962793       3.575133888443       1.892786096834
       103    1   0.000000       14.520576962793      14.520576962793       1.892786096834
       104    1   0.000000        3.575133888443       3.575133888443      16.202924066765
       105    1   0.000000       10.940641802935      12.622988906907      12.622988906907
       106    1   0.000000        7.155069319736       5.472721672893       5.472721672893
       107    1   0.000000        7.155069319736       5.472721672893      12.622988906907
       108    1   0.000000       10.940641802935      12.622988906907       5.472721672893
       109    1   0.000000        7.155069319736      12.622988906907       5.472721672893
       110    1   0.000000       10.940641802935       5.472721672893      12.622988906907
       111    1   0.000000       10.940641802935       5.472721672893       5.472721672893
       112    1   0.000000        7.155069319736      12.622988906907      12.622988906907
       113    1   0.000000       12.622988906907      10.940641802935      12.622988906907
       114    1   0.000000        5.472721672893       7.155069319736       5.472721672893
       115    1   0.000000       12.622988906907       7.155069319736       5.472721672893
       116    1   0.000000        5.472721672893      10.940641802935      12.622988906907
       117    1   0.000000        5.472721672893       7.155069319736      12.622988906907
       118    1   0.000000       12.622988906907      10.940641802935       5.472721672893
       119    1   0.000000        5.472721672893      10.940641802935       5.472721672893
       120    1   0.000000       12.622988906907       7.155069319736      12.622988906907
       121    1   0.000000       12.622988906907      12.622988906907      10.940641802935
       122    1   0.000000        5.472721672893       5.472721672893       7.155069319736
       123    1   0.000000        5.472721672893      12.622988906907       7.155069319736
       124    1   0.000000       12.622988906907       5.472721672893      10.940641802935
       125    1   0.000000       12.622988906907       5.472721672893       7.155069319736
       126    1   0.000000        5.472721672893      12.622988906907      10.940641802935
       127    1   0.000000        5.472721672893       5.472721672893      10.940641802935
       128    1   0.000000       12.622988906907      12.622988906907       7.155069319736
