ITEM: TIMESTEP
0
ITEM: NUMBER OF ATOMS
128
ITEM: BOX BOUNDS pp pp pp
0.0000000000000000e+00 1.8095710579799999e+01
0.0000000000000000e+00 1.8095710579799999e+01
0.0000000000000000e+00 1.8095710579799999e+01
ITEM: ATOMS id type x y z 
1 1 3.33392 3.33392 3.33392 
10 1 5.71393 5.71393 5.71393 
17 1 4.17709 4.17709 4.17709 
26 1 4.87077 4.87077 4.87077 
33 1 0.673907 3.56203 3.56203 
41 1 3.56203 0.673907 3.56203 
49 1 3.56203 3.56203 0.673907 
58 1 8.37395 5.48583 5.48583 
66 1 5.48583 8.37395 5.48583 
74 1 5.48583 5.48583 8.37395 
81 1 1.89279 3.57513 3.57513 
89 1 3.57513 1.89279 3.57513 
97 1 3.57513 3.57513 1.89279 
106 1 7.15507 5.47272 5.47272 
114 1 5.47272 7.15507 5.47272 
122 1 5.47272 5.47272 7.15507 
4 1 3.33392 3.33392 14.7618 
11 1 5.71393 5.71393 12.3818 
20 1 4.17709 4.17709 13.9186 
27 1 4.87077 4.87077 13.2249 
36 1 0.673907 3.56203 14.5337 
46 1 3.56203 0.673907 14.5337 
56 1 3.56203 3.56203 17.4218 
59 1 8.37395 5.48583 12.6099 
69 1 5.48583 8.37395 12.6099 
79 1 5.48583 5.48583 9.72176 
84 1 1.89279 3.57513 14.5206 
94 1 3.57513 1.89279 14.5206 
104 1 3.57513 3.57513 16.2029 
107 1 7.15507 5.47272 12.623 
117 1 5.47272 7.15507 12.623 
127 1 5.47272 5.47272 10.9406 
6 1 3.33392 14.7618 3.33392 
13 1 5.71393 12.3818 5.71393 
22 1 4.17709 13.9186 4.17709 
29 1 4.87077 13.2249 4.87077 
38 1 0.673907 14.5337 3.56203 
48 1 3.56203 17.4218 3.56203 
52 1 3.56203 14.5337 0.673907 
61 1 8.37395 12.6099 5.48583 
71 1 5.48583 9.72176 5.48583 
75 1 5.48583 12.6099 8.37395 
86 1 1.89279 14.5206 3.57513 
96 1 3.57513 16.2029 3.57513 
100 1 3.57513 14.5206 1.89279 
109 1 7.15507 12.623 5.47272 
119 1 5.47272 10.9406 5.47272 
123 1 5.47272 12.623 7.15507 
7 1 3.33392 14.7618 14.7618 
16 1 5.71393 12.3818 12.3818 
23 1 4.17709 13.9186 13.9186 
32 1 4.87077 13.2249 13.2249 
39 1 0.673907 14.5337 14.5337 
43 1 3.56203 17.4218 14.5337 
53 1 3.56203 14.5337 17.4218 
64 1 8.37395 12.6099 12.6099 
68 1 5.48583 9.72176 12.6099 
78 1 5.48583 12.6099 9.72176 
87 1 1.89279 14.5206 14.5206 
91 1 3.57513 16.2029 14.5206 
101 1 3.57513 14.5206 16.2029 
112 1 7.15507 12.623 12.623 
116 1 5.47272 10.9406 12.623 
126 1 5.47272 12.623 10.9406 
8 1 14.7618 3.33392 3.33392 
15 1 12.3818 5.71393 5.71393 
24 1 13.9186 4.17709 4.17709 
31 1 13.2249 4.87077 4.87077 
40 1 17.4218 3.56203 3.56203 
44 1 14.5337 0.673907 3.56203 
54 1 14.5337 3.56203 0.673907 
63 1 9.72176 5.48583 5.48583 
67 1 12.6099 8.37395 5.48583 
77 1 12.6099 5.48583 8.37395 
88 1 16.2029 3.57513 3.57513 
92 1 14.5206 1.89279 3.57513 
102 1 14.5206 3.57513 1.89279 
111 1 10.9406 5.47272 5.47272 
115 1 12.623 7.15507 5.47272 
125 1 12.623 5.47272 7.15507 
5 1 14.7618 3.33392 14.7618 
14 1 12.3818 5.71393 12.3818 
21 1 13.9186 4.17709 13.9186 
30 1 13.2249 4.87077 13.2249 
37 1 17.4218 3.56203 14.5337 
47 1 14.5337 0.673907 14.5337 
51 1 14.5337 3.56203 17.4218 
62 1 9.72176 5.48583 12.6099 
72 1 12.6099 8.37395 12.6099 
76 1 12.6099 5.48583 9.72176 
85 1 16.2029 3.57513 14.5206 
95 1 14.5206 1.89279 14.5206 
99 1 14.5206 3.57513 16.2029 
110 1 10.9406 5.47272 12.623 
120 1 12.623 7.15507 12.623 
124 1 12.623 5.47272 10.9406 
3 1 14.7618 14.7618 3.33392 
12 1 12.3818 12.3818 5.71393 
19 1 13.9186 13.9186 4.17709 
28 1 13.2249 13.2249 4.87077 
35 1 17.4218 14.5337 3.56203 
45 1 14.5337 17.4218 3.56203 
55 1 14.5337 14.5337 0.673907 
60 1 9.72176 12.6099 5.48583 
70 1 12.6099 9.72176 5.48583 
80 1 12.6099 12.6099 8.37395 
83 1 16.2029 14.5206 3.57513 
93 1 14.5206 16.2029 3.57513 
103 1 14.5206 14.5206 1.89279 
108 1 10.9406 12.623 5.47272 
118 1 12.623 10.9406 5.47272 
128 1 12.623 12.623 7.15507 
2 1 14.7618 14.7618 14.7618 
9 1 12.3818 12.3818 12.3818 
18 1 13.9186 13.9186 13.9186 
25 1 13.2249 13.2249 13.2249 
34 1 17.4218 14.5337 14.5337 
42 1 14.5337 17.4218 14.5337 
50 1 14.5337 14.5337 17.4218 
57 1 9.72176 12.6099 12.6099 
65 1 12.6099 9.72176 12.6099 
73 1 12.6099 12.6099 9.72176 
82 1 16.2029 14.5206 14.5206 
90 1 14.5206 16.2029 14.5206 
98 1 14.5206 14.5206 16.2029 
105 1 10.9406 12.623 12.623 
113 1 12.623 10.9406 12.623 
121 1 12.623 12.623 10.9406 
ITEM: TIMESTEP
10
ITEM: NUMBER OF ATOMS
128
ITEM: BOX BOUNDS pp pp pp
0.0000000000000000e+00 1.8095710579799999e+01
0.0000000000000000e+00 1.8095710579799999e+01
0.0000000000000000e+00 1.8095710579799999e+01
ITEM: ATOMS id type x y z 
1 1 3.2908 3.2908 3.29079 
10 1 5.75705 5.75705 5.75707 
17 1 4.18616 4.18616 4.18575 
26 1 4.86172 4.86172 4.86205 
33 1 0.69941 3.57289 3.57289 
41 1 3.57289 0.69941 3.57289 
49 1 3.57289 3.57289 0.69945 
58 1 8.34844 5.47496 5.47496 
66 1 5.47496 8.34844 5.47496 
74 1 5.47496 5.47496 8.34842 
81 1 1.90185 3.57893 3.57893 
89 1 3.57893 1.90185 3.57893 
97 1 3.57889 3.57889 1.90192 
106 1 7.146 5.46893 5.46893 
114 1 5.46893 7.146 5.46893 
122 1 5.46895 5.46895 7.14595 
4 1 3.29079 3.29079 14.8049 
11 1 5.75706 5.75706 12.3386 
20 1 4.18621 4.18621 13.91 
27 1 4.86164 4.86164 13.2335 
36 1 0.699418 3.57289 14.5228 
46 1 3.57289 0.699418 14.5228 
56 1 3.57289 3.57289 17.3963 
59 1 8.34843 5.47496 12.6207 
69 1 5.47496 8.34843 12.6207 
79 1 5.47496 5.47496 9.74731 
84 1 1.90186 3.57892 14.5168 
94 1 3.57892 1.90186 14.5168 
104 1 3.57889 3.57889 16.1938 
107 1 7.14599 5.46893 12.6268 
117 1 5.46893 7.14599 12.6268 
127 1 5.46897 5.46897 10.9498 
6 1 3.2908 14.8049 3.2908 
13 1 5.75706 12.3386 5.75706 
22 1 4.18621 13.91 4.18621 
29 1 4.86164 13.2335 4.86164 
38 1 0.699426 14.5228 3.57289 
48 1 3.57289 17.3963 3.57289 
52 1 3.57289 14.5228 0.699427 
61 1 8.34843 12.6207 5.47496 
71 1 5.47496 9.74732 5.47496 
75 1 5.47496 12.6207 8.34843 
86 1 1.90186 14.5168 3.57892 
96 1 3.57888 16.1938 3.57888 
100 1 3.57892 14.5168 1.90186 
109 1 7.146 12.6268 5.46893 
119 1 5.46897 10.9498 5.46897 
123 1 5.46893 12.6268 7.146 
7 1 3.29083 14.805 14.8049 
16 1 5.75703 12.3386 12.3386 
23 1 4.18615 13.9096 13.9099 
32 1 4.8617 13.234 13.2337 
39 1 0.699436 14.5228 14.5228 
43 1 3.57289 17.3963 14.5228 
53 1 3.57289 14.5228 17.3962 
64 1 8.34842 12.6207 12.6207 
68 1 5.47496 9.7473 12.6207 
78 1 5.47496 12.6207 9.74732 
87 1 1.90186 14.5168 14.5168 
91 1 3.5789 16.1938 14.5168 
101 1 3.57889 14.5168 16.1938 
112 1 7.146 12.6268 12.6268 
116 1 5.46896 10.9498 12.6268 
126 1 5.46897 12.6267 10.9498 
8 1 14.8049 3.2908 3.2908 
15 1 12.3386 5.75706 5.75706 
24 1 13.91 4.18621 4.18621 
31 1 13.2335 4.86164 4.86164 
40 1 17.3963 3.57289 3.57289 
44 1 14.5228 0.699426 3.57289 
54 1 14.5228 3.57289 0.699427 
63 1 9.74732 5.47496 5.47496 
67 1 12.6207 8.34843 5.47496 
77 1 12.6207 5.47496 8.34843 
88 1 16.1938 3.57888 3.57888 
92 1 14.5168 1.90186 3.57892 
102 1 14.5168 3.57892 1.90186 
111 1 10.9498 5.46897 5.46897 
115 1 12.6268 7.146 5.46893 
125 1 12.6268 5.46893 7.146 
5 1 14.805 3.29083 14.8049 
14 1 12.3386 5.75703 12.3386 
21 1 13.9096 4.18615 13.9099 
30 1 13.234 4.8617 13.2337 
37 1 17.3963 3.57289 14.5228 
47 1 14.5228 0.699436 14.5228 
51 1 14.5228 3.57289 17.3962 
62 1 9.7473 5.47496 12.6207 
72 1 12.6207 8.34842 12.6207 
76 1 12.6207 5.47496 9.74732 
85 1 16.1938 3.5789 14.5168 
95 1 14.5168 1.90186 14.5168 
99 1 14.5168 3.57889 16.1938 
110 1 10.9498 5.46896 12.6268 
120 1 12.6268 7.146 12.6268 
124 1 12.6267 5.46897 10.9498 
3 1 14.8049 14.8049 3.29084 
12 1 12.3386 12.3386 5.75701 
19 1 13.9097 13.9097 4.18617 
28 1 13.2338 13.2338 4.86168 
35 1 17.3963 14.5228 3.57289 
45 1 14.5228 17.3963 3.57289 
55 1 14.5228 14.5228 0.69943 
60 1 9.7473 12.6207 5.47496 
70 1 12.6207 9.7473 5.47496 
80 1 12.6207 12.6207 8.34843 
83 1 16.1938 14.5168 3.5789 
93 1 14.5168 16.1938 3.5789 
103 1 14.5168 14.5168 1.90184 
108 1 10.9498 12.6268 5.46896 
118 1 12.6268 10.9498 5.46896 
128 1 12.6268 12.6268 7.14602 
2 1 14.8049 14.8049 14.8049 
9 1 12.3386 12.3386 12.3386 
18 1 13.9095 13.9095 13.91 
25 1 13.2341 13.2341 13.2335 
34 1 17.3963 14.5228 14.5228 
42 1 14.5228 17.3963 14.5228 
50 1 14.5228 14.5228 17.3962 
57 1 9.7473 12.6207 12.6207 
65 1 12.6207 9.7473 12.6207 
73 1 12.6207 12.6207 9.74733 
82 1 16.1938 14.5168 14.5168 
90 1 14.5168 16.1938 14.5168 
98 1 14.5168 14.5168 16.1938 
105 1 10.9497 12.6268 12.6268 
113 1 12.6268 10.9497 12.6268 
121 1 12.6267 12.6267 10.9498 
ITEM: TIMESTEP
20
ITEM: NUMBER OF ATOMS
128
ITEM: BOX BOUNDS pp pp pp
0.0000000000000000e+00 1.8095710579799999e+01
0.0000000000000000e+00 1.8095710579799999e+01
0.0000000000000000e+00 1.8095710579799999e+01
ITEM: ATOMS id type x y z 
1 1 3.3033 3.3033 3.30355 
10 1 5.7446 5.7446 5.74442 
17 1 4.17605 4.17605 4.17394 
26 1 4.87187 4.87187 4.87391 
33 1 0.708457 3.59761 3.59765 
41 1 3.59761 0.708457 3.59765 
49 1 3.59762 3.59762 0.708987 
58 1 8.33909 5.45023 5.45022 
66 1 5.45023 8.33909 5.45022 
74 1 5.45022 5.45022 8.33898 
81 1 1.91175 3.58832 3.58836 
89 1 3.58832 1.91175 3.58836 
97 1 3.58825 3.58825 1.91139 
106 1 7.13619 5.45959 5.45955 
114 1 5.45959 7.13619 5.45955 
122 1 5.45967 5.45967 7.13614 
4 1 3.30334 3.30334 14.7922 
11 1 5.74453 5.74453 12.3513 
20 1 4.17611 4.17611 13.9218 
27 1 4.87176 4.87176 13.2217 
36 1 0.708781 3.59763 14.4981 
46 1 3.59763 0.708781 14.4981 
56 1 3.59763 3.59763 17.3872 
59 1 8.33915 5.45024 12.6455 
69 1 5.45024 8.33915 12.6455 
79 1 5.45023 5.45023 9.7568 
84 1 1.91135 3.58831 14.5073 
94 1 3.58831 1.91135 14.5073 
104 1 3.58822 3.58822 16.1838 
107 1 7.13635 5.45956 12.6362 
117 1 5.45956 7.13635 12.6362 
127 1 5.45969 5.45969 10.9595 
6 1 3.3034 14.7922 3.30327 
13 1 5.74453 12.3513 5.74455 
22 1 4.17609 13.9218 4.17608 
29 1 4.87179 13.2217 4.8718 
38 1 0.708321 14.4981 3.59763 
48 1 3.59763 17.3868 3.5976 
52 1 3.59759 14.498 0.708547 
61 1 8.33935 12.6455 5.45022 
71 1 5.45024 9.75682 5.45023 
75 1 5.45025 12.6455 8.3392 
86 1 1.91164 14.5073 3.58834 
96 1 3.58826 16.1844 3.58825 
100 1 3.58834 14.5074 1.91158 
109 1 7.13619 12.6362 5.45955 
119 1 5.45965 10.9594 5.45966 
123 1 5.45954 12.6362 7.13632 
7 1 3.30336 14.7925 14.7922 
16 1 5.74449 12.3511 12.3513 
23 1 4.17606 13.9196 13.9217 
32 1 4.87179 13.2239 13.2219 
39 1 0.708677 14.4981 14.4981 
43 1 3.5976 17.3871 14.4981 
53 1 3.59765 14.4981 17.3868 
64 1 8.3392 12.6455 12.6455 
68 1 5.45024 9.75656 12.6455 
78 1 5.45022 12.6455 9.75675 
87 1 1.91132 14.5074 14.5074 
91 1 3.5883 16.1841 14.5074 
101 1 3.58821 14.5075 16.1842 
112 1 7.13652 12.6362 12.6362 
116 1 5.45957 10.9594 12.6361 
126 1 5.45966 12.636 10.9594 
8 1 14.7922 3.3034 3.30327 
15 1 12.3513 5.74453 5.74455 
24 1 13.9218 4.17609 4.17608 
31 1 13.2217 4.87179 4.8718 
40 1 17.3868 3.59763 3.5976 
44 1 14.4981 0.708321 3.59763 
54 1 14.498 3.59759 0.708547 
63 1 9.75682 5.45024 5.45023 
67 1 12.6455 8.33935 5.45022 
77 1 12.6455 5.45025 8.3392 
88 1 16.1844 3.58826 3.58825 
92 1 14.5073 1.91164 3.58834 
102 1 14.5074 3.58834 1.91158 
111 1 10.9594 5.45965 5.45966 
115 1 12.6362 7.13619 5.45955 
125 1 12.6362 5.45954 7.13632 
5 1 14.7925 3.30336 14.7922 
14 1 12.3511 5.74449 12.3513 
21 1 13.9196 4.17606 13.9217 
30 1 13.2239 4.87179 13.2219 
37 1 17.3871 3.5976 14.4981 
47 1 14.4981 0.708677 14.4981 
51 1 14.4981 3.59765 17.3868 
62 1 9.75656 5.45024 12.6455 
72 1 12.6455 8.3392 12.6455 
76 1 12.6455 5.45022 9.75675 
85 1 16.1841 3.5883 14.5074 
95 1 14.5074 1.91132 14.5074 
99 1 14.5075 3.58821 16.1842 
110 1 10.9594 5.45957 12.6361 
120 1 12.6362 7.13652 12.6362 
124 1 12.636 5.45966 10.9594 
3 1 14.7924 14.7924 3.30387 
12 1 12.3512 12.3512 5.74403 
19 1 13.9208 13.9208 4.1763 
28 1 13.2228 13.2228 4.87156 
35 1 17.3869 14.4981 3.59761 
45 1 14.4981 17.3869 3.59761 
55 1 14.4981 14.4981 0.7076 
60 1 9.75667 12.6455 5.45025 
70 1 12.6455 9.75667 5.45025 
80 1 12.6455 12.6455 8.34017 
83 1 16.1845 14.5074 3.58838 
93 1 14.5074 16.1845 3.58838 
103 1 14.5072 14.5072 1.91149 
108 1 10.9592 12.6361 5.45949 
118 1 12.6361 10.9592 5.45949 
128 1 12.6364 12.6364 7.13638 
2 1 14.7924 14.7924 14.7922 
9 1 12.3511 12.3511 12.3514 
18 1 13.9196 13.9196 13.9218 
25 1 13.224 13.224 13.2218 
34 1 17.3872 14.4981 14.4981 
42 1 14.4981 17.3872 14.4981 
50 1 14.4981 14.4981 17.3869 
57 1 9.75638 12.6455 12.6455 
65 1 12.6455 9.75638 12.6455 
73 1 12.6455 12.6455 9.75672 
82 1 16.1842 14.5074 14.5074 
90 1 14.5074 16.1842 14.5074 
98 1 14.5075 14.5075 16.1845 
105 1 10.9593 12.6362 12.6362 
113 1 12.6362 10.9593 12.6362 
121 1 12.6361 12.6361 10.9591 
ITEM: TIMESTEP
30
ITEM: NUMBER OF ATOMS
128
ITEM: BOX BOUNDS pp pp pp
0.0000000000000000e+00 1.8095710579799999e+01
0.0000000000000000e+00 1.8095710579799999e+01
0.0000000000000000e+00 1.8095710579799999e+01
ITEM: ATOMS id type x y z 
1 1 3.29695 3.29695 3.29703 
10 1 5.75088 5.75088 5.75077 
17 1 4.17811 4.17811 4.17569 
26 1 4.86983 4.86983 4.87221 
33 1 0.703506 3.60698 3.60711 
41 1 3.60698 0.703506 3.60711 
49 1 3.60704 3.60704 0.703917 
58 1 8.34434 5.44082 5.44081 
66 1 5.44082 8.34434 5.44081 
74 1 5.44082 5.44082 8.34421 
81 1 1.90373 3.59186 3.59192 
89 1 3.59186 1.90373 3.59192 
97 1 3.59172 3.59172 1.9036 
106 1 7.14428 5.45605 5.45597 
114 1 5.45605 7.14428 5.45597 
122 1 5.45616 5.45616 7.14444 
4 1 3.29704 3.29704 14.7987 
11 1 5.75082 5.75082 12.345 
20 1 4.17833 4.17833 13.9199 
27 1 4.86958 4.86958 13.2236 
36 1 0.703787 3.60708 14.4887 
46 1 3.60708 0.703787 14.4887 
56 1 3.60704 3.60704 17.392 
59 1 8.3442 5.44084 12.6549 
69 1 5.44084 8.3442 12.6549 
79 1 5.44082 5.44082 9.75159 
84 1 1.90323 3.5918 14.5038 
94 1 3.5918 1.90323 14.5038 
104 1 3.59167 3.59167 16.1918 
107 1 7.14457 5.45606 12.6397 
117 1 5.45606 7.14457 12.6397 
127 1 5.45621 5.45621 10.9513 
6 1 3.29695 14.7986 3.29702 
13 1 5.75087 12.345 5.75088 
22 1 4.17816 13.92 4.17814 
29 1 4.86971 13.2235 4.86973 
38 1 0.703614 14.4887 3.60706 
48 1 3.60708 17.3919 3.60698 
52 1 3.60693 14.4885 0.703408 
61 1 8.34433 12.6549 5.44078 
71 1 5.44083 9.75159 5.44082 
75 1 5.44089 12.655 8.34435 
86 1 1.90366 14.5037 3.59181 
96 1 3.59172 16.1923 3.59172 
100 1 3.59188 14.5038 1.90347 
109 1 7.14421 12.6398 5.45606 
119 1 5.45613 10.9512 5.45617 
123 1 5.456 12.6397 7.1445 
7 1 3.29703 14.7987 14.7985 
16 1 5.75081 12.3449 12.345 
23 1 4.17828 13.9174 13.9198 
32 1 4.8696 13.2261 13.2238 
39 1 0.70373 14.4887 14.4887 
43 1 3.60696 17.3923 14.4886 
53 1 3.60712 14.4888 17.3919 
64 1 8.34414 12.6549 12.6549 
68 1 5.44083 9.75149 12.6549 
78 1 5.44078 12.6548 9.75162 
87 1 1.90316 14.5039 14.5038 
91 1 3.59183 16.1921 14.5039 
101 1 3.59165 14.504 16.1924 
112 1 7.14467 12.6396 12.6397 
116 1 5.45608 10.9512 12.6397 
126 1 5.45621 12.6395 10.9512 
8 1 14.7986 3.29695 3.29702 
15 1 12.345 5.75087 5.75088 
24 1 13.92 4.17816 4.17814 
31 1 13.2235 4.86971 4.86973 
40 1 17.3919 3.60708 3.60698 
44 1 14.4887 0.703614 3.60706 
54 1 14.4885 3.60693 0.703408 
63 1 9.75159 5.44083 5.44082 
67 1 12.6549 8.34433 5.44078 
77 1 12.655 5.44089 8.34435 
88 1 16.1923 3.59172 3.59172 
92 1 14.5037 1.90366 3.59181 
102 1 14.5038 3.59188 1.90347 
111 1 10.9512 5.45613 5.45617 
115 1 12.6398 7.14421 5.45606 
125 1 12.6397 5.456 7.1445 
5 1 14.7987 3.29703 14.7985 
14 1 12.3449 5.75081 12.345 
21 1 13.9174 4.17828 13.9198 
30 1 13.2261 4.8696 13.2238 
37 1 17.3923 3.60696 14.4886 
47 1 14.4887 0.70373 14.4887 
51 1 14.4888 3.60712 17.3919 
62 1 9.75149 5.44083 12.6549 
72 1 12.6549 8.34414 12.6549 
76 1 12.6548 5.44078 9.75162 
85 1 16.1921 3.59183 14.5039 
95 1 14.5039 1.90316 14.5038 
99 1 14.504 3.59165 16.1924 
110 1 10.9512 5.45608 12.6397 
120 1 12.6396 7.14467 12.6397 
124 1 12.6395 5.45621 10.9512 
3 1 14.7987 14.7987 3.297 
12 1 12.3448 12.3448 5.75088 
19 1 13.9188 13.9188 4.17848 
28 1 13.2247 13.2247 4.86939 
35 1 17.3919 14.4886 3.607 
45 1 14.4886 17.3919 3.607 
55 1 14.4887 14.4887 0.703722 
60 1 9.75165 12.6549 5.44087 
70 1 12.6549 9.75165 5.44087 
80 1 12.6549 12.6549 8.34414 
83 1 16.1922 14.5039 3.59186 
93 1 14.5039 16.1922 3.59186 
103 1 14.5038 14.5038 1.90352 
108 1 10.9513 12.6396 5.456 
118 1 12.6396 10.9513 5.456 
128 1 12.6398 12.6398 7.14431 
2 1 14.7987 14.7987 14.7986 
9 1 12.3449 12.3449 12.345 
18 1 13.9175 13.9175 13.9199 
25 1 13.2261 13.2261 13.2236 
34 1 17.3922 14.4887 14.4886 
42 1 14.4887 17.3922 14.4886 
50 1 14.4887 14.4887 17.3918 
57 1 9.75136 12.6548 12.655 
65 1 12.6548 9.75136 12.655 
73 1 12.6549 12.6549 9.75173 
82 1 16.1924 14.5039 14.5038 
90 1 14.5039 16.1924 14.5038 
98 1 14.504 14.504 16.192 
105 1 10.9512 12.6397 12.6398 
113 1 12.6397 10.9512 12.6398 
121 1 12.6395 12.6395 10.9516 
ITEM: TIMESTEP
40
ITEM: NUMBER OF ATOMS
128
ITEM: BOX BOUNDS pp pp pp
0.0000000000000000e+00 1.8095710579799999e+01
0.0000000000000000e+00 1.8095710579799999e+01
0.0000000000000000e+00 1.8095710579799999e+01
ITEM: ATOMS id type x y z 
1 1 3.29588 3.29588 3.29624 
10 1 5.75188 5.75188 5.75176 
17 1 4.17858 4.17858 4.17558 
26 1 4.86933 4.86933 4.87232 
33 1 0.705179 3.62338 3.62361 
41 1 3.62338 0.705179 3.62361 
49 1 3.62352 3.62352 0.704468 
58 1 8.34311 5.42437 5.42435 
66 1 5.42437 8.34311 5.42435 
74 1 5.42438 5.42438 8.34292 
81 1 1.90374 3.59471 3.59482 
89 1 3.59471 1.90374 3.59482 
97 1 3.59451 3.59451 1.90472 
106 1 7.14406 5.45317 5.45303 
114 1 5.45317 7.14406 5.45303 
122 1 5.45335 5.45335 7.14446 
4 1 3.29617 3.29617 14.7998 
11 1 5.75178 5.75178 12.3441 
20 1 4.17876 4.17876 13.92 
27 1 4.86912 4.86912 13.2235 
36 1 0.70451 3.62355 14.4723 
46 1 3.62355 0.70451 14.4723 
56 1 3.62347 3.62347 17.3901 
59 1 8.34327 5.42442 12.6714 
69 1 5.42442 8.34327 12.6714 
79 1 5.42438 5.42438 9.75213 
84 1 1.90392 3.59466 14.5008 
94 1 3.59466 1.90392 14.5008 
104 1 3.59444 3.59444 16.1916 
107 1 7.14434 5.45316 12.6427 
117 1 5.45316 7.14434 12.6427 
127 1 5.45334 5.45334 10.9518 
6 1 3.29598 14.7995 3.29597 
13 1 5.75186 12.3439 5.75176 
22 1 4.17863 13.9201 4.17861 
29 1 4.86924 13.2234 4.86926 
38 1 0.704903 14.4722 3.62352 
48 1 3.62355 17.3912 3.6234 
52 1 3.62331 14.472 0.704884 
61 1 8.34302 12.6713 5.42431 
71 1 5.42441 9.75271 5.42439 
75 1 5.42447 12.6715 8.34351 
86 1 1.90392 14.5008 3.59464 
96 1 3.59449 16.1916 3.59451 
100 1 3.59476 14.5009 1.90348 
109 1 7.14399 12.6427 5.45322 
119 1 5.45334 10.9514 5.45339 
123 1 5.45311 12.6427 7.14408 
7 1 3.29612 14.7998 14.7995 
16 1 5.75165 12.3439 12.344 
23 1 4.17869 13.917 13.92 
32 1 4.86916 13.2265 13.2236 
39 1 0.704767 14.4722 14.4722 
43 1 3.62333 17.3906 14.4721 
53 1 3.62361 14.4724 17.3911 
64 1 8.34349 12.6714 12.6713 
68 1 5.42442 9.75281 12.6713 
78 1 5.42432 12.6712 9.75281 
87 1 1.90342 14.501 14.5009 
91 1 3.59472 16.1922 14.501 
101 1 3.59444 14.5012 16.192 
112 1 7.14423 12.6425 12.6427 
116 1 5.45317 10.9511 12.6426 
126 1 5.45339 12.6424 10.9511 
8 1 14.7995 3.29598 3.29597 
15 1 12.3439 5.75186 5.75176 
24 1 13.9201 4.17863 4.17861 
31 1 13.2234 4.86924 4.86926 
40 1 17.3912 3.62355 3.6234 
44 1 14.4722 0.704903 3.62352 
54 1 14.472 3.62331 0.704884 
63 1 9.75271 5.42441 5.42439 
67 1 12.6713 8.34302 5.42431 
77 1 12.6715 5.42447 8.34351 
88 1 16.1916 3.59449 3.59451 
92 1 14.5008 1.90392 3.59464 
102 1 14.5009 3.59476 1.90348 
111 1 10.9514 5.45334 5.45339 
115 1 12.6427 7.14399 5.45322 
125 1 12.6427 5.45311 7.14408 
5 1 14.7998 3.29612 14.7995 
14 1 12.3439 5.75165 12.344 
21 1 13.917 4.17869 13.92 
30 1 13.2265 4.86916 13.2236 
37 1 17.3906 3.62333 14.4721 
47 1 14.4722 0.704767 14.4722 
51 1 14.4724 3.62361 17.3911 
62 1 9.75281 5.42442 12.6713 
72 1 12.6714 8.34349 12.6713 
76 1 12.6712 5.42432 9.75281 
85 1 16.1922 3.59472 14.501 
95 1 14.501 1.90342 14.5009 
99 1 14.5012 3.59444 16.192 
110 1 10.9511 5.45317 12.6426 
120 1 12.6425 7.14423 12.6427 
124 1 12.6424 5.45339 10.9511 
3 1 14.7996 14.7996 3.29598 
12 1 12.344 12.344 5.75191 
19 1 13.9187 13.9187 4.17897 
28 1 13.2248 13.2248 4.86891 
35 1 17.391 14.4722 3.62342 
45 1 14.4722 17.391 3.62342 
55 1 14.4722 14.4722 0.705323 
60 1 9.75254 12.6714 5.42447 
70 1 12.6714 9.75254 5.42447 
80 1 12.6714 12.6714 8.34249 
83 1 16.1918 14.5011 3.5947 
93 1 14.5011 16.1918 3.5947 
103 1 14.5009 14.5009 1.90389 
108 1 10.9517 12.6424 5.45316 
118 1 12.6424 10.9517 5.45316 
128 1 12.6427 12.6427 7.14398 
2 1 14.7996 14.7996 14.7996 
9 1 12.3439 12.3439 12.3441 
18 1 13.917 13.917 13.92 
25 1 13.2265 13.2265 13.2235 
34 1 17.3913 14.4723 14.4722 
42 1 14.4723 17.3913 14.4722 
50 1 14.4722 14.4722 17.3906 
57 1 9.75258 12.6712 12.6714 
65 1 12.6712 9.75258 12.6714 
73 1 12.6713 12.6713 9.75271 
82 1 16.1922 14.501 14.5008 
90 1 14.501 16.1922 14.5008 
98 1 14.5012 14.5012 16.1917 
105 1 10.9511 12.6426 12.6427 
113 1 12.6426 10.9511 12.6427 
121 1 12.6424 12.6424 10.9521 
ITEM: TIMESTEP
50
ITEM: NUMBER OF ATOMS
128
ITEM: BOX BOUNDS pp pp pp
0.0000000000000000e+00 1.8095710579799999e+01
0.0000000000000000e+00 1.8095710579799999e+01
0.0000000000000000e+00 1.8095710579799999e+01
ITEM: ATOMS id type x y z 
1 1 3.29189 3.29189 3.2927 
10 1 5.75524 5.75524 5.75485 
17 1 4.17993 4.17993 4.17623 
26 1 4.86854 4.86854 4.87223 
33 1 0.708444 3.64855 3.64968 
41 1 3.64855 0.708444 3.64968 
49 1 3.64912 3.64912 0.708293 
58 1 8.3397 5.39868 5.39877 
66 1 5.39868 8.3397 5.39877 
74 1 5.3988 5.3988 8.33952 
81 1 1.90684 3.5982 3.59806 
89 1 3.5982 1.90684 3.59806 
97 1 3.59777 3.59777 1.90712 
106 1 7.14116 5.44993 5.44959 
114 1 5.44993 7.14116 5.44959 
122 1 5.45007 5.45007 7.14172 
4 1 3.293 3.293 14.8053 
11 1 5.75477 5.75477 12.3403 
20 1 4.18003 4.18003 13.9195 
27 1 4.86855 4.86855 13.2234 
36 1 0.707911 3.64979 14.4473 
46 1 3.64979 0.707911 14.4473 
56 1 3.64903 3.64903 17.3861 
59 1 8.33965 5.39891 12.697 
69 1 5.39891 8.33965 12.697 
79 1 5.39879 5.39879 9.75619 
84 1 1.90618 3.59777 14.497 
94 1 3.59777 1.90618 14.497 
104 1 3.59739 3.59739 16.1877 
107 1 7.14179 5.44978 12.6461 
117 1 5.44978 7.14179 12.6461 
127 1 5.45028 5.45028 10.9548 
6 1 3.29208 14.8032 3.29279 
13 1 5.75562 12.3404 5.75468 
22 1 4.17983 13.9197 4.17981 
29 1 4.8682 13.2237 4.86822 
38 1 0.708488 14.447 3.64949 
48 1 3.64953 17.3876 3.64857 
52 1 3.64801 14.4455 0.708216 
61 1 8.3395 12.6964 5.39815 
71 1 5.39895 9.75597 5.39872 
75 1 5.39938 12.6977 8.33988 
86 1 1.90703 14.4974 3.59769 
96 1 3.59742 16.189 3.59781 
100 1 3.5985 14.4979 1.9062 
109 1 7.14088 12.6463 5.45026 
119 1 5.45014 10.9542 5.4503 
123 1 5.44954 12.6459 7.1416 
7 1 3.29274 14.8039 14.803 
16 1 5.75494 12.3405 12.3404 
23 1 4.1798 13.9159 13.9196 
32 1 4.86825 13.2274 13.2237 
39 1 0.708409 14.4466 14.4468 
43 1 3.64826 17.387 14.4459 
53 1 3.65009 14.4477 17.3877 
64 1 8.33978 12.6973 12.6966 
68 1 5.3988 9.75626 12.6969 
78 1 5.39825 12.6963 9.7561 
87 1 1.90629 14.4978 14.4975 
91 1 3.59815 16.1888 14.498 
101 1 3.59715 14.4977 16.1893 
112 1 7.14144 12.6456 12.6462 
116 1 5.44995 10.9543 12.646 
126 1 5.4505 12.6457 10.9542 
8 1 14.8032 3.29208 3.29279 
15 1 12.3404 5.75562 5.75468 
24 1 13.9197 4.17983 4.17981 
31 1 13.2237 4.8682 4.86822 
40 1 17.3876 3.64953 3.64857 
44 1 14.447 0.708488 3.64949 
54 1 14.4455 3.64801 0.708216 
63 1 9.75597 5.39895 5.39872 
67 1 12.6964 8.3395 5.39815 
77 1 12.6977 5.39938 8.33988 
88 1 16.189 3.59742 3.59781 
92 1 14.4974 1.90703 3.59769 
102 1 14.4979 3.5985 1.9062 
111 1 10.9542 5.45014 5.4503 
115 1 12.6463 7.14088 5.45026 
125 1 12.6459 5.44954 7.1416 
5 1 14.8039 3.29274 14.803 
14 1 12.3405 5.75494 12.3404 
21 1 13.9159 4.1798 13.9196 
30 1 13.2274 4.86825 13.2237 
37 1 17.387 3.64826 14.4459 
47 1 14.4466 0.708409 14.4468 
51 1 14.4477 3.65009 17.3877 
62 1 9.75626 5.3988 12.6969 
72 1 12.6973 8.33978 12.6966 
76 1 12.6963 5.39825 9.7561 
85 1 16.1888 3.59815 14.498 
95 1 14.4978 1.90629 14.4975 
99 1 14.4977 3.59715 16.1893 
110 1 10.9543 5.44995 12.646 
120 1 12.6456 7.14144 12.6462 
124 1 12.6457 5.4505 10.9542 
3 1 14.8033 14.8033 3.29235 
12 1 12.3404 12.3404 5.75567 
19 1 13.918 13.918 4.18018 
28 1 13.2255 13.2255 4.86773 
35 1 17.3875 14.4462 3.64859 
45 1 14.4462 17.3875 3.64859 
55 1 14.4466 14.4466 0.708728 
60 1 9.75589 12.6976 5.39946 
70 1 12.6976 9.75589 5.39946 
80 1 12.697 12.697 8.33906 
83 1 16.189 14.4981 3.59807 
93 1 14.4981 16.189 3.59807 
103 1 14.4976 14.4976 1.90685 
108 1 10.9544 12.6454 5.44968 
118 1 12.6454 10.9544 5.44968 
128 1 12.646 12.646 7.14091 
2 1 14.8028 14.8028 14.8039 
9 1 12.3408 12.3408 12.3398 
18 1 13.9161 13.9161 13.9198 
25 1 13.2275 13.2275 13.2237 
34 1 17.3875 14.4469 14.4465 
42 1 14.4469 17.3875 14.4465 
50 1 14.4467 14.4467 17.3869 
57 1 9.75601 12.6965 12.6973 
65 1 12.6965 9.75601 12.6973 
73 1 12.6969 12.6969 9.75635 
82 1 16.1896 14.4976 14.4975 
90 1 14.4976 16.1896 14.4975 
98 1 14.4982 14.4982 16.1884 
105 1 10.9537 12.6461 12.646 
113 1 12.6461 10.9537 12.646 
121 1 12.6453 12.6453 10.9552 
ITEM: TIMESTEP
60
ITEM: NUMBER OF ATOMS
128
ITEM: BOX BOUNDS pp pp pp
0.0000000000000000e+00 1.8095710579799999e+01
0.0000000000000000e+00 1.8095710579799999e+01
0.0000000000000000e+00 1.8095710579799999e+01
ITEM: ATOMS id type x y z 
1 1 3.29524 3.29524 3.29576 
10 1 5.7526 5.7526 5.75215 
17 1 4.18054 4.18054 4.17663 
26 1 4.86739 4.86739 4.87121 
33 1 0.707195 3.66008 3.66019 
41 1 3.66008 0.707195 3.66019 
49 1 3.66006 3.66006 0.708273 
58 1 8.34037 5.38783 5.38767 
66 1 5.38783 8.34037 5.38767 
74 1 5.38779 5.38779 8.34121 
81 1 1.9014 3.59993 3.60031 
89 1 3.59993 1.9014 3.60031 
97 1 3.59971 3.59971 1.9005 
106 1 7.14709 5.44789 5.44756 
114 1 5.44789 7.14709 5.44756 
122 1 5.44815 5.44815 7.14696 
4 1 3.29547 3.29547 14.8007 
11 1 5.75243 5.75243 12.3432 
20 1 4.18057 4.18057 13.919 
27 1 4.86742 4.86742 13.2244 
36 1 0.707583 3.65993 14.4355 
46 1 3.65993 0.707583 14.4355 
56 1 3.66004 3.66004 17.3875 
59 1 8.34075 5.38789 12.708 
69 1 5.38789 8.34075 12.708 
79 1 5.38786 5.38786 9.75599 
84 1 1.90027 3.60003 14.4954 
94 1 3.60003 1.90027 14.4954 
104 1 3.59958 3.59958 16.1945 
107 1 7.14718 5.44786 12.6481 
117 1 5.44786 7.14718 12.6481 
127 1 5.44823 5.44823 10.9479 
6 1 3.29522 14.8003 3.29535 
13 1 5.75267 12.3432 5.75244 
22 1 4.18042 13.9193 4.18042 
29 1 4.86747 13.2242 4.86747 
38 1 0.707224 14.4355 3.65997 
48 1 3.65996 17.3886 3.66004 
52 1 3.66014 14.4356 0.706865 
61 1 8.34059 12.7081 5.38789 
71 1 5.38786 9.75445 5.38787 
75 1 5.38778 12.708 8.3406 
86 1 1.90137 14.4956 3.59995 
96 1 3.59964 16.1949 3.59951 
100 1 3.59985 14.4954 1.90124 
109 1 7.14656 12.648 5.44792 
119 1 5.44828 10.9489 5.44833 
123 1 5.44794 12.6481 7.14705 
7 1 3.29535 14.8006 14.8004 
16 1 5.75257 12.3431 12.3432 
23 1 4.18051 13.9152 13.9191 
32 1 4.8674 13.2283 13.2244 
39 1 0.707459 14.4358 14.4356 
43 1 3.66002 17.3884 14.4356 
53 1 3.65992 14.4356 17.3885 
64 1 8.34003 12.7078 12.708 
68 1 5.38791 9.75522 12.708 
78 1 5.38791 12.7079 9.7545 
87 1 1.90063 14.4957 14.4956 
91 1 3.59986 16.1945 14.4956 
101 1 3.59966 14.4963 16.1953 
112 1 7.14773 12.6479 12.648 
116 1 5.4479 10.9486 12.648 
126 1 5.44824 12.6473 10.9489 
8 1 14.8003 3.29522 3.29535 
15 1 12.3432 5.75267 5.75244 
24 1 13.9193 4.18042 4.18042 
31 1 13.2242 4.86747 4.86747 
40 1 17.3886 3.65996 3.66004 
44 1 14.4355 0.707224 3.65997 
54 1 14.4356 3.66014 0.706865 
63 1 9.75445 5.38786 5.38787 
67 1 12.7081 8.34059 5.38789 
77 1 12.708 5.38778 8.3406 
88 1 16.1949 3.59964 3.59951 
92 1 14.4956 1.90137 3.59995 
102 1 14.4954 3.59985 1.90124 
111 1 10.9489 5.44828 5.44833 
115 1 12.648 7.14656 5.44792 
125 1 12.6481 5.44794 7.14705 
5 1 14.8006 3.29535 14.8004 
14 1 12.3431 5.75257 12.3432 
21 1 13.9152 4.18051 13.9191 
30 1 13.2283 4.8674 13.2244 
37 1 17.3884 3.66002 14.4356 
47 1 14.4358 0.707459 14.4356 
51 1 14.4356 3.65992 17.3885 
62 1 9.75522 5.38791 12.708 
72 1 12.7078 8.34003 12.708 
76 1 12.7079 5.38791 9.7545 
85 1 16.1945 3.59986 14.4956 
95 1 14.4957 1.90063 14.4956 
99 1 14.4963 3.59966 16.1953 
110 1 10.9486 5.4479 12.648 
120 1 12.6479 7.14773 12.648 
124 1 12.6473 5.44824 10.9489 
3 1 14.8004 14.8004 3.2956 
12 1 12.3432 12.3432 5.75227 
19 1 13.9175 13.9175 4.18094 
28 1 13.2261 13.2261 4.86693 
35 1 17.3884 14.4357 3.66003 
45 1 14.4357 17.3884 3.66003 
55 1 14.4356 14.4356 0.707696 
60 1 9.7549 12.7079 5.3878 
70 1 12.7079 9.7549 5.3878 
80 1 12.708 12.708 8.34062 
83 1 16.195 14.4959 3.59981 
93 1 14.4959 16.195 3.59981 
103 1 14.4955 14.4955 1.90102 
108 1 10.9487 12.6477 5.44807 
118 1 12.6477 10.9487 5.44807 
128 1 12.648 12.648 7.14646 
2 1 14.8003 14.8003 14.8003 
9 1 12.3433 12.3433 12.3432 
18 1 13.915 13.915 13.919 
25 1 13.2285 13.2285 13.2246 
34 1 17.3881 14.4358 14.4356 
42 1 14.4358 17.3881 14.4356 
50 1 14.4358 14.4358 17.3876 
57 1 9.75437 12.7079 12.708 
65 1 12.7079 9.75437 12.708 
73 1 12.7078 12.7078 9.7556 
82 1 16.1953 14.4957 14.4954 
90 1 14.4957 16.1953 14.4954 
98 1 14.4961 14.4961 16.1955 
105 1 10.9489 12.6478 12.6481 
113 1 12.6478 10.9489 12.6481 
121 1 12.6474 12.6474 10.9483 
ITEM: TIMESTEP
70
ITEM: NUMBER OF ATOMS
128
ITEM: BOX BOUNDS pp pp pp
0.0000000000000000e+00 1.8095710579799999e+01
0.0000000000000000e+00 1.8095710579799999e+01
0.0000000000000000e+00 1.8095710579799999e+01
ITEM: ATOMS id type x y z 
1 1 3.28055 3.28055 3.25541 
10 1 5.78085 5.78085 5.73656 
17 1 4.17863 4.17863 4.16951 
26 1 4.86135 4.86135 4.86671 
33 1 0.715266 3.91286 3.91677 
41 1 3.91286 0.715266 3.91677 
49 1 3.91362 3.91362 0.718392 
58 1 8.34296 5.13126 5.13148 
66 1 5.13126 8.34296 5.13148 
74 1 5.13797 5.13797 8.322 
81 1 1.854 3.63444 3.63257 
89 1 3.63444 1.854 3.63257 
97 1 3.62705 3.62705 1.85975 
106 1 7.1923 5.41526 5.40957 
114 1 5.41526 7.1923 5.40957 
122 1 5.40116 5.40116 7.21827 
4 1 3.26302 3.26302 14.801 
11 1 5.78152 5.78152 12.3345 
20 1 4.18289 4.18289 13.9186 
27 1 4.86158 4.86158 13.228 
36 1 0.729607 3.91348 14.1841 
46 1 3.91348 0.729607 14.1841 
56 1 3.91343 3.91343 17.3874 
59 1 8.32159 5.13498 12.962 
69 1 5.13498 8.32159 12.962 
79 1 5.12941 5.12941 9.77321 
84 1 1.85958 3.62773 14.4628 
94 1 3.62773 1.85958 14.4628 
104 1 3.63313 3.63313 16.2575 
107 1 7.19187 5.41762 12.6812 
117 1 5.41762 7.19187 12.6812 
127 1 5.4188 5.4188 10.9274 
6 1 3.28002 14.8252 3.27614 
13 1 5.76779 12.3234 5.77889 
22 1 4.18486 13.9199 4.18469 
29 1 4.86279 13.2244 4.86319 
38 1 0.716947 14.182 3.9152 
48 1 3.91457 17.3758 3.91184 
52 1 3.91094 14.1776 0.722469 
61 1 8.33308 12.9617 5.13137 
71 1 5.135 9.76861 5.13441 
75 1 5.13651 12.9637 8.321 
86 1 1.85577 14.4624 3.63208 