ITEM: TIMESTEP
0
ITEM: NUMBER OF ATOMS
57
ITEM: BOX BOUNDS pp pp pp
0.0000000000000000e+00 3.2808000000000000e+01
0.0000000000000000e+00 1.7780000000000001e+01
0.0000000000000000e+00 2.4729999999999999e+00
ITEM: ATOMS id type x y z 
13 1 7.043 0.849 2.464 
29 1 7.397 1.432 1.228 
37 1 8.035 2.733 1.228 
57 2 6.073 1.796 2.407 
1 1 6.173 17.398 2.464 
5 1 5.371 17.398 1.228 
9 1 3.973 17.398 1.228 
16 1 7.043 16.167 2.464 
32 1 7.397 15.584 1.228 
40 1 8.035 14.283 1.228 
45 1 3.236 17.398 2.464 
49 1 1.81 17.398 2.464 
53 1 1.083 17.398 1.228 
4 1 10.968 8.508 2.464 
8 1 11.771 8.508 1.228 
12 1 13.168 8.508 1.228 
18 1 10.098 7.277 2.464 
21 1 8.308 3.392 2.464 
26 1 8.833 4.734 2.464 
34 1 9.745 6.694 1.228 
42 1 9.106 5.393 1.228 
48 1 13.906 8.508 2.464 
52 1 15.331 8.508 2.464 
56 1 16.058 8.508 1.228 
19 1 10.098 9.739 2.464 
24 1 8.308 13.624 2.464 
27 1 8.833 12.282 2.464 
35 1 9.745 10.322 1.228 
43 1 9.106 11.623 1.228 
3 1 22.577 8.508 2.464 
7 1 21.775 8.508 1.228 
11 1 20.377 8.508 1.228 
20 1 23.447 7.277 2.464 
36 1 23.801 6.694 1.228 
44 1 24.439 5.393 1.228 
47 1 19.64 8.508 2.464 
51 1 18.214 8.508 2.464 
55 1 17.487 8.508 1.228 
17 1 23.447 9.739 2.464 
33 1 23.801 10.322 1.228 
41 1 24.439 11.623 1.228 
15 1 26.502 0.849 2.464 
23 1 25.237 3.392 2.464 
28 1 24.712 4.734 2.464 
31 1 26.149 1.432 1.228 
39 1 25.511 2.733 1.228 
2 1 27.373 17.398 2.464 
6 1 28.175 17.398 1.228 
10 1 29.572 17.398 1.228 
14 1 26.502 16.167 2.464 
22 1 25.237 13.624 2.464 
25 1 24.712 12.282 2.464 
30 1 26.149 15.584 1.228 
38 1 25.511 14.283 1.228 
46 1 30.31 17.398 2.464 
50 1 31.735 17.398 2.464 
54 1 32.462 17.398 1.228 
ITEM: TIMESTEP
10
ITEM: NUMBER OF ATOMS
57
ITEM: BOX BOUNDS pp pp pp
0.0000000000000000e+00 3.2808000000000000e+01
0.0000000000000000e+00 1.7780000000000001e+01
0.0000000000000000e+00 2.4729999999999999e+00
ITEM: ATOMS id type x y z 
13 1 7.03931 0.87532 2.59804 
29 1 7.37916 1.44251 1.38871 
37 1 8.07506 2.65222 1.22587 
57 2 6.05816 1.85595 2.10854 
1 1 6.22446 17.4555 2.47249 
5 1 5.36331 17.3715 1.22374 
9 1 3.98569 17.3944 1.22753 
16 1 7.09303 16.2018 2.46373 
32 1 7.43014 15.5778 1.22761 
40 1 8.04414 14.3183 1.22766 
45 1 3.21942 17.3989 2.46415 
49 1 1.83316 17.3983 2.46433 
53 1 1.10682 17.398 1.22767 
4 1 10.9673 8.49794 2.46428 
8 1 11.7972 8.50581 1.22762 
12 1 13.1972 8.50807 1.22768 
18 1 10.0566 7.28157 2.46434 
21 1 8.30204 3.34143 2.46667 
26 1 8.82488 4.73458 2.46427 
34 1 9.70233 6.66675 1.22771 
42 1 9.08724 5.40315 1.22766 
48 1 13.9017 8.50803 2.46434 
52 1 15.3142 8.508 2.46433 
56 1 16.0477 8.508 1.22766 
19 1 10.0593 9.72373 2.46434 
24 1 8.30791 13.648 2.46432 
27 1 8.83193 12.2609 2.46431 
35 1 9.70672 10.3367 1.22771 
43 1 9.09456 11.5869 1.22767 
3 1 22.573 8.508 2.46428 
7 1 21.7438 8.508 1.22762 
11 1 20.3429 8.508 1.22768 
20 1 23.487 7.2893 2.46434 
36 1 23.842 6.67438 1.22772 
44 1 24.4492 5.43175 1.22767 
47 1 19.6446 8.508 2.46434 
51 1 18.2344 8.508 2.46433 
55 1 17.4922 8.508 1.22766 
17 1 23.487 9.7267 2.46434 
33 1 23.842 10.3416 1.22772 
41 1 24.4492 11.5842 1.22767 
15 1 26.4627 0.836047 2.46434 
23 1 25.2363 3.36986 2.46431 
28 1 24.7124 4.75654 2.46431 
31 1 26.1078 1.45213 1.22772 
39 1 25.5007 2.6947 1.22767 
2 1 27.3799 17.398 2.46428 
6 1 28.2041 17.398 1.22762 
10 1 29.6079 17.398 1.22768 
14 1 26.4627 16.18 2.46434 
22 1 25.2363 13.6461 2.46431 
25 1 24.7124 12.2595 2.46431 
30 1 26.1078 15.5639 1.22772 
38 1 25.5007 14.3213 1.22767 
46 1 30.3128 17.398 2.46434 
50 1 31.7121 17.398 2.46433 
54 1 32.45 17.398 1.22767 
ITEM: TIMESTEP
20
ITEM: NUMBER OF ATOMS
57
ITEM: BOX BOUNDS pp pp pp
0.0000000000000000e+00 3.2808000000000000e+01
0.0000000000000000e+00 1.7780000000000001e+01
0.0000000000000000e+00 2.4729999999999999e+00
ITEM: ATOMS id type x y z 
13 1 7.07542 0.912413 2.60243 
29 1 7.34094 1.53448 1.33883 
37 1 8.10302 2.62509 1.24048 
57 2 6.0838 1.89397 2.10968 
1 1 6.19728 17.4073 2.47835 
5 1 5.40049 17.3376 1.24222 
9 1 3.97051 17.3902 1.22777 
16 1 7.14146 16.2125 2.46271 
32 1 7.45787 15.568 1.22655 
40 1 8.05298 14.3238 1.22767 
45 1 3.20177 17.4016 2.46438 
49 1 1.83641 17.3994 2.4642 
53 1 1.09441 17.3979 1.22776 
4 1 10.9625 8.49327 2.4642 
8 1 11.7703 8.50077 1.22775 
12 1 13.1917 8.50858 1.22778 
18 1 10.0417 7.27514 2.46424 
21 1 8.32996 3.32646 2.47349 
26 1 8.81655 4.72953 2.46442 
34 1 9.6841 6.66775 1.22778 
42 1 9.07357 5.4008 1.22788 
48 1 13.9171 8.50838 2.46423 
52 1 15.299 8.50806 2.46422 
56 1 16.0439 8.50799 1.22778 
19 1 10.0465 9.71782 2.46424 
24 1 8.31624 13.6461 2.46417 
27 1 8.82517 12.2584 2.46422 
35 1 9.69104 10.3283 1.22778 
43 1 9.08351 11.5786 1.22777 
3 1 22.5717 8.508 2.4642 
7 1 21.7652 8.508 1.22775 
11 1 20.3421 8.508 1.22778 
20 1 23.4985 7.29161 2.46424 
36 1 23.8582 6.68373 1.22778 
44 1 24.4631 5.43619 1.22777 
47 1 19.6244 8.508 2.46423 
51 1 18.2478 8.508 2.46422 
55 1 17.5017 8.508 1.22778 
17 1 23.4985 9.72439 2.46424 
33 1 23.8582 10.3323 1.22778 
41 1 24.4631 11.5798 1.22777 
15 1 26.4519 0.83402 2.46425 
23 1 25.2293 3.36737 2.46422 
28 1 24.7199 4.75769 2.46422 
31 1 26.0927 1.44099 1.22778 
39 1 25.4872 2.68948 1.22777 
2 1 27.3784 17.398 2.4642 
6 1 28.183 17.398 1.22775 
10 1 29.6105 17.398 1.22778 
14 1 26.4519 16.182 2.46425 
22 1 25.2293 13.6486 2.46422 
25 1 24.7199 12.2583 2.46422 
30 1 26.0927 15.575 1.22778 
38 1 25.4872 14.3265 1.22777 
46 1 30.3322 17.398 2.46423 
50 1 31.696 17.398 2.46422 
54 1 32.4402 17.3979 1.22778 
ITEM: TIMESTEP
30
ITEM: NUMBER OF ATOMS
57
ITEM: BOX BOUNDS pp pp pp
0.0000000000000000e+00 3.2808000000000000e+01
0.0000000000000000e+00 1.7780000000000001e+01
0.0000000000000000e+00 2.4729999999999999e+00
ITEM: ATOMS id type x y z 
13 1 7.062 0.890687 2.58006 
29 1 7.31674 1.5386 1.32669 
37 1 8.13028 2.62864 1.24078 
57 2 6.07654 1.90999 2.12626 
1 1 6.19969 17.4011 2.48527 
5 1 5.3963 17.329 1.24533 
9 1 3.97569 17.389 1.22853 
16 1 7.16278 16.2241 2.46341 
32 1 7.4713 15.5761 1.22674 
40 1 8.05984 14.3236 1.22758 
45 1 3.20173 17.4036 2.46487 
49 1 1.83664 17.4006 2.46426 
53 1 1.09916 17.3979 1.22775 
4 1 10.9579 8.49145 2.46423 
8 1 11.7648 8.49774 1.22773 
12 1 13.185 8.50895 1.22775 
18 1 10.0347 7.27484 2.46427 
21 1 8.3541 3.32283 2.47837 
26 1 8.81643 4.73831 2.46477 
34 1 9.67265 6.6686 1.22778 
42 1 9.06733 5.41001 1.22821 
48 1 13.9259 8.50881 2.46426 
52 1 15.3015 8.50814 2.46425 
56 1 16.0401 8.50797 1.22775 
19 1 10.0394 9.71408 2.46426 
24 1 8.32084 13.6457 2.4641 
27 1 8.82226 12.2532 2.46424 
35 1 9.68139 10.3233 1.22776 
43 1 9.07624 11.5734 1.22774 
3 1 22.5744 8.508 2.46423 
7 1 21.7678 8.508 1.22773 
11 1 20.3466 8.508 1.22775 
20 1 23.5035 7.29394 2.46426 
36 1 23.8684 6.68827 1.22776 
44 1 24.472 5.43934 1.22775 
47 1 19.617 8.508 2.46426 
51 1 18.2454 8.508 2.46425 
55 1 17.5057 8.50799 1.22775 
17 1 23.5035 9.72206 2.46426 
33 1 23.8684 10.3277 1.22776 
41 1 24.472 11.5767 1.22775 
15 1 26.447 0.831851 2.46426 
23 1 25.2248 3.36578 2.46425 
28 1 24.7244 4.75926 2.46425 
31 1 26.0821 1.43707 1.22776 
39 1 25.4782 2.68632 1.22775 
2 1 27.3769 17.398 2.46423 
6 1 28.1816 17.398 1.22773 
10 1 29.6047 17.398 1.22775 
14 1 26.447 16.1841 2.46426 
22 1 25.2248 13.6502 2.46425 
25 1 24.7244 12.2567 2.46425 
30 1 26.0821 15.5789 1.22776 
38 1 25.4782 14.3297 1.22775 
46 1 30.3349 17.398 2.46426 
50 1 31.7006 17.398 2.46425 
54 1 32.4384 17.3978 1.22775 
ITEM: TIMESTEP
40
ITEM: NUMBER OF ATOMS
57
ITEM: BOX BOUNDS pp pp pp
0.0000000000000000e+00 3.2808000000000000e+01
0.0000000000000000e+00 1.7780000000000001e+01
0.0000000000000000e+00 2.4729999999999999e+00
ITEM: ATOMS id type x y z 
13 1 7.05718 0.890338 2.56515 
29 1 7.28515 1.56889 1.31221 
37 1 8.1579 2.61898 1.24155 
57 2 6.07307 1.92183 2.14038 
1 1 6.19599 17.3864 2.48916 
5 1 5.39866 17.3123 1.25019 
9 1 3.97806 17.3878 1.22956 
16 1 7.1891 16.2334 2.46447 
32 1 7.49367 15.5849 1.22756 
40 1 8.06941 14.325 1.22755 
45 1 3.20342 17.4069 2.46582 
49 1 1.83939 17.4027 2.46435 
53 1 1.10227 17.3978 1.22783 
4 1 10.9529 8.48994 2.46424 
8 1 11.7471 8.494 1.22774 
12 1 13.1781 8.50976 1.22775 
18 1 10.0239 7.27414 2.46432 
21 1 8.38852 3.31339 2.47893 
26 1 8.81228 4.73751 2.46535 
34 1 9.65559 6.67144 1.22784 
42 1 9.05334 5.4167 1.22875 
48 1 13.9434 8.50961 2.46425 
52 1 15.3015 8.50831 2.46425 
56 1 16.0391 8.5079 1.22775 
19 1 10.0285 9.71093 2.46426 
24 1 8.32653 13.6459 2.46404 
27 1 8.81639 12.2491 2.46424 
35 1 9.66619 10.3176 1.22776 
43 1 9.0645 11.5669 1.22774 
3 1 22.5779 8.508 2.46424 
7 1 21.7763 8.508 1.22774 
11 1 20.3513 8.508 1.22775 
20 1 23.5109 7.29553 2.46426 
36 1 23.8832 6.69463 1.22776 
44 1 24.4856 5.44427 1.22775 
47 1 19.6106 8.508 2.46425 
51 1 18.2457 8.508 2.46425 
55 1 17.5094 8.50796 1.22775 
17 1 23.5109 9.72047 2.46426 
33 1 23.8832 10.3214 1.22776 
41 1 24.4856 11.5717 1.22775 
15 1 26.4396 0.830317 2.46426 
23 1 25.218 3.36335 2.46425 
28 1 24.7312 4.76171 2.46425 
31 1 26.0673 1.43095 1.22776 
39 1 25.4645 2.68136 1.22775 
2 1 27.3729 17.398 2.46423 
6 1 28.1748 17.398 1.22773 
10 1 29.5995 17.398 1.22775 
14 1 26.4396 16.1857 2.46426 
22 1 25.218 13.6526 2.46425 
25 1 24.7312 12.2543 2.46425 
30 1 26.0673 15.5851 1.22776 
38 1 25.4645 14.3346 1.22775 
46 1 30.3389 17.398 2.46425 
50 1 31.7038 17.398 2.46425 
54 1 32.4414 17.3975 1.22775 
ITEM: TIMESTEP
50
ITEM: NUMBER OF ATOMS
57
ITEM: BOX BOUNDS pp pp pp
0.0000000000000000e+00 3.2808000000000000e+01
0.0000000000000000e+00 1.7780000000000001e+01
0.0000000000000000e+00 2.4729999999999999e+00
ITEM: ATOMS id type x y z 
13 1 7.05373 0.879982 2.55852 
29 1 7.26202 1.60246 1.29737 
37 1 8.1866 2.60908 1.23991 
57 2 6.05429 1.93934 2.15238 
1 1 6.19776 17.3717 2.49214 
5 1 5.40552 17.2953 1.2531 
9 1 3.9768 17.3873 1.23062 
16 1 7.20943 16.2479 2.46592 
32 1 7.51836 15.5925 1.22854 
40 1 8.07955 14.328 1.22761 
45 1 3.2097 17.411 2.46688 
49 1 1.8428 17.4053 2.46452 
53 1 1.10724 17.3977 1.22799 
4 1 10.9488 8.48786 2.46425 
8 1 11.7448 8.49078 1.22775 
12 1 13.1727 8.5106 1.22775 
18 1 10.0146 7.27537 2.46442 
21 1 8.42361 3.30096 2.47796 
26 1 8.80921 4.73779 2.46586 
34 1 9.63947 6.67816 1.22794 
42 1 9.03542 5.41907 1.22926 
48 1 13.9413 8.51055 2.46425 
52 1 15.2987 8.50854 2.46425 
56 1 16.0356 8.50779 1.22775 
19 1 10.0194 9.7067 2.46425 
24 1 8.3319 13.6462 2.46408 
27 1 8.81047 12.2434 2.46423 
35 1 9.65235 10.3085 1.22775 
43 1 9.05128 11.5612 1.22773 
3 1 22.5831 8.508 2.46424 
7 1 21.7952 8.508 1.22774 
11 1 20.3588 8.508 1.22775 
20 1 23.5192 7.29603 2.46425 
36 1 23.8992 6.69956 1.22776 
44 1 24.5003 5.44948 1.22775 
47 1 19.5935 8.50801 2.46425 
51 1 18.244 8.508 2.46425 
55 1 17.5086 8.50791 1.22775 
17 1 23.5192 9.71997 2.46425 
33 1 23.8992 10.3164 1.22776 
41 1 24.5003 11.5665 1.22775 
15 1 26.4318 0.829586 2.46425 
23 1 25.2104 3.36057 2.46425 
28 1 24.7387 4.76444 2.46425 
31 1 26.0514 1.4259 1.22776 
39 1 25.4497 2.67605 1.22775 
2 1 27.3677 17.398 2.46424 
6 1 28.1583 17.398 1.22774 
10 1 29.5923 17.398 1.22775 
14 1 26.4318 16.1864 2.46425 
22 1 25.2104 13.6554 2.46425 
25 1 24.7387 12.2516 2.46425 
30 1 26.0514 15.5901 1.22776 
38 1 25.4497 14.34 1.22775 
46 1 30.3537 17.3981 2.46425 
50 1 31.708 17.3979 2.46425 
54 1 32.4458 17.3971 1.22776 
ITEM: TIMESTEP
60
ITEM: NUMBER OF ATOMS
57
ITEM: BOX BOUNDS pp pp pp
0.0000000000000000e+00 3.2808000000000000e+01
0.0000000000000000e+00 1.7780000000000001e+01
0.0000000000000000e+00 2.4729999999999999e+00
ITEM: ATOMS id type x y z 
13 1 7.05543 0.874733 2.54792 
29 1 7.20414 1.71569 1.30737 
37 1 8.25855 2.57959 1.23821 
57 2 6.01833 1.96783 2.13589 
1 1 6.19384 17.3316 2.49576 
5 1 5.41318 17.2456 1.25802 
9 1 3.97798 17.3892 1.23273 
16 1 7.25862 16.2578 2.46833 
32 1 7.58028 15.6092 1.2311 
40 1 8.10964 14.3311 1.22812 
45 1 3.21667 17.4238 2.46913 
49 1 1.85167 17.4132 2.46521 
53 1 1.11295 17.3974 1.22864 
4 1 10.9386 8.48201 2.46429 
8 1 11.7393 8.48339 1.2278 
12 1 13.1633 8.51289 1.22775 
18 1 9.99515 7.2749 2.46473 
21 1 8.51066 3.28354 2.47425 
26 1 8.79906 4.72889 2.46664 
34 1 9.59738 6.69242 1.22828 
42 1 8.99073 5.43275 1.23002 
48 1 13.9292 8.51362 2.46425 
52 1 15.294 8.50935 2.46425 
56 1 16.034 8.50733 1.22775 
19 1 10.0036 9.69791 2.46424 
24 1 8.34463 13.6426 2.46454 
27 1 8.79243 12.2322 2.46423 
35 1 9.61936 10.2882 1.22774 
43 1 9.01821 11.5443 1.22773 
3 1 22.5921 8.508 2.46424 
7 1 21.8038 8.508 1.22775 
11 1 20.3694 8.508 1.22775 
20 1 23.5343 7.30183 2.46425 
36 1 23.9335 6.71717 1.22775 
44 1 24.5394 5.46213 1.22775 
47 1 19.6057 8.50805 2.46425 
51 1 18.2381 8.508 2.46425 
55 1 17.5022 8.50766 1.22775 
17 1 23.5343 9.71417 2.46425 
33 1 23.9335 10.2988 1.22775 
41 1 24.5394 11.5539 1.22775 
15 1 26.4177 0.82289 2.46425 
23 1 25.1893 3.35505 2.46425 
28 1 24.7596 4.77049 2.46425 
31 1 26.0172 1.40862 1.22775 
39 1 25.4107 2.66242 1.22775 
2 1 27.3594 17.398 2.46424 
6 1 28.1453 17.398 1.22775 
10 1 29.5833 17.3981 1.22775 
14 1 26.4177 16.1931 2.46425 
22 1 25.1893 13.6609 2.46425 
25 1 24.7596 12.2455 2.46425 
30 1 26.0172 15.6074 1.22775 
38 1 25.4107 14.3536 1.22775 
46 1 30.3479 17.3983 2.46425 
50 1 31.7183 17.3976 2.46429 
54 1 32.4541 17.3953 1.2278 
ITEM: TIMESTEP
70
ITEM: NUMBER OF ATOMS
57
ITEM: BOX BOUNDS pp pp pp
0.0000000000000000e+00 3.2808000000000000e+01
0.0000000000000000e+00 1.7780000000000001e+01
0.0000000000000000e+00 2.4729999999999999e+00
ITEM: ATOMS id type x y z 
13 1 7.04856 0.888916 2.54371 
29 1 7.174 1.78255 1.31763 
37 1 8.31235 2.56084 1.24064 
57 2 5.97654 1.98115 2.11156 
1 1 6.19372 17.3116 2.49805 
5 1 5.41486 17.2164 1.26095 
9 1 3.99206 17.391 1.23432 
16 1 7.28522 16.2569 2.46955 
32 1 7.62496 15.6231 1.23242 
40 1 8.13605 14.3331 1.22866 
45 1 3.22677 17.4359 2.47043 
49 1 1.85395 17.4204 2.46581 
53 1 1.11506 17.3973 1.22923 
4 1 10.9335 8.47597 2.46434 
8 1 11.7284 8.47752 1.22785 
12 1 13.1503 8.51473 1.22776 
18 1 9.98358 7.2745 2.46495 
21 1 8.57752 3.27236 2.47572 
26 1 8.78937 4.71848 2.46703 
34 1 9.57023 6.70667 1.22851 
42 1 8.95329 5.43922 1.23034 
48 1 13.9238 8.51653 2.46426 
52 1 15.2944 8.51016 2.46425 
56 1 16.0331 8.50684 1.22775 
19 1 9.99634 9.6913 2.46424 
24 1 8.35341 13.6378 2.46506 
27 1 8.77676 12.2234 2.46427 
35 1 9.59999 10.2706 1.22774 
43 1 8.99329 11.5303 1.22776 
3 1 22.6001 8.508 2.46425 
7 1 21.8086 8.50799 1.22775 
11 1 20.3736 8.50802 1.22775 
20 1 23.5432 7.30395 2.46425 
36 1 23.9574 6.72711 1.22775 
44 1 24.569 5.47116 1.22775 
47 1 19.6091 8.50812 2.46425 
51 1 18.2385 8.50798 2.46425 
55 1 17.5006 8.50732 1.22775 
17 1 23.5432 9.71205 2.46425 
33 1 23.9574 10.2889 1.22775 
41 1 24.569 11.5448 1.22775 
15 1 26.4101 0.820163 2.46425 
23 1 25.1726 3.34961 2.46425 
28 1 24.7767 4.77419 2.46425 
31 1 25.995 1.39661 1.22775 
39 1 25.3811 2.65364 1.22775 
2 1 27.3531 17.398 2.46425 
6 1 28.1439 17.398 1.22775 
10 1 29.5767 17.3982 1.22776 
14 1 26.4101 16.1958 2.46425 
22 1 25.1726 13.6664 2.46425 
25 1 24.7767 12.2418 2.46425 
30 1 25.995 15.6194 1.22775 
38 1 25.3811 14.3624 1.22775 
46 1 30.3419 17.3986 2.46426 
50 1 31.7189 17.3971 2.46435 
54 1 32.4573 17.3932 1.22786 
ITEM: TIMESTEP
80
ITEM: NUMBER OF ATOMS
57
ITEM: BOX BOUNDS pp pp pp
0.0000000000000000e+00 3.2808000000000000e+01
0.0000000000000000e+00 1.7780000000000001e+01
0.0000000000000000e+00 2.4729999999999999e+00
ITEM: ATOMS id type x y z 
13 1 6.99914 0.964729 2.5364 
29 1 7.14515 1.84495 1.32945 
37 1 8.38757 2.51274 1.24893 
57 2 5.92552 1.99302 2.06213 
1 1 6.21532 17.3034 2.50198 
5 1 5.42922 17.1796 1.2661 
9 1 4.02734 17.3927 1.23724 
16 1 7.33935 16.2674 2.47246 
32 1 7.69965 15.6668 1.23589 
40 1 8.18942 14.3446 1.2298 
45 1 3.25114 17.4617 2.47354 
49 1 1.85932 17.4359 2.46699 
53 1 1.11853 17.3979 1.23043 
4 1 10.9236 8.46334 2.46446 
8 1 11.717 8.4628 1.22797 
12 1 13.1405 8.51923 1.22777 
18 1 9.9568 7.26713 2.46534 
21 1 8.6851 3.24665 2.48207 
26 1 8.76443 4.66652 2.46831 
34 1 9.51266 6.72085 1.22891 
42 1 8.86898 5.43569 1.2314 
48 1 13.9159 8.52355 2.46427 
52 1 15.2924 8.51226 2.46425 
56 1 16.0368 8.50558 1.22775 
19 1 9.98139 9.68252 2.46425 
24 1 8.3685 13.6331 2.46615 
27 1 8.73901 12.2113 2.46442 
35 1 9.55924 10.2505 1.22775 
43 1 8.94159 11.506 1.2279 
3 1 22.6142 8.508 2.46425 
7 1 21.8165 8.50798 1.22775 
11 1 20.3909 8.50808 1.22775 
20 1 23.5555 7.31108 2.46425 
36 1 23.9937 6.75178 1.22775 
44 1 24.6287 5.48569 1.22775 
47 1 19.6325 8.50834 2.46425 
51 1 18.2364 8.50789 2.46425 
55 1 17.4992 8.5063 1.22775 
17 1 23.5555 9.70492 2.46425 
33 1 23.9937 10.2642 1.22775 
41 1 24.6286 11.5303 1.22775 
15 1 26.3994 0.812226 2.46425 
23 1 25.1366 3.34251 2.46425 
28 1 24.8122 4.78181 2.46425 
31 1 25.9559 1.37701 1.22775 
39 1 25.3214 2.63786 1.22775 
2 1 27.3395 17.398 2.46425 
6 1 28.1342 17.3979 1.22775 
10 1 29.5656 17.3987 1.22779 
14 1 26.3994 16.2038 2.46425 
22 1 25.1366 13.6735 2.46425 
25 1 24.8122 12.2342 2.46425 
30 1 25.9559 15.639 1.22775 
38 1 25.3214 14.3781 1.22775 
46 1 30.3255 17.3994 2.4643 
50 1 31.7257 17.3953 2.46453 
54 1 32.4663 17.3877 1.22806 
ITEM: TIMESTEP
90
ITEM: NUMBER OF ATOMS
57
ITEM: BOX BOUNDS pp pp pp
0.0000000000000000e+00 3.2808000000000000e+01
0.0000000000000000e+00 1.7780000000000001e+01
0.0000000000000000e+00 2.4729999999999999e+00
ITEM: ATOMS id type x y z 
13 1 6.9681 0.965598 2.53489 
29 1 7.15462 1.84918 1.31189 
37 1 8.41668 2.52001 1.25136 
57 2 5.90403 2.01063 2.06412 
1 1 6.2394 17.3066 2.50361 
5 1 5.43922 17.1737 1.26543 
9 1 4.04334 17.3906 1.23871 
16 1 7.34103 16.3066 2.47492 
32 1 7.72752 15.6771 1.23703 
40 1 8.21013 14.3465 1.23029 
45 1 3.28924 17.4717 2.47492 
49 1 1.85138 17.4416 2.46733 
53 1 1.12606 17.3983 1.23084 
4 1 10.9068 8.44904 2.46451 
8 1 11.7145 8.45527 1.22801 
12 1 13.1205 8.51985 1.22778 
18 1 9.94596 7.26395 2.4655 
21 1 8.7024 3.23863 2.48523 
26 1 8.76366 4.66884 2.46911 
34 1 9.49833 6.71598 1.22904 
42 1 8.84985 5.41864 1.23217 
48 1 13.8894 8.52682 2.46428 
52 1 15.3016 8.51314 2.46425 
56 1 16.0328 8.50507 1.22775 
19 1 9.98049 9.66944 2.46427 
24 1 8.37404 13.6327 2.46658 
27 1 8.72389 12.2061 2.46451 
35 1 9.5562 10.2327 1.22777 
43 1 8.92142 11.5016 1.22798 
3 1 22.6193 8.50799 2.46425 
7 1 21.8121 8.50796 1.22775 
11 1 20.4001 8.50812 1.22775 
20 1 23.5667 7.30448 2.46425 
36 1 24.0082 6.75737 1.22775 
44 1 24.6502 5.49438 1.22775 
47 1 19.6307 8.50848 2.46425 
51 1 18.2328 8.50782 2.46425 
55 1 17.4977 8.50576 1.22775 
17 1 23.5667 9.71152 2.46425 
33 1 24.0082 10.2586 1.22775 
41 1 24.6502 11.5216 1.22775 
15 1 26.3862 0.822251 2.46425 
23 1 25.1214 3.34342 2.46425 
28 1 24.8275 4.77969 2.46425 
31 1 25.9438 1.36815 1.22775 
39 1 25.3 2.62951 1.22775 
2 1 27.3324 17.398 2.46425 
6 1 28.1437 17.3979 1.22775 
10 1 29.5493 17.399 1.22781 
14 1 26.3862 16.1937 2.46425 
22 1 25.1214 13.6726 2.46425 
25 1 24.8275 12.2363 2.46425 
30 1 25.9437 15.6478 1.22775 
38 1 25.3 14.3865 1.22775 
46 1 30.3255 17.3999 2.46431 
50 1 31.7345 17.3942 2.46463 
54 1 32.4653 17.3849 1.22815 
ITEM: TIMESTEP
100
ITEM: NUMBER OF ATOMS
57
ITEM: BOX BOUNDS pp pp pp
0.0000000000000000e+00 3.2808000000000000e+01
0.0000000000000000e+00 1.7780000000000001e+01
0.0000000000000000e+00 2.4729999999999999e+00
ITEM: ATOMS id type x y z 
13 1 6.94884 0.982748 2.52912 
29 1 7.15473 1.86374 1.30779 
37 1 8.4297 2.50741 1.25437 
57 2 5.90647 2.04028 2.05449 
1 1 6.24504 17.3043 2.50349 
5 1 5.45024 17.1606 1.26562 
9 1 4.05455 17.387 1.24027 
16 1 7.37121 16.3282 2.47663 
32 1 7.75501 15.703 1.23917 
40 1 8.23273 14.3493 1.23087 
45 1 3.30732 17.4849 2.47665 
49 1 1.86217 17.4494 2.46783 
53 1 1.12442 17.3991 1.2312 
4 1 10.8858 8.43512 2.46457 
8 1 11.7131 8.44296 1.22806 
12 1 13.1025 8.52055 1.2278 
18 1 9.92658 7.25242 2.46567 
21 1 8.72018 3.22382 2.48891 
26 1 8.7609 4.66422 2.47036 
34 1 9.47752 6.7075 1.22928 
42 1 8.827 5.41218 1.23327 
48 1 13.8584 8.53283 2.46429 
52 1 15.3014 8.51455 2.46426 
56 1 16.0336 8.50408 1.22776 
19 1 9.97133 9.66269 2.4643 
24 1 8.38153 13.6296 2.46714 
27 1 8.70268 12.2063 2.46465 
35 1 9.54837 10.2206 1.2278 
43 1 8.89845 11.4917 1.22811 
3 1 22.6301 8.50799 2.46425 
7 1 21.826 8.50794 1.22775 
11 1 20.4099 8.5082 1.22775 
20 1 23.5735 7.30643 2.46425 
36 1 24.024 6.7625 1.22775 
44 1 24.6797 5.49955 1.22775 
47 1 19.6378 8.50873 2.46425 
51 1 18.2342 8.50771 2.46425 
55 1 17.4952 8.5048 1.22775 
17 1 23.5735 9.70957 2.46425 
33 1 24.024 10.2535 1.22775 
41 1 24.6796 11.5164 1.22775 
15 1 26.3819 0.816976 2.46425 
23 1 25.1036 3.34204 2.46425 
28 1 24.845 4.78116 2.46425 
31 1 25.9298 1.36154 1.22775 
39 1 25.2707 2.62369 1.22775 
2 1 27.3254 17.3979 2.46426 
6 1 28.1523 17.3979 1.22776 
10 1 29.5444 17.3995 1.22783 
14 1 26.3818 16.199 2.46425 
22 1 25.1036 13.6739 2.46425 
25 1 24.845 12.2348 2.46425 
30 1 25.9297 15.6544 1.22775 
38 1 25.2707 14.3923 1.22775 
46 1 30.296 17.4006 2.46434 
50 1 31.7445 17.3924 2.46475 
54 1 32.4802 17.3812 1.22833 
ITEM: TIMESTEP
110
ITEM: NUMBER OF ATOMS
57
ITEM: BOX BOUNDS pp pp pp
0.0000000000000000e+00 3.2808000000000000e+01
0.0000000000000000e+00 1.7780000000000001e+01
0.0000000000000000e+00 2.4729999999999999e+00
ITEM: ATOMS id type x y z 
13 1 6.92768 0.999066 2.52437 
29 1 7.15886 1.8671 1.30212 
37 1 8.4391 2.50113 1.25566 
57 2 5.90776 2.06388 2.05167 
1 1 6.24558 17.298 2.50344 
5 1 5.45261 17.1552 1.26551 
9 1 4.05626 17.3853 1.24171 
16 1 7.38491 16.3481 2.4781 
32 1 7.77624 15.7273 1.24059 
40 1 8.25007 14.3557 1.23136 
45 1 3.31238 17.4874 2.47766 
49 1 1.86782 17.4553 2.46829 
53 1 1.12591 17.4024 1.23152 
4 1 10.8788 8.42005 2.46463 
8 1 11.7058 8.43178 1.22811 
12 1 13.0987 8.51971 1.22781 
18 1 9.91384 7.24664 2.46589 
21 1 8.73139 3.21752 2.49055 
26 1 8.75764 4.65529 2.47142 
34 1 9.46174 6.70005 1.22951 
42 1 8.81396 5.40564 1.23434 
48 1 13.8429 8.5383 2.46431 
52 1 15.2973 8.51618 2.46426 
56 1 16.037 8.50366 1.22776 
19 1 9.96879 9.65025 2.46433 
24 1 8.38816 13.622 2.46753 
27 1 8.68428 12.2119 2.46481 
35 1 9.54511 10.2064 1.22783 
43 1 8.87318 11.4944 1.22824 
3 1 22.6361 8.50799 2.46425 
7 1 21.8113 8.50792 1.22775 
11 1 20.4174 8.50832 1.22775 
20 1 23.579 7.30824 2.46425 
36 1 24.0335 6.7743 1.22775 
44 1 24.7079 5.5079 1.22775 
47 1 19.6604 8.50897 2.46425 
51 1 18.2188 8.50754 2.46425 
55 1 17.478 8.5038 1.22775 
17 1 23.579 9.70776 2.46425 
33 1 24.0335 10.2417 1.22775 
41 1 24.7079 11.5081 1.22775 
15 1 26.3807 0.813244 2.46425 
23 1 25.0866 3.3476 2.46425 
28 1 24.8626 4.77379 2.46425 
31 1 25.9246 1.34378 1.22775 
39 1 25.2415 2.61692 1.22775 
2 1 27.3331 17.3979 2.46426 
6 1 28.1528 17.398 1.22776 
10 1 29.5515 17.4001 1.22785 
14 1 26.3806 16.2027 2.46425 
22 1 25.0866 13.6684 2.46425 
25 1 24.8626 12.2421 2.46425 
30 1 25.9245 15.6721 1.22775 
38 1 25.2415 14.3991 1.22775 
46 1 30.3049 17.4008 2.46436 
50 1 31.7496 17.3903 2.46493 
54 1 32.4939 17.3792 1.2285 
ITEM: TIMESTEP
120
ITEM: NUMBER OF ATOMS
57
ITEM: BOX BOUNDS pp pp pp
0.0000000000000000e+00 3.2808000000000000e+01
0.0000000000000000e+00 1.7780000000000001e+01
0.0000000000000000e+00 2.4729999999999999e+00
ITEM: ATOMS id type x y z 
13 1 6.90453 1.01252 2.51958 
29 1 7.1621 1.87244 1.2981 
37 1 8.44835 2.49301 1.25617 
57 2 5.91034 2.09212 2.04806 
1 1 6.25407 17.2894 2.50321 
5 1 5.46254 17.1449 1.26538 
9 1 4.0662 17.3829 1.24299 
16 1 7.40567 16.3547 2.47955 
32 1 7.80254 15.7343 1.24201 
40 1 8.2644 14.36 1.23198 
45 1 3.31961 17.4916 2.47886 
49 1 1.87721 17.4627 2.46879 
53 1 1.13493 17.4057 1.232 
4 1 10.8662 8.41495 2.4647 
8 1 11.6929 8.4202 1.22817 
12 1 13.0846 8.51883 1.22784 
18 1 9.89873 7.24118 2.46618 
21 1 8.74214 3.20731 2.49136 
26 1 8.75343 4.64632 2.4726 
34 1 9.44763 6.69617 1.22984 
42 1 8.80137 5.39844 1.23545 
48 1 13.8412 8.54417 2.46433 
52 1 15.2849 8.51883 2.46426 
56 1 16.0269 8.50317 1.22776 
19 1 9.95977 9.64679 2.46438 
24 1 8.39202 13.6295 2.46802 
27 1 8.66798 12.2111 2.46502 
35 1 9.53861 10.2048 1.22788 
43 1 8.85554 11.4933 1.22842 
3 1 22.6356 8.508 2.46425 
7 1 21.8126 8.50789 1.22775 
11 1 20.4179 8.50849 1.22775 
20 1 23.5822 7.31175 2.46425 
36 1 24.0452 6.7832 1.22775 
44 1 24.7461 5.50628 1.22775 
47 1 19.6621 8.50925 2.46425 
51 1 18.2169 8.50723 2.46425 
55 1 17.4755 8.50257 1.22775 
17 1 23.5822 9.70423 2.46425 
33 1 24.0451 10.2328 1.22775 
41 1 24.7461 11.5097 1.22775 
15 1 26.3799 0.81006 2.46425 
23 1 25.0708 3.34035 2.46425 
28 1 24.88 4.77522 2.46425 
31 1 25.9143 1.33686 1.22775 
39 1 25.2093 2.60947 1.22775 
2 1 27.3332 17.3979 2.46426 
6 1 28.1564 17.3981 1.22777 
10 1 29.5527 17.4007 1.22788 
14 1 26.3798 16.2059 2.46425 
22 1 25.0708 13.6756 2.46425 
25 1 24.88 12.2407 2.46425 
30 1 25.9142 15.6791 1.22775 
38 1 25.2092 14.4064 1.22775 
46 1 30.3092 17.4009 2.46441 
50 1 31.7542 17.3877 2.4651 
54 1 32.4964 17.3765 1.2287 
ITEM: TIMESTEP
130
ITEM: NUMBER OF ATOMS
57
ITEM: BOX BOUNDS pp pp pp
0.0000000000000000e+00 3.2808000000000000e+01
0.0000000000000000e+00 1.7780000000000001e+01
0.0000000000000000e+00 2.4729999999999999e+00
ITEM: ATOMS id type x y z 
13 1 6.87111 1.02879 2.51338 
29 1 7.16834 1.8714 1.29259 
37 1 8.45796 2.48587 1.25589 
57 2 5.91627 2.12989 2.04524 
1 1 6.25898 17.272 2.50269 
5 1 5.47027 17.1377 1.26501 
9 1 4.06999 17.3802 1.24472 
16 1 7.42509 16.3611 2.48137 
32 1 7.83049 15.7451 1.24385 
40 1 8.28098 14.3629 1.23286 
45 1 3.3203 17.4874 2.48027 
49 1 1.88104 17.469 2.4697 
53 1 1.13608 17.4145 1.23266 
4 1 10.8617 8.40972 2.46483 
8 1 11.6802 8.41251 1.22827 
12 1 13.0806 8.51592 1.22788 
18 1 9.88221 7.24248 2.46662 
21 1 8.7504 3.20071 2.4911 
26 1 8.74955 4.64208 2.47419 
34 1 9.4389 6.69433 1.23037 
42 1 8.7981 5.38808 1.23689 
48 1 13.8406 8.54656 2.46436 
52 1 15.2789 8.5226 2.46427 
56 1 16.0259 8.50478 1.22777 
19 1 9.94936 9.64116 2.46445 
24 1 8.39819 13.633 2.46883 
27 1 8.65039 12.2038 2.46533 
35 1 9.53488 10.2039 1.22797 
43 1 8.84488 11.49 1.2287 
3 1 22.6377 8.50793 2.46425 
7 1 21.8194 8.50791 1.22775 
11 1 20.4165 8.50882 1.22775 
20 1 23.5965 7.31441 2.46425 
36 1 24.0511 6.78015 1.22775 
44 1 24.7591 5.50862 1.22775 
47 1 19.6571 8.50936 2.46425 
51 1 18.2159 8.50616 2.46425 
55 1 17.4699 8.50149 1.22775 
17 1 23.5964 9.70156 2.46425 
33 1 24.051 10.2358 1.22775 
41 1 24.759 11.5072 1.22775 
15 1 26.3699 0.807341 2.46425 
23 1 25.0527 3.33818 2.46425 
28 1 24.8986 4.77601 2.46425 
31 1 25.9103 1.33829 1.22775 
39 1 25.1959 2.60629 1.22775 
2 1 27.3337 17.3979 2.46428 
6 1 28.1519 17.3985 1.22778 
10 1 29.5546 17.4015 1.22794 
14 1 26.3699 16.2086 2.46425 
22 1 25.0526 13.6777 2.46425 
25 1 24.8986 12.2399 2.46425 
30 1 25.9101 15.6777 1.22775 
38 1 25.1958 14.4096 1.22775 
46 1 30.3136 17.4 2.46448 
50 1 31.7545 17.3836 2.46537 
54 1 32.5001 17.3759 1.22904 
ITEM: TIMESTEP
140
ITEM: NUMBER OF ATOMS
57
ITEM: BOX BOUNDS pp pp pp
0.0000000000000000e+00 3.2808000000000000e+01
0.0000000000000000e+00 1.7780000000000001e+01
0.0000000000000000e+00 2.4729999999999999e+00
ITEM: ATOMS id type x y z 
13 1 6.83718 1.04043 2.50801 
29 1 7.17394 1.86221 1.28776 
37 1 8.4617 2.47746 1.25332 
57 2 5.92696 2.1696 2.04408 
1 1 6.26138 17.2566 2.50178 
5 1 5.47254 17.1316 1.26421 
9 1 4.07049 17.3747 1.24633 
16 1 7.4363 16.3626 2.4831 
32 1 7.85088 15.752 1.2457 
40 1 8.29369 14.3667 1.23396 
45 1 3.32029 17.4745 2.4818 
49 1 1.8834 17.4729 2.47078 
53 1 1.138 17.4268 1.23367 
4 1 10.8609 8.40911 2.46501 
8 1 11.6808 8.41181 1.22843 
12 1 13.0777 8.51115 1.22793 
18 1 9.87265 7.24937 2.46727 
21 1 8.75053 3.19539 2.48886 
26 1 8.7491 4.63636 2.47558 
34 1 9.43611 6.69606 1.23106 
42 1 8.80623 5.3823 1.23836 
48 1 13.8386 8.54315 2.46441 
52 1 15.2767 8.52653 2.46428 
56 1 16.023 8.50896 1.22778 
19 1 9.94358 9.63734 2.46458 
24 1 8.40354 13.6328 2.46991 
27 1 8.638 12.2023 2.46575 
35 1 9.53359 10.2023 1.22811 
43 1 8.84185 11.4894 1.2291 
3 1 22.6348 8.50793 2.46425 
7 1 21.8169 8.50807 1.22775 
11 1 20.4152 8.50919 1.22775 
20 1 23.6027 7.32176 2.46425 
36 1 24.0496 6.78163 1.22775 
44 1 24.7607 5.50785 1.22775 
47 1 19.6577 8.50906 2.46425 
51 1 18.2168 8.50447 2.46425 
55 1 17.4707 8.50106 1.22775 
17 1 23.6026 9.6942 2.46425 
33 1 24.0494 10.2343 1.22775 
41 1 24.7606 11.508 1.22775 
15 1 26.364 0.802437 2.46426 
23 1 25.0423 3.33733 2.46425 
28 1 24.9092 4.77572 2.46425 
31 1 25.9122 1.33804 1.22776 
39 1 25.1932 2.6077 1.22775 
2 1 27.3343 17.3978 2.46429 
6 1 28.1521 17.3992 1.22781 
10 1 29.5534 17.4017 1.22805 
14 1 26.3642 16.2134 2.46426 
22 1 25.0423 13.6786 2.46425 
25 1 24.9092 12.2402 2.46425 
30 1 25.9121 15.678 1.22776 
38 1 25.1932 14.4083 1.22775 
46 1 30.3122 17.3976 2.46461 
50 1 31.7527 17.3796 2.46578 
54 1 32.5001 17.3782 1.22948 
ITEM: TIMESTEP
150
ITEM: NUMBER OF ATOMS
57
ITEM: BOX BOUNDS pp pp pp
0.0000000000000000e+00 3.2808000000000000e+01
0.0000000000000000e+00 1.7780000000000001e+01
0.0000000000000000e+00 2.4729999999999999e+00
ITEM: ATOMS id type x y z 
13 1 6.82988 1.04163 2.50744 
29 1 7.17411 1.86096 1.28653 
37 1 8.46311 2.47494 1.25181 
57 2 5.92953 2.18028 2.04405 
1 1 6.26365 17.2546 2.50145 
5 1 5.4737 17.1274 1.26395 
9 1 4.07313 17.3714 1.24665 
16 1 7.44054 16.3608 2.48355 
32 1 7.85489 15.7505 1.24608 
40 1 8.29601 14.3668 1.23435 
45 1 3.3239 17.4719 2.48224 
49 1 1.8823 17.4742 2.47106 
53 1 1.135 17.4295 1.234 
4 1 10.8582 8.41044 2.46508 
8 1 11.6789 8.41126 1.2285 
12 1 13.0779 8.50994 1.22795 
18 1 9.87063 7.24967 2.46749 
21 1 8.74924 3.19233 2.48797 
26 1 8.75022 4.63456 2.47578 
34 1 9.43367 6.6939 1.23129 
42 1 8.80965 5.38257 1.23866 
48 1 13.8354 8.54229 2.46443 
52 1 15.278 8.52746 2.46429 
56 1 16.0253 8.51014 1.22778 
19 1 9.94219 9.63849 2.46463 
24 1 8.40442 13.6342 2.4702 
27 1 8.63695 12.2031 2.46591 
35 1 9.531 10.2054 1.22816 
43 1 8.84042 11.4927 1.22923 
3 1 22.6379 8.50793 2.46425 
7 1 21.8189 8.50814 1.22775 
11 1 20.4173 8.50924 1.22775 
20 1 23.6037 7.32138 2.46425 
36 1 24.0505 6.78006 1.22775 
44 1 24.76 5.50476 1.22775 
47 1 19.6573 8.50889 2.46425 
51 1 18.2171 8.50405 2.46425 
55 1 17.4685 8.50108 1.22776 
17 1 23.6037 9.69458 2.46425 
33 1 24.0504 10.2359 1.22775 
41 1 24.7599 11.5113 1.22775 
15 1 26.3632 0.802699 2.46426 
23 1 25.0422 3.33596 2.46425 
28 1 24.9087 4.77938 2.46425 