ITEM: TIMESTEP
0
ITEM: NUMBER OF ATOMS
49
ITEM: BOX BOUNDS pp pp pp
0.0000000000000000e+00 1.1000000000000000e+01
0.0000000000000000e+00 1.1002000000000001e+01
0.0000000000000000e+00 1.1000000000000000e+01
ITEM: ATOMS id type x y z 
10 1 4.603 4.603 4.603 
11 1 3.085 3.085 3.085 
12 1 3.796 3.796 3.796 
46 1 0.726 0.725 0.725 
47 1 2.26 2.259 2.26 
48 1 1.551 1.55 1.55 
19 1 4.546 4.545 6.226 
20 1 3.013 3.013 7.764 
21 1 3.721 3.721 7.053 
31 1 0.668 0.667 10.103 
32 1 2.187 2.187 8.589 
33 1 1.476 1.475 9.298 
16 1 4.546 6.225 4.546 
17 1 3.013 7.765 3.013 
18 1 3.721 7.053 3.722 
25 1 0.668 10.103 0.668 
26 1 2.188 8.589 2.188 
27 1 1.476 9.298 1.476 
4 1 4.608 6.169 6.169 
5 1 3.086 7.684 7.684 
6 1 3.799 6.974 6.974 
37 1 0.729 10.046 10.046 
38 1 2.259 8.509 8.508 
39 1 1.552 9.219 9.219 
13 1 6.225 4.546 4.546 
14 1 7.764 3.013 3.013 
15 1 7.053 3.721 3.722 
28 1 10.102 0.667 0.668 
29 1 8.589 2.187 2.188 
30 1 9.298 1.475 1.476 
1 1 6.168 4.608 6.169 
2 1 7.684 3.086 7.684 
3 1 6.974 3.799 6.974 
40 1 10.045 0.728 10.046 
41 1 8.508 2.259 8.508 
42 1 9.218 1.551 9.218 
7 1 6.169 6.169 4.608 
8 1 7.684 7.684 3.086 
9 1 6.974 6.974 3.799 
43 1 10.046 10.047 0.729 
44 1 8.508 8.509 2.259 
45 1 9.219 9.219 1.552 
22 1 6.229 6.229 6.229 
23 1 7.764 7.765 7.765 
24 1 7.055 7.056 7.055 
34 1 10.108 10.108 10.107 
35 1 8.59 8.59 8.59 
36 1 9.301 9.301 9.3 
49 2 5.799 6.136 7.235 
ITEM: TIMESTEP
10
ITEM: NUMBER OF ATOMS
49
ITEM: BOX BOUNDS pp pp pp
0.0000000000000000e+00 1.1000000000000000e+01
0.0000000000000000e+00 1.1002000000000001e+01
0.0000000000000000e+00 1.1000000000000000e+01
ITEM: ATOMS id type x y z 
10 1 4.59296 4.57807 4.59331 
11 1 3.07919 3.08223 3.07876 
12 1 3.78938 3.78294 3.79015 
46 1 0.734511 0.733827 0.733707 
47 1 2.2695 2.26829 2.26872 
48 1 1.56184 1.56147 1.56222 
19 1 4.53871 4.54436 6.23516 
20 1 3.00608 3.00542 7.77004 
21 1 3.70818 3.70885 7.06803 
31 1 0.675517 0.673806 10.0954 
32 1 2.19157 2.19115 8.58495 
33 1 1.48166 1.48146 9.29124 
16 1 4.53277 6.2394 4.53574 
17 1 2.99749 7.77909 2.99743 
18 1 3.70347 7.07327 3.70361 
25 1 0.67543 10.096 0.674604 
26 1 2.18893 8.58801 2.18895 
27 1 1.48092 9.29298 1.48108 
4 1 4.49824 6.17089 6.12656 
5 1 3.08521 7.6916 7.69264 
6 1 3.77926 6.98059 6.97429 
37 1 0.739737 10.038 10.037 
38 1 2.26848 8.50025 8.49978 
39 1 1.56095 9.20775 9.2086 
13 1 6.23526 4.53715 4.54249 
14 1 7.7704 3.00592 3.00519 
15 1 7.06391 3.71142 3.71411 
28 1 10.095 0.674316 0.675202 
29 1 8.58622 2.18982 2.19087 
30 1 9.28984 1.48301 1.48376 
1 1 6.17698 4.57248 6.18008 
2 1 7.69319 3.08129 7.69334 
3 1 6.98079 3.78349 6.98119 
40 1 10.0364 0.738088 10.0371 
41 1 8.49977 2.26747 8.49923 
42 1 9.20705 1.56197 9.20789 
7 1 6.19179 6.179 4.57054 
8 1 7.69334 7.69663 3.07781 
9 1 6.98844 6.98179 3.78278 
43 1 10.0373 10.0382 0.739364 
44 1 8.5 8.50005 2.26789 
45 1 9.20778 9.20938 1.56207 
22 1 6.23417 6.22827 6.23687 
23 1 7.7981 7.79907 7.80126 
24 1 7.16617 7.14537 7.02197 
34 1 10.1 10.1001 10.0985 
35 1 8.59237 8.59075 8.5922 
36 1 9.30273 9.30199 9.30195 
49 2 5.76394 6.04023 7.33543 
ITEM: TIMESTEP
20
ITEM: NUMBER OF ATOMS
49
ITEM: BOX BOUNDS pp pp pp
0.0000000000000000e+00 1.1000000000000000e+01
0.0000000000000000e+00 1.1002000000000001e+01
0.0000000000000000e+00 1.1000000000000000e+01
ITEM: ATOMS id type x y z 
10 1 4.59086 4.5779 4.59064 
11 1 3.07849 3.07975 3.07872 
12 1 3.78969 3.78481 3.78865 
46 1 0.734429 0.735874 0.734912 
47 1 2.26999 2.26931 2.27014 
48 1 1.56305 1.56268 1.56193 
19 1 4.53916 4.54468 6.23595 
20 1 3.00058 2.99879 7.77644 
21 1 3.70714 3.70968 7.06794 
31 1 0.676565 0.676182 10.0956 
32 1 2.18986 2.18908 8.58592 
33 1 1.48096 1.4812 9.29317 
16 1 4.53731 6.23825 4.5333 
17 1 2.99754 7.77928 2.99716 
18 1 3.70377 7.07242 3.70291 
25 1 0.676525 10.0983 0.675162 
26 1 2.18668 8.58956 2.18653 
27 1 1.47845 9.29688 1.47881 
4 1 4.47954 6.16533 6.12482 
5 1 3.09055 7.69876 7.70189 
6 1 3.75453 6.97562 6.96315 
37 1 0.745465 10.0378 10.0356 
38 1 2.2692 8.49818 8.49896 
39 1 1.56599 9.20893 9.20793 
13 1 6.23594 4.54013 4.54774 
14 1 7.77161 3.00353 3.0027 
15 1 7.06842 3.70861 3.71226 
28 1 10.0953 0.678181 0.677088 
29 1 8.58542 2.19093 2.19158 
30 1 9.29085 1.48157 1.48254 
1 1 6.17578 4.53484 6.16957 
2 1 7.69833 3.083 7.69901 
3 1 6.97799 3.76967 6.97786 
40 1 10.0367 0.744299 10.0375 
41 1 8.49844 2.26776 8.49817 
42 1 9.20866 1.5647 9.2092 
7 1 6.18294 6.17499 4.54707 
8 1 7.70108 7.70241 3.07802 
9 1 6.98508 6.98058 3.76981 
43 1 10.0359 10.0394 0.745091 
44 1 8.49999 8.50073 2.26652 
45 1 9.20995 9.211 1.56393 
22 1 6.24155 6.2456 6.27339 
23 1 7.79961 7.79851 7.79184 
24 1 7.15423 7.13008 6.99558 
34 1 10.1089 10.1109 10.1057 
35 1 8.6059 8.60675 8.60892 
36 1 9.31388 9.31198 9.31631 
49 2 5.76224 6.03775 7.33738 
ITEM: TIMESTEP
30
ITEM: NUMBER OF ATOMS
49
ITEM: BOX BOUNDS pp pp pp
0.0000000000000000e+00 1.1000000000000000e+01
0.0000000000000000e+00 1.1002000000000001e+01
0.0000000000000000e+00 1.1000000000000000e+01
ITEM: ATOMS id type x y z 
10 1 4.58675 4.57826 4.58838 
11 1 3.07937 3.07893 3.07826 
12 1 3.78917 3.78434 3.7898 
46 1 0.737457 0.740868 0.737447 
47 1 2.27248 2.27155 2.27186 
48 1 1.56383 1.56534 1.56432 
19 1 4.53075 4.53823 6.23803 
20 1 2.99832 2.99648 7.77938 
21 1 3.70203 3.7048 7.07198 
31 1 0.680236 0.679545 10.0975 
32 1 2.18747 2.18755 8.58744 
33 1 1.4807 1.47858 9.29546 
16 1 4.53643 6.23895 4.52612 
17 1 2.99431 7.78237 2.99429 
18 1 3.70248 7.07369 3.69757 
25 1 0.679457 10.1025 0.675619 
26 1 2.18362 8.59082 2.18457 
27 1 1.47825 9.30089 1.47642 
4 1 4.44907 6.15241 6.12194 
5 1 3.09155 7.70266 7.70528 
6 1 3.73202 6.97076 6.95464 
37 1 0.755863 10.0414 10.0364 
38 1 2.27211 8.49825 8.4999 
39 1 1.57095 9.21107 9.20951 
13 1 6.24243 4.53646 4.54527 
14 1 7.7741 2.99986 2.99943 
15 1 7.07221 3.70663 3.71081 
28 1 10.0962 0.683742 0.681455 
29 1 8.58455 2.18916 2.18996 
30 1 9.29443 1.4831 1.48234 
1 1 6.16468 4.49289 6.15383 
2 1 7.70333 3.08267 7.70643 
3 1 6.97755 3.75078 6.97302 
40 1 10.039 0.756309 10.0399 
41 1 8.49881 2.26778 8.49912 
42 1 9.21124 1.56857 9.21148 
7 1 6.17112 6.16943 4.52271 
8 1 7.70734 7.70627 3.07661 
9 1 6.98349 6.98126 3.75714 
43 1 10.0385 10.0443 0.753959 
44 1 8.50117 8.50137 2.26563 
45 1 9.2122 9.21487 1.56641 
22 1 6.22858 6.24132 6.29602 
23 1 7.81582 7.81084 7.77875 
24 1 7.17118 7.14179 6.98809 
34 1 10.1228 10.1227 10.1185 
35 1 8.61201 8.61301 8.62411 
36 1 9.32263 9.32298 9.32491 
49 2 5.75098 6.02866 7.34302 
ITEM: TIMESTEP
40
ITEM: NUMBER OF ATOMS
49
ITEM: BOX BOUNDS pp pp pp
0.0000000000000000e+00 1.1000000000000000e+01
0.0000000000000000e+00 1.1002000000000001e+01
0.0000000000000000e+00 1.1000000000000000e+01
ITEM: ATOMS id type x y z 
10 1 4.58683 4.57887 4.58872 
11 1 3.08044 3.07917 3.07922 
12 1 3.78961 3.78566 3.79021 
46 1 0.738761 0.742537 0.739278 
47 1 2.27338 2.27266 2.273 
48 1 1.56506 1.56638 1.565 
19 1 4.52756 4.53464 6.23505 
20 1 2.99748 2.99595 7.78125 
21 1 3.70062 3.70287 7.07092 
31 1 0.681448 0.679915 10.0983 
32 1 2.1875 2.18672 8.58739 
33 1 1.48012 1.47936 9.29678 
16 1 4.53416 6.2372 4.52414 
17 1 2.99449 7.78283 2.99385 
18 1 3.70147 7.0731 3.69648 
25 1 0.680676 10.1037 0.676453 
26 1 2.18364 8.59097 2.18449 
27 1 1.47812 9.30124 1.47648 
4 1 4.44765 6.15044 6.1209 
5 1 3.08963 7.70205 7.70276 
6 1 3.73173 6.9686 6.95478 
37 1 0.756565 10.0425 10.0374 
38 1 2.27283 8.49899 8.50068 
39 1 1.57246 9.21193 9.2104 
13 1 6.24132 4.53512 4.54317 
14 1 7.77567 2.99976 2.99968 
15 1 7.07045 3.70541 3.70907 
28 1 10.0976 0.684765 0.682244 
29 1 8.58441 2.18936 2.1899 
30 1 9.29467 1.48313 1.48239 
1 1 6.16251 4.49112 6.15117 
2 1 7.70301 3.08295 7.70586 
3 1 6.97552 3.74797 6.97135 
40 1 10.0405 0.756771 10.0415 
41 1 8.4996 2.26803 8.49997 
42 1 9.21208 1.5692 9.21252 
7 1 6.16952 6.16901 4.52359 
8 1 7.7069 7.70526 3.07579 
9 1 6.98289 6.98135 3.75764 
43 1 10.0402 10.0461 0.754454 
44 1 8.50207 8.50214 2.26542 
45 1 9.2132 9.21606 1.5666 
22 1 6.22969 6.2414 6.30035 
23 1 7.8212 7.81423 7.77394 
24 1 7.17209 7.14265 6.98794 
34 1 10.1228 10.1226 10.118 
35 1 8.61173 8.61311 8.6247 
36 1 9.32193 9.32268 9.32625 
49 2 5.74717 6.02849 7.34364 
ITEM: TIMESTEP
50
ITEM: NUMBER OF ATOMS
49
ITEM: BOX BOUNDS pp pp pp
0.0000000000000000e+00 1.1000000000000000e+01
0.0000000000000000e+00 1.1002000000000001e+01
0.0000000000000000e+00 1.1000000000000000e+01
ITEM: ATOMS id type x y z 
10 1 4.5867 4.57898 4.58862 
11 1 3.08047 3.0793 3.07938 
12 1 3.78989 3.78563 3.79022 
46 1 0.739037 0.742801 0.739521 
47 1 2.27356 2.27285 2.27315 
48 1 1.56519 1.56654 1.56518 
19 1 4.52713 4.5341 6.23467 
20 1 2.99742 2.99584 7.7815 
21 1 3.70022 3.70256 7.07084 
31 1 0.681489 0.679986 10.0985 
32 1 2.18734 2.18668 8.58745 
33 1 1.48025 1.47921 9.29698 
16 1 4.53388 6.23698 4.52395 
17 1 2.99439 7.78299 2.99362 
18 1 3.7014 7.07298 3.69643 
25 1 0.680962 10.104 0.676473 
26 1 2.18362 8.591 2.18447 
27 1 1.47813 9.30135 1.47647 
4 1 4.44733 6.15013 6.12072 
5 1 3.08939 7.70191 7.70241 
6 1 3.73144 6.96825 6.95459 
37 1 0.756695 10.0427 10.0376 
38 1 2.27304 8.49912 8.50078 
39 1 1.57261 9.21209 9.21062 
13 1 6.2411 4.53495 4.54284 
14 1 7.77567 2.99979 2.99974 
15 1 7.07043 3.70531 3.70891 
28 1 10.0979 0.68501 0.682389 
29 1 8.58441 2.18928 2.18989 
30 1 9.29478 1.48327 1.48234 
1 1 6.16221 4.49066 6.15067 
2 1 7.70291 3.08281 7.70566 
3 1 6.97525 3.74773 6.97125 
40 1 10.0408 0.756846 10.0417 
41 1 8.49977 2.26806 8.5001 
42 1 9.21216 1.56941 9.21272 
7 1 6.16938 6.1689 4.52372 
8 1 7.70691 7.70506 3.0756 
9 1 6.9827 6.98148 3.75771 
43 1 10.0404 10.0463 0.754551 
44 1 8.50209 8.50219 2.26544 
45 1 9.21337 9.21617 1.56682 
22 1 6.22973 6.24125 6.30091 
23 1 7.82211 7.81479 7.773 
24 1 7.17226 7.14278 6.98783 
34 1 10.1229 10.1227 10.1178 
35 1 8.61173 8.61323 8.62488 
36 1 9.32196 9.32265 9.32653 
49 2 5.74656 6.02836 7.34391 
ITEM: TIMESTEP
60
ITEM: NUMBER OF ATOMS
49
ITEM: BOX BOUNDS pp pp pp
0.0000000000000000e+00 1.1000000000000000e+01
0.0000000000000000e+00 1.1002000000000001e+01
0.0000000000000000e+00 1.1000000000000000e+01
ITEM: ATOMS id type x y z 
10 1 4.5867 4.57898 4.58862 
11 1 3.08048 3.0793 3.07938 
12 1 3.7899 3.78564 3.79022 
46 1 0.739047 0.74281 0.739528 
47 1 2.27357 2.27285 2.27315 
48 1 1.5652 1.56655 1.56519 
19 1 4.52712 4.53409 6.23466 
20 1 2.99742 2.99583 7.78151 
21 1 3.70021 3.70256 7.07083 
31 1 0.68149 0.679992 10.0985 
32 1 2.18733 2.18668 8.58745 
33 1 1.48025 1.47921 9.29698 
16 1 4.53387 6.23698 4.52395 
17 1 2.99439 7.78298 2.99361 
18 1 3.7014 7.07298 3.69642 
25 1 0.680965 10.104 0.676477 
26 1 2.18362 8.591 2.18447 
27 1 1.47813 9.30135 1.47647 
4 1 4.44733 6.15013 6.12072 
5 1 3.08939 7.70191 7.7024 
6 1 3.73142 6.96823 6.95458 
37 1 0.756693 10.0427 10.0376 
38 1 2.27304 8.49912 8.50078 
39 1 1.57263 9.2121 9.21063 
13 1 6.24109 4.53495 4.54283 
14 1 7.77568 2.99978 2.99974 
15 1 7.07042 3.70531 3.70891 
28 1 10.0979 0.685019 0.68239 
29 1 8.58442 2.18929 2.18988 
30 1 9.29477 1.48326 1.48235 
1 1 6.16219 4.49065 6.15066 
2 1 7.70291 3.08281 7.70565 
3 1 6.97524 3.74772 6.97124 
40 1 10.0408 0.756844 10.0417 
41 1 8.49977 2.26806 8.5001 
42 1 9.21216 1.56942 9.21274 
7 1 6.16938 6.1689 4.52372 
8 1 7.70691 7.70505 3.0756 
9 1 6.98269 6.98148 3.7577 
43 1 10.0404 10.0463 0.754552 
44 1 8.5021 8.50219 2.26544 
45 1 9.21337 9.21618 1.56682 
22 1 6.22973 6.24125 6.30093 
23 1 7.82213 7.81481 7.77297 
24 1 7.17227 7.14278 6.98783 
34 1 10.1229 10.1227 10.1178 
35 1 8.61173 8.61323 8.62488 
36 1 9.32196 9.32265 9.32655 
49 2 5.74654 6.02836 7.34392 
ITEM: TIMESTEP
61
ITEM: NUMBER OF ATOMS
49
ITEM: BOX BOUNDS pp pp pp
0.0000000000000000e+00 1.1000000000000000e+01
0.0000000000000000e+00 1.1002000000000001e+01
0.0000000000000000e+00 1.1000000000000000e+01
ITEM: ATOMS id type x y z 
10 1 4.5867 4.57898 4.58862 
11 1 3.08048 3.0793 3.07938 
12 1 3.7899 3.78564 3.79022 
46 1 0.739047 0.74281 0.739528 
47 1 2.27357 2.27285 2.27315 
48 1 1.5652 1.56655 1.56519 
19 1 4.52712 4.53408 6.23466 
20 1 2.99742 2.99583 7.78151 
21 1 3.70021 3.70256 7.07083 
31 1 0.68149 0.679992 10.0985 
32 1 2.18733 2.18668 8.58745 
33 1 1.48025 1.47921 9.29698 
16 1 4.53387 6.23698 4.52395 
17 1 2.99439 7.78298 2.99361 
18 1 3.7014 7.07298 3.69642 
25 1 0.680965 10.104 0.676477 
26 1 2.18362 8.591 2.18447 
27 1 1.47813 9.30135 1.47647 
4 1 4.44733 6.15013 6.12072 
5 1 3.08939 7.70191 7.7024 
6 1 3.73142 6.96823 6.95458 
37 1 0.756693 10.0427 10.0376 
38 1 2.27304 8.49912 8.50078 
39 1 1.57263 9.2121 9.21063 
13 1 6.24109 4.53495 4.54283 
14 1 7.77568 2.99978 2.99974 
15 1 7.07042 3.70531 3.70891 
28 1 10.0979 0.685019 0.68239 
29 1 8.58442 2.18929 2.18988 
30 1 9.29478 1.48326 1.48235 
1 1 6.16219 4.49065 6.15066 
2 1 7.70291 3.08281 7.70565 
3 1 6.97524 3.74772 6.97124 
40 1 10.0408 0.756843 10.0417 
41 1 8.49977 2.26806 8.5001 
42 1 9.21216 1.56942 9.21274 
7 1 6.16938 6.1689 4.52372 
8 1 7.70691 7.70505 3.0756 
9 1 6.98269 6.98148 3.7577 
43 1 10.0404 10.0463 0.754551 
44 1 8.5021 8.50219 2.26544 
45 1 9.21337 9.21619 1.56682 
22 1 6.22973 6.24125 6.30093 
23 1 7.82213 7.81481 7.77297 
24 1 7.17227 7.14278 6.98783 
34 1 10.1229 10.1227 10.1178 
35 1 8.61173 8.61323 8.62488 
36 1 9.32196 9.32265 9.32655 
49 2 5.74654 6.02836 7.34392 
ITEM: TIMESTEP
62
ITEM: NUMBER OF ATOMS
49
ITEM: BOX BOUNDS pp pp pp
0.0000000000000000e+00 1.1000000000000000e+01
0.0000000000000000e+00 1.1002000000000001e+01
0.0000000000000000e+00 1.1000000000000000e+01
ITEM: ATOMS id type x y z 
10 1 4.5867 4.57898 4.58862 
11 1 3.08048 3.0793 3.07938 
12 1 3.7899 3.78564 3.79022 
46 1 0.739047 0.74281 0.739528 
47 1 2.27357 2.27285 2.27315 
48 1 1.5652 1.56655 1.56519 
19 1 4.52712 4.53408 6.23466 
20 1 2.99742 2.99583 7.78151 
21 1 3.70021 3.70256 7.07083 
31 1 0.68149 0.679992 10.0985 
32 1 2.18733 2.18668 8.58745 
33 1 1.48025 1.47921 9.29698 
16 1 4.53387 6.23698 4.52395 
17 1 2.99439 7.78298 2.99361 
18 1 3.7014 7.07298 3.69642 
25 1 0.680965 10.104 0.676477 
26 1 2.18362 8.591 2.18447 
27 1 1.47813 9.30135 1.47647 
4 1 4.44733 6.15013 6.12072 
5 1 3.08939 7.70191 7.7024 
6 1 3.73142 6.96823 6.95458 
37 1 0.756693 10.0427 10.0376 
38 1 2.27304 8.49912 8.50078 
39 1 1.57263 9.2121 9.21063 
13 1 6.24109 4.53495 4.54283 
14 1 7.77568 2.99978 2.99974 
15 1 7.07042 3.70531 3.70891 
28 1 10.0979 0.685019 0.68239 
29 1 8.58442 2.18929 2.18988 
30 1 9.29478 1.48326 1.48235 
1 1 6.16219 4.49065 6.15066 
2 1 7.70291 3.08281 7.70565 
3 1 6.97524 3.74772 6.97124 
40 1 10.0408 0.756843 10.0417 
41 1 8.49977 2.26806 8.5001 
42 1 9.21216 1.56942 9.21274 
7 1 6.16938 6.1689 4.52372 
8 1 7.70691 7.70505 3.0756 
9 1 6.98269 6.98148 3.7577 
43 1 10.0404 10.0463 0.754552 
44 1 8.5021 8.50219 2.26544 
45 1 9.21337 9.21619 1.56682 
22 1 6.22973 6.24125 6.30093 
23 1 7.82213 7.81481 7.77297 
24 1 7.17227 7.14278 6.98783 
34 1 10.1229 10.1227 10.1178 
35 1 8.61173 8.61323 8.62488 
36 1 9.32196 9.32265 9.32655 
49 2 5.74654 6.02836 7.34392 
ITEM: TIMESTEP
70
ITEM: NUMBER OF ATOMS
49
ITEM: BOX BOUNDS pp pp pp
-4.4000000000000003e-03 1.1004400000000004e+01
-4.3413944670015175e-03 1.1006341394467000e+01
-4.1534914693702298e-03 1.1004153491469371e+01
ITEM: ATOMS id type x y z 
10 1 4.58599 4.57827 4.58795 
11 1 3.07855 3.0774 3.07756 
12 1 3.78852 3.78428 3.78893 
46 1 0.735227 0.739042 0.735921 
47 1 2.27098 2.2703 2.27071 
48 1 1.56204 1.56343 1.56221 
19 1 4.52634 4.53333 6.2352 
20 1 2.99542 2.99386 7.78322 
21 1 3.69878 3.70115 7.07201 
31 1 0.677618 0.676169 10.102 
32 1 2.18468 2.18406 8.58979 
33 1 1.47704 1.47604 9.29985 
16 1 4.5331 6.23755 4.52322 
17 1 2.99239 7.78478 2.99173 
18 1 3.69997 7.07421 3.69507 
25 1 0.677092 10.1077 0.672817 
26 1 2.18096 8.59344 2.18196 
27 1 1.47492 9.30435 1.47344 
4 1 4.44648 6.15061 6.12116 
5 1 3.08746 7.70364 7.70405 
6 1 3.72999 6.96939 6.95568 
37 1 0.752886 10.0463 10.041 
38 1 2.27045 8.50149 8.50305 
39 1 1.56948 9.21504 9.21344 
13 1 6.24167 4.53419 4.54212 
14 1 7.7775 2.99782 2.99785 
15 1 7.07166 3.7039 3.70757 
28 1 10.1016 0.681201 0.678736 
29 1 8.58689 2.18667 2.18738 
30 1 9.2978 1.4801 1.47932 
1 1 6.1627 4.48985 6.15112 
2 1 7.70466 3.08091 7.70732 
3 1 6.97642 3.74633 6.97235 
40 1 10.0444 0.753084 10.0451 
41 1 8.50218 2.2655 8.50237 
42 1 9.21514 1.56631 9.21556 
7 1 6.16989 6.16941 4.52299 
8 1 7.70867 7.70678 3.07377 
9 1 6.98388 6.98265 3.75638 
43 1 10.044 10.0499 0.750955 
44 1 8.50451 8.50456 2.26299 
45 1 9.21636 9.21913 1.56384 
22 1 6.23031 6.24182 6.30153 
23 1 7.82399 7.81663 7.77467 
24 1 7.17362 7.14409 6.98896 
34 1 10.1266 10.1264 10.1214 
35 1 8.61422 8.61569 8.62725 
36 1 9.32501 9.32566 9.32943 
49 2 5.74674 6.02877 7.34532 
ITEM: TIMESTEP
80
ITEM: NUMBER OF ATOMS
49
ITEM: BOX BOUNDS pp pp pp
-9.9000000000000008e-03 1.1009900000000009e+01
-8.5519969231116610e-03 1.1010551996923111e+01
-4.6474091591995753e-03 1.1004647409159199e+01
ITEM: ATOMS id type x y z 
10 1 4.58562 4.57813 4.5885 
11 1 3.07631 3.07571 3.07754 
12 1 3.78663 3.7828 3.78856 
46 1 0.730021 0.734968 0.73507 
47 1 2.2675 2.26758 2.27017 
48 1 1.55783 1.56014 1.56157 
19 1 4.52564 4.53291 6.23475 
20 1 2.99319 2.99221 7.78318 
21 1 3.69728 3.70007 7.07178 
31 1 0.672229 0.671905 10.103 
32 1 2.18117 2.18133 8.59024 
33 1 1.47324 1.47319 9.30002 
16 1 4.53239 6.23767 4.52355 
17 1 2.99019 7.78625 2.99177 
18 1 3.69842 7.07509 3.69519 
25 1 0.671705 10.1118 0.671812 
26 1 2.17746 8.59597 2.18147 
27 1 1.47112 9.30709 1.47332 
4 1 4.44553 6.15037 6.12045 
5 1 3.08523 7.70515 7.70405 
6 1 3.72786 6.97065 6.95595 
37 1 0.747708 10.0502 10.0419 
38 1 2.26698 8.5041 8.50363 
39 1 1.5653 9.21817 9.21407 
13 1 6.24195 4.53375 4.54238 
14 1 7.77952 2.99618 2.9979 
15 1 7.0729 3.7028 3.70769 
28 1 10.1069 0.676948 0.67775 
29 1 8.59016 2.18395 2.18691 
30 1 9.30138 1.47724 1.47914 
1 1 6.16266 4.48913 6.15043 
2 1 7.7067 3.07921 7.70734 
3 1 6.97805 3.74468 6.97264 
40 1 10.0494 0.749004 10.046 
41 1 8.50548 2.26276 8.50294 
42 1 9.21917 1.56304 9.21621 
7 1 6.16991 6.1693 4.52301 
8 1 7.71074 7.70833 3.07373 
9 1 6.98547 6.9839 3.75594 
43 1 10.049 10.0539 0.750083 
44 1 8.50781 8.50717 2.26242 
45 1 9.22039 9.22229 1.56321 
22 1 6.2309 6.24222 6.30153 
23 1 7.82617 7.8182 7.7744 
24 1 7.17561 7.14568 6.9895 
34 1 10.1318 10.1305 10.1224 
35 1 8.6175 8.61828 8.62772 
36 1 9.32864 9.32833 9.32958 
49 2 5.74693 6.02914 7.34551 
ITEM: TIMESTEP
90
ITEM: NUMBER OF ATOMS
49
ITEM: BOX BOUNDS pp pp pp
-1.5400000000000002e-02 1.1015400000000014e+01
-1.2262026513606172e-02 1.1014262026513604e+01
-2.8746085028141248e-03 1.1002874608502815e+01
ITEM: ATOMS id type x y z 
10 1 4.58559 4.57839 4.5897 
11 1 3.07419 3.07432 3.07854 
12 1 3.78458 3.78137 3.78891 
46 1 0.724559 0.731069 0.735927 
47 1 2.26371 2.26485 2.27064 
48 1 1.55364 1.55722 1.56258 
19 1 4.52509 4.53275 6.2337 
20 1 2.99131 2.99113 7.78189 
21 1 3.6957 3.69913 7.07086 
31 1 0.666515 0.667793 10.1025 
32 1 2.17759 2.17887 8.58951 
33 1 1.46955 1.47071 9.2985 
16 1 4.53181 6.23746 4.5245 
17 1 2.98834 7.78718 2.99315 
18 1 3.69682 7.07584 3.69604 
25 1 0.666024 10.1159 0.672507 
26 1 2.17393 8.59833 2.18232 
27 1 1.46738 9.30929 1.47489 
4 1 4.44465 6.14966 6.11909 
5 1 3.08302 7.70642 7.70308 
6 1 3.72552 6.9718 6.95567 
37 1 0.742254 10.054 10.0412 
38 1 2.2632 8.50678 8.5033 
39 1 1.56113 9.22098 9.21319 
13 1 6.24195 4.53355 4.54322 
14 1 7.78122 2.99511 2.99932 
15 1 7.07412 3.70184 3.70853 
28 1 10.1124 0.672835 0.678417 
29 1 8.59349 2.1815 2.18773 
30 1 9.30488 1.47481 1.48077 
1 1 6.16225 4.48859 6.14909 
2 1 7.7087 3.07785 7.70645 
3 1 6.9797 3.7429 6.9723 
40 1 10.0547 0.74509 10.0453 
41 1 8.50913 2.26001 8.50263 
42 1 9.2232 1.56012 9.21533 
7 1 6.16959 6.16879 4.5235 
8 1 7.71278 7.7096 3.07475 
9 1 6.98712 6.98513 3.75605 
43 1 10.0544 10.0578 0.750901 
44 1 8.51147 8.50985 2.26287 
45 1 9.22443 9.22513 1.56421 
22 1 6.23144 6.24245 6.30121 
23 1 7.82841 7.81958 7.77307 
24 1 7.17758 7.14711 6.98943 
34 1 10.1374 10.1345 10.1218 
35 1 8.62091 8.62063 8.62704 
36 1 9.33212 9.33069 9.32805 
49 2 5.74708 6.02944 7.34493 
ITEM: TIMESTEP
100
ITEM: NUMBER OF ATOMS
49
ITEM: BOX BOUNDS pp pp pp
-2.0772051858133484e-02 1.1020772051858152e+01
-1.6140293983158770e-02 1.1018140293983159e+01
-1.1230948260701756e-03 1.1001123094826074e+01
ITEM: ATOMS id type x y z 
10 1 4.5856 4.57866 4.59096 
11 1 3.0721 3.07286 3.07953 
12 1 3.78262 3.77988 3.78923 
46 1 0.71916 0.726954 0.736704 
47 1 2.25987 2.26187 2.27096 
48 1 1.54958 1.55429 1.56369 
19 1 4.52458 4.53256 6.23256 
20 1 2.98963 2.99011 7.78046 
21 1 3.69409 3.69804 7.07005 
31 1 0.660911 0.663416 10.102 
32 1 2.17416 2.17625 8.58877 
33 1 1.46586 1.46825 9.29703 
16 1 4.53125 6.2372 4.52546 
17 1 2.98668 7.78805 2.99465 
18 1 3.69517 7.07669 3.6968 
25 1 0.66037 10.1201 0.673109 
26 1 2.17044 8.60071 2.18313 
27 1 1.46381 9.31176 1.47652 
4 1 4.44384 6.14887 6.11772 
5 1 3.08084 7.70778 7.70216 
6 1 3.72316 6.973 6.95534 
37 1 0.736838 10.0581 10.0406 
38 1 2.25938 8.50969 8.50316 
39 1 1.55711 9.22387 9.21222 
13 1 6.24184 4.53334 4.54408 
14 1 7.78273 2.99412 3.00086 
15 1 7.07536 3.70072 3.70931 
28 1 10.1179 0.668486 0.679034 
29 1 8.5967 2.17891 2.18854 
30 1 9.30836 1.47234 1.48238 
1 1 6.16171 4.48797 6.14767 
2 1 7.71063 3.07633 7.70558 
3 1 6.98139 3.74111 6.97197 
40 1 10.06 0.740947 10.0447 
41 1 8.51285 2.25703 8.50248 
42 1 9.2271 1.55717 9.21439 
7 1 6.16921 6.16828 4.52402 
8 1 7.71478 7.71098 3.07577 
9 1 6.98875 6.98638 3.75602 
43 1 10.0597 10.0618 0.751655 
44 1 8.51522 8.51276 2.26318 
45 1 9.22829 9.22803 1.56524 
22 1 6.23199 6.24272 6.30096 
23 1 7.83067 7.8211 7.77174 
24 1 7.17941 7.14847 6.98929 
34 1 10.1429 10.1388 10.1213 
35 1 8.6242 8.62318 8.62634 
36 1 9.33566 9.33302 9.32664 
49 2 5.74719 6.02976 7.34431 
ITEM: TIMESTEP
110
ITEM: NUMBER OF ATOMS
49
ITEM: BOX BOUNDS pp pp pp
-2.5809073843512994e-02 1.1025809073843536e+01
-2.0216599261920057e-02 1.1022216599261920e+01
-1.2145306976771877e-04 1.1000121453069770e+01
ITEM: ATOMS id type x y z 
10 1 4.58554 4.57881 4.59203 
11 1 3.07009 3.0713 3.08021 
12 1 3.78086 3.77834 3.78927 
46 1 0.714058 0.722709 0.736895 
47 1 2.25622 2.25881 2.27086 
48 1 1.54587 1.55124 1.56427 
19 1 4.52409 4.53231 6.23152 
20 1 2.98807 2.989 7.77934 
21 1 3.69257 3.69681 7.06952 
31 1 0.655634 0.65899 10.1021 
32 1 2.17089 2.17359 8.58843 
33 1 1.46248 1.46553 9.29609 
16 1 4.53071 6.23697 4.52623 
17 1 2.98516 7.78904 2.99579 
18 1 3.6936 7.0776 3.69727 
25 1 0.655119 10.1245 0.673165 
26 1 2.16721 8.60323 2.18354 
27 1 1.46039 9.31427 1.47753 
4 1 4.44306 6.14819 6.11651 
5 1 3.07871 7.70926 7.70153 
6 1 3.72101 6.97421 6.95528 
37 1 0.73174 10.0623 10.0405 
38 1 2.25578 8.51271 8.5034 
39 1 1.55336 9.22683 9.21176 
13 1 6.24169 4.53304 4.54478 
14 1 7.78413 2.99303 3.00206 
15 1 7.07651 3.69951 3.70977 
28 1 10.1231 0.664088 0.679092 
29 1 8.59975 2.17628 2.18894 
30 1 9.31154 1.46963 1.48341 
1 1 6.16128 4.48734 6.14638 
2 1 7.71255 3.07473 7.70498 
3 1 6.98278 3.73919 6.97192 
40 1 10.065 0.736675 10.0447 
41 1 8.51639 2.25396 8.50272 
42 1 9.23069 1.55409 9.21395 
7 1 6.16882 6.16789 4.52436 
8 1 7.71663 7.71249 3.07636 
9 1 6.99041 6.98767 3.75585 
43 1 10.0647 10.0661 0.751791 
44 1 8.51875 8.51578 2.26305 
45 1 9.23195 9.231 1.56582 
22 1 6.23255 6.24305 6.30089 
23 1 7.83281 7.82271 7.77071 
24 1 7.18105 7.14982 6.98932 
34 1 10.148 10.1431 10.1213 
35 1 8.62734 8.62572 8.62607 
36 1 9.33888 9.33573 9.32573 
49 2 5.74726 6.03011 7.34391 
ITEM: TIMESTEP
120
ITEM: NUMBER OF ATOMS
49
ITEM: BOX BOUNDS pp pp pp
-3.0626669880919843e-02 1.1030626669880949e+01
-2.4332105945378019e-02 1.1026332105945379e+01
6.4305872212535014e-04 1.0999356941277879e+01
ITEM: ATOMS id type x y z 
10 1 4.58553 4.57892 4.59302 
11 1 3.06822 3.0697 3.08077 
12 1 3.77911 3.7768 3.78927 
46 1 0.709126 0.718409 0.736869 
47 1 2.2527 2.25571 2.27061 
48 1 1.5423 1.54817 1.56472 
19 1 4.52367 4.53204 6.23048 
20 1 2.98664 2.98789 7.77835 
21 1 3.69104 3.69555 7.06899 
31 1 0.650569 0.654543 10.1024 
32 1 2.16777 2.1709 8.58822 
33 1 1.45926 1.46279 9.2953 
16 1 4.53019 6.23668 4.52694 
17 1 2.98375 7.79001 2.99683 
18 1 3.69211 7.07854 3.69768 
25 1 0.650061 10.1288 0.673028 
26 1 2.1641 8.60574 2.18379 
27 1 1.45719 9.31687 1.47841 
4 1 4.44231 6.14748 6.11537 
5 1 3.07662 7.71073 7.701 
6 1 3.71892 6.9755 6.95527 
37 1 0.726779 10.0665 10.0407 
38 1 2.25227 8.51577 8.50378 
39 1 1.54983 9.22983 9.21147 
13 1 6.24143 4.53272 4.54542 
14 1 7.7854 2.99194 3.00316 
15 1 7.07762 3.69829 3.71019 
28 1 10.128 0.659651 0.678967 
29 1 8.60264 2.17359 2.18918 
30 1 9.31462 1.46694 1.48428 
1 1 6.16074 4.48664 6.14516 
2 1 7.71429 3.07305 7.70454 
3 1 6.98431 3.7373 6.97182 
40 1 10.0699 0.732331 10.0449 
41 1 8.51982 2.25085 8.50312 
42 1 9.23419 1.55102 9.21364 
7 1 6.16848 6.16749 4.52466 
8 1 7.71847 7.71399 3.07683 
9 1 6.99191 6.98907 3.75551 
43 1 10.0696 10.0704 0.75172 
44 1 8.52219 8.51885 2.26277 
45 1 9.23545 9.23402 1.56623 
22 1 6.23311 6.24341 6.30093 
23 1 7.83487 7.82434 7.76971 
24 1 7.18257 7.15115 6.98942 
34 1 10.153 10.1474 10.1215 
35 1 8.63033 8.62834 8.62594 
36 1 9.34205 9.33839 9.32502 
49 2 5.7473 6.03047 7.34355 
ITEM: TIMESTEP
130
ITEM: NUMBER OF ATOMS
49
ITEM: BOX BOUNDS pp pp pp
-3.4738972875724541e-02 1.1034738972875758e+01
-2.7973709556875080e-02 1.1029973709556877e+01
1.4715436224583694e-03 1.0998528456377544e+01
ITEM: ATOMS id type x y z 
10 1 4.58558 4.57907 4.59395 
11 1 3.06666 3.06832 3.08135 
12 1 3.77757 3.77541 3.7893 
46 1 0.704814 0.714516 0.736919 
47 1 2.24961 2.25289 2.27041 
48 1 1.53923 1.54546 1.56523 
19 1 4.52335 4.53183 6.2294 
20 1 2.98551 2.98697 7.77735 
21 1 3.68976 3.69442 7.06848 
31 1 0.646174 0.650558 10.1025 
32 1 2.16508 2.1685 8.58798 
33 1 1.45656 1.46039 9.29447 
16 1 4.52977 6.2363 4.52766 
17 1 2.98268 7.79082 2.9979 
18 1 3.69083 7.07928 3.6981 
25 1 0.645689 10.1328 0.673011 
26 1 2.16144 8.60799 2.18409 
27 1 1.45446 9.31912 1.47934 
4 1 4.44171 6.14675 6.11428 
5 1 3.07481 7.71204 7.70044 
6 1 3.71701 6.97662 6.95526 
37 1 0.722433 10.0704 10.0408 
38 1 2.24922 8.51857 8.50414 
39 1 1.54678 9.23253 9.21113 
13 1 6.24104 4.53246 4.54607 
14 1 7.7864 2.99107 3.0043 
15 1 7.07847 3.69722 3.7106 
28 1 10.1324 0.6557 0.678964 
29 1 8.60514 2.17122 2.18948 
30 1 9.3172 1.46457 1.48521 
1 1 6.16018 4.486 6.14391 
2 1 7.71579 3.07153 7.70403 
3 1 6.98556 3.73556 6.97181 
40 1 10.0742 0.728397 10.045 
41 1 8.52286 2.24804 8.50348 
42 1 9.23721 1.54829 9.2133 
7 1 6.16806 6.1671 4.52495 
8 1 7.72004 7.71535 3.07727 
9 1 6.9933 6.99035 3.75518 
43 1 10.0739 10.0743 0.751729 
44 1 8.52524 8.52164 2.26254 
45 1 9.23848 9.23673 1.56669 
22 1 6.23363 6.24373 6.30105 
23 1 7.83665 7.82577 7.76861 
24 1 7.18384 7.1523 6.98952 
34 1 10.1573 10.1513 10.1216 
35 1 8.63292 8.63071 8.62577 
36 1 9.34474 9.34072 9.32428 
49 2 5.74729 6.03079 7.34312 
ITEM: TIMESTEP
140
ITEM: NUMBER OF ATOMS
49
ITEM: BOX BOUNDS pp pp pp
-3.8365834477795471e-02 1.1038365834477831e+01
-3.1479126874394463e-02 1.1033479126874397e+01
1.5333756281556430e-03 1.0998466624371844e+01
ITEM: ATOMS id type x y z 
10 1 4.58557 4.57914 4.59459 
11 1 3.06526 3.06699 3.08155 
12 1 3.77625 3.77405 3.78913 
46 1 0.701005 0.710826 0.7364 
47 1 2.24691 2.25026 2.26985 
48 1 1.53652 1.54286 1.56521 
19 1 4.52308 4.53157 6.22848 
20 1 2.98449 2.98601 7.77674 
21 1 3.68861 3.69333 7.06823 
31 1 0.642334 0.646812 10.1031 
32 1 2.16271 2.16619 8.58811 
33 1 1.45418 1.45811 9.29425 
16 1 4.52937 6.23595 4.52816 
17 1 2.98173 7.79163 2.99854 
18 1 3.68972 7.08 3.69825 
25 1 0.641847 10.1364 0.672475 
26 1 2.15907 8.6101 2.18397 
27 1 1.45214 9.32137 1.47967 
4 1 4.44119 6.14618 6.11344 
5 1 3.07319 7.71333 7.70022 
6 1 3.71526 6.97767 6.95542 
37 1 0.718603 10.074 10.0415 
38 1 2.24655 8.52121 8.50482 
39 1 1.54407 9.23509 9.21127 
13 1 6.24065 4.53216 4.54652 
14 1 7.78729 2.9902 3.00501 
15 1 7.07918 3.69615 3.71076 
28 1 10.1362 0.651969 0.678458 
29 1 8.60733 2.16891 2.18937 
30 1 9.3195 1.46236 1.48551 
1 1 6.15968 4.48535 6.14295 
2 1 7.71709 3.07004 7.70389 
3 1 6.98671 3.73388 6.9719 
40 1 10.078 0.724675 10.0456 
41 1 8.52555 2.24541 8.50416 
42 1 9.23988 1.54566 9.21346 
7 1 6.16774 6.16683 4.52507 
8 1 7.72148 7.71668 3.07732 
9 1 6.99452 6.99161 3.75464 
43 1 10.0777 10.078 0.751185 
44 1 8.52794 8.52428 2.26195 
45 1 9.24117 9.23932 1.56662 
22 1 6.23413 6.24407 6.30132 
23 1 7.83824 7.82715 7.76785 
24 1 7.18491 7.15337 6.98981 
34 1 10.1611 10.1549 10.1222 
35 1 8.63524 8.63292 8.62602 
36 1 9.34708 9.34308 9.32406 
49 2 5.74725 6.03111 7.34293 
ITEM: TIMESTEP
150
ITEM: NUMBER OF ATOMS
49
ITEM: BOX BOUNDS pp pp pp
-4.1054910180465962e-02 1.1041054910180502e+01
-3.4179432436826349e-02 1.1036179432436828e+01
2.1985217376767783e-03 1.0997801478262319e+01
ITEM: ATOMS id type x y z 
10 1 4.58574 4.57928 4.59534 
11 1 3.06433 3.06595 3.08207 
12 1 3.77514 3.77306 3.78906 
46 1 0.697945 0.707785 0.736387 
47 1 2.24471 2.24807 2.26961 
48 1 1.53449 1.54082 1.56562 
19 1 4.52301 4.53147 6.22737 
20 1 2.98393 2.98544 7.77587 
21 1 3.68776 3.69249 7.06778 
31 1 0.639336 0.643788 10.1033 
32 1 2.16092 2.16439 8.58795 
33 1 1.45247 1.45638 9.29352 
16 1 4.52912 6.23537 4.5288 
17 1 2.98127 7.79208 2.9995 
18 1 3.68892 7.08042 3.69861 
25 1 0.638878 10.1395 0.67248 
26 1 2.15731 8.6118 2.18419 
27 1 1.45042 9.32298 1.4805 
4 1 4.44078 6.14541 6.1125 
5 1 3.07187 7.71424 7.69974 
6 1 3.71384 6.9786 6.95543 
37 1 0.715518 10.0771 10.0417 
38 1 2.24441 8.52346 8.50525 
39 1 1.54203 9.23717 9.21102 
13 1 6.23998 4.532 4.54711 
14 1 7.78774 2.98974 3.00605 
15 1 7.07957 3.69538 3.71113 
28 1 10.1392 0.649022 0.678456 
29 1 8.60901 2.16717 2.18956 
30 1 9.3211 1.4606 1.48639 
1 1 6.15905 4.48486 6.1419 
2 1 7.71803 3.06893 7.70354 
3 1 6.98757 3.73228 6.97177 
40 1 10.0811 0.7216 10.0459 
41 1 8.52778 2.24325 8.5046 
42 1 9.24194 1.54357 9.2132 
7 1 6.16725 6.16648 4.52526 
8 1 7.72254 7.71774 3.07754 
9 1 6.99559 6.99268 3.75423 
43 1 10.0808 10.0811 0.751152 
44 1 8.53019 8.52653 2.26169 
45 1 9.24325 9.24142 1.56695 
22 1 6.23455 6.24429 6.30161 