ITEM: TIMESTEP
0
ITEM: NUMBER OF ATOMS
58
ITEM: BOX BOUNDS pp pp pp
0.0000000000000000e+00 3.2808000000000000e+01
0.0000000000000000e+00 1.7780000000000001e+01
0.0000000000000000e+00 2.4729999999999999e+00
ITEM: ATOMS id type x y z 
13 1 7.043 0.849 2.464 
29 1 7.397 1.432 1.228 
37 1 8.035 2.733 1.228 
1 1 6.173 17.398 2.464 
5 1 5.371 17.398 1.228 
9 1 3.973 17.398 1.228 
16 1 7.043 16.167 2.464 
32 1 7.397 15.584 1.228 
40 1 8.035 14.283 1.228 
45 1 3.236 17.398 2.464 
49 1 1.81 17.398 2.464 
53 1 1.083 17.398 1.228 
4 1 10.968 8.508 2.464 
8 1 11.771 8.508 1.228 
12 1 13.168 8.508 1.228 
18 1 10.098 7.277 2.464 
21 1 8.308 3.392 2.464 
26 1 8.833 4.734 2.464 
34 1 9.745 6.694 1.228 
42 1 9.106 5.393 1.228 
48 1 13.906 8.508 2.464 
52 1 15.331 8.508 2.464 
56 1 16.058 8.508 1.228 
57 2 8.915 2.169 0.003 
58 3 9.891 2.169 0.003 
19 1 10.098 9.739 2.464 
24 1 8.308 13.624 2.464 
27 1 8.833 12.282 2.464 
35 1 9.745 10.322 1.228 
43 1 9.106 11.623 1.228 
3 1 22.577 8.508 2.464 
7 1 21.775 8.508 1.228 
11 1 20.377 8.508 1.228 
20 1 23.447 7.277 2.464 
36 1 23.801 6.694 1.228 
44 1 24.439 5.393 1.228 
47 1 19.64 8.508 2.464 
51 1 18.214 8.508 2.464 
55 1 17.487 8.508 1.228 
17 1 23.447 9.739 2.464 
33 1 23.801 10.322 1.228 
41 1 24.439 11.623 1.228 
15 1 26.502 0.849 2.464 
23 1 25.237 3.392 2.464 
28 1 24.712 4.734 2.464 
31 1 26.149 1.432 1.228 
39 1 25.511 2.733 1.228 
2 1 27.373 17.398 2.464 
6 1 28.175 17.398 1.228 
10 1 29.572 17.398 1.228 
14 1 26.502 16.167 2.464 
22 1 25.237 13.624 2.464 
25 1 24.712 12.282 2.464 
30 1 26.149 15.584 1.228 
38 1 25.511 14.283 1.228 
46 1 30.31 17.398 2.464 
50 1 31.735 17.398 2.464 
54 1 32.462 17.398 1.228 
ITEM: TIMESTEP
10
ITEM: NUMBER OF ATOMS
58
ITEM: BOX BOUNDS pp pp pp
0.0000000000000000e+00 3.2808000000000000e+01
0.0000000000000000e+00 1.7780000000000001e+01
0.0000000000000000e+00 2.4729999999999999e+00
ITEM: ATOMS id type x y z 
13 1 7.10597 0.852728 2.46559 
29 1 7.41735 1.48277 1.22948 
37 1 7.75436 2.89798 1.29688 
1 1 6.18169 17.4592 2.46434 
5 1 5.39033 17.4246 1.22759 
9 1 4.01286 17.3968 1.2277 
16 1 7.09116 16.2179 2.46432 
32 1 7.43934 15.5962 1.22776 
40 1 8.0577 14.3272 1.2277 
45 1 3.24101 17.3973 2.46432 
49 1 1.80938 17.3979 2.46431 
53 1 1.09571 17.398 1.22769 
4 1 10.9849 8.49591 2.46425 
8 1 11.7846 8.49998 1.22761 
12 1 13.1842 8.5081 1.2277 
18 1 10.0432 7.29209 2.46435 
21 1 7.98317 3.49101 2.53732 
26 1 8.80345 4.69079 2.46825 
34 1 9.69408 6.68514 1.22782 
42 1 9.08278 5.3924 1.22958 
48 1 13.9101 8.50822 2.46432 
52 1 15.3047 8.50804 2.46431 
56 1 16.0371 8.508 1.22768 
57 2 9.27289 1.89159 -0.15579 
58 3 10.1348 2.05416 0.0105873 
19 1 10.0442 9.70579 2.46432 
24 1 8.31356 13.6479 2.46427 
27 1 8.8257 12.2617 2.46427 
35 1 9.68878 10.3328 1.22777 
43 1 9.08204 11.5798 1.2277 
3 1 22.551 8.508 2.46425 
7 1 21.7537 8.508 1.22762 
11 1 20.3565 8.508 1.2277 
20 1 23.4991 7.30322 2.46432 
36 1 23.8583 6.68205 1.22777 
44 1 24.463 5.43684 1.2277 
47 1 19.6416 8.508 2.46432 
51 1 18.242 8.508 2.46431 
55 1 17.503 8.508 1.22768 
17 1 23.4991 9.71278 2.46432 
33 1 23.8583 10.3339 1.22777 
41 1 24.463 11.5792 1.2277 
15 1 26.4448 0.827139 2.46432 
23 1 25.2316 3.36694 2.46427 
28 1 24.7175 4.75849 2.46427 
31 1 26.0911 1.44566 1.22776 
39 1 25.4861 2.69152 1.2277 
2 1 27.3749 17.398 2.46424 
6 1 28.2038 17.398 1.22764 
10 1 29.6188 17.398 1.2277 
14 1 26.4448 16.1889 2.46432 
22 1 25.2316 13.6491 2.46427 
25 1 24.7175 12.2575 2.46427 
30 1 26.0911 15.5703 1.22776 
38 1 25.4861 14.3245 1.2277 
46 1 30.3107 17.398 2.46432 
50 1 31.7111 17.398 2.46431 
54 1 32.456 17.398 1.22768 
ITEM: TIMESTEP
20
ITEM: NUMBER OF ATOMS
58
ITEM: BOX BOUNDS pp pp pp
0.0000000000000000e+00 3.2808000000000000e+01
0.0000000000000000e+00 1.7780000000000001e+01
0.0000000000000000e+00 2.4729999999999999e+00
ITEM: ATOMS id type x y z 
13 1 7.15773 0.835829 2.47021 
29 1 7.43808 1.51853 1.23584 
37 1 7.70533 2.86284 1.28331 
1 1 6.23546 17.4318 2.46426 
5 1 5.37605 17.4367 1.22821 
9 1 3.9868 17.3938 1.22783 
16 1 7.12801 16.1961 2.46416 
32 1 7.47638 15.5701 1.2278 
40 1 8.06703 14.336 1.22779 
45 1 3.22673 17.3942 2.46417 
49 1 1.77301 17.3976 2.46417 
53 1 1.0946 17.3981 1.22783 
4 1 10.9682 8.5029 2.46413 
8 1 11.7689 8.50011 1.22782 
12 1 13.2014 8.50818 1.22783 
18 1 10.0325 7.29447 2.46455 
21 1 7.93961 3.53535 2.52149 
26 1 8.81664 4.73158 2.4722 
34 1 9.67766 6.68095 1.22819 
42 1 9.09152 5.40374 1.2351 
48 1 13.9292 8.50892 2.46417 
52 1 15.2931 8.5082 2.46416 
56 1 16.0478 8.50797 1.22784 
57 2 9.28019 1.86071 -0.157364 
58 3 10.1855 2.04864 0.0200712 
19 1 10.0277 9.72083 2.46423 
24 1 8.31951 13.6557 2.46419 
27 1 8.81753 12.2592 2.46419 
35 1 9.66957 10.3239 1.22781 
43 1 9.06744 11.5791 1.22779 
3 1 22.5726 8.508 2.46414 
7 1 21.7711 8.508 1.22781 
11 1 20.3394 8.508 1.22783 
20 1 23.5136 7.29132 2.46423 
36 1 23.8762 6.69354 1.22781 
44 1 24.4764 5.44382 1.22779 
47 1 19.6153 8.508 2.46417 
51 1 18.2527 8.508 2.46416 
55 1 17.4973 8.50799 1.22784 
17 1 23.5136 9.72468 2.46423 
33 1 23.8762 10.3225 1.22781 
41 1 24.4764 11.5722 1.22779 
15 1 26.4401 0.828708 2.46423 
23 1 25.2225 3.36609 2.46419 
28 1 24.7271 4.75805 2.46419 
31 1 26.0735 1.43369 1.22781 
39 1 25.4733 2.68325 1.22779 
2 1 27.3774 17.398 2.46415 
6 1 28.1799 17.398 1.2278 
10 1 29.6048 17.398 1.22783 
14 1 26.4401 16.1873 2.46423 
22 1 25.2225 13.6499 2.46419 
25 1 24.7271 12.2579 2.46419 
30 1 26.0735 15.5823 1.22781 
38 1 25.4733 14.3327 1.22779 
46 1 30.322 17.398 2.46418 
50 1 31.6927 17.398 2.46416 
54 1 32.4471 17.398 1.22784 
ITEM: TIMESTEP
30
ITEM: NUMBER OF ATOMS
58
ITEM: BOX BOUNDS pp pp pp
0.0000000000000000e+00 3.2808000000000000e+01
0.0000000000000000e+00 1.7780000000000001e+01
0.0000000000000000e+00 2.4729999999999999e+00
ITEM: ATOMS id type x y z 
13 1 7.18397 0.821656 2.47475 
29 1 7.43208 1.50073 1.23813 
37 1 7.68545 2.86978 1.27469 
1 1 6.2227 17.4309 2.465 
5 1 5.38856 17.4413 1.22858 
9 1 4.00487 17.3957 1.22776 
16 1 7.13001 16.2006 2.46413 
32 1 7.48926 15.5863 1.22767 
40 1 8.082 14.3367 1.22773 
45 1 3.25153 17.3904 2.46431 
49 1 1.80003 17.3968 2.46427 
53 1 1.08932 17.3984 1.22773 
4 1 10.9568 8.50455 2.46429 
8 1 11.7483 8.50109 1.22776 
12 1 13.1817 8.50834 1.22773 
18 1 10.0224 7.29458 2.4653 
21 1 7.90914 3.56764 2.51234 
26 1 8.80248 4.74067 2.47475 
34 1 9.66915 6.67929 1.22893 
42 1 9.10086 5.4081 1.23737 
48 1 13.9496 8.50945 2.46427 
52 1 15.3023 8.50842 2.46427 
56 1 16.0355 8.50791 1.22773 
57 2 9.31043 1.84646 -0.155984 
58 3 10.1944 2.03925 0.0222256 
19 1 10.0248 9.71544 2.46426 
24 1 8.32815 13.6555 2.46425 
27 1 8.81051 12.255 2.46426 
35 1 9.65151 10.3186 1.22775 
43 1 9.05314 11.5725 1.22773 
3 1 22.5809 8.508 2.46425 
7 1 21.7846 8.508 1.22771 
11 1 20.3555 8.508 1.22773 
20 1 23.5163 7.29867 2.46427 
36 1 23.8946 6.69874 1.22776 
44 1 24.4935 5.44681 1.22773 
47 1 19.6016 8.508 2.46427 
51 1 18.2434 8.508 2.46427 
55 1 17.511 8.50796 1.22773 
17 1 23.5163 9.71733 2.46427 
33 1 23.8946 10.3173 1.22776 
41 1 24.4935 11.5692 1.22773 
15 1 26.4335 0.827634 2.46427 
23 1 25.2148 3.36218 2.46426 
28 1 24.7342 4.76334 2.46426 
31 1 26.0563 1.42637 1.22776 
39 1 25.4568 2.6791 1.22773 
2 1 27.3692 17.398 2.46425 
6 1 28.1759 17.398 1.22771 
10 1 29.5972 17.398 1.22773 
14 1 26.4335 16.1884 2.46427 
22 1 25.2148 13.6538 2.46426 
25 1 24.7342 12.2527 2.46426 
30 1 26.0563 15.5896 1.22776 
38 1 25.4568 14.3369 1.22773 
46 1 30.3244 17.398 2.46427 
50 1 31.6884 17.398 2.46427 
54 1 32.434 17.3982 1.22773 
ITEM: TIMESTEP
40
ITEM: NUMBER OF ATOMS
58
ITEM: BOX BOUNDS pp pp pp
0.0000000000000000e+00 3.2808000000000000e+01
0.0000000000000000e+00 1.7780000000000001e+01
0.0000000000000000e+00 2.4729999999999999e+00
ITEM: ATOMS id type x y z 
13 1 7.28569 0.787272 2.48172 
29 1 7.43959 1.49354 1.24614 
37 1 7.61354 2.89103 1.25189 
1 1 6.2569 17.4578 2.46795 
5 1 5.44573 17.4765 1.23133 
9 1 4.02044 17.4 1.22816 
16 1 7.14402 16.1934 2.46387 
32 1 7.54807 15.6222 1.22738 
40 1 8.1439 14.355 1.22772 
45 1 3.26394 17.3734 2.46451 
49 1 1.81792 17.3918 2.46422 
53 1 1.0826 17.3999 1.22782 
4 1 10.935 8.49937 2.46462 
8 1 11.7302 8.49977 1.22829 
12 1 13.1522 8.50937 1.22782 
18 1 9.98144 7.29891 2.46872 
21 1 7.83118 3.60076 2.48723 
26 1 8.74206 4.75788 2.47905 
34 1 9.65153 6.67674 1.23255 
42 1 9.11623 5.39012 1.2422 
48 1 13.9236 8.51118 2.46421 
52 1 15.2903 8.50933 2.46419 
56 1 16.0376 8.50756 1.22781 
57 2 9.34714 1.83055 -0.161485 
58 3 10.2313 2.03007 0.0380321 
19 1 9.99056 9.71464 2.46416 
24 1 8.36349 13.6577 2.46417 
27 1 8.7793 12.2381 2.46421 
35 1 9.59073 10.2826 1.22772 
43 1 8.98947 11.5445 1.22778 
3 1 22.5967 8.508 2.4642 
7 1 21.7995 8.508 1.22781 
11 1 20.4007 8.508 1.2278 
20 1 23.5551 7.29625 2.46422 
36 1 23.9583 6.73144 1.22777 
44 1 24.564 5.466 1.22779 
47 1 19.6097 8.50803 2.46419 
51 1 18.2394 8.508 2.46419 
55 1 17.4961 8.50771 1.22781 
17 1 23.5551 9.71975 2.46422 
33 1 23.9583 10.2846 1.22777 
41 1 24.564 11.55 1.22779 
15 1 26.4049 0.824795 2.46422 
23 1 25.1786 3.35249 2.46422 
28 1 24.771 4.77107 2.46422 
31 1 25.9903 1.39992 1.22777 
39 1 25.3891 2.65317 1.22779 
2 1 27.3536 17.398 2.46421 
6 1 28.1409 17.398 1.22781 
10 1 29.5736 17.398 1.2278 
14 1 26.4049 16.1912 2.46422 
22 1 25.1786 13.6635 2.46422 
25 1 24.771 12.2449 2.46422 
30 1 25.9903 15.6161 1.22777 
38 1 25.3891 14.3628 1.22779 
46 1 30.3179 17.3979 2.46419 
50 1 31.6917 17.398 2.46419 
54 1 32.4887 17.3994 1.22781 
ITEM: TIMESTEP
50
ITEM: NUMBER OF ATOMS
58
ITEM: BOX BOUNDS pp pp pp
0.0000000000000000e+00 3.2808000000000000e+01
0.0000000000000000e+00 1.7780000000000001e+01
0.0000000000000000e+00 2.4729999999999999e+00
ITEM: ATOMS id type x y z 
13 1 7.28528 0.77654 2.48156 
29 1 7.44621 1.48723 1.24507 
37 1 7.60016 2.89718 1.25035 
1 1 6.25859 17.4568 2.46834 
5 1 5.42573 17.4842 1.23161 
9 1 4.0414 17.401 1.22824 
16 1 7.13694 16.2023 2.46396 
32 1 7.55187 15.6272 1.22743 
40 1 8.15688 14.3584 1.22766 
45 1 3.28898 17.3723 2.46478 
49 1 1.83939 17.3897 2.4643 
53 1 1.11741 17.4001 1.22777 
4 1 10.9295 8.50033 2.4649 
8 1 11.7261 8.49825 1.22841 
12 1 13.1522 8.50977 1.22777 
18 1 9.97964 7.30265 2.46926 
21 1 7.81874 3.60176 2.48732 
26 1 8.7285 4.75003 2.47878 
34 1 9.65215 6.67423 1.23301 
42 1 9.11247 5.38272 1.24183 
48 1 13.9211 8.5116 2.46429 
52 1 15.2958 8.50947 2.46427 
56 1 16.0316 8.50751 1.22774 
57 2 9.3535 1.83046 -0.163044 
58 3 10.233 2.02867 0.0403788 
19 1 9.99066 9.7077 2.46418 
24 1 8.36914 13.6641 2.46419 
27 1 8.77002 12.2413 2.46425 
35 1 9.57699 10.2837 1.22768 
43 1 8.97404 11.5431 1.22773 
3 1 22.6078 8.508 2.46427 
7 1 21.8126 8.508 1.22774 
11 1 20.3849 8.50801 1.22774 
20 1 23.553 7.30591 2.46425 
36 1 23.9706 6.73229 1.22774 
44 1 24.5776 5.47294 1.22774 
47 1 19.6193 8.50805 2.46426 
51 1 18.2346 8.50798 2.46426 
55 1 17.5009 8.50761 1.22774 
17 1 23.553 9.71009 2.46425 
33 1 23.9706 10.2837 1.22774 
41 1 24.5776 11.5431 1.22774 
15 1 26.3982 0.825154 2.46425 
23 1 25.1705 3.34879 2.46426 
28 1 24.7789 4.77461 2.46426 
31 1 25.9793 1.39608 1.22774 
39 1 25.3737 2.65034 1.22774 
2 1 27.3395 17.398 2.46427 
6 1 28.1417 17.398 1.22774 
10 1 29.5594 17.398 1.22773 
14 1 26.3982 16.1908 2.46425 
22 1 25.1705 13.6672 2.46426 
25 1 24.7789 12.2414 2.46426 
30 1 25.9793 15.6199 1.22774 
38 1 25.3737 14.3657 1.22774 
46 1 30.3315 17.3978 2.46426 
50 1 31.722 17.3981 2.46426 
54 1 32.4554 17.4001 1.22774 
ITEM: TIMESTEP
60
ITEM: NUMBER OF ATOMS
58
ITEM: BOX BOUNDS pp pp pp
0.0000000000000000e+00 3.2808000000000000e+01
0.0000000000000000e+00 1.7780000000000001e+01
0.0000000000000000e+00 2.4729999999999999e+00
ITEM: ATOMS id type x y z 
13 1 7.31223 0.767294 2.48062 
29 1 7.46157 1.48547 1.24373 
37 1 7.56928 2.90381 1.24871 
1 1 6.27544 17.4601 2.46886 
5 1 5.44229 17.507 1.23224 
9 1 4.05749 17.4023 1.22855 
16 1 7.1348 16.1942 2.46412 
32 1 7.567 15.6294 1.22754 
40 1 8.18362 14.3675 1.22764 
45 1 3.302 17.3639 2.4651 
49 1 1.84864 17.3854 2.46433 
53 1 1.12071 17.401 1.22783 
4 1 10.9222 8.50264 2.46529 
8 1 11.7215 8.49652 1.2288 
12 1 13.1444 8.51023 1.22782 
18 1 9.97488 7.30409 2.47005 
21 1 7.78894 3.61166 2.48619 
26 1 8.70901 4.74494 2.47826 
34 1 9.65542 6.67275 1.23378 
42 1 9.1079 5.37164 1.24135 
48 1 13.9142 8.51262 2.46432 
52 1 15.2971 8.50982 2.46426 
56 1 16.0332 8.50739 1.22775 
57 2 9.36251 1.82976 -0.167277 
58 3 10.2398 2.02688 0.0461607 
19 1 9.98253 9.70731 2.46418 
24 1 8.3848 13.6704 2.46416 
27 1 8.7524 12.2401 2.46423 
35 1 9.55683 10.2752 1.22767 
43 1 8.94443 11.5377 1.22772 
3 1 22.6136 8.508 2.46426 
7 1 21.8159 8.50799 1.22775 
11 1 20.3919 8.50802 1.22774 
20 1 23.5591 7.30857 2.46425 
36 1 23.9892 6.74351 1.22774 
44 1 24.6066 5.4823 1.22774 
47 1 19.6255 8.50811 2.46425 
51 1 18.2357 8.50794 2.46426 
55 1 17.5002 8.50738 1.22774 
17 1 23.5591 9.70743 2.46425 
33 1 23.9892 10.2725 1.22774 
41 1 24.6066 11.5337 1.22774 
15 1 26.3895 0.821896 2.46425 
23 1 25.1514 3.34686 2.46426 
28 1 24.7968 4.77964 2.46426 
31 1 25.9604 1.38483 1.22774 
39 1 25.3426 2.64361 1.22774 
2 1 27.3313 17.398 2.46426 
6 1 28.1434 17.398 1.22775 
10 1 29.5503 17.3979 1.22774 
14 1 26.3895 16.1941 2.46425 
22 1 25.1514 13.6691 2.46426 
25 1 24.7968 12.2364 2.46426 
30 1 25.9604 15.6312 1.22774 
38 1 25.3426 14.3724 1.22774 
46 1 30.3208 17.3975 2.46425 
50 1 31.7297 17.3983 2.46426 
54 1 32.4604 17.4017 1.22775 
ITEM: TIMESTEP
70
ITEM: NUMBER OF ATOMS
58
ITEM: BOX BOUNDS pp pp pp
0.0000000000000000e+00 3.2808000000000000e+01
0.0000000000000000e+00 1.7780000000000001e+01
0.0000000000000000e+00 2.4729999999999999e+00
ITEM: ATOMS id type x y z 
13 1 7.33289 0.752019 2.47961 
29 1 7.47702 1.46654 1.24292 
37 1 7.53558 2.91433 1.2479 
1 1 6.27341 17.4656 2.46921 
5 1 5.45174 17.5213 1.23243 
9 1 4.06176 17.4045 1.22887 
16 1 7.12969 16.192 2.46429 
32 1 7.57318 15.6386 1.22771 
40 1 8.20847 14.3775 1.22765 
45 1 3.30937 17.3583 2.46535 
49 1 1.86405 17.3808 2.46439 
53 1 1.12664 17.4009 1.22788 
4 1 10.9159 8.50833 2.46559 
8 1 11.7173 8.49753 1.22913 
12 1 13.1376 8.51044 1.22789 
18 1 9.97077 7.30588 2.47052 
21 1 7.76188 3.62738 2.48488 
26 1 8.68784 4.73499 2.47797 
34 1 9.65912 6.67405 1.23421 
42 1 9.10746 5.36053 1.24109 
48 1 13.9086 8.51365 2.46438 
52 1 15.2977 8.51021 2.46427 
56 1 16.0341 8.50724 1.22776 
57 2 9.37002 1.82959 -0.171574 
58 3 10.2452 2.02565 0.051684 
19 1 9.97352 9.70962 2.4642 
24 1 8.40187 13.6735 2.46416 
27 1 8.73547 12.2382 2.46422 
35 1 9.53924 10.2682 1.22769 
43 1 8.91774 11.5303 1.22771 
3 1 22.6203 8.508 2.46425 
7 1 21.8186 8.50799 1.22775 
11 1 20.4003 8.50805 1.22775 
20 1 23.5671 7.30739 2.46425 
36 1 24.0055 6.7525 1.22775 
44 1 24.6342 5.49042 1.22775 
47 1 19.63 8.50817 2.46425 
51 1 18.2346 8.50788 2.46425 
55 1 17.5001 8.50712 1.22775 
17 1 23.5671 9.70861 2.46425 
33 1 24.0055 10.2635 1.22775 
41 1 24.6342 11.5256 1.22775 
15 1 26.3833 0.818317 2.46425 
23 1 25.1332 3.34477 2.46425 
28 1 24.8148 4.78193 2.46425 
31 1 25.9455 1.37457 1.22775 
39 1 25.315 2.63574 1.22775 
2 1 27.3223 17.398 2.46425 
6 1 28.1529 17.3981 1.22775 
10 1 29.5479 17.3978 1.22775 
14 1 26.3833 16.1977 2.46425 
22 1 25.1332 13.6712 2.46425 
25 1 24.8148 12.2341 2.46425 
30 1 25.9455 15.6414 1.22775 
38 1 25.315 14.3803 1.22775 
46 1 30.2959 17.3971 2.46425 
50 1 31.7451 17.3988 2.46426 
54 1 32.4867 17.4034 1.22776 
ITEM: TIMESTEP
80
ITEM: NUMBER OF ATOMS
58
ITEM: BOX BOUNDS pp pp pp
0.0000000000000000e+00 3.2808000000000000e+01
0.0000000000000000e+00 1.7780000000000001e+01
0.0000000000000000e+00 2.4729999999999999e+00
ITEM: ATOMS id type x y z 
13 1 7.36527 0.754476 2.4768 
29 1 7.50665 1.4696 1.24032 
37 1 7.47706 2.91155 1.24604 
1 1 6.28549 17.5015 2.46965 
5 1 5.46598 17.5538 1.23271 
9 1 4.07369 17.4101 1.2296 
16 1 7.1131 16.2025 2.46478 
32 1 7.57258 15.6775 1.22819 
40 1 8.28237 14.3961 1.22772 
45 1 3.32235 17.3498 2.46598 
49 1 1.87962 17.3692 2.4646 
53 1 1.13825 17.3974 1.22807 
4 1 10.8783 8.49789 2.46639 
8 1 11.7118 8.50057 1.22981 
12 1 13.1015 8.5106 1.2281 
18 1 9.95953 7.28572 2.47125 
21 1 7.70899 3.62911 2.48161 
26 1 8.63982 4.72838 2.47739 
34 1 9.6589 6.64968 1.23511 
42 1 9.07899 5.3209 1.2406 
48 1 13.8671 8.51628 2.46458 
52 1 15.3032 8.5113 2.46429 
56 1 16.0334 8.50665 1.22781 
57 2 9.39124 1.83061 -0.182883 
58 3 10.258 2.02314 0.0671997 
19 1 9.94851 9.70722 2.46432 
24 1 8.4507 13.6719 2.46419 
27 1 8.685 12.2531 2.46419 
35 1 9.49801 10.2444 1.22779 
43 1 8.84064 11.5122 1.22771 
3 1 22.6443 8.50799 2.46425 
7 1 21.81 8.50797 1.22776 
11 1 20.4274 8.50815 1.22775 
20 1 23.5886 7.30563 2.46424 
36 1 24.0466 6.7781 1.22776 
44 1 24.7169 5.51132 1.22776 
47 1 19.6711 8.50841 2.46424 
51 1 18.2258 8.50768 2.46425 
55 1 17.5014 8.50625 1.22776 
17 1 23.5885 9.71036 2.46424 
33 1 24.0466 10.2379 1.22776 
41 1 24.7169 11.5047 1.22776 
15 1 26.377 0.808263 2.46424 
23 1 25.0819 3.34995 2.46424 
28 1 24.868 4.77024 2.46424 
31 1 25.919 1.33063 1.22776 
39 1 25.2325 2.6165 1.22776 
2 1 27.3398 17.3981 2.46424 
6 1 28.1621 17.3981 1.22776 
10 1 29.5636 17.3971 1.22776 
14 1 26.3771 16.2077 2.46424 
22 1 25.0819 13.666 2.46424 
25 1 24.8681 12.2458 2.46424 
30 1 25.919 15.6854 1.22776 
38 1 25.2325 14.3995 1.22776 
46 1 30.316 17.3966 2.46425 
50 1 31.7572 17.4012 2.46428 
54 1 32.5011 17.4073 1.2278 
ITEM: TIMESTEP
90
ITEM: NUMBER OF ATOMS
58
ITEM: BOX BOUNDS pp pp pp
0.0000000000000000e+00 3.2808000000000000e+01
0.0000000000000000e+00 1.7780000000000001e+01
0.0000000000000000e+00 2.4729999999999999e+00
ITEM: ATOMS id type x y z 
13 1 7.38824 0.739532 2.47521 
29 1 7.52027 1.46989 1.23848 
37 1 7.44913 2.9144 1.2447 
1 1 6.28732 17.494 2.4694 
5 1 5.47149 17.5691 1.23267 
9 1 4.07822 17.4125 1.2298 
16 1 7.11326 16.2005 2.46503 
32 1 7.5772 15.6708 1.22839 
40 1 8.30548 14.4162 1.22777 
45 1 3.32686 17.3459 2.46619 
49 1 1.88674 17.3636 2.46472 
53 1 1.14109 17.3947 1.22817 
4 1 10.8772 8.50047 2.46656 
8 1 11.7045 8.50092 1.22998 
12 1 13.0968 8.51144 1.22825 
18 1 9.9605 7.28048 2.47144 
21 1 7.6739 3.63525 2.48115 
26 1 8.61674 4.72312 2.4772 
34 1 9.66284 6.6467 1.23515 
42 1 9.07875 5.31482 1.24041 
48 1 13.8482 8.5171 2.46475 
52 1 15.299 8.51174 2.46433 
56 1 16.0408 8.50651 1.22782 
57 2 9.40128 1.83189 -0.187863 
58 3 10.2644 2.02299 0.0756145 
19 1 9.93692 9.69617 2.46444 
24 1 8.46745 13.6887 2.46425 
27 1 8.66707 12.2513 2.46421 
35 1 9.48187 10.2384 1.22788 
43 1 8.79519 11.5218 1.22772 
3 1 22.6488 8.50802 2.46425 
7 1 21.825 8.50797 1.22775 
11 1 20.4319 8.50825 1.22775 
20 1 23.5955 7.30922 2.46425 
36 1 24.0645 6.78042 1.22775 
44 1 24.7638 5.50198 1.22775 
47 1 19.6805 8.50855 2.46425 
51 1 18.2284 8.50753 2.46426 
55 1 17.4795 8.50572 1.22776 
17 1 23.5955 9.70682 2.46425 
33 1 24.0644 10.2356 1.22775 
41 1 24.7638 11.514 1.22775 
15 1 26.3775 0.804793 2.46425 
23 1 25.0645 3.33554 2.46425 
28 1 24.8889 4.76945 2.46425 
31 1 25.9076 1.33008 1.22775 
39 1 25.2023 2.60267 1.22775 
2 1 27.3404 17.398 2.46425 
6 1 28.1612 17.398 1.22775 
10 1 29.5593 17.3967 1.22775 
14 1 26.3776 16.2112 2.46425 
22 1 25.0645 13.6805 2.46425 
25 1 24.8889 12.2466 2.46425 
30 1 25.9077 15.6859 1.22775 
38 1 25.2023 14.4133 1.22775 
46 1 30.3149 17.3965 2.46426 
50 1 31.758 17.4029 2.46431 
54 1 32.5013 17.409 1.22782 
ITEM: TIMESTEP
100
ITEM: NUMBER OF ATOMS
58
ITEM: BOX BOUNDS pp pp pp
0.0000000000000000e+00 3.2808000000000000e+01
0.0000000000000000e+00 1.7780000000000001e+01
0.0000000000000000e+00 2.4729999999999999e+00
ITEM: ATOMS id type x y z 
13 1 7.3804 0.749173 2.47268 
29 1 7.52368 1.47025 1.23589 
37 1 7.43993 2.91428 1.24303 
1 1 6.29478 17.4916 2.469 
5 1 5.48015 17.5708 1.2323 
9 1 4.08369 17.419 1.23011 
16 1 7.12835 16.2015 2.46542 
32 1 7.57422 15.6606 1.22879 
40 1 8.32301 14.4103 1.2279 
45 1 3.32885 17.3504 2.46645 
49 1 1.88693 17.3568 2.46493 
53 1 1.13963 17.3864 1.22836 
4 1 10.8764 8.51089 2.46686 
8 1 11.6893 8.51048 1.23017 
12 1 13.1006 8.5127 1.2286 
18 1 9.98355 7.26214 2.4715 
21 1 7.65932 3.63721 2.47975 
26 1 8.59087 4.73859 2.47679 
34 1 9.67389 6.64023 1.23536 
42 1 9.04303 5.31989 1.24006 
48 1 13.8635 8.51611 2.46492 
52 1 15.2943 8.51182 2.4644 
56 1 16.0504 8.50762 1.22788 
57 2 9.41822 1.83444 -0.197677 
58 3 10.2743 2.02293 0.0910289 
19 1 9.90175 9.69255 2.46467 
24 1 8.49331 13.6852 2.46436 
27 1 8.64161 12.2507 2.46425 
35 1 9.47532 10.2376 1.22811 
43 1 8.78639 11.5151 1.22777 
3 1 22.6528 8.50798 2.46425 
7 1 21.8427 8.50802 1.22775 
11 1 20.4342 8.50847 1.22775 
20 1 23.6227 7.31847 2.46425 
36 1 24.061 6.776 1.22775 
44 1 24.7656 5.50658 1.22775 
47 1 19.6773 8.50851 2.46425 
51 1 18.2362 8.50684 2.46426 
55 1 17.4862 8.50554 1.22778 
17 1 23.6226 9.69754 2.46425 
33 1 24.0609 10.24 1.22775 
41 1 24.7656 11.5095 1.22775 
15 1 26.3623 0.803114 2.46425 
23 1 25.0406 3.33385 2.46425 
28 1 24.9145 4.77261 2.46425 
31 1 25.9081 1.33473 1.22775 
39 1 25.1892 2.6078 1.22775 
2 1 27.3354 17.3981 2.46425 
6 1 28.1495 17.3976 1.22776 
10 1 29.5558 17.3961 1.22777 
14 1 26.3624 16.2129 2.46425 
22 1 25.0406 13.6822 2.46425 
25 1 24.9144 12.2434 2.46425 
30 1 25.9082 15.6813 1.22775 
38 1 25.1893 14.4082 1.22775 
46 1 30.318 17.3973 2.46426 
50 1 31.7556 17.4064 2.46436 
54 1 32.5054 17.4094 1.22789 
ITEM: TIMESTEP
110
ITEM: NUMBER OF ATOMS
58
ITEM: BOX BOUNDS pp pp pp
0.0000000000000000e+00 3.2808000000000000e+01
0.0000000000000000e+00 1.7780000000000001e+01
0.0000000000000000e+00 2.4729999999999999e+00
ITEM: ATOMS id type x y z 
13 1 7.36583 0.749293 2.46902 
29 1 7.52637 1.46909 1.23239 
37 1 7.42828 2.92117 1.24066 
1 1 6.29341 17.4797 2.46822 
5 1 5.47753 17.5577 1.23168 
9 1 4.07936 17.4288 1.2304 
16 1 7.14416 16.2 2.46596 
32 1 7.57649 15.6497 1.22934 
40 1 8.34392 14.408 1.22813 
45 1 3.32334 17.3631 2.46682 
49 1 1.88158 17.3494 2.46527 
53 1 1.13569 17.3729 1.22868 
4 1 10.8734 8.51949 2.46716 
8 1 11.7045 8.53338 1.23061 
12 1 13.1002 8.5158 1.22891 
18 1 10.0279 7.24706 2.47171 
21 1 7.63118 3.63852 2.47727 
26 1 8.54567 4.76515 2.47609 
34 1 9.69271 6.63081 1.23545 
42 1 9.00276 5.35148 1.23936 
48 1 13.8552 8.51402 2.46542 
52 1 15.3024 8.51157 2.46454 
56 1 16.0461 8.50905 1.22799 
57 2 9.44647 1.83894 -0.215672 
58 3 10.2875 2.0226 0.117663 
19 1 9.8823 9.66312 2.46504 
24 1 8.51962 13.6883 2.46458 
27 1 8.61821 12.2412 2.46437 
35 1 9.45579 10.2307 1.22844 
43 1 8.76363 11.5147 1.22788 
3 1 22.6638 8.50798 2.46425 
7 1 21.8403 8.50816 1.22775 
11 1 20.443 8.50872 1.22775 
20 1 23.6363 7.32866 2.46425 
36 1 24.0715 6.77341 1.22775 
44 1 24.7844 5.49761 1.22775 
47 1 19.6817 8.50829 2.46426 
51 1 18.2381 8.50593 2.46429 
55 1 17.4931 8.50553 1.22779 
17 1 23.6363 9.68737 2.46425 
33 1 24.0715 10.2426 1.22775 
41 1 24.7843 11.5184 1.22775 
15 1 26.3554 0.795518 2.46425 
23 1 25.02 3.32474 2.46425 
28 1 24.9376 4.77394 2.46425 
31 1 25.9079 1.33759 1.22775 
39 1 25.1772 2.59977 1.22775 
2 1 27.3337 17.3981 2.46426 
6 1 28.1534 17.397 1.22775 
10 1 29.5534 17.3959 1.22778 
14 1 26.3553 16.2205 2.46425 
22 1 25.02 13.6912 2.46425 
25 1 24.9376 12.2421 2.46425 
30 1 25.9079 15.6784 1.22775 
38 1 25.1773 14.4162 1.22775 
46 1 30.3113 17.3995 2.46429 
50 1 31.7543 17.4105 2.46447 
54 1 32.4993 17.4077 1.228 
ITEM: TIMESTEP
120
ITEM: NUMBER OF ATOMS
58
ITEM: BOX BOUNDS pp pp pp
0.0000000000000000e+00 3.2808000000000000e+01
0.0000000000000000e+00 1.7780000000000001e+01
0.0000000000000000e+00 2.4729999999999999e+00
ITEM: ATOMS id type x y z 
13 1 7.353 0.752111 2.46914 
29 1 7.52021 1.46882 1.23301 
37 1 7.43647 2.92295 1.23954 
1 1 6.294 17.4692 2.46779 
5 1 5.4769 17.5403 1.23123 
9 1 4.0776 17.4324 1.23036 
16 1 7.1478 16.1935 2.46603 
32 1 7.58842 15.6479 1.22944 
40 1 8.34436 14.405 1.22828 
45 1 3.3209 17.3709 2.46677 
49 1 1.88044 17.3485 2.4654 
53 1 1.13274 17.368 1.22882 
4 1 10.8824 8.52237 2.46735 
8 1 11.7034 8.55123 1.23071 
12 1 13.1065 8.52065 1.22912 
18 1 10.0441 7.23795 2.47164 
21 1 7.62849 3.64269 2.47614 
26 1 8.52038 4.78583 2.47556 
34 1 9.70486 6.63138 1.23542 
42 1 8.98229 5.36841 1.2389 
48 1 13.8631 8.51247 2.46551 
52 1 15.3067 8.51033 2.46464 
56 1 16.0521 8.50898 1.2281 
57 2 9.45728 1.84082 -0.232678 
58 3 10.2896 2.02204 0.135781 
19 1 9.8758 9.66788 2.46519 
24 1 8.51438 13.6793 2.46474 
27 1 8.62802 12.2381 2.46449 
35 1 9.44465 10.2189 1.22861 
43 1 8.76508 11.5065 1.228 
3 1 22.6661 8.50794 2.46425 
7 1 21.8462 8.50824 1.22775 
11 1 20.4456 8.50859 1.22776 
20 1 23.6315 7.3192 2.46425 
36 1 24.0769 6.77774 1.22775 
44 1 24.7804 5.50161 1.22775 
47 1 19.6861 8.50798 2.46426 
51 1 18.2443 8.50593 2.46432 
55 1 17.498 8.50591 1.22783 
17 1 23.6315 9.69674 2.46425 
33 1 24.0768 10.2382 1.22775 
41 1 24.7804 11.5143 1.22775 
15 1 26.3581 0.803093 2.46425 
23 1 25.0298 3.32907 2.46425 
28 1 24.925 4.77237 2.46425 
31 1 25.9037 1.33672 1.22775 
39 1 25.1783 2.60026 1.22775 
2 1 27.3296 17.398 2.46426 
6 1 28.145 17.3966 1.22776 
10 1 29.5502 17.397 1.22781 
14 1 26.3577 16.213 2.46425 
22 1 25.0297 13.6868 2.46425 
25 1 24.925 12.2435 2.46425 
30 1 25.9035 15.6793 1.22775 
38 1 25.1781 14.4156 1.22775 
46 1 30.3099 17.4015 2.46432 
50 1 31.7496 17.4106 2.46455 
54 1 32.4981 17.4047 1.22809 
ITEM: TIMESTEP
130
ITEM: NUMBER OF ATOMS
58
ITEM: BOX BOUNDS pp pp pp
0.0000000000000000e+00 3.2808000000000000e+01
0.0000000000000000e+00 1.7780000000000001e+01
0.0000000000000000e+00 2.4729999999999999e+00
ITEM: ATOMS id type x y z 
13 1 7.34822 0.755267 2.46945 
29 1 7.51657 1.4709 1.23298 
37 1 7.4405 2.92045 1.23914 
1 1 6.29345 17.4669 2.46771 
5 1 5.47514 17.5353 1.23115 
9 1 4.07661 17.4331 1.23033 
16 1 7.15043 16.1935 2.46604 
32 1 7.59122 15.6483 1.22945 
40 1 8.34712 14.4036 1.22835 
45 1 3.32027 17.3738 2.46674 
49 1 1.87885 17.3485 2.46544 
53 1 1.13267 17.3663 1.22886 
4 1 10.8834 8.52354 2.46739 
8 1 11.707 8.55667 1.23078 
12 1 13.1084 8.52304 1.22916 
18 1 10.0523 7.2369 2.47161 
21 1 7.62803 3.64473 2.47576 
26 1 8.50942 4.7935 2.47534 
34 1 9.70887 6.63175 1.23537 
42 1 8.97109 5.37093 1.23868 
48 1 13.8666 8.5123 2.46558 
52 1 15.3072 8.50954 2.46468 
56 1 16.0542 8.50876 1.22814 
57 2 9.46457 1.84221 -0.240506 
58 3 10.2872 2.02113 0.143916 
19 1 9.8746 9.66129 2.46526 
24 1 8.51531 13.6785 2.4648 
27 1 8.62863 12.2359 2.46455 
35 1 9.44034 10.215 1.22868 
43 1 8.76196 11.5041 1.22806 
3 1 22.6662 8.50792 2.46425 
7 1 21.847 8.50824 1.22775 
11 1 20.445 8.50852 1.22776 
20 1 23.6314 7.32074 2.46425 
36 1 24.0778 6.77856 1.22775 
44 1 24.7825 5.50239 1.22775 
47 1 19.6862 8.50789 2.46427 
51 1 18.2451 8.50596 2.46433 
55 1 17.4986 8.50602 1.22784 
17 1 23.6315 9.69517 2.46425 
33 1 24.0777 10.2374 1.22775 
41 1 24.7825 11.5135 1.22775 
15 1 26.3587 0.802032 2.46425 
23 1 25.0294 3.32843 2.46425 
28 1 24.9245 4.77298 2.46425 
31 1 25.903 1.3361 1.22775 
39 1 25.1763 2.59988 1.22775 
2 1 27.3294 17.3979 2.46426 
6 1 28.1479 17.3966 1.22776 
10 1 29.5499 17.3975 1.22782 
14 1 26.3582 16.2141 2.46425 
22 1 25.0293 13.6874 2.46425 
25 1 24.9245 12.2429 2.46425 
30 1 25.9026 15.6799 1.22775 
38 1 25.1761 14.416 1.22775 
46 1 30.3089 17.4023 2.46433 
50 1 31.7501 17.4104 2.46458 
54 1 32.4966 17.4035 1.22812 
ITEM: TIMESTEP
140
ITEM: NUMBER OF ATOMS
58
ITEM: BOX BOUNDS pp pp pp
0.0000000000000000e+00 3.2808000000000000e+01
0.0000000000000000e+00 1.7780000000000001e+01
0.0000000000000000e+00 2.4729999999999999e+00
ITEM: ATOMS id type x y z 
13 1 7.3302 0.762156 2.47015 
29 1 7.50343 1.47229 1.23275 
37 1 7.45393 2.92347 1.23772 
1 1 6.29179 17.4522 2.46752 
5 1 5.47433 17.5152 1.23095 
9 1 4.07446 17.436 1.2302 
16 1 7.1647 16.1904 2.46605 
32 1 7.60425 15.647 1.22948 
40 1 8.35569 14.3954 1.22858 
45 1 3.31861 17.3835 2.46664 
49 1 1.87633 17.3485 2.46558 
53 1 1.13169 17.3604 1.22901 
4 1 10.8891 8.52613 2.46755 
8 1 11.7115 8.57679 1.23099 
12 1 13.1101 8.53265 1.22938 
18 1 10.0824 7.22991 2.47143 
21 1 7.62494 3.65313 2.47436 
26 1 8.4678 4.82596 2.47444 
34 1 9.7212 6.62929 1.23515 
42 1 8.93379 5.39602 1.23781 
48 1 13.8768 8.51309 2.46584 
52 1 15.3101 8.5062 2.46487 
56 1 16.0622 8.50709 1.2283 
57 2 9.49462 1.84794 -0.280788 
58 3 10.2773 2.01737 0.185672 
19 1 9.86333 9.64213 2.46553 
24 1 8.51941 13.6741 2.46503 
27 1 8.62984 12.2261 2.46479 
35 1 9.42264 10.1998 1.22895 
43 1 8.75317 11.4975 1.22831 
3 1 22.669 8.5079 2.46426 
7 1 21.8544 8.50819 1.22775 
11 1 20.4479 8.50822 1.22778 
20 1 23.6346 7.32314 2.46425 
36 1 24.0826 6.77963 1.22775 
44 1 24.7866 5.50343 1.22775 
47 1 19.6909 8.50763 2.46429 
51 1 18.2494 8.50621 2.4644 
55 1 17.5015 8.50629 1.22792 
17 1 23.6347 9.69265 2.46425 
33 1 24.0827 10.2361 1.22775 
41 1 24.7868 11.5123 1.22775 
15 1 26.3571 0.802071 2.46426 
23 1 25.027 3.32742 2.46425 
28 1 24.9245 4.77394 2.46425 
31 1 25.8997 1.33519 1.22775 
39 1 25.1708 2.60094 1.22775 
2 1 27.3266 17.3976 2.46428 
6 1 28.1485 17.3966 1.22778 
10 1 29.5474 17.4 1.22788 
14 1 26.3561 16.214 2.46426 
22 1 25.0267 13.6883 2.46425 
25 1 24.9246 12.2418 2.46425 
30 1 25.8987 15.6808 1.22775 
38 1 25.1702 14.4149 1.22775 
46 1 30.3052 17.4052 2.46439 
50 1 31.7492 17.4091 2.46473 
54 1 32.4941 17.3985 1.22826 
ITEM: TIMESTEP
150
ITEM: NUMBER OF ATOMS
58
ITEM: BOX BOUNDS pp pp pp
0.0000000000000000e+00 3.2808000000000000e+01
0.0000000000000000e+00 1.7780000000000001e+01
0.0000000000000000e+00 2.4729999999999999e+00
ITEM: ATOMS id type x y z 
13 1 7.3187 0.762369 2.46965 
29 1 7.49613 1.47307 1.23303 
37 1 7.45998 2.9274 1.23709 
1 1 6.29334 17.4434 2.46749 
5 1 5.47395 17.5038 1.23092 
9 1 4.07445 17.4367 1.23016 
16 1 7.17395 16.1889 2.46606 
32 1 7.61449 15.6427 1.2295 
40 1 8.35892 14.3925 1.22868 
45 1 3.31588 17.3878 2.46659 
49 1 1.87641 17.3492 2.46563 
53 1 1.12851 17.3581 1.22906 
4 1 10.8938 8.53069 2.46766 
8 1 11.7121 8.58714 1.23102 
12 1 13.1149 8.53831 1.22954 
18 1 10.0938 7.22103 2.47128 
21 1 7.6211 3.65477 2.47371 
26 1 8.44632 4.84528 2.47393 
34 1 9.72822 6.6315 1.235 
42 1 8.91679 5.41566 1.23734 
48 1 13.8729 8.51472 2.46593 
52 1 15.3146 8.50432 2.46496 
56 1 16.0606 8.50544 1.22841 
57 2 9.51879 1.85273 -0.313655 
58 3 10.2645 2.01366 0.219544 
19 1 9.85001 9.64087 2.46568 
24 1 8.52256 13.6648 2.46515 