ITEM: TIMESTEP
0
ITEM: NUMBER OF ATOMS
129
ITEM: BOX BOUNDS xy xz yz pp pp pp
0.0000000000000000e+00 2.3654499999999999e+01 7.8845000000000001e+00
0.0000000000000000e+00 1.3658086643083999e+01 0.0000000000000000e+00
0.0000000000000000e+00 2.5747000000000000e+01 0.0000000000000000e+00
ITEM: ATOMS id type x y z 
18 1 10.522 6.683 2.644 
28 1 5.247 4.273 12.803 
31 1 9.65 6.514 0.446 
62 1 9.171 5.15 12.405 
91 1 9.65 6.514 11.889 
92 1 10.81 6.18 11.007 
106 1 10.522 6.683 9.691 
127 1 10.81 6.18 1.328 
4 1 4.402 5.735 13.319 
5 1 3.307 5.568 14.201 
43 1 4.549 6.796 15.517 
52 1 9.172 5.15 25.677 
66 1 4.402 5.735 24.762 
67 1 5.003 6.76 23.881 
88 1 5.247 4.273 25.278 
107 1 3.307 5.568 23.881 
116 1 4.549 6.796 22.565 
117 1 5.003 6.76 14.201 
11 1 11.272 7.494 3.321 
12 1 10.477 8.871 4.018 
14 1 9.018 11.397 0.446 
15 1 10.114 11.565 1.328 
16 1 8.412 9.024 0.654 
19 1 10.477 8.871 5.569 
29 1 10.927 10.156 3.321 
32 1 8.77 7.648 1.328 
35 1 12.036 9.594 2.644 
45 1 9.231 8.963 3.321 
47 1 12.762 8.702 0.446 
49 1 11.224 11 0.654 
51 1 8.872 10.337 2.644 
53 1 11.272 7.494 9.014 
54 1 10.477 8.871 8.317 
56 1 9.018 11.397 11.889 
57 1 8.418 10.372 11.007 
58 1 11.224 11 11.681 
60 1 12.255 7.901 9.691 
61 1 10.477 8.871 6.766 
73 1 9.231 8.963 9.014 
75 1 12.762 8.702 11.889 
76 1 12.202 10.061 11.007 
79 1 9.224 7.617 9.691 
80 1 8.174 12.859 12.405 
89 1 10.927 10.156 9.014 
93 1 8.412 9.024 11.681 
95 1 9.951 11.095 9.691 
105 1 10.114 11.565 11.007 
109 1 8.77 7.648 11.007 
110 1 12.036 9.594 9.691 
114 1 8.872 10.337 9.691 
119 1 8.418 10.372 1.328 
120 1 12.255 7.901 2.644 
123 1 12.202 10.061 1.328 
124 1 9.224 7.617 2.644 
128 1 9.951 11.095 2.644 
6 1 5.009 8.108 13.527 
13 1 9.663 10.28 25.128 
17 1 9.204 8.965 25.162 
30 1 10.016 7.556 25.128 
34 1 11.289 7.464 25.162 
36 1 8.174 12.859 25.677 
46 1 11.752 8.777 25.128 
50 1 10.937 10.184 25.162 
55 1 9.663 10.28 12.954 
59 1 10.937 10.184 12.919 
74 1 11.752 8.777 12.954 
78 1 11.289 7.464 12.919 
90 1 10.016 7.556 12.954 
94 1 9.204 8.965 12.919 
101 1 5.009 8.108 24.555 
33 1 11.795 6.589 0.654 
77 1 11.795 6.589 11.681 
41 1 17.967 6.132 13.527 
68 1 17.967 6.132 24.554 
103 1 19.24 6.037 22.565 
126 1 19.24 6.037 15.517 
3 1 19.528 6.852 12.254 
7 1 19.987 8.167 12.289 
10 1 15.106 8.528 12.804 
22 1 19.175 9.576 12.254 
26 1 17.902 9.668 12.289 
38 1 17.439 8.356 12.254 
42 1 18.254 6.949 12.289 
44 1 20.019 11.982 12.804 
48 1 12.546 7.4 1.328 
65 1 19.528 6.852 0.081 
69 1 18.254 6.949 0.046 
82 1 17.439 8.356 0.081 
86 1 17.902 9.668 0.046 
96 1 14.084 8.604 12.405 
98 1 19.175 9.576 0.081 
102 1 19.987 8.167 0.046 
113 1 12.546 7.4 11.007 
129 2 19.528 6.852 11.154 
1 1 17.919 9.638 16.194 
2 1 18.714 8.261 16.892 
8 1 18.669 10.449 15.517 
9 1 18.714 8.261 18.442 
20 1 14.084 8.604 25.677 
21 1 18.264 6.977 16.194 
23 1 19.541 10.618 13.32 
24 1 20.421 9.484 14.201 
25 1 17.396 10.544 13.527 
27 1 17.155 7.538 15.517 
37 1 19.96 8.169 16.194 
39 1 16.429 8.43 13.319 
40 1 16.644 9.732 14.201 
63 1 17.919 9.638 21.888 
64 1 18.714 8.261 21.19 
70 1 16.936 9.231 22.565 
71 1 18.714 8.261 19.64 
72 1 20.019 11.982 25.278 
81 1 19.96 8.169 21.888 
83 1 16.429 8.43 24.762 
84 1 16.989 7.071 23.881 
85 1 17.396 10.544 24.555 
87 1 19.967 9.515 22.565 
97 1 18.263 6.977 21.888 
99 1 19.541 10.618 24.762 
100 1 18.38 10.953 23.881 
104 1 15.106 8.528 25.278 
108 1 18.669 10.449 22.565 
111 1 20.421 9.484 23.881 
112 1 17.155 7.538 22.565 
115 1 16.644 9.732 23.881 
118 1 16.936 9.231 15.517 
121 1 16.989 7.071 14.201 
122 1 19.967 9.515 15.517 
125 1 18.38 10.953 14.201 
ITEM: TIMESTEP
10
ITEM: NUMBER OF ATOMS
129
ITEM: BOX BOUNDS xy xz yz pp pp pp
0.0000000000000000e+00 2.3654499999999999e+01 7.8845000000000001e+00
0.0000000000000000e+00 1.3658086643083999e+01 0.0000000000000000e+00
0.0000000000000000e+00 2.5747000000000000e+01 0.0000000000000000e+00
ITEM: ATOMS id type x y z 
18 1 10.3791 6.72079 2.62595 
28 1 5.13838 4.50376 12.8855 
31 1 9.4066 6.49842 0.442693 
62 1 9.183 5.26371 12.342 
91 1 9.40663 6.49403 11.8923 
92 1 10.6454 6.16188 10.9597 
106 1 10.3892 6.73143 9.68868 
127 1 10.6426 6.16385 1.37793 
4 1 4.54193 5.59421 13.2379 
5 1 3.24856 5.68455 14.2298 
43 1 4.57708 6.91949 15.5263 
52 1 9.18209 5.26366 25.7385 
66 1 4.44459 5.80874 24.8204 
67 1 5.09794 6.91352 23.9083 
88 1 5.09359 4.58852 25.1858 
107 1 3.15527 5.60604 23.8809 
116 1 4.55952 6.94938 22.5928 
117 1 4.9959 6.8821 14.197 
11 1 11.2532 7.56708 3.43387 
12 1 10.5196 8.81585 4.08803 
14 1 8.97449 11.3388 0.412124 
15 1 10.2593 11.512 1.31978 
16 1 8.35499 8.92907 0.69999 
19 1 10.4761 8.86706 5.54915 
29 1 10.9524 10.1118 3.3332 
32 1 8.69587 7.66419 1.30717 
35 1 12.0511 9.57036 2.6067 
45 1 9.2218 8.94706 3.25152 
47 1 12.7065 8.84235 0.538818 
49 1 11.3683 10.9263 0.653823 
51 1 8.84052 10.1705 2.61287 
53 1 11.2337 7.58392 8.92784 
54 1 10.5244 8.79133 8.25171 
56 1 8.98379 11.3239 11.9299 
57 1 8.33922 10.2058 11.0367 
58 1 11.3284 10.929 11.6855 
60 1 12.3034 8.08042 9.66367 
61 1 10.4755 8.86626 6.77584 
73 1 9.22942 8.9554 9.0849 
75 1 12.7326 8.81869 11.8143 
76 1 12.2904 10.0819 11.0098 
79 1 9.19521 7.69408 9.74219 
80 1 8.3213 12.5544 12.3166 
89 1 10.9398 10.1176 8.99978 
93 1 8.35827 8.94097 11.6447 
95 1 10.0411 11.0311 9.70288 
105 1 10.261 11.5054 11.0049 
109 1 8.6884 7.66489 11.0275 
110 1 12.0515 9.57242 9.7121 
114 1 8.84555 10.177 9.72817 
119 1 8.32562 10.2082 1.30289 
120 1 12.3074 8.10468 2.654 
123 1 12.2716 10.0675 1.3207 
124 1 9.18553 7.69548 2.58502 
128 1 10.0475 11.0389 2.65522 
6 1 4.99499 8.19285 13.5669 
13 1 9.60717 10.2888 25.0436 
17 1 9.12469 8.94423 25.1437 
30 1 9.9187 7.70535 25.0502 
34 1 11.3258 7.49149 25.1816 
36 1 8.3231 12.5515 25.767 
46 1 11.6852 8.85467 25.0662 
50 1 11.0102 10.1252 25.2011 
55 1 9.61519 10.2695 12.9893 
59 1 11.0093 10.1272 12.9207 
74 1 11.685 8.86087 13.011 
78 1 11.3292 7.50062 12.8956 
90 1 9.91504 7.70762 13.0408 
94 1 9.11304 8.96516 12.9264 
101 1 5.04758 8.19657 24.5499 
33 1 11.7975 6.69478 0.626253 
77 1 11.7994 6.69716 11.7085 
41 1 17.878 6.2267 13.5247 
68 1 17.8476 6.22149 24.5766 
103 1 19.1629 6.10137 22.5666 
126 1 19.1728 6.10058 15.5823 
3 1 19.5634 6.92767 12.0691 
7 1 20.0426 8.24105 12.3402 
10 1 15.0998 8.50056 12.8724 
22 1 19.2136 9.46954 12.2018 
26 1 17.8936 9.65224 12.3186 
38 1 17.5639 8.30717 12.181 
42 1 18.1321 7.04442 12.3598 
44 1 20.0465 11.8499 12.8461 
48 1 12.6146 7.53906 1.39448 
65 1 19.5797 6.8812 0.123257 
69 1 18.2052 7.00603 0.0106605 
82 1 17.5354 8.28915 0.126946 
86 1 17.9188 9.62014 0.0299847 
96 1 14.0782 8.67588 12.3645 
98 1 19.2755 9.39467 0.110991 
102 1 20.0152 8.19281 0.0440438 
113 1 12.6102 7.54521 10.9459 
129 2 19.5734 6.7545 10.9589 
1 1 17.8449 9.5704 16.2681 
2 1 18.6968 8.29381 17.0046 
8 1 18.8194 10.3712 15.5138 
9 1 18.7159 8.26609 18.4335 
20 1 14.0426 8.69005 25.7334 
21 1 18.2608 7.00017 16.2526 
23 1 19.7989 10.685 13.2656 
24 1 20.5118 9.46553 14.1743 
25 1 17.3878 10.4434 13.4488 
27 1 17.1319 7.5256 15.4861 
37 1 19.9478 8.21721 16.1646 
39 1 16.4447 8.26683 13.4047 
40 1 16.5629 9.65245 14.2124 
63 1 17.8682 9.56448 21.8364 
64 1 18.7114 8.28934 21.0941 
70 1 16.9167 9.11282 22.4827 
71 1 18.7169 8.26276 19.6772 
72 1 20.0126 11.865 25.2182 
81 1 19.9515 8.2079 21.945 
83 1 16.4829 8.31144 24.6858 
84 1 16.9098 7.03548 23.9064 
85 1 17.3932 10.4468 24.5893 
87 1 19.9894 9.45294 22.6307 
97 1 18.2722 6.9732 21.8506 
99 1 19.7709 10.6093 24.7926 
100 1 18.5455 10.9717 23.8375 
104 1 15.1392 8.4511 25.223 
108 1 18.8036 10.3799 22.5889 
111 1 20.4767 9.47715 23.9232 
112 1 17.1284 7.52707 22.5861 
115 1 16.588 9.61307 23.8378 
118 1 16.923 9.08702 15.6244 
121 1 16.9009 7.04823 14.1771 
122 1 19.9994 9.4666 15.4285 
125 1 18.469 10.9785 14.2802 
ITEM: TIMESTEP
20
ITEM: NUMBER OF ATOMS
129
ITEM: BOX BOUNDS xy xz yz pp pp pp
0.0000000000000000e+00 2.3654499999999999e+01 7.8845000000000001e+00
0.0000000000000000e+00 1.3658086643083999e+01 0.0000000000000000e+00
0.0000000000000000e+00 2.5747000000000000e+01 0.0000000000000000e+00
ITEM: ATOMS id type x y z 
18 1 10.368 6.77674 2.64147 
28 1 5.16208 4.47823 12.8845 
31 1 9.39186 6.58842 0.435336 
62 1 9.21445 5.26069 12.2991 
91 1 9.39497 6.5855 11.8979 
92 1 10.6155 6.17806 10.997 
106 1 10.3606 6.76875 9.69438 
127 1 10.6147 6.18077 1.3394 
4 1 4.4991 5.67852 13.2758 
5 1 3.26502 5.71358 14.2058 
43 1 4.56007 6.95636 15.5376 
52 1 9.2165 5.25864 25.7836 
66 1 4.42044 5.854 24.8058 
67 1 5.07982 6.94898 23.9038 
88 1 5.08001 4.63151 25.1779 
107 1 3.14724 5.6535 23.8862 
116 1 4.5739 6.96301 22.6095 
117 1 4.9844 6.88683 14.1843 
11 1 11.2248 7.55867 3.39562 
12 1 10.5239 8.7974 4.06009 
14 1 9.00531 11.2821 0.410237 
15 1 10.2646 11.4649 1.32106 
16 1 8.34049 8.90338 0.679836 
19 1 10.4771 8.86397 5.55979 
29 1 10.95 10.1044 3.33419 
32 1 8.65946 7.67189 1.30151 
35 1 12.072 9.60577 2.61119 
45 1 9.21704 8.94102 3.25971 
47 1 12.6915 8.84738 0.522405 
49 1 11.3795 10.938 0.654149 
51 1 8.84325 10.1681 2.59787 
53 1 11.2266 7.56169 8.93473 
54 1 10.5206 8.8007 8.26823 
56 1 9.01233 11.2787 11.9287 
57 1 8.34042 10.1765 11.0314 
58 1 11.3742 10.9191 11.6818 
60 1 12.3079 8.08355 9.65996 
61 1 10.476 8.86169 6.77295 
73 1 9.21509 8.94246 9.07181 
75 1 12.7017 8.85011 11.8239 
76 1 12.3002 10.0788 11.0062 
79 1 9.17668 7.67018 9.76148 
80 1 8.33588 12.5118 12.3081 
89 1 10.9507 10.1042 9.00617 
93 1 8.33308 8.90464 11.6564 
95 1 10.0571 11.0193 9.69356 
105 1 10.2634 11.4643 11.0155 
109 1 8.65626 7.66768 11.0331 
110 1 12.0724 9.60618 9.72298 
114 1 8.84653 10.1725 9.73902 
119 1 8.34147 10.1798 1.30287 
120 1 12.2998 8.07703 2.66785 
123 1 12.3012 10.0918 1.33483 
124 1 9.17599 7.67222 2.57188 
128 1 10.0531 11.0223 2.63824 
6 1 5.00997 8.21755 13.5697 
13 1 9.62302 10.2363 25.0666 
17 1 9.14528 8.92973 25.1518 
30 1 9.92922 7.74086 25.0607 
34 1 11.2698 7.52253 25.2012 
36 1 8.33967 12.5021 25.7788 
46 1 11.676 8.8565 25.0787 
50 1 10.98 10.1279 25.1853 
55 1 9.62572 10.2351 12.9912 
59 1 10.9958 10.1292 12.9221 
74 1 11.6749 8.8531 12.99 
78 1 11.2735 7.53078 12.8783 
90 1 9.93787 7.75218 13.0257 
94 1 9.13591 8.9301 12.9301 
101 1 5.08886 8.22461 24.5352 
33 1 11.7511 6.73611 0.657109 
77 1 11.7463 6.73245 11.6833 
41 1 17.8648 6.25343 13.5375 
68 1 17.8226 6.20091 24.5548 
103 1 19.1537 6.09542 22.5831 
126 1 19.1649 6.10759 15.5935 
3 1 19.5688 6.9222 12.0072 
7 1 20.0447 8.27581 12.3333 
10 1 15.1283 8.4738 12.8737 
22 1 19.2584 9.45277 12.1852 
26 1 17.8863 9.67954 12.308 
38 1 17.5159 8.30768 12.184 
42 1 18.1595 7.00456 12.3576 
44 1 20.0562 11.8674 12.8574 
48 1 12.5784 7.56688 1.3823 
65 1 19.5775 6.88503 0.140842 
69 1 18.2035 7.00449 0.0289135 
82 1 17.527 8.28299 0.124586 
86 1 17.9245 9.60925 0.00377757 
96 1 14.0397 8.70169 12.3613 
98 1 19.2748 9.40285 0.141616 
102 1 20.0413 8.19369 0.0468342 
113 1 12.589 7.57581 10.955 
129 2 19.589 6.73652 10.9255 
1 1 17.8469 9.56802 16.2493 
2 1 18.692 8.30977 16.9866 
8 1 18.8114 10.3378 15.5147 
9 1 18.7173 8.26873 18.4408 
20 1 14.0491 8.69375 25.724 
21 1 18.2305 7.01727 16.2448 
23 1 19.7923 10.6048 13.3041 
24 1 20.5304 9.47495 14.1616 
25 1 17.3914 10.4344 13.4901 
27 1 17.133 7.51126 15.483 
37 1 19.9581 8.2065 16.1575 
39 1 16.4613 8.29726 13.4262 
40 1 16.615 9.58001 14.2449 
63 1 17.8561 9.56173 21.8536 
64 1 18.6981 8.28973 21.1197 
70 1 16.9242 9.10635 22.4893 
71 1 18.7173 8.2647 19.6612 
72 1 19.9808 11.88 25.1779 
81 1 19.9605 8.19472 21.9464 
83 1 16.4932 8.30273 24.6762 
84 1 16.8959 7.04503 23.8596 
85 1 17.4417 10.4015 24.5633 
87 1 19.9994 9.47216 22.645 
97 1 18.2422 7.00706 21.8704 
99 1 19.7934 10.5392 24.7942 
100 1 18.5721 10.9604 23.878 
104 1 15.1276 8.446 25.2364 
108 1 18.8178 10.3612 22.5981 
111 1 20.5271 9.46051 23.9213 
112 1 17.1386 7.49905 22.6002 
115 1 16.6332 9.58057 23.8289 
118 1 16.925 9.09646 15.5982 
121 1 16.8936 7.04272 14.2181 
122 1 20.0109 9.46929 15.4281 
125 1 18.5162 10.9446 14.25 
ITEM: TIMESTEP
30
ITEM: NUMBER OF ATOMS
129
ITEM: BOX BOUNDS xy xz yz pp pp pp
0.0000000000000000e+00 2.3654499999999999e+01 7.8845000000000001e+00
0.0000000000000000e+00 1.3658086643083999e+01 0.0000000000000000e+00
0.0000000000000000e+00 2.5747000000000000e+01 0.0000000000000000e+00
ITEM: ATOMS id type x y z 
18 1 10.3474 6.76744 2.63755 
28 1 5.13409 4.54006 12.9096 
31 1 9.39 6.61634 0.42076 
62 1 9.22497 5.25636 12.2801 
91 1 9.39306 6.6167 11.9135 
92 1 10.6001 6.19531 10.9981 
106 1 10.3473 6.76706 9.69675 
127 1 10.5999 6.19706 1.33638 
4 1 4.49751 5.69842 13.2886 
5 1 3.26786 5.70915 14.1984 
43 1 4.54908 6.96103 15.5185 
52 1 9.22689 5.253 25.8023 
66 1 4.40551 5.87233 24.8038 
67 1 5.07952 6.96611 23.9015 
88 1 5.0834 4.63426 25.1797 
107 1 3.15388 5.67472 23.89 
116 1 4.56785 6.96617 22.6113 
117 1 4.99142 6.88906 14.1719 
11 1 11.2268 7.5634 3.39579 
12 1 10.5202 8.79138 4.06108 
14 1 9.01767 11.2599 0.407189 
15 1 10.2662 11.449 1.32063 
16 1 8.32005 8.90102 0.666649 
19 1 10.4773 8.86083 5.56408 
29 1 10.9516 10.1039 3.32993 
32 1 8.63639 7.66322 1.29861 
35 1 12.0876 9.60536 2.61772 
45 1 9.21055 8.93918 3.26471 
47 1 12.693 8.86094 0.5196 
49 1 11.3884 10.9364 0.647218 
51 1 8.84859 10.168 2.59769 
53 1 11.225 7.56537 8.93996 
54 1 10.5178 8.79151 8.27162 
56 1 9.01793 11.2611 11.9273 
57 1 8.34012 10.1631 11.0318 
58 1 11.3828 10.9218 11.6876 
60 1 12.3084 8.09444 9.65679 
61 1 10.4761 8.85937 6.76816 
73 1 9.21014 8.93948 9.06911 
75 1 12.6966 8.85887 11.8154 
76 1 12.3195 10.0861 11.004 
79 1 9.16606 7.66734 9.76125 
80 1 8.33724 12.5008 12.3073 
89 1 10.9526 10.1025 9.00537 
93 1 8.31561 8.89858 11.6647 
95 1 10.0564 11.0183 9.69188 
105 1 10.2687 11.4488 11.0154 
109 1 8.63476 7.66207 11.036 
110 1 12.0889 9.60328 9.71614 
114 1 8.85083 10.1682 9.73766 
119 1 8.34147 10.1648 1.30445 
120 1 12.3058 8.09236 2.67561 
123 1 12.3179 10.0899 1.33003 
124 1 9.16521 7.66716 2.57378 
128 1 10.0541 11.0189 2.64379 
6 1 5.01597 8.21324 13.5615 
13 1 9.62169 10.2331 25.0664 
17 1 9.1345 8.92793 25.1512 
30 1 9.9205 7.73308 25.0634 
34 1 11.2633 7.52458 25.2071 
36 1 8.33727 12.4979 25.7777 
46 1 11.6785 8.85911 25.0834 
50 1 10.9896 10.1387 25.1861 
55 1 9.6248 10.2307 13.0011 
59 1 11.001 10.1476 12.9213 
74 1 11.6821 8.85688 12.9988 
78 1 11.2622 7.52825 12.8761 
90 1 9.92212 7.73747 13.0188 
94 1 9.12295 8.92676 12.9322 
101 1 5.10863 8.22941 24.5426 
33 1 11.7304 6.7329 0.649468 
77 1 11.732 6.7346 11.6815 
41 1 17.8646 6.26148 13.5346 
68 1 17.8067 6.19918 24.5629 
103 1 19.1523 6.09806 22.5732 
126 1 19.1648 6.11045 15.5855 
3 1 19.5749 6.91322 11.9991 
7 1 20.0465 8.27441 12.3237 
10 1 15.1217 8.46718 12.8603 
22 1 19.2554 9.46179 12.1923 
26 1 17.8895 9.64702 12.3097 
38 1 17.5247 8.30651 12.2062 
42 1 18.152 7.03385 12.3506 
44 1 20.027 11.8543 12.895 
48 1 12.5745 7.59242 1.37982 
65 1 19.5691 6.89365 0.14418 
69 1 18.1987 6.99699 0.0247816 
82 1 17.5238 8.27511 0.117885 
86 1 17.9307 9.60593 0.00563579 
96 1 14.0381 8.70732 12.3672 
98 1 19.2799 9.40257 0.14724 
102 1 20.0552 8.19743 0.0500093 
113 1 12.578 7.5932 10.954 
129 2 19.5977 6.72881 10.9145 
1 1 17.8495 9.56142 16.2463 
2 1 18.6917 8.31284 16.9828 
8 1 18.8208 10.3366 15.4995 
9 1 18.718 8.27152 18.4438 
20 1 14.0475 8.69328 25.7203 
21 1 18.2306 7.02171 16.2434 
23 1 19.7997 10.5654 13.3017 
24 1 20.5435 9.48139 14.1588 
25 1 17.4203 10.4174 13.5012 
27 1 17.1211 7.51304 15.4924 
37 1 19.9617 8.20692 16.1608 
39 1 16.475 8.29646 13.4222 
40 1 16.6186 9.56517 14.2543 
63 1 17.8621 9.56068 21.8611 
64 1 18.6981 8.29155 21.1233 
70 1 16.9249 9.09024 22.4816 
71 1 18.7188 8.26608 19.6625 
72 1 19.9689 11.8823 25.158 
81 1 19.966 8.19853 21.9428 
83 1 16.4889 8.29382 24.6742 
84 1 16.8869 7.04971 23.8654 
85 1 17.4564 10.4094 24.5692 
87 1 20.0061 9.47734 22.6464 
97 1 18.2393 7.00725 21.8708 
99 1 19.8061 10.5149 24.8044 
100 1 18.5916 10.9454 23.8796 
104 1 15.1329 8.44614 25.2391 
108 1 18.8287 10.3582 22.5953 
111 1 20.5501 9.46889 23.9222 
112 1 17.1216 7.50466 22.5945 
115 1 16.6347 9.54991 23.8296 
118 1 16.9273 9.09102 15.596 
121 1 16.8943 7.03496 14.2277 
122 1 20.0105 9.47745 15.4401 
125 1 18.562 10.9522 14.2195 
ITEM: TIMESTEP
40
ITEM: NUMBER OF ATOMS
129
ITEM: BOX BOUNDS xy xz yz pp pp pp
0.0000000000000000e+00 2.3654499999999999e+01 7.8845000000000001e+00
0.0000000000000000e+00 1.3658086643083999e+01 0.0000000000000000e+00
0.0000000000000000e+00 2.5747000000000000e+01 0.0000000000000000e+00
ITEM: ATOMS id type x y z 
18 1 10.3103 6.78025 2.64963 
28 1 5.13108 4.58131 12.9312 
31 1 9.35908 6.66301 0.391523 
62 1 9.23661 5.25195 12.2356 
91 1 9.35988 6.66483 11.9437 
92 1 10.5647 6.2446 10.9979 
106 1 10.3106 6.78127 9.68469 
127 1 10.5625 6.24423 1.33563 
4 1 4.48266 5.77796 13.2548 
5 1 3.25855 5.74138 14.208 
43 1 4.53104 6.97859 15.5138 
52 1 9.23853 5.24808 25.8473 
66 1 4.39616 5.91481 24.809 
67 1 5.08425 7.00386 23.904 
88 1 5.08068 4.66998 25.1789 
107 1 3.13962 5.71285 23.8917 
116 1 4.56296 6.9798 22.6172 
117 1 4.99309 6.90572 14.1709 
11 1 11.2176 7.565 3.38199 
12 1 10.5141 8.77454 4.06058 
14 1 9.02946 11.2176 0.404175 
15 1 10.2839 11.4134 1.31808 
16 1 8.27121 8.88154 0.648971 
19 1 10.4778 8.84973 5.56529 
29 1 10.9538 10.0824 3.32036 
32 1 8.57626 7.64826 1.29205 
35 1 12.1222 9.62584 2.63021 
45 1 9.20221 8.9289 3.26486 
47 1 12.6934 8.89488 0.507569 
49 1 11.4166 10.9269 0.646431 
51 1 8.85407 10.1559 2.59315 
53 1 11.2178 7.5645 8.95177 
54 1 10.513 8.7739 8.2723 
56 1 9.02921 11.2174 11.9297 
57 1 8.33324 10.1279 11.033 
58 1 11.4146 10.9213 11.6933 
60 1 12.3054 8.1175 9.64593 
61 1 10.4773 8.84984 6.76812 
73 1 9.20195 8.92913 9.06853 
75 1 12.686 8.89347 11.8233 
76 1 12.3604 10.1058 10.9965 
79 1 9.12218 7.66302 9.76862 
80 1 8.34403 12.4597 12.3047 
89 1 10.9549 10.0823 9.01296 
93 1 8.27408 8.88179 11.6842 
95 1 10.0615 11.0036 9.6906 
105 1 10.2864 11.4116 11.0177 
109 1 8.57296 7.64993 11.044 
110 1 12.1232 9.62428 9.70223 
114 1 8.85586 10.1558 9.74146 
119 1 8.33731 10.1298 1.30343 
120 1 12.3042 8.11801 2.68624 
123 1 12.3636 10.106 1.33597 
124 1 9.12231 7.66293 2.56511 
128 1 10.0602 11.0053 2.64484 
6 1 5.04259 8.22495 13.5201 
13 1 9.62602 10.218 25.0663 
17 1 9.0968 8.92609 25.1459 
30 1 9.90437 7.73525 25.0525 
34 1 11.2508 7.52525 25.2085 
36 1 8.34155 12.4612 25.7792 
46 1 11.6647 8.85949 25.0892 
50 1 11.0041 10.1582 25.173 
55 1 9.62849 10.215 13.0086 
59 1 11.0108 10.1654 12.9231 
74 1 11.6601 8.85916 12.9975 
78 1 11.252 7.52671 12.8724 
90 1 9.9062 7.7372 13.0272 
94 1 9.08615 8.9251 12.9386 
101 1 5.15421 8.25095 24.5586 
33 1 11.7114 6.7552 0.654682 
77 1 11.7127 6.75508 11.678 
41 1 17.8552 6.27811 13.5283 
68 1 17.7789 6.20474 24.5648 
103 1 19.1459 6.11435 22.5712 
126 1 19.1535 6.11466 15.5897 
3 1 19.5813 6.90594 11.9545 
7 1 20.0679 8.25836 12.3053 
10 1 15.1245 8.45339 12.8488 
22 1 19.2588 9.44061 12.1676 
26 1 17.9064 9.64362 12.3141 
38 1 17.514 8.30524 12.2254 
42 1 18.1606 7.0298 12.3493 
44 1 19.9575 11.89 12.9836 
48 1 12.5462 7.6298 1.37888 
65 1 19.5604 6.91183 0.144267 
69 1 18.1862 6.9778 0.0267374 
82 1 17.525 8.27338 0.108315 
86 1 17.9452 9.61087 0.00979541 
96 1 14.0391 8.71693 12.3772 
98 1 19.2901 9.39276 0.164576 
102 1 20.0946 8.20251 0.0604541 
113 1 12.5489 7.6284 10.9549 
129 2 19.6255 6.70191 10.8825 
1 1 17.8684 9.55794 16.2147 
2 1 18.6859 8.33325 16.9853 
8 1 18.8474 10.3457 15.4845 
9 1 18.7198 8.28157 18.4451 
20 1 14.0503 8.7003 25.7094 
21 1 18.2254 7.03598 16.2469 
23 1 19.8502 10.4764 13.2834 
24 1 20.6019 9.4691 14.1725 
25 1 17.4694 10.4073 13.5259 
27 1 17.0927 7.49859 15.5162 
37 1 19.9638 8.21907 16.1692 
39 1 16.474 8.27615 13.4224 
40 1 16.6549 9.5271 14.2614 
63 1 17.8746 9.55261 21.8703 
64 1 18.6936 8.30769 21.1229 
70 1 16.9284 9.06282 22.4699 
71 1 18.7221 8.27304 19.6631 
72 1 19.9575 11.8825 25.1134 
81 1 19.9664 8.20771 21.9451 
83 1 16.4912 8.26529 24.6831 
84 1 16.8424 7.04139 23.8603 
85 1 17.4758 10.3877 24.5676 
87 1 20.0413 9.48043 22.6563 
97 1 18.233 7.0236 21.8724 
99 1 19.8468 10.4709 24.8293 
100 1 18.6315 10.893 23.8832 
104 1 15.1397 8.43795 25.2449 
108 1 18.8638 10.3411 22.5816 
111 1 20.614 9.488 23.9278 
112 1 17.0932 7.49009 22.5824 
115 1 16.6618 9.51076 23.8344 
118 1 16.9223 9.06923 15.618 
121 1 16.8756 7.03873 14.2374 
122 1 20.0361 9.48818 15.4512 
125 1 18.6315 10.9252 14.1934 
ITEM: TIMESTEP
50
ITEM: NUMBER OF ATOMS
129
ITEM: BOX BOUNDS xy xz yz pp pp pp
0.0000000000000000e+00 2.3654499999999999e+01 7.8845000000000001e+00
0.0000000000000000e+00 1.3658086643083999e+01 0.0000000000000000e+00
0.0000000000000000e+00 2.5747000000000000e+01 0.0000000000000000e+00
ITEM: ATOMS id type x y z 
18 1 10.2882 6.80243 2.646 
28 1 5.12712 4.62709 12.9474 
31 1 9.31806 6.66532 0.380125 
62 1 9.22538 5.26353 12.2097 
91 1 9.3184 6.66548 11.9503 
92 1 10.5472 6.27168 10.9966 
106 1 10.2885 6.80246 9.68867 
127 1 10.5498 6.27046 1.33925 
4 1 4.46053 5.80388 13.2202 
5 1 3.26005 5.76382 14.1933 
43 1 4.53095 6.98773 15.5095 
52 1 9.22504 5.26253 25.8722 
66 1 4.39407 5.93529 24.8023 
67 1 5.09861 7.02441 23.9104 
88 1 5.08012 4.70238 25.1807 
107 1 3.12458 5.72771 23.8955 
116 1 4.56969 6.9888 22.627 
117 1 4.99604 6.93469 14.1646 
11 1 11.213 7.56711 3.38398 
12 1 10.5109 8.76243 4.06169 
14 1 9.03225 11.1989 0.411453 
15 1 10.2998 11.3983 1.31575 
16 1 8.24578 8.87082 0.638831 
19 1 10.4784 8.83853 5.56486 
29 1 10.9554 10.0676 3.31486 
32 1 8.53516 7.63506 1.27979 
35 1 12.1395 9.63902 2.63453 
45 1 9.19626 8.92497 3.25834 
47 1 12.6986 8.91315 0.507456 
49 1 11.4312 10.9201 0.644412 
51 1 8.8462 10.1453 2.58448 
53 1 11.2122 7.56729 8.94987 
54 1 10.5112 8.76071 8.27143 
56 1 9.03133 11.1977 11.921 
57 1 8.32178 10.1126 11.0348 
58 1 11.4305 10.9188 11.6933 
60 1 12.2936 8.12876 9.64592 
61 1 10.4782 8.83819 6.76828 
73 1 9.19619 8.92478 9.07618 
75 1 12.6963 8.91264 11.8268 
76 1 12.3827 10.1219 10.9923 
79 1 9.0788 7.6614 9.77331 
80 1 8.34421 12.4308 12.3066 
89 1 10.9552 10.0669 9.01773 
93 1 8.24421 8.87105 11.6984 
95 1 10.0648 10.9862 9.70027 
105 1 10.3001 11.3976 11.0203 
109 1 8.53406 7.63606 11.0523 
110 1 12.1388 9.63827 9.69848 
114 1 8.84629 10.1451 9.75021 
119 1 8.32226 10.1111 1.29855 
120 1 12.2917 8.12903 2.68824 
123 1 12.3863 10.1225 1.34202 
124 1 9.07878 7.66103 2.56097 
128 1 10.0629 10.9878 2.63572 
6 1 5.05492 8.2307 13.522 
13 1 9.62756 10.2029 25.0724 
17 1 9.07381 8.91881 25.1346 
30 1 9.89105 7.74185 25.0424 
34 1 11.2376 7.53252 25.1969 
36 1 8.34209 12.4315 25.7774 
46 1 11.6547 8.86201 25.0845 
50 1 11.0081 10.1603 25.1607 
55 1 9.62704 10.2012 13.013 
59 1 11.0067 10.1601 12.9247 
74 1 11.6559 8.86205 12.9999 
78 1 11.234 7.53521 12.8811 
90 1 9.88991 7.74316 13.0432 
94 1 9.07664 8.9189 12.945 
101 1 5.17796 8.26357 24.5708 
33 1 11.6909 6.7793 0.667566 
77 1 11.6918 6.78162 11.6696 
41 1 17.8487 6.30308 13.5362 
68 1 17.763 6.21295 24.5601 
103 1 19.1439 6.13278 22.5791 
126 1 19.1556 6.13731 15.5872 
3 1 19.5873 6.8915 11.9436 
7 1 20.0832 8.26092 12.2803 
10 1 15.1228 8.44779 12.8549 
22 1 19.2924 9.42781 12.1702 
26 1 17.9228 9.64214 12.3131 
38 1 17.5281 8.30282 12.2256 
42 1 18.1635 7.02727 12.3327 
44 1 19.9809 11.8704 13.0103 
48 1 12.5425 7.65304 1.3759 
65 1 19.5643 6.92696 0.138696 
69 1 18.1788 6.97797 0.0366723 
82 1 17.5403 8.2771 0.118782 
86 1 17.955 9.6012 0.0268332 
96 1 14.0406 8.72047 12.3786 
98 1 19.3072 9.39358 0.170407 
102 1 20.1144 8.20608 0.0750606 
113 1 12.542 7.6521 10.9559 
129 2 19.6508 6.67588 10.8473 
1 1 17.872 9.55847 16.2226 
2 1 18.6812 8.34889 16.9874 
8 1 18.8859 10.3332 15.5044 
9 1 18.7193 8.29541 18.4445 
20 1 14.0503 8.70762 25.7069 
21 1 18.2221 7.04678 16.2539 
23 1 19.8829 10.4926 13.2502 
24 1 20.632 9.47737 14.158 
25 1 17.4795 10.3886 13.5224 
27 1 17.08 7.4868 15.5265 
37 1 19.9598 8.22337 16.1665 
39 1 16.4729 8.25769 13.4211 
40 1 16.6658 9.50675 14.2614 
63 1 17.8799 9.54651 21.8624 
64 1 18.694 8.31888 21.1238 
70 1 16.9411 9.05188 22.4702 
71 1 18.7238 8.28346 19.6623 
72 1 19.9731 11.8678 25.09 
81 1 19.9689 8.21161 21.9496 
83 1 16.4914 8.24858 24.6813 
84 1 16.819 7.01782 23.8481 
85 1 17.4987 10.3605 24.5566 
87 1 20.0853 9.47936 22.6615 
97 1 18.2286 7.03522 21.877 
99 1 19.8879 10.4631 24.8475 
100 1 18.6434 10.8698 23.8736 
104 1 15.1361 8.4268 25.2472 
108 1 18.8846 10.3193 22.5911 
111 1 20.6559 9.50046 23.9356 
112 1 17.0749 7.47789 22.5768 
115 1 16.6662 9.49487 23.8342 
118 1 16.9294 9.05846 15.6242 
121 1 16.8519 7.02904 14.2534 
122 1 20.0798 9.4841 15.4346 
125 1 18.6285 10.8689 14.2249 
ITEM: TIMESTEP
60
ITEM: NUMBER OF ATOMS
129
ITEM: BOX BOUNDS xy xz yz pp pp pp
0.0000000000000000e+00 2.3654499999999999e+01 7.8845000000000001e+00
0.0000000000000000e+00 1.3658086643083999e+01 0.0000000000000000e+00
0.0000000000000000e+00 2.5747000000000000e+01 0.0000000000000000e+00
ITEM: ATOMS id type x y z 
18 1 10.2767 6.80841 2.64632 
28 1 5.13137 4.63723 12.9484 
31 1 9.30974 6.67458 0.37697 
62 1 9.21601 5.25894 12.1993 
91 1 9.30979 6.67608 11.9575 
92 1 10.5347 6.28168 11.0003 
106 1 10.2772 6.80834 9.68856 
127 1 10.5346 6.28053 1.3336 
4 1 4.45957 5.8261 13.2177 
5 1 3.25398 5.77139 14.1938 
43 1 4.53345 6.9905 15.5073 
52 1 9.21675 5.25854 25.8832 
66 1 4.39309 5.94359 24.8013 
67 1 5.10417 7.02973 23.9135 
88 1 5.08465 4.71042 25.1841 
107 1 3.1228 5.73442 23.8973 
116 1 4.57324 6.99157 22.6303 
117 1 4.9967 6.93488 14.1578 
11 1 11.2086 7.56842 3.37755 
12 1 10.5062 8.7601 4.06084 
14 1 9.03313 11.1909 0.412679 
15 1 10.3013 11.3921 1.31309 
16 1 8.23201 8.86689 0.632552 
19 1 10.4782 8.83246 5.56549 
29 1 10.9535 10.0633 3.31248 
32 1 8.51826 7.63417 1.27848 
35 1 12.1419 9.63959 2.63444 
45 1 9.19139 8.92288 3.25536 
47 1 12.7007 8.91913 0.503516 
49 1 11.4358 10.9204 0.641162 
51 1 8.84231 10.1432 2.58106 
53 1 11.2082 7.56887 8.95624 
54 1 10.5061 8.75909 8.27282 
56 1 9.03237 11.1899 11.9227 
57 1 8.31581 10.1056 11.0376 
58 1 11.4355 10.9198 11.6963 
60 1 12.2938 8.13251 9.64406 
61 1 10.478 8.83209 6.76803 
73 1 9.19097 8.92257 9.07827 
75 1 12.6961 8.91793 11.8286 
76 1 12.389 10.1241 10.9923 
79 1 9.06395 7.65979 9.77614 
80 1 8.33993 12.4236 12.3095 
89 1 10.9535 10.063 9.02055 
93 1 8.23178 8.8669 11.7034 
95 1 10.0613 10.9813 9.70238 
105 1 10.3008 11.3918 11.0219 
109 1 8.51765 7.63563 11.0542 
110 1 12.1415 9.63911 9.69887 
114 1 8.84263 10.1431 9.75416 
119 1 8.31604 10.1054 1.29604 
120 1 12.2931 8.13349 2.69009 
123 1 12.3916 10.1244 1.34153 
124 1 9.0648 7.65929 2.55906 
128 1 10.0606 10.9828 2.63264 
6 1 5.06677 8.23489 13.5076 
13 1 9.62544 10.2004 25.0717 
17 1 9.0663 8.91884 25.1318 
30 1 9.88655 7.74306 25.0401 
34 1 11.2344 7.53164 25.1946 
36 1 8.3382 12.424 25.7743 
46 1 11.6507 8.86155 25.0857 
50 1 11.0075 10.1603 25.1607 
55 1 9.62399 10.1992 13.0116 
59 1 11.0068 10.1611 12.9242 
74 1 11.6494 8.86101 12.9978 
78 1 11.2324 7.53256 12.8854 
90 1 9.88495 7.74396 13.0417 
94 1 9.0665 8.91874 12.9479 
101 1 5.19074 8.26692 24.5775 
33 1 11.6851 6.7876 0.666113 
77 1 11.6845 6.78912 11.6693 
41 1 17.8424 6.3042 13.5323 
68 1 17.7588 6.21373 24.5637 
103 1 19.1452 6.13765 22.5816 
126 1 19.1571 6.1405 15.5855 
3 1 19.5888 6.89413 11.9292 
7 1 20.0894 8.25119 12.2739 
10 1 15.1247 8.44363 12.8553 
22 1 19.2933 9.42377 12.1581 
26 1 17.9315 9.63929 12.3126 
38 1 17.5304 8.30414 12.2265 
42 1 18.1714 7.02857 12.3254 
44 1 19.9881 11.8847 13.023 
48 1 12.5341 7.65972 1.37602 
65 1 19.5657 6.93154 0.137944 
69 1 18.1787 6.97676 0.0384604 
82 1 17.5408 8.27746 0.113792 
86 1 17.9604 9.6033 0.0279842 
96 1 14.0428 8.72229 12.3828 
98 1 19.3098 9.38919 0.176203 
102 1 20.1231 8.20887 0.0781994 
113 1 12.5343 7.66005 10.9575 
129 2 19.6623 6.66528 10.845 
1 1 17.8748 9.55793 16.2258 
2 1 18.6862 8.35115 16.9869 
8 1 18.8913 10.3219 15.503 
9 1 18.7192 8.30264 18.445 
20 1 14.0517 8.70874 25.7057 
21 1 18.2245 7.04984 16.2524 
23 1 19.8927 10.4758 13.2592 
24 1 20.6437 9.48124 14.1554 
25 1 17.4907 10.3735 13.5294 
27 1 17.0732 7.4884 15.5326 
37 1 19.967 8.2253 16.1633 
39 1 16.4746 8.24994 13.4221 
40 1 16.6693 9.50011 14.2619 
63 1 17.8862 9.54529 21.8691 
64 1 18.6984 8.32237 21.1259 
70 1 16.9412 9.04539 22.4675 
71 1 18.7245 8.29022 19.6632 
72 1 19.9798 11.871 25.0779 
81 1 19.9734 8.21356 21.9518 
83 1 16.4912 8.24116 24.6848 
84 1 16.8124 7.01923 23.8503 
85 1 17.5046 10.3537 24.559 
87 1 20.0969 9.48089 22.6627 
97 1 18.2302 7.04106 21.879 
99 1 19.8981 10.4553 24.8476 
100 1 18.66 10.8585 23.8805 
104 1 15.1379 8.42499 25.246 
108 1 18.8965 10.3102 22.5901 
111 1 20.6726 9.50145 23.9378 
112 1 17.0702 7.47669 22.5747 
115 1 16.6762 9.48575 23.8365 
118 1 16.935 9.05577 15.6265 
121 1 16.8462 7.03242 14.2538 
122 1 20.0903 9.48689 15.4406 
125 1 18.6509 10.8684 14.212 
ITEM: TIMESTEP
70
ITEM: NUMBER OF ATOMS
129
ITEM: BOX BOUNDS xy xz yz pp pp pp
0.0000000000000000e+00 2.3654499999999999e+01 7.8845000000000001e+00
0.0000000000000000e+00 1.3658086643083999e+01 0.0000000000000000e+00
0.0000000000000000e+00 2.5747000000000000e+01 0.0000000000000000e+00
ITEM: ATOMS id type x y z 
18 1 10.2625 6.81818 2.64214 
28 1 5.13806 4.65439 12.9488 
31 1 9.28967 6.67892 0.370067 
62 1 9.1989 5.26051 12.1835 
91 1 9.28822 6.67998 11.9633 
92 1 10.5204 6.29318 11.0047 
106 1 10.2615 6.81832 9.69247 
127 1 10.5193 6.29195 1.33026 
4 1 4.45915 5.84222 13.2063 
5 1 3.24768 5.78665 14.189 
43 1 4.54359 6.99435 15.5028 
52 1 9.19936 5.26159 25.8988 
66 1 4.3953 5.95148 24.8015 
67 1 5.11343 7.03582 23.9163 
88 1 5.09205 4.7238 25.1897 
107 1 3.1209 5.7417 23.9012 
116 1 4.58108 6.9953 22.6377 
117 1 4.99791 6.94266 14.1487 
11 1 11.1992 7.57058 3.37228 
12 1 10.499 8.75635 4.05963 
14 1 9.02989 11.1833 0.412841 
15 1 10.302 11.3856 1.30884 
16 1 8.21383 8.8635 0.623465 
19 1 10.4773 8.8223 5.56554 
29 1 10.9479 10.056 3.30757 
32 1 8.4954 7.6328 1.27578 
35 1 12.1426 9.64255 2.63392 
45 1 9.18323 8.92076 3.25155 
47 1 12.7014 8.92582 0.50123 
49 1 11.4394 10.9198 0.637413 
51 1 8.83422 10.1393 2.57414 
53 1 11.2001 7.5713 8.96229 
54 1 10.4982 8.7566 8.27443 
56 1 9.02931 11.1824 11.9228 