ITEM: TIMESTEP
0
ITEM: NUMBER OF ATOMS
49
ITEM: BOX BOUNDS pp pp pp
0.0000000000000000e+00 1.1000000000000000e+01
0.0000000000000000e+00 1.1002000000000001e+01
0.0000000000000000e+00 1.1000000000000000e+01
ITEM: ATOMS id type x y z 
10 1 4.603 4.603 4.603 
11 1 3.085 3.085 3.085 
12 1 3.796 3.796 3.796 
46 1 0.726 0.725 0.725 
47 1 2.26 2.259 2.26 
48 1 1.551 1.55 1.55 
19 1 4.546 4.545 6.226 
20 1 3.013 3.013 7.764 
21 1 3.721 3.721 7.053 
31 1 0.668 0.667 10.103 
32 1 2.187 2.187 8.589 
33 1 1.476 1.475 9.298 
16 1 4.546 6.225 4.546 
17 1 3.013 7.765 3.013 
18 1 3.721 7.053 3.722 
25 1 0.668 10.103 0.668 
26 1 2.188 8.589 2.188 
27 1 1.476 9.298 1.476 
4 1 4.608 6.169 6.169 
5 1 3.086 7.684 7.684 
6 1 3.799 6.974 6.974 
37 1 0.729 10.046 10.046 
38 1 2.259 8.509 8.508 
39 1 1.552 9.219 9.219 
49 2 2.87 7.771 9.462 
13 1 6.225 4.546 4.546 
14 1 7.764 3.013 3.013 
15 1 7.053 3.721 3.722 
28 1 10.102 0.667 0.668 
29 1 8.589 2.187 2.188 
30 1 9.298 1.475 1.476 
1 1 6.168 4.608 6.169 
2 1 7.684 3.086 7.684 
3 1 6.974 3.799 6.974 
40 1 10.045 0.728 10.046 
41 1 8.508 2.259 8.508 
42 1 9.218 1.551 9.218 
7 1 6.169 6.169 4.608 
8 1 7.684 7.684 3.086 
9 1 6.974 6.974 3.799 
43 1 10.046 10.047 0.729 
44 1 8.508 8.509 2.259 
45 1 9.219 9.219 1.552 
22 1 6.229 6.229 6.229 
23 1 7.764 7.765 7.765 
24 1 7.055 7.056 7.055 
34 1 10.108 10.108 10.107 
35 1 8.59 8.59 8.59 
36 1 9.301 9.301 9.3 
ITEM: TIMESTEP
10
ITEM: NUMBER OF ATOMS
49
ITEM: BOX BOUNDS pp pp pp
0.0000000000000000e+00 1.1000000000000000e+01
0.0000000000000000e+00 1.1002000000000001e+01
0.0000000000000000e+00 1.1000000000000000e+01
ITEM: ATOMS id type x y z 
10 1 4.60439 4.60275 4.60294 
11 1 3.08567 3.08598 3.08589 
12 1 3.79732 3.79662 3.79697 
46 1 0.727218 0.722993 0.722842 
47 1 2.26135 2.26076 2.26135 
48 1 1.55235 1.5509 1.55135 
19 1 4.54463 4.54682 6.22726 
20 1 3.01189 3.01103 7.76489 
21 1 3.72041 3.7215 7.0541 
31 1 0.663281 0.680044 10.1069 
32 1 2.18808 2.1859 8.58798 
33 1 1.47333 1.47823 9.30014 
16 1 4.54427 6.22669 4.54719 
17 1 3.01222 7.76534 3.01166 
18 1 3.72027 7.05408 3.72178 
25 1 0.663984 10.1067 0.680769 
26 1 2.18863 8.58832 2.18635 
27 1 1.47361 9.30041 1.47907 
4 1 4.6143 6.16408 6.16243 
5 1 3.11455 7.64635 7.69931 
6 1 3.8055 6.97015 6.9578 
37 1 0.753936 10.0231 10.0256 
38 1 2.1876 8.58833 8.45158 
39 1 1.52161 9.25263 9.23543 
49 2 2.93007 7.70203 9.50698 
13 1 6.22565 4.54545 4.54571 
14 1 7.76472 3.01213 3.01265 
15 1 7.05305 3.72103 3.72125 
28 1 10.1024 0.666813 0.668264 
29 1 8.58978 2.18627 2.1873 
30 1 9.29859 1.47403 1.47484 
1 1 6.16807 4.60692 6.16758 
2 1 7.68345 3.08668 7.6837 
3 1 6.97317 3.79907 6.97292 
40 1 10.047 0.72584 10.0444 
41 1 8.5074 2.2598 8.50741 
42 1 9.21731 1.55215 9.21734 
7 1 6.16913 6.16738 4.60708 
8 1 7.68354 7.68396 3.08639 
9 1 6.97364 6.97306 3.79925 
43 1 10.0483 10.0457 0.727089 
44 1 8.50723 8.50818 2.26012 
45 1 9.21827 9.21831 1.55277 
22 1 6.22803 6.23074 6.23048 
23 1 7.76575 7.76582 7.7655 
24 1 7.05418 7.05626 7.05593 
34 1 10.0946 10.1125 10.1104 
35 1 8.59096 8.58873 8.58872 
36 1 9.29731 9.30341 9.30236 
ITEM: TIMESTEP
20
ITEM: NUMBER OF ATOMS
49
ITEM: BOX BOUNDS pp pp pp
0.0000000000000000e+00 1.1000000000000000e+01
0.0000000000000000e+00 1.1002000000000001e+01
0.0000000000000000e+00 1.1000000000000000e+01
ITEM: ATOMS id type x y z 
10 1 4.60647 4.60396 4.60875 
11 1 3.08758 3.0877 3.08736 
12 1 3.79893 3.79725 3.79885 
46 1 0.731654 0.724451 0.72282 
47 1 2.26133 2.26158 2.26231 
48 1 1.55602 1.55326 1.55277 
19 1 4.54752 4.54477 6.22486 
20 1 3.01287 3.01088 7.76371 
21 1 3.71985 3.72117 7.05499 
31 1 0.659448 0.690626 10.1127 
32 1 2.18678 2.18649 8.5892 
33 1 1.47044 1.4795 9.30265 
16 1 4.54526 6.22666 4.54433 
17 1 3.01144 7.76591 3.01 
18 1 3.71923 7.05514 3.7199 
25 1 0.66055 10.1109 0.691779 
26 1 2.18739 8.58929 2.187 
27 1 1.4711 9.30297 1.48005 
4 1 4.60521 6.17401 6.16074 
5 1 3.16835 7.58361 7.79187 
6 1 3.80724 6.96507 6.9563 
37 1 0.754029 10.0224 10.0338 
38 1 2.17233 8.60384 8.45882 
39 1 1.5048 9.27015 9.23195 
49 2 2.93157 7.70982 9.38884 
13 1 6.22735 4.54518 4.54494 
14 1 7.76677 3.00964 3.00993 
15 1 7.05524 3.71883 3.71963 
28 1 10.1042 0.665901 0.668862 
29 1 8.59101 2.18487 2.18584 
30 1 9.30031 1.47264 1.47366 
1 1 6.16263 4.61153 6.16649 
2 1 7.68131 3.08844 7.68234 
3 1 6.9716 3.79955 6.97139 
40 1 10.048 0.724718 10.0393 
41 1 8.50664 2.26181 8.50709 
42 1 9.21659 1.55277 9.21352 
7 1 6.16779 6.16516 4.61227 
8 1 7.68174 7.68334 3.08809 
9 1 6.97365 6.9709 3.79977 
43 1 10.0473 10.0411 0.726572 
44 1 8.50707 8.50784 2.26084 
45 1 9.21653 9.21572 1.55406 
22 1 6.22939 6.22785 6.22756 
23 1 7.76477 7.76362 7.76343 
24 1 7.05473 7.05679 7.05668 
34 1 10.0839 10.1166 10.1149 
35 1 8.58988 8.59001 8.58978 
36 1 9.29622 9.30583 9.30465 
ITEM: TIMESTEP
30
ITEM: NUMBER OF ATOMS
49
ITEM: BOX BOUNDS pp pp pp
0.0000000000000000e+00 1.1000000000000000e+01
0.0000000000000000e+00 1.1002000000000001e+01
0.0000000000000000e+00 1.1000000000000000e+01
ITEM: ATOMS id type x y z 
10 1 4.60725 4.6037 4.61241 
11 1 3.0881 3.09034 3.08945 
12 1 3.80256 3.79697 3.80096 
46 1 0.732967 0.727363 0.724717 
47 1 2.26561 2.26416 2.26437 
48 1 1.55552 1.55537 1.55482 
19 1 4.54694 4.54284 6.22411 
20 1 3.01201 3.01206 7.7635 
21 1 3.72382 3.71926 7.05276 
31 1 0.656624 0.698315 10.1142 
32 1 2.18742 2.18571 8.58765 
33 1 1.4698 1.48707 9.30482 
16 1 4.54437 6.22805 4.54121 
17 1 3.01164 7.76606 3.00885 
18 1 3.71902 7.05447 3.72001 
25 1 0.65892 10.1122 0.699787 
26 1 2.18796 8.5882 2.18649 
27 1 1.47028 9.30449 1.48642 
4 1 4.59431 6.18471 6.15906 
5 1 3.21102 7.53295 7.85452 
6 1 3.82375 6.94704 6.96034 
37 1 0.748222 10.028 10.0422 
38 1 2.15399 8.62264 8.46613 
39 1 1.49551 9.27974 9.23047 
49 2 2.93721 7.71193 9.28719 
13 1 6.22803 4.54496 4.54271 
14 1 7.76683 3.01005 3.0096 
15 1 7.05544 3.71793 3.71963 
28 1 10.1045 0.665391 0.669915 
29 1 8.59139 2.18372 2.1867 
30 1 9.30029 1.47349 1.47128 
1 1 6.16086 4.61323 6.16656 
2 1 7.68084 3.09014 7.68042 
3 1 6.96794 3.80064 6.97172 
40 1 10.0474 0.725684 10.0373 
41 1 8.50562 2.26335 8.50519 
42 1 9.21529 1.55355 9.21251 
7 1 6.16899 6.16408 4.61477 
8 1 7.68008 7.68263 3.08987 
9 1 6.97315 6.96812 3.80091 
43 1 10.0448 10.0402 0.728291 
44 1 8.50533 8.50503 2.26267 
45 1 9.21437 9.21543 1.55605 
22 1 6.23195 6.22779 6.22689 
23 1 7.76489 7.76351 7.76337 
24 1 7.05453 7.05483 7.05465 
34 1 10.0763 10.1188 10.1167 
35 1 8.59046 8.58824 8.58854 
36 1 9.28796 9.30755 9.30522 
ITEM: TIMESTEP
40
ITEM: NUMBER OF ATOMS
49
ITEM: BOX BOUNDS pp pp pp
0.0000000000000000e+00 1.1000000000000000e+01
0.0000000000000000e+00 1.1002000000000001e+01
0.0000000000000000e+00 1.1000000000000000e+01
ITEM: ATOMS id type x y z 
10 1 4.60928 4.601 4.61623 
11 1 3.08937 3.09233 3.09228 
12 1 3.80564 3.79759 3.80328 
46 1 0.733489 0.733812 0.729574 
47 1 2.26949 2.26674 2.26671 
48 1 1.55661 1.55987 1.55765 
19 1 4.54936 4.52775 6.22028 
20 1 3.01211 3.01082 7.76279 
21 1 3.72575 3.71584 7.05187 
31 1 0.651356 0.710424 10.1182 
32 1 2.18698 2.18839 8.58576 
33 1 1.47033 1.49435 9.30816 
16 1 4.54454 6.22943 4.52799 
17 1 3.01093 7.76813 3.00735 
18 1 3.71883 7.05251 3.71421 
25 1 0.654562 10.1154 0.71248 
26 1 2.1867 8.58673 2.18951 
27 1 1.47142 9.30745 1.49114 
4 1 4.59639 6.18367 6.1391 
5 1 3.23862 7.50296 7.8627 
6 1 3.85446 6.91301 6.9714 
37 1 0.729465 10.0467 10.0643 
38 1 2.14814 8.62937 8.45115 
39 1 1.48362 9.2928 9.22283 
49 2 2.9371 7.71391 9.26402 
13 1 6.2296 4.54463 4.53842 
14 1 7.76757 3.00993 3.0091 
15 1 7.05515 3.71765 3.7188 
28 1 10.1044 0.66674 0.672931 
29 1 8.5909 2.18373 2.1881 
30 1 9.2992 1.47414 1.4706 
1 1 6.15892 4.61517 6.16895 
2 1 7.67955 3.09215 7.67871 
3 1 6.96445 3.80279 6.97225 
40 1 10.0442 0.729398 10.0344 
41 1 8.50364 2.26546 8.502 
42 1 9.2133 1.55559 9.21044 
7 1 6.17202 6.16165 4.61748 
8 1 7.67821 7.6814 3.09185 
9 1 6.97335 6.96541 3.80353 
43 1 10.0388 10.0398 0.733469 
44 1 8.5024 8.50121 2.26543 
45 1 9.21068 9.21453 1.55904 
22 1 6.24543 6.22554 6.22307 
23 1 7.76496 7.76431 7.76352 
24 1 7.0599 7.05219 7.052 
34 1 10.0637 10.122 10.1206 
35 1 8.58711 8.58557 8.58818 
36 1 9.2801 9.30994 9.30425 
ITEM: TIMESTEP
50
ITEM: NUMBER OF ATOMS
49
ITEM: BOX BOUNDS pp pp pp
0.0000000000000000e+00 1.1000000000000000e+01
0.0000000000000000e+00 1.1002000000000001e+01
0.0000000000000000e+00 1.1000000000000000e+01
ITEM: ATOMS id type x y z 
10 1 4.61061 4.59927 4.6149 
11 1 3.0908 3.09174 3.09143 
12 1 3.8036 3.798 3.80503 
46 1 0.731395 0.735077 0.730887 
47 1 2.26884 2.26776 2.26738 
48 1 1.5585 1.55996 1.55783 
19 1 4.55061 4.52652 6.22028 
20 1 3.01236 3.0104 7.76379 
21 1 3.72453 3.71403 7.05047 
31 1 0.651899 0.711536 10.1198 
32 1 2.18774 2.18861 8.58722 
33 1 1.46741 1.49515 9.30705 
16 1 4.54331 6.22917 4.52723 
17 1 3.00954 7.76758 3.0071 
18 1 3.72039 7.05379 3.71269 
25 1 0.654377 10.1169 0.712414 
26 1 2.1877 8.5881 2.18886 
27 1 1.46809 9.30698 1.49276 
4 1 4.59938 6.1812 6.13406 
5 1 3.24147 7.49976 7.86574 
6 1 3.85759 6.9092 6.97552 
37 1 0.73007 10.0459 10.0629 
38 1 2.14157 8.63662 8.45088 
39 1 1.4806 9.29567 9.22138 
49 2 2.94007 7.71087 9.26213 
13 1 6.23034 4.54286 4.53739 
14 1 7.76736 3.0088 3.00963 
15 1 7.05602 3.71895 3.7175 
28 1 10.1039 0.666922 0.67245 
29 1 8.59052 2.18434 2.18646 
30 1 9.30037 1.47273 1.47287 
1 1 6.15831 4.6143 6.16983 
2 1 7.6785 3.09113 7.679 
3 1 6.96641 3.80446 6.97225 
40 1 10.043 0.729361 10.0351 
41 1 8.50281 2.2656 8.50169 
42 1 9.21357 1.55695 9.20943 
7 1 6.17368 6.1603 4.61612 
8 1 7.67864 7.68012 3.09069 
9 1 6.97341 6.96742 3.80546 
43 1 10.0377 10.042 0.734173 
44 1 8.50177 8.50211 2.26601 
45 1 9.21107 9.21323 1.55861 
22 1 6.24668 6.22486 6.22304 
23 1 7.76499 7.7641 7.76393 
24 1 7.06129 7.0518 7.05078 
34 1 10.0625 10.1236 10.1209 
35 1 8.58696 8.58743 8.58767 
36 1 9.27972 9.30888 9.30721 
ITEM: TIMESTEP
60
ITEM: NUMBER OF ATOMS
49
ITEM: BOX BOUNDS pp pp pp
0.0000000000000000e+00 1.1000000000000000e+01
0.0000000000000000e+00 1.1002000000000001e+01
0.0000000000000000e+00 1.1000000000000000e+01
ITEM: ATOMS id type x y z 
10 1 4.61324 4.59586 4.6144 
11 1 3.09004 3.09182 3.0928 
12 1 3.80733 3.79642 3.80448 
46 1 0.727974 0.738925 0.734348 
47 1 2.26901 2.26981 2.26864 
48 1 1.55941 1.56107 1.55824 
19 1 4.55332 4.51972 6.21763 
20 1 3.01111 3.00917 7.76504 
21 1 3.72587 3.70729 7.04839 
31 1 0.648302 0.715109 10.123 
32 1 2.18439 2.18998 8.58872 
33 1 1.46705 1.49753 9.31101 
16 1 4.54443 6.22921 4.52216 
17 1 3.00909 7.76894 3.00438 
18 1 3.71916 7.05293 3.7096 
25 1 0.652277 10.1208 0.713818 
26 1 2.18528 8.59088 2.18877 
27 1 1.46465 9.30954 1.49501 
4 1 4.60511 6.17704 6.12217 
5 1 3.24995 7.49072 7.86816 
6 1 3.87336 6.89121 6.98622 
37 1 0.7248 10.0509 10.0661 
38 1 2.13798 8.64025 8.45181 
39 1 1.47144 9.30547 9.21413 
49 2 2.93725 7.71437 9.25607 
13 1 6.23148 4.54248 4.53265 
14 1 7.76742 3.00843 3.00827 
15 1 7.05661 3.71855 3.71771 
28 1 10.1025 0.668703 0.673759 
29 1 8.58883 2.1849 2.18496 
30 1 9.30343 1.47177 1.47657 
1 1 6.15758 4.61374 6.17146 
2 1 7.677 3.09023 7.67985 
3 1 6.9684 3.8065 6.97184 
40 1 10.0401 0.73103 10.0346 
41 1 8.5018 2.26619 8.49949 
42 1 9.21247 1.55956 9.20969 
7 1 6.17582 6.15693 4.61479 
8 1 7.67707 7.68123 3.08982 
9 1 6.97856 6.96418 3.80745 
43 1 10.0349 10.0429 0.73644 
44 1 8.50074 8.49882 2.26695 
45 1 9.20785 9.21714 1.56146 
22 1 6.25387 6.22158 6.21936 
23 1 7.76642 7.76394 7.7638 
24 1 7.06539 7.05051 7.04911 
34 1 10.059 10.1257 10.1241 
35 1 8.58557 8.58908 8.59116 
36 1 9.27742 9.31292 9.30762 
ITEM: TIMESTEP
70
ITEM: NUMBER OF ATOMS
49
ITEM: BOX BOUNDS pp pp pp
0.0000000000000000e+00 1.1000000000000000e+01
0.0000000000000000e+00 1.1002000000000001e+01
0.0000000000000000e+00 1.1000000000000000e+01
ITEM: ATOMS id type x y z 
10 1 4.61413 4.59516 4.61406 
11 1 3.09124 3.09148 3.09234 
12 1 3.80591 3.79641 3.8057 
46 1 0.728105 0.74001 0.73543 
47 1 2.27 2.27017 2.26884 
48 1 1.55856 1.56282 1.55976 
19 1 4.55462 4.51736 6.21647 
20 1 3.01161 3.00829 7.76455 
21 1 3.7256 3.70705 7.04802 
31 1 0.64811 0.716268 10.1238 
32 1 2.18489 2.19045 8.59002 
33 1 1.46428 1.49842 9.31079 
16 1 4.5437 6.22868 4.52188 
17 1 3.00843 7.76827 3.00427 
18 1 3.72045 7.05378 3.70827 
25 1 0.651185 10.121 0.714708 
26 1 2.18488 8.59142 2.18918 
27 1 1.46351 9.31062 1.49522 
4 1 4.60653 6.1752 6.11889 
5 1 3.25252 7.48791 7.86798 
6 1 3.87697 6.88722 6.99031 
37 1 0.723081 10.0527 10.0655 
38 1 2.13683 8.64143 8.4512 
39 1 1.47113 9.30587 9.2125 
49 2 2.93642 7.7154 9.25444 
13 1 6.23244 4.54146 4.53139 
14 1 7.76829 3.00749 3.00801 
15 1 7.05679 3.71823 3.71566 
28 1 10.1026 0.668638 0.675074 
29 1 8.58956 2.1851 2.18599 
30 1 9.30158 1.47203 1.47556 
1 1 6.15797 4.61404 6.1726 
2 1 7.67794 3.09092 7.67923 
3 1 6.96638 3.80562 6.97289 
40 1 10.0393 0.732585 10.0349 
41 1 8.50174 2.26713 8.49962 
42 1 9.21174 1.55855 9.20893 
7 1 6.17767 6.15645 4.6144 
8 1 7.67851 7.68008 3.09051 
9 1 6.97685 6.96493 3.80655 
43 1 10.0334 10.0442 0.737704 
44 1 8.50038 8.50015 2.26701 
45 1 9.2077 9.2161 1.56147 
22 1 6.2554 6.22097 6.21876 
23 1 7.76679 7.76417 7.76398 
24 1 7.06731 7.04998 7.04887 
34 1 10.0578 10.1275 10.1243 
35 1 8.58482 8.59011 8.59032 
36 1 9.27628 9.31227 9.31014 
ITEM: TIMESTEP
80
ITEM: NUMBER OF ATOMS
49
ITEM: BOX BOUNDS pp pp pp
0.0000000000000000e+00 1.1000000000000000e+01
0.0000000000000000e+00 1.1002000000000001e+01
0.0000000000000000e+00 1.1000000000000000e+01
ITEM: ATOMS id type x y z 
10 1 4.61784 4.59308 4.61249 
11 1 3.09346 3.09065 3.09367 
12 1 3.80858 3.79578 3.8062 
46 1 0.727345 0.744947 0.739417 
47 1 2.27246 2.27276 2.26887 
48 1 1.55346 1.56633 1.56536 
19 1 4.55971 4.50595 6.21125 
20 1 3.01249 3.00464 7.76328 
21 1 3.7263 3.70139 7.04666 
31 1 0.644374 0.719654 10.1279 
32 1 2.18314 2.19402 8.59517 
33 1 1.45738 1.50214 9.31133 
16 1 4.54463 6.22774 4.52027 
17 1 3.00895 7.76749 3.00202 
18 1 3.72037 7.05359 3.70549 
25 1 0.646626 10.1242 0.714834 
26 1 2.18132 8.59471 2.19101 
27 1 1.45977 9.3145 1.49697 
4 1 4.61243 6.16805 6.10615 
5 1 3.26322 7.47633 7.86962 
6 1 3.8955 6.86628 7.00705 
37 1 0.714279 10.0618 10.0622 
38 1 2.13257 8.6458 8.44731 
39 1 1.46545 9.31212 9.206 
49 2 2.93259 7.71993 9.24878 
13 1 6.23577 4.53928 4.52457 
14 1 7.7712 3.00468 3.00786 
15 1 7.05474 3.71982 3.70832 
28 1 10.1009 0.670031 0.679049 
29 1 8.58942 2.18558 2.18771 
30 1 9.30023 1.47236 1.47606 
1 1 6.15837 4.61411 6.17693 
2 1 7.68015 3.09219 7.6788 
3 1 6.9617 3.80336 6.97553 
40 1 10.0346 0.736739 10.0357 
41 1 8.50108 2.26827 8.49824 
42 1 9.20982 1.5603 9.20871 
7 1 6.18456 6.15107 4.61362 
8 1 7.68526 7.67765 3.09526 
9 1 6.969 6.96367 3.79801 
43 1 10.027 10.0526 0.74452 
44 1 8.49542 8.50665 2.27148 
45 1 9.21063 9.20749 1.55799 
22 1 6.26553 6.21674 6.21499 
23 1 7.77041 7.76437 7.76448 
24 1 7.07404 7.04883 7.04653 
34 1 10.0539 10.1323 10.127 
35 1 8.58142 8.59341 8.59378 
36 1 9.27257 9.31654 9.31361 
ITEM: TIMESTEP
90
ITEM: NUMBER OF ATOMS
49
ITEM: BOX BOUNDS pp pp pp
0.0000000000000000e+00 1.1000000000000000e+01
0.0000000000000000e+00 1.1002000000000001e+01
0.0000000000000000e+00 1.1000000000000000e+01
ITEM: ATOMS id type x y z 
10 1 4.61925 4.59203 4.61064 
11 1 3.09343 3.08977 3.09305 
12 1 3.81 3.79431 3.80496 
46 1 0.725 0.743132 0.741771 
47 1 2.26985 2.27297 2.27172 
48 1 1.55604 1.56825 1.56265 
19 1 4.56062 4.50425 6.21103 
20 1 3.0109 3.00409 7.76443 
21 1 3.72861 3.69621 7.04544 
31 1 0.643305 0.719781 10.1272 
32 1 2.1794 2.1951 8.59362 
33 1 1.46034 1.50403 9.31723 
16 1 4.54368 6.22794 4.52085 
17 1 3.00757 7.7678 2.99971 
18 1 3.72036 7.05531 3.70588 
25 1 0.645423 10.1271 0.713321 
26 1 2.17934 8.59694 2.19089 
27 1 1.45785 9.31553 1.49673 
4 1 4.6161 6.16714 6.10701 
5 1 3.26701 7.47268 7.87069 
6 1 3.90115 6.85907 7.0111 
37 1 0.71037 10.0651 10.0611 
38 1 2.13177 8.64665 8.44795 
39 1 1.46627 9.31072 9.20563 
49 2 2.9293 7.72377 9.24439 
13 1 6.23517 4.5413 4.51925 
14 1 7.76983 3.00581 3.00404 
15 1 7.05739 3.71756 3.71172 
28 1 10.1 0.671043 0.68047 
29 1 8.58763 2.18649 2.18697 
30 1 9.30262 1.47157 1.48071 
1 1 6.15613 4.61464 6.17948 
2 1 7.6774 3.08987 7.67996 
3 1 6.96645 3.80693 6.97487 
40 1 10.0316 0.739102 10.0355 
41 1 8.49969 2.2702 8.49627 
42 1 9.20931 1.56116 9.20888 
7 1 6.18278 6.14852 4.61121 
8 1 7.68085 7.67909 3.09133 
9 1 6.97657 6.96263 3.80323 
43 1 10.0303 10.0495 0.743557 
44 1 8.49887 8.50255 2.27076 
45 1 9.20621 9.21412 1.56181 
22 1 6.26814 6.21515 6.21191 
23 1 7.77056 7.76401 7.76188 
24 1 7.07593 7.04616 7.04775 
34 1 10.054 10.1328 10.1277 
35 1 8.57952 8.59519 8.59507 
36 1 9.27197 9.317 9.31468 
ITEM: TIMESTEP
100
ITEM: NUMBER OF ATOMS
49
ITEM: BOX BOUNDS pp pp pp
0.0000000000000000e+00 1.1000000000000000e+01
0.0000000000000000e+00 1.1002000000000001e+01
0.0000000000000000e+00 1.1000000000000000e+01
ITEM: ATOMS id type x y z 
10 1 4.61951 4.59233 4.61064 
11 1 3.0939 3.08962 3.09313 
12 1 3.80978 3.7947 3.80515 
46 1 0.724933 0.744258 0.741556 
47 1 2.2697 2.27365 2.27141 
48 1 1.55586 1.56707 1.56328 
19 1 4.56151 4.50299 6.21062 
20 1 3.01156 3.00363 7.76374 
21 1 3.72826 3.69701 7.04551 
31 1 0.642421 0.720634 10.1277 
32 1 2.17982 2.19557 8.59483 
33 1 1.45887 1.50372 9.31586 
16 1 4.54347 6.22844 4.52127 
17 1 3.00828 7.76787 3.00052 
18 1 3.71973 7.05451 3.70529 
25 1 0.645746 10.1268 0.714025 
26 1 2.1791 8.59664 2.19111 
27 1 1.45819 9.31611 1.49668 
4 1 4.61632 6.16589 6.10604 
5 1 3.26699 7.47217 7.87124 
6 1 3.90209 6.85896 7.01185 
37 1 0.711606 10.064 10.0602 
38 1 2.13156 8.64697 8.4463 
39 1 1.46423 9.31296 9.20472 
49 2 2.93034 7.72254 9.24585 
13 1 6.23508 4.54077 4.51931 
14 1 7.7699 3.00538 3.00452 
15 1 7.05698 3.71856 3.71049 
28 1 10.1005 0.671134 0.680523 
29 1 8.58847 2.18589 2.18812 
30 1 9.30144 1.47237 1.47847 
1 1 6.1565 4.6148 6.1797 
2 1 7.67832 3.0907 7.67933 
3 1 6.9643 3.80606 6.97563 
40 1 10.032 0.739013 10.0363 
41 1 8.50057 2.26923 8.49708 
42 1 9.2092 1.56116 9.20932 
7 1 6.18221 6.14909 4.60988 
8 1 7.68027 7.67916 3.09139 
9 1 6.97747 6.96154 3.80371 
43 1 10.0298 10.0487 0.743606 
44 1 8.49884 8.50188 2.27042 
45 1 9.20596 9.21568 1.56263 
22 1 6.26869 6.21442 6.21277 
23 1 7.77106 7.764 7.76306 
24 1 7.07647 7.04679 7.04639 
34 1 10.0535 10.134 10.1272 
35 1 8.57934 8.59505 8.59519 
36 1 9.27134 9.31759 9.31443 
ITEM: TIMESTEP
110
ITEM: NUMBER OF ATOMS
49
ITEM: BOX BOUNDS pp pp pp
0.0000000000000000e+00 1.1000000000000000e+01
0.0000000000000000e+00 1.1002000000000001e+01
0.0000000000000000e+00 1.1000000000000000e+01
ITEM: ATOMS id type x y z 
10 1 4.6197 4.59238 4.61044 
11 1 3.09404 3.08958 3.09316 
12 1 3.80983 3.79478 3.80515 
46 1 0.725095 0.744598 0.741421 
47 1 2.26981 2.27392 2.27122 
48 1 1.55559 1.56682 1.56392 
19 1 4.56169 4.50258 6.21054 
20 1 3.01156 3.00358 7.76366 
21 1 3.7284 3.6967 7.04542 
31 1 0.642478 0.720668 10.1279 
32 1 2.17998 2.19594 8.5955 
33 1 1.45817 1.50342 9.31501 
16 1 4.54333 6.22857 4.52143 
17 1 3.00825 7.76796 3.00053 
18 1 3.71963 7.05443 3.70531 
25 1 0.645715 10.1266 0.713847 
26 1 2.17907 8.59674 2.19124 
27 1 1.45814 9.31602 1.49663 
4 1 4.61662 6.16561 6.10601 
5 1 3.26712 7.47195 7.87133 
6 1 3.90249 6.85863 7.01234 
37 1 0.711324 10.0644 10.0599 
38 1 2.13146 8.64704 8.44637 
39 1 1.4643 9.31292 9.20439 
49 2 2.93011 7.72278 9.24589 
13 1 6.2351 4.54072 4.51927 
14 1 7.77005 3.00524 3.00485 
15 1 7.05656 3.719 3.7097 
28 1 10.1007 0.671203 0.680813 
29 1 8.58893 2.18592 2.18847 
30 1 9.30069 1.47215 1.47781 
1 1 6.15635 4.6149 6.18006 
2 1 7.67822 3.09073 7.67937 
3 1 6.96442 3.80615 6.97555 
40 1 10.032 0.739083 10.0367 
41 1 8.50052 2.26927 8.49703 
42 1 9.20915 1.56119 9.20943 
7 1 6.18224 6.14905 4.60958 
8 1 7.68034 7.67907 3.09143 
9 1 6.97756 6.9613 3.80369 
43 1 10.0297 10.0484 0.743402 
44 1 8.49877 8.50177 2.27007 
45 1 9.20601 9.21636 1.56326 
22 1 6.26917 6.21393 6.21287 
23 1 7.7713 7.76366 7.76318 
24 1 7.07638 7.04727 7.04607 
34 1 10.0536 10.1342 10.1271 
35 1 8.57909 8.5952 8.59527 
36 1 9.27129 9.31759 9.31443 
ITEM: TIMESTEP
120
ITEM: NUMBER OF ATOMS
49
ITEM: BOX BOUNDS pp pp pp
0.0000000000000000e+00 1.1000000000000000e+01
0.0000000000000000e+00 1.1002000000000001e+01
0.0000000000000000e+00 1.1000000000000000e+01
ITEM: ATOMS id type x y z 
10 1 4.61973 4.59244 4.61038 
11 1 3.09406 3.08959 3.09318 
12 1 3.80992 3.79478 3.80512 
46 1 0.725077 0.744628 0.741461 
47 1 2.26979 2.27394 2.27127 
48 1 1.55553 1.5668 1.56389 
19 1 4.56178 4.50239 6.21048 
20 1 3.01155 3.00349 7.76365 
21 1 3.72845 3.69667 7.04539 
31 1 0.642454 0.720677 10.128 
32 1 2.17992 2.19604 8.59559 
33 1 1.45811 1.5034 9.31498 
16 1 4.54328 6.22859 4.52152 
17 1 3.00825 7.76794 3.00053 
18 1 3.7196 7.05447 3.70536 
25 1 0.645685 10.1266 0.713781 
26 1 2.17903 8.59674 2.19126 
27 1 1.45815 9.31609 1.49666 
4 1 4.61675 6.16549 6.10598 
5 1 3.2672 7.47185 7.87139 
6 1 3.90267 6.85846 7.01253 
37 1 0.711278 10.0645 10.0598 
38 1 2.13144 8.64707 8.44628 
39 1 1.46425 9.31295 9.20431 
49 2 2.93005 7.72283 9.24592 
13 1 6.23512 4.54071 4.51922 
14 1 7.77011 3.00519 3.00498 
15 1 7.05641 3.71914 3.70934 
28 1 10.1006 0.671158 0.680731 
29 1 8.58876 2.18586 2.18835 
30 1 9.30103 1.47222 1.47806 
1 1 6.15644 4.61497 6.18012 
2 1 7.67836 3.09077 7.67927 
3 1 6.96415 3.8061 6.97576 
40 1 10.0319 0.739148 10.0368 
41 1 8.50051 2.26925 8.49701 
42 1 9.20907 1.56129 9.20946 
7 1 6.18225 6.14904 4.60948 
8 1 7.68041 7.67902 3.09145 
9 1 6.97755 6.96123 3.80362 
43 1 10.0296 10.0484 0.743342 
44 1 8.49868 8.50178 2.26994 
45 1 9.20612 9.21653 1.56354 
22 1 6.26923 6.21396 6.21281 
23 1 7.77127 7.76376 7.76311 
24 1 7.07661 7.04702 7.04615 
34 1 10.0535 10.1342 10.1271 
35 1 8.57901 8.59523 8.59532 
36 1 9.27122 9.31768 9.31439 
ITEM: TIMESTEP
128
ITEM: NUMBER OF ATOMS
49
ITEM: BOX BOUNDS pp pp pp
0.0000000000000000e+00 1.1000000000000000e+01
0.0000000000000000e+00 1.1002000000000001e+01
0.0000000000000000e+00 1.1000000000000000e+01
ITEM: ATOMS id type x y z 
10 1 4.61973 4.59244 4.61038 
11 1 3.09406 3.08959 3.0932 
12 1 3.80995 3.79478 3.8051 
46 1 0.725076 0.744629 0.741463 
47 1 2.26978 2.27393 2.27127 
48 1 1.55552 1.5668 1.5639 
19 1 4.56178 4.50237 6.21048 
20 1 3.01155 3.00348 7.76365 
21 1 3.72846 3.69665 7.04538 
31 1 0.642446 0.720676 10.128 
32 1 2.17991 2.19605 8.59559 
33 1 1.45811 1.50341 9.315 
16 1 4.54326 6.22858 4.52152 
17 1 3.00824 7.76793 3.00052 
18 1 3.71961 7.0545 3.70538 
25 1 0.645692 10.1266 0.713788 
26 1 2.17904 8.59677 2.19128 
27 1 1.45813 9.31604 1.49663 
4 1 4.61677 6.16548 6.10598 
5 1 3.26721 7.47183 7.8714 
6 1 3.90269 6.85844 7.01256 
37 1 0.71127 10.0645 10.0598 
38 1 2.13144 8.64707 8.44626 
39 1 1.46425 9.31297 9.2043 
49 2 2.93005 7.72284 9.24592 
13 1 6.23512 4.5407 4.51921 
14 1 7.77012 3.00518 3.00499 
15 1 7.05639 3.71916 3.70929 
28 1 10.1006 0.671157 0.680741 
29 1 8.58877 2.18586 2.18836 
30 1 9.30102 1.47222 1.47805 
1 1 6.15644 4.61499 6.18015 
2 1 7.67837 3.09079 7.67928 
3 1 6.96414 3.80608 6.97575 
40 1 10.0319 0.739163 10.0368 
41 1 8.5005 2.26925 8.49701 
42 1 9.20907 1.56129 9.20945 
7 1 6.18225 6.14903 4.60946 
8 1 7.68041 7.67901 3.09145 
9 1 6.97756 6.96123 3.80363 
43 1 10.0296 10.0484 0.743334 
44 1 8.49867 8.50178 2.26992 
45 1 9.20614 9.21655 1.56357 
22 1 6.26925 6.21395 6.21281 
23 1 7.77127 7.76376 7.76311 
24 1 7.07663 7.04701 7.04614 
34 1 10.0535 10.1342 10.1271 
35 1 8.579 8.59523 8.59532 
36 1 9.27121 9.31769 9.31439 
ITEM: TIMESTEP
130
ITEM: NUMBER OF ATOMS
49
ITEM: BOX BOUNDS pp pp pp
0.0000000000000000e+00 1.1000000000000000e+01
0.0000000000000000e+00 1.1002000000000001e+01
0.0000000000000000e+00 1.1000000000000000e+01
ITEM: ATOMS id type x y z 
10 1 4.61973 4.59244 4.61038 
11 1 3.09406 3.08959 3.09319 
12 1 3.80995 3.79477 3.8051 
46 1 0.725075 0.74463 0.741463 
47 1 2.26978 2.27393 2.27127 
48 1 1.55552 1.5668 1.5639 
19 1 4.56179 4.50237 6.21048 
20 1 3.01155 3.00348 7.76365 
21 1 3.72846 3.69665 7.04538 
31 1 0.642446 0.720677 10.128 
32 1 2.17991 2.19605 8.5956 
33 1 1.45811 1.5034 9.315 
16 1 4.54326 6.22858 4.52152 
17 1 3.00824 7.76793 3.00052 
18 1 3.71961 7.0545 3.70539 
25 1 0.645692 10.1266 0.713789 
26 1 2.17904 8.59677 2.19128 
27 1 1.45813 9.31604 1.49663 
4 1 4.61677 6.16548 6.10598 
5 1 3.26721 7.47183 7.8714 
6 1 3.90269 6.85844 7.01256 
37 1 0.711272 10.0645 10.0598 
38 1 2.13144 8.64707 8.44626 
39 1 1.46424 9.31296 9.2043 
49 2 2.93005 7.72284 9.24592 
13 1 6.23512 4.5407 4.51921 
14 1 7.77012 3.00518 3.00499 
15 1 7.05639 3.71916 3.70929 
28 1 10.1006 0.671156 0.68074 
29 1 8.58877 2.18585 2.18835 
30 1 9.30103 1.47222 1.47806 
1 1 6.15644 4.61499 6.18015 
2 1 7.67837 3.09078 7.67928 
3 1 6.96414 3.80608 6.97576 
40 1 10.0319 0.739164 10.0368 
41 1 8.5005 2.26925 8.49701 
42 1 9.20907 1.5613 9.20945 
7 1 6.18225 6.14903 4.60946 
8 1 7.68042 7.67901 3.09145 
9 1 6.97756 6.96122 3.80362 
43 1 10.0296 10.0484 0.743334 
44 1 8.49867 8.50178 2.26992 
45 1 9.20614 9.21655 1.56357 
22 1 6.26925 6.21395 6.21281 
23 1 7.77127 7.76375 7.76311 
24 1 7.07663 7.04701 7.04614 
34 1 10.0535 10.1342 10.1271 
35 1 8.579 8.59523 8.59533 
36 1 9.27121 9.31769 9.31439 
ITEM: TIMESTEP
133
ITEM: NUMBER OF ATOMS
49
ITEM: BOX BOUNDS pp pp pp
0.0000000000000000e+00 1.1000000000000000e+01
0.0000000000000000e+00 1.1002000000000001e+01
0.0000000000000000e+00 1.1000000000000000e+01
ITEM: ATOMS id type x y z 
10 1 4.61973 4.59244 4.61038 
11 1 3.09406 3.08959 3.09319 
12 1 3.80995 3.79477 3.8051 
46 1 0.725074 0.744631 0.741464 
47 1 2.26978 2.27394 2.27127 
48 1 1.55552 1.5668 1.5639 
19 1 4.56179 4.50237 6.21048 
20 1 3.01155 3.00348 7.76365 
21 1 3.72846 3.69665 7.04538 
31 1 0.642446 0.720677 10.128 
32 1 2.17991 2.19605 8.5956 
33 1 1.45811 1.5034 9.315 
16 1 4.54326 6.22858 4.52152 
17 1 3.00824 7.76793 3.00051 
18 1 3.71961 7.05451 3.70539 
25 1 0.645692 10.1266 0.713789 
26 1 2.17904 8.59677 2.19129 
27 1 1.45813 9.31603 1.49663 
4 1 4.61677 6.16547 6.10598 
5 1 3.26721 7.47183 7.8714 
6 1 3.90269 6.85843 7.01256 
37 1 0.71127 10.0645 10.0598 
38 1 2.13144 8.64707 8.44626 
39 1 1.46424 9.31296 9.2043 
49 2 2.93005 7.72284 9.24592 
13 1 6.23512 4.5407 4.51921 
14 1 7.77012 3.00518 3.00499 
15 1 7.05639 3.71916 3.70929 
28 1 10.1006 0.671156 0.680739 
29 1 8.58877 2.18585 2.18835 
30 1 9.30103 1.47222 1.47806 
1 1 6.15644 4.61499 6.18015 
2 1 7.67837 3.09078 7.67928 
3 1 6.96414 3.80608 6.97575 
40 1 10.0319 0.739164 10.0368 
41 1 8.5005 2.26925 8.49701 
42 1 9.20907 1.5613 9.20945 
7 1 6.18225 6.14903 4.60946 
8 1 7.68042 7.67901 3.09145 
9 1 6.97756 6.96122 3.80362 
43 1 10.0296 10.0484 0.743333 
44 1 8.49867 8.50178 2.26992 
45 1 9.20614 9.21656 1.56358 
22 1 6.26925 6.21395 6.21281 
23 1 7.77127 7.76375 7.76311 
24 1 7.07663 7.04701 7.04614 
34 1 10.0535 10.1342 10.1271 
35 1 8.579 8.59523 8.59533 
36 1 9.27121 9.31769 9.31439 
ITEM: TIMESTEP
140
ITEM: NUMBER OF ATOMS
49
ITEM: BOX BOUNDS pp pp pp
-3.0217071350570894e-03 1.1003021707135058e+01
-3.1045083700940472e-03 1.1005104508370096e+01
-8.4991124883195202e-05 1.1000084991124881e+01
ITEM: ATOMS id type x y z 
10 1 4.61953 4.59217 4.6106 
11 1 3.09284 3.08831 3.09323 
12 1 3.80894 3.79373 3.80502 
46 1 0.722224 0.741715 0.741165 
47 1 2.26788 2.272 2.27112 
48 1 1.55319 1.56444 1.56369 
19 1 4.56153 4.50194 6.21024 
20 1 3.01028 3.00217 7.76357 
21 1 3.72767 3.69572 7.04524 
31 1 0.639484 0.717727 10.1283 
32 1 2.17797 2.19414 8.59575 
33 1 1.45596 1.50121 9.31498 
16 1 4.54291 6.2288 4.52179 
17 1 3.00697 7.7691 3.00057 
18 1 3.71876 7.05526 3.70552 
25 1 0.642742 10.1295 0.713446 
26 1 2.17711 8.59862 2.19117 
27 1 1.45598 9.31811 1.49663 
4 1 4.61655 6.1656 6.10569 
5 1 3.26612 7.4728 7.87135 
6 1 3.90177 6.85925 7.01281 
37 1 0.708407 10.0674 10.06 
38 1 2.12963 8.64888 8.44638 
39 1 1.46173 9.31525 9.20454 
49 2 2.9286 7.72414 9.24586 
13 1 6.23529 4.5404 4.51938 
14 1 7.77129 3.00386 3.0051 
15 1 7.05705 3.71835 3.70929 
28 1 10.1033 0.668171 0.680429 
29 1 8.59055 2.18389 2.18821 
30 1 9.30305 1.47001 1.4781 
1 1 6.15652 4.61478 6.17999 
2 1 7.6795 3.08952 7.67922 
3 1 6.96499 3.80504 6.97589 
40 1 10.0346 0.736252 10.0371 
41 1 8.50222 2.26733 8.49716 
42 1 9.21127 1.55894 9.20965 
7 1 6.18242 6.14911 4.60968 
8 1 7.68157 7.68013 3.0915 
9 1 6.97842 6.96212 3.80349 
43 1 10.0323 10.0512 0.743004 
44 1 8.50038 8.50358 2.26973 
45 1 9.20838 9.21886 1.56345 
22 1 6.26952 6.21409 6.21258 
23 1 7.77243 7.76493 7.76304 
24 1 7.07738 7.04771 7.04601 
34 1 10.0563 10.1371 10.1274 
35 1 8.58074 8.59709 8.59547 
36 1 9.2732 9.31977 9.31438 
ITEM: TIMESTEP
150
ITEM: NUMBER OF ATOMS
49
ITEM: BOX BOUNDS pp pp pp
-6.2974128077786708e-03 1.1006297412807781e+01
-6.3212647571374422e-03 1.1008321264757139e+01
2.4097864129323586e-03 1.0997590213587065e+01
ITEM: ATOMS id type x y z 
10 1 4.61972 4.59216 4.61155 
11 1 3.09167 3.0871 3.09456 
12 1 3.80777 3.79254 3.80553 
46 1 0.718821 0.738407 0.742807 
47 1 2.26541 2.26963 2.27211 
48 1 1.55073 1.56204 1.5654 
19 1 4.56165 4.50164 6.20931 
20 1 3.00929 3.00115 7.76205 
21 1 3.72678 3.69463 7.04439 
31 1 0.635912 0.714416 10.1268 
32 1 2.17571 2.19203 8.59463 
33 1 1.45367 1.49915 9.3131 
16 1 4.54275 6.22877 4.52292 
17 1 3.00596 7.76991 3.00219 
18 1 3.71777 7.05613 3.70649 
25 1 0.63923 10.1328 0.715059 
26 1 2.17487 8.6007 2.19244 
27 1 1.45373 9.32017 1.49868 
4 1 4.61664 6.16541 6.10476 
5 1 3.26499 7.47375 7.87011 
6 1 3.90096 6.85989 7.01238 
37 1 0.704841 10.0707 10.0584 
38 1 2.1275 8.65068 8.44557 
39 1 1.45916 9.31789 9.20296 
49 2 2.92683 7.72572 9.24394 
13 1 6.23509 4.54049 4.52017 
14 1 7.77214 3.00291 3.00675 
15 1 7.05777 3.71753 3.71008 
28 1 10.1067 0.664765 0.682078 
29 1 8.59263 2.18171 2.1895 
30 1 9.30514 1.46783 1.48014 
1 1 6.15626 4.61491 6.17928 
2 1 7.68056 3.08834 7.67802 
3 1 6.96606 3.80387 6.97545 
40 1 10.0379 0.732954 10.0357 
41 1 8.50449 2.26496 8.49628 
42 1 9.21355 1.55655 9.20812 
7 1 6.18232 6.14878 4.61058 
8 1 7.68267 7.68115 3.0928 
9 1 6.97959 6.96309 3.80403 
43 1 10.0355 10.0543 0.744569 
44 1 8.50256 8.50585 2.27061 
45 1 9.21081 9.22128 1.56539 