ITEM: TIMESTEP
0
ITEM: NUMBER OF ATOMS
321
ITEM: BOX BOUNDS pp pp pp
0.0000000000000000e+00 1.9018000000000001e+01
0.0000000000000000e+00 1.9018000000000001e+01
0.0000000000000000e+00 1.9018000000000001e+01
ITEM: ATOMS id type x y z 
10 1 6.117 6.117 0.228 
22 1 0.228 6.117 6.117 
34 1 6.117 0.228 6.117 
89 1 3.299 4.982 1.363 
90 1 1.962 4.752 0.945 
97 1 4.982 3.299 1.363 
98 1 4.752 3.716 2.699 
105 1 3.299 1.362 4.982 
106 1 3.716 2.699 4.752 
121 1 4.982 1.362 3.299 
122 1 4.752 0.945 1.962 
125 1 8.053 8.053 0.228 
127 1 0.422 4.239 4.239 
130 1 4.239 0.422 4.239 
133 1 0.422 0.422 0.422 
136 1 4.239 4.239 0.422 
157 1 1.363 3.299 4.982 
158 1 0.945 1.962 4.752 
165 1 1.363 4.982 3.299 
166 1 2.699 4.752 3.716 
189 1 0.228 8.053 8.053 
207 1 8.053 0.228 8.053 
277 1 4.752 1.962 0.945 
284 1 3.716 4.752 2.699 
297 1 2.699 3.716 4.752 
306 1 0.945 4.752 1.962 
315 1 1.962 0.945 4.752 
319 1 4.752 2.699 3.716 
11 1 7.454 5.7 19.015 
16 1 4.433 6.117 17.562 
17 1 4.664 7.454 17.979 
25 1 6.117 4.433 17.562 
26 1 5.7 4.664 16.225 
39 1 8.994 8.994 18.502 
42 1 5.176 5.176 18.502 
43 1 1.363 1.362 18.696 
44 1 0.945 2.699 18.927 
45 1 5.176 8.994 14.685 
48 1 8.994 5.176 14.685 
79 1 3.299 3.299 18.696 
80 1 3.716 1.962 18.927 
85 1 3.299 9.187 12.807 
86 1 1.962 9.418 13.224 
95 1 9.187 3.299 12.807 
96 1 9.418 3.716 11.47 
119 1 9.187 1.362 10.871 
120 1 9.418 0.945 12.208 
126 1 6.716 8.47 19.015 
144 1 9.506 6.716 17.979 
148 1 8.47 9.506 16.225 
161 1 1.363 9.187 10.871 
162 1 2.699 9.418 10.454 
179 1 6.117 8.053 13.942 
180 1 7.454 8.47 14.173 
185 1 4.433 8.053 15.626 
186 1 4.664 6.716 15.209 
200 1 5.7 9.506 16.963 
201 1 8.053 4.433 15.626 
202 1 8.47 4.664 16.963 
215 1 8.053 6.117 13.942 
216 1 6.716 5.7 14.173 
220 1 9.506 7.454 15.209 
227 1 2.699 0.945 18.927 
240 1 5.7 7.454 19.015 
242 1 7.454 4.664 17.979 
245 1 4.664 5.7 16.225 
252 1 8.47 6.716 19.015 
254 1 6.716 9.506 17.979 
257 1 9.506 8.47 16.225 
264 1 8.47 7.454 14.173 
266 1 6.716 4.664 15.209 
269 1 9.506 5.7 16.963 
274 1 1.962 3.716 18.927 
279 1 9.418 1.962 13.224 
281 1 3.716 9.418 11.47 
288 1 5.7 6.716 14.173 
290 1 7.454 9.506 15.209 
293 1 4.664 8.47 16.963 
307 1 0.945 9.418 12.208 
317 1 9.418 2.699 10.454 
4 1 6.117 17.562 4.433 
5 1 7.454 17.979 4.664 
13 1 4.433 17.562 6.117 
14 1 4.664 16.225 5.7 
35 1 5.7 19.015 7.454 
51 1 8.994 18.502 8.994 
54 1 5.176 18.502 5.176 
55 1 1.363 18.696 1.363 
56 1 2.699 18.927 0.945 
57 1 8.994 14.685 5.176 
60 1 5.176 14.685 8.994 
93 1 9.187 10.871 1.363 
94 1 9.418 10.454 2.699 
103 1 3.299 12.807 9.187 
104 1 3.716 11.47 9.418 
113 1 3.299 18.696 3.299 
114 1 1.962 18.927 3.716 
117 1 9.187 12.807 3.299 
118 1 9.418 13.224 1.962 
131 1 8.053 15.626 4.433 
132 1 6.716 15.209 4.664 
142 1 9.506 16.963 5.7 
149 1 8.053 13.942 6.117 
150 1 8.47 14.173 7.454 
155 1 1.363 10.871 9.187 
156 1 0.945 12.208 9.418 
184 1 7.454 15.209 9.506 
187 1 4.433 15.626 8.053 
188 1 4.664 16.963 8.47 
193 1 6.117 13.942 8.053 
194 1 5.7 14.173 6.716 
208 1 8.47 19.015 6.716 
212 1 6.716 17.979 9.506 
218 1 9.506 16.225 8.47 
235 1 0.945 18.927 2.699 
237 1 5.7 16.225 4.664 
244 1 7.454 19.015 5.7 
246 1 4.664 17.979 7.454 
249 1 8.47 16.963 4.664 
256 1 6.716 14.173 5.7 
258 1 9.506 15.209 7.454 
261 1 8.47 16.225 9.506 
268 1 6.716 19.015 8.47 
270 1 9.506 17.979 6.716 
280 1 9.418 12.208 0.945 
285 1 5.7 16.963 9.506 
292 1 7.454 14.173 8.47 
294 1 4.664 15.209 6.716 
299 1 2.699 10.454 9.418 
311 1 3.716 18.927 1.962 
313 1 1.962 13.224 9.418 
318 1 9.418 11.47 3.716 
15 1 0.422 9.931 9.931 
18 1 0.422 13.748 13.748 
19 1 0.228 17.562 17.562 
21 1 4.239 9.931 13.748 
24 1 4.239 13.748 9.931 
40 1 1.363 12.807 14.491 
41 1 0.945 11.47 14.26 
49 1 1.363 14.491 12.807 
50 1 2.699 14.26 13.224 
76 1 3.299 10.871 14.491 
77 1 3.716 12.208 14.26 
99 1 4.982 10.871 12.807 
100 1 4.752 10.454 11.47 
109 1 3.299 14.491 10.871 
110 1 1.962 14.26 10.454 
123 1 4.982 12.807 10.871 
124 1 4.752 13.224 12.208 
147 1 8.053 9.737 17.562 
183 1 6.117 15.626 9.737 
191 1 0.228 15.626 15.626 
199 1 6.117 9.737 15.626 
211 1 8.053 17.562 9.737 
225 1 2.699 13.224 14.26 
234 1 0.945 14.26 11.47 
276 1 1.962 10.454 14.26 
278 1 4.752 12.208 13.224 
310 1 3.716 14.26 12.208 
320 1 4.752 11.47 10.454 
1 1 17.562 6.117 4.433 
2 1 16.225 5.7 4.664 
23 1 19.015 7.454 5.7 
28 1 17.562 4.433 6.117 
29 1 17.979 4.664 7.454 
63 1 18.502 8.994 8.994 
66 1 18.502 5.176 5.176 
67 1 18.696 1.362 1.363 
68 1 18.927 0.945 2.699 
69 1 14.685 5.176 8.994 
72 1 14.685 8.994 5.176 
87 1 10.871 9.187 1.363 
88 1 12.208 9.418 0.945 
101 1 10.871 1.362 9.187 
102 1 10.454 2.699 9.418 
134 1 15.626 8.053 4.433 
135 1 16.963 8.47 4.664 
139 1 13.942 8.053 6.117 
140 1 14.173 6.716 5.7 
146 1 15.209 9.506 7.454 
153 1 12.807 3.299 9.187 
154 1 13.224 1.962 9.418 
163 1 12.807 9.187 3.299 
164 1 11.47 9.418 3.716 
173 1 18.696 3.299 3.299 
174 1 18.927 3.716 1.962 
182 1 16.225 8.47 9.506 
190 1 19.015 6.716 8.47 
198 1 17.979 9.506 6.716 
203 1 15.626 4.433 8.053 
204 1 15.209 4.664 6.716 
210 1 16.963 5.7 9.506 
223 1 13.942 6.117 8.053 
224 1 14.173 7.454 8.47 
231 1 18.927 2.699 0.945 
238 1 17.979 7.454 4.664 
241 1 16.225 4.664 5.7 
248 1 19.015 5.7 7.454 
250 1 15.209 6.716 4.664 
253 1 16.963 9.506 5.7 
260 1 14.173 8.47 7.454 
262 1 15.209 7.454 9.506 
265 1 16.963 4.664 8.47 
272 1 14.173 5.7 6.716 
282 1 10.454 9.418 2.699 
286 1 17.979 6.716 9.506 
289 1 16.225 9.506 8.47 
296 1 19.015 8.47 6.716 
300 1 11.47 3.716 9.418 
304 1 18.927 1.962 3.716 
308 1 13.224 9.418 1.962 
314 1 12.208 0.945 9.418 
321 2 16.225 5.7 3.314 
27 1 9.931 0.422 9.931 
30 1 13.748 0.422 13.748 
31 1 17.562 0.228 17.562 
33 1 13.748 4.239 9.931 
36 1 9.931 4.239 13.748 
37 1 12.807 1.362 14.491 
38 1 13.224 2.699 14.26 
64 1 14.491 1.362 12.807 
65 1 14.26 0.945 11.47 
73 1 10.871 3.299 14.491 
74 1 10.454 1.962 14.26 
91 1 10.871 4.982 12.807 
92 1 12.208 4.752 13.224 
143 1 9.737 8.053 17.562 
167 1 12.807 4.982 10.871 
168 1 11.47 4.752 10.454 
171 1 14.491 3.299 10.871 
172 1 14.26 3.716 12.208 
181 1 17.562 8.053 9.737 
205 1 15.626 0.228 15.626 
209 1 15.626 6.117 9.737 
219 1 9.737 6.117 15.626 
226 1 11.47 0.945 14.26 
229 1 14.26 2.699 13.224 
275 1 12.208 3.716 14.26 
283 1 10.454 4.752 11.47 
302 1 14.26 1.962 10.454 
305 1 13.224 4.752 12.208 
3 1 9.931 9.931 0.422 
6 1 13.748 13.748 0.422 
7 1 17.562 17.562 0.228 
9 1 9.931 13.748 4.239 
12 1 13.748 9.931 4.239 
52 1 12.807 14.491 1.363 
53 1 11.47 14.26 0.945 
61 1 14.491 12.807 1.363 
62 1 14.26 13.224 2.699 
107 1 10.871 12.807 4.982 
108 1 10.454 11.47 4.752 
111 1 10.871 14.491 3.299 
112 1 12.208 14.26 3.716 
128 1 15.626 15.626 0.228 
141 1 9.737 15.626 6.117 
145 1 15.626 9.737 6.117 
159 1 12.807 10.871 4.982 
160 1 13.224 12.208 4.752 
169 1 14.491 10.871 3.299 
170 1 14.26 10.454 1.962 
197 1 17.562 9.737 8.053 
217 1 9.737 17.562 8.053 
230 1 14.26 11.47 0.945 
233 1 13.224 14.26 2.699 
298 1 11.47 10.454 4.752 
301 1 14.26 12.208 3.716 
309 1 10.454 14.26 1.962 
316 1 12.208 13.224 4.752 
8 1 16.225 17.979 19.015 
20 1 19.015 16.225 17.979 
32 1 17.979 19.015 16.225 
46 1 12.807 12.807 18.696 
47 1 13.224 11.47 18.927 
58 1 12.807 18.696 12.807 
59 1 11.47 18.927 13.224 
70 1 18.696 12.807 12.807 
71 1 18.927 13.224 11.47 
75 1 14.685 14.685 18.502 
78 1 18.502 18.502 18.502 
81 1 18.502 14.685 14.685 
82 1 10.871 10.871 18.696 
83 1 10.454 12.208 18.927 
84 1 14.685 18.502 14.685 
115 1 10.871 18.696 10.871 
116 1 12.208 18.927 10.454 
129 1 16.963 15.209 19.015 
137 1 13.942 15.626 17.562 
138 1 14.173 16.963 17.979 
151 1 15.626 13.942 17.562 
152 1 15.209 14.173 16.225 
175 1 18.696 10.871 10.871 
176 1 18.927 10.454 12.208 
177 1 17.562 15.626 13.942 
178 1 16.225 15.209 14.173 
192 1 19.015 16.963 15.209 
195 1 17.562 13.942 15.626 
196 1 17.979 14.173 16.963 
206 1 15.209 19.015 16.963 
213 1 15.626 17.562 13.942 
214 1 16.963 17.979 14.173 
221 1 13.942 17.562 15.626 
222 1 14.173 16.225 15.209 
228 1 11.47 13.224 18.927 
232 1 18.927 11.47 13.224 
236 1 13.224 18.927 11.47 
239 1 17.979 16.225 19.015 
243 1 16.225 19.015 17.979 
247 1 19.015 17.979 16.225 
251 1 15.209 16.963 19.015 
255 1 16.963 14.173 17.979 
259 1 14.173 15.209 16.225 
263 1 15.209 16.225 14.173 
267 1 16.963 19.015 15.209 
271 1 14.173 17.979 16.963 
273 1 12.208 10.454 18.927 
287 1 17.979 16.963 14.173 
291 1 16.225 14.173 15.209 
295 1 19.015 15.209 16.963 
303 1 18.927 12.208 10.454 
312 1 10.454 18.927 12.208 
ITEM: TIMESTEP
10
ITEM: NUMBER OF ATOMS
321
ITEM: BOX BOUNDS pp pp pp
0.0000000000000000e+00 1.9018000000000001e+01
0.0000000000000000e+00 1.9018000000000001e+01
0.0000000000000000e+00 1.9018000000000001e+01
ITEM: ATOMS id type x y z 
10 1 6.11694 6.11694 0.25265 
22 1 0.233789 6.09907 6.1052 
34 1 6.11696 0.252661 6.11696 
89 1 3.29853 5.00703 1.36267 
90 1 1.94496 4.80188 0.907313 
97 1 5.00717 3.29862 1.36289 
98 1 4.80204 3.7544 2.71562 
105 1 3.29853 1.36221 5.00719 
106 1 3.7541 2.71609 4.80237 
121 1 5.00726 1.36228 3.29826 
122 1 4.80195 0.906761 1.94549 
125 1 8.05305 8.05305 0.252628 
127 1 0.421703 4.2371 4.24146 
130 1 4.23618 0.424471 4.23596 
133 1 0.424952 0.424608 0.424764 
136 1 4.23614 4.23599 0.424662 
157 1 1.36289 3.29844 5.00806 
158 1 0.906355 1.94566 4.80181 
165 1 1.36101 5.00508 3.30046 
166 1 2.71414 4.80196 3.75495 
189 1 0.254061 8.05443 8.04943 
207 1 8.05302 0.252645 8.05302 
277 1 4.80205 1.94529 0.906933 
284 1 3.754 4.80219 2.71607 
297 1 2.71506 3.7548 4.80191 
306 1 0.906305 4.8014 1.94724 
315 1 1.94523 0.906823 4.80211 
319 1 4.80246 2.71572 3.75411 
11 1 7.46987 5.66134 19.0654 
16 1 4.4082 6.11703 17.5619 
17 1 4.61355 7.4699 18.0177 
25 1 6.11704 4.4082 17.5619 
26 1 5.66132 4.61356 16.2091 
39 1 8.99056 8.99056 18.4995 
42 1 5.17939 5.17938 18.4995 
43 1 1.36283 1.36221 18.6717 
44 1 0.906941 2.71559 18.877 
45 1 5.17938 8.99059 14.6884 
48 1 8.99061 5.17936 14.6884 
79 1 3.29836 3.29862 18.6715 
80 1 3.75416 1.94533 18.8767 
85 1 3.29852 9.16234 12.8071 
86 1 1.94597 9.36782 13.2628 
95 1 9.16233 3.29866 12.807 
96 1 9.36743 3.75426 11.4539 
119 1 9.16237 1.36247 10.8712 
120 1 9.36759 0.906614 12.2242 
126 1 6.70011 8.50862 19.0654 
144 1 9.55648 6.70008 18.0176 
148 1 8.50866 9.55646 16.2091 
161 1 1.36314 9.16221 10.8713 
162 1 2.71532 9.36768 10.4152 
179 1 6.11701 8.05298 13.9172 
180 1 7.4699 8.50866 14.1226 
185 1 4.40824 8.05304 15.626 
186 1 4.61355 6.70012 15.1703 
200 1 5.66133 9.55645 16.9789 
201 1 8.05303 4.40824 15.626 
202 1 8.50869 4.61356 16.9789 
215 1 8.05298 6.11701 13.9172 
216 1 6.7001 5.66137 14.1225 
220 1 9.55645 7.46986 15.1703 
227 1 2.71551 0.906758 18.8769 
240 1 5.66135 7.46987 19.0654 
242 1 7.4699 4.61356 18.0177 
245 1 4.61356 5.66131 16.2091 
252 1 8.50863 6.70011 19.0654 
254 1 6.70008 9.55648 18.0176 
257 1 9.55646 8.50865 16.2091 
264 1 8.50866 7.46989 14.1226 
266 1 6.70012 4.61354 15.1703 
269 1 9.55645 5.66133 16.9789 
274 1 1.94553 3.75421 18.8771 
279 1 9.36771 1.94573 13.2626 
281 1 3.75454 9.36741 11.4539 
288 1 5.66136 6.7001 14.1225 
290 1 7.46987 9.55645 15.1703 
293 1 4.61356 8.5087 16.9789 
307 1 0.906635 9.36758 12.2242 
317 1 9.36763 2.71528 10.4155 
4 1 6.11708 17.5619 4.40819 
5 1 7.46992 18.0177 4.61355 
13 1 4.40819 17.5619 6.11707 
14 1 4.61356 16.2091 5.6613 
35 1 5.66132 19.0654 7.46988 
51 1 8.99052 18.4994 8.99052 
54 1 5.17946 18.4994 5.17945 
55 1 1.3626 18.6716 1.36251 
56 1 2.71552 18.8769 0.906578 
57 1 8.99058 14.6884 5.17939 
60 1 5.17938 14.6884 8.99059 
93 1 9.16243 10.8711 1.36277 
94 1 9.36767 10.4151 2.71516 
103 1 3.29853 12.8071 9.16234 
104 1 3.75453 11.4539 9.36741 
113 1 3.29864 18.6713 3.29849 
114 1 1.94559 18.8765 3.75436 
117 1 9.16235 12.8072 3.2984 
118 1 9.36783 13.2627 1.94601 
131 1 8.05306 15.626 4.40826 
132 1 6.70011 15.1703 4.61354 
142 1 9.55647 16.9789 5.66133 
149 1 8.053 13.9173 6.11699 
150 1 8.50866 14.1225 7.4699 
155 1 1.36313 10.8712 9.16221 
156 1 0.906636 12.2242 9.36758 
184 1 7.46986 15.1703 9.55646 
187 1 4.40825 15.626 8.05305 
188 1 4.61354 16.9789 8.50869 
193 1 6.117 13.9172 8.05299 
194 1 5.66137 14.1225 6.7001 
208 1 8.50864 19.0654 6.70011 
212 1 6.70008 18.0176 9.55649 
218 1 9.55646 16.2091 8.50867 
235 1 0.906518 18.8769 2.71545 
237 1 5.66129 16.209 4.61356 
244 1 7.46988 19.0654 5.66132 
246 1 4.61355 18.0177 7.46992 
249 1 8.5087 16.9789 4.61354 
256 1 6.7001 14.1225 5.66137 
258 1 9.55646 15.1703 7.46987 
261 1 8.50867 16.209 9.55646 
268 1 6.70011 19.0654 8.50864 
270 1 9.55649 18.0176 6.70008 
280 1 9.36761 12.2241 0.9067 
285 1 5.66133 16.9789 9.55647 
292 1 7.46989 14.1225 8.50865 
294 1 4.61353 15.1703 6.70012 
299 1 2.71532 10.4152 9.36768 
311 1 3.7545 18.8768 1.94551 
313 1 1.94596 13.2628 9.36782 
318 1 9.36733 11.454 3.7546 
15 1 0.425279 9.93401 9.93403 
18 1 0.424758 13.7448 13.7448 
19 1 0.252719 17.5619 17.5619 
21 1 4.23598 9.9335 13.7447 
24 1 4.23598 13.7447 9.9335 
40 1 1.36271 12.8072 14.5157 
41 1 0.906665 11.454 14.3104 
49 1 1.36271 14.5157 12.8072 
50 1 2.71517 14.3103 13.2628 
76 1 3.29836 10.8711 14.5158 
77 1 3.75448 12.2242 14.3106 
99 1 5.00736 10.8712 12.8069 
100 1 4.80232 10.4155 11.4539 
109 1 3.29836 14.5158 10.8711 
110 1 1.94588 14.3102 10.4153 
123 1 5.00736 12.8069 10.8712 
124 1 4.80229 13.2626 12.2242 
147 1 8.05295 9.7618 17.5619 
183 1 6.11696 15.626 9.76177 
191 1 0.252642 15.6259 15.6259 
199 1 6.11696 9.76178 15.626 
211 1 8.0529 17.5619 9.76182 
225 1 2.71517 13.2628 14.3103 
234 1 0.906666 14.3104 11.454 
276 1 1.94588 10.4153 14.3102 
278 1 4.80229 12.2242 13.2626 
310 1 3.75447 14.3106 12.2242 
320 1 4.80233 11.4539 10.4155 
1 1 17.6022 6.10697 4.16401 
2 1 15.9758 5.59376 4.57723 
23 1 19.0481 7.46695 5.66206 
28 1 17.5793 4.43064 6.10266 
29 1 18.0188 4.6124 7.46727 
63 1 18.497 8.99239 8.99118 
66 1 18.4879 5.20962 5.15415 
67 1 18.6717 1.3622 1.3627 
68 1 18.8768 0.907139 2.71583 
69 1 14.6891 5.17862 9.00408 
72 1 14.6917 8.98959 5.18207 
87 1 10.8709 9.1622 1.36276 
88 1 12.2246 9.36757 0.906745 
101 1 10.8711 1.36239 9.16242 
102 1 10.4152 2.71507 9.36765 
134 1 15.6319 8.07502 4.39274 
135 1 17.0041 8.50158 4.60857 
139 1 13.8935 8.08796 6.12271 
140 1 14.0292 6.70936 5.72597 
146 1 15.1734 9.56182 7.47085 
153 1 12.8067 3.29836 9.16187 
154 1 13.2627 1.94513 9.3674 
163 1 12.8059 9.1615 3.29723 
164 1 11.4536 9.36766 3.75459 
173 1 18.6719 3.29935 3.29979 
174 1 18.8774 3.75416 1.94706 
182 1 16.2114 8.50947 9.55794 
190 1 19.0664 6.70191 8.51132 
198 1 18.0219 9.55456 6.70221 
203 1 15.63 4.39207 8.08274 
204 1 15.1539 4.58952 6.73602 
210 1 16.9783 5.66225 9.5612 
223 1 13.9071 6.11496 8.07005 
224 1 14.1192 7.47401 8.51083 
231 1 18.8769 2.7161 0.907459 
238 1 18.0153 7.45766 4.63951 
241 1 16.1976 4.61617 5.70361 
248 1 19.067 5.66413 7.46553 
250 1 15.1185 6.79119 4.76438 
253 1 16.9848 9.55728 5.66077 
260 1 14.1229 8.51752 7.47255 
262 1 15.1699 7.47213 9.55858 
265 1 16.988 4.61112 8.51673 
272 1 14.0838 5.61707 6.73081 
282 1 10.4153 9.36767 2.71568 
286 1 18.0205 6.70075 9.55853 
289 1 16.2117 9.55839 8.50964 
296 1 19.0644 8.51206 6.70526 
300 1 11.4533 3.75447 9.36723 
304 1 18.8767 1.94624 3.75464 
308 1 13.2629 9.36802 1.94559 
314 1 12.224 0.906434 9.36754 
321 2 16.6367 5.65227 3.19665 
27 1 9.93374 0.424922 9.93366 
30 1 13.7448 0.424631 13.7447 
31 1 17.5619 0.252717 17.5619 
33 1 13.7422 4.23373 9.9363 
36 1 9.93356 4.23605 13.7446 
37 1 12.807 1.3623 14.5157 
38 1 13.2625 2.71518 14.3104 
64 1 14.5156 1.36222 12.8071 
65 1 14.3105 0.906393 11.4542 
73 1 10.8712 3.29848 14.5158 
74 1 10.4154 1.94565 14.3103 
91 1 10.8711 5.0073 12.807 
92 1 12.2239 4.80228 13.2629 
143 1 9.7618 8.05295 17.5619 
167 1 12.8064 5.00804 10.8716 
168 1 11.4532 4.80251 10.4152 
171 1 14.5162 3.2979 10.8718 
172 1 14.3108 3.75448 12.225 
181 1 17.56 8.05704 9.76264 
205 1 15.6259 0.25265 15.6259 
209 1 15.6289 6.11693 9.76641 
219 1 9.76178 6.11697 15.626 
226 1 11.454 0.906613 14.3104 
229 1 14.3103 2.71495 13.2629 
275 1 12.2242 3.75424 14.3106 
283 1 10.4151 4.8023 11.4541 
302 1 14.3106 1.94491 10.4153 
305 1 13.2629 4.80253 12.2248 
3 1 9.9335 9.93388 0.42485 
6 1 13.7446 13.7449 0.424568 
7 1 17.5619 17.5619 0.252718 
9 1 9.93329 13.7449 4.23577 
12 1 13.7462 9.93293 4.23732 
52 1 12.8071 14.5156 1.3626 
53 1 11.454 14.3104 0.906694 
61 1 14.5159 12.8073 1.36258 
62 1 14.3103 13.2628 2.71555 
107 1 10.8711 12.807 5.0076 
108 1 10.4155 11.4534 4.80237 
111 1 10.871 14.5158 3.29822 
112 1 12.2241 14.3107 3.75457 
128 1 15.6258 15.6258 0.252631 
141 1 9.76176 15.626 6.11694 
145 1 15.6293 9.76663 6.1164 
159 1 12.8052 10.8729 5.00831 
160 1 13.2627 12.2248 4.80199 
169 1 14.5171 10.8729 3.29661 
170 1 14.31 10.4151 1.94531 
197 1 17.5629 9.76116 8.05492 
217 1 9.76182 17.5619 8.0529 
230 1 14.3104 11.4535 0.906708 
233 1 13.2629 14.3104 2.71506 
298 1 11.4533 10.4153 4.802 
301 1 14.3104 12.2248 3.75464 
309 1 10.4154 14.3102 1.94594 
316 1 12.2246 13.2626 4.80235 
8 1 16.2091 18.0176 19.0654 
20 1 19.0654 16.2091 18.0176 
32 1 18.0176 19.0654 16.2091 
46 1 12.807 12.8072 18.6715 
47 1 13.2626 11.4541 18.8766 
58 1 12.8072 18.6714 12.8071 
59 1 11.4541 18.8767 13.2628 
70 1 18.6714 12.8071 12.8071 
71 1 18.8767 13.2626 11.454 
75 1 14.6882 14.6882 18.4997 
78 1 18.4996 18.4996 18.4996 
81 1 18.4997 14.6882 14.6882 
82 1 10.8712 10.8714 18.6714 
83 1 10.4156 12.2241 18.8766 
84 1 14.6883 18.4996 14.6883 
115 1 10.8713 18.6713 10.8712 
116 1 12.2241 18.8766 10.4154 
129 1 16.9788 15.1703 19.0654 
137 1 13.9172 15.626 17.562 
138 1 14.1225 16.9789 18.0176 
151 1 15.626 13.9172 17.562 
152 1 15.1703 14.1226 16.2091 
175 1 18.6711 10.8716 10.8716 
176 1 18.8766 10.4155 12.2243 
177 1 17.562 15.626 13.9172 
178 1 16.2091 15.1703 14.1226 
192 1 19.0654 16.9788 15.1703 
195 1 17.562 13.9172 15.626 
196 1 18.0176 14.1225 16.9789 
206 1 15.1703 19.0654 16.9788 
213 1 15.626 17.5619 13.9172 
214 1 16.9789 18.0176 14.1226 
221 1 13.9172 17.5619 15.626 
222 1 14.1226 16.2091 15.1703 
228 1 11.4541 13.2625 18.8767 
232 1 18.8767 11.454 13.2626 
236 1 13.2627 18.8766 11.4541 
239 1 18.0176 16.2091 19.0654 
243 1 16.2091 19.0654 18.0176 
247 1 19.0654 18.0176 16.2091 
251 1 15.1703 16.9788 19.0654 
255 1 16.9789 14.1225 18.0176 
259 1 14.1226 15.1703 16.2091 
263 1 15.1703 16.2091 14.1226 
267 1 16.9788 19.0654 15.1703 
271 1 14.1226 18.0176 16.9789 
273 1 12.2241 10.4154 18.8766 
287 1 18.0176 16.9789 14.1225 
291 1 16.2091 14.1226 15.1703 
295 1 19.0654 15.1703 16.9788 
303 1 18.8766 12.2243 10.4155 
312 1 10.4153 18.8766 12.2241 
ITEM: TIMESTEP
20
ITEM: NUMBER OF ATOMS
321
ITEM: BOX BOUNDS pp pp pp
0.0000000000000000e+00 1.9018000000000001e+01
0.0000000000000000e+00 1.9018000000000001e+01
0.0000000000000000e+00 1.9018000000000001e+01
ITEM: ATOMS id type x y z 
10 1 6.12366 6.12366 0.238013 
22 1 0.220942 6.10922 6.11279 
34 1 6.12369 0.238006 6.12369 
89 1 3.29147 4.99222 1.3697 
90 1 1.93924 4.80733 0.903547 
97 1 4.99227 3.29189 1.36938 
98 1 4.8071 3.75898 2.72138 
105 1 3.29181 1.36935 4.99222 
106 1 3.75803 2.72151 4.80739 
121 1 4.9924 1.3694 3.2919 
122 1 4.80753 0.9023 1.93988 
125 1 8.04623 8.04624 0.238021 
127 1 0.423721 4.23199 4.24048 
130 1 4.23518 0.425776 4.23516 
133 1 0.425763 0.425801 0.425808 
136 1 4.23509 4.23518 0.42586 
157 1 1.36854 3.29177 4.9997 
158 1 0.90222 1.94043 4.80889 
165 1 1.36755 4.99019 3.29475 
166 1 2.71995 4.80706 3.7596 
189 1 0.241428 8.04524 8.04984 
207 1 8.0462 0.238026 8.0462 
277 1 4.80747 1.94 0.902388 
284 1 3.75779 4.80746 2.72186 
297 1 2.71997 3.75862 4.80908 
306 1 0.902536 4.80706 1.94226 
315 1 1.93967 0.902739 4.80728 
319 1 4.8073 2.72123 3.7588 
11 1 7.47561 5.65676 19.0711 
16 1 4.4229 6.12367 17.5553 
17 1 4.6078 7.47563 18.0222 
25 1 6.12367 4.42291 17.5553 
26 1 5.65678 4.60783 16.2033 
39 1 8.98961 8.98962 18.4986 
42 1 5.18015 5.18016 18.4988 
43 1 1.36914 1.36935 18.6866 
44 1 0.902247 2.7212 18.8718 
45 1 5.18027 8.98972 14.6892 
48 1 8.9897 5.18028 14.6892 
79 1 3.29164 3.29186 18.6866 
80 1 3.75869 1.93994 18.8714 
85 1 3.29196 9.17697 12.8002 
86 1 1.93991 9.36194 13.2673 
95 1 9.17692 3.29182 12.8003 
96 1 9.36148 3.75866 11.4484 
119 1 9.17702 1.36911 10.878 
120 1 9.36192 0.902066 12.2299 
126 1 6.6943 8.51323 19.0711 
144 1 9.56219 6.69431 18.0222 
148 1 8.51324 9.56219 16.2033 
161 1 1.36963 9.17699 10.8783 
162 1 2.72155 9.36179 10.4109 
179 1 6.12373 8.04627 13.9319 
180 1 7.47566 8.51323 14.1168 
185 1 4.42289 8.0463 15.6327 
186 1 4.60781 6.69435 15.1658 
200 1 5.65674 9.5622 16.9846 
201 1 8.04629 4.42288 15.6327 
202 1 8.51322 4.6078 16.9846 
215 1 8.04627 6.12373 13.9319 
216 1 6.69433 5.65677 14.1168 
220 1 9.56221 7.47562 15.1657 
227 1 2.72118 0.902269 18.8714 
240 1 5.65676 7.47561 19.0711 
242 1 7.47563 4.60781 18.0222 
245 1 4.60782 5.65677 16.2033 
252 1 8.51323 6.6943 19.0711 
254 1 6.69431 9.5622 18.0222 
257 1 9.56219 8.51324 16.2033 
264 1 8.51322 7.47566 14.1168 
266 1 6.69435 4.6078 15.1658 
269 1 9.56221 5.65675 16.9846 
274 1 1.93968 3.75893 18.872 
279 1 9.36191 1.93979 13.2672 
281 1 3.75901 9.36181 11.4483 
288 1 5.65676 6.69433 14.1168 
290 1 7.47562 9.5622 15.1657 
293 1 4.60781 8.51322 16.9846 
307 1 0.902226 9.3619 12.23 
317 1 9.36166 2.72109 10.411 
4 1 6.1237 17.5552 4.42292 
5 1 7.47565 18.0222 4.6078 
13 1 4.42291 17.5552 6.1237 
14 1 4.60781 16.2033 5.65678 
35 1 5.65675 19.0711 7.47563 
51 1 8.98959 18.4985 8.98959 
54 1 5.1802 18.4987 5.1802 
55 1 1.3692 18.6865 1.36927 
56 1 2.72122 18.8713 0.902348 
57 1 8.98969 14.6892 5.18028 
60 1 5.18027 14.6892 8.98971 
93 1 9.17703 10.878 1.36929 
94 1 9.36188 10.4109 2.72139 
103 1 3.29196 12.8002 9.17697 
104 1 3.759 11.4483 9.36181 
113 1 3.29171 18.6863 3.29181 
114 1 1.93975 18.8714 3.75869 
117 1 9.17689 12.8002 3.29188 
118 1 9.36194 13.2672 1.9398 
131 1 8.0463 15.6327 4.42289 
132 1 6.69434 15.1657 4.60781 
142 1 9.56221 16.9846 5.65673 
149 1 8.04628 13.9319 6.12372 
150 1 8.51325 14.1168 7.47567 
155 1 1.36958 10.8783 9.17704 
156 1 0.902231 12.23 9.3619 
184 1 7.47562 15.1657 9.56221 
187 1 4.42288 15.6327 8.0463 
188 1 4.6078 16.9846 8.51324 
193 1 6.12372 13.9319 8.04627 
194 1 5.65676 14.1168 6.69434 
208 1 8.51322 19.0711 6.69429 
212 1 6.6943 18.0222 9.56221 
218 1 9.5622 16.2033 8.51323 
235 1 0.902303 18.8715 2.72128 
237 1 5.65677 16.2033 4.60782 
244 1 7.47564 19.0711 5.65676 
246 1 4.6078 18.0222 7.47565 
249 1 8.51325 16.9846 4.6078 
256 1 6.69433 14.1168 5.65675 
258 1 9.56221 15.1657 7.47563 
261 1 8.51322 16.2032 9.5622 
268 1 6.69429 19.0711 8.51323 
270 1 9.56222 18.0222 6.69431 
280 1 9.36198 12.2298 0.902213 
285 1 5.65673 16.9846 9.56221 
292 1 7.47565 14.1168 8.51324 
294 1 4.6078 15.1658 6.69435 
299 1 2.72153 10.4109 9.36179 
311 1 3.75869 18.8713 1.9398 
313 1 1.9399 13.2672 9.36194 
318 1 9.36173 11.4483 3.75886 
15 1 0.426353 9.93509 9.93521 
18 1 0.425594 13.7438 13.7438 
19 1 0.238029 17.5553 17.5553 
21 1 4.23531 9.9345 13.7437 
24 1 4.23531 13.7437 9.9345 
40 1 1.36913 12.8003 14.5011 
41 1 0.902221 11.4484 14.3162 
49 1 1.36913 14.5011 12.8003 
50 1 2.72123 14.3162 13.2672 
76 1 3.2919 10.878 14.5011 
77 1 3.75885 12.2298 14.3162 
99 1 4.99271 10.8778 12.8003 
100 1 4.80791 10.4107 11.4484 
109 1 3.2919 14.5011 10.878 
110 1 1.93983 14.3162 10.411 
123 1 4.99271 12.8003 10.8778 
124 1 4.80785 13.2674 12.2297 
147 1 8.04625 9.74712 17.5552 
183 1 6.12368 15.6327 9.74713 
191 1 0.238063 15.6326 15.6326 
199 1 6.12367 9.74712 15.6327 
211 1 8.04621 17.5552 9.74712 
225 1 2.72123 13.2672 14.3162 
234 1 0.902222 14.3162 11.4484 
276 1 1.93983 10.411 14.3162 
278 1 4.80785 12.2297 13.2674 
310 1 3.75885 14.3162 12.2298 
320 1 4.80791 11.4484 10.4107 
1 1 17.632 6.12089 4.16484 
2 1 15.9926 5.56909 4.47249 
23 1 19.0469 7.47687 5.66708 
28 1 17.5252 4.47985 6.099 
29 1 18.0124 4.61558 7.46096 
63 1 18.4986 8.99052 8.99222 
66 1 18.4939 5.19639 5.15218 
67 1 18.6865 1.3692 1.36939 
68 1 18.8714 0.902353 2.72142 
69 1 14.6963 5.17698 9.01054 
72 1 14.6814 8.99363 5.19391 
87 1 10.8779 9.17702 1.36921 
88 1 12.2298 9.3619 0.902189 
101 1 10.8778 1.36903 9.17709 
102 1 10.4105 2.72095 9.36172 
134 1 15.6235 8.03782 4.45463 
135 1 16.9946 8.50108 4.60648 
139 1 13.8809 8.09257 6.14543 
140 1 14.0282 6.70457 5.74976 
146 1 15.1742 9.57308 7.47692 
153 1 12.7989 3.29061 9.17698 
154 1 13.2674 1.93906 9.36158 
163 1 12.8007 9.17847 3.29226 
164 1 11.4485 9.36219 3.75867 
173 1 18.6853 3.2904 3.29309 
174 1 18.8719 3.75774 1.94151 
182 1 16.2039 8.51446 9.56395 
190 1 19.0715 6.68966 8.51103 
198 1 18.0234 9.56736 6.69517 
203 1 15.6399 4.40936 8.0793 
204 1 15.1542 4.60603 6.73034 
210 1 16.9901 5.65812 9.56478 
223 1 13.9187 6.12036 8.07703 
224 1 14.1173 7.47992 8.51829 
231 1 18.8715 2.72125 0.902873 
238 1 18.0199 7.47075 4.62437 
241 1 16.1632 4.67434 5.68091 
248 1 19.0633 5.65293 7.47583 
250 1 15.0993 6.7383 4.7633 
253 1 16.9914 9.55703 5.65284 
260 1 14.1145 8.53643 7.4993 
262 1 15.1666 7.47706 9.56237 
265 1 16.9985 4.6039 8.51809 
272 1 14.063 5.61688 6.73634 
282 1 10.4109 9.36183 2.72139 
286 1 18.0256 6.697 9.56191 
289 1 16.2059 9.56618 8.51641 
296 1 19.0716 8.5186 6.70014 
300 1 11.4475 3.75912 9.36154 
304 1 18.8713 1.93915 3.76007 
308 1 13.2671 9.36221 1.93979 
314 1 12.2296 0.901731 9.36175 
321 2 16.729 5.59421 3.15281 
27 1 9.93458 0.425726 9.93461 
30 1 13.7438 0.42545 13.7438 
31 1 17.5553 0.238043 17.5553 
33 1 13.7406 4.23214 9.93935 
36 1 9.93443 4.23521 13.7437 
37 1 12.8003 1.3689 14.5011 
38 1 13.267 2.72095 14.3166 
64 1 14.5011 1.36878 12.8005 
65 1 14.3164 0.901432 11.4487 
73 1 10.8778 3.29175 14.5012 
74 1 10.4109 1.93973 14.3162 
91 1 10.8776 4.99273 12.8004 
92 1 12.2294 4.80807 13.268 
143 1 9.74712 8.04625 17.5552 
167 1 12.7978 4.99344 10.8803 
168 1 11.4469 4.80812 10.4103 
171 1 14.5012 3.28918 10.8806 
172 1 14.3164 3.75922 12.2315 
181 1 17.5559 8.04732 9.7484 
205 1 15.6326 0.238056 15.6326 
209 1 15.6387 6.12774 9.75563 
219 1 9.74712 6.12367 15.6327 
226 1 11.4483 0.902048 14.3162 
229 1 14.3164 2.72068 13.2679 
275 1 12.2297 3.75862 14.3166 
283 1 10.4101 4.80806 11.4486 
302 1 14.3163 1.93831 10.4105 
305 1 13.2677 4.80825 12.2312 
3 1 9.93453 9.9346 0.425757 
6 1 13.7438 13.7439 0.425473 
7 1 17.5553 17.5553 0.238033 
9 1 9.93437 13.7438 4.23525 
12 1 13.7465 9.934 4.2364 
52 1 12.8002 14.5011 1.36906 
53 1 11.4483 14.3161 0.902183 
61 1 14.5011 12.8004 1.36894 
62 1 14.3163 13.2676 2.72107 
107 1 10.8776 12.8004 4.9928 
108 1 10.4105 11.4484 4.80792 
111 1 10.8779 14.5012 3.29181 
112 1 12.2298 14.3164 3.75882 
128 1 15.6326 15.6326 0.238057 
141 1 9.74712 15.6327 6.12367 
145 1 15.6419 9.74965 6.12325 
159 1 12.8002 10.8782 4.99121 
160 1 13.2672 12.2302 4.80752 
169 1 14.5011 10.8788 3.29114 
170 1 14.316 10.4111 1.93923 
197 1 17.5583 9.75018 8.04961 
217 1 9.74712 17.5552 8.04622 
230 1 14.3162 11.4485 0.9019 
233 1 13.2671 14.3164 2.72123 
298 1 11.4482 10.411 4.8075 
301 1 14.3161 12.2305 3.75871 
309 1 10.4109 14.3161 1.93973 
316 1 12.2295 13.2677 4.80793 
8 1 16.2033 18.0222 19.0711 
20 1 19.0711 16.2033 18.0221 
32 1 18.0222 19.0711 16.2033 
46 1 12.8004 12.8004 18.6861 
47 1 13.2673 11.4484 18.8709 
58 1 12.8004 18.686 12.8005 
59 1 11.4484 18.871 13.2674 
70 1 18.6862 12.8004 12.8004 
71 1 18.8711 13.2675 11.4485 
75 1 14.6891 14.6891 18.4988 
78 1 18.4988 18.4988 18.4988 
81 1 18.4988 14.6891 14.6891 
82 1 10.8779 10.8779 18.6862 
83 1 10.4107 12.2298 18.8711 
84 1 14.6892 18.4987 14.6892 
115 1 10.8779 18.686 10.8779 
116 1 12.2298 18.8708 10.4109 
129 1 16.9846 15.1657 19.0711 
137 1 13.9319 15.6326 17.5553 
138 1 14.1168 16.9846 18.0222 
151 1 15.6326 13.9319 17.5553 
152 1 15.1658 14.1168 16.2033 
175 1 18.6862 10.8783 10.8783 
176 1 18.871 10.4108 12.23 
177 1 17.5553 15.6326 13.9319 
178 1 16.2033 15.1658 14.1168 
192 1 19.0711 16.9846 15.1657 
195 1 17.5553 13.9319 15.6326 
196 1 18.0222 14.1168 16.9846 
206 1 15.1658 19.0711 16.9846 
213 1 15.6327 17.5553 13.9319 
214 1 16.9846 18.0222 14.1168 
221 1 13.9319 17.5553 15.6327 
222 1 14.1168 16.2033 15.1658 
228 1 11.4484 13.2674 18.8711 
232 1 18.8711 11.4485 13.2675 
236 1 13.2672 18.8706 11.4485 
239 1 18.0222 16.2033 19.0711 
243 1 16.2033 19.0711 18.0222 
247 1 19.0711 18.0222 16.2033 
251 1 15.1657 16.9846 19.0711 
255 1 16.9846 14.1168 18.0222 
259 1 14.1168 15.1657 16.2033 
263 1 15.1658 16.2033 14.1168 
267 1 16.9846 19.0711 15.1658 
271 1 14.1168 18.0222 16.9846 
273 1 12.2298 10.4107 18.8711 
287 1 18.0222 16.9846 14.1168 
291 1 16.2033 14.1168 15.1658 
295 1 19.0711 15.1658 16.9846 
303 1 18.871 12.23 10.4108 
312 1 10.4107 18.871 12.2299 
ITEM: TIMESTEP
30
ITEM: NUMBER OF ATOMS
321
ITEM: BOX BOUNDS pp pp pp
0.0000000000000000e+00 1.9018000000000001e+01
0.0000000000000000e+00 1.9018000000000001e+01
0.0000000000000000e+00 1.9018000000000001e+01
ITEM: ATOMS id type x y z 
10 1 6.12397 6.12397 0.237429 
22 1 0.219056 6.11098 6.11445 
34 1 6.124 0.23742 6.124 
89 1 3.29099 4.99167 1.37026 
90 1 1.93861 4.80749 0.90347 
97 1 4.99165 3.29154 1.36965 
98 1 4.80713 3.75947 2.7219 
105 1 3.29145 1.3698 4.99166 
106 1 3.7583 2.72204 4.8076 
121 1 4.99181 1.36978 3.29158 
122 1 4.80776 0.902008 1.93938 
125 1 8.0459 8.0459 0.237417 
127 1 0.423145 4.23155 4.24227 
130 1 4.23531 0.425691 4.23521 
133 1 0.42571 0.425742 0.425716 
136 1 4.23513 4.23528 0.425819 
157 1 1.36922 3.29063 5.00008 
158 1 0.90178 1.9398 4.8099 
165 1 1.36777 4.98817 3.29481 
166 1 2.72006 4.80706 3.76003 
189 1 0.24077 8.04458 8.04958 
207 1 8.04588 0.237414 8.04588 
277 1 4.80767 1.93956 0.902065 
284 1 3.75784 4.80754 2.72259 
297 1 2.72023 3.75885 4.81012 
306 1 0.902448 4.80708 1.94235 
315 1 1.93914 0.902341 4.80755 
319 1 4.80729 2.72174 3.75925 
11 1 7.47615 5.65643 19.0713 
16 1 4.4235 6.12398 17.555 
17 1 4.60761 7.47616 18.0225 
25 1 6.12396 4.42351 17.555 
26 1 5.65645 4.60762 16.2028 
39 1 8.9897 8.98971 18.4987 
42 1 5.18009 5.18012 18.4988 
43 1 1.36945 1.36972 18.6872 
44 1 0.901796 2.72171 18.8717 
45 1 5.18019 8.98979 14.6891 
48 1 8.98977 5.18019 14.6892 
79 1 3.29132 3.29154 18.6872 