LAMMPS (3 Mar 2020)
# Alpha
clear
units		real
dimension 3
boundary        p p p
atom_style	charge
newton on
read_data       H_7.lmp
  triclinic box = (0 0 0) to (13.552 11.7355 22.15) with tilt (-6.7755 0 0)
  2 by 2 by 2 MPI processor grid
  reading atoms ...
  161 atoms
  read_data CPU = 0.126857 secs

timestep 0.25

# ---------- Define Interatomic Potential ---------------------
pair_style      reax/c NULL checkqeq no
pair_coeff      * * ffield.reax C H
fix             2 all qeq/reax 1 0.0 10.0 1.0e-6 reax/c

#------------ Equilibration of the system -------------------------
reset_timestep 0

dump 1 all custom 10 min.lammpstrj id type x y z

minimize 1.0e-8 1.0e-8 100000 100000
WARNING: Using 'neigh_modify every 1 delay 0 check yes' setting during minimization (../min.cpp:190)
WARNING: Total cutoff < 2*bond cutoff. May need to use an increased neighbor list skin. (../pair_reaxc.cpp:413)
Neighbor list info ...
  update every 1 steps, delay 0 steps, check yes
  max neighbors/atom: 2000, page size: 100000
  master list distance cutoff = 9.5
  ghost atom cutoff = 9.5
  binsize = 4.75, bins = 5 3 5
  2 neighbor lists, perpetual/occasional/extra = 2 0 0
  (1) pair reax/c, perpetual
      attributes: half, newton off, ghost
      pair build: half/bin/newtoff/ghost
      stencil: half/ghost/bin/3d/newtoff
      bin: standard
  (2) fix qeq/reax, perpetual, copy from (1)
      attributes: half, newton off, ghost
      pair build: copy
      stencil: none
      bin: none
Per MPI rank memory allocation (min/avg/max) = 22.39 | 23.34 | 24.29 Mbytes
Step Temp E_pair E_mol TotEng Press 
       0            0   -25477.326            0   -25477.326     82294.92 
     399            0   -29144.242            0   -29144.242    34030.381 
Loop time of 24.5272 on 8 procs for 399 steps with 161 atoms

99.3% CPU use with 8 MPI tasks x no OpenMP threads

Minimization stats:
  Stopping criterion = energy tolerance
  Energy initial, next-to-last, final = 
        -25477.3262849     -29144.2420564     -29144.2423448
  Force two-norm initial, final = 4593.7 71.1734
  Force max component initial, final = 504.288 21.1853
  Final line search alpha, max atom move = 0.00116001 0.0245752
  Iterations, force evaluations = 399 2821

MPI task timing breakdown:
Section |  min time  |  avg time  |  max time  |%varavg| %total
---------------------------------------------------------------
Pair    | 16.738     | 17.872     | 18.829     |  18.7 | 72.87
Neigh   | 0          | 0          | 0          |   0.0 |  0.00
Comm    | 0.24075    | 1.1958     | 2.328      |  72.1 |  4.88
Output  | 0.0015749  | 0.0019892  | 0.0029545  |   0.9 |  0.01
Modify  | 5.4128     | 5.415      | 5.4179     |   0.1 | 22.08
Other   |            | 0.04235    |            |       |  0.17

Nlocal:    20.125 ave 33 max 4 min
Histogram: 2 0 1 0 1 0 0 1 0 3
Nghost:    838.875 ave 883 max 787 min
Histogram: 2 1 1 0 0 0 0 0 0 4
Neighs:    2756.38 ave 4450 max 592 min
Histogram: 2 0 0 1 1 0 0 0 1 3

Total # of neighbors = 22051
Ave neighs/atom = 136.963
Neighbor list builds = 0
Dangerous builds = 0

###
min_style cg
minimize 1.0e-8 1.0e-8 100000 100000
WARNING: Using 'neigh_modify every 1 delay 0 check yes' setting during minimization (../min.cpp:190)
WARNING: Total cutoff < 2*bond cutoff. May need to use an increased neighbor list skin. (../pair_reaxc.cpp:413)
Per MPI rank memory allocation (min/avg/max) = 22.39 | 23.34 | 24.29 Mbytes
Step Temp E_pair E_mol TotEng Press 
     399            0   -29144.242            0   -29144.242    34030.381 
     438            0   -29145.397            0   -29145.397    33467.003 
Loop time of 2.68178 on 8 procs for 39 steps with 161 atoms

99.2% CPU use with 8 MPI tasks x no OpenMP threads

Minimization stats:
  Stopping criterion = energy tolerance
  Energy initial, next-to-last, final = 
        -29144.2423448     -29145.3967078     -29145.3968005
  Force two-norm initial, final = 71.1734 70.4787
  Force max component initial, final = 21.1853 17.4154
  Final line search alpha, max atom move = 0.00151173 0.0263273
  Iterations, force evaluations = 39 304

MPI task timing breakdown:
Section |  min time  |  avg time  |  max time  |%varavg| %total
---------------------------------------------------------------
Pair    | 1.8438     | 1.9865     | 2.0971     |   6.5 | 74.07
Neigh   | 0          | 0          | 0          |   0.0 |  0.00
Comm    | 0.029036   | 0.13938    | 0.28187    |  24.7 |  5.20
Output  | 0.00016659 | 0.00020534 | 0.00030199 |   0.0 |  0.01
Modify  | 0.55069    | 0.55095    | 0.55133    |   0.0 | 20.54
Other   |            | 0.004743   |            |       |  0.18

Nlocal:    20.125 ave 32 max 5 min
Histogram: 2 0 1 1 0 0 0 0 0 4
Nghost:    867.375 ave 918 max 814 min
Histogram: 1 3 0 0 0 0 0 0 2 2
Neighs:    2740.5 ave 4250 max 748 min
Histogram: 2 0 1 1 0 0 0 0 0 4

Total # of neighbors = 21924
Ave neighs/atom = 136.174
Neighbor list builds = 0
Dangerous builds = 0

###
fix 1 all box/relax aniso 0.0
min_style cg
minimize 1.0e-8 1.0e-8 100000 100000
WARNING: Using 'neigh_modify every 1 delay 0 check yes' setting during minimization (../min.cpp:190)
WARNING: Total cutoff < 2*bond cutoff. May need to use an increased neighbor list skin. (../pair_reaxc.cpp:413)
Per MPI rank memory allocation (min/avg/max) = 22.39 | 23.34 | 24.29 Mbytes
Step Temp E_pair E_mol TotEng Press Volume 
     438            0   -29145.397            0   -29145.397    33467.003    3522.7279 
     478            0   -29152.698            0   -29152.698   -2338.1219    3526.4103 
Loop time of 0.588087 on 8 procs for 40 steps with 161 atoms

99.0% CPU use with 8 MPI tasks x no OpenMP threads

Minimization stats:
  Stopping criterion = linesearch alpha is zero
  Energy initial, next-to-last, final = 
        -29145.3968005     -29152.6976977     -29152.6976977
  Force two-norm initial, final = 3752.87 578.141
  Force max component initial, final = 3242.45 344.346
  Final line search alpha, max atom move = 1.92324e-14 6.62259e-12
  Iterations, force evaluations = 40 75

MPI task timing breakdown:
Section |  min time  |  avg time  |  max time  |%varavg| %total
---------------------------------------------------------------
Pair    | 0.45353    | 0.4858     | 0.50728    |   2.9 | 82.61
Neigh   | 0          | 0          | 0          |   0.0 |  0.00
Comm    | 0.0054162  | 0.026835   | 0.059053   |  12.1 |  4.56
Output  | 0.00015119 | 0.00018837 | 0.00028198 |   0.0 |  0.03
Modify  | 0.072404   | 0.072458   | 0.072541   |   0.0 | 12.32
Other   |            | 0.002808   |            |       |  0.48

Nlocal:    20.125 ave 32 max 5 min
Histogram: 2 0 1 1 0 0 0 0 0 4
Nghost:    865.875 ave 918 max 810 min
Histogram: 1 3 0 0 0 0 0 0 2 2
Neighs:    2739.38 ave 4250 max 748 min
Histogram: 2 0 1 1 0 0 0 0 0 4

Total # of neighbors = 21915
Ave neighs/atom = 136.118
Neighbor list builds = 0
Dangerous builds = 0

unfix 1
###
min_style cg
minimize 1.0e-8 1.0e-8 100000 100000
WARNING: Using 'neigh_modify every 1 delay 0 check yes' setting during minimization (../min.cpp:190)
WARNING: Total cutoff < 2*bond cutoff. May need to use an increased neighbor list skin. (../pair_reaxc.cpp:413)
Per MPI rank memory allocation (min/avg/max) = 22.39 | 23.34 | 24.29 Mbytes
Step Temp E_pair E_mol TotEng Press 
     478            0   -29152.698            0   -29152.698   -2338.1219 
     545            0    -29156.35            0    -29156.35    30714.707 
Loop time of 4.65903 on 8 procs for 67 steps with 161 atoms

99.3% CPU use with 8 MPI tasks x no OpenMP threads

Minimization stats:
  Stopping criterion = energy tolerance
  Energy initial, next-to-last, final = 
        -29152.6976977     -29156.3494767     -29156.3495261
  Force two-norm initial, final = 415.089 52.7885
  Force max component initial, final = 46.7819 9.91586
  Final line search alpha, max atom move = 0.00210009 0.0208242
  Iterations, force evaluations = 67 527

MPI task timing breakdown:
Section |  min time  |  avg time  |  max time  |%varavg| %total
---------------------------------------------------------------
Pair    | 3.2041     | 3.4343     | 3.6064     |   8.6 | 73.71
Neigh   | 0          | 0          | 0          |   0.0 |  0.00
Comm    | 0.064443   | 0.23597    | 0.46594    |  32.9 |  5.06
Output  | 0.00027582 | 0.00034094 | 0.00051115 |   0.0 |  0.01
Modify  | 0.98007    | 0.98045    | 0.98095    |   0.0 | 21.04
Other   |            | 0.007952   |            |       |  0.17

Nlocal:    20.125 ave 32 max 5 min
Histogram: 2 0 1 1 0 0 0 0 0 4
Nghost:    867.875 ave 922 max 810 min
Histogram: 1 3 0 0 0 0 0 0 2 2
Neighs:    2736.25 ave 4251 max 744 min
Histogram: 2 0 1 1 0 0 0 0 0 4

Total # of neighbors = 21890
Ave neighs/atom = 135.963
Neighbor list builds = 0
Dangerous builds = 0

###
fix 1 all box/relax aniso 0.0
min_style cg
minimize 1.0e-8 1.0e-8 100000 100000
WARNING: Using 'neigh_modify every 1 delay 0 check yes' setting during minimization (../min.cpp:190)
WARNING: Total cutoff < 2*bond cutoff. May need to use an increased neighbor list skin. (../pair_reaxc.cpp:413)
Per MPI rank memory allocation (min/avg/max) = 22.39 | 23.34 | 24.29 Mbytes
Step Temp E_pair E_mol TotEng Press Volume 
     545            0    -29156.35            0    -29156.35    30714.707    3526.4103 
     602            0   -29166.081            0   -29166.081   -7626.6152    3531.6911 
Loop time of 0.770137 on 8 procs for 57 steps with 161 atoms

99.3% CPU use with 8 MPI tasks x no OpenMP threads

Minimization stats:
  Stopping criterion = linesearch alpha is zero
  Energy initial, next-to-last, final = 
        -29156.3495261     -29166.0810334     -29166.0810334
  Force two-norm initial, final = 3487.01 816.28
  Force max component initial, final = 3026.09 529.832
  Final line search alpha, max atom move = 9.54385e-15 5.05664e-12
  Iterations, force evaluations = 57 97

MPI task timing breakdown:
Section |  min time  |  avg time  |  max time  |%varavg| %total
---------------------------------------------------------------
Pair    | 0.58263    | 0.63203    | 0.66609    |   3.7 | 82.07
Neigh   | 0          | 0          | 0          |   0.0 |  0.00
Comm    | 0.0058363  | 0.039708   | 0.089099   |  14.7 |  5.16
Output  | 0.00022854 | 0.00028213 | 0.00041548 |   0.0 |  0.04
Modify  | 0.094323   | 0.094424   | 0.094508   |   0.0 | 12.26
Other   |            | 0.003691   |            |       |  0.48

Nlocal:    20.125 ave 32 max 5 min
Histogram: 2 0 1 1 0 0 0 0 0 4
Nghost:    869.125 ave 924 max 810 min
Histogram: 1 3 0 0 0 0 0 0 2 2
Neighs:    2735.62 ave 4249 max 743 min
Histogram: 2 0 1 1 0 0 0 0 0 4

Total # of neighbors = 21885
Ave neighs/atom = 135.932
Neighbor list builds = 0
Dangerous builds = 0

unfix 1
###
min_style cg
minimize 1.0e-8 1.0e-8 100000 100000
WARNING: Using 'neigh_modify every 1 delay 0 check yes' setting during minimization (../min.cpp:190)
WARNING: Total cutoff < 2*bond cutoff. May need to use an increased neighbor list skin. (../pair_reaxc.cpp:413)
Per MPI rank memory allocation (min/avg/max) = 22.39 | 23.34 | 24.29 Mbytes
Step Temp E_pair E_mol TotEng Press 
     602            0   -29166.081            0   -29166.081   -7626.6152 
     612            0   -29168.969            0   -29168.969     23685.95 
Loop time of 0.637703 on 8 procs for 10 steps with 161 atoms

99.2% CPU use with 8 MPI tasks x no OpenMP threads

Minimization stats:
  Stopping criterion = energy tolerance
  Energy initial, next-to-last, final = 
        -29166.0810334     -29168.9693598     -29168.9694447
  Force two-norm initial, final = 392.918 190.021
  Force max component initial, final = 44.9528 44.7697
  Final line search alpha, max atom move = 0.000781924 0.0350065
  Iterations, force evaluations = 10 71

MPI task timing breakdown:
Section |  min time  |  avg time  |  max time  |%varavg| %total
---------------------------------------------------------------
Pair    | 0.43142    | 0.46549    | 0.48909    |   3.1 | 72.99
Neigh   | 0          | 0          | 0          |   0.0 |  0.00
Comm    | 0.0073231  | 0.030864   | 0.064868   |  12.0 |  4.84
Output  | 3.9003e-05 | 4.8635e-05 | 7.6984e-05 |   0.0 |  0.01
Modify  | 0.1401     | 0.14015    | 0.14023    |   0.0 | 21.98
Other   |            | 0.001154   |            |       |  0.18

Nlocal:    20.125 ave 32 max 5 min
Histogram: 2 0 1 1 0 0 0 0 0 4
Nghost:    864.375 ave 924 max 802 min
Histogram: 1 2 1 0 0 0 0 0 3 1
Neighs:    2732.88 ave 4244 max 740 min
Histogram: 2 0 1 1 0 0 0 0 0 4

Total # of neighbors = 21863
Ave neighs/atom = 135.795
Neighbor list builds = 0
Dangerous builds = 0

undump 1
#############
#----------- Thermo ------------
reset_timestep 0
thermo  200

thermo_style    custom step temp etotal ke pe press
velocity all create 300 12345 mom yes rot yes
fix 1 all npt temp 300 300 25.0 iso 0.0 0.0 250.0

variable vpe equal pe
variable vtemp equal temp
variable vstep equal step

fix output all print 2500 "${vstep} ${vtemp} ${vpe}" file temp-tpdh-Pt.dat screen no

dump 1 all custom 2500 thermo-tpdh-Pt.lammpstrj id type x y z

run 1000000
WARNING: Total cutoff < 2*bond cutoff. May need to use an increased neighbor list skin. (../pair_reaxc.cpp:413)
Per MPI rank memory allocation (min/avg/max) = 21.28 | 22.23 | 23.18 Mbytes
Step Temp TotEng KinEng PotEng Press 
       0          300   -29025.891    143.07888   -29168.969    25537.885 
     200    332.06034   -29067.783    158.36941   -29226.152    31789.196 
     400    335.29885   -29118.137    159.91395   -29278.051    8929.6785 
     600     293.5495   -29143.878    140.00245   -29283.881    18251.785 
     800    297.52138   -29154.647    141.89675   -29296.543    1736.4613 
    1000    293.50219   -29133.874    139.97988   -29273.854   -23725.329 
    1200    256.95636   -29130.558    122.55009   -29253.108   -11449.181 
    1400    299.05565   -29109.285     142.6285   -29251.913    24552.429 
    1600    316.99367   -29116.046    151.18367    -29267.23   -22130.695 
    1800    263.89491   -29121.953     125.8593   -29247.812    3247.8354 
    2000    327.48038   -29096.015    156.18509     -29252.2    20344.104 
    2200    293.16411   -29092.427    139.81864   -29232.246    -8094.591 
    2400    314.76068   -29085.968    150.11869   -29236.087    -19677.26 
    2600    287.06455   -29083.717    136.90958   -29220.627    1670.1129 
    2800    330.38521     -29064.5    157.57049    -29222.07    8179.7733 
    3000    304.78111   -29088.471    145.35913    -29233.83     23132.58 
    3200    293.33874   -29068.015    139.90193   -29207.917    18417.675 
    3400    288.33492   -29074.489    137.51546   -29212.004   -13539.242 
    3600    309.36927   -29071.261    147.54736   -29218.808   -5236.4391 
    3800    276.63602   -29088.955    131.93591   -29220.891   -11586.647 
    4000     279.5286   -29060.248    133.31547   -29193.563    15187.604 
    4200    290.37642     -29076.2    138.48911   -29214.689    2200.7169 
    4400    278.04202   -29080.357    132.60647   -29212.963   -10585.201 
    4600    318.84832   -29057.807     152.0682   -29209.875    21131.617 
    4800    298.68089   -29090.105    142.44976   -29232.555    13215.067 
    5000    287.20881   -29089.544    136.97838   -29226.522    1417.0626 
    5200    301.30002   -29067.953     143.6989   -29211.652   -9705.6372 
    5400    292.96646   -29098.733    139.72438   -29238.458   -9541.1365 
    5600    317.72774   -29090.504    151.53377   -29242.038   -11118.167 
    5800    282.62678   -29100.245    134.79308   -29235.038   -17937.869 
    6000    289.89004   -29113.117    138.25714   -29251.374   -4962.5423 
    6200    323.80703   -29090.036    154.43316   -29244.469   -564.07368 
    6400    292.86776   -29128.527    139.67731   -29268.204   -38786.265 
    6600     298.0228   -29116.429     142.1359   -29258.564    44358.335 
    6800    324.25001   -29098.124    154.64443   -29252.768   -20611.427 
    7000    293.55151   -29130.916    140.00341   -29270.919   -3477.3799 
    7200    291.11159   -29111.871    138.83974   -29250.711    9283.4803 
    7400    312.74165   -29095.942    149.15575   -29245.098    39964.883 
    7600    312.79693   -29069.725    149.18211   -29218.907    22339.729 
    7800    317.59067    -29091.17    151.46839   -29242.638   -25877.358 
    8000    305.48496   -29117.591    145.69482   -29263.286   -14335.953 
    8200    301.10704   -29115.636    143.60686   -29259.243   -911.88922 
    8400    318.95302   -29097.765    152.11814   -29249.883    -9045.148 
    8600    277.89558   -29127.157    132.53663   -29259.693    22859.591 
    8800    308.27059   -29111.955    147.02337   -29258.979    18456.311 
    9000    268.26026   -29101.661    127.94126   -29229.602    9060.3788 
    9200     298.7239   -29098.493    142.47027   -29240.963    16776.245 
    9400    302.59158   -29096.053    144.31488   -29240.368     10684.41 
    9600    265.26178   -29109.742     126.5112   -29236.253    4998.2384 
    9800    291.05458   -29103.584    138.81255   -29242.396    25066.105 
   10000    322.78911   -29089.062    153.94768    -29243.01   -21609.205 
   10200    270.15966   -29111.494    128.84714   -29240.341   -15875.261 
   10400    276.61054   -29101.469    131.92376   -29233.393    7778.5492 
   10600    287.45042   -29097.208    137.09361   -29234.301   -24147.226 
   10800    299.11293   -29116.908    142.65581   -29259.564   -8556.8813 
   11000    261.99713   -29118.488    124.95419   -29243.442   -37267.374 
   11200    289.72925   -29101.732    138.18046   -29239.913   -25893.167 
   11400    281.09837   -29118.454    134.06414   -29252.518    17703.911 
   11600    276.56857   -29133.885    131.90374   -29265.789      -6758.6 
   11800    295.62553   -29101.682    140.99257   -29242.675    22199.686 
   12000    297.33268     -29118.5    141.80676   -29260.307    -5557.507 
   12200    266.26522   -29147.623    126.98977   -29274.612    18712.538 
   12400    291.56152   -29111.693    139.05432   -29250.748    590.12972 
   12600      305.923   -29123.211    145.90374   -29269.114   -19036.476 
   12800    312.53586   -29111.105     149.0576   -29260.163    7208.2915 
   13000    322.22877   -29113.432    153.68044   -29267.112   -19711.572 
   13200    268.72091   -29128.115    128.16096   -29256.276    20528.332 
   13400    322.18633   -29108.205     153.6602   -29261.865    10454.001 
   13600    277.06014   -29130.167    132.13819   -29262.305   -6922.9185 
   13800    289.20687   -29114.439    137.93132    -29252.37   -6473.4296 
   14000    298.20082   -29108.814     142.2208   -29251.034   -32328.076 
   14200    265.31792   -29133.458    126.53797   -29259.996    70988.543 
   14400    295.62927   -29138.737    140.99435   -29279.732    15722.176 
   14600     304.5798   -29110.961    145.26312   -29256.224     17918.85 
   14800    316.42038   -29095.289    150.91025     -29246.2   -32794.039 
   15000    309.71819   -29124.242    147.71377   -29271.956    1242.5569 
   15200    297.23469   -29115.344    141.76003   -29257.104   -49908.269 
   15400    312.47926   -29101.178    149.03061   -29250.208   -36300.647 
   15600    299.37991   -29100.598    142.78314   -29243.381   -62058.521 
   15800    302.10716   -29080.244    144.08385   -29224.328    -58450.11 
   16000    276.59178   -29104.348    131.91481   -29236.263   -40092.105 
   16200    283.84917   -29107.431    135.37607   -29242.807   -18113.317 
   16400     306.9575   -29094.449    146.39712   -29240.846   -47546.957 
   16600    309.26127    -29100.62    147.49586   -29248.116    28141.941 
   16800    299.99273   -29101.925    143.07542   -29245.001   -11941.067 
   17000    309.93476   -29086.557    147.81706   -29234.375   -16625.445 
   17200    292.48087   -29114.543    139.49279   -29254.036    -50644.34 
   17400    285.52915   -29113.028     136.1773   -29249.205    50759.116 
   17600    339.54748   -29084.331    161.94025   -29246.271   -47091.696 
   17800     292.9211   -29109.917    139.70275    -29249.62   -6174.8012 
   18000    298.63072   -29121.877    142.42583   -29264.303    5713.5372 
   18200    282.52172   -29136.141    134.74298   -29270.884    20212.913 
   18400    298.61129   -29118.045    142.41656   -29260.462     4051.896 
   18600    288.40088   -29123.891    137.54692   -29261.438   -22847.943 
   18800    263.07107   -29138.561    125.46638   -29264.027   -30575.865 
   19000    319.18201    -29119.52    152.22735   -29271.748   -45819.383 
   19200     300.8973   -29127.561    143.50683   -29271.068   -30748.979 
   19400    316.66045   -29109.088    151.02475   -29260.113   -20737.646 
   19600     305.7282   -29109.949    145.81083    -29255.76    18153.092 
   19800    285.27162   -29129.482    136.05448   -29265.536   -31544.542 
   20000    311.68511   -29112.418    148.65186    -29261.07   -19701.061 
   20200    290.31128   -29113.981    138.45804   -29252.439    47169.569 
   20400    287.61246   -29115.791     137.1709   -29252.962   -13.014958 
   20600    334.16497   -29088.514    159.37317   -29247.888   -16404.979 
   20800    299.83127   -29113.335    142.99841   -29256.334   -10283.421 
   21000    326.65616   -29107.904    155.79199   -29263.696   -33671.361 
   21200     303.2024   -29092.508     144.6062   -29237.114    -2241.084 
   21400    276.76614    -29115.33    131.99796   -29247.328    39967.061 
   21600    307.55041   -29108.907     146.6799   -29255.587   -21687.164 
   21800    342.62018   -29078.483    163.40571   -29241.888   -15188.669 
   22000    292.94113   -29099.374     139.7123   -29239.086    36370.524 
   22200    291.41563   -29110.666    138.98474   -29249.651    19814.294 
   22400    296.59369   -29082.121    141.45431   -29223.575   -15901.549 
   22600    295.98633   -29108.657    141.16465   -29249.822    6262.5472 
   22800    270.64598   -29112.933    129.07908   -29242.013    642.64337 
   23000     277.9944   -29122.233    132.58376   -29254.816    1208.8648 
   23200    293.57116   -29103.962    140.01278   -29243.975    47688.706 
   23400    299.55474   -29103.872    142.86652   -29246.738   -15420.614 
   23600    287.59221   -29118.375    137.16124   -29255.536   -10429.135 
   23800    309.94738   -29104.372    147.82308   -29252.195   -143.47582 
   24000    297.90092    -29080.18    142.07777   -29222.258   -26269.063 
   24200    293.32809   -29094.077    139.89685   -29233.973    26750.986 
   24400    280.56467   -29109.071     133.8096   -29242.881   -41087.942 
   24600    313.44755   -29085.442    149.49242   -29234.934    41041.339 
   24800    318.30712   -29101.725    151.81009   -29253.535   -8144.8891 
   25000    306.15563   -29116.681    146.01469   -29262.696   -24157.296 
   25200    273.58115   -29122.044    130.47895   -29252.523   -4620.6238 
   25400    307.33863   -29089.891    146.57889    -29236.47    20156.091 
   25600    293.85984   -29104.527    140.15046   -29244.678     13689.37 
   25800    243.28774   -29137.276    116.03113   -29253.307     8636.988 
   26000    267.51314   -29114.337    127.58494   -29241.922   -7831.0179 
   26200    317.62075   -29091.133    151.48274   -29242.616    1789.5096 
   26400    328.54277   -29095.464    156.69177   -29252.156   -9499.9395 
   26600    303.46066   -29121.083    144.72937   -29265.813      17055.3 
   26800    276.17044   -29093.286    131.71386       -29225   -11109.729 
   27000    294.30273   -29097.409    140.36169   -29237.771   -43535.224 
   27200     273.5443   -29123.579    130.46137    -29254.04    31533.893 
   27400    285.46578   -29125.281    136.14708   -29261.428    27317.937 
   27600     303.0171   -29103.617    144.51783   -29248.135    4639.3623 
   27800    274.69342   -29116.679    131.00943   -29247.689    702.32616 
   28000    324.84627   -29092.642     154.9288   -29247.571   -28755.266 
   28200    285.61633   -29086.547    136.21888   -29222.766    18741.091 
   28400    271.59449   -29125.109    129.53145    -29254.64    20334.138 
   28600    302.24099   -29115.311    144.14768   -29259.459   -17511.118 
   28800    325.38719   -29096.297    155.18678   -29251.484   -5176.3272 
   29000    274.48567   -29123.192    130.91034   -29254.102    4724.4827 
   29200    299.52492   -29112.761     142.8523   -29255.613    1050.4019 
   29400    303.42064   -29098.508    144.71029   -29243.218    10047.192 
   29600    295.09415   -29093.205    140.73914   -29233.945    29494.999 
   29800     323.6289   -29059.591    154.34821   -29213.939   -8561.7412 
   30000    305.53593   -29092.936    145.71913   -29238.655   -20990.807 
   30200    309.35442   -29109.716    147.54028   -29257.256    824.71197 
   30400    266.64229   -29136.723     127.1696   -29263.892    10417.574 
   30600    288.57826   -29101.796    137.63151   -29239.428    25891.272 
   30800    322.27469    -29088.45    153.70234   -29242.153    19827.633 
   31000    283.24093   -29117.919    135.08599   -29253.005    -51412.74 
   31200      287.355   -29104.383    137.04811   -29241.431    606.48604 
   31400    303.65534   -29100.405    144.82222   -29245.227   -621.82176 
   31600    296.63545   -29130.102    141.47423   -29271.576   -14007.498 
   31800    263.95983   -29121.824    125.89026   -29247.714   -39550.784 
   32000    301.87386   -29095.162    143.97258   -29239.135     16749.64 
   32200    274.41258   -29113.629    130.87548   -29244.504   -6162.7288 
   32400    283.29535   -29121.682    135.11194   -29256.793    57774.103 
   32600    316.02561   -29102.341    150.72197   -29253.063   -7613.0977 
   32800    268.48083   -29128.517    128.04646   -29256.563    -22387.68 
   33000    254.90287   -29129.448    121.57073   -29251.019    2926.8357 
   33200    298.58774   -29100.144    142.40533   -29242.549    20987.106 
   33400    313.92586   -29096.749    149.72054   -29246.469   -7943.9668 
   33600    266.07044   -29125.156    126.89687   -29252.052   -13893.291 
   33800    343.37323   -29098.149    163.76486   -29261.914   -34654.315 
   34000    340.59233   -29099.415    162.43856   -29261.853   -9121.6135 
   34200    283.43582   -29126.931    135.17894    -29262.11   -5101.4334 
   34400    286.49248    -29109.16    136.63675   -29245.797    25561.439 
   34600    299.24466   -29104.388    142.71864   -29247.107    9038.6203 
   34800    344.60275   -29076.068    164.35126   -29240.419   -5188.9753 
   35000    299.37264   -29101.957    142.77967   -29244.736    34687.796 
   35200     312.4907   -29112.761    149.03607   -29261.797    3072.2769 
   35400    300.58981   -29119.857    143.36018   -29263.217    24065.579 
   35600    312.61037   -29114.024    149.09314   -29263.117    6430.3381 
   35800    305.54598    -29093.99    145.72393   -29239.714   -16265.594 
   36000     292.2884   -29098.435    139.40099   -29237.836    13032.964 
   36200    294.25162    -29124.17    140.33731   -29264.507   -19150.854 
   36400    310.64402     -29094.7    148.15533   -29242.855   -21691.224 
   36600    285.03924   -29103.487    135.94365    -29239.43   -21443.733 
   36800    286.87246   -29120.861    136.81797   -29257.679   -18635.231 
   37000    335.45846   -29083.606    159.99007   -29243.596    35024.147 
   37200    297.13122   -29102.569    141.71068    -29244.28    12911.065 
   37400     316.9481   -29098.926    151.16193   -29250.088     -12185.1 
   37600    342.09325   -29084.078     163.1544   -29247.233   -834.76618 
   37800    284.62686   -29108.348    135.74697   -29244.095    12660.906 
   38000    287.13225   -29110.557    136.94187   -29247.499    13864.585 
   38200    276.62807   -29131.079    131.93212   -29263.011   -27592.727 
   38400    300.87061   -29101.162     143.4941   -29244.657   -14520.846 
   38600    316.50229   -29099.434    150.94932   -29250.383    12317.227 
   38800    289.75117   -29135.486    138.19091   -29273.677     3292.809 
   39000    303.75279   -29118.307     144.8687   -29263.175    10457.561 
   39200    298.16569   -29116.201    142.20405   -29258.405   -4930.3465 
   39400    258.99353   -29147.866    123.52168   -29271.388    1686.8874 
   39600    303.86047   -29119.027    144.92005   -29263.948    37152.497 
   39800    309.54546   -29102.064    147.63139   -29249.695    20661.881 
   40000    332.08789   -29090.153    158.38255   -29248.535   -26336.053 
   40200     288.9904    -29125.81    137.82808   -29263.638    36670.596 
   40400    303.50698   -29116.766    144.75146   -29261.517   -10790.423 
   40600    327.42456   -29095.905    156.15847   -29252.063   -31034.203 
   40800    271.43042   -29136.984     129.4532   -29266.437    18194.352 
   41000    289.57522   -29115.126      138.107   -29253.233   -16529.857 
   41200    293.92822   -29096.592    140.18307   -29236.775    801.72723 
   41400    288.57661   -29126.531    137.63073   -29264.161   -26062.998 
   41600    293.03604   -29111.206    139.75756   -29250.963    -19821.23 
   41800    320.56791   -29103.039    152.88833   -29255.928    4855.5026 
   42000    284.02881   -29112.264    135.46175   -29247.726   -16616.482 
   42200     301.3993   -29123.481    143.74625   -29267.227    7406.4654 
   42400    295.11473   -29095.388    140.74895   -29236.137   -15569.814 
   42600    313.16418   -29115.968    149.35727   -29265.325     17174.54 
   42800    285.52598   -29122.257    136.17579   -29258.433    18619.698 
   43000    316.45109   -29100.261    150.92489   -29251.186    5159.2251 
   43200    304.95155   -29092.302    145.44043   -29237.743   -30664.873 
   43400    289.23673   -29126.759    137.94556   -29264.704   -24050.883 
   43600    300.12649   -29111.965    143.13921   -29255.105    20760.414 
   43800    309.53287   -29097.002    147.62539   -29244.628   -68858.254 
   44000    299.13311   -29109.138    142.66544   -29251.803    50777.698 
   44200    302.00443   -29095.038    144.03485   -29239.073   -3117.9312 
   44400    286.67022   -29116.615    136.72152   -29253.336    12992.641 
   44600    275.47602   -29124.664    131.38267   -29256.047   -5041.2513 
   44800    313.42824   -29098.237    149.48321    -29247.72    50435.075 
   45000    313.93078   -29104.934    149.72289   -29254.657    42902.921 
   45200    309.00693   -29109.736    147.37456   -29257.111   -39713.112 
   45400    272.99657   -29120.537    130.20015   -29250.737   -10139.199 
   45600    287.36797   -29100.636    137.05429    -29237.69    56280.631 
   45800    264.43648   -29118.564    126.11759   -29244.681   -55152.624 
   46000    288.96326   -29120.352    137.81514   -29258.167    -36337.26 
   46200    308.36566   -29105.188    147.06871   -29252.257   -13238.136 
   46400    327.92097   -29096.256    156.39522   -29252.652    39767.724 
   46600    283.75196   -29127.989    135.32971   -29263.319   -46785.772 
   46800    301.74021    -29124.42    143.90884   -29268.329    9700.4322 
   47000    328.39754   -29102.569    156.62251   -29259.192    9986.7072 
   47200    257.95107   -29135.504     123.0245   -29258.529   -39357.679 
   47400    310.41228   -29108.359    148.04481   -29256.404   -24167.831 
   47600    326.86578   -29110.454    155.89197   -29266.346   -27308.324 
   47800    290.62903   -29142.496    138.60959   -29281.106   -37591.092 
   48000    305.86387   -29121.654    145.87554    -29267.53   -27645.706 
   48200    293.87026   -29110.017    140.15543   -29250.173   -9749.5138 
   48400    336.15246   -29089.708    160.32106   -29250.029    557.60843 
   48600    290.03695   -29121.917    138.32721   -29260.244      41142.1 
   48800    295.35251   -29112.398    140.86236   -29253.261   -33292.254 
   49000    325.02288     -29096.6    155.01304   -29251.613   -13684.551 
   49200    294.36234   -29111.316    140.39012   -29251.706   -13586.213 
   49400    284.69068    -29112.47    135.77742   -29248.248    7053.7211 
   49600    312.15388   -29082.969    148.87543   -29231.845   -24270.634 
   49800    302.17564   -29113.901    144.11651   -29258.017    43131.417 
   50000    313.54161   -29113.232    149.53727   -29262.769    35119.225 
   50200     304.4883   -29100.246    145.21949   -29245.465   -40744.719 
   50400     317.0634   -29114.619    151.21692   -29265.836    15236.967 
   50600    270.44614   -29144.809    128.98377   -29273.793   -29093.846 
   50800    307.99634   -29135.856    146.89257   -29282.749   -47904.902 
   51000     302.8095   -29123.952    144.41881   -29268.371   -34095.821 
   51200    307.19227   -29146.801    146.50909    -29293.31    31967.618 
   51400    291.30513   -29147.678    138.93204    -29286.61    18007.733 
   51600    299.20774   -29133.136    142.70103   -29275.837    73963.899 
   51800    290.59449   -29123.825    138.59312   -29262.418   -49550.494 
   52000    300.06303   -29155.459    143.10894   -29298.568   -9893.4856 
   52200    321.33706   -29139.202    153.25516   -29292.457   -10149.851 
   52400     315.5681   -29108.454    150.50377   -29258.958   -12037.609 
   52600    311.20568   -29116.356     148.4232   -29264.779    -6141.101 
   52800    313.48157   -29134.477    149.50864   -29283.986   -4982.4644 
   53000    314.49586   -29116.714    149.99239   -29266.706   -34020.551 
   53200    322.58475   -29117.064    153.85022   -29270.914    3456.7592 
   53400    294.04403   -29140.373    140.23831   -29280.611    11442.681 
   53600      288.133   -29123.902    137.41916   -29261.321   -8419.8152 
   53800    305.33832   -29121.219    145.62489   -29266.844   -36613.553 
   54000     302.1067   -29140.822    144.08363   -29284.906   -42385.084 
   54200    290.13289   -29118.628    138.37297   -29257.001   -14312.256 
   54400    287.14142   -29153.918    136.94625   -29290.864    26249.667 
   54600    297.25848   -29142.505    141.77137   -29284.276   -11884.321 
   54800    314.20874   -29122.994    149.85545   -29272.849   -39123.033 
   55000    307.63125   -29148.339    146.71845   -29295.057    634.62356 
   55200    273.62416   -29150.286    130.49946   -29280.786    16414.253 
   55400    308.77927   -29126.795    147.26598   -29274.061   -15443.943 
   55600    328.22675    -29142.49    156.54106   -29299.031     54059.41 
   55800    283.65267   -29151.921    135.28236   -29287.203   -1577.1182 
   56000    311.07384   -29117.322    148.36032   -29265.682   -3077.9652 
   56200    309.38871   -29131.529    147.55663   -29279.086   -8585.6738 
   56400     287.8816   -29142.568    137.29926   -29279.867    29725.813 
   56600    313.39807   -29133.376    149.46882   -29282.845   -21469.676 
   56800    305.71735   -29138.302    145.80566   -29284.107   -22536.756 
   57000    249.07715   -29165.646    118.79227   -29284.438    40237.537 
   57200    321.21885   -29134.442    153.19878    -29287.64   -30739.978 
   57400    302.80316   -29128.756    144.41579   -29273.172   -27897.781 
   57600    316.85893   -29117.422    151.11941   -29268.542    17625.102 
   57800    301.49816    -29144.74     143.7934   -29288.533   -12666.276 
   58000    310.95304   -29129.454    148.30271   -29277.757   -18164.967 
   58200    297.78159   -29120.977    142.02086   -29262.998    58358.605 
   58400    289.00286   -29139.703    137.83402   -29277.537   -10986.652 
   58600    349.67228   -29102.604    166.76907   -29269.373    22938.464 
   58800    285.51052   -29122.585    136.16842   -29258.753   -1347.9971 
   59000    291.98635   -29141.066    139.25693   -29280.322   -15029.076 
   59200     318.5142   -29127.393    151.90885   -29279.302    -2743.545 
   59400    277.90302   -29137.757    132.54018   -29270.297    14631.982 
   59600    280.54599   -29145.877    133.80069   -29279.678    6996.6749 
   59800    313.16672   -29124.933    149.35848   -29274.292   -25293.284 
   60000    265.67477   -29129.115    126.70816   -29255.823    24289.977 
   60200    298.23764   -29131.475    142.23836   -29273.714    40073.035 
   60400    305.85111   -29142.978    145.86945   -29288.847   -15470.325 
   60600    283.05228   -29153.788    134.99601   -29288.784   -19547.014 
   60800    298.29159   -29120.646    142.26409    -29262.91   -4094.9604 
   61000    310.64162   -29138.092    148.15418   -29286.247    9177.9354 
   61200    278.78175   -29172.518    132.95927   -29305.477    26613.451 
   61400    287.66065   -29151.733    137.19388   -29288.927    -9617.098 
   61600    285.60196   -29144.635    136.21203   -29280.847    24724.057 
   61800    294.75704   -29153.277    140.57836   -29293.855    1439.5589 
   62000    294.93188   -29141.528    140.66175    -29282.19    1937.7099 
   62200    293.72214   -29122.857    140.08478   -29262.942    22887.031 
   62400    271.34859   -29150.503    129.41418   -29279.918    20384.298 
   62600    289.24052   -29149.742    137.94737    -29287.69   -3582.0996 
   62800    318.54592   -29142.331    151.92398   -29294.255    7093.5646 
   63000    312.10078   -29142.468     148.8501   -29291.318   -13187.876 
   63200    300.55302   -29116.297    143.34263    -29259.64    18602.009 
   63400    292.48255   -29146.966    139.49359    -29286.46    -9536.016 
   63600    299.20052   -29137.954    142.69759   -29280.651   -44383.379 
   63800    313.29217   -29141.869    149.41831   -29291.287    -53034.79 
   64000    288.78424   -29166.997    137.72975   -29304.726    41268.192 
   64200    304.71077   -29141.262    145.32559   -29286.588   -15895.062 
   64400    297.16941   -29149.795    141.72889   -29291.524     10279.84 
   64600    292.02752   -29158.232    139.27657   -29297.508   -8624.7935 
   64800    306.08124   -29133.881    145.97921    -29279.86    25061.609 
   65000    304.65868   -29158.247    145.30075   -29303.548   -11051.294 
   65200    301.28707   -29150.039    143.69272   -29293.731    34562.373 
   65400     302.0388   -29129.099    144.05125   -29273.151    1972.2588 
   65600    279.70292    -29143.39    133.39861   -29276.789   -21292.178 
   65800    311.13263   -29110.414    148.38837   -29258.802   -21433.249 
   66000    286.93432   -29129.309    136.84747   -29266.157   -32760.275 
   66200    279.47454   -29144.481    133.28968   -29277.771    -30603.07 
   66400    310.95353   -29139.944    148.30294   -29288.247   -12598.453 
   66600     335.0737   -29111.158    159.80657   -29270.965   -2505.1494 
   66800    291.76394   -29139.807    139.15086   -29278.958   -16776.833 
   67000    321.23284   -29133.996    153.20545   -29287.201     12352.66 
   67200    285.20726     -29137.7    136.02379   -29273.724   -28040.258 
   67400    276.65253   -29167.863    131.94378   -29299.806   -35485.333 
   67600    276.78934   -29150.058    132.00903   -29282.067   -15271.982 
   67800    296.43941     -29126.6    141.38073    -29267.98   -12842.134 
   68000    312.52469   -29122.126    149.05228   -29271.178    44247.536 
   68200    278.49364   -29154.482    132.82186   -29287.304    48016.725 
   68400    306.54488   -29131.667    146.20033   -29277.868    16533.413 
   68600    293.73655   -29157.746    140.09166   -29297.838   -15357.909 
   68800    278.96824   -29146.932    133.04821   -29279.981    3622.5314 
   69000    294.81721   -29130.615    140.60706   -29271.222   -2608.4416 
   69200    284.53353   -29142.077    135.70246   -29277.779   -10052.534 
   69400    279.21738   -29161.757    133.16704   -29294.924   -24683.816 
   69600    297.75712   -29134.905    142.00919   -29276.914    26925.597 
   69800    278.18674   -29160.943    132.67549   -29293.618   -40026.557 
   70000    293.18076   -29141.262    139.82658   -29281.089   -34968.928 
   70200    322.65044   -29122.801    153.88155   -29276.682   -76953.521 
   70400    291.18855   -29148.174    138.87644    -29287.05    6130.8624 
   70600    262.39856   -29158.158    125.14564   -29283.304     49211.03 
   70800    359.13761    -29124.07    171.28336   -29295.353    49411.766 
   71000    302.98373   -29150.317    144.50191   -29294.819    2352.0182 
   71200    278.92781   -29141.706    133.02893   -29274.735     13965.96 
   71400    332.69288   -29122.972    158.67109   -29281.643   -13438.885 
   71600     292.2627   -29159.283    139.38874   -29298.672    25491.251 
   71800    310.18896   -29148.257     147.9383   -29296.196   -5663.1541 
   72000    275.68561   -29134.513    131.48263   -29265.996    8610.6966 
   72200    332.75727   -29132.309    158.70179   -29291.011    -50313.57 
   72400    271.28494   -29151.817    129.38382   -29281.201   -3664.1109 
   72600    290.43623   -29123.591    138.51764   -29262.109   -1126.3856 
   72800    314.69992   -29138.823    150.08971   -29288.913   -12797.047 
   73000    300.33219   -29151.745    143.23732   -29294.983    17408.675 
   73200    293.97619   -29142.348    140.20595   -29282.553   -43367.263 
   73400    310.44109   -29115.281    148.05855    -29263.34    2389.6332 
   73600    252.56595   -29147.385    120.45618   -29267.841    24459.653 
   73800    300.01961    -29148.53    143.08823   -29291.618   -1128.7905 
   74000    319.81096   -29137.881    152.52731   -29290.408    16815.499 
   74200    279.89827   -29161.418    133.49177    -29294.91   -25094.272 
   74400    292.50151   -29142.411    139.50263   -29281.913    23795.202 
   74600    295.12396   -29134.409    140.75335   -29275.163   -1300.1836 
   74800       273.22   -29164.364    130.30671    -29294.67   -15000.869 
   75000    278.69372   -29179.769    132.91728   -29312.686   -10970.399 
   75200    322.54466   -29140.235     153.8311   -29294.066   -17200.536 
   75400    332.26091    -29141.46    158.46507   -29299.925    14149.931 
   75600    261.63403   -29152.725    124.78102   -29277.506    33542.761 
   75800    320.88958   -29118.204    153.04174   -29271.246   -28844.396 
   76000    290.80387   -29141.603    138.69298   -29280.296   -21874.583 
   76200    265.59643   -29150.974     126.6708   -29277.645   -27544.038 
   76400     305.9358   -29134.518    145.90984   -29280.428    12838.971 
   76600    313.31207   -29113.213     149.4278   -29262.641    37853.084 
   76800    305.10266   -29111.776    145.51249   -29257.288   -20829.895 
   77000    301.47071   -29142.708    143.78031   -29286.489   -10818.221 
   77200    298.48312   -29122.414    142.35544   -29264.769   -23372.128 
   77400    291.61566   -29121.072    139.08014   -29260.152    2068.8828 
   77600    295.16901   -29139.563    140.77484   -29280.338   -11822.987 
   77800    309.53688   -29117.168     147.6273   -29264.795   -25183.902 
   78000    298.29473   -29115.878    142.26559   -29258.144    2447.5878 
   78200    297.10332   -29137.456    141.69737   -29279.153   -48457.338 
   78400    312.83218   -29139.843    149.19893   -29289.042    28450.246 
   78600    276.04177   -29142.693    131.65249   -29274.345    33956.889 
   78800    306.68836   -29140.735    146.26876   -29287.004   -18259.058 
   79000    350.08428   -29121.733    166.96556   -29288.699    12178.469 
   79200    309.67516   -29146.221    147.69325   -29293.914    24323.221 
   79400    281.25058   -29155.706    134.13673   -29289.842   -38516.813 
   79600    345.89262   -29122.037    164.96643   -29287.004   -7477.3565 
   79800    296.35327   -29149.527    141.33965   -29290.867   -18249.518 
   80000    293.48223   -29138.853    139.97036   -29278.823   -40131.661 
   80200    313.84955   -29122.239    149.68414   -29271.924    38241.754 
   80400    263.75209   -29160.259    125.79118    -29286.05   -16546.823 
   80600    306.45483   -29138.449    146.15738   -29284.606   -9675.0288 
   80800    303.98789   -29127.327    144.98083   -29272.307    36853.207 
   81000    291.17166   -29147.609    138.86839   -29286.478   -32044.392 
   81200     299.4016   -29136.663    142.79349   -29279.456   -5672.7863 
   81400    296.25984   -29122.032    141.29509   -29263.327   -4436.5634 
   81600    292.31476   -29148.927    139.41356   -29288.341     3822.674 
   81800    288.49863   -29164.487    137.59354   -29302.081   -42308.656 
   82000    298.01499   -29143.497    142.13217   -29285.629   -5898.2388 
   82200    337.40316   -29122.359    160.91756   -29283.276     -11252.2 
   82400    320.08995   -29134.765    152.66038   -29287.426     20835.67 
   82600    296.53646   -29152.857    141.42702   -29294.284    265.41238 
   82800    308.19202   -29145.864     146.9859    -29292.85     22926.61 
   83000     311.7201    -29140.03    148.66854   -29288.699   -4935.5883 
   83200     295.2529   -29164.122    140.81485   -29304.937     23750.49 
   83400    299.04356   -29130.797    142.62273    -29273.42    9124.4748 
   83600     300.7612   -29133.784    143.44192   -29277.226   -8440.4122 
   83800    275.62231    -29156.01    131.45244   -29287.462    8647.3556 
   84000    289.80691   -29155.048    138.21749   -29293.265    -6021.711 
   84200    330.17994   -29135.039    157.47259   -29292.512   -14498.105 
   84400    271.02811   -29155.533    129.26133   -29284.794   -10804.505 
   84600     313.8859   -29148.077    149.70148   -29297.778    21736.595 
   84800    309.09773   -29126.112    147.41786    -29273.53   -34198.055 
   85000    289.70954    -29154.02    138.17106   -29292.191     28387.48 
   85200    301.13189   -29148.449    143.61872   -29292.067    5257.9611 
   85400    300.37047   -29135.862    143.25557   -29279.118    4540.1156 
   85600    335.27151    -29121.53    159.90091   -29281.431   -16799.923 
   85800    297.02476   -29136.802     141.6599   -29278.462    23894.996 
   86000    294.35821   -29148.796    140.38815   -29289.184   -8217.7605 
   86200    368.11004    -29114.09    175.56258   -29289.653    -17864.47 
   86400    318.64552    -29139.98    151.97148   -29291.952   -9857.5797 
   86600    272.37739    -29150.49    129.90484   -29280.395   -3933.9029 
   86800    320.51712   -29115.511     152.8641   -29268.375   -15770.759 
   87000    312.16665   -29130.564    148.88152   -29279.445    -15663.33 
   87200    286.58953   -29148.292    136.68303   -29284.975   -20945.749 
   87400    303.45146   -29137.179    144.72499   -29281.904    2702.3366 
   87600      311.828   -29115.563       148.72   -29264.283    28275.725 
   87800    318.10053   -29090.232    151.71156   -29241.943    11632.532 
   88000     307.5875   -29128.992    146.69759   -29275.689    -20278.36 
   88200    279.74192   -29141.411     133.4172   -29274.828   -725.86551 
   88400    262.40875   -29166.978     125.1505   -29292.129   -22794.267 
   88600    279.68152   -29135.101     133.3884   -29268.489    18592.142 
   88800    263.99039   -29138.296    125.90484   -29264.201   -61742.433 
   89000    270.03372   -29151.336    128.78708   -29280.123    11151.572 
   89200    301.65767   -29117.448    143.86948   -29261.318    11605.979 
   89400    295.06308   -29143.564    140.72432   -29284.288   -13701.429 
   89600     289.1682   -29147.245    137.91288   -29285.158    12069.297 
   89800     301.8393   -29123.195     143.9561   -29267.151   -34265.862 
   90000    288.94791   -29109.873    137.80781    -29247.68    11420.298 
   90200    281.35237   -29126.785    134.18527   -29260.971     31416.19 
   90400    302.08001   -29141.754     144.0709   -29285.825    7999.3485 
   90600    288.17431   -29121.896    137.43886   -29259.334    48335.022 
   90800    280.09628   -29136.221    133.58621   -29269.807   -26066.377 
   91000    270.10392   -29144.211    128.82056   -29273.031   -7053.7021 
   91200    302.57287   -29123.793    144.30596   -29268.099   -39200.633 
   91400    285.98601   -29145.259    136.39519   -29281.654    20134.839 
   91600    298.55235   -29151.616    142.38845   -29294.005    11893.017 
   91800    322.29884   -29132.385    153.71386   -29286.099    28665.529 
   92000    261.00095   -29163.558    124.47908   -29288.037    38084.006 
   92200    297.66713   -29139.107    141.96627   -29281.074    21940.247 
   92400    313.37102   -29124.536    149.45592   -29273.991   -27787.943 
   92600      319.704   -29132.871     152.4763   -29285.347    31522.218 
   92800    289.35172   -29153.244     138.0004   -29291.245    12553.391 
   93000    331.01379   -29123.781    157.87028   -29281.651    27273.107 
   93200    295.55412   -29148.504    140.95851   -29289.462   -11501.133 
   93400    314.53727   -29142.707    150.01214   -29292.719   -10058.431 
   93600    331.63654   -29124.823    158.16729    -29282.99   -35320.056 
   93800    288.48125   -29151.008    137.58525   -29288.593    20665.318 
   94000    265.82019   -29164.258    126.77752   -29291.036    24629.295 
   94200    322.24261    -29137.79    153.68704   -29291.477   -2375.5112 
   94400    284.89765   -29130.185    135.87613   -29266.061   -12780.297 
   94600    311.44728   -29103.986    148.53843   -29252.524   -11302.845 
   94800    285.78966   -29136.121    136.30155   -29272.423    16418.971 
   95000    334.21516   -29131.243     159.3971    -29290.64   -31839.121 
   95200    312.36266   -29124.404      148.975   -29273.379    34910.837 
   95400    291.64693     -29152.2    139.09506   -29291.295    39114.069 
   95600     288.8335   -29124.419    137.75325   -29262.172   -23427.255 
   95800    328.77422   -29124.497    156.80216   -29281.299   -35331.811 
   96000    289.32402   -29144.123    137.98719    -29282.11    17284.573 
   96200    289.66021   -29167.562    138.14753    -29305.71    10037.263 
   96400    280.93433   -29137.889     133.9859   -29271.875    3055.9109 
   96600    293.14504   -29144.342    139.80955   -29284.151    9006.3298 
   96800    285.09805    -29131.57     135.9717   -29267.542   -2302.8347 
   97000    305.11241   -29119.984    145.51714   -29265.501   -2250.6119 
   97200    285.46356    -29147.53    136.14603   -29283.676   -29654.066 
   97400    304.80804   -29138.293    145.37198   -29283.665    23046.881 
   97600    302.66075   -29132.587    144.34787   -29276.935    -2308.497 
   97800    282.01699   -29156.939    134.50225   -29291.441   -23774.921 
   98000    301.99033   -29127.583    144.02813   -29271.611   -12158.549 
   98200    308.32477   -29128.393    147.04921   -29275.442   -11645.715 
   98400    265.66596   -29161.975    126.70396   -29288.679   -28303.163 
   98600    276.71409   -29147.284    131.97314   -29279.257   -11119.173 
   98800    302.99564   -29146.947    144.50759   -29291.454   -2888.9757 
   99000    294.76387   -29132.867    140.58161   -29273.449     21437.25 
   99200    303.32475   -29123.924    144.66455   -29268.588      25661.7 
   99400    271.51652   -29149.645    129.49427    -29279.14    -3026.641 
   99600     315.7575   -29126.942     150.5941   -29277.536    5350.7047 
   99800    288.26456   -29142.398     137.4819    -29279.88   -20031.253 
  100000    255.29015   -29162.557    121.75543   -29284.312    2845.0952 
  100200    322.96603   -29129.609    154.03206   -29283.641   -31784.531 
  100400    307.17691   -29125.187    146.50176   -29271.689    44676.251 
  100600    279.23217   -29155.206    133.17409    -29288.38    23956.689 
  100800     300.5475   -29133.592       143.34   -29276.932    12087.562 
  101000    306.86837   -29135.813    146.35461   -29282.167   -45537.029 
  101200    282.06533   -29165.617    134.52531   -29300.142   -12183.822 
  101400     282.0237   -29147.194    134.50545   -29281.699   -9692.9889 
  101600    331.27566   -29124.458    157.99517   -29282.454   -28906.678 
  101800    304.09358   -29143.178    145.03123   -29288.209    13889.021 
  102000    283.91941   -29152.933    135.40957   -29288.343   -12196.126 
  102200    307.18071   -29123.875    146.50358   -29270.379   -31058.789 
  102400    299.69764   -29151.848    142.93468   -29294.783    19121.446 
  102600    288.05274   -29142.832    137.38088   -29280.212   -34012.408 
  102800    324.88374   -29113.027    154.94667   -29267.973   -18415.104 
  103000    290.85403   -29132.834     138.7169   -29271.551   -7238.8876 
  103200    283.61357   -29149.586    135.26371    -29284.85   -36291.426 
  103400     292.7741   -29143.563    139.63264   -29283.195    -9223.546 
  103600    299.84188   -29133.155    143.00347   -29276.159    27171.787 
  103800    291.80364   -29162.361    139.16979    -29301.53    9783.9829 
  104000    321.53814    -29146.83    153.35106   -29300.181    66257.272 
  104200    334.12791   -29103.531    159.35549   -29262.886    18353.752 
  104400    308.24421    -29138.97    147.01079    -29285.98    1951.4721 
  104600    295.31698   -29156.284    140.84541    -29297.13   -11653.685 
  104800    297.36758   -29149.103     141.8234   -29290.926    18688.018 
  105000    298.49385   -29126.938    142.36055   -29269.298    15064.771 
  105200    310.73284   -29157.538    148.19769   -29305.735   -7168.5038 
  105400    297.73561    -29149.61    141.99893   -29291.609   -925.57866 
  105600    323.48074   -29134.559    154.27754   -29288.837   -46092.485 
  105800    287.13742   -29161.926    136.94434    -29298.87    10128.076 
  106000    274.89444   -29162.457     131.1053   -29293.563   -6666.2033 
  106200    309.56699   -29137.679    147.64166   -29285.321    20136.272 
  106400    297.78254   -29133.749    142.02131    -29275.77    3079.9109 
  106600    287.54831   -29159.543     137.1403   -29296.683    8070.9272 
  106800    284.72975   -29130.821    135.79605   -29266.617    -17365.94 
  107000    284.47666   -29135.954    135.67534   -29271.629   -5197.5717 
  107200    322.18253   -29137.636    153.65839   -29291.294    18421.336 
  107400    326.73701   -29139.641    155.83055   -29295.472   -51323.971 
  107600    261.00643   -29168.679    124.48169    -29293.16    14544.648 
  107800    287.58795   -29139.001    137.15921    -29276.16     8889.559 
  108000    295.67309   -29150.224    141.01525   -29291.239   -2246.2846 
  108200    286.00138   -29154.113    136.40253   -29290.516   -8789.8001 
  108400    300.07377    -29132.25    143.11406   -29275.364     9552.096 
  108600    294.59643   -29153.343    140.50176   -29293.845    13228.574 
  108800    288.35106    -29134.02    137.52316   -29271.543    -33938.24 
  109000    307.57225    -29124.32    146.69031    -29271.01   -11631.602 
  109200    264.08852   -29151.726    125.95163   -29277.677     16368.75 
  109400    269.39813   -29148.693    128.48394   -29277.177    11916.532 
  109600    312.68422   -29118.978    149.12836   -29268.106   -11617.197 
  109800    285.65311   -29145.243    136.23642   -29281.479   -33565.336 
  110000    303.12885   -29142.201    144.57112   -29286.772    8245.4543 
  110200    283.04292   -29131.097    134.99155   -29266.088    11418.067 
  110400    315.36735   -29133.901    150.40803   -29284.309    19561.636 
  110600    277.38962   -29159.717    132.29532   -29292.013    34616.986 
  110800    317.58435   -29130.196    151.46538   -29281.661      16803.7 
  111000    298.22663   -29144.396    142.23311   -29286.629    9576.3143 
  111200     303.1335   -29138.571    144.57334   -29283.144   -8741.7495 
  111400    315.60355   -29118.258    150.52068   -29268.778    20682.171 
  111600    277.65412   -29144.617    132.42147   -29277.038   -27724.983 
  111800    322.33077   -29134.204    153.72909   -29287.933    8329.7887 
  112000    297.81307   -29134.497    142.03587   -29276.533   -3024.0005 
  112200    299.32305   -29140.894    142.75602    -29283.65   -4829.5743 
  112400    289.59332   -29133.074    138.11563   -29271.189   -2700.5743 
  112600    302.14783   -29117.933    144.10325   -29262.036    40888.674 
  112800    291.18536   -29143.892    138.87492   -29282.767    44817.356 
  113000    325.44499   -29133.164    155.21435   -29288.378   -8236.0612 
  113200    289.42073   -29148.648    138.03332   -29286.681    5648.3712 
  113400    280.43597   -29148.404    133.74822   -29282.153   -25859.636 
  113600    297.22466   -29126.407    141.75524   -29268.162    24538.493 
  113800    297.58698   -29142.559    141.92804   -29284.487    32386.139 
  114000    283.65657   -29173.283    135.28422   -29308.567   -2033.7451 
  114200    295.12569   -29147.548    140.75418   -29288.302     -15244.3 
  114400    309.65798   -29134.941    147.68506   -29282.626   -30090.828 
  114600    326.15558   -29112.355    155.55325   -29267.908    6515.3126 
  114800    314.90802   -29138.135    150.18896   -29288.324    2795.9756 
  115000    284.63955   -29138.268    135.75303   -29274.021   -6563.2434 
  115200    334.41272   -29110.092    159.49133   -29269.583    11085.402 
  115400    318.91637   -29125.767    152.10066   -29277.868    13184.856 
  115600    286.69076   -29145.289    136.73131    -29282.02    2976.6003 
  115800    306.32514   -29123.669    146.09553   -29269.764    43432.397 
  116000    303.79035   -29123.138    144.88661   -29268.025   -12395.114 
  116200    290.47374   -29139.909    138.53553   -29278.445    7694.3798 
  116400     295.9422   -29137.358     141.1436   -29278.502   -18839.977 
  116600    273.00137   -29147.622    130.20244   -29277.824    36327.153 
  116800    317.57525   -29133.048    151.46104   -29284.509    -40966.29 
  117000    313.81943   -29127.324    149.66978   -29276.994    4214.7026 
  117200    286.16542   -29145.227    136.48076   -29281.708   -40716.715 
  117400    291.47832   -29136.288    139.01464   -29275.302    3187.0415 
  117600    335.51567    -29114.13    160.01736   -29274.148    6009.8546 
  117800    295.12167   -29149.378    140.75226    -29290.13    7477.0277 
  118000    302.51826   -29134.021    144.27992   -29278.301   -23071.119 
  118200    309.17991   -29121.594    147.45705   -29269.051    16255.546 
  118400    271.12153   -29155.522    129.30588   -29284.828   -16656.838 
  118600    298.55799   -29124.883    142.39115   -29267.274    9190.1645 
  118800    294.41035   -29128.208    140.41301   -29268.621    21718.449 
  119000    277.75303   -29148.107    132.46865   -29280.575   -32781.063 
  119200    288.13339   -29128.758    137.41934   -29266.177   -27654.934 
  119400    298.66774   -29132.251    142.44349   -29274.695    21412.641 
  119600    256.01286   -29156.274    122.10011   -29278.374    14680.204 
  119800    307.66684    -29128.44    146.73542   -29275.176    23360.054 
  120000    286.55745   -29136.452    136.66773    -29273.12    41167.196 
  120200    288.34289   -29141.406    137.51926   -29278.925    7662.8554 
  120400    305.99679    -29142.64    145.93893   -29288.579    25602.717 
  120600    300.44296   -29158.186    143.29014   -29301.476   -28958.231 
  120800    321.36489   -29138.489    153.26843   -29291.758    23756.018 
  121000    320.71015   -29130.969    152.95617   -29283.925    -29892.59 
  121200    280.25022   -29155.552    133.65963   -29289.211   -1723.1916 
  121400    305.19088   -29127.309    145.55457   -29272.864   -3816.5548 
  121600    309.08123   -29138.835    147.40999   -29286.245    1840.3401 
  121800    280.41268   -29153.083    133.73711    -29286.82   -3286.0674 
  122000    313.88063   -29133.569    149.69897   -29283.268    3069.4859 
  122200    304.47369   -29127.626    145.21252   -29272.838   -21754.572 
  122400    292.66736   -29155.443    139.58173   -29295.024    10533.959 
  122600    301.60966   -29130.569    143.84658   -29274.416    48283.993 
  122800    314.43561   -29132.326    149.96365    -29282.29    11519.785 
  123000    262.99161   -29165.709    125.42848   -29291.137    11180.352 
  123200    297.29978   -29140.667    141.79107   -29282.458    50443.075 
  123400    305.37578   -29127.148    145.64275   -29272.791    -17515.36 
  123600    290.87707   -29132.689    138.72789   -29271.417   -4483.9868 
  123800    284.91449   -29150.661    135.88415   -29286.545     31227.74 
  124000    325.18099   -29130.492    155.08844    -29285.58    -16222.92 
  124200    270.96365   -29133.733    129.23059   -29262.964    17376.907 
  124400    296.56269   -29156.383    141.43953   -29297.822    13616.872 
  124600    301.23397   -29143.876     143.6674   -29287.543    9676.8369 
  124800    334.50666   -29114.492    159.53613   -29274.028    -20423.62 
  125000    310.07987   -29145.188    147.88627   -29293.074   -14568.979 
  125200    289.94331    -29151.24    138.28255   -29289.523   -25176.904 
  125400    309.18061   -29125.926    147.45739   -29273.383     -39886.1 
  125600    311.77383   -29151.934    148.69417   -29300.628     37610.18 
  125800    308.48406   -29151.493    147.12518   -29298.618    -10576.52 
  126000    311.09629   -29135.821    148.37103   -29284.192   -18749.355 
  126200     323.6769   -29129.552     154.3711   -29283.923    16477.468 
  126400    287.50088   -29154.839    137.11768   -29291.957   -7131.9046 
  126600    300.37125   -29129.128    143.25594   -29272.384    23632.026 
  126800    305.72394   -29141.201     145.8088    -29287.01     11540.13 
  127000    275.09388   -29149.467    131.20041   -29280.667    7.2660608 
  127200    322.07548   -29113.593    153.60733   -29267.201      12786.4 
  127400     317.1354   -29124.282    151.25126   -29275.534    40071.264 
  127600    312.45366   -29150.564     149.0184   -29299.583    21789.914 
  127800    298.68435   -29142.888    142.45141   -29285.339     2290.346 
  128000    310.17866   -29118.929    147.93339   -29266.862   -8154.7112 
  128200    273.21578   -29145.576     130.3047   -29275.881    11256.263 
  128400    290.18148   -29141.903    138.39614   -29280.299    40974.087 
  128600    279.38007   -29145.198    133.24463   -29278.443   -10777.692 
  128800    271.36804   -29162.256    129.42345   -29291.679    6134.8452 
  129000     308.6467   -29127.903    147.20275   -29275.106    11281.586 
  129200    323.90856   -29139.641    154.48158   -29294.122   -19088.015 
  129400    298.27843   -29159.289    142.25782   -29301.546   -10553.467 
  129600     281.9488   -29142.167    134.46973   -29276.637    42600.267 
  129800    332.22631    -29119.39    158.44856   -29277.838    6556.2613 
  130000    275.94951   -29143.919    131.60849   -29275.527   -21009.598 
  130200    296.91859   -29148.848    141.60927   -29290.457     44077.97 
  130400    293.42161   -29123.309    139.94145    -29263.25   -61375.718 
  130600    287.47665   -29158.925    137.10613   -29296.032    15531.955 
  130800    320.69284   -29143.407    152.94791   -29296.355   -607.61151 
  131000    302.10629   -29133.245    144.08343   -29277.328   -41022.671 
  131200    247.02306   -29165.295    117.81261   -29283.108   -41283.349 
  131400    284.06041    -29142.32    135.47682   -29277.797    24415.002 
  131600    283.94907   -29126.658    135.42372   -29262.082   -36568.973 
  131800    286.87665   -29148.014    136.81997   -29284.834    10165.431 
  132000    301.33007   -29142.875    143.71323   -29286.588    -10991.05 
  132200    288.95182   -29131.323    137.80968   -29269.133   -14826.985 
  132400    318.82387   -29143.768    152.05654   -29295.824      7405.65 
  132600    277.90212   -29161.741    132.53975   -29294.281    2332.1801 
  132800    288.18115   -29129.501    137.44212   -29266.943   -15607.966 
  133000    289.78314   -29131.778    138.20616   -29269.984    16237.595 
  133200    306.01376   -29154.846    145.94702   -29300.793   -20355.403 
  133400    292.56793   -29133.618    139.53431   -29273.152   -57941.557 
  133600    329.40732   -29130.131     157.1041   -29287.235    7371.4029 
  133800    287.95359   -29142.804    137.33359   -29280.138   -16961.917 
  134000    319.40854   -29126.141    152.33539   -29278.476    14881.911 
  134200    275.34973   -29146.305    131.32244   -29277.628   -22205.088 
  134400    290.73401   -29144.168    138.65966   -29282.827    3389.1613 
  134600     327.6082   -29130.376    156.24605   -29286.622   -35962.506 
  134800    304.94631   -29145.255    145.43792   -29290.693   -22505.488 
  135000    281.42985   -29168.063    134.22223   -29302.285   -23781.606 
  135200    316.57929   -29140.744    150.98603    -29291.73    18870.501 
  135400    326.89186   -29133.305    155.90441    -29289.21    -31314.96 
  135600    296.43681   -29157.418    141.37949   -29298.798   -32792.228 
  135800    294.68208   -29150.688    140.54261    -29291.23   -22385.382 
  136000    284.17727   -29127.924    135.53255   -29263.457   -11058.358 
  136200    303.72854   -29136.448    144.85713   -29281.305   -18177.517 
  136400     278.7613   -29158.801    132.94952    -29291.75   -23178.191 
  136600    300.18681   -29129.478    143.16798   -29272.646   -612.70343 
  136800    289.49771    -29121.23    138.07003     -29259.3    28342.661 
  137000    288.01963    -29143.05    137.36509   -29280.415   -23945.216 
  137200    251.76391   -29151.421    120.07366   -29271.495   -11751.983 
  137400    299.65613   -29124.779    142.91488   -29267.694   -4323.4089 
  137600    294.97657   -29131.555    140.68306   -29272.238    -11282.75 
  137800    293.71249   -29158.628    140.08018   -29298.708   -2102.8398 
  138000    311.29562   -29125.303     148.4661   -29273.769   -1093.9457 
  138200    260.67516   -29139.462     124.3237   -29263.785    -21458.35 
  138400     282.2074   -29143.367    134.59307    -29277.96    44491.744 
  138600    344.44857   -29116.835    164.27772   -29281.112    19935.558 
  138800    296.55625   -29144.463    141.43645     -29285.9    3411.1947 
  139000    298.78225   -29118.149     142.4981   -29260.647   -5030.2679 
  139200    329.35091   -29120.502     157.0772   -29277.579    22674.632 
  139400    284.22105   -29143.125    135.55344   -29278.678   -1523.7598 
  139600    312.38337   -29123.831    148.98488   -29272.816    123.15459 
  139800    309.29821   -29113.022    147.51348   -29260.536    35707.595 
  140000    296.47941   -29139.714    141.39981   -29281.114    5804.6829 
  140200    285.41263   -29134.997    136.12173   -29271.119   -516.66922 
  140400     331.7341   -29112.185    158.21382   -29270.399    7125.9503 
  140600    305.44832   -29138.199    145.67735   -29283.876   -47408.554 
  140800      317.135   -29134.732    151.25107   -29285.983   -8619.6688 
  141000    281.87932   -29131.067    134.43659   -29265.504   -13514.715 
  141200    313.84479   -29105.197    149.68187   -29254.879   -6061.9022 
  141400    284.55982   -29136.054      135.715   -29271.769    10354.545 
  141600    272.31239   -29136.191    129.87384   -29266.064    20869.194 
  141800    323.97453   -29100.698    154.51304   -29255.211     36090.26 
  142000    312.24337   -29120.299    148.91811   -29269.218   -3331.8088 
  142200    304.83498   -29138.954    145.38483   -29284.338    5273.3586 
  142400    284.52348   -29141.423    135.69767   -29277.121   -7576.9168 
  142600    312.32024   -29111.278    148.95477   -29260.233   -40153.504 
  142800    297.11332   -29139.486    141.70214   -29281.189    4262.9105 
  143000    339.68377    -29136.16    162.00525   -29298.165    -43570.17 
  143200    290.22033   -29124.937    138.41467   -29263.352    32078.576 
  143400    360.51015   -29085.106    171.93796   -29257.044   -10557.136 
  143600    295.42475   -29116.418    140.89681   -29257.315    7307.3555 
  143800    308.77669   -29138.246    147.26475    -29285.51    1808.3288 
  144000     323.2428   -29129.009    154.16406   -29283.174    4262.2104 
  144200    312.34828   -29109.375    148.96814   -29258.344   -717.43875 
  144400    290.65382   -29136.517    138.62141   -29275.138    18748.181 
  144600    305.13782   -29134.092    145.52926   -29279.621   -9955.8338 
  144800    321.16962   -29111.203     153.1753   -29264.378    20806.286 
  145000    330.34414    -29136.55     157.5509   -29294.101   -3810.0513 
  145200    267.71456   -29139.958      127.681   -29267.639   -21286.624 
  145400    360.80679   -29106.157    172.07944   -29278.236    1421.4605 
  145600    317.28557   -29137.326    151.32288   -29288.649   -13978.631 
  145800    309.18975   -29136.696    147.46175   -29284.158    31288.603 
  146000    297.21001   -29116.176    141.74826   -29257.924   -28559.677 
  146200    284.64151   -29136.032    135.75396   -29271.786    52238.008 
  146400    312.12696   -29143.577    148.86259    -29292.44    11548.037 
  146600    308.28721   -29111.753     147.0313   -29258.784    25205.845 
  146800     293.7696   -29128.306    140.10742   -29268.413    17810.723 
  147000    300.87828   -29148.216    143.49776   -29291.714    28319.387 
  147200    245.68705   -29174.873    117.17543   -29292.049   -33591.226 
  147400    300.89608   -29141.501    143.50625   -29285.007    15489.746 
  147600    313.31159    -29130.47    149.42758   -29279.898   -2386.7525 
  147800    262.21584   -29157.578     125.0585   -29282.637    -39514.37 
  148000    313.98888   -29129.345    149.75059   -29279.096    10892.267 
  148200    293.46893   -29136.833    139.96402   -29276.797    39269.123 
  148400     301.2822   -29148.056     143.6904   -29291.747    1443.3251 
  148600    325.68391   -29113.762     155.3283   -29269.091   -4485.0623 
  148800    296.13413   -29143.963    141.23513   -29285.199      50972.1 
  149000    292.08169   -29138.846     139.3024   -29278.148   -56173.671 
  149200    323.52935   -29105.757    154.30072   -29260.058   -2498.9212 
  149400    299.24798   -29135.794    142.72022   -29278.514    19274.973 
  149600    288.71104   -29146.596    137.69484   -29284.291   -26150.935 
  149800    332.32626   -29128.223    158.49623   -29286.719   -25958.505 
  150000    308.90178   -29134.896    147.32441    -29282.22   -15810.238 
  150200    275.29869   -29148.884     131.2981   -29280.182    31102.938 
  150400    300.82838   -29135.618    143.47396   -29279.092    16816.821 
  150600    311.89769   -29128.834    148.75325   -29277.588    78394.491 
  150800    290.70025    -29153.22    138.64356   -29291.864     12229.53 
  151000     298.7773   -29146.533    142.49574   -29289.029     22189.38 
  151200    338.10145   -29126.485    161.25059   -29287.735    50124.621 
  151400    277.53266   -29148.898    132.36354   -29281.261    4934.7441 
  151600    291.92427   -29140.929    139.22733   -29280.156    8398.7346 
  151800    253.52419   -29146.846    120.91319   -29267.759   -13018.452 
  152000    309.76541    -29149.03    147.73629   -29296.766   -13995.887 
  152200    320.59489   -29127.721    152.90119   -29280.622   -5767.3619 
  152400    284.62201   -29148.119    135.74467   -29283.864    12048.825 
  152600    304.08937   -29138.153    145.02922   -29283.182   -12179.284 
  152800    311.86704   -29136.522    148.73862   -29285.261    34122.071 
  153000    286.99996   -29162.195    136.87878   -29299.073   -44966.541 
  153200    275.85829   -29133.829    131.56499   -29265.394   -28586.187 
  153400    308.26817   -29142.999    147.02222   -29290.021   -6090.7485 
  153600    292.36743    -29152.44    139.43869   -29291.879   -46046.736 
  153800    331.41072   -29120.242    158.05958   -29278.302    30570.564 
  154000    300.19521   -29149.359    143.17198   -29292.531   -10352.031 
  154200    296.97449   -29144.392    141.63593   -29286.028   -61720.896 
  154400    304.52705   -29132.413    145.23797   -29277.651   -1405.2979 
  154600     288.9378   -29143.076    137.80299   -29280.879    4644.2081 
  154800    272.61065   -29157.763    130.01609   -29287.779   -24590.198 
  155000    318.33434   -29133.595    151.82307   -29285.418   -822.95071 
  155200    305.97785   -29132.409     145.9299   -29278.339   -49621.134 
  155400    279.51271   -29163.621    133.30789   -29296.929   -3958.6759 
  155600    270.90518   -29143.841     129.2027   -29273.043   -2367.8217 
  155800    313.40564    -29129.11    149.47243   -29278.582    4381.0549 
  156000    349.58818   -29099.197    166.72896   -29265.926    22680.455 
  156200    289.99507    -29132.18    138.30723   -29270.487    6043.9099 
  156400     301.5912   -29137.552    143.83777   -29281.389    6751.4314 
  156600    333.60765   -29108.471    159.10737   -29267.579    37754.984 
  156800    281.12776   -29143.381    134.07815   -29277.459    35797.915 
  157000    299.10306   -29130.072    142.65111   -29272.724    356.16202 
  157200    314.03885   -29117.831    149.77443   -29267.606   -10981.307 
  157400     284.0076   -29151.066    135.45163   -29286.517    -1495.436 
  157600    311.67898   -29125.822    148.64894   -29274.471    4064.2026 
  157800    314.43725   -29126.748    149.96443   -29276.712    5223.5059 
  158000    332.14504   -29137.694     158.4098   -29296.104    5776.5556 
  158200    293.81302   -29138.292    140.12813    -29278.42   -23391.834 
  158400    306.29868   -29133.955    146.08291   -29280.037     16748.88 
  158600    293.14418   -29138.338    139.80914   -29278.148    15023.465 
  158800     287.1935   -29153.808    136.97108   -29290.779     42336.91 
  159000    314.42688   -29122.081    149.95949   -29272.041   -42528.214 
  159200    310.19839   -29131.689     147.9428   -29279.632    9979.3254 
  159400    270.41045    -29145.51    128.96675   -29274.476   -5344.5835 
  159600     323.6302   -29134.807    154.34882   -29289.156   -20810.477 
  159800    314.57257     -29120.6    150.02897   -29270.629    24830.293 
  160000    292.46848   -29152.302    139.48688   -29291.789    2323.3947 
  160200    286.58407   -29137.273    136.68043   -29273.953    12170.262 
  160400    314.96762   -29125.011    150.21738   -29275.228   -8170.2094 
  160600    291.38627   -29138.232    138.97074   -29277.203    12748.685 
  160800    274.46072   -29155.579    130.89844   -29286.477   -6519.8515 
  161000    287.10886   -29151.593    136.93071   -29288.524    7300.0565 
  161200    323.03704   -29128.146    154.06593   -29282.212   -150.26525 
  161400    278.94077   -29155.253    133.03511   -29288.288    39685.522 
  161600    289.04702    -29153.55    137.85508   -29291.405     354.4327 
  161800    285.33745   -29139.155    136.08588   -29275.241    22676.584 
  162000    325.39422   -29125.066    155.19014   -29280.256   -26996.796 
  162200    279.92899   -29148.844    133.50642    -29282.35    957.89661 
  162400    310.82227   -29148.814    148.24034   -29297.055     14233.95 
  162600    325.51979   -29121.664    155.25003   -29276.914    15028.174 
  162800    302.05481    -29138.12    144.05888   -29282.179    21934.196 
  163000    274.91975   -29156.573    131.11737    -29287.69    25966.226 
  163200    313.47618   -29126.041    149.50607   -29275.547    6398.4541 
  163400    291.52401   -29131.636    139.03643   -29270.673    6317.2716 
  163600    282.35853   -29150.401    134.66515   -29285.066    1509.5085 
  163800    336.68004   -29109.884    160.57268   -29270.457   -974.11841 
  164000    310.36121   -29115.171    148.02045   -29263.192   -25593.582 
  164200    283.45152   -29142.742    135.18642   -29277.928    -15134.84 
  164400     311.6659   -29131.179     148.6427   -29279.822    25729.078 
  164600     334.2602   -29114.473    159.41859   -29273.892   -26539.207 
  164800    279.60565   -29132.818    133.35221    -29266.17   -15659.248 
  165000    301.58768   -29131.366    143.83609   -29275.202    14608.479 
  165200    275.76934    -29156.42    131.52256   -29287.943    11423.913 
  165400    293.33273   -29130.159    139.89907   -29270.058    -17846.47 
  165600    329.20317   -29124.768    157.00674   -29281.775   -3962.4517 
  165800    267.80691   -29153.805    127.72505    -29281.53    -30067.66 
  166000    279.24463   -29138.709    133.18003   -29271.889     -16066.3 
  166200    310.97989   -29131.942    148.31552   -29280.258    18601.922 
  166400    303.87886   -29146.233    144.92883   -29291.161    41213.583 
  166600     292.4699    -29151.18    139.48756   -29290.668   -34174.445 
  166800    299.11323   -29126.049    142.65595   -29268.705     -17553.7 
  167000    264.14371   -29148.289    125.97796   -29274.267    2123.7351 
  167200    285.91537   -29168.042    136.36151   -29304.404   -3723.0555 
  167400     321.1163    -29128.18    153.14987    -29281.33    774.01765 
  167600    305.51027   -29137.698    145.70689   -29283.405    48013.978 
  167800    273.86682   -29163.562     130.6152   -29294.177   -7205.2589 
  168000    320.06638    -29126.15    152.64913     -29278.8    2821.6015 
  168200    262.73794   -29130.684     125.3075   -29255.991   -14216.178 
  168400     253.1674    -29154.08    120.74303   -29274.823    31986.812 
  168600    313.08962   -29125.796    149.32171   -29275.118     24622.28 
  168800    316.81328   -29130.031    151.09763   -29281.129    25839.732 
  169000    277.90727   -29150.828    132.54221    -29283.37   -24102.037 
  169200    314.04113   -29108.494    149.77551   -29258.269    23183.109 
  169400    334.28607   -29138.098    159.43092   -29297.529    9599.1293 
  169600    290.00726    -29151.05    138.31305   -29289.363    15374.702 
  169800    292.91827   -29135.142     139.7014   -29274.843   -14592.036 
  170000    329.42905   -29124.855    157.11447   -29281.969     25315.51 
  170200    277.40764   -29156.818    132.30392   -29289.122   -44957.923 
  170400    313.75569   -29138.789    149.63938   -29288.429    8283.7036 
  170600    337.79929    -29101.69    161.10648   -29262.796    48220.835 
  170800    331.98976   -29124.178    158.33575   -29282.514   -8634.2183 
  171000     275.6114   -29151.302    131.44724   -29282.749   -13831.256 
  171200    292.09183   -29139.914    139.30724   -29279.222   -7020.5841 
  171400    321.34728   -29126.928    153.26003   -29280.188    38093.266 
  171600    281.26007   -29148.456    134.14126   -29282.597   -22311.386 
  171800    291.54989   -29144.637    139.04878   -29283.686    24414.553 
  172000    349.17764   -29106.749    166.53316   -29273.282   -22800.722 
  172200     340.2268   -29134.738    162.26423   -29297.002     23666.31 
  172400    304.99851   -29152.381    145.46282   -29297.844    40975.712 
  172600    322.24048   -29122.141    153.68603   -29275.827   -8727.1891 
  172800    315.23853   -29135.453    150.34659     -29285.8    52238.272 
  173000    285.51211   -29135.408    136.16918   -29271.577     12073.59 
  173200     319.6367   -29133.053    152.44421   -29285.497    47772.986 
  173400    285.40706   -29141.705    136.11908   -29277.824    1572.6926 
  173600    328.98576   -29114.016    156.90305   -29270.919    5280.9908 
  173800     298.0233   -29147.634    142.13613    -29289.77    10543.004 
  174000    283.06356   -29138.486    135.00139   -29273.487   -46807.744 
  174200    325.06886   -29121.603    155.03497   -29276.638   -18508.257 
  174400    270.41541   -29158.304    128.96912   -29287.273   -23648.409 
  174600    306.45521   -29141.165    146.15756   -29287.322   -7020.6189 
  174800    306.70899   -29131.877     146.2786   -29278.156   -15011.164 
  175000    285.47665   -29135.934    136.15226   -29272.086   -4740.4149 
  175200     279.4417   -29144.214    133.27402   -29277.488   -9931.1254 
  175400    332.15769   -29120.216    158.41584   -29278.631   -4630.4871 
  175600    291.53753   -29142.253    139.04288   -29281.296    36680.977 
  175800    295.17972    -29143.43    140.77995    -29284.21   -11488.066 
  176000    314.94839    -29121.27    150.20821   -29271.479   -48522.452 
  176200    257.81338   -29151.265    122.95883   -29274.224    25045.928 
  176400    308.30279   -29139.539    147.03873   -29286.577    26455.449 
  176600    315.91095   -29123.761    150.66729   -29274.428    9841.1558 
  176800    304.72657   -29160.894    145.33312   -29306.227    14897.256 
  177000    303.46765   -29139.559    144.73271   -29284.292   -14314.048 
  177200    326.50831   -29138.613    155.72148   -29294.335   -25817.876 
  177400    269.46812   -29167.094    128.51732   -29295.611   -8033.1035 
  177600    295.37675   -29144.903    140.87392   -29285.777    5151.6388 
  177800    288.23847   -29150.486    137.46946   -29287.956    6736.9568 
[...]
  950000    323.82277   -29128.884    154.44067   -29283.324   -6753.0408 
  950200    280.87499    -29165.62     133.9576   -29299.578    1024.0667 
  950400    309.48953   -29139.493    147.60472   -29287.098   -16294.212 
  950600    304.01855     -29144.4    144.99545   -29289.395    48693.808 
  950800    256.79901   -29166.792    122.47505   -29289.267   -38337.269 
  951000    301.73098    -29139.49    143.90444   -29283.394     8377.144 
  951200    290.61859   -29137.807    138.60461   -29276.411    14335.934 
  951400     281.8541   -29167.847    134.42456   -29302.272   -4310.1984 
  951600    293.21852   -29140.085    139.84459   -29279.929     28964.87 
  951800    314.53034   -29126.951    150.00883    -29276.96    16716.919 
  952000    290.41447   -29153.233    138.50726   -29291.741   -6154.3247 
  952200    286.74709   -29150.209    136.75818   -29286.967    22156.541 
  952400    350.13274   -29132.048    166.98867   -29299.036    36067.048 
  952600    279.42368   -29148.833    133.26543   -29282.098    18847.757 
  952800    258.63545   -29179.351    123.35091   -29302.702       -20516 
  953000    272.19062   -29150.183    129.81576   -29279.999    27817.872 
  953200    285.73708   -29132.653    136.27647   -29268.929     42440.64 
  953400    289.93393   -29141.237    138.27808   -29279.515   -25282.848 
  953600    295.33605   -29157.793    140.85451   -29298.648   -30800.694 
  953800    325.14209   -29134.746    155.06989   -29289.816    21999.087 
  954000    318.91186   -29134.723    152.09851   -29286.822    16534.173 
  954200    321.90196   -29145.412    153.52458   -29298.937    20151.645 
  954400    296.17512   -29153.957    141.25468   -29295.212     6022.776 
  954600    338.28845   -29124.536    161.33978   -29285.876   -17762.275 
  954800    286.21436   -29142.578     136.5041   -29279.082   -9120.7991 
  955000    238.06921   -29172.072    113.54225   -29285.614    30007.871 
  955200    286.38178   -29146.088    136.58395   -29282.672    44597.402 
  955400    313.32071   -29130.147    149.43192   -29279.579     54625.69 
  955600    311.75757   -29137.543    148.68642   -29286.229    31578.663 
  955800    265.17257   -29156.342    126.46865    -29282.81   -2175.2845 
  956000    323.33277   -29122.577    154.20697   -29276.784   -14499.692 
  956200    309.32399   -29136.071    147.52577   -29283.597    1362.9532 
  956400    262.13923   -29169.438    125.02196    -29294.46    35428.964 
  956600    279.01562   -29155.554    133.07081   -29288.625    18864.061 
  956800    318.80322   -29137.174     152.0467   -29289.221     11128.49 
  957000    340.21353   -29128.707    162.25791   -29290.965    23010.152 
  957200    290.63057    -29160.17    138.61032    -29298.78    6885.9254 
  957400    286.07257   -29138.266    136.43648   -29274.703    39866.398 
  957600    328.85738   -29131.161    156.84182   -29288.003   -9445.2885 
  957800    284.38835   -29153.097    135.63322    -29288.73    19848.599 
  958000    310.78256   -29125.543    148.22141   -29273.765    28033.533 
  958200    282.64358   -29134.379    134.80109    -29269.18   -9575.0671 
  958400    327.03777   -29146.993      155.974   -29302.967   -6973.3476 
  958600     306.5053   -29113.618    146.18145   -29259.799   -30223.708 
  958800    294.28195   -29124.319    140.35178   -29264.671     20320.61 
  959000     297.8901   -29146.564    142.07261   -29288.636   -44077.031 
  959200    311.91468   -29146.891    148.76135   -29295.652   -19820.001 
  959400    342.02808   -29122.613    163.12332   -29285.736    7990.5214 
  959600    287.01148   -29142.367    136.88427   -29279.251   -16440.011 
  959800    285.70312   -29145.277    136.26027   -29281.537    40362.176 
  960000    296.33099   -29147.324    141.32902   -29288.653    4759.0357 
  960200    275.77591   -29150.664     131.5257   -29282.189    11322.734 
  960400    318.82973    -29122.34    152.05934   -29274.399   -8336.0086 
  960600    273.93531   -29156.939    130.64786   -29287.587      6165.36 
  960800    292.64401   -29138.415    139.57059   -29277.986    -4281.023 
  961000    302.49725   -29130.994    144.26989   -29275.264   -12526.947 
  961200    268.63542   -29165.474    128.12018   -29293.594   -8297.7463 
  961400    310.30861   -29137.257    147.99536   -29285.252    5858.5583 
  961600    330.52036   -29133.506    157.63494   -29291.141    9647.4581 
  961800    289.05233    -29163.81    137.85761   -29301.668   -5303.7812 
  962000    295.27896    -29145.46    140.82728   -29286.287   -11649.543 
  962200     306.3945    -29141.82    146.12861   -29287.949     35669.33 
  962400     287.9773   -29168.739     137.3449   -29306.084    27498.335 
  962600    331.69146   -29140.009    158.19348   -29298.202   -16558.719 
  962800    281.28165   -29142.687    134.15155   -29276.839   -22856.132 
  963000    280.57739   -29168.398    133.81566   -29302.213    31283.609 
  963200    279.41858   -29149.165    133.26299   -29282.428    29925.956 
  963400    317.72035   -29134.481    151.53024   -29286.011    -7296.698 
  963600    305.06434   -29150.714    145.49422   -29296.208    22308.946 
  963800    296.92134   -29155.422    141.61058   -29297.032    15442.288 
  964000    327.10742   -29127.585    156.00721   -29283.592    20985.266 
  964200    274.41346   -29144.795     130.8759   -29275.671    17216.807 
  964400     286.8339   -29164.804    136.79958   -29301.604    6275.8877 
  964600    278.29407   -29131.987    132.72668   -29264.714    14527.156 
  964800     308.2939   -29131.276    147.03449   -29278.311    25957.521 
  965000    295.73297   -29135.686    141.04381    -29276.73    18025.995 
  965200    287.23028   -29155.246    136.98863   -29292.234   -31223.211 
  965400    304.73796   -29124.324    145.33856   -29269.662    1734.3138 
  965600    337.66272   -29136.451    161.04135   -29297.493     32292.96 
  965800    305.45279   -29148.411    145.67948   -29294.091   -30212.125 
  966000     272.0091   -29135.992    129.72919   -29265.721   -1552.5363 
  966200    324.91591   -29125.529    154.96202   -29280.491   -1191.5206 
  966400     291.1607   -29152.884    138.86316   -29291.747   -2791.5652 
  966600    281.29225   -29131.538     134.1566   -29265.695   -34114.222 
  966800    307.17538   -29134.973    146.50103   -29281.474    1464.8924 
  967000    285.83334    -29154.64    136.32238   -29290.962    3057.9944 
  967200    327.24605   -29131.258    156.07333   -29287.331   -14302.096 
  967400    285.44608   -29146.688    136.13769   -29282.826    -32928.09 
  967600    276.79664   -29154.745    132.01251   -29286.758     13162.41 
  967800    316.63159   -29133.216    151.01098   -29284.227    13809.391 
  968000    292.38985   -29144.245    139.44938   -29283.694   -21391.301 
  968200    293.80898   -29163.132     140.1262   -29303.258    32068.388 
  968400    296.32622   -29147.876    141.32675   -29289.203   -18200.833 
  968600    289.76629   -29134.903    138.19812   -29273.101   -6753.9202 
  968800    312.61718   -29158.053    149.09639   -29307.149    3996.6219 
  969000     289.3957    -29162.13    138.02138   -29300.151   -3502.6475 
  969200    308.41665   -29140.302    147.09303   -29287.395    21350.801 
  969400    299.03777    -29143.06    142.61996    -29285.68    23812.453 
  969600    250.42803   -29171.073    119.43654   -29290.509     37800.89 
  969800    292.83991   -29143.127    139.66402   -29282.791    -30870.67 
  970000    305.31202   -29139.936    145.61234   -29285.549   -7618.4447 
  970200     283.1742   -29164.032    135.05416   -29299.086   -23510.825 
  970400    263.89002   -29152.747    125.85696   -29278.603    5164.9346 
  970600    294.00408   -29137.115    140.21925   -29277.334    1042.4328 
  970800    294.91758   -29154.623    140.65493   -29295.278   -4190.9815 
  971000     311.4435   -29141.302    148.53663   -29289.838   -9483.4502 
  971200    300.84791   -29131.881    143.48327   -29275.365   -44668.949 
  971400    284.97875   -29153.459    135.91481   -29289.374    11046.852 
  971600    288.42733     -29146.9    137.55953   -29284.459   -16755.876 
  971800     323.2494   -29127.491    154.16721   -29281.658    1784.2619 
  972000    327.48417   -29116.169     156.1869   -29272.356   -11261.502 
  972200    289.36023   -29149.945    138.00446   -29287.949   -6797.0742 
  972400    308.87306   -29130.022    147.31071   -29277.333    23491.846 
  972600    336.67819    -29115.24     160.5718   -29275.812   -42500.489 
  972800    286.29751    -29153.29    136.54376   -29289.833   -16925.878 
  973000    292.49137   -29132.515    139.49779   -29272.013     7873.544 
  973200    310.38087   -29125.337    148.02983   -29273.367   -21800.029 
  973400    306.71223   -29157.901    146.28014   -29304.181    6455.8312 
  973600    317.78463   -29131.442     151.5609   -29283.003    20204.697 
  973800     285.0304   -29128.729    135.93943   -29264.668    2327.7578 
  974000    280.68675   -29159.136    133.86782   -29293.004     18730.14 
  974200    307.78003   -29135.229    146.78941   -29282.018   -9675.2144 
  974400    309.36479   -29130.979    147.54523   -29278.525   -15636.422 
  974600    310.49622   -29126.487    148.08484   -29274.572   -9049.2726 
  974800    271.80309   -29148.175    129.63094   -29277.806    7022.8512 
  975000    301.18159   -29140.529    143.64242   -29284.172    12405.267 
  975200    332.05347   -29121.446    158.36613   -29279.812    15129.021 
  975400    325.73322   -29139.368    155.35182   -29294.719   -25350.045 
  975600    318.37428   -29141.594    151.84212   -29293.437   -19598.434 
  975800    292.12998   -29137.183    139.32544   -29276.508   -15144.986 
  976000    305.10812   -29127.749     145.5151   -29273.264   -10187.214 
  976200    323.57436   -29142.028    154.32219    -29296.35   -54724.657 
  976400     268.9031   -29153.774    128.24785   -29282.022    12662.637 
  976600    328.30167   -29118.038    156.57679   -29274.615    -12128.67 
  976800    305.11749   -29138.677    145.51956   -29284.196    -24872.66 
  977000    284.74299    -29145.97    135.80236   -29281.773   -5100.9539 
  977200    324.23607   -29130.089    154.63778   -29284.727    13757.014 
  977400    314.65111   -29129.448    150.06643   -29279.515    64145.728 
  977600     295.3146     -29150.7    140.84428   -29291.544    22636.972 
  977800    336.90634   -29126.723    160.68061   -29287.404    31547.774 
  978000    289.73483   -29129.125    138.18312   -29267.308   -51171.504 
  978200     309.8307   -29145.083    147.76744    -29292.85   -29.706183 
  978400    303.06092   -29143.468    144.53873   -29288.007   -24301.631 
  978600    292.90803   -29152.897    139.69651   -29292.594    48702.993 
  978800    290.65526   -29135.092     138.6221   -29273.714    13503.456 
  979000    320.10765   -29137.128    152.66881   -29289.797    33183.721 
  979200    260.82658   -29152.394    124.39592    -29276.79    -14003.16 
  979400    300.53802   -29133.268    143.33548   -29276.604    15607.252 
  979600    294.91652   -29155.632    140.65442   -29296.286    45124.966 
  979800    294.32789   -29150.037    140.37368   -29290.411    -49849.67 
  980000    311.51444   -29135.422    148.57046   -29283.993     35712.99 
  980200    295.66141   -29147.348    141.00968   -29288.358    11963.643 
  980400    256.82892   -29171.925    122.48932   -29294.415    15566.469 
  980600    293.10989   -29138.189    139.79278   -29277.981   -42800.748 
  980800    279.72542   -29137.654    133.40933   -29271.063   -17961.126 
  981000    268.60694   -29165.065     128.1066   -29293.171    6556.9308 
  981200    300.05224   -29135.792     143.1038   -29278.896    15266.575 
  981400    328.80619   -29135.529    156.81741   -29292.346   -29597.914 
  981600    283.73435   -29162.875    135.32131   -29298.196   -18416.992 
  981800    316.09673   -29144.997    150.75589   -29295.753    37059.544 
  982000    325.15132   -29128.444    155.07429   -29283.518    29666.422 
  982200    273.40012   -29157.244    130.39261   -29287.637    742.01829 
  982400    311.26762   -29138.348    148.45274   -29286.801   -21862.171 
  982600    288.43989   -29128.709    137.56552   -29266.274    18417.885 
  982800     272.0878   -29150.483    129.76673    -29280.25    12013.075 
  983000     317.8134   -29136.507    151.57462   -29288.082   -244.40673 
  983200     316.5456   -29119.072    150.96997   -29270.042     490.1054 
  983400     312.1149   -29151.456    148.85684   -29300.313    2566.1044 
  983600     308.8099   -29142.213    147.28059   -29289.494   -11266.515 
  983800    319.82455   -29120.402     152.5338   -29272.935    9672.8061 
  984000    366.01156   -29100.683    174.56175   -29275.245    22604.349 
  984200     283.3926   -29145.443    135.15832   -29280.602   -17979.294 
  984400    273.44616   -29142.282    130.41457   -29272.696   -25695.406 
  984600    329.80868   -29119.775    157.29552    -29277.07   -3903.3069 
  984800    294.51256    -29141.34    140.46176   -29281.802    11447.794 
  985000    273.96251   -29139.384    130.66083   -29270.045    33868.708 
  985200    314.88797   -29110.775     150.1794   -29260.954   -28995.178 
  985400    298.30785   -29141.702    142.27185   -29283.974    27144.096 
  985600    292.65844   -29137.845    139.57747   -29277.422   -8873.7198 
  985800    324.78529   -29109.726    154.89972   -29264.625   -8965.9529 
  986000    308.51658   -29137.903    147.14069   -29285.043    10196.669 
  986200    283.87669   -29138.377     135.3892   -29273.766   -1560.1969 
  986400    310.85463   -29116.702    148.25578   -29264.958    -34794.16 
  986600    300.67335   -29149.331    143.40002   -29292.731    15684.104 
  986800    310.40853   -29139.443    148.04302   -29287.486   -16336.827 
  987000    311.65897   -29113.908    148.63939   -29262.547    -40344.07 
  987200    287.86838   -29152.489    137.29296   -29289.782   -30623.137 
  987400     283.4527   -29140.726    135.18699   -29275.913   -15339.372 
  987600    318.93793   -29125.142    152.11094   -29277.253    1989.0879 
  987800    256.72064   -29159.321    122.43767   -29281.759   -12993.867 
  988000    306.45055   -29132.664    146.15534   -29278.819   -4934.2506 
  988200    312.49779   -29133.288    149.03945   -29282.327    22000.151 
  988400    254.29853   -29168.847     121.2825    -29290.13    3427.2772 
  988600    298.98377   -29143.319    142.59421   -29285.914    -9645.592 
  988800    304.80818   -29135.958    145.37205    -29281.33   -14179.913 
  989000    278.64886   -29169.103    132.89589   -29301.999   -14913.252 
  989200    308.95909   -29144.851    147.35174   -29292.203    5090.9926 
  989400     323.0946   -29137.819    154.09338   -29291.912   -41843.205 
  989600    284.35136   -29159.871    135.61558   -29295.487   -7414.7359 
  989800    269.06998   -29157.141    128.32744   -29285.469   -3250.3181 
  990000    318.93264   -29137.242    152.10842    -29289.35    12810.014 
  990200    316.77143   -29138.724    151.07767   -29289.802   -19392.525 
  990400    290.14346   -29159.853    138.37801   -29298.231     8946.891 
  990600    283.01769   -29132.614    134.97952   -29267.594   -2593.2487 
  990800    312.15702   -29132.949    148.87692   -29281.826    61596.408 
  991000    275.43918   -29161.518     131.3651   -29292.883    18745.201 
  991200    288.36271   -29149.313    137.52871   -29286.842    50396.531 
  991400    288.87807   -29130.973    137.77451   -29268.747    52184.695 
  991600    294.49381    -29155.65    140.45282   -29296.102    18903.438 
  991800    282.62218   -29153.174    134.79089   -29287.964    30788.468 
  992000    304.05719   -29133.298    145.01388   -29278.312    12600.675 
  992200    303.00095   -29147.518    144.51012   -29292.028    -16534.93 
  992400    305.18358   -29149.243    145.55109   -29294.794     13852.71 
  992600    317.69632   -29119.107    151.51878   -29270.626    29925.105 
  992800    289.75537   -29148.769    138.19291   -29286.962    13128.336 
  993000     297.3817   -29144.025    141.83014   -29285.855   -4998.4188 
  993200     300.3765   -29107.514    143.25845   -29250.772   -16557.691 
  993400    301.92694   -29134.619     143.9979   -29278.617   -2792.0176 
  993600    278.58316   -29142.728    132.86455   -29275.593   -19725.321 
  993800    304.58046   -29108.017    145.26344    -29253.28    56705.092 
  994000    323.42636    -29130.15    154.25161   -29284.401     72786.38 
  994200    292.08725   -29139.914    139.30506   -29279.219    26704.791 
  994400    347.71766   -29112.974    165.83685   -29278.811    33573.165 
  994600    330.13659   -29122.577    157.45191   -29280.029   -125.04718 
  994800    283.21834   -29141.181    135.07521   -29276.256   -18312.298 
  995000     306.8537   -29133.537    146.34762   -29279.884    22353.749 
  995200    351.12585   -29113.714    167.46231   -29281.176    5041.6295 
  995400      308.344    -29146.22    147.05838   -29293.278    36971.691 
  995600    312.82865   -29133.391    149.19725   -29282.588   -10995.052 
  995800    357.43493    -29105.37     170.4713   -29275.841   -6411.4274 
  996000    275.60663   -29144.152    131.44496   -29275.597   -5823.1551 
  996200    282.84999   -29141.777    134.89954   -29276.677   -8845.5438 
  996400    336.21436    -29115.27    160.35058   -29275.621    -9460.422 
  996600    282.10586   -29150.729    134.54464   -29285.273    3345.8072 
  996800     310.1828   -29135.452    147.93536   -29283.387    39441.773 
  997000    286.63748    -29129.15     136.7059   -29265.855   -22399.247 
  997200    274.71607   -29158.219    131.02023   -29289.239    30992.143 
  997400    343.42914   -29131.369    163.79152   -29295.161    1035.4781 
  997600    297.07951   -29138.447    141.68601   -29280.133     -14619.7 
  997800    278.28602   -29154.091    132.72284   -29286.814    6831.4315 
  998000    295.12014   -29148.076    140.75153   -29288.828   -63707.412 
  998200    310.61312   -29126.869     148.1406    -29275.01    33839.137 
  998400     306.2393   -29156.791    146.05459   -29302.846    20831.356 
  998600    286.61456   -29151.284    136.69497   -29287.979    4961.3696 
  998800    330.39927   -29142.801    157.57719   -29300.378    15153.294 
  999000    315.29731   -29137.278    150.37462   -29287.653    -16320.31 
  999200      332.351   -29145.415    158.50803   -29303.923    7658.5779 
  999400    270.83697    -29163.33    129.17017     -29292.5   -16644.322 
  999600    322.81409     -29126.2     153.9596   -29280.159     -47240.8 
  999800    306.50073   -29149.756    146.17927   -29295.935   -15580.191 
 1000000    285.04696   -29140.331    135.94734   -29276.279    23444.423 
Loop time of 6254.13 on 8 procs for 1000000 steps with 161 atoms

Performance: 3.454 ns/day, 6.949 hours/ns, 159.894 timesteps/s
99.2% CPU use with 8 MPI tasks x no OpenMP threads

MPI task timing breakdown:
Section |  min time  |  avg time  |  max time  |%varavg| %total
---------------------------------------------------------------
Pair    | 4680.9     | 5009.6     | 5209.3     | 225.1 | 80.10
Neigh   | 0.82763    | 0.84783    | 0.86812    |   1.7 |  0.01
Comm    | 69.653     | 271.1      | 601.59     | 970.7 |  4.33
Output  | 0.11141    | 0.12157    | 0.18249    |   6.6 |  0.00
Modify  | 965.18     | 967.4      | 969.65     |   5.6 | 15.47
Other   |            | 5.062      |            |       |  0.08

Nlocal:    20.125 ave 39 max 1 min
Histogram: 1 0 1 1 1 2 0 0 0 2
Nghost:    752.375 ave 777 max 725 min
Histogram: 1 0 0 1 1 1 3 0 0 1
Neighs:    2142.62 ave 3968 max 111 min
Histogram: 1 0 1 1 1 1 1 0 0 2

Total # of neighbors = 17141
Ave neighs/atom = 106.466
Neighbor list builds = 881
Dangerous builds = 0

unfix 1
unfix output
undump 1

Please see the log.cite file for references relevant to this simulation

Total wall time: 1:44:48
