ITEM: TIMESTEP
0
ITEM: NUMBER OF ATOMS
75
ITEM: BOX BOUNDS pp pp pp
0.0000000000000000e+00 1.3600000000000000e+01
0.0000000000000000e+00 1.3600000000000000e+01
0.0000000000000000e+00 1.3600000000000000e+01
ITEM: ATOMS id type x y z 
1 1 6.672 0.882 7.682 
2 1 6.673 1.896 8.696 
3 1 6.672 2.763 9.563 
7 1 6.673 5.663 12.463 
8 1 6.672 4.65 11.449 
9 1 6.672 3.783 10.582 
49 1 5.663 6.673 12.463 
50 1 4.65 6.672 11.449 
51 1 3.783 6.672 10.582 
55 1 0.882 6.672 7.682 
56 1 1.896 6.673 8.696 
57 1 2.763 6.672 9.563 
25 1 0.882 7.682 6.672 
26 1 1.896 8.696 6.673 
27 1 2.763 9.563 6.672 
31 1 5.663 12.463 6.673 
32 1 4.65 11.449 6.672 
33 1 3.783 10.582 6.672 
37 1 6.673 12.463 5.663 
38 1 6.672 11.449 4.65 
39 1 6.672 10.582 3.783 
43 1 6.672 7.682 0.882 
44 1 6.673 8.696 1.896 
45 1 6.672 9.563 2.763 
28 1 5.662 7.683 13.473 
29 1 4.649 8.696 13.472 
30 1 3.781 9.563 13.471 
34 1 0.882 12.462 13.473 
35 1 1.896 11.449 13.472 
36 1 2.763 10.582 13.472 
52 1 5.662 13.473 7.683 
53 1 4.649 13.472 8.696 
54 1 3.781 13.472 9.563 
58 1 0.882 13.472 12.462 
59 1 1.896 13.472 11.449 
60 1 2.763 13.472 10.582 
13 1 7.682 6.672 0.882 
14 1 8.696 6.673 1.896 
15 1 9.563 6.672 2.763 
19 1 12.463 6.673 5.663 
20 1 11.449 6.672 4.65 
21 1 10.582 6.672 3.783 
61 1 12.463 5.663 6.673 
62 1 11.449 4.65 6.672 
63 1 10.582 3.783 6.672 
67 1 7.682 0.882 6.672 
68 1 8.696 1.896 6.673 
69 1 9.563 2.763 6.672 
4 1 13.473 5.662 7.683 
5 1 13.472 4.649 8.696 
6 1 13.471 3.781 9.563 
10 1 13.473 0.883 12.462 
11 1 13.473 1.896 11.449 
12 1 13.472 2.763 10.582 
64 1 7.683 5.662 13.473 
65 1 8.696 4.649 13.472 
66 1 9.563 3.781 13.471 
70 1 12.462 0.883 13.473 
71 1 11.449 1.896 13.473 
72 1 10.582 2.763 13.472 
73 2 7.677 0.22 8.328 
16 1 7.683 13.473 5.662 
17 1 8.696 13.472 4.649 
18 1 9.563 13.471 3.781 
22 1 12.462 13.473 0.882 
23 1 11.449 13.473 1.896 
24 1 10.582 13.472 2.763 
40 1 13.473 7.683 5.662 
41 1 13.472 8.696 4.649 
42 1 13.471 9.563 3.781 
46 1 13.473 12.462 0.882 
47 1 13.473 11.449 1.896 
48 1 13.472 10.582 2.763 
74 2 8.615 12.644 8.436 
75 3 8.869 13.265 9.153 
ITEM: TIMESTEP
10
ITEM: NUMBER OF ATOMS
75
ITEM: BOX BOUNDS pp pp pp
0.0000000000000000e+00 1.3600000000000000e+01
0.0000000000000000e+00 1.3600000000000000e+01
0.0000000000000000e+00 1.3600000000000000e+01
ITEM: ATOMS id type x y z 
1 1 6.69708 0.853716 7.70359 
2 1 6.6625 1.9171 8.70553 
3 1 6.67011 2.77808 9.57433 
7 1 6.67306 5.66893 12.4691 
8 1 6.67129 4.66332 11.4615 
9 1 6.67266 3.79632 10.5962 
49 1 5.65833 6.67749 12.4628 
50 1 4.64874 6.67193 11.4478 
51 1 3.78142 6.67213 10.5808 
55 1 0.882076 6.67171 7.68269 
56 1 1.89594 6.67289 8.69536 
57 1 2.76285 6.67211 9.56287 
25 1 0.881758 7.68164 6.67247 
26 1 1.89434 8.69367 6.67295 
27 1 2.76122 9.56124 6.67209 
31 1 5.65801 12.4605 6.67485 
32 1 4.64589 11.444 6.67084 
33 1 3.77889 10.5777 6.67164 
37 1 6.66837 12.4525 5.6577 
38 1 6.67057 11.4472 4.6496 
39 1 6.6718 10.5794 3.78037 
43 1 6.67242 7.68371 0.883801 
44 1 6.67295 8.69578 1.89641 
45 1 6.67219 9.56369 2.76368 
28 1 5.66166 7.68453 13.4739 
29 1 4.64877 8.69713 13.4732 
30 1 3.78072 9.56323 13.4708 
34 1 0.882618 12.4625 13.472 
35 1 1.89502 11.4488 13.4727 
36 1 2.7629 10.5824 13.4714 
52 1 5.60973 13.4373 7.68043 
53 1 4.64209 13.4684 8.69411 
54 1 3.77763 13.4726 9.56899 
58 1 0.883199 13.4723 12.461 
59 1 1.89591 13.4708 11.4498 
60 1 2.76395 13.4725 10.581 
13 1 7.68294 6.674 0.884583 
14 1 8.69617 6.67315 1.89707 
15 1 9.56376 6.6721 2.76369 
19 1 12.4627 6.67344 5.66233 
20 1 11.4488 6.67123 4.6504 
21 1 10.5822 6.67239 3.78249 
61 1 12.4614 5.66143 6.67303 
62 1 11.4502 4.65184 6.67123 
63 1 10.5823 3.78198 6.67285 
67 1 7.71345 0.911878 6.59571 
68 1 8.70125 1.90722 6.66269 
69 1 9.57473 2.77209 6.67531 
4 1 13.4729 5.66208 7.68306 
5 1 13.4729 4.64947 8.69627 
6 1 13.4708 3.78139 9.56257 
10 1 13.4729 0.882888 12.4622 
11 1 13.4735 1.89557 11.4488 
12 1 13.4716 2.76308 10.5819 
64 1 7.68748 5.6625 13.4776 
65 1 8.6967 4.64755 13.4719 
66 1 9.56409 3.78071 13.4714 
70 1 12.4629 0.884086 13.4711 
71 1 11.4492 1.8955 13.4731 
72 1 10.582 2.76299 13.4717 
73 2 7.68052 0.207619 8.37778 
16 1 7.68398 13.4675 5.65119 
17 1 8.70147 13.469 4.63958 
18 1 9.56974 13.4709 3.77498 
22 1 12.4638 13.4725 0.881333 
23 1 11.4521 13.4735 1.89152 
24 1 10.5855 13.4716 2.75998 
40 1 13.4718 7.68219 5.66184 
41 1 13.4728 8.69639 4.64922 
42 1 13.4708 9.56277 3.78139 
46 1 13.4742 12.4613 0.882157 
47 1 13.4735 11.4483 1.89507 
48 1 13.4716 10.5821 2.76324 
74 2 8.62938 12.6356 8.44637 
75 3 8.85039 13.2649 9.13507 
ITEM: TIMESTEP
20
ITEM: NUMBER OF ATOMS
75
ITEM: BOX BOUNDS pp pp pp
0.0000000000000000e+00 1.3600000000000000e+01
0.0000000000000000e+00 1.3600000000000000e+01
0.0000000000000000e+00 1.3600000000000000e+01
ITEM: ATOMS id type x y z 
1 1 6.86395 0.694087 7.78636 
2 1 6.66759 1.90575 8.70615 
3 1 6.63592 2.78457 9.53551 
7 1 6.67206 5.69839 12.4999 
8 1 6.67727 4.68084 11.4808 
9 1 6.66863 3.8186 10.61 
49 1 5.65245 6.69276 12.4718 
50 1 4.64149 6.67849 11.4488 
51 1 3.77902 6.67158 10.5767 
55 1 0.884 6.67005 7.6865 
56 1 1.89265 6.6709 8.69359 
57 1 2.76176 6.67189 9.56028 
25 1 0.875051 7.67578 6.67125 
26 1 1.88774 8.68576 6.67552 
27 1 2.75356 9.55312 6.67083 
31 1 5.65254 12.4741 6.67527 
32 1 4.64269 11.4389 6.66389 
33 1 3.77722 10.5732 6.66865 
37 1 6.67918 12.4513 5.67652 
38 1 6.64439 11.4664 4.64298 
39 1 6.6846 10.5783 3.79758 
43 1 6.67115 7.6903 0.892117 
44 1 6.67779 8.70392 1.90261 
45 1 6.67003 9.57044 2.77091 
28 1 5.6574 7.6992 13.4842 
29 1 4.64301 8.70415 13.4739 
30 1 3.77565 9.57131 13.4732 
34 1 0.893009 12.4675 13.474 
35 1 1.88003 11.4353 13.4628 
36 1 2.76925 10.5905 13.4763 
52 1 5.63415 13.4619 7.65712 
53 1 4.63068 13.4508 8.66038 
54 1 3.78945 13.4683 9.55382 
58 1 0.885325 13.4764 12.4647 
59 1 1.8926 13.4615 11.4431 
60 1 2.77102 13.4802 10.5881 
13 1 7.68797 6.68396 0.89956 
14 1 8.69918 6.6783 1.90533 
15 1 9.57027 6.67188 2.77024 
19 1 12.4605 6.67256 5.66072 
20 1 11.4509 6.67433 4.64904 
21 1 10.581 6.67095 3.78238 
61 1 12.4688 5.66643 6.67391 
62 1 11.4489 4.64835 6.67572 
63 1 10.5853 3.77982 6.68294 
67 1 7.65257 0.928017 6.59503 
68 1 8.68821 1.90801 6.59293 
69 1 9.56595 2.75814 6.66968 
4 1 13.4705 5.65577 7.68348 
5 1 13.4703 4.64929 8.7024 
6 1 13.4726 3.7772 9.56509 
10 1 13.4719 0.882931 12.4505 
11 1 13.4863 1.90487 11.4526 
12 1 13.4652 2.76165 10.5747 
64 1 7.69448 5.67467 13.4885 
65 1 8.69723 4.64167 13.4838 
66 1 9.56984 3.7807 13.4679 
70 1 12.4642 0.888367 13.4655 
71 1 11.4536 1.89459 13.4691 
72 1 10.5836 2.75936 13.4723 
73 2 7.76318 0.19683 8.52708 
16 1 7.66581 13.4937 5.63297 
17 1 8.70857 13.4497 4.63012 
18 1 9.57005 13.4691 3.76056 
22 1 12.4728 13.4706 0.87412 
23 1 11.4631 13.4718 1.8838 
24 1 10.5973 13.4724 2.74994 
40 1 13.4694 7.68657 5.65545 
41 1 13.4698 8.69728 4.64582 
42 1 13.4725 9.56647 3.77994 
46 1 13.4794 12.4569 0.885682 
47 1 13.4761 11.4408 1.88996 
48 1 13.471 10.5831 2.76747 
74 2 8.70695 12.5345 8.45512 
75 3 8.59758 13.3776 8.98431 
ITEM: TIMESTEP
30
ITEM: NUMBER OF ATOMS
75
ITEM: BOX BOUNDS pp pp pp
0.0000000000000000e+00 1.3600000000000000e+01
0.0000000000000000e+00 1.3600000000000000e+01
0.0000000000000000e+00 1.3600000000000000e+01
ITEM: ATOMS id type x y z 
1 1 6.87134 0.694454 7.82636 
2 1 6.67978 1.90003 8.7231 
3 1 6.63441 2.7971 9.54123 
7 1 6.67295 5.68893 12.4898 
8 1 6.67544 4.67336 11.4727 
9 1 6.66081 3.81916 10.5991 
49 1 5.65567 6.68821 12.4708 
50 1 4.64562 6.67718 11.4515 
51 1 3.78181 6.67365 10.5814 
55 1 0.880797 6.66898 7.68406 
56 1 1.8946 6.67076 8.69559 
57 1 2.76309 6.6712 9.56123 
25 1 0.876149 7.67689 6.67215 
26 1 1.89018 8.68791 6.67434 
27 1 2.75659 9.55485 6.67151 
31 1 5.6514 12.478 6.67631 
32 1 4.6404 11.4443 6.66549 
33 1 3.77877 10.5744 6.66685 
37 1 6.66958 12.4616 5.6666 
38 1 6.66441 11.4536 4.6608 
39 1 6.67 10.5891 3.78848 
43 1 6.67236 7.69393 0.893651 
44 1 6.67568 8.70332 1.9064 
45 1 6.67481 9.57157 2.77369 
28 1 5.66028 7.69536 13.4835 
29 1 4.64649 8.70422 13.477 
30 1 3.77828 9.57098 13.4733 
34 1 0.884702 12.4661 13.4659 
35 1 1.89155 11.45 13.4722 
36 1 2.75966 10.5831 13.4696 
52 1 5.64104 13.4518 7.67556 
53 1 4.64353 13.4551 8.66638 
54 1 3.78402 13.4688 9.54651 
58 1 0.89065 13.4737 12.4531 
59 1 1.9073 13.471 11.4425 
60 1 2.7751 13.4732 10.5747 
13 1 7.68429 6.68431 0.895649 
14 1 8.69803 6.6786 1.90452 
15 1 9.56796 6.673 2.76959 
19 1 12.4619 6.67023 5.66436 
20 1 11.4515 6.67195 4.65177 
21 1 10.5841 6.67165 3.78408 
61 1 12.4589 5.65851 6.67335 
62 1 11.447 4.64346 6.67829 
63 1 10.5798 3.7741 6.68207 
67 1 7.67411 0.925023 6.58512 
68 1 8.68435 1.90168 6.60537 
69 1 9.56149 2.76354 6.65397 
4 1 13.4695 5.65966 7.68206 
5 1 13.4729 4.64964 8.6977 
6 1 13.4694 3.78052 9.56324 
10 1 13.4793 0.881827 12.4578 
11 1 13.4779 1.89458 11.4457 
12 1 13.4719 2.76472 10.5812 
64 1 7.68976 5.67106 13.4885 
65 1 8.69901 4.6504 13.4783 
66 1 9.56335 3.78082 13.4734 
70 1 12.4669 0.885388 13.4654 
71 1 11.4522 1.8965 13.4668 
72 1 10.583 2.76134 13.4716 
73 2 7.74008 0.197518 8.50275 
16 1 7.66803 13.4958 5.63521 
17 1 8.69419 13.4635 4.6223 
18 1 9.57241 13.462 3.76786 
22 1 12.4724 13.473 0.873157 
23 1 11.4616 13.4717 1.88577 
24 1 10.5936 13.4721 2.7519 
40 1 13.4699 7.68353 5.65881 
41 1 13.4707 8.69694 4.64778 
42 1 13.4708 9.56514 3.7813 
46 1 13.4787 12.4589 0.880989 
47 1 13.4779 11.4459 1.89285 
48 1 13.4714 10.5816 2.7633 
74 2 8.71598 12.54 8.46938 
75 3 8.57132 13.3701 8.96548 
ITEM: TIMESTEP
40
ITEM: NUMBER OF ATOMS
75
ITEM: BOX BOUNDS pp pp pp
0.0000000000000000e+00 1.3600000000000000e+01
0.0000000000000000e+00 1.3600000000000000e+01
0.0000000000000000e+00 1.3600000000000000e+01
ITEM: ATOMS id type x y z 
1 1 6.88171 0.689717 7.83814 
2 1 6.69091 1.8931 8.73399 
3 1 6.63271 2.80058 9.54079 
7 1 6.67313 5.68671 12.4885 
8 1 6.67213 4.67673 11.4704 
9 1 6.65304 3.82545 10.5936 
49 1 5.65716 6.68911 12.4711 
50 1 4.64521 6.67552 11.454 
51 1 3.78311 6.67534 10.5821 
55 1 0.881353 6.66857 7.68389 
56 1 1.8948 6.67221 8.69577 
57 1 2.76304 6.67029 9.56145 
25 1 0.876238 7.67692 6.67313 
26 1 1.89127 8.68858 6.67273 
27 1 2.75813 9.55487 6.67143 
31 1 5.6496 12.4796 6.67608 
32 1 4.63854 11.4482 6.66719 
33 1 3.77857 10.5767 6.66593 
37 1 6.66614 12.4632 5.6664 
38 1 6.6666 11.4568 4.66073 
39 1 6.66985 10.5879 3.79227 
43 1 6.67294 7.69451 0.89464 
44 1 6.67425 8.70556 1.90698 
45 1 6.6743 9.5733 2.77491 
28 1 5.6613 7.69465 13.4844 
29 1 4.64831 8.70556 13.478 
30 1 3.77769 9.56943 13.4737 
34 1 0.884464 12.4677 13.4637 
35 1 1.89354 11.4524 13.4687 
36 1 2.7593 10.5835 13.4711 
52 1 5.65306 13.4439 7.68633 
53 1 4.65231 13.4547 8.67337 
54 1 3.78218 13.4693 9.54321 
58 1 0.895526 13.4743 12.45 
59 1 1.90976 13.4725 11.4375 
60 1 2.77715 13.4731 10.5689 
13 1 7.68361 6.68421 0.895426 
14 1 8.6981 6.67946 1.90486 
15 1 9.56745 6.67415 2.77009 
19 1 12.4625 6.66824 5.66671 
20 1 11.4515 6.67045 4.65295 
21 1 10.5849 6.67178 3.7847 
61 1 12.4572 5.65567 6.67477 
62 1 11.4442 4.64052 6.68059 
63 1 10.5762 3.77157 6.67688 
67 1 7.68043 0.919208 6.59346 
68 1 8.68462 1.90087 6.60973 
69 1 9.55834 2.76671 6.64576 
4 1 13.4689 5.65976 7.68109 
5 1 13.4699 4.6491 8.69696 
6 1 13.4712 3.78141 9.56369 
10 1 13.4807 0.878626 12.4559 
11 1 13.4781 1.89809 11.4495 
12 1 13.4721 2.76167 10.5788 
64 1 7.68962 5.67135 13.489 
65 1 8.69966 4.65155 13.48 
66 1 9.56321 3.78117 13.474 
70 1 12.4688 0.885572 13.4633 
71 1 11.4527 1.89637 13.4669 
72 1 10.5835 2.76119 13.4704 
73 2 7.72782 0.18416 8.48562 
16 1 7.66511 13.501 5.63153 
17 1 8.69132 13.4706 4.61992 
18 1 9.56998 13.4617 3.76551 
22 1 12.4733 13.4741 0.872334 
23 1 11.4608 13.4722 1.88506 
24 1 10.5945 13.4688 2.7531 
40 1 13.4703 7.6812 5.66076 
41 1 13.47 8.69722 4.64974 
42 1 13.4708 9.56326 3.78154 
46 1 13.479 12.461 0.877992 
47 1 13.4764 11.448 1.89299 
48 1 13.473 10.5822 2.76121 
74 2 8.72207 12.5385 8.47648 
75 3 8.546 13.3727 8.95777 
ITEM: TIMESTEP
50
ITEM: NUMBER OF ATOMS
75
ITEM: BOX BOUNDS pp pp pp
0.0000000000000000e+00 1.3600000000000000e+01
0.0000000000000000e+00 1.3600000000000000e+01
0.0000000000000000e+00 1.3600000000000000e+01
ITEM: ATOMS id type x y z 
1 1 6.88907 0.680742 7.84693 
2 1 6.70511 1.88665 8.74973 
3 1 6.63287 2.80498 9.54467 
7 1 6.67364 5.69008 12.4924 
8 1 6.66346 4.68441 11.4653 
9 1 6.64071 3.83786 10.5846 
49 1 5.65578 6.68764 12.4742 
50 1 4.64705 6.68548 11.4534 
51 1 3.78196 6.67104 10.5842 
55 1 0.880661 6.66865 7.68409 
56 1 1.89506 6.66734 8.69806 
57 1 2.76417 6.67334 9.56262 
25 1 0.876049 7.6766 6.6723 
26 1 1.89186 8.68935 6.67182 
27 1 2.75928 9.55482 6.66913 
31 1 5.64896 12.4795 6.67595 
32 1 4.63533 11.451 6.6687 
33 1 3.77485 10.5798 6.66563 
37 1 6.66599 12.4716 5.66184 
38 1 6.6666 11.459 4.6608 
39 1 6.67082 10.5879 3.79528 
43 1 6.67355 7.6967 0.896262 
44 1 6.67213 8.70766 1.90809 
45 1 6.67339 9.57387 2.77705 
28 1 5.66279 7.69684 13.4853 
29 1 4.64752 8.70448 13.4809 
30 1 3.77861 9.5697 13.4758 
34 1 0.886019 12.4693 13.4613 
35 1 1.8947 11.4541 13.4656 
36 1 2.76002 10.585 13.4703 
52 1 5.66502 13.4291 7.70077 
53 1 4.6648 13.4514 8.68187 
54 1 3.78533 13.4697 9.54233 
58 1 0.89961 13.4756 12.4475 
59 1 1.90938 13.4737 11.433 
60 1 2.77423 13.4743 10.5616 
13 1 7.68442 6.68469 0.896895 
14 1 8.69834 6.68094 1.9066 
15 1 9.56726 6.67653 2.77171 
19 1 12.4592 6.67052 5.67227 
20 1 11.4625 6.66443 4.64527 
21 1 10.5814 6.67353 3.79196 
61 1 12.4543 5.65377 6.67724 
62 1 11.4461 4.64156 6.67782 
63 1 10.5738 3.77484 6.66894 
67 1 7.69035 0.912981 6.59605 
68 1 8.68274 1.89906 6.61077 
69 1 9.55388 2.76807 6.63718 
4 1 13.4704 5.66039 7.68403 
5 1 13.4685 4.64794 8.69489 
6 1 13.4731 3.78157 9.56374 
10 1 13.4866 0.883585 12.4588 
11 1 13.471 1.88724 11.4376 
12 1 13.4765 2.76864 10.5839 
64 1 7.69132 5.67146 13.4918 
65 1 8.7009 4.65213 13.4822 
66 1 9.56471 3.78125 13.4755 
70 1 12.4702 0.885277 13.462 
71 1 11.4534 1.89661 13.4673 
72 1 10.5841 2.76173 13.4679 
73 2 7.71518 0.15292 8.46895 
16 1 7.65845 13.506 5.62489 
17 1 8.6873 13.4785 4.61377 
18 1 9.56647 13.4645 3.76105 
22 1 12.4759 13.4748 0.87107 
23 1 11.4619 13.4698 1.88392 
24 1 10.5953 13.4657 2.75095 
40 1 13.4684 7.68082 5.66236 
41 1 13.4675 8.6946 4.64638 
42 1 13.4725 9.56364 3.78271 
46 1 13.48 12.4614 0.876279 
47 1 13.4755 11.4492 1.89279 
48 1 13.4739 10.5825 2.7601 
74 2 8.72917 12.5366 8.4875 
75 3 8.51825 13.367 8.95758 
ITEM: TIMESTEP
60
ITEM: NUMBER OF ATOMS
75
ITEM: BOX BOUNDS pp pp pp
0.0000000000000000e+00 1.3600000000000000e+01
0.0000000000000000e+00 1.3600000000000000e+01
0.0000000000000000e+00 1.3600000000000000e+01
ITEM: ATOMS id type x y z 
1 1 6.89511 0.675811 7.85158 
2 1 6.71883 1.87924 8.76384 
3 1 6.63519 2.80557 9.54749 
7 1 6.67428 5.69197 12.4948 
8 1 6.65337 4.69535 11.4601 
9 1 6.62812 3.85137 10.5764 
49 1 5.65691 6.69154 12.4758 
50 1 4.64328 6.68664 11.4582 
51 1 3.7841 6.67479 10.5838 
55 1 0.882262 6.66902 7.68483 
56 1 1.89447 6.66651 8.69935 
57 1 2.7646 6.67152 9.56333 
25 1 0.876852 7.67624 6.67276 
26 1 1.89188 8.68807 6.67084 
27 1 2.75825 9.5553 6.6666 
31 1 5.64994 12.4779 6.67529 
32 1 4.63319 11.4527 6.66925 
33 1 3.77058 10.5834 6.66518 
37 1 6.66107 12.4774 5.65711 
38 1 6.66526 11.4614 4.66059 
39 1 6.672 10.5881 3.7974 
43 1 6.67547 7.69794 0.898448 
44 1 6.67098 8.70912 1.9093 
45 1 6.67222 9.57427 2.77976 
28 1 5.66371 7.69802 13.4883 
29 1 4.64808 8.70614 13.4822 
30 1 3.7775 9.57037 13.4787 
34 1 0.887617 12.4696 13.4598 
35 1 1.89667 11.4564 13.4632 
36 1 2.7611 10.5859 13.4693 
52 1 5.67949 13.4154 7.71313 
53 1 4.6746 13.4473 8.69045 
54 1 3.7893 13.4691 9.54468 
58 1 0.901827 13.4775 12.446 
59 1 1.90799 13.4759 11.4285 
60 1 2.77103 13.4755 10.5549 
13 1 7.68557 6.68595 0.898415 
14 1 8.69727 6.68356 1.90998 
15 1 9.5665 6.67862 2.77554 
19 1 12.4635 6.66733 5.67045 
20 1 11.4585 6.67043 4.65159 
21 1 10.5869 6.66847 3.78841 
61 1 12.4539 5.65403 6.6798 
62 1 11.4437 4.6416 6.67476 
63 1 10.5709 3.77745 6.65913 
67 1 7.69416 0.908025 6.60231 
68 1 8.68412 1.89883 6.61017 
69 1 9.55163 2.77166 6.62904 
4 1 13.4701 5.66093 7.68444 
5 1 13.4689 4.64789 8.69496 
6 1 13.4741 3.78294 9.56484 
10 1 13.4846 0.881144 12.4542 
11 1 13.4795 1.89172 11.4412 
12 1 13.4725 2.76443 10.579 
64 1 7.69165 5.6716 13.4937 
65 1 8.70211 4.65244 13.4836 
66 1 9.56611 3.78254 13.4767 
70 1 12.4717 0.886388 13.4617 
71 1 11.4537 1.89557 13.4671 
72 1 10.5858 2.76194 13.4666 
73 2 7.70321 0.120396 8.45694 
16 1 7.65361 13.5139 5.61702 
17 1 8.68393 13.4852 4.60654 
18 1 9.56306 13.4688 3.75404 
22 1 12.4782 13.4749 0.869648 
23 1 11.4635 13.4686 1.88195 
24 1 10.5957 13.4623 2.74757 
40 1 13.4675 7.68167 5.66301 
41 1 13.4654 8.69361 4.64563 
42 1 13.4733 9.5629 3.78112 
46 1 13.482 12.4611 0.874616 
47 1 13.476 11.4497 1.89225 
48 1 13.475 10.5833 2.75978 
74 2 8.73792 12.532 8.49933 
75 3 8.494 13.3539 8.9637 
ITEM: TIMESTEP
70
ITEM: NUMBER OF ATOMS
75
ITEM: BOX BOUNDS pp pp pp
0.0000000000000000e+00 1.3600000000000000e+01
0.0000000000000000e+00 1.3600000000000000e+01
0.0000000000000000e+00 1.3600000000000000e+01
ITEM: ATOMS id type x y z 
1 1 6.89467 0.676067 7.84971 
2 1 6.7179 1.87968 8.76197 
3 1 6.63809 2.80331 9.54909 
7 1 6.67366 5.69336 12.4936 
8 1 6.65089 4.69721 11.4582 
9 1 6.6287 3.85143 10.5763 
49 1 5.65627 6.69256 12.4765 
50 1 4.64549 6.68423 11.4565 
51 1 3.78229 6.67782 10.5859 
55 1 0.88193 6.66844 7.68518 
56 1 1.89661 6.66931 8.6978 
57 1 2.76414 6.66952 9.56438 
25 1 0.877216 7.67539 6.67282 
26 1 1.89078 8.68876 6.6704 
27 1 2.75672 9.55635 6.66672 
31 1 5.65131 12.476 6.67652 
32 1 4.63383 11.4516 6.66849 
33 1 3.77012 10.5834 6.66418 
37 1 6.66026 12.4786 5.65577 
38 1 6.66412 11.4631 4.65891 
39 1 6.67081 10.5885 3.79694 
43 1 6.67609 7.69762 0.899073 
44 1 6.67342 8.70763 1.91087 
45 1 6.67217 9.5741 2.78002 
28 1 5.66327 7.69914 13.4897 
29 1 4.6491 8.70758 13.485 
30 1 3.77725 9.57067 13.4775 
34 1 0.887769 12.4696 13.4601 
35 1 1.89661 11.4563 13.4643 
36 1 2.76168 10.5864 13.4691 
52 1 5.67781 13.4163 7.7113 
53 1 4.67362 13.4449 8.69001 
54 1 3.79105 13.4674 9.54716 
58 1 0.899512 13.4766 12.4455 
59 1 1.90647 13.4772 11.4282 
60 1 2.77155 13.4758 10.5567 
13 1 7.68555 6.6853 0.898372 
14 1 8.69735 6.68337 1.90998 
15 1 9.56713 6.67719 2.77508 
19 1 12.4644 6.66757 5.66843 
20 1 11.4544 6.66993 4.65531 
21 1 10.5876 6.67065 3.78721 
61 1 12.4544 5.65494 6.67802 
62 1 11.4433 4.6431 6.6726 
63 1 10.5707 3.77893 6.65763 
67 1 7.69205 0.910163 6.60001 
68 1 8.68374 1.89942 6.6082 
69 1 9.55235 2.77121 6.62858 
4 1 13.4694 5.66116 7.68399 
5 1 13.4715 4.64989 8.69654 
6 1 13.4711 3.78182 9.56326 
10 1 13.4832 0.880968 12.4543 
11 1 13.4803 1.89391 11.4433 
12 1 13.4744 2.76343 10.5781 
64 1 7.69071 5.67163 13.4926 
65 1 8.70234 4.65376 13.4849 
66 1 9.56552 3.78305 13.4753 
70 1 12.4709 0.886337 13.4618 
71 1 11.455 1.89779 13.4644 
72 1 10.5849 2.76184 13.469 
73 2 7.70457 0.119694 8.46402 
16 1 7.65362 13.5149 5.61644 
17 1 8.68256 13.4854 4.60482 
18 1 9.56165 13.4701 3.75217 
22 1 12.4781 13.4746 0.869596 
23 1 11.4638 13.4672 1.88195 
24 1 10.5939 13.4643 2.7457 
40 1 13.4692 7.68256 5.66218 
41 1 13.4692 8.69568 4.64693 
42 1 13.4705 9.56247 3.77966 
46 1 13.4827 12.4605 0.875313 
47 1 13.4788 11.4483 1.89122 
48 1 13.4748 10.5832 2.7602 
74 2 8.74172 12.5259 8.50045 
75 3 8.49643 13.342 8.97408 
ITEM: TIMESTEP
80
ITEM: NUMBER OF ATOMS
75
ITEM: BOX BOUNDS pp pp pp
0.0000000000000000e+00 1.3600000000000000e+01
0.0000000000000000e+00 1.3600000000000000e+01
0.0000000000000000e+00 1.3600000000000000e+01
ITEM: ATOMS id type x y z 
1 1 6.89934 0.671528 7.85141 
2 1 6.72046 1.87749 8.76101 
3 1 6.64227 2.79975 9.54951 
7 1 6.67287 5.69588 12.4903 
8 1 6.64758 4.69968 11.4539 
9 1 6.62972 3.85078 10.5751 
49 1 5.65671 6.69491 12.4777 
50 1 4.64474 6.686 11.4583 
51 1 3.7817 6.67653 10.5877 
55 1 0.883683 6.66823 7.68499 
56 1 1.89759 6.67173 8.69788 
57 1 2.76418 6.67244 9.56546 
25 1 0.878465 7.67518 6.67255 
26 1 1.88975 8.69048 6.6701 
27 1 2.75369 9.56006 6.66588 
31 1 5.6539 12.4746 6.6788 
32 1 4.63527 11.4507 6.66719 
33 1 3.77006 10.584 6.66224 
37 1 6.65854 12.4826 5.65339 
38 1 6.6624 11.4667 4.65663 
39 1 6.6671 10.5918 3.7951 
43 1 6.67696 7.69715 0.901402 
44 1 6.67687 8.70588 1.91431 
45 1 6.67364 9.5734 2.78242 
28 1 5.66376 7.7001 13.4931 
29 1 4.64933 8.70823 13.4856 
30 1 3.77992 9.5738 13.4795 
34 1 0.888358 12.4708 13.4591 
35 1 1.89633 11.4566 13.4646 
36 1 2.762 10.5872 13.4689 
52 1 5.67793 13.4177 7.71037 
53 1 4.67443 13.4412 8.69024 
54 1 3.79475 13.4625 9.55034 
58 1 0.896109 13.4758 12.4425 
59 1 1.90629 13.4774 11.4283 
60 1 2.77409 13.4769 10.5596 
13 1 7.68547 6.68314 0.898401 
14 1 8.699 6.68032 1.90801 
15 1 9.56814 6.67855 2.77376 
19 1 12.4649 6.66911 5.66837 
20 1 11.4512 6.66783 4.65833 
21 1 10.5858 6.67336 3.78895 
61 1 12.4559 5.65562 6.67657 
62 1 11.4421 4.64548 6.66713 
63 1 10.5699 3.78113 6.65349 
67 1 7.68909 0.912568 6.59978 
68 1 8.68253 1.90074 6.60484 
69 1 9.55212 2.7714 6.62504 
4 1 13.4692 5.66257 7.68411 
5 1 13.4684 4.64909 8.69424 
6 1 13.4735 3.78288 9.5628 
10 1 13.4823 0.882469 12.4549 
11 1 13.477 1.89638 11.4446 
12 1 13.4767 2.76323 10.5767 
64 1 7.68954 5.67217 13.4904 
65 1 8.69961 4.65299 13.481 
66 1 9.56579 3.78524 13.4785 
70 1 12.4696 0.886773 13.4621 
71 1 11.4531 1.898 13.4666 
72 1 10.5859 2.76487 13.4668 
73 2 7.70836 0.11573 8.4769 
16 1 7.65138 13.5188 5.61488 
17 1 8.6785 13.4889 4.60063 
18 1 9.55626 13.4736 3.74671 
22 1 12.4781 13.4742 0.868796 
23 1 11.4619 13.468 1.87952 
24 1 10.591 13.4661 2.74213 
40 1 13.4714 7.68236 5.66083 
41 1 13.4708 8.69651 4.64681 
42 1 13.471 9.56409 3.78027 
46 1 13.4842 12.4619 0.87545 
47 1 13.4792 11.4483 1.89012 
48 1 13.4756 10.5814 2.75733 
74 2 8.75136 12.51 8.50411 
75 3 8.49035 13.3144 8.99657 
ITEM: TIMESTEP
90
ITEM: NUMBER OF ATOMS
75
ITEM: BOX BOUNDS pp pp pp
0.0000000000000000e+00 1.3600000000000000e+01
0.0000000000000000e+00 1.3600000000000000e+01
0.0000000000000000e+00 1.3600000000000000e+01
ITEM: ATOMS id type x y z 
1 1 6.90417 0.668008 7.85573 
2 1 6.72499 1.87447 8.76409 
3 1 6.64285 2.79965 9.54865 
7 1 6.67165 5.69639 12.4878 
8 1 6.64911 4.69872 11.4529 
9 1 6.62912 3.85142 10.5734 
49 1 5.65654 6.69491 12.4778 
50 1 4.64306 6.68889 11.4597 
51 1 3.78125 6.6788 10.5881 
55 1 0.882878 6.6687 7.68507 
56 1 1.89649 6.67029 8.69821 
57 1 2.76373 6.67247 9.56517 
25 1 0.87853 7.67574 6.6722 
26 1 1.88958 8.69121 6.66934 
27 1 2.75363 9.56064 6.66527 
31 1 5.65418 12.4765 6.67861 
32 1 4.6348 11.452 6.66718 
33 1 3.76998 10.5854 6.66187 
37 1 6.65734 12.485 5.65244 
38 1 6.66127 11.4671 4.65713 
39 1 6.66723 10.5933 3.7943 
43 1 6.6764 7.69683 0.901557 
44 1 6.67617 8.70467 1.91569 
45 1 6.67409 9.57411 2.78208 
28 1 5.6648 7.70029 13.4947 
29 1 4.65148 8.71042 13.4882 
30 1 3.77919 9.57362 13.4797 
34 1 0.887525 12.471 13.458 
35 1 1.8973 11.4586 13.4628 
36 1 2.76279 10.5889 13.4701 
52 1 5.68229 13.416 7.71395 
53 1 4.67773 13.4413 8.69288 
54 1 3.79592 13.4622 9.55066 
58 1 0.896391 13.4769 12.4426 
59 1 1.90688 13.4776 11.4279 
60 1 2.77518 13.4743 10.5599 
13 1 7.6864 6.68178 0.896757 
14 1 8.69887 6.67928 1.90743 
15 1 9.56757 6.67777 2.77358 
19 1 12.4648 6.66934 5.6684 
20 1 11.4528 6.67184 4.65698 
21 1 10.5843 6.67299 3.78983 
61 1 12.4548 5.65553 6.67634 
62 1 11.4423 4.64501 6.66685 
63 1 10.5691 3.78157 6.64985 
67 1 7.69106 0.910985 6.60298 
68 1 8.68226 1.901 6.60544 
69 1 9.55064 2.77315 6.62209 
4 1 13.4694 5.66246 7.68313 
5 1 13.4719 4.65051 8.69509 
6 1 13.472 3.78212 9.5609 
10 1 13.4814 0.882082 12.4543 
11 1 13.4793 1.89569 11.443 
12 1 13.4752 2.76501 10.5779 
64 1 7.68881 5.67238 13.4896 
65 1 8.70035 4.65455 13.482 
66 1 9.56499 3.78505 13.4749 
70 1 12.4694 0.887096 13.462 
71 1 11.4547 1.89997 13.4646 
72 1 10.5851 2.7646 13.4703 
73 2 7.70947 0.105534 8.47807 
16 1 7.64914 13.5219 5.61309 
17 1 8.67621 13.492 4.59868 
18 1 9.55338 13.4759 3.74434 
22 1 12.4777 13.4746 0.86895 
23 1 11.4604 13.4677 1.87856 
24 1 10.588 13.4675 2.73967 
40 1 13.4712 7.68217 5.66082 
41 1 13.4711 8.69743 4.64674 
42 1 13.4719 9.56277 3.77872 
46 1 13.4834 12.462 0.874704 
47 1 13.481 11.4479 1.88902 
48 1 13.4755 10.5829 2.75757 
74 2 8.75271 12.5064 8.50694 
75 3 8.48182 13.3011 9.00633 
ITEM: TIMESTEP
100
ITEM: NUMBER OF ATOMS
75
ITEM: BOX BOUNDS pp pp pp
0.0000000000000000e+00 1.3600000000000000e+01
0.0000000000000000e+00 1.3600000000000000e+01
0.0000000000000000e+00 1.3600000000000000e+01
ITEM: ATOMS id type x y z 
57 1 2.76373 6.67238 9.56569 
2 1 6.72598 1.87382 8.76459 
3 1 6.6436 2.79938 9.54903 
7 1 6.67309 5.69667 12.4881 
8 1 6.64831 4.69849 11.4538 
9 1 6.62949 3.85212 10.5724 
49 1 5.65536 6.69691 12.4785 
50 1 4.6437 6.68843 11.4593 
51 1 3.78059 6.68003 10.5887 
55 1 0.882776 6.66906 7.68458 
56 1 1.89694 6.67063 8.69841 
25 1 0.878211 7.67548 6.6723 
26 1 1.88992 8.69175 6.66922 
27 1 2.75383 9.56122 6.66502 
31 1 5.65371 12.4763 6.67893 
32 1 4.63511 11.4528 6.66722 
33 1 3.77008 10.586 6.66173 
37 1 6.65672 12.4848 5.65243 
38 1 6.66089 11.469 4.65582 
39 1 6.66704 10.5932 3.79513 
43 1 6.67804 7.69513 0.903097 
44 1 6.67691 8.70582 1.9149 
45 1 6.67389 9.57353 2.78269 
28 1 5.66365 7.70035 13.4932 
29 1 4.65101 8.71001 13.4888 
30 1 3.7803 9.57422 13.4802 
34 1 0.887192 12.4712 13.458 
35 1 1.89755 11.4584 13.4633 
36 1 2.76316 10.5891 13.4695 
52 1 5.68244 13.4148 7.71416 
53 1 4.6785 13.4406 8.69317 
54 1 3.79685 13.4619 9.55129 
58 1 0.896521 13.477 12.4422 
59 1 1.90701 13.4772 11.4282 
60 1 2.77528 13.4744 10.5599 
13 1 7.68498 6.68312 0.897456 
14 1 8.6994 6.67984 1.90732 
15 1 9.5674 6.67701 2.77409 
19 1 12.4645 6.66979 5.66817 
20 1 11.4521 6.67122 4.65717 
21 1 10.5848 6.67383 3.78968 
61 1 12.4553 5.65605 6.67607 
62 1 11.4421 4.64534 6.66604 
63 1 10.569 3.78184 6.64913 
67 1 7.69183 0.910643 6.60253 
68 1 8.68236 1.90099 6.60546 
69 1 9.5503 2.7735 6.6214 
4 1 13.4695 5.6625 7.6827 
5 1 13.4709 4.65022 8.69453 
6 1 13.4727 3.78248 9.56158 
10 1 13.4816 0.882566 12.4538 
11 1 13.4782 1.89612 11.4434 
12 1 13.4757 2.76461 10.5772 
64 1 7.68792 5.67165 13.4875 
65 1 8.70003 4.65427 13.4805 
66 1 9.56496 3.78533 13.4759 
70 1 12.4697 0.88722 13.4619 
71 1 11.4541 1.8995 13.4657 
72 1 10.5856 2.76499 13.4692 
73 2 7.70958 0.102957 8.47968 
1 1 6.9059 0.666612 7.85705 
16 1 7.64885 13.5226 5.61288 
17 1 8.67515 13.4929 4.59796 
18 1 9.55236 13.4769 3.74346 
22 1 12.4774 13.4746 0.868456 
23 1 11.4602 13.4683 1.87821 
24 1 10.5872 13.4676 2.73872 
40 1 13.4714 7.68293 5.66066 
41 1 13.4713 8.69673 4.64615 
42 1 13.4721 9.56345 3.77881 
46 1 13.4837 12.4622 0.874177 
47 1 13.4803 11.4484 1.88911 
48 1 13.4761 10.5824 2.75726 
74 2 8.75381 12.5045 8.50792 
75 3 8.47925 13.2963 9.00944 
ITEM: TIMESTEP
110
ITEM: NUMBER OF ATOMS
75
ITEM: BOX BOUNDS pp pp pp
0.0000000000000000e+00 1.3600000000000000e+01
0.0000000000000000e+00 1.3600000000000000e+01
0.0000000000000000e+00 1.3600000000000000e+01
ITEM: ATOMS id type x y z 
57 1 2.76082 6.67964 9.56721 
2 1 6.74402 1.86234 8.774 
3 1 6.65547 2.79218 9.5527 
7 1 6.67163 5.7003 12.483 
8 1 6.63584 4.70759 11.4428 
9 1 6.63684 3.85281 10.5692 
49 1 5.65611 6.69967 12.4793 
50 1 4.63968 6.69839 11.4621 
51 1 3.77784 6.68775 10.5908 
55 1 0.883784 6.67091 7.68257 
56 1 1.89218 6.66513 8.70202 
25 1 0.879831 7.67924 6.67115 
26 1 1.89021 8.69559 6.66766 
27 1 2.75283 9.56637 6.66173 
31 1 5.65602 12.4803 6.67997 
32 1 4.63421 11.4582 6.66771 
33 1 3.76801 10.5928 6.6594 
37 1 6.65041 12.4955 5.64587 
38 1 6.65619 11.4757 4.65192 
39 1 6.66617 10.5986 3.79266 
43 1 6.67764 7.69476 0.905741 
44 1 6.67899 8.70385 1.91901 
45 1 6.67323 9.57424 2.78401 
28 1 5.66301 7.69993 13.498 
29 1 4.65562 8.71612 13.4958 
30 1 3.78528 9.5804 13.4856 
34 1 0.886932 12.4729 13.4559 
35 1 1.89843 11.4614 13.4639 
36 1 2.76644 10.5945 13.4697 
52 1 5.69579 13.4071 7.7241 
53 1 4.69021 13.4332 8.70199 
54 1 3.80728 13.4566 9.55888 
58 1 0.895335 13.4776 12.4392 
59 1 1.90947 13.4754 11.4286 
60 1 2.78009 13.4719 10.5628 
13 1 7.68418 6.68047 0.896099 
14 1 8.69906 6.67549 1.9057 
15 1 9.56533 6.67655 2.77419 
19 1 12.4645 6.67513 5.66832 
20 1 11.4513 6.67575 4.65632 
21 1 10.5836 6.67524 3.78932 
61 1 12.4567 5.65831 6.67225 
62 1 11.4406 4.64966 6.65618 
63 1 10.5664 3.78755 6.63645 
67 1 7.69862 0.905232 6.61276 
68 1 8.68378 1.9013 6.60493 
69 1 9.5473 2.7781 6.61248 
4 1 13.4711 5.66483 7.67883 
5 1 13.4704 4.65128 8.69035 
6 1 13.4748 3.78566 9.55928 
10 1 13.4813 0.884039 12.452 
11 1 13.4751 1.89952 11.4426 
12 1 13.4763 2.76608 10.5745 
64 1 7.68835 5.67442 13.4827 
65 1 8.69537 4.65211 13.4713 
66 1 9.56553 3.78842 13.4729 
70 1 12.4706 0.889009 13.4605 
71 1 11.454 1.90111 13.4674 
72 1 10.5867 2.76774 13.47 
73 2 7.70906 0.0631515 8.50084 
1 1 6.92605 0.649972 7.87163 
16 1 7.64274 13.5328 5.60811 
17 1 8.66313 13.5055 4.5866 
18 1 9.53675 13.4908 3.72849 
22 1 12.4749 13.4749 0.865666 
23 1 11.4528 13.471 1.8709 
24 1 10.5747 13.4749 2.72605 
40 1 13.4731 7.686 5.65934 
41 1 13.4703 8.69683 4.64124 
42 1 13.4775 9.56483 3.77516 
46 1 13.4819 12.4636 0.871165 
47 1 13.4801 11.4507 1.88655 
48 1 13.4804 10.5838 2.75373 
74 2 8.76997 12.4738 8.5212 
75 3 8.44084 13.2217 9.06123 
ITEM: TIMESTEP
120
ITEM: NUMBER OF ATOMS
75
ITEM: BOX BOUNDS pp pp pp
0.0000000000000000e+00 1.3600000000000000e+01
0.0000000000000000e+00 1.3600000000000000e+01
0.0000000000000000e+00 1.3600000000000000e+01
ITEM: ATOMS id type x y z 
57 1 2.75936 6.67681 9.56837 
2 1 6.74647 1.86059 8.77596 
3 1 6.65867 2.79136 9.5532 
7 1 6.66974 5.70115 12.4817 
8 1 6.6427 4.70553 11.4439 
9 1 6.63212 3.85365 10.568 
49 1 5.65466 6.70123 12.4792 
50 1 4.64025 6.69742 11.4615 
51 1 3.77695 6.68974 10.5912 
55 1 0.883175 6.67037 7.68236 
56 1 1.89378 6.67103 8.69983 
25 1 0.879765 7.67845 6.67135 
26 1 1.88995 8.69586 6.6674 
27 1 2.75238 9.5668 6.66189 
31 1 5.65581 12.4803 6.68005 
32 1 4.63423 11.4584 6.66717 
33 1 3.76783 10.5932 6.65944 
37 1 6.65026 12.496 5.64577 
38 1 6.65699 11.4766 4.65121 
39 1 6.66454 10.5989 3.79266 