ITEM: TIMESTEP
0
ITEM: NUMBER OF ATOMS
163
ITEM: BOX BOUNDS xy xz yz pp pp pp
-6.7755000000000001e+00 1.3552000000000000e+01 -6.7755000000000001e+00
0.0000000000000000e+00 1.1735510246683001e+01 0.0000000000000000e+00
0.0000000000000000e+00 2.2149999999999999e+01 0.0000000000000000e+00
ITEM: ATOMS id type x y z 
8 1 -2.486 5.297 9.849 
87 1 3.001 4.231 10.696 
90 1 2.733 5.481 9.824 
109 1 -2.486 5.297 0.765 
158 1 2.733 5.481 0.79 
11 1 4.24 4.139 20.131 
14 1 3.031 4.094 19.728 
18 1 1.299 5.827 18.554 
33 1 2.266 4.151 20.924 
43 1 4.343 3.96 21.647 
47 1 3.32 5.732 17.88 
52 1 4.24 4.139 12.633 
76 1 2.552 4.924 14.209 
85 1 4.343 3.96 11.117 
89 1 3.32 5.732 14.883 
91 1 1.036 5.037 11.84 
102 1 3.031 4.094 13.035 
105 1 1.299 5.827 14.209 
114 1 2.266 4.151 11.84 
150 1 2.552 4.924 18.554 
156 1 3.001 4.231 22.068 
159 1 1.036 5.037 20.924 
5 1 -5.049 10.63 8.653 
9 1 -3.317 8.897 7.479 
19 1 -1.707 7.414 10.572 
21 1 -2.66 8.795 10.993 
23 1 -3.31 7.532 6.805 
25 1 -4.284 10.573 9.849 
32 1 1.503 6.367 0.79 
36 1 -1.869 7.426 9.056 
38 1 -2.209 6.086 8.653 
54 1 0.3 8.576 10.696 
57 1 1.291 8.001 9.824 
60 1 -1.707 7.414 0.042 
65 1 -3.31 7.532 3.808 
78 1 -1.869 7.426 1.558 
80 1 -2.566 8.842 1.961 
84 1 -4.57 9.799 3.135 
99 1 -3.054 9.687 0.765 
100 1 -2.96 6.142 3.135 
107 1 -5.049 10.63 1.961 
110 1 -3.317 8.897 3.135 
111 1 0.642 5.929 10.696 
113 1 1.503 6.367 9.824 
119 1 -4.284 10.573 0.765 
127 1 -2.209 6.086 1.961 
131 1 -2.318 6.148 10.993 
138 1 1.291 8.001 0.79 
142 1 -2.566 8.842 8.653 
145 1 -4.57 9.799 7.479 
151 1 -5.019 10.493 10.993 
154 1 -3.054 9.687 9.849 
155 1 -2.96 6.142 7.479 
12 1 2.53 7.1 17.202 
17 1 0.468 9.427 20.924 
24 1 -3.52 8.357 11.865 
27 1 -0.31 7.31 21.647 
29 1 0.642 5.929 22.068 
31 1 1.292 7.192 17.88 
44 1 -0.148 7.298 20.131 
46 1 0.191 8.638 19.728 
51 1 -0.31 7.31 11.117 
53 1 2.53 7.1 15.561 
56 1 1.292 7.192 14.883 
63 1 -2.318 6.148 21.771 
66 1 -3.309 6.723 20.899 
70 1 -0.148 7.298 12.633 
72 1 0.548 5.882 13.035 
92 1 0.942 8.582 14.209 
95 1 -5.019 10.493 21.771 
98 1 -4.751 9.243 20.899 
104 1 0.468 9.427 11.84 
116 1 -2.66 8.795 21.771 
118 1 -3.52 8.357 20.899 
122 1 0.191 8.638 13.035 
133 1 -3.309 6.723 11.865 
136 1 0.3 8.576 22.068 
147 1 0.548 5.882 19.728 
153 1 -4.751 9.243 11.865 
160 1 0.942 8.582 18.554 
1 1 7.976 4.694 10.572 
4 1 9.274 4.77 10.993 
20 1 8.034 4.861 9.056 
42 1 9.55 5.41 7.479 
67 1 10.043 4.578 0.765 
77 1 7.976 4.694 0.042 
94 1 8.035 4.861 1.558 
96 1 9.278 4.635 1.961 
121 1 4.688 5.417 10.696 
130 1 9.55 5.41 3.135 
134 1 10.043 4.578 9.849 
152 1 9.278 4.635 8.653 
45 1 4.688 5.417 22.068 
55 1 4.788 5.329 13.035 
106 1 9.274 4.77 21.771 
137 1 4.788 5.329 19.728 
2 1 7.294 10.585 9.056 
3 1 9.004 7.624 6.127 
6 1 8.556 6.347 6.805 
16 1 2.314 8.72 0.79 
22 1 7.166 6.156 8.653 
26 1 7.226 8.565 7.479 
35 1 7.191 10.764 10.572 
37 1 6.846 9.307 10.993 
39 1 8.214 8.992 6.805 
41 1 6.677 7.002 9.849 
48 1 3.775 6.213 0.79 
61 1 7.294 10.585 1.558 
62 1 9.004 7.624 4.487 
64 1 6.747 9.395 1.961 
68 1 7.437 6.931 3.135 
71 1 4.29 8.493 10.696 
74 1 3.567 7.818 9.824 
81 1 8.556 6.347 3.808 
83 1 6.47 8.606 0.765 
93 1 7.191 10.764 0.042 
97 1 8.214 8.992 3.808 
101 1 2.261 9.954 10.696 
103 1 2.314 8.72 9.824 
117 1 7.166 6.156 1.961 
120 1 7.226 8.565 3.135 
123 1 3.775 6.213 9.824 
129 1 6.677 7.002 0.765 
132 1 6.747 9.395 8.653 
135 1 7.437 6.931 7.479 
141 1 7.244 6.231 10.993 
144 1 6.47 8.606 9.849 
148 1 3.567 7.818 0.79 
7 1 9.22 6.004 11.865 
10 1 3.558 10.029 21.647 
13 1 2.261 9.954 22.068 
15 1 2.978 8.376 17.88 
28 1 3.5 9.862 20.131 
30 1 4.369 8.568 19.728 
34 1 4.308 6.159 18.554 
40 1 7.76 8.511 11.865 
49 1 4.857 7.722 20.924 
50 1 1.984 9.314 18.554 
58 1 1.491 10.146 11.84 
59 1 4.097 7.793 14.209 
69 1 3.558 10.029 11.117 
73 1 2.978 8.376 14.883 
75 1 5.064 6.118 11.84 
79 1 7.244 6.231 21.771 
82 1 7.967 6.906 20.899 
86 1 3.5 9.862 12.633 
88 1 2.256 10.089 13.035 
108 1 9.22 6.004 20.899 
112 1 4.369 8.568 13.035 
115 1 4.308 6.159 14.209 
124 1 4.857 7.722 11.84 
125 1 1.984 9.314 14.209 
126 1 6.846 9.307 21.771 
128 1 7.76 8.511 20.899 
139 1 1.491 10.146 20.924 
140 1 4.097 7.793 18.554 
143 1 7.967 6.906 11.865 
146 1 4.29 8.493 22.068 
149 1 5.064 6.118 20.924 
157 1 2.256 10.089 19.728 
161 2 5.447 7.793 14.209 
162 2 6.101 8.798 15.105 
163 3 6.933 8.877 14.632 
ITEM: TIMESTEP
10
ITEM: NUMBER OF ATOMS
163
ITEM: BOX BOUNDS xy xz yz pp pp pp
-6.7755000000000001e+00 1.3552000000000000e+01 -6.7755000000000001e+00
0.0000000000000000e+00 1.1735510246683001e+01 0.0000000000000000e+00
0.0000000000000000e+00 2.2149999999999999e+01 0.0000000000000000e+00
ITEM: ATOMS id type x y z 
8 1 -2.41783 5.34452 9.86795 
87 1 2.96085 4.23637 10.6296 
90 1 2.64437 5.47177 9.77675 
109 1 -2.41605 5.34734 0.750011 
158 1 2.64008 5.45478 0.828385 
11 1 4.27961 4.18207 20.1623 
14 1 2.9265 4.11473 19.7015 
18 1 1.32821 5.84568 18.5999 
33 1 2.15447 4.21303 20.9075 
43 1 4.31947 4.12804 21.5896 
47 1 3.26306 5.79284 17.8326 
52 1 4.28859 4.15003 12.6085 
76 1 2.42686 4.91463 14.1739 
85 1 4.33501 4.10872 11.1676 
89 1 3.24718 5.77563 14.9425 
91 1 1.00484 5.06279 11.8603 
102 1 2.91968 4.12096 13.0763 
105 1 1.31772 5.85327 14.1738 
114 1 2.14146 4.20685 11.8746 
150 1 2.43618 4.91644 18.5756 
156 1 2.98124 4.25755 22.1084 
159 1 1.00567 5.06821 20.9044 
5 1 -4.95032 10.6159 8.62951 
9 1 -3.36252 8.85396 7.50278 
19 1 -1.75128 7.46317 10.5628 
21 1 -2.59456 8.76834 10.8696 
23 1 -3.31241 7.54665 6.8445 
25 1 -4.17414 10.5171 9.83287 
32 1 1.58109 6.34708 0.769278 
36 1 -1.89412 7.52456 9.06177 
38 1 -2.15453 6.18715 8.62801 
54 1 0.305903 8.52353 10.6725 
57 1 1.33533 7.98788 9.79801 
60 1 -1.74376 7.45593 0.0676233 
65 1 -3.31015 7.54188 3.78089 
78 1 -1.90349 7.52053 1.54977 
80 1 -2.5453 8.78373 1.83883 
84 1 -4.45755 9.82323 3.11331 
99 1 -3.02199 9.67351 0.803428 
100 1 -2.918 6.25106 3.179 
107 1 -4.95179 10.6147 1.98113 
110 1 -3.34996 8.86481 3.10324 
111 1 0.58936 5.95929 10.8173 
113 1 1.57944 6.34157 9.84578 
119 1 -4.17525 10.5143 0.781122 
127 1 -2.15344 6.19922 1.9781 
131 1 -2.32289 6.20658 11.0129 
138 1 1.33039 7.9853 0.810795 
142 1 -2.55047 8.79523 8.76164 
145 1 -4.45021 9.81801 7.50169 
151 1 -4.99935 10.4652 11.0383 
154 1 -3.01976 9.6651 9.82418 
155 1 -2.92374 6.25874 7.42906 
12 1 2.5829 7.06293 17.1351 
17 1 0.39979 9.37695 20.9419 
24 1 -3.59719 8.37575 11.8612 
27 1 -0.261616 7.25645 21.6333 
29 1 0.593289 5.9583 21.9469 
31 1 1.27313 7.17064 17.9093 
44 1 -0.115021 7.20158 20.1414 
46 1 0.136097 8.52936 19.7063 
51 1 -0.265819 7.25091 11.1324 
53 1 2.53822 7.05942 15.6249 
56 1 1.29637 7.16521 14.8367 
63 1 -2.32087 6.2081 21.7527 
66 1 -3.34775 6.71716 20.8727 
70 1 -0.121416 7.22056 12.6241 
72 1 0.534971 5.93845 12.9287 
92 1 0.907177 8.46771 14.2576 
95 1 -4.99879 10.465 21.7301 
98 1 -4.70802 9.27737 20.8581 
104 1 0.400378 9.37715 11.8272 
116 1 -2.56962 8.77788 21.9128 
118 1 -3.60912 8.36674 20.8757 
122 1 0.134367 8.51323 13.0527 
133 1 -3.34784 6.73032 11.8891 
136 1 0.306174 8.51765 22.0874 
147 1 0.532882 5.92875 19.8422 
153 1 -4.68826 9.26325 11.9026 
160 1 0.898963 8.48349 18.5169 
1 1 7.88349 4.88535 10.5364 
4 1 9.18112 4.78072 11.0461 
20 1 7.89361 4.9462 9.06178 
42 1 9.48383 5.41562 7.43471 
67 1 10.0086 4.54104 0.763518 
77 1 7.88434 4.88864 0.0788745 
94 1 7.89445 4.94723 1.55133 
96 1 9.2035 4.63829 2.00431 
121 1 4.71722 5.41665 10.7173 
130 1 9.48209 5.4143 3.17798 
134 1 10.0095 4.54153 9.84958 
152 1 9.20387 4.63796 8.6105 
45 1 4.70018 5.41801 22.0259 
55 1 4.82878 5.44059 13.0566 
106 1 9.18062 4.78152 21.7178 
137 1 4.82007 5.47638 19.7109 
2 1 7.25371 10.5401 9.08939 
3 1 8.9735 7.65869 6.06052 
6 1 8.51168 6.38211 6.82096 
16 1 2.33531 8.69472 0.844844 
22 1 7.16494 6.19091 8.72465 
26 1 7.18106 8.42222 7.55239 
35 1 7.21182 10.5951 10.5147 
37 1 6.84421 9.30285 10.956 
39 1 8.28606 8.92937 6.7613 
41 1 6.73996 7.02079 9.82805 
48 1 3.74251 6.34004 0.838417 
61 1 7.25476 10.5406 1.52371 
62 1 8.96622 7.65944 4.54895 
64 1 6.71691 9.25145 1.98424 
68 1 7.39215 6.97303 3.04805 
71 1 4.31097 8.54357 10.7923 
74 1 3.60043 7.79103 9.84964 
81 1 8.51206 6.3846 3.79542 
83 1 6.53659 8.45089 0.793841 
93 1 7.2159 10.6009 0.104499 
97 1 8.2798 8.92422 3.85021 
101 1 2.34919 9.93695 10.6401 
103 1 2.34836 8.68781 9.76564 
117 1 7.16342 6.19362 1.88383 
120 1 7.18226 8.42121 3.06497 
123 1 3.72833 6.37823 9.76706 
129 1 6.74365 7.01827 0.786112 
132 1 6.71484 9.24853 8.63138 
135 1 7.39292 6.97243 7.56561 
141 1 7.23932 6.19397 10.9004 
144 1 6.5406 8.46266 9.82544 
148 1 3.62167 7.80522 0.774732 
7 1 9.19755 6.02862 11.9227 
10 1 3.65226 9.83859 21.6127 
13 1 2.35255 9.9407 22.1217 
15 1 3.02659 8.33749 17.896 
28 1 3.63707 9.77982 20.1381 
30 1 4.36861 8.53764 19.7892 
34 1 4.35177 6.29925 18.6229 
40 1 7.79393 8.38153 11.9008 
49 1 4.79979 7.6995 20.9072 
50 1 2.05479 9.30982 18.5086 
58 1 1.51859 10.1874 11.8335 
59 1 4.29952 7.74915 14.157 
69 1 3.61372 9.88449 11.149 
73 1 3.00495 8.38532 14.9208 
75 1 5.0198 6.24057 11.8739 
79 1 7.23449 6.19665 21.8671 
82 1 7.90698 6.93892 20.9132 
86 1 3.62962 9.83119 12.6018 
88 1 2.30968 10.0881 13.0849 
108 1 9.19665 6.02575 20.8418 
112 1 4.35251 8.55297 12.8576 
115 1 4.35896 6.2288 14.1382 
124 1 4.82554 7.67488 11.8578 
125 1 2.01425 9.33172 14.2415 
126 1 6.83819 9.30279 21.7987 
128 1 7.80044 8.37883 20.8628 
139 1 1.52464 10.1819 20.9249 
140 1 4.1329 7.75396 18.6333 
143 1 7.909 6.93792 11.8516 
146 1 4.29541 8.53472 21.9824 
149 1 4.99815 6.25394 20.8977 
157 1 2.33108 10.0858 19.6867 
161 2 5.42064 7.81281 14.2718 
162 2 6.11142 8.81093 15.1205 
163 3 6.93056 8.8722 14.626 
ITEM: TIMESTEP
20
ITEM: NUMBER OF ATOMS
163
ITEM: BOX BOUNDS xy xz yz pp pp pp
-6.7755000000000001e+00 1.3552000000000000e+01 -6.7755000000000001e+00
0.0000000000000000e+00 1.1735510246683001e+01 0.0000000000000000e+00
0.0000000000000000e+00 2.2149999999999999e+01 0.0000000000000000e+00
ITEM: ATOMS id type x y z 
8 1 -2.41372 5.37648 9.84931 
87 1 2.96559 4.26588 10.636 
90 1 2.65178 5.46526 9.78722 
109 1 -2.41258 5.37815 0.774151 
158 1 2.64636 5.46035 0.830994 
11 1 4.28548 4.20852 20.1276 
14 1 2.90757 4.13399 19.6895 
18 1 1.31368 5.85546 18.5955 
33 1 2.12416 4.21538 20.9039 
43 1 4.31719 4.17303 21.586 
47 1 3.26002 5.79771 17.8263 
52 1 4.28253 4.17033 12.6296 
76 1 2.42429 4.93014 14.1727 
85 1 4.30803 4.16487 11.1741 
89 1 3.25278 5.79412 14.9302 
91 1 0.991652 5.05763 11.8498 
102 1 2.90677 4.13292 13.07 
105 1 1.30677 5.84993 14.1642 
114 1 2.12793 4.21376 11.8582 
150 1 2.44012 4.9309 18.5841 
156 1 2.97086 4.26492 22.1243 
159 1 0.99303 5.05507 20.9167 
5 1 -4.93033 10.5937 8.61414 
9 1 -3.3311 8.86267 7.52063 
19 1 -1.7505 7.4847 10.5493 
21 1 -2.62679 8.75673 10.8782 
23 1 -3.3045 7.55173 6.842 
25 1 -4.14349 10.5087 9.83602 
32 1 1.61177 6.36646 0.749976 
36 1 -1.87598 7.52057 9.07292 
38 1 -2.15765 6.21337 8.63265 
54 1 0.313059 8.51804 10.6663 
57 1 1.36432 7.96158 9.80038 
60 1 -1.7484 7.48773 0.0642011 
65 1 -3.30682 7.55413 3.76869 
78 1 -1.87644 7.51863 1.54944 
80 1 -2.5512 8.79353 1.83621 
84 1 -4.45809 9.78882 3.09348 
99 1 -3.0074 9.6664 0.775567 
100 1 -2.9341 6.27297 3.17172 
107 1 -4.9253 10.5791 2.00338 
110 1 -3.33586 8.86654 3.09042 
111 1 0.606175 5.9625 10.8139 
113 1 1.60247 6.36573 9.86375 
119 1 -4.14368 10.5065 0.792356 
127 1 -2.16467 6.21299 1.98006 
131 1 -2.33306 6.21252 11.0224 
138 1 1.36485 7.96936 0.809805 
142 1 -2.54406 8.79059 8.77447 
145 1 -4.45647 9.79201 7.50799 
151 1 -4.99026 10.4562 11.0446 
154 1 -3.01016 9.67069 9.84276 
155 1 -2.93753 6.27207 7.43572 
12 1 2.56991 7.07234 17.1575 
17 1 0.39167 9.35353 20.9207 
24 1 -3.62743 8.36165 11.8246 
27 1 -0.267393 7.23694 21.6271 
29 1 0.608357 5.9651 21.9537 
31 1 1.27978 7.17199 17.9145 
44 1 -0.142988 7.20248 20.1447 
46 1 0.140752 8.51041 19.7032 
51 1 -0.269103 7.23672 11.1362 
53 1 2.57942 7.11159 15.6 
56 1 1.29056 7.16867 14.836 
63 1 -2.33195 6.21143 21.7393 
66 1 -3.38236 6.75128 20.8775 
70 1 -0.145427 7.20343 12.6182 
72 1 0.526615 5.9339 12.9135 
92 1 0.914372 8.45325 14.2483 
95 1 -4.98753 10.4622 21.7169 
98 1 -4.66015 9.25952 20.8541 
104 1 0.395901 9.34347 11.8433 
116 1 -2.63103 8.75627 21.887 
118 1 -3.62365 8.36894 20.9423 
122 1 0.141025 8.51572 13.0521 
133 1 -3.37959 6.75277 11.884 
136 1 0.311655 8.51132 22.1037 
147 1 0.523447 5.92873 19.8539 
153 1 -4.66325 9.2664 11.9032 
160 1 0.916333 8.45428 18.5151 
1 1 7.84003 4.87323 10.539 
4 1 9.17275 4.81581 11.0109 
20 1 7.87579 4.95276 9.06989 
42 1 9.46154 5.44816 7.43736 
67 1 9.96838 4.55309 0.759136 
77 1 7.83986 4.87622 0.0748013 
94 1 7.87641 4.95248 1.54873 
96 1 9.18831 4.66535 2.00497 
121 1 4.66848 5.46252 10.7021 
130 1 9.4623 5.44941 3.17483 
134 1 9.9697 4.55284 9.85605 
152 1 9.18799 4.66396 8.60796 
45 1 4.664 5.46858 22.0571 
55 1 4.82405 5.45769 13.0661 
106 1 9.17553 4.812 21.753 
137 1 4.81392 5.4949 19.7007 
2 1 7.25049 10.5089 9.05789 
3 1 8.97061 7.64708 6.07467 
6 1 8.51299 6.38805 6.81782 
16 1 2.35198 8.68844 0.847863 
22 1 7.14487 6.18491 8.71593 
26 1 7.1974 8.42447 7.54524 
35 1 7.22417 10.5592 10.5062 
37 1 6.86662 9.25709 10.9851 
39 1 8.27406 8.92771 6.75413 
41 1 6.73035 7.00422 9.83677 
48 1 3.69736 6.35076 0.817623 
61 1 7.25836 10.5175 1.56297 
62 1 8.97236 7.64659 4.53573 
64 1 6.71959 9.23079 1.98861 
68 1 7.39419 6.963 3.05728 
71 1 4.35122 8.54723 10.7674 
74 1 3.55857 7.77933 9.82987 
81 1 8.51505 6.38856 3.79558 
83 1 6.53673 8.44834 0.781566 
93 1 7.21445 10.5551 0.104219 
97 1 8.27757 8.93254 3.85275 
101 1 2.35546 9.93693 10.6621 
103 1 2.35906 8.6727 9.75328 
117 1 7.14578 6.18276 1.90334 
120 1 7.19808 8.42106 3.07006 
123 1 3.69319 6.3677 9.79264 
129 1 6.72584 7.00727 0.776447 
132 1 6.72337 9.23654 8.62709 
135 1 7.39456 6.96212 7.55745 
141 1 7.23358 6.21096 10.921 
144 1 6.5445 8.43924 9.81759 
148 1 3.59684 7.78971 0.781002 
7 1 9.1848 6.03344 11.9243 
10 1 3.69601 9.84717 21.6163 
13 1 2.36373 9.90825 22.0879 
15 1 3.02073 8.33439 17.8905 
28 1 3.65829 9.77121 20.148 
30 1 4.39451 8.53532 19.7892 
34 1 4.34036 6.30122 18.6199 
40 1 7.83799 8.3701 11.8954 
49 1 4.80064 7.71955 20.9135 
50 1 2.07439 9.27668 18.5108 
58 1 1.55656 10.1716 11.8407 
59 1 4.27293 7.77341 14.1896 
69 1 3.62816 9.86898 11.1629 
73 1 2.98412 8.33917 14.875 
75 1 5.01594 6.26098 11.8547 
79 1 7.23156 6.20879 21.8369 
82 1 7.93669 6.9318 20.9037 
86 1 3.64645 9.83314 12.6003 
88 1 2.32024 10.0753 13.0685 
108 1 9.187 6.03352 20.8373 
112 1 4.36649 8.53913 12.8741 
115 1 4.33704 6.23333 14.1436 
124 1 4.82313 7.67583 11.8652 
125 1 2.0853 9.27141 14.2699 
126 1 6.86707 9.25373 21.7888 
128 1 7.83103 8.37155 20.8713 
139 1 1.5687 10.1745 20.9296 
140 1 4.13559 7.75805 18.6288 
143 1 7.93733 6.93318 11.8597 
146 1 4.30333 8.51032 21.9977 
149 1 4.99779 6.28682 20.904 
157 1 2.34475 10.0624 19.6841 
161 2 5.42268 7.81552 14.2992 
162 2 6.11668 8.81735 15.1281 
163 3 6.93071 8.87073 14.6233 
ITEM: TIMESTEP
30
ITEM: NUMBER OF ATOMS
163
ITEM: BOX BOUNDS xy xz yz pp pp pp
-6.7755000000000001e+00 1.3552000000000000e+01 -6.7755000000000001e+00
0.0000000000000000e+00 1.1735510246683001e+01 0.0000000000000000e+00
0.0000000000000000e+00 2.2149999999999999e+01 0.0000000000000000e+00
ITEM: ATOMS id type x y z 
8 1 -2.43362 5.39688 9.84123 
87 1 2.95979 4.26944 10.6324 
90 1 2.64152 5.45627 9.78692 
109 1 -2.43237 5.39697 0.770765 
158 1 2.63297 5.44825 0.830794 
11 1 4.27788 4.22739 20.1227 
14 1 2.89729 4.14743 19.6949 
18 1 1.30929 5.85921 18.6031 
33 1 2.11551 4.20921 20.9037 
43 1 4.29814 4.20365 21.5666 
47 1 3.24383 5.80567 17.8205 
52 1 4.27387 4.18991 12.6304 
76 1 2.41767 4.93439 14.1724 
85 1 4.28809 4.20529 11.1929 
89 1 3.24578 5.8054 14.9255 
91 1 0.971121 5.04857 11.8453 
102 1 2.89323 4.14207 13.0648 
105 1 1.29725 5.85618 14.1621 
114 1 2.11459 4.21068 11.8568 
150 1 2.426 4.94095 18.587 
156 1 2.96015 4.26808 22.1251 
159 1 0.971049 5.046 20.9162 
5 1 -4.9171 10.5765 8.62285 
9 1 -3.32638 8.86239 7.5277 
19 1 -1.74393 7.49362 10.5502 
21 1 -2.62311 8.76485 10.8767 
23 1 -3.3027 7.5582 6.84013 
25 1 -4.13346 10.5162 9.82571 
32 1 1.60358 6.39456 0.750495 
36 1 -1.85241 7.53394 9.0649 
38 1 -2.15451 6.22233 8.63616 
54 1 0.323762 8.50793 10.6638 
57 1 1.3737 7.94259 9.80388 
60 1 -1.74366 7.49265 0.0642793 
65 1 -3.30151 7.55992 3.774 
78 1 -1.8525 7.53241 1.5482 
80 1 -2.53681 8.79298 1.83245 
84 1 -4.44232 9.78625 3.10604 
99 1 -2.98792 9.67497 0.769868 
100 1 -2.93701 6.28051 3.17285 
107 1 -4.91573 10.581 1.98652 
110 1 -3.32562 8.86022 3.08803 
111 1 0.599781 5.9559 10.8129 
113 1 1.59593 6.39178 9.8604 
119 1 -4.13237 10.5128 0.785431 
127 1 -2.15248 6.22419 1.97715 
131 1 -2.33647 6.21369 11.0214 
138 1 1.37266 7.95242 0.806725 
142 1 -2.53675 8.79229 8.78524 
145 1 -4.4445 9.78463 7.51235 
151 1 -4.97798 10.4559 11.0509 
154 1 -2.98711 9.67592 9.84048 
155 1 -2.93777 6.28136 7.44167 
12 1 2.56642 7.0717 17.157 
17 1 0.410069 9.33272 20.9172 
24 1 -3.62293 8.33009 11.824 
27 1 -0.272157 7.23164 21.6257 
29 1 0.602603 5.95994 21.9508 
31 1 1.28506 7.16634 17.913 
44 1 -0.165679 7.18992 20.1425 
46 1 0.135005 8.49744 19.7065 
51 1 -0.272483 7.22846 11.1367 
53 1 2.5834 7.11537 15.5935 
56 1 1.27802 7.16268 14.8389 
63 1 -2.33778 6.2147 21.743 
66 1 -3.39009 6.7744 20.88 
70 1 -0.167651 7.19387 12.6226 
72 1 0.512128 5.93066 12.9079 
92 1 0.925782 8.43411 14.2443 
95 1 -4.97932 10.4509 21.7149 
98 1 -4.65314 9.27782 20.8606 
104 1 0.40995 9.32973 11.8479 
116 1 -2.62538 8.76612 21.8853 
118 1 -3.62346 8.33164 20.9405 
122 1 0.136475 8.49792 13.056 
133 1 -3.39219 6.77407 11.8843 
136 1 0.319253 8.50484 22.1018 
147 1 0.517493 5.9308 19.8588 
153 1 -4.65106 9.27587 11.9045 
160 1 0.920652 8.4434 18.5172 
1 1 7.8063 4.87935 10.544 
4 1 9.13955 4.83156 11.0001 
20 1 7.85038 4.95054 9.07525 
42 1 9.44914 5.45973 7.43876 
67 1 9.96791 4.57686 0.772604 
77 1 7.80778 4.88252 0.0710972 
94 1 7.85017 4.95234 1.53777 
96 1 9.16473 4.68198 2.00133 
121 1 4.65275 5.49419 10.681 
130 1 9.44799 5.45855 3.17521 
134 1 9.96852 4.57871 9.84212 
152 1 9.1654 4.682 8.6133 
45 1 4.65838 5.51032 22.0805 
55 1 4.82457 5.4792 13.0711 
106 1 9.1377 4.83137 21.7627 
137 1 4.81593 5.52481 19.6979 
2 1 7.2618 10.4985 9.04902 
3 1 8.96749 7.65296 6.0754 
6 1 8.5091 6.39581 6.80691 
16 1 2.35837 8.68792 0.854505 
22 1 7.11407 6.17881 8.70584 
26 1 7.19914 8.41068 7.53612 
35 1 7.23369 10.5209 10.4948 
37 1 6.88476 9.21777 11.003 
39 1 8.29208 8.91797 6.74651 
41 1 6.71656 6.98818 9.83925 
48 1 3.70364 6.34716 0.821847 
61 1 7.25616 10.497 1.56567 
62 1 8.96507 7.65364 4.53899 
64 1 6.71881 9.1999 1.98977 
68 1 7.38791 6.96211 3.06645 
71 1 4.36054 8.55704 10.7698 
74 1 3.55833 7.80117 9.83005 
81 1 8.50968 6.39598 3.80667 
83 1 6.53523 8.41648 0.795884 
93 1 7.23476 10.5194 0.118194 
97 1 8.29182 8.91388 3.86615 
101 1 2.37316 9.92911 10.6588 
103 1 2.36528 8.67767 9.74877 
117 1 7.11396 6.1796 1.9075 
120 1 7.19682 8.41253 3.07431 
123 1 3.69415 6.36584 9.79379 
129 1 6.71402 6.99275 0.774079 
132 1 6.72032 9.20609 8.61782 
135 1 7.38907 6.96399 7.54753 
141 1 7.22674 6.2071 10.9368 
144 1 6.55373 8.41364 9.8163 
148 1 3.59594 7.79877 0.801235 
7 1 9.17411 6.0333 11.9296 
10 1 3.73149 9.84409 21.6226 
13 1 2.39569 9.89429 22.0771 
15 1 3.02296 8.32605 17.8791 
28 1 3.68547 9.76993 20.1473 
30 1 4.42137 8.54264 19.7798 
34 1 4.33513 6.31151 18.6128 
40 1 7.831 8.37756 11.8955 
49 1 4.81906 7.73165 20.9124 
50 1 2.08386 9.26395 18.515 
58 1 1.56358 10.1493 11.8473 
59 1 4.27979 7.78451 14.2092 
69 1 3.63838 9.83775 11.1636 
73 1 3.02455 8.32689 14.8594 
75 1 5.02155 6.2684 11.8648 
79 1 7.22381 6.20715 21.8255 
82 1 7.93944 6.92257 20.8882 
86 1 3.6817 9.84636 12.6075 
88 1 2.34697 10.054 13.0772 
108 1 9.17451 6.03156 20.8333 
112 1 4.37335 8.55019 12.8557 
115 1 4.33215 6.23931 14.1485 
124 1 4.83862 7.68325 11.8622 
125 1 2.09378 9.26322 14.254 
126 1 6.88089 9.21696 21.7616 
128 1 7.83199 8.37869 20.8705 
139 1 1.57013 10.1498 20.9163 
140 1 4.1462 7.75933 18.6237 
143 1 7.93914 6.92189 11.8761 
146 1 4.3121 8.51626 22.0142 
149 1 4.99883 6.30929 20.8938 
157 1 2.36817 10.0415 19.6864 
161 2 5.41611 7.81892 14.3307 
162 2 6.12308 8.82494 15.1367 
163 3 6.93033 8.86872 14.6201 
ITEM: TIMESTEP
40
ITEM: NUMBER OF ATOMS
163
ITEM: BOX BOUNDS xy xz yz pp pp pp
-6.7755000000000001e+00 1.3552000000000000e+01 -6.7755000000000001e+00
0.0000000000000000e+00 1.1735510246683001e+01 0.0000000000000000e+00
0.0000000000000000e+00 2.2149999999999999e+01 0.0000000000000000e+00
ITEM: ATOMS id type x y z 
8 1 -2.44006 5.41907 9.83839 
87 1 2.95217 4.28575 10.6316 
90 1 2.63176 5.46162 9.77811 
109 1 -2.44089 5.41868 0.775662 
158 1 2.62894 5.45426 0.838195 
11 1 4.27441 4.25091 20.1102 
14 1 2.88331 4.15835 19.7021 
18 1 1.29818 5.86285 18.6048 
33 1 2.10271 4.21452 20.9075 
43 1 4.28441 4.24059 21.5546 
47 1 3.23977 5.80144 17.8222 
52 1 4.26392 4.21196 12.6454 
76 1 2.40392 4.93754 14.1712 
85 1 4.27689 4.23182 11.2008 
89 1 3.24105 5.80004 14.9215 
91 1 0.954281 5.03914 11.8417 
102 1 2.8796 4.14762 13.0567 
105 1 1.28958 5.85473 14.1592 
114 1 2.10015 4.21343 11.8505 
150 1 2.41829 4.94366 18.5868 
156 1 2.95889 4.28536 22.1219 
159 1 0.957126 5.0391 20.9214 
5 1 -4.9003 10.567 8.62643 
9 1 -3.3158 8.85983 7.52922 
19 1 -1.7431 7.50638 10.5482 
21 1 -2.60903 8.76839 10.8786 
23 1 -3.30156 7.55273 6.84133 
25 1 -4.11749 10.5107 9.83183 
32 1 1.59758 6.38864 0.753306 
36 1 -1.83219 7.5461 9.06559 
38 1 -2.14576 6.23566 8.638 
54 1 0.332157 8.49374 10.6693 
57 1 1.38064 7.94494 9.80383 
60 1 -1.74492 7.50612 0.0651823 
65 1 -3.30132 7.55331 3.77286 
78 1 -1.83209 7.5462 1.54782 
80 1 -2.52052 8.7984 1.83297 
84 1 -4.43526 9.78182 3.10008 
99 1 -2.97522 9.68514 0.766151 
100 1 -2.93757 6.28524 3.16848 
107 1 -4.90056 10.5657 1.98717 
110 1 -3.31479 8.86053 3.0844 
111 1 0.585077 5.95205 10.8118 
113 1 1.58826 6.38454 9.85403 
119 1 -4.11939 10.5083 0.781038 
127 1 -2.14629 6.23533 1.97665 
131 1 -2.34499 6.22667 11.0208 
138 1 1.38063 7.95515 0.808504 
142 1 -2.52023 8.79879 8.7806 
145 1 -4.43517 9.78214 7.51249 
151 1 -4.97563 10.4413 11.0477 
154 1 -2.9743 9.68462 9.84676 
155 1 -2.93723 6.28522 7.44489 
12 1 2.56654 7.06509 17.1503 
17 1 0.422294 9.30667 20.9136 
24 1 -3.61493 8.33573 11.8282 
27 1 -0.274099 7.21868 21.6243 
29 1 0.591165 5.95526 21.9534 
31 1 1.28515 7.16905 17.912 
44 1 -0.185615 7.17655 20.1407 
46 1 0.128162 8.48894 19.7123 
51 1 -0.274042 7.21948 11.1388 
53 1 2.58499 7.1067 15.5957 
56 1 1.28399 7.16457 14.8442 
63 1 -2.34543 6.2268 21.7432 
66 1 -3.39823 6.77067 20.8804 
70 1 -0.188322 7.17909 12.624 
72 1 0.495207 5.92307 12.9085 
92 1 0.92422 8.4305 14.2392 
95 1 -4.9778 10.4397 21.719 
98 1 -4.64517 9.26741 20.851 
104 1 0.420109 9.30799 11.8494 
116 1 -2.61041 8.76607 21.886 
118 1 -3.61358 8.33541 20.9371 
122 1 0.129942 8.4873 13.0529 
133 1 -3.39808 6.77014 11.8834 
136 1 0.326101 8.49948 22.0963 
147 1 0.502146 5.9246 19.8555 
153 1 -4.64493 9.26856 11.9118 
160 1 0.920709 8.43907 18.5198 
1 1 7.77546 4.87983 10.544 
4 1 9.11837 4.84246 10.9936 
20 1 7.81581 4.9504 9.07396 
42 1 9.44082 5.46593 7.4428 
67 1 9.94683 4.59737 0.777014 
77 1 7.77366 4.88348 0.0705961 
94 1 7.81604 4.95283 1.53927 
96 1 9.14217 4.69944 1.99862 
121 1 4.63909 5.51333 10.6792 
130 1 9.44124 5.46695 3.17116 
134 1 9.9468 4.59717 9.83756 
152 1 9.14265 4.69912 8.61489 
45 1 4.64298 5.52175 22.0791 
55 1 4.8269 5.49047 13.0764 
106 1 9.11919 4.84199 21.7704 
137 1 4.81545 5.54314 19.697 
2 1 7.2614 10.4764 9.03902 
3 1 8.96731 7.66096 6.07413 
6 1 8.50736 6.39724 6.80555 
16 1 2.37289 8.69119 0.855996 
22 1 7.08599 6.16983 8.69392 
26 1 7.20194 8.40355 7.52222 
35 1 7.25088 10.4865 10.4828 
37 1 6.8966 9.2034 11.0023 
39 1 8.2923 8.92786 6.74995 
41 1 6.7014 6.97101 9.83863 
48 1 3.68511 6.35161 0.840594 
61 1 7.26082 10.4723 1.57688 
62 1 8.96772 7.66007 4.53781 
64 1 6.71813 9.18275 1.98953 
68 1 7.37926 6.95168 3.07168 
71 1 4.38241 8.55771 10.761 
74 1 3.56332 7.81047 9.82301 
81 1 8.50608 6.39717 3.80788 
83 1 6.53444 8.3977 0.791856 
93 1 7.24955 10.4847 0.132789 
97 1 8.29026 8.9279 3.86253 
101 1 2.37608 9.92242 10.6591 
103 1 2.37121 8.68461 9.74349 
117 1 7.08525 6.17315 1.91679 
120 1 7.2013 8.40296 3.08755 
123 1 3.67942 6.37689 9.78124 
129 1 6.69888 6.9752 0.773436 
132 1 6.72155 9.18584 8.61765 
135 1 7.38015 6.95234 7.54189 
141 1 7.21183 6.20139 10.9485 
144 1 6.56375 8.3963 9.81382 
148 1 3.60247 7.80643 0.818943 
7 1 9.16104 6.03343 11.9321 
10 1 3.76024 9.84053 21.6176 
13 1 2.41714 9.88076 22.0688 
15 1 3.02795 8.32448 17.8784 
28 1 3.71831 9.76993 20.1508 
30 1 4.4486 8.55 19.7705 
34 1 4.33159 6.32171 18.6008 
40 1 7.84748 8.37124 11.9162 
49 1 4.83489 7.74937 20.9154 
50 1 2.09354 9.25497 18.5185 
58 1 1.58512 10.1275 11.8511 
59 1 4.30709 7.78877 14.2075 
69 1 3.65373 9.83387 11.1702 
73 1 3.01766 8.32968 14.857 
75 1 5.02668 6.27768 11.8627 
79 1 7.20739 6.20337 21.8161 
82 1 7.93312 6.91795 20.8707 
86 1 3.71148 9.85625 12.608 
88 1 2.36847 10.0526 13.0666 
108 1 9.16231 6.03365 20.8307 
112 1 4.39291 8.5586 12.8586 
115 1 4.33224 6.2493 14.1565 
124 1 4.85784 7.69301 11.8611 
125 1 2.10864 9.24814 14.2528 
126 1 6.89127 9.20215 21.762 
128 1 7.84609 8.37053 20.8501 
139 1 1.58857 10.1271 20.9128 
140 1 4.1548 7.76922 18.6173 
143 1 7.93394 6.91725 11.8943 
146 1 4.32796 8.52078 22.0223 
149 1 4.99962 6.32739 20.897 
157 1 2.39231 10.0228 19.6887 
161 2 5.42018 7.82451 14.3651 
162 2 6.13079 8.83386 15.1466 
163 3 6.93032 8.86673 14.6166 
ITEM: TIMESTEP
50
ITEM: NUMBER OF ATOMS
163
ITEM: BOX BOUNDS xy xz yz pp pp pp
-6.7755000000000001e+00 1.3552000000000000e+01 -6.7755000000000001e+00
0.0000000000000000e+00 1.1735510246683001e+01 0.0000000000000000e+00
0.0000000000000000e+00 2.2149999999999999e+01 0.0000000000000000e+00
ITEM: ATOMS id type x y z 
8 1 -2.50199 5.48469 9.82997 
87 1 2.91775 4.33819 10.6224 
90 1 2.59933 5.48815 9.73862 
109 1 -2.50369 5.48251 0.78473 
158 1 2.60704 5.46337 0.879469 
11 1 4.24436 4.33708 20.0753 
14 1 2.83871 4.19088 19.7151 
18 1 1.26637 5.87601 18.6147 
33 1 2.06952 4.21639 20.9197 
43 1 4.23918 4.35451 21.5023 
47 1 3.20834 5.80439 17.8248 
52 1 4.21914 4.28485 12.6566 
76 1 2.35265 4.93864 14.1627 
85 1 4.21968 4.33198 11.2404 
89 1 3.21378 5.79969 14.8989 
91 1 0.869328 5.00422 11.8238 
102 1 2.82127 4.17047 13.043 
105 1 1.25384 5.8664 14.144 
114 1 2.05106 4.21113 11.8272 
150 1 2.36952 4.95255 18.5841 
156 1 2.93077 4.33303 22.1265 
159 1 0.877864 5.00838 20.9456 
5 1 -4.85317 10.5357 8.64118 
9 1 -3.28027 8.85252 7.54457 
19 1 -1.73564 7.54034 10.5342 
21 1 -2.57184 8.79955 10.8785 
23 1 -3.29724 7.54225 6.84247 
25 1 -4.08216 10.5047 9.84912 
32 1 1.56336 6.40788 0.776357 
36 1 -1.75714 7.58014 9.05513 
38 1 -2.12096 6.28735 8.63365 
54 1 0.372842 8.43795 10.6753 
57 1 1.40641 7.918 9.79763 
60 1 -1.73616 7.53513 0.081383 
65 1 -3.3011 7.54057 3.77188 
78 1 -1.75676 7.57978 1.55315 
80 1 -2.45695 8.83227 1.82851 
84 1 -4.38941 9.76999 3.10906 
99 1 -2.90474 9.71941 0.748765 
100 1 -2.9367 6.2902 3.15353 
107 1 -4.84945 10.5376 1.96807 
110 1 -3.27555 8.85036 3.06765 
111 1 0.542632 5.92233 10.8144 
113 1 1.5413 6.40495 9.83939 
119 1 -4.09024 10.5017 0.765097 
127 1 -2.11854 6.28613 1.97859 
131 1 -2.38211 6.27515 11.0137 
138 1 1.40913 7.94849 0.81617 
142 1 -2.45719 8.83325 8.77717 
145 1 -4.38904 9.77214 7.51376 
151 1 -4.9419 10.3915 11.0507 
154 1 -2.89885 9.71354 9.86708 
155 1 -2.93436 6.29231 7.46326 
12 1 2.57348 7.04506 17.1452 
17 1 0.490906 9.24465 20.9111 
24 1 -3.58259 8.31289 11.8378 
27 1 -0.285554 7.17983 21.6122 
29 1 0.538268 5.92582 21.9394 
31 1 1.28652 7.178 17.9065 
44 1 -0.262235 7.13376 20.134 
46 1 0.0971498 8.44399 19.7063 
51 1 -0.287043 7.18299 11.1595 
53 1 2.60153 7.08224 15.5865 
56 1 1.28617 7.16604 14.8413 
63 1 -2.3793 6.27541 21.7482 
66 1 -3.43261 6.78926 20.8743 
70 1 -0.262586 7.14159 12.6381 
72 1 0.43121 5.88535 12.9087 
92 1 0.937077 8.4201 14.2182 
95 1 -4.94577 10.3848 21.7128 
98 1 -4.61184 9.24976 20.8123 
104 1 0.485815 9.24816 11.8634 
116 1 -2.57091 8.79671 21.8912 
118 1 -3.57961 8.30946 20.9261 
122 1 0.1093 8.42866 13.0629 
133 1 -3.42869 6.79016 11.8888 
136 1 0.36572 8.45844 22.09 
147 1 0.438517 5.89629 19.8458 
153 1 -4.60782 9.25645 11.9523 
160 1 0.924265 8.43326 18.5259 
1 1 7.67698 4.8868 10.5385 
4 1 9.01781 4.88016 10.9801 
20 1 7.69142 4.94247 9.06104 
42 1 9.41403 5.50629 7.45906 
67 1 9.88161 4.6945 0.796383 
77 1 7.6725 4.88432 0.0722394 
94 1 7.6892 4.94929 1.55295 
96 1 9.03332 4.75986 1.99013 
121 1 4.59232 5.58832 10.6764 
130 1 9.41378 5.50546 3.15384 
134 1 9.8815 4.69414 9.81581 
152 1 9.03518 4.75817 8.62475 
45 1 4.5879 5.60843 22.0949 
55 1 4.83796 5.55799 13.0952 
106 1 9.01702 4.8834 21.7842 
137 1 4.8165 5.62538 19.6825 
2 1 7.29491 10.3945 8.99984 
3 1 8.96475 7.68516 6.07753 
6 1 8.48717 6.41264 6.79335 
16 1 2.42883 8.68906 0.871647 
22 1 6.97114 6.13029 8.65314 
26 1 7.20139 8.36293 7.48455 
35 1 7.30331 10.3721 10.426 
37 1 6.9624 9.11868 11.0196 
39 1 8.3217 8.93661 6.7556 
41 1 6.6422 6.90165 9.83355 
48 1 3.65505 6.38423 0.896649 
61 1 7.28667 10.3877 1.60857 
62 1 8.9606 7.69213 4.53661 
64 1 6.71201 9.10276 1.99424 
68 1 7.33843 6.90454 3.09473 
71 1 4.43069 8.56885 10.7529 
74 1 3.58874 7.86244 9.79967 
81 1 8.49042 6.41305 3.8198 
83 1 6.5336 8.33805 0.784566 
93 1 7.29326 10.3683 0.19273 
97 1 8.32573 8.93429 3.85738 
101 1 2.43574 9.89214 10.6582 
103 1 2.3987 8.70437 9.72249 
117 1 6.9699 6.1388 1.95345 
120 1 7.19565 8.36656 3.1247 
123 1 3.63335 6.4086 9.74649 
129 1 6.62902 6.91275 0.772996 
132 1 6.72884 9.10737 8.59711 
135 1 7.33916 6.91481 7.51539 
141 1 7.15256 6.18134 10.9859 
144 1 6.59654 8.33514 9.81273 
148 1 3.64106 7.8469 0.873489 
7 1 9.11295 6.03136 11.9423 
10 1 3.85484 9.81467 21.6146 
13 1 2.52481 9.85136 22.0569 
15 1 3.05107 8.30401 17.8621 
28 1 3.85169 9.78415 20.1375 
30 1 4.56547 8.57788 19.7292 
34 1 4.33145 6.3645 18.5666 
40 1 7.89309 8.34159 11.9795 
49 1 4.90964 7.8145 20.9163 