ITEM: TIMESTEP
0
ITEM: NUMBER OF ATOMS
161
ITEM: BOX BOUNDS xy xz yz pp pp pp
-6.7755000000000001e+00 1.3552000000000000e+01 -6.7755000000000001e+00
0.0000000000000000e+00 1.1735510246683001e+01 0.0000000000000000e+00
0.0000000000000000e+00 2.2149999999999999e+01 0.0000000000000000e+00
ITEM: ATOMS id type x y z 
8 1 -2.486 5.297 9.849 
87 1 3.001 4.231 10.696 
90 1 2.733 5.481 9.824 
109 1 -2.486 5.297 0.765 
158 1 2.733 5.481 0.79 
11 1 4.24 4.139 20.131 
14 1 3.031 4.094 19.728 
18 1 1.299 5.827 18.554 
33 1 2.266 4.151 20.924 
43 1 4.343 3.96 21.647 
47 1 3.32 5.732 17.88 
52 1 4.24 4.139 12.633 
76 1 2.552 4.924 14.209 
85 1 4.343 3.96 11.117 
89 1 3.32 5.732 14.883 
91 1 1.036 5.037 11.84 
102 1 3.031 4.094 13.035 
105 1 1.299 5.827 14.209 
114 1 2.266 4.151 11.84 
150 1 2.552 4.924 18.554 
156 1 3.001 4.231 22.068 
159 1 1.036 5.037 20.924 
5 1 -5.049 10.63 8.653 
9 1 -3.317 8.897 7.479 
19 1 -1.707 7.414 10.572 
21 1 -2.66 8.795 10.993 
23 1 -3.31 7.532 6.805 
25 1 -4.284 10.573 9.849 
32 1 1.503 6.367 0.79 
36 1 -1.869 7.426 9.056 
38 1 -2.209 6.086 8.653 
54 1 0.3 8.576 10.696 
57 1 1.291 8.001 9.824 
60 1 -1.707 7.414 0.042 
65 1 -3.31 7.532 3.808 
78 1 -1.869 7.426 1.558 
80 1 -2.566 8.842 1.961 
84 1 -4.57 9.799 3.135 
99 1 -3.054 9.687 0.765 
100 1 -2.96 6.142 3.135 
107 1 -5.049 10.63 1.961 
110 1 -3.317 8.897 3.135 
111 1 0.642 5.929 10.696 
113 1 1.503 6.367 9.824 
119 1 -4.284 10.573 0.765 
127 1 -2.209 6.086 1.961 
131 1 -2.318 6.148 10.993 
138 1 1.291 8.001 0.79 
142 1 -2.566 8.842 8.653 
145 1 -4.57 9.799 7.479 
151 1 -5.019 10.493 10.993 
154 1 -3.054 9.687 9.849 
155 1 -2.96 6.142 7.479 
161 2 -1.96 7.532 6.805 
12 1 2.53 7.1 17.202 
17 1 0.468 9.427 20.924 
24 1 -3.52 8.357 11.865 
27 1 -0.31 7.31 21.647 
29 1 0.642 5.929 22.068 
31 1 1.292 7.192 17.88 
44 1 -0.148 7.298 20.131 
46 1 0.191 8.638 19.728 
51 1 -0.31 7.31 11.117 
53 1 2.53 7.1 15.561 
56 1 1.292 7.192 14.883 
63 1 -2.318 6.148 21.771 
66 1 -3.309 6.723 20.899 
70 1 -0.148 7.298 12.633 
72 1 0.548 5.882 13.035 
92 1 0.942 8.582 14.209 
95 1 -5.019 10.493 21.771 
98 1 -4.751 9.243 20.899 
104 1 0.468 9.427 11.84 
116 1 -2.66 8.795 21.771 
118 1 -3.52 8.357 20.899 
122 1 0.191 8.638 13.035 
133 1 -3.309 6.723 11.865 
136 1 0.3 8.576 22.068 
147 1 0.548 5.882 19.728 
153 1 -4.751 9.243 11.865 
160 1 0.942 8.582 18.554 
1 1 7.976 4.694 10.572 
4 1 9.274 4.77 10.993 
20 1 8.034 4.861 9.056 
42 1 9.55 5.41 7.479 
67 1 10.043 4.578 0.765 
77 1 7.976 4.694 0.042 
94 1 8.035 4.861 1.558 
96 1 9.278 4.635 1.961 
121 1 4.688 5.417 10.696 
130 1 9.55 5.41 3.135 
134 1 10.043 4.578 9.849 
152 1 9.278 4.635 8.653 
45 1 4.688 5.417 22.068 
55 1 4.788 5.329 13.035 
106 1 9.274 4.77 21.771 
137 1 4.788 5.329 19.728 
2 1 7.294 10.585 9.056 
3 1 9.004 7.624 6.127 
6 1 8.556 6.347 6.805 
16 1 2.314 8.72 0.79 
22 1 7.166 6.156 8.653 
26 1 7.226 8.565 7.479 
35 1 7.191 10.764 10.572 
37 1 6.846 9.307 10.993 
39 1 8.214 8.992 6.805 
41 1 6.677 7.002 9.849 
48 1 3.775 6.213 0.79 
61 1 7.294 10.585 1.558 
62 1 9.004 7.624 4.487 
64 1 6.747 9.395 1.961 
68 1 7.437 6.931 3.135 
71 1 4.29 8.493 10.696 
74 1 3.567 7.818 9.824 
81 1 8.556 6.347 3.808 
83 1 6.47 8.606 0.765 
93 1 7.191 10.764 0.042 
97 1 8.214 8.992 3.808 
101 1 2.261 9.954 10.696 
103 1 2.314 8.72 9.824 
117 1 7.166 6.156 1.961 
120 1 7.226 8.565 3.135 
123 1 3.775 6.213 9.824 
129 1 6.677 7.002 0.765 
132 1 6.747 9.395 8.653 
135 1 7.437 6.931 7.479 
141 1 7.244 6.231 10.993 
144 1 6.47 8.606 9.849 
148 1 3.567 7.818 0.79 
7 1 9.22 6.004 11.865 
10 1 3.558 10.029 21.647 
13 1 2.261 9.954 22.068 
15 1 2.978 8.376 17.88 
28 1 3.5 9.862 20.131 
30 1 4.369 8.568 19.728 
34 1 4.308 6.159 18.554 
40 1 7.76 8.511 11.865 
49 1 4.857 7.722 20.924 
50 1 1.984 9.314 18.554 
58 1 1.491 10.146 11.84 
59 1 4.097 7.793 14.209 
69 1 3.558 10.029 11.117 
73 1 2.978 8.376 14.883 
75 1 5.064 6.118 11.84 
79 1 7.244 6.231 21.771 
82 1 7.967 6.906 20.899 
86 1 3.5 9.862 12.633 
88 1 2.256 10.089 13.035 
108 1 9.22 6.004 20.899 
112 1 4.369 8.568 13.035 
115 1 4.308 6.159 14.209 
124 1 4.857 7.722 11.84 
125 1 1.984 9.314 14.209 
126 1 6.846 9.307 21.771 
128 1 7.76 8.511 20.899 
139 1 1.491 10.146 20.924 
140 1 4.097 7.793 18.554 
143 1 7.967 6.906 11.865 
146 1 4.29 8.493 22.068 
149 1 5.064 6.118 20.924 
157 1 2.256 10.089 19.728 
ITEM: TIMESTEP
10
ITEM: NUMBER OF ATOMS
161
ITEM: BOX BOUNDS xy xz yz pp pp pp
-6.7755000000000001e+00 1.3552000000000000e+01 -6.7755000000000001e+00
0.0000000000000000e+00 1.1735510246683001e+01 0.0000000000000000e+00
0.0000000000000000e+00 2.2149999999999999e+01 0.0000000000000000e+00
ITEM: ATOMS id type x y z 
8 1 -2.40919 5.35525 9.87053 
87 1 2.97244 4.26684 10.6459 
90 1 2.65765 5.45281 9.78417 
109 1 -2.40612 5.35945 0.772909 
158 1 2.64853 5.45155 0.840708 
11 1 4.30084 4.18439 20.1389 
14 1 2.91477 4.11569 19.7114 
18 1 1.34488 5.84042 18.6004 
33 1 2.12066 4.24511 20.8953 
43 1 4.32552 4.12374 21.5757 
47 1 3.24407 5.80188 17.8596 
52 1 4.29514 4.18775 12.6086 
76 1 2.43536 4.89245 14.1845 
85 1 4.31635 4.14319 11.1897 
89 1 3.24063 5.79986 14.9017 
91 1 0.981721 5.10573 11.8633 
102 1 2.91871 4.11269 13.0557 
105 1 1.34471 5.8483 14.1673 
114 1 2.12254 4.24718 11.8594 
150 1 2.43405 4.88208 18.5809 
156 1 2.95645 4.25253 22.1221 
159 1 0.980599 5.10421 20.901 
5 1 -4.92728 10.5927 8.61776 
9 1 -3.31878 9.00419 7.58897 
19 1 -1.76443 7.50292 10.5548 
21 1 -2.61062 8.78496 10.9411 
23 1 -3.20412 7.65676 6.81426 
25 1 -4.14917 10.4868 9.83212 
32 1 1.58817 6.33899 0.781044 
36 1 -1.90263 7.5318 9.07689 
38 1 -2.15139 6.20247 8.6722 
54 1 0.292361 8.51694 10.677 
57 1 1.34951 7.99542 9.78095 
60 1 -1.76028 7.51669 0.0470717 
65 1 -3.30029 7.54811 3.75296 
78 1 -1.89326 7.52993 1.56417 
80 1 -2.56988 8.79541 1.89545 
84 1 -4.45087 9.78221 3.12162 
99 1 -2.99934 9.62951 0.784289 
100 1 -2.9259 6.24489 3.1738 
107 1 -4.92047 10.5918 2.00155 
110 1 -3.30453 8.87108 3.06962 
111 1 0.599977 5.96425 10.7734 
113 1 1.58409 6.337 9.83418 
119 1 -4.14351 10.4811 0.790826 
127 1 -2.16119 6.19916 1.97368 
131 1 -2.31415 6.2106 11.0249 
138 1 1.34549 8.00012 0.828042 
142 1 -2.56215 8.79619 8.72885 
145 1 -4.4834 9.79428 7.49187 
151 1 -4.982 10.4377 11.0419 
154 1 -3.00807 9.63071 9.84982 
155 1 -2.84928 6.17566 7.4279 
161 2 -1.83998 7.42064 6.6904 
12 1 2.59131 7.08055 17.1107 
17 1 0.389075 9.36348 20.9229 
24 1 -3.53293 8.36228 11.8549 
27 1 -0.251612 7.20892 21.6356 
29 1 0.597151 5.9653 21.9898 
31 1 1.28578 7.21015 17.8967 
44 1 -0.105009 7.18062 20.1327 
46 1 0.136026 8.51653 19.7211 
51 1 -0.254776 7.20392 11.1318 
53 1 2.58055 7.08258 15.6422 
56 1 1.30385 7.21855 14.8567 
63 1 -2.31254 6.20671 21.7496 
66 1 -3.36442 6.72271 20.8567 
70 1 -0.10455 7.18287 12.6333 
72 1 0.556501 5.93455 12.9658 
92 1 0.910501 8.48377 14.2491 
95 1 -4.9832 10.4587 21.7242 
98 1 -4.68799 9.26869 20.8499 
104 1 0.391801 9.36237 11.8469 
116 1 -2.60943 8.76237 21.849 
118 1 -3.57827 8.39229 20.9021 
122 1 0.139388 8.51675 13.0412 
133 1 -3.3288 6.79316 11.9032 
136 1 0.297311 8.51261 22.0888 
147 1 0.553919 5.93486 19.7974 
153 1 -4.66968 9.20982 11.8938 
160 1 0.904443 8.49763 18.5179 
1 1 7.8717 4.92922 10.527 
4 1 9.19032 4.79061 11.0579 
20 1 7.87405 4.93265 9.06935 
42 1 9.53262 5.40677 7.44617 
67 1 9.99705 4.53998 0.76496 
77 1 7.88413 4.95013 0.0847527 
94 1 7.86467 4.93865 1.54392 
96 1 9.20923 4.64075 2.00228 
121 1 4.68247 5.40962 10.7307 
130 1 9.4731 5.42301 3.18302 
134 1 9.99367 4.54832 9.8593 
152 1 9.19387 4.633 8.60799 
45 1 4.7082 5.41668 22.0408 
55 1 4.8174 5.48016 13.0694 
106 1 9.17865 4.76528 21.7169 
137 1 4.81317 5.48536 19.6944 
2 1 7.24157 10.5483 9.07081 
3 1 8.93869 7.71748 6.07494 
6 1 8.44383 6.28461 6.73402 
16 1 2.33365 8.70081 0.837047 
22 1 7.14538 6.1943 8.70845 
26 1 7.11513 8.43077 7.54215 
35 1 7.23478 10.5912 10.527 
37 1 6.84282 9.28482 11.006 
39 1 8.22586 8.84984 6.75703 
41 1 6.71501 7.01343 9.83216 
48 1 3.71743 6.35975 0.85691 
61 1 7.23978 10.5365 1.54548 
62 1 8.94751 7.69342 4.54528 
64 1 6.71119 9.25193 1.98489 
68 1 7.41424 6.95592 3.05111 
71 1 4.29279 8.5589 10.7856 
74 1 3.63521 7.797 9.83926 
81 1 8.53916 6.39424 3.77506 
83 1 6.54368 8.44744 0.795559 
93 1 7.21097 10.5987 0.102874 
97 1 8.22597 8.92495 3.83825 
101 1 2.35312 9.95644 10.6469 
103 1 2.33762 8.69774 9.77422 
117 1 7.15074 6.2005 1.8958 
120 1 7.16537 8.43738 3.07423 
123 1 3.72533 6.35343 9.76789 
129 1 6.73681 7.00823 0.781757 
132 1 6.69661 9.27771 8.66028 
135 1 7.31353 7.01248 7.60379 
141 1 7.23799 6.17209 10.9146 
144 1 6.53766 8.45929 9.81306 
148 1 3.63437 7.80726 0.778155 
7 1 9.15905 6.00916 11.8963 
10 1 3.64361 9.77535 21.5985 
13 1 2.35569 9.95354 22.1166 
15 1 2.97736 8.31095 17.9154 
28 1 3.66452 9.77819 20.1473 
30 1 4.38295 8.53072 19.8024 
34 1 4.35145 6.29155 18.6355 
40 1 7.73352 8.40383 11.8777 
49 1 4.79605 7.71157 20.9 
50 1 2.07518 9.2985 18.5062 
58 1 1.54143 10.179 11.841 
59 1 4.12281 7.75807 14.1332 
69 1 3.64628 9.77501 11.1647 
73 1 2.96552 8.30506 14.8452 
75 1 4.98816 6.276 11.8617 
79 1 7.24683 6.16389 21.8613 
82 1 7.89642 6.93304 20.9147 
86 1 3.66107 9.78284 12.6178 
88 1 2.32965 10.0774 13.076 
108 1 9.19442 6.02819 20.8474 
112 1 4.38365 8.53047 12.9657 
115 1 4.34817 6.29503 14.1347 
124 1 4.79656 7.71081 11.8579 
125 1 2.07503 9.2944 14.2554 
126 1 6.84206 9.30709 21.8003 
128 1 7.79371 8.36332 20.844 
139 1 1.54257 10.1812 20.9287 
140 1 4.1257 7.7588 18.6325 
143 1 7.90161 6.95293 11.8636 
146 1 4.29496 8.56057 21.9755 
149 1 4.99136 6.28223 20.8858 
157 1 2.33022 10.0812 19.6866 
ITEM: TIMESTEP
20
ITEM: NUMBER OF ATOMS
161
ITEM: BOX BOUNDS xy xz yz pp pp pp
-6.7755000000000001e+00 1.3552000000000000e+01 -6.7755000000000001e+00
0.0000000000000000e+00 1.1735510246683001e+01 0.0000000000000000e+00
0.0000000000000000e+00 2.2149999999999999e+01 0.0000000000000000e+00
ITEM: ATOMS id type x y z 
8 1 -2.42347 5.38987 9.8702 
87 1 2.94837 4.27167 10.6542 
90 1 2.66126 5.45161 9.7724 
109 1 -2.43006 5.40374 0.777294 
158 1 2.66218 5.45174 0.837364 
11 1 4.27507 4.21712 20.1165 
14 1 2.88738 4.14943 19.7033 
18 1 1.28679 5.84739 18.5809 
33 1 2.09826 4.2684 20.9054 
43 1 4.29054 4.20003 21.5653 
47 1 3.26258 5.78534 17.8353 
52 1 4.28166 4.22436 12.6518 
76 1 2.45394 4.93256 14.1792 
85 1 4.29238 4.20051 11.1976 
89 1 3.26531 5.78524 14.9263 
91 1 0.965665 5.12043 11.8416 
102 1 2.88575 4.14995 13.0638 
105 1 1.28822 5.84921 14.1837 
114 1 2.09493 4.26783 11.859 
150 1 2.45477 4.93123 18.5843 
156 1 2.9511 4.28282 22.1101 
159 1 0.965876 5.12027 20.923 
5 1 -4.91994 10.5643 8.62458 
9 1 -3.28088 8.98928 7.56234 
19 1 -1.74126 7.53081 10.5495 
21 1 -2.57292 8.80947 10.9744 
23 1 -3.18145 7.67423 6.77792 
25 1 -4.11851 10.4635 9.82857 
32 1 1.61731 6.36702 0.7716 
36 1 -1.87692 7.55192 9.07762 
38 1 -2.16204 6.22249 8.68114 
54 1 0.318187 8.49026 10.675 
57 1 1.36626 7.98327 9.79664 
60 1 -1.7677 7.53107 0.0617476 
65 1 -3.29558 7.57916 3.76982 
78 1 -1.8748 7.54989 1.5401 
80 1 -2.5319 8.797 1.90714 
84 1 -4.4487 9.741 3.1103 
99 1 -2.98059 9.60657 0.759061 
100 1 -2.94382 6.28272 3.16501 
107 1 -4.90025 10.5394 2.00176 
110 1 -3.28732 8.86511 3.07318 
111 1 0.615701 5.96601 10.7234 
113 1 1.61606 6.37196 9.84263 
119 1 -4.10833 10.4528 0.795369 
127 1 -2.16206 6.23002 1.97631 
131 1 -2.32593 6.25381 11.041 
138 1 1.36871 7.98343 0.817715 
142 1 -2.53665 8.81829 8.72937 
145 1 -4.50501 9.76355 7.48276 
151 1 -4.96497 10.3906 11.0422 
154 1 -2.97564 9.62644 9.86746 
155 1 -2.84163 6.16459 7.41241 
161 2 -1.8656 7.38482 6.65712 
12 1 2.56142 7.07759 17.1571 
17 1 0.411478 9.32186 20.913 
24 1 -3.51465 8.34073 11.8617 
27 1 -0.245034 7.19162 21.6339 
29 1 0.613652 5.96728 22.0388 
31 1 1.27929 7.17882 17.894 
44 1 -0.135705 7.15974 20.1421 
46 1 0.142164 8.49467 19.7139 
51 1 -0.250578 7.18731 11.1289 
53 1 2.56057 7.07546 15.6062 
56 1 1.28147 7.17843 14.8661 
63 1 -2.33614 6.22849 21.7485 
66 1 -3.38643 6.744 20.8717 
70 1 -0.134467 7.1609 12.6239 
72 1 0.529028 5.93205 12.9711 
92 1 0.914676 8.45453 14.2452 
95 1 -4.96722 10.4497 21.733 
98 1 -4.68011 9.27327 20.8466 
104 1 0.412075 9.31867 11.8502 
116 1 -2.63983 8.76076 21.8012 
118 1 -3.63247 8.36046 20.9207 
122 1 0.141108 8.49411 13.0468 
133 1 -3.31555 6.82452 11.9195 
136 1 0.316267 8.49088 22.0909 
147 1 0.528873 5.93101 19.7932 
153 1 -4.67209 9.18581 11.8934 
160 1 0.914007 8.45501 18.5193 
1 1 7.8156 4.9475 10.5082 
4 1 9.13637 4.83612 11.0424 
20 1 7.8405 4.95805 9.05948 
42 1 9.52619 5.43713 7.48364 
67 1 9.97171 4.57342 0.770843 
77 1 7.85039 4.93032 0.0957107 
94 1 7.84284 4.94708 1.54833 
96 1 9.17315 4.6788 1.9994 
121 1 4.64963 5.49881 10.6854 
130 1 9.45695 5.46348 3.17423 
134 1 9.96155 4.58002 9.86226 
152 1 9.19242 4.67632 8.61408 
45 1 4.64614 5.49793 22.0721 
55 1 4.81088 5.5072 13.0627 
106 1 9.16237 4.80085 21.7504 
137 1 4.81917 5.50381 19.7027 
2 1 7.25673 10.5151 9.06979 
3 1 8.93865 7.72275 6.06584 
6 1 8.43104 6.30278 6.7361 
16 1 2.36044 8.69141 0.856294 
22 1 7.1249 6.19589 8.68789 
26 1 7.12162 8.41182 7.53146 
35 1 7.2605 10.5373 10.5196 
37 1 6.84936 9.22681 11.0377 
39 1 8.23204 8.85545 6.76295 
41 1 6.7017 6.99707 9.83883 
48 1 3.68793 6.34035 0.818473 
61 1 7.27347 10.4943 1.57655 
62 1 8.94903 7.69351 4.5147 
64 1 6.7137 9.22285 1.98756 
68 1 7.39484 6.94639 3.06017 
71 1 4.31663 8.51927 10.7471 
74 1 3.58302 7.79217 9.81321 
81 1 8.51927 6.40093 3.79565 
83 1 6.54441 8.4277 0.789873 
93 1 7.23819 10.5313 0.120818 
97 1 8.2254 8.93312 3.87003 
101 1 2.37122 9.9262 10.6719 
103 1 2.36391 8.68701 9.7566 
117 1 7.11684 6.18119 1.90041 
120 1 7.18164 8.42447 3.07982 
123 1 3.6863 6.34861 9.79643 
129 1 6.7204 6.98939 0.777859 
132 1 6.69337 9.23781 8.65493 
135 1 7.3009 6.98135 7.60348 
141 1 7.21652 6.19218 10.9068 
144 1 6.5292 8.42986 9.81305 
148 1 3.58578 7.79688 0.8015 
7 1 9.06735 6.02835 11.8885 
10 1 3.68215 9.78385 21.5911 
13 1 2.3723 9.92445 22.09 
15 1 3.02481 8.33426 17.8968 
28 1 3.69781 9.7803 20.1412 
30 1 4.41924 8.54252 19.7898 
34 1 4.3299 6.29669 18.6136 
40 1 7.75269 8.38508 11.8755 
49 1 4.81635 7.73116 20.9149 
50 1 2.08139 9.2739 18.5117 
58 1 1.55968 10.1494 11.849 
59 1 4.13521 7.76724 14.1402 
69 1 3.68495 9.78738 11.1701 
73 1 3.02057 8.33616 14.8675 
75 1 4.99028 6.29207 11.8658 
79 1 7.21471 6.2053 21.8303 
82 1 7.94793 6.93326 20.8878 
86 1 3.69787 9.78206 12.6241 
88 1 2.36111 10.0525 13.0646 
108 1 9.17182 6.03475 20.8323 
112 1 4.42142 8.54413 12.9741 
115 1 4.33288 6.28801 14.1429 
124 1 4.81863 7.73198 11.8504 
125 1 2.08134 9.27348 14.252 
126 1 6.88674 9.22727 21.7677 
128 1 7.84846 8.3756 20.8708 
139 1 1.56284 10.1499 20.9174 
140 1 4.13539 7.77065 18.6269 
143 1 7.92441 6.92093 11.8834 
146 1 4.32003 8.51896 22.0104 
149 1 4.98903 6.29669 20.9062 
157 1 2.36277 10.0524 19.6987 
ITEM: TIMESTEP
30
ITEM: NUMBER OF ATOMS
161
ITEM: BOX BOUNDS xy xz yz pp pp pp
-6.7755000000000001e+00 1.3552000000000000e+01 -6.7755000000000001e+00
0.0000000000000000e+00 1.1735510246683001e+01 0.0000000000000000e+00
0.0000000000000000e+00 2.2149999999999999e+01 0.0000000000000000e+00
ITEM: ATOMS id type x y z 
8 1 -2.43998 5.4136 9.88188 
87 1 2.95215 4.28364 10.6525 
90 1 2.64315 5.43673 9.76124 
109 1 -2.43918 5.41897 0.77983 
158 1 2.64465 5.43628 0.852119 
11 1 4.26992 4.23467 20.114 
14 1 2.87448 4.15451 19.7109 
18 1 1.29179 5.84998 18.5677 
33 1 2.0833 4.27719 20.9038 
43 1 4.28145 4.22438 21.5518 
47 1 3.24349 5.79806 17.8261 
52 1 4.26978 4.23393 12.6493 
76 1 2.43526 4.9316 14.1838 
85 1 4.28149 4.22439 11.2151 
89 1 3.24409 5.79798 14.938 
91 1 0.952529 5.12837 11.8416 
102 1 2.87627 4.15469 13.0527 
105 1 1.29239 5.84938 14.1959 
114 1 2.08236 4.27621 11.86 
150 1 2.43617 4.93201 18.5805 
156 1 2.95204 4.2836 22.1097 
159 1 0.951838 5.1287 20.9225 
5 1 -4.90865 10.5419 8.62963 
9 1 -3.27182 8.98729 7.55335 
19 1 -1.73765 7.55148 10.5465 
21 1 -2.54776 8.81488 10.9799 
23 1 -3.17778 7.6841 6.76436 
25 1 -4.1112 10.4491 9.82466 
32 1 1.5968 6.37946 0.788981 
36 1 -1.86996 7.56913 9.07788 
38 1 -2.16409 6.23491 8.68343 
54 1 0.322539 8.48255 10.6754 
57 1 1.37079 7.9816 9.79152 
60 1 -1.76687 7.54078 0.0524858 
65 1 -3.29715 7.57027 3.77253 
78 1 -1.8553 7.55797 1.53988 
80 1 -2.50171 8.80857 1.90749 
84 1 -4.44557 9.7349 3.12255 
99 1 -2.96798 9.60489 0.752323 
100 1 -2.94219 6.30055 3.168 
107 1 -4.88189 10.5265 1.99329 
110 1 -3.27263 8.85908 3.0881 
111 1 0.600409 5.96066 10.7158 
113 1 1.59752 6.37927 9.82555 
119 1 -4.09697 10.4437 0.796411 
127 1 -2.15396 6.24438 1.97437 
131 1 -2.33178 6.26718 11.0378 
138 1 1.37051 7.98145 0.82075 
142 1 -2.5198 8.82142 8.72679 
145 1 -4.49177 9.75435 7.49113 
151 1 -4.95658 10.3706 11.0393 
154 1 -2.95728 9.62699 9.87248 
155 1 -2.82961 6.17445 7.40359 
161 2 -1.87127 7.35339 6.64133 
12 1 2.56542 7.07624 17.1521 
17 1 0.419957 9.30166 20.9066 
24 1 -3.49519 8.33858 11.8712 
27 1 -0.247729 7.17948 21.6354 
29 1 0.598901 5.96266 22.0464 
31 1 1.28042 7.18311 17.8964 
44 1 -0.147512 7.14837 20.1394 
46 1 0.139161 8.4775 19.7167 
51 1 -0.252674 7.17301 11.1283 
53 1 2.56581 7.07548 15.6108 
56 1 1.28134 7.1833 14.8671 
63 1 -2.33969 6.23857 21.7485 
66 1 -3.38873 6.74411 20.869 
70 1 -0.14722 7.14839 12.6244 
72 1 0.517182 5.92673 12.9762 
92 1 0.917487 8.44275 14.2445 
95 1 -4.96655 10.4404 21.7333 
98 1 -4.66359 9.29372 20.8388 
104 1 0.420494 9.30118 11.8569 
116 1 -2.62073 8.76351 21.7924 
118 1 -3.61507 8.3494 20.901 
122 1 0.138353 8.47735 13.0475 
133 1 -3.32181 6.8243 11.929 
136 1 0.321746 8.48429 22.0897 
147 1 0.51712 5.92665 19.7878 
153 1 -4.65961 9.17122 11.9031 
160 1 0.918001 8.44189 18.5189 
1 1 7.78748 4.9442 10.4983 
4 1 9.11002 4.84698 11.0324 
20 1 7.82751 4.95454 9.04924 
42 1 9.5309 5.45543 7.48842 
67 1 9.95984 4.58843 0.776567 
77 1 7.82741 4.92846 0.0879249 
94 1 7.8238 4.94138 1.55151 
96 1 9.15643 4.69293 1.99894 
121 1 4.64386 5.50621 10.6884 
130 1 9.44846 5.46805 3.17242 
134 1 9.95622 4.60383 9.86868 
152 1 9.18005 4.69329 8.6228 
45 1 4.6425 5.50519 22.0747 
55 1 4.81779 5.52714 13.0639 
106 1 9.14059 4.81672 21.7625 
137 1 4.81772 5.5266 19.6982 
2 1 7.26544 10.4939 9.06291 
3 1 8.94158 7.72383 6.07804 
6 1 8.42922 6.3083 6.73086 
16 1 2.36726 8.70279 0.868082 
22 1 7.10198 6.19158 8.68468 
26 1 7.11777 8.40331 7.52548 
35 1 7.26224 10.5125 10.516 
37 1 6.85669 9.21376 11.0401 
39 1 8.22899 8.85448 6.76011 
41 1 6.68341 6.99471 9.83297 
48 1 3.70498 6.35412 0.840383 
61 1 7.27913 10.4797 1.5798 
62 1 8.93965 7.70914 4.51872 
64 1 6.70829 9.20284 1.98672 
68 1 7.38618 6.93915 3.06716 
71 1 4.32397 8.51775 10.7397 
74 1 3.59101 7.80965 9.79906 
81 1 8.51615 6.40714 3.7966 
83 1 6.54202 8.4084 0.795891 
93 1 7.24968 10.5074 0.133458 
97 1 8.21669 8.9381 3.87807 
101 1 2.39427 9.90943 10.6868 
103 1 2.36749 8.70232 9.74609 
117 1 7.09276 6.17705 1.91276 
120 1 7.18006 8.41252 3.09319 
123 1 3.70255 6.35253 9.7745 
129 1 6.70507 6.98418 0.776467 
132 1 6.69237 9.22349 8.65431 
135 1 7.28651 6.97785 7.58902 
141 1 7.20133 6.19523 10.9136 
144 1 6.52327 8.41955 9.81944 
148 1 3.59089 7.81009 0.814494 
7 1 9.0705 6.03433 11.896 
10 1 3.70189 9.78422 21.5969 
13 1 2.39492 9.91024 22.0774 
15 1 3.02337 8.33172 17.8863 
28 1 3.7165 9.78233 20.1381 
30 1 4.44337 8.54474 19.7785 
34 1 4.33011 6.31085 18.6123 
40 1 7.75521 8.36987 11.8873 
49 1 4.83191 7.73773 20.9128 
50 1 2.08624 9.26441 18.52 
58 1 1.57313 10.1347 11.8502 
59 1 4.14773 7.7648 14.1372 
69 1 3.70441 9.78747 11.1652 
73 1 3.02252 8.3317 14.8787 
75 1 4.99203 6.31655 11.8665 
79 1 7.20915 6.20802 21.8165 
82 1 7.94261 6.91179 20.8769 
86 1 3.71574 9.7812 12.6253 
88 1 2.38049 10.0358 13.0705 
108 1 9.16569 6.02313 20.822 
112 1 4.44333 8.54564 12.9859 
115 1 4.33094 6.3115 14.1529 
124 1 4.83127 7.73623 11.8505 
125 1 2.08625 9.26464 14.2438 
126 1 6.89351 9.22052 21.7672 
128 1 7.82811 8.37177 20.8502 
139 1 1.57367 10.1347 20.913 
140 1 4.14818 7.76563 18.627 
143 1 7.8984 6.92096 11.8984 
146 1 4.32652 8.51909 22.0245 
149 1 4.99124 6.31548 20.8951 
157 1 2.38044 10.0354 19.6927 
ITEM: TIMESTEP
40
ITEM: NUMBER OF ATOMS
161
ITEM: BOX BOUNDS xy xz yz pp pp pp
-6.7755000000000001e+00 1.3552000000000000e+01 -6.7755000000000001e+00
0.0000000000000000e+00 1.1735510246683001e+01 0.0000000000000000e+00
0.0000000000000000e+00 2.2149999999999999e+01 0.0000000000000000e+00
ITEM: ATOMS id type x y z 
8 1 -2.47382 5.46575 9.88873 
87 1 2.92645 4.31894 10.645 
90 1 2.62619 5.45668 9.7364 
109 1 -2.46249 5.46167 0.785096 
158 1 2.62119 5.45732 0.88288 
11 1 4.24763 4.28226 20.0899 
14 1 2.84593 4.19294 19.7107 
18 1 1.26389 5.846 18.5535 
33 1 2.06185 4.29689 20.9064 
43 1 4.25844 4.27524 21.5288 
47 1 3.23179 5.80089 17.826 
52 1 4.24914 4.28535 12.6709 
76 1 2.40916 4.93541 14.1939 
85 1 4.25358 4.28369 11.2288 
89 1 3.23259 5.79959 14.9375 
91 1 0.919648 5.14091 11.8281 
102 1 2.84715 4.19061 13.0569 
105 1 1.26272 5.84516 14.2107 
114 1 2.06535 4.29397 11.8505 
150 1 2.40621 4.93526 18.5711 
156 1 2.93766 4.32499 22.1222 
159 1 0.9213 5.14155 20.9382 
5 1 -4.88468 10.4965 8.63626 
9 1 -3.23176 8.97987 7.53326 
19 1 -1.73526 7.58743 10.5542 
21 1 -2.49522 8.83029 11.0009 
23 1 -3.16794 7.71796 6.73591 
25 1 -4.08588 10.4154 9.83524 
32 1 1.58683 6.37895 0.819625 
36 1 -1.84062 7.59073 9.06728 
38 1 -2.16125 6.27343 8.6909 
54 1 0.345648 8.45348 10.6815 
57 1 1.39872 7.97935 9.77415 
60 1 -1.76246 7.56134 0.0386954 
65 1 -3.30637 7.58402 3.78407 
78 1 -1.81962 7.59354 1.53645 
80 1 -2.44392 8.83705 1.91535 
84 1 -4.41891 9.71686 3.13588 
99 1 -2.92423 9.58006 0.745009 
100 1 -2.94105 6.30817 3.15914 
107 1 -4.85292 10.478 1.99095 
110 1 -3.24038 8.85712 3.10024 
111 1 0.571525 5.9533 10.7012 
113 1 1.58795 6.37838 9.79159 
119 1 -4.0719 10.418 0.790101 
127 1 -2.1432 6.28391 1.97316 
131 1 -2.34434 6.30793 11.0491 
138 1 1.39531 7.98178 0.83522 
142 1 -2.47639 8.85051 8.71924 
145 1 -4.46987 9.72897 7.49247 
151 1 -4.93574 10.3189 11.0373 
154 1 -2.9033 9.62783 9.87796 
155 1 -2.79126 6.2098 7.3751 
161 2 -1.88672 7.24279 6.60675 
12 1 2.57388 7.06155 17.1432 
17 1 0.446478 9.25935 20.9044 
24 1 -3.45061 8.34298 11.8988 
27 1 -0.248013 7.1577 21.6446 
29 1 0.572599 5.95998 22.0585 
31 1 1.2815 7.18366 17.889 
44 1 -0.181142 7.12182 20.1394 
46 1 0.125683 8.43913 19.7183 
51 1 -0.247063 7.14842 11.1213 
53 1 2.57425 7.06294 15.6202 
56 1 1.28031 7.18386 14.8761 
63 1 -2.35857 6.26362 21.7525 
66 1 -3.41719 6.74804 20.8538 
70 1 -0.179914 7.11989 12.6269 
72 1 0.479224 5.90523 12.9923 
92 1 0.917255 8.42881 14.2405 
95 1 -4.94637 10.408 21.729 
98 1 -4.64111 9.27036 20.8176 
104 1 0.447559 9.26111 11.8636 
116 1 -2.59055 8.77139 21.7744 
118 1 -3.61142 8.34484 20.8685 
122 1 0.125287 8.43843 13.0473 
133 1 -3.34021 6.83238 11.9489 
136 1 0.340529 8.45412 22.0806 
147 1 0.478975 5.90502 19.7719 
153 1 -4.63521 9.13062 11.924 
160 1 0.917391 8.42942 18.5238 
1 1 7.71915 4.92568 10.4757 
4 1 9.05852 4.88558 11.025 
20 1 7.78441 4.95888 9.03474 
42 1 9.53627 5.49862 7.50034 
67 1 9.92722 4.63738 0.789413 
77 1 7.75873 4.92327 0.08283 
94 1 7.77032 4.9476 1.55086 
96 1 9.108 4.72618 2.00104 
121 1 4.61888 5.54838 10.6862 
130 1 9.4404 5.49854 3.16517 
134 1 9.91883 4.65876 9.88084 
152 1 9.15496 4.74632 8.62567 
45 1 4.61154 5.53949 22.0806 
55 1 4.80952 5.56122 13.0731 
106 1 9.09701 4.85137 21.7783 
137 1 4.80924 5.56192 19.691 
2 1 7.28606 10.442 9.05713 
3 1 8.94495 7.7344 6.08279 
6 1 8.42103 6.30888 6.73041 
16 1 2.3781 8.70606 0.882992 
22 1 7.04278 6.17874 8.65994 
26 1 7.10305 8.3811 7.50982 
35 1 7.28221 10.4611 10.5123 
37 1 6.86769 9.17309 11.0499 
39 1 8.21998 8.85672 6.76175 
41 1 6.64182 6.96671 9.8256 
48 1 3.67487 6.37093 0.881351 
61 1 7.30205 10.4364 1.59941 
62 1 8.92244 7.73616 4.52305 
64 1 6.71022 9.1589 1.99123 
68 1 7.3618 6.9272 3.08537 
71 1 4.33573 8.51594 10.724 
74 1 3.61202 7.81107 9.7751 
81 1 8.50168 6.42139 3.8036 
83 1 6.54096 8.37763 0.791175 
93 1 7.29305 10.4376 0.161136 
97 1 8.21059 8.93575 3.88537 
101 1 2.43409 9.87618 10.7003 
103 1 2.38132 8.7068 9.72827 
117 1 7.03356 6.1541 1.93371 
120 1 7.15954 8.39117 3.1187 
123 1 3.68013 6.36576 9.73911 
129 1 6.67459 6.94746 0.777572 
132 1 6.68523 9.18726 8.6505 
135 1 7.24528 6.95968 7.56245 
141 1 7.15523 6.19983 10.9238 
144 1 6.50363 8.39927 9.82673 
148 1 3.6092 7.81666 0.838659 
7 1 9.05169 6.04892 11.913 
10 1 3.76421 9.78454 21.6002 
13 1 2.43321 9.87809 22.0649 
15 1 3.03634 8.32999 17.8799 
28 1 3.77194 9.77553 20.1375 
30 1 4.50562 8.5639 19.756 
34 1 4.33289 6.33282 18.5888 
40 1 7.75993 8.34741 11.9142 
49 1 4.86331 7.77639 20.9134 
50 1 2.10038 9.24435 18.5251 
58 1 1.60669 10.0891 11.8624 
59 1 4.17187 7.78288 14.1527 
69 1 3.77112 9.79279 11.1582 
73 1 3.03727 8.33014 14.8844 
75 1 4.99899 6.3427 11.8647 
79 1 7.19473 6.20733 21.8004 
82 1 7.92191 6.91422 20.8545 
86 1 3.77034 9.77437 12.6265 
88 1 2.42916 10.0045 13.0725 
108 1 9.15661 6.022 20.8083 
112 1 4.50383 8.56369 13.0068 
115 1 4.33208 6.33145 14.1738 
124 1 4.8591 7.7779 11.8472 
125 1 2.10109 9.24513 14.2388 
126 1 6.91349 9.1807 21.7652 
128 1 7.85123 8.35994 20.8178 
139 1 1.60612 10.0872 20.9021 
140 1 4.17156 7.78179 18.6123 
143 1 7.86035 6.90478 11.9235 
146 1 4.34601 8.51835 22.0452 
149 1 4.99627 6.34982 20.8924 
157 1 2.42987 10.0048 19.6927 
ITEM: TIMESTEP
50
ITEM: NUMBER OF ATOMS
161
ITEM: BOX BOUNDS xy xz yz pp pp pp
-6.7755000000000001e+00 1.3552000000000000e+01 -6.7755000000000001e+00
0.0000000000000000e+00 1.1735510246683001e+01 0.0000000000000000e+00
0.0000000000000000e+00 2.2149999999999999e+01 0.0000000000000000e+00
ITEM: ATOMS id type x y z 
8 1 -2.47868 5.47488 9.8879 
87 1 2.92685 4.32159 10.646 
90 1 2.62531 5.45511 9.72814 
109 1 -2.4674 5.46966 0.788118 
158 1 2.62565 5.45619 0.887063 
11 1 4.24374 4.28914 20.0937 
14 1 2.84393 4.1907 19.7135 
18 1 1.26281 5.84916 18.5522 
33 1 2.05995 4.30129 20.9148 
43 1 4.24947 4.28862 21.5293 
47 1 3.22725 5.79929 17.8307 
52 1 4.24357 4.29021 12.6696 
76 1 2.40025 4.93204 14.1975 
85 1 4.24765 4.28864 11.2332 
89 1 3.22825 5.79885 14.9337 
91 1 0.914297 5.14056 11.8309 
102 1 2.84412 4.18946 13.0504 
105 1 1.26321 5.84879 14.2124 
114 1 2.05956 4.29945 11.8503 
150 1 2.39929 4.93225 18.5665 
156 1 2.92812 4.32336 22.1175 
159 1 0.913464 5.14241 20.9337 
5 1 -4.87831 10.4901 8.63828 
9 1 -3.22418 8.97909 7.52884 
19 1 -1.7324 7.59049 10.5529 
21 1 -2.49176 8.83622 11.0049 
23 1 -3.16976 7.72643 6.72974 
25 1 -4.07932 10.4088 9.83506 
32 1 1.57753 6.38418 0.82223 
36 1 -1.83509 7.59881 9.07045 
38 1 -2.1627 6.27764 8.68582 
54 1 0.353579 8.4498 10.6796 
57 1 1.39675 7.97634 9.77283 
60 1 -1.76252 7.56651 0.0396761 
65 1 -3.30561 7.57866 3.78106 
78 1 -1.81305 7.59832 1.54006 
80 1 -2.43774 8.83772 1.91879 
84 1 -4.41659 9.71002 3.13916 
99 1 -2.9186 9.58432 0.744461 
100 1 -2.94024 6.31642 3.16042 
107 1 -4.84678 10.4748 1.9921 
110 1 -3.23195 8.85972 3.09794 
111 1 0.575525 5.95255 10.6951 
113 1 1.57956 6.3832 9.78993 
119 1 -4.06723 10.4101 0.78755 
127 1 -2.14387 6.28942 1.97153 
131 1 -2.34978 6.31091 11.0527 
138 1 1.39325 7.97718 0.837274 
142 1 -2.46392 8.8532 8.71747 
145 1 -4.46764 9.72382 7.49182 
151 1 -4.934 10.3124 11.0401 
154 1 -2.89537 9.62951 9.88181 
155 1 -2.78953 6.21288 7.37263 
161 2 -1.89556 7.21419 6.60468 
12 1 2.57534 7.06533 17.1468 
17 1 0.450566 9.25283 20.8996 
24 1 -3.44414 8.34141 11.9048 
27 1 -0.250915 7.15264 21.6411 
29 1 0.575941 5.95782 22.0662 
31 1 1.28174 7.18592 17.8896 
44 1 -0.18555 7.1129 20.1348 
46 1 0.126547 8.43679 19.7179 
51 1 -0.247785 7.14459 11.1239 
53 1 2.57556 7.06507 15.6173 
56 1 1.28207 7.18607 14.8747 
63 1 -2.36582 6.2668 21.7495 
66 1 -3.41261 6.74889 20.8533 
70 1 -0.184108 7.11187 12.6294 
72 1 0.475762 5.90278 12.9922 
92 1 0.916465 8.42997 14.2386 
95 1 -4.94037 10.4022 21.7295 
98 1 -4.64358 9.27285 20.8098 
104 1 0.452756 9.2526 11.8662 
116 1 -2.59253 8.76894 21.7682 
118 1 -3.6007 8.34172 20.8663 
122 1 0.126535 8.43643 13.0472 
133 1 -3.33792 6.83724 11.9507 
136 1 0.347682 8.45245 22.0858 
147 1 0.475067 5.90335 19.7728 
153 1 -4.63528 9.12718 11.9284 
160 1 0.916294 8.43008 18.5257 
1 1 7.70866 4.92195 10.4793 
4 1 9.04751 4.89081 11.0236 
20 1 7.78001 4.96395 9.03151 
42 1 9.54194 5.5111 7.50228 
67 1 9.92089 4.64628 0.78788 
77 1 7.74814 4.90208 0.0807707 
94 1 7.76424 4.95136 1.55639 
96 1 9.09738 4.73241 2.00224 
121 1 4.61283 5.55749 10.6854 
130 1 9.43367 5.50299 3.16455 
134 1 9.91306 4.66869 9.87917 
152 1 9.14979 4.75863 8.62306 
45 1 4.6112 5.55914 22.0762 
55 1 4.81161 5.57271 13.0741 
106 1 9.09366 4.85805 21.7816 
137 1 4.81074 5.57269 19.6897 
2 1 7.28769 10.4353 9.05988 
3 1 8.95021 7.73259 6.08649 
6 1 8.42072 6.31075 6.72984 
16 1 2.38676 8.70691 0.886595 
22 1 7.03273 6.17281 8.65555 
26 1 7.10015 8.37905 7.5095 
35 1 7.28929 10.45 10.5091 
37 1 6.86835 9.16879 11.0515 
39 1 8.21815 8.85848 6.7647 
41 1 6.63414 6.96663 9.82591 
48 1 3.67589 6.37072 0.878786 
61 1 7.3048 10.4251 1.60592 
62 1 8.92233 7.73413 4.52181 
64 1 6.70911 9.15467 1.99131 
68 1 7.35509 6.92283 3.0867 
71 1 4.34373 8.51408 10.7218 
74 1 3.6122 7.81463 9.76729 
81 1 8.50169 6.42467 3.80369 
83 1 6.54114 8.37221 0.791458 
93 1 7.2943 10.4355 0.165404 
97 1 8.20999 8.93924 3.88186 
101 1 2.44097 9.87257 10.7025 
103 1 2.38861 8.70779 9.7255 
117 1 7.0266 6.1497 1.93867 
120 1 7.15767 8.38868 3.12304 
123 1 3.67701 6.36813 9.73521 
129 1 6.66737 6.94737 0.779245 
132 1 6.68381 9.17895 8.64978 
135 1 7.23775 6.95601 7.55779 
141 1 7.14723 6.19665 10.9224 
144 1 6.5009 8.39102 9.82407 
148 1 3.60977 7.81616 0.844321 
7 1 9.04491 6.04994 11.917 
10 1 3.77177 9.79206 21.6017 
13 1 2.44153 9.87553 22.0629 
15 1 3.03679 8.32606 17.8816 
28 1 3.7823 9.7744 20.1346 
30 1 4.51364 8.56511 19.7534 
34 1 4.3308 6.33823 18.5873 
40 1 7.76032 8.34382 11.9173 
49 1 4.87012 7.77524 20.9116 
50 1 2.10308 9.24157 18.526 
58 1 1.61248 10.0804 11.8626 
59 1 4.17625 7.78515 14.1541 
69 1 3.77883 9.80611 11.1576 
73 1 3.03683 8.32616 14.8827 
75 1 4.99626 6.34848 11.8659 
79 1 7.18273 6.21525 21.7971 
82 1 7.9222 6.91054 20.8483 
86 1 3.77941 9.77294 12.6296 