LAMMPS (3 Mar 2020)
# Alpha
clear
units		real
dimension 3
boundary        p p p
atom_style	charge
newton on
read_data       H_1.lmp
  orthogonal box = (0 0 0) to (11 11.002 11)
  2 by 2 by 2 MPI processor grid
  reading atoms ...
  49 atoms
  read_data CPU = 0.0062639 secs

timestep 0.25

# ---------- Define Interatomic Potential ---------------------
pair_style      reax/c NULL checkqeq no
pair_coeff      * * ffield.reax C H
WARNING: Changed valency_val to valency_boc for X (../reaxc_ffield.cpp:315)
fix             2 all qeq/reax 1 0.0 10.0 1.0e-6 reax/c

#------------ Equilibration of the system -------------------------
reset_timestep 0

dump 1 all custom 10 min.lammpstrj id type x y z

minimize 1.0e-8 1.0e-8 100000 100000
WARNING: Using 'neigh_modify every 1 delay 0 check yes' setting during minimization (../min.cpp:190)
Neighbor list info ...
  update every 1 steps, delay 0 steps, check yes
  max neighbors/atom: 2000, page size: 100000
  master list distance cutoff = 12
  ghost atom cutoff = 12
  binsize = 6, bins = 2 2 2
  2 neighbor lists, perpetual/occasional/extra = 2 0 0
  (1) pair reax/c, perpetual
      attributes: half, newton off, ghost
      pair build: half/bin/newtoff/ghost
      stencil: half/ghost/bin/3d/newtoff
      bin: standard
  (2) fix qeq/reax, perpetual, copy from (1)
      attributes: half, newton off, ghost
      pair build: copy
      stencil: none
      bin: none
Per MPI rank memory allocation (min/avg/max) = 24.8 | 24.88 | 24.96 Mbytes
Step Temp E_pair E_mol TotEng Press 
       0            0   -8496.1249            0   -8496.1249    114997.02 
     101            0   -8722.8197            0   -8722.8197    47830.222 
Loop time of 15.1294 on 8 procs for 101 steps with 49 atoms

99.8% CPU use with 8 MPI tasks x no OpenMP threads

Minimization stats:
  Stopping criterion = energy tolerance
  Energy initial, next-to-last, final = 
        -8496.12486478     -8722.81971191     -8722.81974189
  Force two-norm initial, final = 1300.77 61.1673
  Force max component initial, final = 530.891 14.3869
  Final line search alpha, max atom move = 1.71035e-06 2.46066e-05
  Iterations, force evaluations = 101 757

MPI task timing breakdown:
Section |  min time  |  avg time  |  max time  |%varavg| %total
---------------------------------------------------------------
Pair    | 11.982     | 12.126     | 12.264     |   2.4 | 80.15
Neigh   | 0          | 0          | 0          |   0.0 |  0.00
Comm    | 0.20205    | 0.33795    | 0.47815    |  14.4 |  2.23
Output  | 0.0010951  | 0.0015842  | 0.0024644  |   1.1 |  0.01
Modify  | 2.6278     | 2.6286     | 2.6308     |   0.1 | 17.37
Other   |            | 0.035      |            |       |  0.23

Nlocal:    6.125 ave 7 max 6 min
Histogram: 7 0 0 0 0 0 0 0 0 1
Nghost:    948.375 ave 953 max 944 min
Histogram: 4 0 0 0 0 0 0 0 1 3
Neighs:    1697.75 ave 1943 max 1660 min
Histogram: 7 0 0 0 0 0 0 0 0 1

Total # of neighbors = 13582
Ave neighs/atom = 277.184
Neighbor list builds = 0
Dangerous builds = 0

###
min_style cg
minimize 1.0e-8 1.0e-8 100000 100000
WARNING: Using 'neigh_modify every 1 delay 0 check yes' setting during minimization (../min.cpp:190)
Per MPI rank memory allocation (min/avg/max) = 24.8 | 24.88 | 24.96 Mbytes
Step Temp E_pair E_mol TotEng Press 
     101            0   -8722.8197            0   -8722.8197    47830.223 
     112            0   -8722.8256            0   -8722.8256    47822.029 
Loop time of 3.58382 on 8 procs for 11 steps with 49 atoms

99.8% CPU use with 8 MPI tasks x no OpenMP threads

Minimization stats:
  Stopping criterion = energy tolerance
  Energy initial, next-to-last, final = 
        -8722.81974173     -8722.82559129     -8722.82562837
  Force two-norm initial, final = 61.1673 70.7581
  Force max component initial, final = 14.3869 22.7082
  Final line search alpha, max atom move = 1.31299e-08 2.98156e-07
  Iterations, force evaluations = 11 190

MPI task timing breakdown:
Section |  min time  |  avg time  |  max time  |%varavg| %total
---------------------------------------------------------------
Pair    | 2.9478     | 3.0097     | 3.0629     |   2.0 | 83.98
Neigh   | 0          | 0          | 0          |   0.0 |  0.00
Comm    | 0.038667   | 0.091517   | 0.15324    |  11.3 |  2.55
Output  | 8.3108e-05 | 0.00016793 | 0.00032119 |   0.0 |  0.00
Modify  | 0.47387    | 0.47401    | 0.47447    |   0.0 | 13.23
Other   |            | 0.008429   |            |       |  0.24

Nlocal:    6.125 ave 7 max 6 min
Histogram: 7 0 0 0 0 0 0 0 0 1
Nghost:    939.375 ave 944 max 934 min
Histogram: 1 3 0 0 0 0 0 0 0 4
Neighs:    1701 ave 1938 max 1664 min
Histogram: 7 0 0 0 0 0 0 0 0 1

Total # of neighbors = 13608
Ave neighs/atom = 277.714
Neighbor list builds = 0
Dangerous builds = 0

###
fix 1 all box/relax aniso 0.0
min_style cg
minimize 1.0e-8 1.0e-8 100000 100000
WARNING: Using 'neigh_modify every 1 delay 0 check yes' setting during minimization (../min.cpp:190)
Per MPI rank memory allocation (min/avg/max) = 24.8 | 24.88 | 24.96 Mbytes
Step Temp E_pair E_mol TotEng Press Volume 
     112            0   -8722.8256            0   -8722.8256    47822.023     1331.242 
     314            0   -8731.2867            0   -8731.2867    1241.4747    1352.0891 
Loop time of 6.79488 on 8 procs for 202 steps with 49 atoms

99.7% CPU use with 8 MPI tasks x no OpenMP threads

Minimization stats:
  Stopping criterion = energy tolerance
  Energy initial, next-to-last, final = 
        -8722.82562948     -8731.28659583     -8731.28666406
  Force two-norm initial, final = 1609.7 61.0702
  Force max component initial, final = 931.477 24.8114
  Final line search alpha, max atom move = 6.41986e-07 1.59286e-05
  Iterations, force evaluations = 202 375

MPI task timing breakdown:
Section |  min time  |  avg time  |  max time  |%varavg| %total
---------------------------------------------------------------
Pair    | 5.7442     | 5.877      | 5.9715     |   2.7 | 86.49
Neigh   | 0          | 0          | 0          |   0.0 |  0.00
Comm    | 0.084863   | 0.1789     | 0.31152    |  15.3 |  2.63
Output  | 0.0016504  | 0.0025831  | 0.0043172  |   1.7 |  0.04
Modify  | 0.69088    | 0.69124    | 0.6921     |   0.0 | 10.17
Other   |            | 0.04514    |            |       |  0.66

Nlocal:    6.125 ave 7 max 6 min
Histogram: 7 0 0 0 0 0 0 0 0 1
Nghost:    939.375 ave 944 max 934 min
Histogram: 1 3 0 0 0 0 0 0 0 4
Neighs:    1701 ave 1938 max 1664 min
Histogram: 7 0 0 0 0 0 0 0 0 1

Total # of neighbors = 13608
Ave neighs/atom = 277.714
Neighbor list builds = 0
Dangerous builds = 0

unfix 1
###
min_style cg
minimize 1.0e-8 1.0e-8 100000 100000
WARNING: Using 'neigh_modify every 1 delay 0 check yes' setting during minimization (../min.cpp:190)
Per MPI rank memory allocation (min/avg/max) = 24.8 | 24.88 | 24.96 Mbytes
Step Temp E_pair E_mol TotEng Press 
     314            0   -8731.2867            0   -8731.2867    1241.4684 
     323            0   -8731.2911            0   -8731.2911    950.50024 
Loop time of 2.52892 on 8 procs for 9 steps with 49 atoms

99.7% CPU use with 8 MPI tasks x no OpenMP threads

Minimization stats:
  Stopping criterion = energy tolerance
  Energy initial, next-to-last, final = 
        -8731.28666532     -8731.29106122     -8731.29112861
  Force two-norm initial, final = 44.1561 45.0303
  Force max component initial, final = 10.1955 9.61211
  Final line search alpha, max atom move = 5.76615e-05 0.000554249
  Iterations, force evaluations = 9 143

MPI task timing breakdown:
Section |  min time  |  avg time  |  max time  |%varavg| %total
---------------------------------------------------------------
Pair    | 2.0515     | 2.0863     | 2.1254     |   1.7 | 82.50
Neigh   | 0          | 0          | 0          |   0.0 |  0.00
Comm    | 0.034556   | 0.073695   | 0.10858    |   9.0 |  2.91
Output  | 0.00011391 | 0.00015791 | 0.00023319 |   0.0 |  0.01
Modify  | 0.36179    | 0.36205    | 0.36244    |   0.0 | 14.32
Other   |            | 0.006711   |            |       |  0.27

Nlocal:    6.125 ave 7 max 6 min
Histogram: 7 0 0 0 0 0 0 0 0 1
Nghost:    901.125 ave 908 max 890 min
Histogram: 1 1 0 0 0 0 3 0 1 2
Neighs:    1687.75 ave 1920 max 1650 min
Histogram: 7 0 0 0 0 0 0 0 0 1

Total # of neighbors = 13502
Ave neighs/atom = 275.551
Neighbor list builds = 0
Dangerous builds = 0

###
fix 1 all box/relax aniso 0.0
min_style cg
minimize 1.0e-8 1.0e-8 100000 100000
WARNING: Using 'neigh_modify every 1 delay 0 check yes' setting during minimization (../min.cpp:190)
Per MPI rank memory allocation (min/avg/max) = 24.8 | 24.88 | 24.96 Mbytes
Step Temp E_pair E_mol TotEng Press Volume 
     323            0   -8731.2911            0   -8731.2911    950.49543    1352.0891 
     327            0   -8731.2925            0   -8731.2925    42.073179    1352.1427 
Loop time of 0.570787 on 8 procs for 4 steps with 49 atoms

99.8% CPU use with 8 MPI tasks x no OpenMP threads

Minimization stats:
  Stopping criterion = energy tolerance
  Energy initial, next-to-last, final = 
        -8731.29112984     -8731.29236767     -8731.29245111
  Force two-norm initial, final = 55.5125 4609.42
  Force max component initial, final = 18.8928 2906.06
  Final line search alpha, max atom move = 1.19798e-07 0.000348141
  Iterations, force evaluations = 4 33

MPI task timing breakdown:
Section |  min time  |  avg time  |  max time  |%varavg| %total
---------------------------------------------------------------
Pair    | 0.48275    | 0.49242    | 0.50218    |   0.9 | 86.27
Neigh   | 0          | 0          | 0          |   0.0 |  0.00
Comm    | 0.0062639  | 0.016038   | 0.025696   |   4.7 |  2.81
Output  | 0          | 0          | 0          |   0.0 |  0.00
Modify  | 0.058609   | 0.058633   | 0.058741   |   0.0 | 10.27
Other   |            | 0.003693   |            |       |  0.65

Nlocal:    6.125 ave 7 max 6 min
Histogram: 7 0 0 0 0 0 0 0 0 1
Nghost:    901.125 ave 908 max 890 min
Histogram: 1 1 0 0 0 0 3 0 1 2
Neighs:    1687.75 ave 1920 max 1650 min
Histogram: 7 0 0 0 0 0 0 0 0 1

Total # of neighbors = 13502
Ave neighs/atom = 275.551
Neighbor list builds = 0
Dangerous builds = 0

unfix 1
###
min_style cg
minimize 1.0e-8 1.0e-8 100000 100000
WARNING: Using 'neigh_modify every 1 delay 0 check yes' setting during minimization (../min.cpp:190)
Per MPI rank memory allocation (min/avg/max) = 24.8 | 24.88 | 24.96 Mbytes
Step Temp E_pair E_mol TotEng Press 
     327            0   -8731.2925            0   -8731.2925    42.071853 
     328            0   -8731.2925            0   -8731.2925     42.07481 
Loop time of 0.600515 on 8 procs for 1 steps with 49 atoms

99.4% CPU use with 8 MPI tasks x no OpenMP threads

Minimization stats:
  Stopping criterion = energy tolerance
  Energy initial, next-to-last, final = 
        -8731.29245105     -8731.29245105     -8731.29245085
  Force two-norm initial, final = 4609.42 44.5777
  Force max component initial, final = 2906.06 9.685
  Final line search alpha, max atom move = 1.02552e-12 9.9322e-12
  Iterations, force evaluations = 1 35

MPI task timing breakdown:
Section |  min time  |  avg time  |  max time  |%varavg| %total
---------------------------------------------------------------
Pair    | 0.51085    | 0.51742    | 0.52308    |   0.7 | 86.16
Neigh   | 0          | 0          | 0          |   0.0 |  0.00
Comm    | 0.0095183  | 0.01523    | 0.021862   |   3.9 |  2.54
Output  | 0          | 0          | 0          |   0.0 |  0.00
Modify  | 0.066179   | 0.066225   | 0.066338   |   0.0 | 11.03
Other   |            | 0.001643   |            |       |  0.27

Nlocal:    6.125 ave 7 max 6 min
Histogram: 7 0 0 0 0 0 0 0 0 1
Nghost:    896.625 ave 905 max 890 min
Histogram: 1 1 2 0 0 0 2 0 1 1
Neighs:    1687.75 ave 1920 max 1650 min
Histogram: 7 0 0 0 0 0 0 0 0 1

Total # of neighbors = 13502
Ave neighs/atom = 275.551
Neighbor list builds = 0
Dangerous builds = 0

undump 1
#############
#----------- Thermo ------------
reset_timestep 0
thermo  200

thermo_style    custom step temp etotal ke pe press
velocity all create 300 12345 mom yes rot yes
fix 1 all npt temp 300 300 25.0 iso 0.0 0.0 250.0

variable vpe equal pe
variable vtemp equal temp
variable vstep equal step

fix output all print 2500 "${vstep} ${vtemp} ${vpe}" file temp-tpdh-Pt.dat screen no

dump 1 all custom 2500 thermo-tpdh-Pt.lammpstrj id type x y z

run 1000000
Per MPI rank memory allocation (min/avg/max) = 23.68 | 23.76 | 23.83 Mbytes
Step Temp TotEng KinEng PotEng Press 
       0          300   -8688.3688    42.923665   -8731.2925    1493.2085 
     200    280.44592    -8689.327    40.125889   -8729.4529    13674.489 
     400    324.02444   -8694.9881    46.361055   -8741.3491   -4241.7122 
     600     309.1997   -8700.7507    44.239947   -8744.9907    8432.4297 
     800    335.80093   -8681.8645    48.046021   -8729.9106   -2279.6338 
    1000    291.31054   -8690.9925    41.680386   -8732.6728    10202.085 
    1200     274.8903   -8695.8855    39.330997   -8735.2165    12658.653 
    1400     323.6012   -8687.5469    46.300498   -8733.8474   -378.59292 
    1600     343.1523   -8684.9312    49.097848   -8734.0291   -21784.298 
    1800    204.29562   -8696.0568    29.230389   -8725.2871   -7034.8866 
    2000    342.93866   -8686.0579     49.06728   -8735.1252    23816.417 
    2200    317.32062   -8693.5888     45.40188   -8738.9907   -34814.598 
    2400    316.18003   -8695.8436    45.238685   -8741.0823    31012.365 
    2600    323.57599   -8678.3145    46.296891   -8724.6114    17135.468 
    2800    284.18438   -8690.0708    40.660783   -8730.7316   -25899.615 
    3000    278.40963   -8698.4931    39.834539   -8738.3276    18558.229 
    3200    246.53457   -8709.1974    35.273891   -8744.4713    6083.0407 
    3400    327.72373   -8689.2966    46.890345   -8736.1869    26136.364 
    3600    272.35341   -8696.3221    38.968022   -8735.2901    739.63212 
    3800    261.48132   -8696.3361    37.412455   -8733.7485    -31991.42 
    4000    287.69113   -8685.0202    41.162525   -8726.1827   -17765.353 
    4200    291.84999   -8699.2619     41.75757   -8741.0195   -48683.507 
    4400    296.97777    -8691.789    42.491247   -8734.2803    35334.809 
    4600    308.78376    -8691.466    44.180436   -8735.6464    33377.682 
    4800    278.74401    -8694.706    39.882381   -8734.5884    9316.6015 
    5000    250.05746   -8703.4022    35.777942   -8739.1801   -4838.8658 
    5200     309.1834   -8686.7518    44.237616   -8730.9894    13352.007 
    5400    279.45076   -8692.0073    39.983502   -8731.9908    4554.0494 
    5600     262.0885   -8699.4957    37.499329    -8736.995   -13447.993 
    5800    310.13644   -8675.5822    44.373975   -8719.9561    31108.039 
    6000    276.81544   -8695.9745    39.606444   -8735.5809   -13388.371 
    6200    309.23468   -8695.3438    44.244952   -8739.5887    8321.1959 
    6400    373.78353   -8688.8814     53.48053   -8742.3619   -2336.7747 
    6600    323.82891    -8683.245    46.333078   -8729.5781    20937.747 
    6800    260.56769   -8696.7335    37.281734   -8734.0152    33418.242 
    7000    243.52501   -8698.9436    34.843286   -8733.7869    23306.779 
    7200    310.68793   -8684.3294    44.452882   -8728.7822   -57486.226 
    7400     291.8058    -8697.669    41.751248   -8739.4202    8059.7064 
    7600     272.2446    -8699.534    38.952454   -8738.4865     19930.27 
    7800    338.84543   -8676.5248    48.481625   -8725.0064    3968.7934 
    8000    317.91055   -8689.2371    45.486286   -8734.7234    3192.5353 
    8200     303.1371   -8700.0906    43.372518   -8743.4632   -4664.3076 
    8400    261.68342   -8704.9874    37.441371   -8742.4288   -10695.579 
    8600    322.73929   -8686.8538    46.177177    -8733.031    10525.178 
    8800    336.03993   -8694.4641    48.080217   -8742.5443   -3298.7915 
    9000    296.18071   -8702.0597    42.377206   -8744.4369   -31710.858 
    9200    351.28998   -8683.1299    50.262178   -8733.3921    64023.471 
    9400    316.13199   -8688.5259    45.231812   -8733.7577        22634 
    9600    237.25271   -8701.1157    33.945852   -8735.0615   -45589.656 
    9800    292.64862   -8682.1335    41.871838   -8724.0053    -57154.67 
   10000    333.43453   -8688.0568     47.70744   -8735.7643    26839.536 
   10200    349.93159   -8692.5698     50.06782   -8742.6376   -15806.082 
   10400    259.42288   -8710.9813    37.117936   -8748.0992    -49155.68 
   10600    347.90317   -8696.9603    49.777597   -8746.7379    26263.882 
   10800    298.38503   -8686.4793    42.692597   -8729.1719   -30329.064 
   11000    279.22505   -8697.9057    39.951209   -8737.8569   -5463.9591 
   11200    289.16157   -8698.2055    41.372914   -8739.5784   -1860.1955 
   11400    317.84421   -8686.8959    45.476794   -8732.3727    16358.635 
   11600    319.34855   -8692.9371    45.692034   -8738.6291   -49536.532 
   11800    229.11956   -8706.6303     32.78217   -8739.4124    -7449.756 
   12000    274.48584   -8691.9098    39.273127   -8731.1829    16234.859 
   12200    345.32528   -8686.2172    49.408755    -8735.626    16070.377 
   12400    291.28705   -8703.2192    41.677025   -8744.8962   -30025.833 
   12600    293.01356   -8696.8384    41.924053   -8738.7624    34106.436 
   12800    322.73012   -8688.3976    46.175865   -8734.5734    21563.858 
   13000    261.31805   -8697.4796    37.389095   -8734.8687    8572.9832 
   13200    241.49706     -8704.13    34.553129   -8738.6831   -14616.194 
   13400    280.44925   -8685.8691    40.126365   -8725.9955    34156.549 
   13600     290.7643   -8694.1536    41.602231   -8735.7558   -23287.837 
   13800    242.67167   -8702.6302    34.721192   -8737.3514   -35631.012 
   14000    331.38323   -8683.0326    47.413942   -8730.4466   -2874.1275 
   14200    216.05209   -8696.8502    30.912491   -8727.7627     30648.26 
   14400    252.00362   -8697.3956    36.056396    -8733.452     13286.24 
   14600    341.34572   -8679.2895    48.839364   -8728.1289    15930.012 
   14800    280.70267   -8690.1152    40.162624   -8730.2779    12278.134 
   15000    301.48707   -8698.5638    43.136433   -8741.7002   -8934.7173 
   15200    266.86843   -8697.7967    38.183237   -8735.9799   -32410.704 
   15400    348.81614   -8685.1125    49.908223   -8735.0207   -2182.3836 
   15600    247.39756   -8700.6438    35.397366   -8736.0412    15651.457 
   15800    317.58357   -8697.0212    45.439502   -8742.4607   -24204.537 
   16000    285.13872   -8694.8346     40.79733    -8735.632     26295.42 
   16200    334.10052   -8679.9889    47.802729   -8727.7916     31314.18 
   16400    258.37567   -8689.0167    36.968102   -8725.9848    32894.751 
   16600    291.40486   -8696.9107    41.693881   -8738.6045    6105.7582 
   16800    293.07212   -8693.7845    41.932432    -8735.717     34927.67 
   17000    362.15158   -8683.5646    51.816243   -8735.3808   -35376.572 
   17200    282.48139   -8696.6011    40.417122   -8737.0182    49447.241 
   17400    315.72003   -8693.9713    45.172869   -8739.1442    24773.263 
   17600    333.38565   -8680.4802    47.700446   -8728.1806    25190.521 
   17800     316.1794   -8687.0777    45.238595   -8732.3163    5416.7202 
   18000    295.41648   -8696.2462     42.26786   -8738.5141   -15122.336 
   18200    312.42484   -8685.5189    44.701398   -8730.2203    3176.6266 
   18400    329.65246   -8688.6919    47.166305   -8735.8582   -6174.6532 
   18600    284.91847   -8698.5824    40.765816   -8739.3482    6542.5136 
   18800     289.5571   -8685.9099    41.429506   -8727.3394    48513.439 
   19000    369.36014   -8680.2316    52.847635   -8733.0792   -12463.837 
   19200    284.26496   -8693.5395    40.672313   -8734.2118    15210.899 
   19400    268.93041   -8695.8538    38.478263    -8734.332    38646.297 
   19600    341.36592   -8686.9116    48.842255   -8735.7539    198.95717 
   19800    320.43649   -8689.5999    45.847695   -8735.4476    2779.7321 
   20000    279.06025   -8702.8717    39.927629   -8742.7993    18672.791 
   20200    293.60844    -8692.642    42.009168   -8734.6511   -21169.179 
   20400    301.35735    -8681.077    43.117873   -8724.1948    36064.421 
   20600    290.77129   -8685.4577    41.603231   -8727.0609   -47634.441 
   20800    304.73994   -8701.5981     43.60185   -8745.1999   -31480.461 
   21000    286.01901   -8692.3313     40.92328   -8733.2546    9865.7505 
   21200     317.1312   -8683.1858    45.374777   -8728.5606    5872.7226 
   21400    294.35949   -8701.5038    42.116626   -8743.6204    -20314.59 
   21600    265.56935   -8698.8531    37.997366   -8736.8505   -17318.239 
   21800    284.99005   -8688.8042    40.776058   -8729.5803    23917.977 
   22000    275.84857   -8703.6724    39.468105   -8743.1405   -29227.254 
   22200    342.83372   -8695.4425    49.052265   -8744.4948   -13456.005 
   22400    343.32924   -8678.6037    49.123164   -8727.7269   -31081.579 
   22600    338.42226   -8687.5368    48.421079   -8735.9579    10190.698 
   22800    261.67341   -8693.7816    37.439938   -8731.2215    7417.0205 
   23000     268.1466   -8707.2053    38.366116   -8745.5715   -6339.6923 
   23200    286.95207   -8690.9969    41.056782   -8732.0537    23406.167 
   23400    308.02153   -8690.4439    44.071376   -8734.5153    16717.422 
   23600    303.08201   -8698.7875    43.364636   -8742.1521    1365.9985 
   23800    304.69226   -8684.0893    43.595029   -8727.6843    24488.005 
   24000    231.77143   -8692.0735    33.161598   -8725.2351   -42168.191 
   24200    284.57366   -8699.7294    40.716482   -8740.4459    7989.4922 
   24400    306.08908   -8679.8533    43.794884   -8723.6482      9212.03 
   24600    317.76502   -8687.1039    45.465463   -8732.5694   -41396.492 
   24800    272.48311   -8696.5064    38.986578    -8735.493   -11587.655 
   25000    344.93792   -8685.9823    49.353332   -8735.3356     16966.82 
   25200    313.85048   -8686.0131    44.905377   -8730.9184   -13106.727 
   25400    298.77845   -8694.1617    42.748887   -8736.9106   -51725.432 
   25600    310.33357   -8687.8638    44.402181    -8732.266    27308.297 
   25800     267.9231   -8694.5351    38.334138   -8732.8693   -26299.069 
   26000    238.06667   -8699.2134    34.062313   -8733.2757    7085.2045 
   26200    351.38542   -8684.2294    50.275833   -8734.5053   -5371.4746 
   26400    292.84372   -8698.7607    41.899752   -8740.6605   -37452.665 
   26600    281.58537      -8699.6    40.288921   -8739.8889   -20009.209 
   26800    268.23748   -8693.3536    38.379119   -8731.7327    26951.071 
   27000    281.47624   -8681.6849    40.273306   -8721.9582   -45036.725 
   27200    303.23986   -8695.7185     43.38722   -8739.1058    22803.854 
   27400    281.40247   -8694.9657    40.262751   -8735.2284   -26061.253 
   27600    352.34166   -8684.2183    50.412651   -8734.6309    50749.475 
   27800    307.59363   -8695.3077    44.010152   -8739.3178    8891.0654 
   28000    293.21508   -8684.4321    41.952885    -8726.385   -7019.2067 
   28200    295.01408   -8686.7326    42.210285   -8728.9429   -31108.458 
   28400    267.83721   -8698.2842    38.321848    -8736.606    24842.345 
   28600    385.15957   -8683.8517    55.108201   -8738.9599   -1887.7869 
   28800    291.42183    -8687.435     41.69631   -8729.1313   -50521.977 
   29000      315.472   -8694.3487    45.137381    -8739.486    15540.906 
   29200    274.98492   -8701.1777    39.344535   -8740.5222    2675.0144 
   29400    346.72107   -8685.2382    49.608463   -8734.8467    4294.1304 
   29600    299.42735    -8690.945     42.84173   -8733.7867   -43074.304 
   29800    252.26697   -8700.2626    36.094077   -8736.3567    2104.7256 
   30000    282.84802   -8693.1308    40.469579   -8733.6004    4090.0182 
   30200    329.17841   -8691.5085    47.098479    -8738.607    1303.5516 
   30400    248.02727   -8709.3013    35.487464   -8744.7888    19561.849 
   30600    326.06014   -8696.8983     46.65232   -8743.5507    22965.894 
   30800    323.56927   -8688.4708     46.29593   -8734.7667   -7942.1497 
   31000    365.94093   -8672.9683    52.358419   -8725.3267   -64566.006 
   31200    293.82766   -8695.2308    42.040533   -8737.2713   -45668.242 
   31400    328.75605   -8688.2149    47.038049    -8735.253     14381.41 
   31600    303.44485    -8693.446     43.41655   -8736.8626   -8477.8738 
   31800    271.54352   -8701.9036    38.852143   -8740.7558   -25798.961 
   32000    308.95515    -8689.272    44.204957    -8733.477   -4570.3828 
   32200    295.29084   -8689.5063    42.249884   -8731.7562     20567.26 
   32400    273.95543   -8702.2247    39.197237   -8741.4219   -42074.479 
   32600      276.601    -8699.363    39.575762   -8738.9388    27982.884 
   32800    316.23448   -8693.9389    45.246475   -8739.1854   -29787.498 
   33000    313.45293   -8683.6465    44.848495    -8728.495   -45436.332 
   33200    323.10992   -8691.9214    46.230206   -8738.1516    30949.281 
   33400    300.14354   -8696.9689    42.944202   -8739.9131   -4914.1398 
   33600    336.86513   -8687.8822    48.198287   -8736.0805     44022.45 
   33800    355.44182   -8676.1478    50.856218    -8727.004   -3126.5447 
   34000    267.91353   -8696.4924    38.332768   -8734.8251   -8552.2814 
   34200    241.86152   -8693.2196    34.605276   -8727.8249    4878.4233 
   34400    307.25922   -8684.9857    43.962306    -8728.948   -31550.662 
   34600    305.70238    -8693.329    43.739554   -8737.0686    73537.518 
   34800    370.20963   -8693.9127    52.969181   -8746.8819   -24711.668 
   35000    292.69284   -8694.6607    41.878165   -8736.5389    67920.305 
   35200    325.86532   -8688.7063    46.624446   -8735.3308   -47550.585 
   35400    332.51675   -8681.0517    47.576125   -8728.6278    7714.9304 
   35600     259.7611   -8697.1399    37.166328   -8734.3062    35676.245 
   35800    292.33892   -8691.6708    41.827527   -8733.4983    9549.7355 
   36000    314.85069   -8682.4146    45.048484   -8727.4631   -7408.2057 
   36200    248.04734   -8694.7707    35.490336    -8730.261    12033.663 
   36400    294.32876   -8695.0888    42.112229    -8737.201   -31135.085 
   36600    289.53035    -8682.182    41.425678   -8723.6077   -3865.3549 
   36800    304.71788   -8693.7612    43.598694   -8737.3599    12073.126 
   37000    266.90083   -8698.6539    38.187872   -8736.8417     13027.61 
   37200    293.88344   -8681.6693    42.048514   -8723.7178    38165.237 
   37400    342.71149   -8673.1802    49.034777    -8722.215   -15207.418 
   37600    310.41514   -8693.0482    44.413851   -8737.4621   -25163.253 
   37800    339.22704   -8695.4272    48.536226   -8743.9634   -8202.9844 
   38000    353.30744   -8682.7277    50.550833   -8733.2785    2932.7632 
   38200    334.13101   -8689.2316    47.807092   -8737.0387   -6200.2442 
   38400    321.12741   -8699.1973    45.946551   -8745.1438     14709.76 
   38600    306.57415   -8686.6727    43.864286    -8730.537    26342.621 
   38800    299.27475     -8683.82    42.819897   -8726.6399    21767.362 
   39000    274.66867   -8694.4268    39.299286   -8733.7261    25665.079 
   39200    275.98963   -8695.5456    39.488288   -8735.0339    25687.123 
   39400    294.79133   -8685.6743    42.178415   -8727.8528   -58859.024 
   39600    367.07228   -8681.0647    52.520292    -8733.585    29924.889 
   39800    275.13569   -8698.5507    39.366108   -8737.9168    1779.5914 
   40000     334.4805   -8689.5879    47.857096    -8737.445    25404.918 
   40200    327.08102   -8684.9871    46.798386   -8731.7855   -24902.714 
   40400    279.79225   -8704.0068    40.032363   -8744.0391   -46240.246 
   40600    272.27933   -8693.1889    38.957422   -8732.1463     42658.61 
   40800    290.66937   -8684.2544    41.588648   -8725.8431    7960.6342 
   41000    315.04637   -8698.0805    45.076482    -8743.157    28188.356 
   41200    340.85094   -8697.5518    48.768571   -8746.3204    8505.4691 
   41400    324.10558   -8686.8854    46.372664   -8733.2581   -17346.984 
   41600    269.73491   -8704.6698     38.59337   -8743.2631    8775.5325 
   41800    267.54335   -8692.2201    38.279804   -8730.4999   -7139.9628 
   42000    286.15325   -8692.7204    40.942487   -8733.6629    -552.1677 
   42200    230.65746   -8710.7435    33.002211   -8743.7457    29840.232 
   42400    270.50367   -8701.8709    38.703362   -8740.5743   -20668.625 
   42600     283.5507   -8694.2305    40.570118   -8734.8007    48101.808 
   42800    334.49325   -8682.9794    47.858921   -8730.8383   -33372.288 
   43000    305.81091   -8678.4755    43.755083   -8722.2306   -9304.8694 
   43200    276.86764   -8696.5415    39.613913   -8736.1554    22785.843 
   43400    249.87458   -8699.2843    35.751776   -8735.0361    2931.3612 
   43600     292.6238   -8683.5856    41.868287   -8725.4539    20782.863 
   43800    304.61289   -8689.7648    43.583673   -8733.3485   -13752.007 
   44000    271.77724   -8696.5731    38.885584   -8735.4587    51083.094 
   44200    321.67291   -8686.1701    46.024601   -8732.1947   -23018.021 
   44400    365.12083   -8676.1916     52.24108   -8728.4326    45984.325 
   44600    276.88727   -8693.9377    39.616722   -8733.5544   -6654.1233 
   44800    277.97661   -8695.0646    39.772582   -8734.8372    8144.4538 
   45000    296.77125    -8703.123    42.461699   -8745.5846    9444.1177 
   45200     346.3923   -8688.6378    49.561424   -8738.1992     7210.347 
   45400    256.92031   -8692.3149     36.75987   -8729.0747   -14061.381 
   45600    223.48887   -8704.0314    31.976537    -8736.008   -796.90897 
   45800    316.52526   -8698.4825    45.288081   -8743.7706   -25480.768 
   46000     332.7605    -8686.793    47.611001    -8734.404   -188.24534 
   46200     299.6188   -8698.2172    42.869123   -8741.0864    10462.619 
   46400    286.18477   -8700.5654    40.946997   -8741.5124    41251.138 
   46600     340.0133     -8688.06    48.648723   -8736.7087   -26413.593 
   46800    279.66089   -8691.7329    40.013567   -8731.7465   -36404.787 
   47000    248.78992   -8705.8797    35.596584   -8741.4763     55919.59 
   47200    307.08345    -8688.711    43.937157   -8732.6482   -7592.1935 
   47400    276.94985   -8692.7181    39.625675   -8732.3438   -21527.871 
   47600    278.70761   -8701.2675    39.877174   -8741.1447    32635.965 
   47800    339.80201   -8685.6111    48.618491   -8734.2296    8586.3893 
   48000    286.95143   -8688.3089     41.05669   -8729.3656   -11375.835 
   48200     247.0375   -8705.2139    35.345849   -8740.5598   -471.65125 
   48400    257.31585   -8700.3656    36.816464    -8737.182    5392.0584 
   48600    298.83668   -8686.6246    42.757218   -8729.3818   -10195.284 
   48800    282.98912   -8693.6849    40.489768   -8734.1747    2137.7332 
   49000    279.98557   -8697.3987    40.060022   -8737.4587    30931.133 
   49200    359.86515   -8686.7813    51.489103   -8738.2705    5903.8471 
   49400    265.77281   -8697.3685    38.026477    -8735.395   -14058.036 
   49600    333.43929   -8696.0624    47.708121   -8743.7706    28115.064 
   49800    416.37106   -8679.0814    59.573906   -8738.6553    -16857.55 
   50000    334.69807   -8689.9546    47.888226   -8737.8428    5646.7107 
   50200    292.20709   -8698.3807    41.808664   -8740.1894    350.22197 
   50400    299.76794   -8698.2318    42.890462   -8741.1223   -13168.528 
   50600     288.6208   -8685.6914    41.295541    -8726.987    -24805.54 
   50800    327.83201   -8684.7461    46.905838   -8731.6519    68.451012 
   51000    268.32832   -8697.6004    38.392116   -8735.9925    17625.695 
   51200    296.13442   -8687.5646    42.370582   -8729.9352    8734.9673 
   51400    301.63798   -8686.4089    43.158025   -8729.5669    13939.495 
   51600    264.16952   -8702.4614     37.79708   -8740.2584    5045.5971 
   51800    261.04607   -8690.5409     37.35018    -8727.891   -33057.102 
   52000    292.85644   -8677.4635    41.901572    -8719.365    17118.592 
   52200    292.49207   -8695.8473    41.849439   -8737.6967     21178.75 
   52400    271.29818   -8696.9237     38.81704   -8735.7408    13245.559 
   52600    389.49319    -8679.676     55.72825   -8735.4043   -6053.1764 
   52800    325.22667   -8690.6625    46.533068   -8737.1955    18617.194 
   53000    264.27866   -8703.9322    37.812696   -8741.7449   -26690.002 
   53200     234.5844   -8711.0153    33.564074   -8744.5794   -19878.186 
   53400    288.45432    -8695.209    41.271722   -8736.4807    30181.623 
   53600    320.32483   -8684.8935    45.831718   -8730.7252    36125.309 
   53800    287.94655   -8698.9485     41.19907   -8740.1476    7851.7469 
   54000    294.52404   -8697.1805    42.140171   -8739.3206   -1066.8192 
   54200    341.04953   -8687.2838    48.796986   -8736.0808    4905.7673 
   54400    226.50622   -8702.2241    32.408257   -8734.6323     13915.26 
   54600    356.71012   -8690.4261    51.037685   -8741.4638    11516.245 
   54800    343.83457   -8690.1936    49.195466   -8739.3891   -17976.584 
   55000    312.99033   -8699.6044    44.782307   -8744.3867    7925.1429 
   55200     263.8546   -8706.2389    37.752021   -8743.9909   -7848.1088 
   55400    329.53304   -8690.0034    47.149219   -8737.1526    31396.232 
   55600     270.5758   -8697.1945    38.713682   -8735.9081   -12556.535 
   55800    343.70907   -8686.0594     49.17751   -8735.2369   -39457.669 
   56000    324.90487   -8689.6455    46.487026   -8736.1326    10841.876 
   56200    273.86339   -8701.1036    39.184067   -8740.2876    4282.0101 
   56400    335.68517   -8681.7323    48.029459   -8729.7617     13692.16 
   56600     319.7859   -8690.7908    45.754609   -8736.5454     340.5788 
   56800    280.93987   -8700.6867    40.196562   -8740.8833    25289.167 
   57000     358.2084   -8685.7093    51.252058   -8736.9613   -20177.291 
   57200    311.30574   -8688.6063    44.541277   -8733.1476   -20033.918 
   57400     321.1862   -8694.1202    45.954963   -8740.0752   -39567.041 
   57600    272.33911   -8706.8905    38.965975   -8745.8565    17423.113 
   57800    329.40997   -8690.2079     47.13161   -8737.3395    10337.983 
   58000     267.5621   -8693.8854    38.282487   -8732.1678   -2320.7277 
   58200    299.60594   -8707.7597    42.867283   -8750.6269   -10538.759 
   58400    292.91611   -8702.0293     41.91011   -8743.9394    8221.9394 
   58600    331.79953   -8687.3827    47.473506   -8734.8562   -1266.1713 
   58800    264.62168   -8699.2313    37.861774   -8737.0931    8183.7353 
   59000    282.41845   -8695.2666    40.408117   -8735.6748    25221.716 
   59200    295.33385   -8687.3485    42.256037   -8729.6045    14108.178 
   59400    302.91114   -8696.5861    43.340188   -8739.9263   -7541.9623 
   59600    262.79167   -8709.9441    37.599938    -8747.544    4467.3359 
   59800     299.3263   -8692.9055    42.827272   -8735.7328   -5345.2534 
   60000    297.17145   -8692.0289    42.518959   -8734.5479    33417.369 
   60200    222.75918   -8704.5662    31.872135   -8736.4383    32392.871 
   60400    285.48522   -8700.3535    40.846906   -8741.2004   -21172.695 
   60600     352.1662   -8688.4093    50.387546   -8738.7969    22844.469 
   60800    291.63698   -8697.6962    41.727094   -8739.4233    46569.458 
   61000    289.15398   -8698.6992    41.371829    -8740.071    489.11852 
   61200    363.80453   -8685.1354    52.052746   -8737.1882   -2689.6217 
   61400    288.22607   -8699.3395    41.239064   -8740.5786    10555.708 
   61600    287.71493    -8696.867    41.165931   -8738.0329    2485.0071 
   61800    318.84601   -8686.7285    45.620131   -8732.3486   -19794.792 
   62000     336.3956   -8680.3953    48.131107   -8728.5264   -5342.4125 
   62200    330.81971   -8696.3694    47.333314   -8743.7027     639.2075 
   62400    308.48693   -8695.1493    44.137965   -8739.2872    5338.1404 
   62600    290.85197   -8690.1197    41.614775   -8731.7345    -3932.206 
   62800    309.07673   -8689.8925    44.222353   -8734.1149    13673.853 
   63000    286.42101   -8697.1742    40.980798    -8738.155   -1265.0788 
   63200    273.84324   -8696.2382    39.181185   -8735.4194    38693.714 
   63400    309.56405   -8677.5082    44.292078   -8721.8003   -64237.397 
   63600    290.85533   -8695.4908    41.615256   -8737.1061   -42815.413 
   63800    311.09744   -8688.9565    44.511474   -8733.4679    14781.384 
   64000    303.35462   -8697.7848     43.40364   -8741.1885    5264.4393 
   64200    295.60506   -8695.5694    42.294842   -8737.8642   -11147.572 
   64400    305.83737   -8688.1286    43.758869   -8731.8875    27379.187 
   64600    281.30011   -8698.4243    40.248105   -8738.6725    6818.6272 
   64800    321.01723   -8689.0357    45.930787   -8734.9665   -16615.475 
   65000    307.99678     -8687.44    44.067835   -8731.5078    5564.4783 
   65200    270.54052   -8696.1905    38.708636   -8734.8992   -42739.491 
   65400    384.11466   -8686.7142    54.958697   -8741.6729   -21545.294 
   65600    245.24751   -8705.0219     35.08974   -8740.1117    15647.625 
   65800    317.00965   -8693.1522    45.357387   -8738.5095    39050.663 
   66000    235.97511   -8694.4929    33.763056   -8728.2559     26191.47 
   66200    286.40301     -8707.52    40.978222   -8748.4982     -5369.61 
   66400    300.99327   -8697.2841     43.06578   -8740.3498    7405.6509 
   66600    277.56568   -8692.3149    39.713787   -8732.0287   -12375.654 
   66800    321.66683   -8686.1334    46.023731   -8732.1571   -1551.6962 
   67000    356.40063   -8691.0942    50.993404   -8742.0876    3735.2545 
   67200    246.16682   -8699.2432    35.221273   -8734.4644    50922.372 
   67400    333.92257   -8687.0245    47.777268   -8734.8018   -4510.1385 
   67600    249.59359   -8693.7609    35.711572   -8729.4725   -643.42505 
   67800    263.42262   -8691.8622    37.690215   -8729.5524   -30685.232 
   68000    353.04418   -8679.9753    50.513167   -8730.4885   -22805.917 
   68200    310.14113   -8694.0232    44.374646   -8738.3979    38365.849 
   68400    338.54924   -8684.9076    48.439247   -8733.3468     18740.24 
   68600    362.29704   -8688.1359    51.837055    -8739.973    28899.267 
   68800    289.77379   -8699.0108    41.460511   -8740.4713   -22285.754 
   69000    353.87574   -8683.0028    50.632146    -8733.635   -25385.326 
   69200    258.80927   -8695.3382    37.030141   -8732.3683    5410.8624 
   69400    324.58476   -8694.9496    46.441225   -8741.3908    30442.793 
   69600    310.49848   -8688.5921    44.425775   -8733.0179   -22871.749 
   69800    279.53526   -8695.3476    39.995593   -8735.3432    230.24061 
   70000    346.22355   -8688.9808    49.537279   -8738.5181   -354.46246 
   70200    279.80444   -8693.4496    40.034107   -8733.4837    47804.077 
   70400     294.3992   -8698.1061    42.122309   -8740.2284    20931.101 
   70600    319.00715   -8687.6338    45.643186    -8733.277    3995.6806 
   70800    246.74204   -8696.1639    35.303575   -8731.4675   -23295.734 
   71000    356.93352   -8684.1123     51.06965   -8735.1819   -2459.6767 
   71200    277.36387   -8688.8577    39.684912   -8728.5426    21354.352 
   71400    279.97167   -8692.0278    40.058033   -8732.0858    10752.357 
   71600      280.626   -8694.9848    40.151655   -8735.1364   -16016.288 
   71800    257.68521   -8703.3438    36.869312   -8740.2131    11440.408 
   72000    337.87527    -8690.498    48.342816   -8738.8408    13226.774 
   72200    275.61052   -8701.4597    39.434046   -8740.8938    21978.123 
   72400     358.0114   -8686.6057    51.223872   -8737.8295    -12817.38 
   72600    288.18216   -8692.1365    41.232782   -8733.3693     10763.73 
   72800    298.90874   -8695.4976    42.767529   -8738.2651   -13430.573 
   73000    332.97987   -8681.8792    47.642388   -8729.5216     30965.67 
   73200    332.68088   -8682.0277    47.599609   -8729.6273   -30280.492 
   73400    278.05432   -8694.7117    39.783702   -8734.4954    18252.944 
   73600    279.09804   -8700.3994    39.933035   -8740.3324   -27116.448 
   73800    312.03597   -8699.3798    44.645757   -8744.0255   -19346.048 
   74000    410.03895   -8685.7138    58.667915   -8744.3817   -9127.2027 
   74200    284.59949   -8695.0908    40.720178    -8735.811    13811.841 
   74400     309.8011   -8693.1579    44.325995   -8737.4839   -25090.869 
   74600    234.73987   -8709.4238    33.586319   -8743.0101    9646.1297 
   74800    345.36258    -8691.357    49.414092   -8740.7711   -24408.973 
   75000    296.01161   -8694.2676    42.353011   -8736.6206    14009.837 
   75200    245.95687   -8703.0953    35.191235   -8738.2865    4062.3506 
   75400    349.52009    -8683.698    50.008944    -8733.707    42739.572 
   75600    275.25155   -8697.7467    39.382684   -8737.1294    5169.5005 
   75800    321.87178   -8694.7236    46.053055   -8740.7766    49849.426 
   76000    286.29813   -8693.5137    40.963216   -8734.4769   -22038.364 
   76200    282.57604   -8696.0232    40.430664   -8736.4538    1141.4108 
   76400    328.72013   -8685.8225    47.032909   -8732.8555    17276.531 
   76600      304.394   -8696.5577    43.552353   -8740.1101    35730.451 
   76800    298.04962   -8695.8225    42.644607   -8738.4671    20192.944 
   77000     316.7201   -8689.0893    45.315958   -8734.4052   -14638.479 
   77200    307.36648   -8694.8628    43.977653   -8738.8405    10890.119 
   77400    343.10286    -8679.452    49.090774   -8728.5428   -2197.4833 
   77600    257.68943   -8696.5317    36.869916   -8733.4016   -13906.953 
   77800    320.81698   -8689.8368    45.902135   -8735.7389    14784.745 
   78000    245.18824   -8706.8277     35.08126    -8741.909   -19533.991 
   78200    297.72349   -8695.6798    42.597944   -8738.2777    7006.5013 
   78400    281.60016    -8692.195    40.291036    -8732.486    14305.585 
   78600    260.73975   -8681.3727    37.306352    -8718.679    32849.255 
   78800    303.59798   -8697.1553     43.43846   -8740.5937    22636.605 
   79000    284.96155   -8699.8778     40.77198   -8740.6497   -14882.922 
   79200    330.42329   -8681.6813    47.276595   -8728.9579    18937.399 
   79400    246.22967   -8692.1331    35.230265   -8727.3634   -19113.773 
   79600    287.40025    -8696.497    41.120907   -8737.6179    19232.453 
   79800    358.56827   -8693.8326    51.303547   -8745.1361   -7638.4223 
   80000    249.18385    -8701.129    35.652946   -8736.7819   -11830.763 
   80200    326.72175   -8686.0925    46.746982   -8732.8395   -25868.051 
   80400    289.71886   -8699.1303     41.45265    -8740.583    40142.125 
   80600    353.48112   -8679.6848    50.575684   -8730.2605   -48372.148 
   80800    290.93228   -8691.7892    41.626265   -8733.4155    26408.921 
   81000    277.80607   -8694.4625    39.748182   -8734.2107   -730.23924 
   81200    376.63543   -8685.0237    53.888577   -8738.9123    29414.659 
   81400    295.28351   -8697.3664    42.248835   -8739.6152    15919.125 
   81600    350.47613   -8682.7196    50.145733   -8732.8653    32009.461 
   81800    287.33128   -8691.6919    41.111038   -8732.8029    34264.865 
   82000    304.88521   -8691.9203    43.622635    -8735.543    -10830.03 
   82200    310.70203   -8681.4887    44.454899   -8725.9436    -5273.741 
   82400    286.85642   -8696.3826    41.043097   -8737.4257     -23462.6 
   82600    334.85998   -8692.7852    47.911392   -8740.6966   -6023.7636 
   82800    338.42443   -8683.6252    48.421389   -8732.0466    2626.3318 
   83000    302.07046   -8696.7295    43.219903   -8739.9494    13347.393 
   83200    279.64115   -8703.8878    40.010744   -8743.8986   -7457.6497 
   83400    268.27411   -8702.1229     38.38436   -8740.5073    3720.2498 
   83600    292.14156   -8688.9879    41.799288   -8730.7872    -13240.07 
   83800    274.78485   -8694.3655    39.315909   -8733.6814   -4571.3592 
   84000    279.03209   -8704.2641    39.923599   -8744.1877    5481.1141 
   84200     374.8544   -8685.0573    53.633748   -8738.6911   -27416.469 
   84400    293.91103   -8688.5115    42.052462   -8730.5639   -47366.977 
   84600    291.12586   -8700.1175    41.653963   -8741.7714   -8526.3589 
   84800    269.35094   -8705.1696    38.538431    -8743.708   -9280.9026 
   85000    286.28595   -8690.6183    40.961474   -8731.5798   -12960.531 
   85200    366.40002   -8689.6158    52.424105   -8742.0399   -7842.0495 
   85400    243.13755   -8703.9185    34.787848   -8738.7064    -2392.235 
   85600    360.89168   -8683.0281    51.635978   -8734.6641     3508.606 
   85800    303.06337   -8692.2694    43.361969   -8735.6313    -17616.16 
   86000    289.93519   -8702.6779    41.483603   -8744.1615   -11111.959 
   86200    231.36485   -8712.3953    33.103424   -8745.4988   -16472.973 
   86400    278.38457   -8693.3767    39.830953   -8733.2076    11365.445 
   86600    291.60631   -8686.2303    41.722705    -8727.953    7081.0946 
   86800    231.59484   -8700.4471    33.136331   -8733.5834   -18565.955 
   87000    310.24635   -8691.7137    44.389701   -8736.1034    8067.9397 
   87200    296.87565   -8695.4016    42.476636   -8737.8782   -17150.192 
   87400    395.67876    -8679.966    56.613275   -8736.5793    24221.218 
   87600    340.88372    -8686.565    48.773261   -8735.3382   -6254.9727 
   87800    271.94755   -8699.3503    38.909952   -8738.2602   -15163.841 
   88000    286.92584   -8690.1057    41.053028   -8731.1587    23666.969 
   88200    344.69899   -8683.9702    49.319146   -8733.2893    7195.8158 
   88400    320.47103   -8693.2718    45.852636   -8739.1245   -57045.723 
   88600    280.26569   -8688.3814    40.100102   -8728.4815   -27906.639 
   88800    326.28605   -8675.8616    46.684643   -8722.5462    39466.162 
   89000    303.50009   -8696.1908    43.424454   -8739.6153   -63025.998 
   89200    259.63147   -8698.2745     37.14778   -8735.4223   -41619.703 
   89400    382.45335   -8680.5522    54.720998   -8735.2732   -29830.741 
   89600    283.53038   -8693.6342     40.56721   -8734.2014   -25614.295 
   89800    335.73864   -8692.1292     48.03711   -8740.1664     26849.69 
   90000    340.85839   -8677.9658    48.769637   -8726.7354   -32930.184 
   90200    288.59408   -8692.2878    41.291719   -8733.5795   -4395.1723 
   90400    285.49348   -8698.3383    40.848088   -8739.1864   -4351.9242 
   90600    320.35368    -8682.375    45.835847   -8728.2109   -5334.6732 
   90800     258.7347   -8685.7155    37.019471    -8722.735    54810.762 
   91000    276.07176   -8701.0567    39.500039   -8740.5568   -34143.501 
   91200    285.01585   -8692.3927    40.779749   -8733.1725   -7075.4791 
   91400    310.60469   -8687.0035    44.440973   -8731.4445   -37972.741 
   91600    294.48406   -8700.0097     42.13445   -8742.1442    -17254.54 
   91800    282.72233   -8684.9057    40.451595   -8725.3573    42147.586 
   92000    289.25449   -8688.5277     41.38621    -8729.914    15622.255 
   92200     313.6133   -8699.2562     44.87144   -8744.1276   -9076.1758 
   92400    391.92556    -8682.345    56.076272   -8738.4213   -7837.1963 
   92600      327.936   -8692.3022    46.920716   -8739.2229   -9624.1151 
   92800    320.28732    -8693.513    45.826351   -8739.3394    6602.2101 
   93000    329.92996   -8697.6947     47.20601   -8744.9007   -4078.1216 
   93200    295.43282   -8703.9688    42.270198    -8746.239    4748.4873 
   93400    327.00245     -8686.53    46.787146   -8733.3171    9779.6507 
   93600    283.29616   -8694.6349    40.533697   -8735.1686   -31343.687 
   93800    234.46554   -8711.6154    33.547068   -8745.1624    54060.046 
   94000    279.49561   -8701.9223     39.98992   -8741.9122    10295.126 
   94200    294.69992   -8687.1783    42.165335   -8729.3436    62593.583 
   94400     336.6711   -8686.3204    48.170525   -8734.4909    45069.001 
   94600    255.22279   -8699.9133    36.516991   -8736.4303   -2533.3091 
   94800    297.61423   -8685.6102    42.582311   -8728.1925   -11199.423 
   95000    359.53721   -8693.1463    51.442182   -8744.5885    16034.899 
   95200    267.76923   -8701.9207    38.312122   -8740.2328    19834.706 
   95400    298.51323   -8688.8311     42.71094    -8731.542    -351.2871 
   95600    283.84303   -8698.3356    40.611944   -8738.9475    917.44232 
   95800    244.85814   -8703.8519    35.034029   -8738.8859   -15807.417 
   96000    295.35052   -8695.0884    42.258422   -8737.3469    -32801.67 
   96200    298.46471   -8688.5998    42.703997   -8731.3038    -11520.56 
   96400    329.78078   -8680.8977    47.184666   -8728.0824   -8789.8965 
   96600    273.41792    -8698.046    39.120331   -8737.1664    66129.977 
   96800    261.10462   -8692.8846    37.358558   -8730.2432   -8930.4934 
   97000    322.79784   -8683.5526    46.185555   -8729.7382   -25281.393 
   97200    308.26176   -8696.9898    44.105748   -8741.0955    12510.679 
   97400    298.22157   -8698.1153    42.669208   -8740.7845    9946.3929 
   97600    274.51005   -8689.7175    39.276591    -8728.994    12770.653 
   97800    341.51475   -8681.6467    48.863549   -8730.5103   -29186.729 
   98000    282.61905   -8699.9571    40.436818    -8740.394    40255.526 
   98200    267.99066   -8689.5088    38.343804   -8727.8526   -16655.291 
   98400    305.63872   -8683.0647    43.730447   -8726.7952    16505.618 
   98600     310.8326   -8692.2424    44.473581    -8736.716    8355.0405 
   98800    296.74859   -8698.5423    42.458456   -8741.0007   -13576.332 
   99000     301.4892   -8683.8707    43.136738   -8727.0074    18400.385 
   99200    288.53592   -8691.2839    41.283397   -8732.5673   -29404.289 
   99400    316.42305   -8695.2277    45.273456   -8740.5011   -2288.4456 
   99600    329.79115   -8689.6874     47.18615   -8736.8736    55877.835 
   99800     320.9677   -8686.4706      45.9237   -8732.3943    23587.949 
  100000    279.79417   -8694.5598    40.032637   -8734.5924   -3378.4423 
  100200    276.37991     -8692.42    39.544128   -8731.9642    40144.917 
  100400    306.07145   -8695.3688    43.792361   -8739.1612    -11063.77 
  100600     323.3176   -8684.5059    46.259921   -8730.7659    3468.4551 
  100800    280.23864   -8699.4483    40.096232   -8739.5445    9885.1051 
  101000     324.5723   -8691.6002    46.439442   -8738.0396    22041.358 
  101200    309.94978   -8697.0238    44.347267   -8741.3711   -13042.225 
  101400    266.68418   -8703.1876    38.156875   -8741.3445     7337.271 
  101600    294.42489   -8691.3921    42.125984   -8733.5181    14668.116 
  101800    248.70192   -8698.9678    35.583993   -8734.5518   -28016.115 
  102000    205.66658    -8712.543    29.426545   -8741.9695    16319.874 
  102200    307.20899   -8695.2565    43.955119   -8739.2116   -23609.971 
  102400    280.97707   -8686.9402    40.201885   -8727.1421    2258.3073 
  102600    322.47157   -8677.7948    46.138872   -8723.9336     44691.96 
  102800      279.905   -8699.2186    40.048494   -8739.2671   -22793.101 
  103000    311.14435   -8689.1635    44.518185   -8733.6817   -25141.962 
  103200    280.20982   -8697.2443    40.092108   -8737.3364    41001.462 
  103400    254.12843    -8698.954    36.360412   -8735.3144    23905.703 
  103600    307.23255   -8689.1068    43.958489   -8733.0653   -10882.889 
  103800    300.37942   -8694.5495    42.977952   -8737.5274    -15711.48 
  104000    222.19122   -8703.9584    31.790872   -8735.7493    18762.184 
  104200    324.93767   -8687.9628    46.491719   -8734.4545   -27947.965 
  104400    248.21914   -8696.0867    35.514918   -8731.6017   -22629.748 
  104600    266.41351   -8704.9437    38.118148   -8743.0618   -1602.8521 
  104800    325.71548   -8694.2631    46.603007   -8740.8662    18078.444 
  105000    334.89052   -8690.0403    47.915761   -8737.9561    13058.351 
  105200    287.73567   -8702.7506    41.168898   -8743.9195   -12915.007 
  105400    340.61636   -8687.8813    48.735009   -8736.6163    10770.368 
  105600    319.34217   -8691.3548    45.691121    -8737.046    30623.011 
  105800     229.6302   -8704.3665    32.855232   -8737.2217   -14081.873 
  106000    331.72711   -8693.4161    47.463145   -8740.8792    14862.571 
  106200    312.43352   -8692.1011    44.702638   -8736.8037   -5891.8016 
  106400    226.60519   -8701.1856    32.422417    -8733.608    25451.542 
  106600     277.0366   -8692.1526    39.638087   -8731.7906   -11596.823 
  106800    253.66969   -8696.8898    36.294776   -8733.1846    21824.446 
  107000    206.21631   -8706.4585    29.505199   -8735.9637   -13900.253 
  107200    267.43054   -8687.6035    38.263662   -8725.8672    14960.091 
  107400    304.08011   -8694.4018    43.507442   -8737.9093   -13577.646 
  107600    279.67383   -8700.9786    40.015419    -8740.994   -3544.7802 
  107800    274.98108   -8692.1045    39.343986   -8731.4485    31150.316 
  108000    314.07493   -8694.8425     44.93749     -8739.78    13283.281 
  108200    237.69724   -8705.3757    34.009455   -8739.3852   -9507.0564 
  108400    343.72698   -8686.6393    49.180073   -8735.8194   -14154.191 
  108600    291.95401   -8695.4012    41.772454   -8737.1736   -24163.493 
  108800    252.92264   -8708.0249    36.187889   -8744.2128     14583.67 
  109000    316.72088   -8690.0967    45.316069   -8735.4128    -43758.52 
  109200    255.36825   -8689.7991    36.537804   -8726.3369    3247.0029 
  109400    374.84425   -8681.1069    53.632296   -8734.7392    6385.0458 
  109600    257.60924   -8698.8626    36.858442    -8735.721   -2694.6049 
  109800    362.14179   -8691.5488    51.814842   -8743.3636   -38103.178 
  110000    266.13807   -8700.4107    38.078737   -8738.4895    19132.877 
  110200    299.05068   -8696.0905    42.787836   -8738.8783   -47081.404 
  110400    301.24936   -8693.3257    43.102422   -8736.4281   -28001.549 
  110600    298.98993    -8694.323    42.779145   -8737.1021   -5223.4046 
  110800    304.84261   -8688.6498     43.61654   -8732.2664     9044.276 
  111000    331.32745   -8691.7935    47.405961   -8739.1994   -52250.353 
  111200    226.24458   -8701.8944    32.370822   -8734.2653   -3184.1961 
  111400    329.37941   -8683.6774    47.127238   -8730.8046    23626.279 
  111600    254.44359   -8697.5364    36.405504   -8733.9419   -15959.046 
  111800    252.33616    -8697.309    36.103976   -8733.4129    21727.845 
  112000     347.4329    -8682.453    49.710311   -8732.1633   -28436.942 
  112200    243.45839   -8699.3266    34.833755   -8734.1603    6589.4306 
  112400    292.13006   -8693.9491    41.797643   -8735.7468    8556.9487 
  112600    280.69555   -8698.9495    40.161605   -8739.1111    31045.366 
  112800    333.13681   -8684.0589    47.664843   -8731.7237   -2302.3189 
  113000    291.77991   -8694.8784    41.747544    -8736.626    14111.557 
  113200    301.53583   -8695.7332     43.14341   -8738.8766    -31879.74 
  113400    267.72384   -8693.3661    38.305627   -8731.6717    17766.126 
  113600    364.45759   -8690.8758    52.146184    -8743.022    4756.4151 
  113800    287.34481   -8699.8063    41.112975   -8740.9193    28334.493 
  114000    311.47756   -8690.9336    44.565862   -8735.4995   -11187.614 
  114200    265.72553   -8693.5273    38.019711    -8731.547   -21224.431 
  114400    390.16226   -8674.1875     55.82398   -8730.0115   -4811.2184 
  114600    297.11336   -8696.2227    42.510648   -8738.7334     8241.087 
  114800    407.75666   -8687.9294    58.341367   -8746.2707    23979.195 
  115000      274.382   -8701.6336     39.25827   -8740.8918    15373.879 
  115200    277.60925   -8692.7119    39.720021   -8732.4319    3859.8025 
  115400    279.20919   -8690.9732    39.948939   -8730.9221    37477.431 
  115600    261.97191   -8698.7731    37.482648   -8736.2558   -41947.984 
  115800    309.75006   -8685.9168    44.318692   -8730.2354   -9810.9896 
  116000    252.75565   -8690.2973    36.163996   -8726.4613   -25750.625 
  116200    260.98789   -8704.7725    37.341856   -8742.1143    27927.873 
  116400    247.52651   -8719.2777    35.415816   -8754.6935    7304.6697 
  116600    284.99503    -8698.957    40.776771   -8739.7338   -8764.2798 
  116800    322.43039   -8686.8362     46.13298   -8732.9692   -5617.0041 
  117000    255.98159   -8702.3203    36.625559   -8738.9458    -4976.103 
  117200    314.21242   -8698.4929    44.957162   -8743.4501   -982.39541 
  117400    349.96666   -8692.2589    50.072839   -8742.3317   -12043.176 
  117600    341.24678   -8689.2768    48.825208    -8738.102    57480.953 
  117800    361.86355   -8680.3104    51.775032   -8732.0854   -12393.987 
  118000    248.52504   -8698.2992    35.558685   -8733.8579   -3532.5065 
  118200    371.79722   -8686.7183    53.196331   -8739.9147   -20245.229 
  118400    285.87788   -8694.2393    40.903088   -8735.1424   -20477.438 
  118600    294.82588   -8695.2828    42.183357   -8737.4662    40649.153 
  118800    283.87509   -8696.0812     40.61653   -8736.6977    -33949.69 
  119000    315.31057   -8693.6835    45.114284   -8738.7978     1889.848 
  119200    402.87819   -8681.3418    57.643361   -8738.9852   -7135.6277 
  119400    253.29338   -8698.8275    36.240933   -8735.0685     33156.22 
  119600    313.57485   -8691.7314    44.865939   -8736.5973   -16799.025 
  119800    337.64237   -8691.3416    48.309493   -8739.6511    21616.353 
  120000    254.24691   -8695.1362    36.377364   -8731.5136    12789.459 
  120200    318.50247   -8693.8259    45.570977   -8739.3969   -34277.049 
  120400    272.21786    -8696.936    38.948628   -8735.8846    9416.0084 
  120600    229.58004   -8707.0077    32.848056   -8739.8557   -24418.728 
  120800    309.50303   -8691.6343    44.283347   -8735.9176    3251.6538 
  121000    289.63792   -8689.2078     41.44107   -8730.6488    8044.3488 
  121200     289.4159   -8688.3163    41.409304   -8729.7256    2592.0212 
  121400    233.20748   -8701.8723    33.367065   -8735.2393   -33106.849 
  121600    351.17849   -8686.4669    50.246226   -8736.7132    28654.845 
  121800    308.74826   -8691.2288    44.175356   -8735.4041    10934.922 
  122000    267.00721   -8702.4548    38.203093   -8740.6579    15822.273 
  122200    360.81382   -8680.5836    51.624839   -8732.2085   -14115.437 
  122400       276.92   -8691.9755    39.621404   -8731.5969    9447.1094 
  122600    273.53338   -8698.2564    39.136851   -8737.3933    20157.742 
  122800     363.8348    -8678.763    52.057077   -8730.8201    -7184.793 
  123000    335.71752   -8683.5932    48.034088   -8731.6273   -27055.837 
  123200     263.0837   -8697.1433    37.641722   -8734.7851    44810.018 
  123400    291.56234   -8685.7462    41.716413   -8727.4626    31602.694 
  123600     331.2913   -8686.9742    47.400789    -8734.375   -32663.882 
  123800    297.94234   -8696.1723    42.629257   -8738.8016    1768.7345 
  124000    338.35784   -8701.5755    48.411862   -8749.9874   -10274.372 
  124200    298.25289   -8691.4556     42.67369   -8734.1293    23290.531 
  124400    256.69546   -8685.2531    36.727699   -8721.9808   -62250.718 
  124600    221.85219   -8703.8816    31.742363    -8735.624    25737.391 
  124800    256.24263   -8695.9549     36.66291   -8732.6178   -39438.116 
  125000    327.55507   -8687.2879    46.866213   -8734.1541    28112.641 
  125200    278.18135   -8700.4711    39.801876   -8740.2729    22253.142 
  125400     309.0688   -8698.8082    44.221218   -8743.0294   -16359.642 
  125600    292.22428   -8694.7334    41.811124   -8736.5445     8699.608 
  125800    351.35061   -8682.7827    50.270852   -8733.0536   -19447.148 
  126000    297.03845   -8692.0575     42.49993   -8734.5574   -23995.373 
  126200    237.94751   -8693.8483    34.045263   -8727.8936   -11190.983 
  126400    265.70924   -8686.7135    38.017381   -8724.7309   -12326.227 
  126600    289.51336    -8696.877    41.423248   -8738.3003    6452.9469 
  126800    261.78643    -8695.657     37.45611   -8733.1131    -19868.96 
  127000     380.2671   -8680.9399    54.408191   -8735.3481   -4954.1905 
  127200    300.37576   -8699.5419    42.977428   -8742.5193    27721.757 
  127400    236.92052   -8698.8757    33.898323    -8732.774    34061.343 
  127600    315.25504   -8684.3531    45.106339   -8729.4595   -13509.671 
  127800    327.60023   -8692.6722    46.872675   -8739.5448   -15281.615 
  128000     255.4395   -8694.5574    36.547999   -8731.1054    5898.2542 
  128200    264.03946   -8698.8603     37.77847   -8736.6388    36428.209 
  128400    326.68726    -8684.209    46.742047   -8730.9511   -32153.295 
  128600    284.12351   -8697.3112    40.652074   -8737.9633    30714.652 
  128800    264.92491   -8693.6157     37.90516   -8731.5209   -33320.213 
  129000    265.80409    -8696.643    38.030952    -8734.674    15990.448 
  129200    263.30181   -8707.5558    37.672928   -8745.2287    6273.7921 
  129400    308.15872   -8693.9049    44.091005   -8737.9959    -14611.03 
  129600    297.81144   -8686.1891    42.610527   -8728.7996   -9874.1499 
  129800    329.86609    -8683.173    47.196871   -8730.3699   -454.04124 
  130000    271.13535   -8698.9329    38.793743   -8737.7266   -8436.7273 
  130200    319.33097     -8689.52    45.689518   -8735.2095   -20055.035 
  130400    340.50454   -8683.4551    48.719009   -8732.1741   -8249.9072 
  130600    312.47484   -8693.4236    44.708551   -8738.1322    53496.264 
  130800    309.20077   -8699.4148      44.2401   -8743.6549   -4213.9365 
  131000    335.53955   -8680.0926    48.008624   -8728.1012    6596.2689 
  131200    277.89234   -8697.0066    39.760526   -8736.7671   -17635.338 
  131400    279.35025   -8693.9593    39.969122   -8733.9284    63371.674 
  131600    357.04952   -8679.1799    51.086246   -8730.2662    5241.1388 
  131800    311.05564   -8684.3605    44.505493    -8728.866   -38506.766 
  132000    298.67084   -8694.6002     42.73349   -8737.3336    3623.5208 
  132200    317.03681   -8690.8615    45.361272   -8736.2228     40189.76 
  132400    230.78668   -8695.7573      33.0207    -8728.778   -53940.474 
  132600    247.67806   -8696.7495      35.4375    -8732.187    65460.998 
  132800     317.9948   -8686.1536    45.498341    -8731.652   -15634.984 
  133000    326.01886   -8694.3999    46.646414   -8741.0463   -27673.536 
  133200    266.75718   -8708.0786     38.16732   -8746.2459    -9324.885 
  133400    322.62991   -8695.2858    46.161526   -8741.4473   -34495.394 
  133600    387.11368   -8687.6423    55.387793     -8743.03    11814.872 
  133800    266.67788   -8699.1144    38.155973   -8737.2704    3975.3976 
  134000    262.14065   -8700.1424    37.506791   -8737.6492    8565.1244 
  134200    337.62727   -8688.5153    48.307332   -8736.8226   -18084.981 
  134400    265.83728   -8699.7201    38.035701   -8737.7558    19607.734 
  134600    338.92351   -8683.3976    48.492797   -8731.8904   -15989.063 
  134800    336.69959   -8691.4308    48.174602   -8739.6054   -19903.806 
  135000    283.36805   -8694.2527    40.543984   -8734.7967   -20059.024 
  135200     294.4541   -8692.8151    42.130163   -8734.9452    48492.554 
  135400    321.88419   -8686.1978     46.05483   -8732.2526    22680.897 
  135600    337.63952   -8690.6946    48.309086   -8739.0037   -16899.188 
  135800    256.28145     -8700.76    36.668463   -8737.4285    858.84409 
  136000    363.19806   -8687.4214    51.965972   -8739.3873   -18968.146 
  136200    241.95336   -8689.4352    34.618416   -8724.0537      1008.92 
  136400    315.80792   -8694.9093    45.185444   -8740.0948   -2195.4572 
  136600    286.16541   -8700.0625    40.944227   -8741.0067    -12982.06 
  136800    327.08207   -8683.4816    46.798537   -8730.2801   -17900.819 
  137000    267.77066   -8695.4847    38.312327   -8733.7971    7948.2806 
  137200       295.24   -8702.6588    42.242609   -8744.9014    12651.497 
  137400    307.47005   -8690.9957    43.992471   -8734.9882    -583.7149 
  137600    311.88426   -8690.1302    44.624051   -8734.7542   -39682.623 
  137800    276.62909   -8698.8952    39.579781    -8738.475    438.37191 
  138000     319.8139   -8692.9772    45.758616   -8738.7358    60610.818 
  138200    308.14353   -8684.8096    44.088832   -8728.8984   -5476.8441 
  138400    267.95443    -8699.782    38.338621   -8738.1206     34020.26 
  138600    272.79263   -8695.1434    39.030864   -8734.1742   -4249.8016 
  138800    295.44809   -8690.0296    42.272383    -8732.302   -5494.1761 
  139000    269.05249   -8692.5753     38.49573    -8731.071   -38358.504 
  139200    270.60249   -8703.3348    38.717501   -8742.0523    15034.809 
  139400      282.281   -8691.5473    40.388451   -8731.9358   -7075.8991 
  139600     325.8019   -8690.4575    46.615372   -8737.0729    33729.122 
  139800    283.12845   -8696.6296    40.509702   -8737.1393    8818.8969 
  140000    268.14676   -8691.3725    38.366139   -8729.7386    27275.512 
  140200    264.10604   -8691.5824    37.787997   -8729.3704   -26308.123 
  140400    250.23246   -8693.2186     35.80298   -8729.0216   -10255.087 
  140600    316.91339   -8692.2987    45.343613   -8737.6424    -19047.45 
  140800    325.69005   -8691.4543    46.599369   -8738.0537    -1912.317 
  141000    314.33517   -8698.6913    44.974725    -8743.666   -5151.9831 
  141200    266.86936   -8703.8135     38.18337   -8741.9969    1532.1388 
  141400    334.05354    -8685.111    47.796007    -8732.907   -20552.425 
  141600    307.27297   -8696.9441    43.964273   -8740.9084    34015.442 
  141800    333.29247   -8693.4449    47.687114    -8741.132    5831.2276 
  142000     383.5602   -8672.6263    54.879364   -8727.5057    23726.773 
  142200    337.73668   -8691.3091    48.322987   -8739.6321   -15909.081 
  142400     269.7759   -8701.1794    38.599235   -8739.7786   -15611.487 
  142600     298.9211    -8683.405    42.769297   -8726.1743   -27302.771 
  142800    289.70863   -8691.9876    41.451187   -8733.4388    57710.259 
  143000    353.60717   -8693.3352    50.593719   -8743.9289   -30414.415 
  143200    287.41753   -8703.7009    41.123379   -8744.8243    28184.819 
  143400    323.08072   -8694.3224    46.226028   -8740.5485   -36259.986 
  143600    306.26415   -8687.1575    43.819933   -8730.9775   -53839.251 
  143800    258.45131   -8703.9886    36.978925   -8740.9675    42398.489 
  144000    286.02492   -8699.5344    40.924126   -8740.4585   -12156.314 
  144200    341.55616   -8689.9657    48.869474   -8738.8352   -1741.2371 
  144400    263.39736   -8702.7421      37.6866   -8740.4287    14884.618 
  144600    241.19827   -8703.9978    34.510379   -8738.5081    3986.0041 
  144800     321.8592   -8688.6807    46.051255    -8734.732   -29535.369 
  145000     325.1166    -8694.312     46.51732   -8740.8293    3551.2803 
  145200    296.73261   -8699.9188     42.45617    -8742.375   -5347.4984 
  145400    326.00069   -8687.2959    46.643814   -8733.9397    6599.3305 
  145600    282.37018   -8688.8991     40.40121   -8729.3003    30111.714 
  145800    296.35331   -8696.5308      42.4019   -8738.9327   -19493.011 
  146000    275.92571   -8702.3878    39.479142   -8741.8669    12900.063 
  146200    279.70427   -8693.1679    40.019774   -8733.1877   -20212.951 
  146400    300.63417   -8698.1654    43.014401   -8741.1798    10992.188 
  146600    290.50249   -8701.3399    41.564771   -8742.9047    26527.967 
  146800     331.6839    -8687.555    47.456961    -8735.012   -1758.5481 
  147000    284.22624   -8695.9923    40.666772    -8736.659   -6791.5356 
  147200    313.37133   -8693.4815     44.83682   -8738.3183    12780.693 
  147400    320.91418   -8692.4844    45.916042   -8738.4004    30520.637 
  147600     261.4604   -8705.2542    37.409461   -8742.6637    11819.315 
  147800    325.83325   -8687.9215    46.619857   -8734.5414    -17788.96 
  148000    247.94163   -8697.3489    35.475211   -8732.8241   -1747.1712 
  148200    354.85942   -8686.6725    50.772889   -8737.4454    8421.7839 
  148400    341.20815   -8694.0954     48.81968   -8742.9151   -26580.652 
  148600    292.33922   -8698.1036    41.827569   -8739.9312    -34124.38 
  148800    341.43958   -8690.6166    48.852794   -8739.4694    13882.994 
  149000    343.18041   -8691.1033     49.10187   -8740.2052    33845.572 
  149200    306.76476   -8695.7755    43.891559   -8739.6671   -16297.623 
  149400     357.9254   -8685.5826    51.211566   -8736.7941   -15602.492 
  149600    307.26883   -8694.5856    43.963681   -8738.5493   -7829.1758 
  149800    306.66263   -8700.7915    43.876946   -8744.6684    7252.5754 
  150000    337.69582   -8681.3947    48.317141   -8729.7118   -7711.3598 
  150200    324.71914   -8686.0047    46.460452   -8732.4652   -20064.787 
  150400    243.45453   -8698.4515    34.833203   -8733.2847    15327.992 
  150600    296.87418   -8686.4054    42.476426   -8728.8819   -1819.1111 
  150800    314.98529   -8677.0064    45.067743   -8722.0742   -3599.8639 
  151000    300.82228   -8699.1383    43.041316   -8742.1796   -21867.046 
  151200    286.83687   -8694.0562    41.040299   -8735.0965    25399.932 
  151400    378.45236   -8682.7616     54.14854   -8736.9101    10231.995 
  151600    269.66839   -8693.9549    38.583851   -8732.5388   -33174.173 
  151800    277.01778   -8697.2836    39.635395    -8736.919    38079.329 
  152000    259.03726   -8702.6842    37.062761   -8739.7469    38089.155 
  152200    328.56182   -8688.5385    47.010258   -8735.5488   -2835.3658 
  152400    239.44032    -8693.182    34.258854   -8727.4408    10584.316 
  152600    413.44623   -8671.2852    59.155424   -8730.4406   -1957.1887 
  152800    327.96863   -8692.7184    46.925385   -8739.6438    33025.007 
  153000    286.99039   -8696.5021    41.062265   -8737.5644   -14164.045 
  153200    367.72388   -8681.7756    52.613522   -8734.3892    870.44662 
  153400    294.12818   -8700.2445    42.083531    -8742.328     4047.523 
  153600     333.0864   -8693.5375     47.65763   -8741.1951   -25379.547 
  153800    352.36248   -8682.2814    50.415629    -8732.697    47763.393 
  154000    326.86383   -8686.9568    46.767311   -8733.7241   -16290.623 
  154200    281.95636   -8700.2904    40.342001   -8740.6324    37177.943 
  154400    308.42037   -8688.8462    44.128443   -8732.9747    3796.7128 
  154600    415.27149   -8677.4337    59.416581   -8736.8502    28038.497 
  154800    252.46675    -8691.421     36.12266   -8727.5436   -609.61076 
  155000     301.1329   -8698.3639    43.085759   -8741.4497   -6929.8679 
  155200    307.63364   -8686.1693    44.015877   -8730.1852    43273.342 
  155400    346.42674   -8680.2238    49.566351   -8729.7901   -22528.109 
  155600    276.91653    -8700.519    39.620907   -8740.1399     -43712.4 
  155800    278.18157   -8693.8813    39.801908   -8733.6832    31215.251 
  156000    354.86635   -8679.9009    50.773881   -8730.6748   -50.947824 
  156200    294.18308   -8690.6509    42.091387   -8732.7423    21036.874 
  156400    265.42263   -8700.6142    37.976374   -8738.5906    1398.2331 
  156600    337.81015   -8680.4166    48.333499   -8728.7501   -13257.306 
  156800     250.0508   -8693.6642    35.776989   -8729.4412   -43308.908 
  157000    283.39673   -8698.2332    40.548088   -8738.7813    30788.505 
  157200    326.19967   -8677.9812    46.672284   -8724.6535    10047.685 
  157400    315.08164   -8689.5389    45.081529   -8734.6204    30821.666 
  157600    277.79577   -8697.4432    39.746709     -8737.19    5869.5429 
  157800    291.50839   -8684.8516    41.708694   -8726.5603    17378.205 
  158000    362.34789   -8685.7568    51.844331   -8737.6011   -18709.325 
  158200    271.52477    -8693.401    38.849461   -8732.2504    22424.167 
  158400    286.80696   -8695.1814    41.036019   -8736.2174     17923.85 
  158600    318.35554   -8680.3937    45.549955   -8725.9437    -11697.97 
  158800    291.26406   -8695.8851    41.673736   -8737.5588   -7164.3143 
  159000    282.34437   -8693.7986    40.397517   -8734.1961    7023.7655 
  159200    340.89416   -8675.1945    48.774755   -8723.9693   -22886.747 
  159400    290.26964    -8688.977    41.531456   -8730.5084   -24923.816 
  159600    272.60748   -8698.0034    39.004374   -8737.0078   -5098.0273 
  159800     310.7905   -8697.7218    44.467558   -8742.1893    10343.305 
  160000    338.00259   -8682.7041    48.361032   -8731.0651   -6650.5563 
  160200    264.36343   -8698.1042    37.824824    -8735.929   -11753.246 
  160400     294.6514   -8694.0871    42.158393   -8736.2455   -17827.886 
  160600    299.85818   -8675.1967    42.903373   -8718.1001   -31363.342 
  160800    315.86126   -8689.2478    45.193077   -8734.4409   -31306.901 
  161000    263.91539   -8698.7949    37.760719   -8736.5556   -17154.482 
  161200    324.41803   -8692.2223    46.417369   -8738.6397   -4557.8841 
  161400    301.36424   -8684.7121    43.118858    -8727.831   -19985.816 
  161600    275.03008   -8695.2066    39.350997   -8734.5576    -25808.72 
  161800    242.57826   -8711.0363    34.707826   -8745.7441   -1329.2228 
  162000    296.44066   -8697.8857    42.414399   -8740.3001    -17505.72 
  162200    363.19372   -8687.7513    51.965352   -8739.7167    4455.2348 
  162400    288.06532   -8694.6257    41.216064   -8735.8418    79984.184 
  162600    304.77183   -8704.4843    43.606412   -8748.0907    19322.723 
  162800     283.1522   -8689.9111      40.5131   -8730.4242    -763.8647 
  163000    334.70072   -8691.2358    47.888605   -8739.1244   -19697.824 
  163200    272.86443   -8705.3441    39.041137   -8744.3852   -2287.4914 
  163400    355.32031   -8691.6754    50.838833   -8742.5143    25688.221 
  163600    287.78104   -8690.1418     41.17539   -8731.3172    5978.7554 
  163800    320.11627   -8693.3943    45.801879   -8739.1961     31832.39 
  164000    272.86099   -8701.2499    39.040645   -8740.2906    -12152.84 
  164200    313.46297   -8697.6831    44.849932    -8742.533   -11498.558 
  164400    310.81551   -8687.9457    44.471136   -8732.4169   -2921.3594 
  164600     264.9582   -8698.9671    37.909924    -8736.877    -42381.95 
  164800    344.47521   -8686.5441    49.287129   -8735.8312    -27985.77 
  165000    288.03838    -8689.637     41.21221   -8730.8492    57714.718 
  165200    272.94333   -8698.9952    39.052427   -8738.0476    18359.039 
  165400     367.6003   -8678.4219    52.595839   -8731.0177   -75.687637 
  165600    319.53115   -8693.2553    45.718161   -8738.9735    25056.078 
  165800    244.37914    -8697.742    34.965494   -8732.7075   -735.35471 
  166000    309.28759   -8682.2553    44.252523   -8726.5078   -1084.1444 
  166200    251.13515   -8698.5849    35.932137    -8734.517   -2018.1707 
  166400    337.73649   -8687.8654    48.322959   -8736.1884   -12666.036 
  166600    241.15382   -8701.5792    34.504019   -8736.0832    17012.856 
  166800    310.73118   -8696.6824    44.459069   -8741.1415   -9366.2489 
  167000    295.46027    -8694.819    42.274125   -8737.0931   -12034.109 
  167200    286.10529   -8681.0831    40.935625   -8722.0188   -29533.931 
  167400    297.12343   -8690.3528    42.512089   -8732.8649    23115.808 
  167600    279.26791   -8698.5522     39.95734   -8738.5095    21699.763 
  167800    368.35264    -8680.545    52.703485   -8733.2485    30642.762 
  168000    312.06226   -8688.7085     44.64952    -8733.358   -6016.6322 
  168200    289.96599    -8698.562     41.48801   -8740.0501   -11189.866 
  168400    320.44003   -8687.9671    45.848201   -8733.8153   -42636.735 
  168600    331.69145   -8689.8926    47.458042   -8737.3507    66076.322 
  168800    319.08028   -8692.8698    45.653649   -8738.5235    9408.4698 
  169000    383.62009   -8682.5311    54.887934    -8737.419   -11246.057 
  169200     305.6009   -8695.8108    43.725036   -8739.5358   -47987.497 
  169400    271.26407   -8695.1075     38.81216   -8733.9197    11575.977 
  169600    294.61905   -8695.5401    42.153764   -8737.6939   -11693.559 
  169800    311.64583   -8692.4448    44.589937   -8737.0347    17241.362 
  170000    359.74549   -8686.5061    51.471982   -8737.9781    3994.4924 
  170200    251.34543   -8705.1331    35.962223   -8741.0953    1937.8935 
  170400    301.93778   -8692.8212     43.20092   -8736.0221    20006.778 
  170600    328.61572   -8689.9525    47.017969   -8736.9704   -36066.231 
  170800     270.0339   -8701.9553    38.636149   -8740.5915   -28689.508 
  171000    316.39588   -8703.9553    45.269569   -8749.2249    14987.608 
  171200    284.75913   -8694.6563    40.743018   -8735.3993    15991.538 
  171400    290.58902   -8686.5741    41.577153   -8728.1513   -4463.8832 
  171600    321.35533   -8692.6311    45.979162   -8738.6103    21552.273 
  171800    305.57973   -8693.8144    43.722006   -8737.5364   -34511.418 
  172000    338.65738   -8680.4064     48.45472   -8728.8611    40884.795 
  172200    270.66108   -8696.3453    38.725885   -8735.0712    -1923.921 
  172400    310.32079   -8695.8751    44.400352   -8740.2754   -9639.2197 
  172600    312.00905   -8676.3886    44.641906   -8721.0305   -249.48547 
  172800    272.92193   -8696.4522    39.049365   -8735.5016   -27768.476 
  173000    319.15283   -8693.9231     45.66403   -8739.5871   -12691.756 
  173200    274.10417   -8701.8769    39.218518   -8741.0954   -16693.868 
  173400    295.01611   -8690.7369    42.210575   -8732.9475    38859.055 
  173600    304.37386   -8690.2579    43.549471   -8733.8074   -4337.5128 
  173800    251.56688   -8702.5496    35.993907   -8738.5436    23380.997 
  174000    307.53568   -8698.6406    44.001862   -8742.6425   -25586.307 
  174200    304.09884   -8688.7832    43.510122   -8732.2933   -25286.242 
  174400    314.36631   -8683.8835     44.97918   -8728.8626    -28461.47 
  174600    280.93246   -8703.2549    40.195502   -8743.4504   -3714.3705 
  174800    297.68426   -8691.6014    42.592332   -8734.1938   -18563.836 
  175000    306.77976   -8689.8851    43.893705   -8733.7788    10470.673 
  175200    282.85938    -8703.012    40.471204   -8743.4832    5941.5344 
  175400    274.95833     -8695.63     39.34073   -8734.9707    3491.8497 
  175600     299.2923   -8691.9973    42.822408   -8734.8197   -14316.939 
  175800    281.67651   -8704.5773     40.30196   -8744.8793   -13725.707 
  176000      341.023     -8691.19     48.79319   -8739.9832    38869.635 
  176200    330.51248   -8689.8166    47.289356    -8737.106    29167.563 
  176400    306.16935   -8696.1092    43.806369   -8739.9156     16715.98 
  176600    219.18168   -8705.8549     31.36027   -8737.2152    17040.056 
  176800    293.53803   -8692.4992    41.999093   -8734.4983   -24239.801 
  177000     334.6711    -8684.595    47.884367   -8732.4794    24789.995 
  177200    281.64421   -8695.2515    40.297338   -8735.5488    15826.203 
  177400    283.08418   -8700.8478    40.503368   -8741.3512    26130.852 
  177600    327.76059   -8681.4457    46.895618   -8728.3413    25331.935 
  177800    301.15003   -8688.6082     43.08821   -8731.6964    38023.432 
  178000    305.04452   -8695.8367    43.645429   -8739.4822     42947.72 
  178200    296.25587   -8696.0268    42.387959   -8738.4148     12400.93 
  178400    311.82989   -8681.7938    44.616272   -8726.4101   -13167.432 
  178600    286.92442   -8693.1579    41.052825   -8734.2107   -4353.3617 
  178800    323.95047    -8697.084    46.350471   -8743.4344    17845.202 
  179000    313.64295   -8683.4738    44.875683   -8728.3495   -47195.664 
  179200    296.72307   -8686.6965    42.454805   -8729.1513   -45636.089 
  179400    318.38333   -8694.5534    45.553932   -8740.1073   -19117.544 
  179600    266.44675    -8703.394    38.122903   -8741.5169   -1935.7543 
  179800    279.03238   -8702.6084    39.923642   -8742.5321    13371.053 
[...]
  950000    311.44452   -8694.3913    44.561133   -8738.9525    25077.332 
  950200    303.11364   -8688.7679    43.369161    -8732.137    1891.0967 
  950400    314.14089   -8691.4577    44.946928   -8736.4047   -41543.444 
  950600    246.48279   -8702.1771    35.266483   -8737.4436   -11198.365 
  950800    327.63027   -8686.6105    46.876973   -8733.4875   -2908.7605 
  951000    299.52922   -8692.1909    42.856307   -8735.0472    17869.493 
  951200    304.17952   -8707.7698    43.521666   -8751.2915   -9659.6257 
  951400    248.80464   -8698.2197     35.59869   -8733.8184   -49335.653 
  951600    360.50138   -8687.2143    51.580135   -8738.7944     15517.27 
  951800    249.40269   -8699.9072    35.684258   -8735.5915   -20059.879 
  952000    305.62515   -8700.8632    43.728504   -8744.5917   -12691.061 
  952200    303.08941   -8687.8735    43.365694   -8731.2392   -14509.152 
  952400    237.26187   -8699.4604    33.947163   -8733.4075    20955.308 
  952600    277.12154   -8700.6609    39.650241   -8740.3112   -2583.0424 
  952800    342.22326   -8683.9091    48.964921    -8732.874   -12212.143 
  953000    312.60158   -8698.7047    44.726685   -8743.4314    50650.857 
  953200    265.94715    -8697.219    38.051421   -8735.2705    18188.391 
  953400    290.14277   -8693.2331    41.513303   -8734.7464    35103.796 
  953600    261.88304    -8703.369    37.469933    -8740.839    18381.059 
  953800    258.22159   -8700.0707    36.946056   -8737.0168   -3690.4609 
  954000    294.88389    -8692.132    42.191657   -8734.3237    11826.241 
  954200    355.98672   -8688.0939    50.934182   -8739.0281    7793.4575 
  954400    359.33839   -8676.8313    51.413736    -8728.245    19166.666 
  954600    305.08424   -8693.6978    43.651113   -8737.3489    57021.337 
  954800    286.00783   -8695.1264    40.921681   -8736.0481    6765.9295 
  955000    334.60768   -8679.6125    47.875293   -8727.4878   -26308.269 
  955200     237.4629   -8697.0819    33.975927   -8731.0578    19195.404 
  955400    285.36783   -8699.9745     40.83011   -8740.8046    46391.445 
  955600    316.42702   -8683.1755    45.274025   -8728.4495    1868.2655 
  955800    305.34756   -8686.6889    43.688788   -8730.3777   -1355.4248 
  956000    315.98361   -8693.4323    45.210582   -8738.6429   -16299.306 
  956200    328.40492   -8689.2942    46.987809   -8736.2821   -950.75271 
  956400    355.63813   -8677.5595    50.884307   -8728.4438    39609.977 
  956600    259.82125   -8700.0241    37.174934   -8737.1991   -24547.557 
  956800    321.42435   -8692.6488    45.989037   -8738.6379    44368.617 
  957000    357.88293    -8679.289     51.20549   -8730.4945   -39884.881 
  957200    302.60982   -8697.9891    43.297076   -8741.2862    16141.217 
  957400    341.31243    -8692.562    48.834601   -8741.3966   -14073.499 
  957600    281.21615   -8692.6486    40.236092   -8732.8847   -21091.177 
  957800    273.74906   -8699.6184     39.16771   -8738.7861    20558.128 
  958000     367.5955    -8683.277    52.595153   -8735.8721   -339.31808 
  958200    338.32179   -8690.3141    48.406703   -8738.7208    3653.4158 
  958400    273.05032   -8705.3609    39.067735   -8744.4287    1546.6302 
  958600    301.35137   -8694.0767    43.117017   -8737.1937   -7358.4793 
  958800    296.29298   -8690.8542    42.393268   -8733.2474    32526.526 
  959000    283.05342   -8705.4465    40.498968   -8745.9455   -37317.484 
  959200    300.59111   -8690.8577     43.00824   -8733.8659     16615.34 
  959400    310.98237   -8687.8132    44.495009   -8732.3083   -20030.807 
  959600    290.33058   -8702.0655    41.540175   -8743.6057    19661.331 
  959800    345.68951   -8684.3055    49.460869   -8733.7663    17525.955 
  960000    298.11771    -8690.241    42.654349   -8732.8953   -5547.2255 
  960200    298.97364   -8701.1096    42.776815   -8743.8864   -25725.435 
  960400    322.02107   -8689.0719    46.074415   -8735.1463   -28383.054 
  960600    334.97793   -8683.2957    47.928268    -8731.224   -28206.121 
  960800    265.47748   -8699.7921    37.984221   -8737.7763    38605.755 
  961000    316.24318   -8686.6446     45.24772   -8731.8923    9340.9182 
  961200    318.06854    -8689.746    45.508891   -8735.2549    23690.951 
  961400    272.96004   -8697.6757    39.054817   -8736.7305    2538.1459 
  961600    335.61835   -8677.9553    48.019899   -8725.9752    9724.1739 
  961800    294.79665   -8695.9395    42.179175   -8738.1187     22484.15 
  962000    321.92162   -8695.0067    46.060186   -8741.0669   -4634.2066 
  962200    360.77036   -8678.9144    51.618619    -8730.533    6069.8585 
  962400    290.21165   -8698.0307    41.523159   -8739.5539     31501.82 
  962600    320.58757   -8690.5089    45.869312   -8736.3782   -4575.5048 
  962800    316.00144    -8687.041    45.213133   -8732.2541     5277.786 
  963000    272.16545   -8697.1919    38.941129    -8736.133    -10053.46 
  963200    294.96836   -8699.0469    42.203744   -8741.2507    21434.577 
  963400    298.83435   -8682.9885    42.756885   -8725.7454    40385.558 
  963600    280.54143   -8700.1634    40.139555    -8740.303    11933.871 
  963800    308.14325   -8699.2882    44.088792    -8743.377   -8768.5445 
  964000    334.63208   -8686.6762    47.878784    -8734.555   -45900.859 
  964200    284.06385   -8691.9805    40.643538    -8732.624    18911.813 
  964400    285.04458    -8695.988     40.78386   -8736.7719   -6333.8202 
  964600    341.94697   -8676.8777     48.92539   -8725.8031   -33182.205 
  964800    313.39416   -8695.4075    44.840086   -8740.2476    17614.058 
  965000    322.36685    -8692.557    46.123888   -8738.6808    17377.476 
  965200    312.45573   -8675.7567    44.705816   -8720.4625   -37167.744 
  965400    327.32443   -8693.5915    46.833213   -8740.4247    16169.064 
  965600    319.64938   -8694.1687    45.735075   -8739.9038   -11105.985 
  965800    281.06874   -8686.0843    40.215002   -8726.2993   -34767.377 
  966000    278.48827    -8696.662     39.84579   -8736.5078   -26950.975 
  966200    270.01026    -8696.334    38.632767   -8734.9668   -30097.715 
  966400    366.66243   -8677.7068    52.461651   -8730.1684   -11525.929 
  966600    300.08141   -8691.6921    42.935313   -8734.6274    17972.789 
  966800    338.89289   -8700.2315    48.488416   -8748.7199    14421.048 
  967000    323.46736   -8682.4456    46.281348   -8728.7269   -6693.3109 
  967200    281.12818    -8694.996    40.223506   -8735.2196    1107.4356 
  967400    301.10523    -8698.145    43.081799   -8741.2268    9179.0292 
  967600    344.26541   -8686.1706    49.257109   -8735.4277    10381.305 
  967800     310.8395   -8682.5736    44.474568   -8727.0481    5968.9276 
  968000    318.29694   -8695.6057    45.541571   -8741.1473    -8677.767 
  968200     336.6475   -8686.9584    48.167148   -8735.1255    31574.025 
  968400    347.64206   -8680.2814    49.740238   -8730.0217   -15425.325 
  968600    298.01558   -8691.1821    42.639735   -8733.8219   -19345.597 
  968800    317.88282   -8697.8527    45.482319   -8743.3351   -7510.7807 
  969000    271.28249   -8707.5284    38.814795   -8746.3432   -24730.982 
  969200    334.45147   -8690.6471    47.852943   -8738.5001   -2675.6236 
  969400    306.96563   -8693.5144    43.920299   -8737.4347   -10753.145 
  969600    254.78087   -8708.3574    36.453762   -8744.8111   -36162.958 
  969800    315.88426   -8691.7696    45.196367    -8736.966    -2588.885 
  970000    301.55457    -8685.753    43.146091   -8728.8991   -11298.361 
  970200    250.37702   -8701.9091    35.823665   -8737.7328    26690.577 
  970400    302.78349   -8695.7786    43.321923   -8739.1005    16929.831 
  970600    348.95472   -8684.1122    49.928051   -8734.0403   -11287.101 
  970800    364.26259    -8679.373    52.118284   -8731.4912    15394.609 
  971000    263.91214    -8700.066    37.760254   -8737.8262    20325.601 
  971200    347.41748   -8688.3973    49.708105   -8738.1054    16799.281 
  971400    261.52148   -8689.4376    37.418202   -8726.8558   -42081.261 
  971600    252.74368   -8708.0329    36.162283   -8744.1952   -14224.038 
  971800    259.72388   -8695.6379    37.161003   -8732.7989    -808.2645 
  972000    337.37987   -8683.6377    48.271935   -8731.9096    39246.631 
  972200    294.91191   -8698.5125    42.195666   -8740.7081   -20836.935 
  972400    319.83521   -8696.1016    45.761664   -8741.8632   -1842.1242 
  972600    325.43683   -8688.1736    46.563137   -8734.7368   -27407.442 
  972800    305.12219   -8680.5322    43.656542   -8724.1887    5558.1356 
  973000    299.90316   -8696.7529     42.90981   -8739.6627    9029.3402 
  973200    335.46809    -8685.282    47.998399   -8733.2804   -33176.753 
  973400    360.28909   -8685.9953     51.54976   -8737.5451    7409.1266 
  973600    290.52195   -8694.2169    41.567557   -8735.7845    20120.942 
  973800    278.32303   -8696.1796    39.822149   -8736.0017   -14359.956 
  974000    259.17524   -8692.0391    37.082503   -8729.1216    36776.334 
  974200    297.76665   -8697.2334    42.604119   -8739.8376   -41525.478 
  974400    269.53865   -8699.3907    38.565289    -8737.956    8304.8965 
  974600    337.41001   -8686.7383    48.276248   -8735.0146    33746.601 
  974800    293.86233   -8698.5994    42.045494   -8740.6449   -942.87289 
  975000    272.43609   -8694.1542    38.979852   -8733.1341   -10299.318 
  975200    324.86794   -8691.4046    46.481742   -8737.8863    -27024.29 
  975400    275.99317   -8695.1484    39.488794   -8734.6372    41178.053 
  975600    247.48063   -8697.3553    35.409252   -8732.7645   -20907.177 
  975800    267.85993   -8690.1385      38.3251   -8728.4636    35847.441 
  976000    310.16949    -8684.573    44.378705   -8728.9517   -902.61444 
  976200    275.43682    -8702.643    39.409192   -8742.0522    -22322.41 
  976400    286.01675   -8691.8902    40.922957   -8732.8132    1659.6567 
  976600    296.33584   -8688.1402      42.3994   -8730.5396   -37172.925 
  976800    301.62251   -8696.2606    43.155812   -8739.4164    9514.6563 
  977000    333.84965   -8681.6184    47.766835   -8729.3853    26373.834 
  977200    346.28641    -8691.937    49.546272   -8741.4833   -13452.119 
  977400    356.30624   -8693.6536    50.979899   -8744.6335   -15136.353 
  977600     292.9274   -8705.0149    41.911725   -8746.9267    27612.665 
  977800    293.13965   -8705.7778    41.942094   -8747.7199    -7892.172 
  978000    314.64635   -8689.3664    45.019248   -8734.3856    14079.121 
  978200    332.40747   -8689.7607    47.560489   -8737.3212    72782.897 
  978400    267.90733   -8702.4744    38.331882   -8740.8063   -26083.987 
  978600    343.27811   -8690.7314    49.115848   -8739.8473    23076.608 
  978800    301.20716   -8695.6732    43.096383   -8738.7696    12695.929 
  979000    300.36617   -8683.6631    42.976056   -8726.6392   -4936.9907 
  979200     285.6371   -8694.7543    40.868637   -8735.6229     24361.72 
  979400    296.11557   -8697.3468    42.367885   -8739.7147   -27966.125 
  979600    305.25253   -8693.9797    43.675191   -8737.6549    6724.1553 
  979800    321.16093   -8682.7425    45.951347   -8728.6938    26262.861 
  980000    284.82893   -8696.5105    40.753005   -8737.2635   -8848.4728 
  980200    260.92862    -8698.457    37.333376   -8735.7903    498.59752 
  980400    292.32896   -8686.1477    41.826101   -8727.9738    -15710.96 
  980600    283.89684   -8694.7755    40.619643   -8735.3951    4668.0338 
  980800     227.6339   -8706.6576    32.569604   -8739.2272    6418.1664 
  981000    321.55054   -8689.2989    46.007092    -8735.306    12464.669 
  981200    327.24331   -8692.4532    46.821607   -8739.2748   -20357.775 
  981400    317.97825     -8694.19    45.495973    -8739.686   -24595.389 
  981600    261.22401   -8698.7015     37.37564   -8736.0772     -4473.04 
  981800    300.08873   -8688.9109     42.93636   -8731.8473   -7793.8539 
  982000     336.9112   -8688.3077    48.204879   -8736.5126    17435.572 
  982200    255.95591   -8698.0824    36.621886   -8734.7043   -26055.725 
  982400    301.46617   -8691.7182    43.133443   -8734.8517    7742.2831 
  982600    237.04534   -8700.4783    33.916183   -8734.3945   -751.52224 
  982800    270.82493   -8702.2973    38.749328   -8741.0466    11928.102 
  983000    348.87562   -8689.1511    49.916734   -8739.0678   -4630.5371 
  983200     285.4885   -8699.3262    40.847375   -8740.1736   -14237.971 
  983400    272.56369   -8706.1124    38.998108   -8745.1105    8574.6585 
  983600    332.62255    -8692.083    47.591262   -8739.6743   -20333.543 
  983800    303.32737   -8685.9477    43.399741   -8729.3474   -27253.452 
  984000    362.15355   -8677.3048    51.816525   -8729.1213    9225.6964 
  984200    260.74774   -8696.3801    37.307495   -8733.6876   -7020.7045 
  984400    375.66679   -8689.8045    53.749984   -8743.5545    36008.906 
  984600    328.99792   -8687.2447    47.072655   -8734.3174   -16274.358 
  984800    294.06831   -8697.6494    42.074965   -8739.7243    19793.023 
  985000    325.13104   -8682.2749    46.519386   -8728.7943      18913.6 
  985200    270.64702   -8690.8234    38.723873   -8729.5473    8072.4652 
  985400    291.09776   -8694.7083    41.649942   -8736.3582   -13359.127 
  985600    316.34737   -8694.6863    45.262629   -8739.9489    29475.061 
  985800    345.21531   -8685.3098    49.393021   -8734.7028    22582.359 
  986000    277.99645   -8694.7441    39.775421   -8734.5195    2438.5448 
  986200    275.00072   -8699.2151    39.346796   -8738.5619   -37769.504 
  986400    333.63962   -8686.5951    47.736784   -8734.3319    4039.0852 
  986600    324.55877   -8683.5563    46.437506   -8729.9938    6137.7988 
  986800    276.81007    -8694.066    39.605675   -8733.6717     26205.42 
  987000    373.17368   -8686.7808    53.393272    -8740.174    84906.622 
  987200    215.67032    -8698.818    30.857868   -8729.6759    30415.686 
  987400    345.01618   -8681.9954    49.364529   -8731.3599   -24351.545 
  987600    312.22331   -8691.8531    44.672562   -8736.5256   -26163.177 
  987800    281.83438   -8696.2268    40.324548   -8736.5513    5151.6033 
  988000    240.37406   -8706.6951    34.392452   -8741.0875   -6116.4839 
  988200    310.96131   -8690.5291    44.491997   -8735.0211    -20262.85 
  988400    289.25398   -8694.3093    41.386136   -8735.6954   -13264.804 
  988600    232.89348   -8707.9622    33.322138   -8741.2844    34673.312 
  988800    275.23665    -8692.092    39.380552   -8731.4725    14633.032 
  989000    322.32434   -8688.9662    46.117807    -8735.084   -317.29804 
  989200    266.46716   -8704.9534    38.125823   -8743.0792   -2083.5447 
  989400     286.2889   -8696.6247    40.961896   -8737.5866    22998.599 
  989600    264.39425   -8692.5278    37.829233   -8730.3571    25695.845 
  989800    236.91745   -8706.7556    33.897884   -8740.6535    14282.239 
  990000    277.28234    -8701.148    39.673248   -8740.8213   -8240.2002 
  990200    296.19795   -8690.4685    42.379671   -8732.8481    9953.7862 
  990400    308.31824   -8690.4331     44.11383   -8734.5469   -27903.071 
  990600    270.29221   -8700.4841    38.673108   -8739.1572    53132.133 
  990800    270.79959   -8691.7026    38.745703   -8730.4483   -19702.136 
  991000    309.37642    -8691.118    44.265232   -8735.3833    3438.9949 
  991200    273.45636   -8698.2902     39.12583    -8737.416    73469.508 
  991400    289.00669    -8700.025    41.350754   -8741.3757    26222.274 
  991600    339.26359   -8687.0735    48.541455    -8735.615   -25747.098 
  991800    280.73871   -8696.7299    40.167781   -8736.8977   -19276.357 
  992000    266.31248   -8699.4471    38.103692   -8737.5508    49166.384 
  992200     262.3356    -8698.994    37.534685   -8736.5287   -29545.001 
  992400    345.65391   -8684.3059    49.455776   -8733.7617     -32123.8 
  992600     293.9767   -8699.1832    42.061857   -8741.2451    28421.089 
  992800      278.621   -8697.5932    39.864781    -8737.458    5083.2937 
  993000    316.98762   -8692.9862    45.354234   -8738.3405   -2679.0656 
  993200    248.70612   -8708.7983    35.584593   -8744.3829   -5073.6313 
  993400    310.88546   -8695.0216    44.481144   -8739.5027     13643.53 
  993600    256.32595   -8693.3191     36.67483   -8729.9939    9280.4894 
  993800    321.38076   -8685.5352      45.9828    -8731.518    24848.358 
  994000    295.65395   -8695.9892    42.301836    -8738.291    9170.9804 
  994200     305.5666   -8698.9222    43.720128   -8742.6423   -413.17162 
  994400    345.17928   -8681.1346    49.387866   -8730.5225    14199.227 
  994600    258.67382   -8697.3326    37.010761   -8734.3434   -2780.2844 
  994800    268.32855   -8695.7249    38.392149    -8734.117   -19762.984 
  995000    283.24383   -8690.7784    40.526211   -8731.3047    42117.991 
  995200    242.88298   -8713.1186    34.751426     -8747.87   -11704.172 
  995400    279.50236   -8695.9006    39.990885   -8735.8915     16759.23 
  995600    307.24519   -8685.8194    43.960299   -8729.7797   -13983.275 
  995800    264.95394   -8700.7881    37.909313   -8738.6975    8331.1801 
  996000    274.36986   -8696.9787    39.256533   -8736.2353   -12794.008 
  996200     328.5378   -8689.9242    47.006821    -8736.931   -9340.4674 
  996400    257.70706   -8700.4971    36.872437   -8737.3696     28022.99 
  996600    250.31398   -8705.5255    35.814644   -8741.3401   -38130.561 
  996800    287.20084   -8691.8085    41.092375   -8732.9009    47529.508 
  997000    332.01349   -8693.6171    47.504118   -8741.1212    31834.041 
  997200    247.77318   -8706.7114     35.45111   -8742.1625    -4932.074 
  997400    313.88327   -8689.3787    44.910067   -8734.2888   -6636.0861 
  997600    327.19208   -8686.5525    46.814277   -8733.3668   -36190.029 
  997800    264.24092    -8702.038    37.807296   -8739.8453    34452.037 
  998000    263.64104   -8694.9059    37.721465   -8732.6273     4539.702 
  998200    331.13569   -8686.5222    47.378524   -8733.9007   -41276.008 
  998400    277.32283   -8702.0359    39.679041   -8741.7149    16991.554 
  998600     299.5244   -8694.2066    42.855617   -8737.0622   -20997.859 
  998800    380.84535   -8687.6233    54.490928   -8742.1142   -23165.411 
  999000    302.74709   -8697.2403    43.316715    -8740.557    -33262.46 
  999200    351.72961   -8682.4981     50.32508   -8732.8232     7709.123 
  999400     340.7633   -8688.7969    48.756032    -8737.553   -22769.092 
  999600    283.67174   -8696.5038    40.587435   -8737.0913    52737.502 
  999800    296.16487   -8694.3454    42.374938   -8736.7203    11861.408 
 1000000      319.329   -8691.4836    45.689237   -8737.1728   -12011.691 
Loop time of 16942.5 on 8 procs for 1000000 steps with 49 atoms

Performance: 1.275 ns/day, 18.825 hours/ns, 59.023 timesteps/s
99.7% CPU use with 8 MPI tasks x no OpenMP threads

MPI task timing breakdown:
Section |  min time  |  avg time  |  max time  |%varavg| %total
---------------------------------------------------------------
Pair    | 14397      | 14628      | 14831      | 102.6 | 86.34
Neigh   | 0.54513    | 0.5557     | 0.56647    |   1.0 |  0.00
Comm    | 312.8      | 514.94     | 742.53     | 541.8 |  3.04
Output  | 0.40169    | 0.44156    | 0.66328    |  12.6 |  0.00
Modify  | 1776       | 1777       | 1780.3     |   3.1 | 10.49
Other   |            | 21.29      |            |       |  0.13

Nlocal:    6.125 ave 7 max 6 min
Histogram: 7 0 0 0 0 0 0 0 0 1
Nghost:    917.625 ave 926 max 908 min
Histogram: 2 0 0 0 0 2 2 0 0 2
Neighs:    1680.75 ave 1907 max 1633 min
Histogram: 7 0 0 0 0 0 0 0 0 1

Total # of neighbors = 13446
Ave neighs/atom = 274.408
Neighbor list builds = 76
Dangerous builds = 0

unfix 1
unfix output
undump 1

Please see the log.cite file for references relevant to this simulation

Total wall time: 4:42:51
