ITEM: TIMESTEP
0
ITEM: NUMBER OF ATOMS
49
ITEM: BOX BOUNDS pp pp pp
0.0000000000000000e+00 1.1000000000000000e+01
0.0000000000000000e+00 1.1002000000000001e+01
0.0000000000000000e+00 1.1000000000000000e+01
ITEM: ATOMS id type x y z 
10 1 4.603 4.603 4.603 
11 1 3.085 3.085 3.085 
12 1 3.796 3.796 3.796 
46 1 0.726 0.725 0.725 
47 1 2.26 2.259 2.26 
48 1 1.551 1.55 1.55 
19 1 4.546 4.545 6.226 
20 1 3.013 3.013 7.764 
21 1 3.721 3.721 7.053 
31 1 0.668 0.667 10.103 
32 1 2.187 2.187 8.589 
33 1 1.476 1.475 9.298 
16 1 4.546 6.225 4.546 
17 1 3.013 7.765 3.013 
18 1 3.721 7.053 3.722 
25 1 0.668 10.103 0.668 
26 1 2.188 8.589 2.188 
27 1 1.476 9.298 1.476 
4 1 4.608 6.169 6.169 
5 1 3.086 7.684 7.684 
6 1 3.799 6.974 6.974 
37 1 0.729 10.046 10.046 
38 1 2.259 8.509 8.508 
39 1 1.552 9.219 9.219 
13 1 6.225 4.546 4.546 
14 1 7.764 3.013 3.013 
15 1 7.053 3.721 3.722 
28 1 10.102 0.667 0.668 
29 1 8.589 2.187 2.188 
30 1 9.298 1.475 1.476 
1 1 6.168 4.608 6.169 
2 1 7.684 3.086 7.684 
3 1 6.974 3.799 6.974 
40 1 10.045 0.728 10.046 
41 1 8.508 2.259 8.508 
42 1 9.218 1.551 9.218 
49 2 5.863 4.593 7.221 
7 1 6.169 6.169 4.608 
8 1 7.684 7.684 3.086 
9 1 6.974 6.974 3.799 
43 1 10.046 10.047 0.729 
44 1 8.508 8.509 2.259 
45 1 9.219 9.219 1.552 
22 1 6.229 6.229 6.229 
23 1 7.764 7.765 7.765 
24 1 7.055 7.056 7.055 
34 1 10.108 10.108 10.107 
35 1 8.59 8.59 8.59 
36 1 9.301 9.301 9.3 
ITEM: TIMESTEP
10
ITEM: NUMBER OF ATOMS
49
ITEM: BOX BOUNDS pp pp pp
0.0000000000000000e+00 1.1000000000000000e+01
0.0000000000000000e+00 1.1002000000000001e+01
0.0000000000000000e+00 1.1000000000000000e+01
ITEM: ATOMS id type x y z 
10 1 4.598 4.59223 4.56869 
11 1 3.07759 3.07898 3.07584 
12 1 3.78572 3.78242 3.78678 
46 1 0.733206 0.732017 0.732304 
47 1 2.26907 2.26715 2.26881 
48 1 1.56216 1.56339 1.56153 
19 1 4.4174 4.53661 6.17908 
20 1 2.99612 2.98935 7.78891 
21 1 3.69241 3.70194 7.06848 
31 1 0.676318 0.674041 10.0949 
32 1 2.19472 2.192 8.58438 
33 1 1.47975 1.48478 9.28839 
16 1 4.53987 6.24212 4.53352 
17 1 3.00355 7.77325 3.00555 
18 1 3.71111 7.06543 3.70801 
25 1 0.67491 10.0978 0.674777 
26 1 2.1932 8.58615 2.19308 
27 1 1.48198 9.28732 1.48257 
4 1 4.59816 6.19293 6.17743 
5 1 3.07954 7.69294 7.69234 
6 1 3.78591 6.98225 6.98342 
37 1 0.736804 10.0399 10.0377 
38 1 2.26801 8.50101 8.49883 
39 1 1.5636 9.20602 9.20802 
13 1 6.23376 4.54338 4.49399 
14 1 7.77536 3.00074 3.0065 
15 1 7.06312 3.71203 3.70238 
28 1 10.0942 0.672412 0.674869 
29 1 8.58421 2.18967 2.19363 
30 1 9.29133 1.48589 1.48109 
1 1 6.16485 4.62014 6.14987 
2 1 7.73029 3.0322 7.74518 
3 1 7.0511 3.74308 6.98398 
40 1 10.0328 0.740697 10.0325 
41 1 8.49284 2.27367 8.49228 
42 1 9.20988 1.5602 9.21174 
49 2 5.91545 4.58704 7.33995 
7 1 6.17764 6.17211 4.5989 
8 1 7.68935 7.69039 3.08236 
9 1 6.98227 6.98018 3.78661 
43 1 10.0377 10.0403 0.736634 
44 1 8.49895 8.50094 2.26785 
45 1 9.20755 9.20586 1.5642 
22 1 6.23705 6.29718 6.21436 
23 1 7.77735 7.77443 7.77912 
24 1 7.06685 7.07526 7.06486 
34 1 10.1007 10.1002 10.1002 
35 1 8.58784 8.58551 8.58816 
36 1 9.29353 9.2984 9.29242 
ITEM: TIMESTEP
20
ITEM: NUMBER OF ATOMS
49
ITEM: BOX BOUNDS pp pp pp
0.0000000000000000e+00 1.1000000000000000e+01
0.0000000000000000e+00 1.1002000000000001e+01
0.0000000000000000e+00 1.1000000000000000e+01
ITEM: ATOMS id type x y z 
10 1 4.612 4.59694 4.56085 
11 1 3.06781 3.06676 3.08154 
12 1 3.79708 3.79264 3.74777 
46 1 0.736656 0.737134 0.740796 
47 1 2.26465 2.26901 2.26609 
48 1 1.56243 1.55432 1.56393 
19 1 4.36931 4.57683 6.14481 
20 1 3.01485 2.98729 7.79568 
21 1 3.65114 3.71271 7.04235 
31 1 0.70881 0.662608 10.1026 
32 1 2.18057 2.18323 8.59406 
33 1 1.48423 1.46707 9.30426 
16 1 4.53049 6.26716 4.51621 
17 1 2.99075 7.78114 2.99008 
18 1 3.70641 7.08239 3.70601 
25 1 0.678315 10.084 0.678929 
26 1 2.18541 8.58119 2.18682 
27 1 1.48532 9.30629 1.48401 
4 1 4.59444 6.17438 6.16159 
5 1 3.07543 7.68101 7.68975 
6 1 3.80441 6.99986 6.97736 
37 1 0.740759 10.0271 10.0338 
38 1 2.26968 8.49361 8.49982 
39 1 1.56859 9.21029 9.19979 
13 1 6.2162 4.56099 4.47382 
14 1 7.78106 2.99517 3.01195 
15 1 7.05446 3.72197 3.68137 
28 1 10.0961 0.670771 0.71518 
29 1 8.5829 2.197 2.18951 
30 1 9.29376 1.47172 1.49862 
1 1 6.10924 4.65703 6.20041 
2 1 7.71779 3.06054 7.72762 
3 1 7.17678 3.66728 6.82818 
40 1 10.0522 0.718167 10.0567 
41 1 8.53022 2.22933 8.54546 
42 1 9.24014 1.52091 9.23831 
49 2 5.84951 4.67253 7.5015 
7 1 6.18416 6.16141 4.58047 
8 1 7.68891 7.68981 3.07087 
9 1 6.99422 6.98749 3.79641 
43 1 10.033 10.0316 0.741874 
44 1 8.49933 8.49638 2.26884 
45 1 9.20131 9.21199 1.56618 
22 1 6.20738 6.32775 6.1917 
23 1 7.78291 7.76375 7.78522 
24 1 7.05596 7.10382 7.04895 
34 1 10.1046 10.0611 10.1041 
35 1 8.58334 8.59008 8.58432 
36 1 9.30005 9.28057 9.30051 
ITEM: TIMESTEP
30
ITEM: NUMBER OF ATOMS
49
ITEM: BOX BOUNDS pp pp pp
0.0000000000000000e+00 1.1000000000000000e+01
0.0000000000000000e+00 1.1002000000000001e+01
0.0000000000000000e+00 1.1000000000000000e+01
ITEM: ATOMS id type x y z 
10 1 4.61949 4.60392 4.55357 
11 1 3.07791 3.07747 3.07674 
12 1 3.79703 3.79032 3.76578 
46 1 0.740482 0.72873 0.746557 
47 1 2.26825 2.26878 2.27043 
48 1 1.56166 1.55991 1.56619 
19 1 4.39558 4.56412 6.16168 
20 1 3.01471 2.99339 7.78724 
21 1 3.65125 3.72148 7.03208 
31 1 0.700585 0.658938 10.1028 
32 1 2.19206 2.18958 8.58882 
33 1 1.49329 1.47285 9.29754 
16 1 4.53372 6.2633 4.51462 
17 1 2.99237 7.78257 2.99496 
18 1 3.70715 7.07779 3.69931 
25 1 0.67926 10.0919 0.676871 
26 1 2.18834 8.58912 2.18935 
27 1 1.47803 9.29219 1.47795 
4 1 4.59599 6.18368 6.15824 
5 1 3.08602 7.68612 7.68748 
6 1 3.79257 6.98474 6.9733 
37 1 0.746897 10.0235 10.0355 
38 1 2.27288 8.49477 8.49392 
39 1 1.56917 9.19958 9.20463 
13 1 6.21542 4.55772 4.48974 
14 1 7.76744 3.01004 3.01534 
15 1 7.04698 3.72827 3.69897 
28 1 10.0966 0.666695 0.707956 
29 1 8.57935 2.19711 2.19749 
30 1 9.29008 1.48081 1.50101 
1 1 6.14228 4.61566 6.25642 
2 1 7.72286 3.05846 7.68923 
3 1 7.17548 3.6732 6.78899 
40 1 10.0576 0.70767 10.0599 
41 1 8.5177 2.24299 8.53693 
42 1 9.22589 1.53679 9.23817 
49 2 5.80373 4.71435 7.50003 
7 1 6.18324 6.15774 4.58836 
8 1 7.68916 7.69035 3.08059 
9 1 6.9877 6.97559 3.78558 
43 1 10.0351 10.029 0.747632 
44 1 8.49506 8.49905 2.26962 
45 1 9.20576 9.20544 1.5668 
22 1 6.21549 6.3152 6.20083 
23 1 7.77277 7.76381 7.77397 
24 1 7.05067 7.09317 7.04498 
34 1 10.1081 10.0661 10.1055 
35 1 8.58114 8.58115 8.58246 
36 1 9.29466 9.27888 9.29488 
ITEM: TIMESTEP
40
ITEM: NUMBER OF ATOMS
49
ITEM: BOX BOUNDS pp pp pp
0.0000000000000000e+00 1.1000000000000000e+01
0.0000000000000000e+00 1.1002000000000001e+01
0.0000000000000000e+00 1.1000000000000000e+01
ITEM: ATOMS id type x y z 
10 1 4.62654 4.60437 4.5525 
11 1 3.07814 3.08124 3.07551 
12 1 3.80379 3.78891 3.76269 
46 1 0.736584 0.729223 0.744555 
47 1 2.26802 2.26915 2.27143 
48 1 1.56213 1.55747 1.56703 
19 1 4.39251 4.56251 6.1622 
20 1 3.00431 2.99452 7.78358 
21 1 3.64712 3.72134 7.0311 
31 1 0.699732 0.660766 10.1017 
32 1 2.19491 2.18697 8.59079 
33 1 1.49706 1.47002 9.30085 
16 1 4.53506 6.26282 4.50969 
17 1 2.99225 7.78278 2.99248 
18 1 3.70702 7.08039 3.70076 
25 1 0.676811 10.0934 0.673285 
26 1 2.18662 8.58834 2.18862 
27 1 1.47912 9.29489 1.4783 
4 1 4.59525 6.18636 6.15037 
5 1 3.08919 7.68624 7.68613 
6 1 3.79049 6.98217 6.96876 
37 1 0.745944 10.0223 10.0355 
38 1 2.27558 8.49287 8.49333 
39 1 1.5698 9.19799 9.20426 
13 1 6.21674 4.55587 4.49693 
14 1 7.76105 3.01625 3.01411 
15 1 7.04497 3.73166 3.70652 
28 1 10.0952 0.670335 0.708977 
29 1 8.57656 2.19921 2.20388 
30 1 9.28666 1.4844 1.50438 
1 1 6.12848 4.62022 6.30874 
2 1 7.74867 3.04013 7.65835 
3 1 7.18169 3.66596 6.7798 
40 1 10.0534 0.710822 10.0585 
41 1 8.51475 2.24502 8.54574 
42 1 9.22484 1.53765 9.24626 
49 2 5.80972 4.72701 7.47941 
7 1 6.18732 6.14639 4.58952 
8 1 7.688 7.68958 3.08369 
9 1 6.98609 6.96885 3.78213 
43 1 10.0349 10.0305 0.744781 
44 1 8.49445 8.49931 2.26964 
45 1 9.2073 9.20515 1.56836 
22 1 6.21315 6.31781 6.20378 
23 1 7.76956 7.76933 7.77191 
24 1 7.05181 7.0963 7.04311 
34 1 10.1085 10.0661 10.1047 
35 1 8.58145 8.57723 8.58327 
36 1 9.29569 9.27593 9.29497 
ITEM: TIMESTEP
50
ITEM: NUMBER OF ATOMS
49
ITEM: BOX BOUNDS pp pp pp
0.0000000000000000e+00 1.1000000000000000e+01
0.0000000000000000e+00 1.1002000000000001e+01
0.0000000000000000e+00 1.1000000000000000e+01
ITEM: ATOMS id type x y z 
10 1 4.62932 4.59979 4.55647 
11 1 3.08075 3.08297 3.07584 
12 1 3.80924 3.79187 3.75832 
46 1 0.735025 0.731685 0.745715 
47 1 2.26788 2.26758 2.27157 
48 1 1.55998 1.55785 1.5674 
19 1 4.38783 4.56276 6.15722 
20 1 2.99795 2.998 7.77763 
21 1 3.6414 3.72283 7.0277 
31 1 0.699693 0.657658 10.1038 
32 1 2.19922 2.18383 8.59403 
33 1 1.49627 1.46896 9.30048 
16 1 4.53432 6.26545 4.51278 
17 1 2.99086 7.78855 3.00089 
18 1 3.71208 7.07169 3.68408 
25 1 0.676866 10.0905 0.6733 
26 1 2.18437 8.59122 2.18624 
27 1 1.47465 9.29583 1.47517 
4 1 4.59013 6.18607 6.14248 
5 1 3.08856 7.68481 7.68098 
6 1 3.79589 6.98187 6.96993 
37 1 0.745977 10.022 10.0347 
38 1 2.27651 8.49176 8.49408 
39 1 1.57047 9.19839 9.20509 
13 1 6.21853 4.55416 4.50558 
14 1 7.75973 3.02174 3.01248 
15 1 7.04006 3.72918 3.71197 
28 1 10.0923 0.66987 0.712012 
29 1 8.57409 2.20006 2.20887 
30 1 9.28456 1.48888 1.50651 
1 1 6.1222 4.62553 6.33702 
2 1 7.77154 3.02569 7.62443 
3 1 7.18079 3.66356 6.77149 
40 1 10.0552 0.709352 10.0657 
41 1 8.5117 2.24736 8.55184 
42 1 9.22115 1.53966 9.24938 
49 2 5.81721 4.73401 7.48673 
7 1 6.19216 6.14044 4.58919 
8 1 7.68609 7.68708 3.08141 
9 1 6.98991 6.96739 3.78471 
43 1 10.0353 10.0327 0.746394 
44 1 8.49599 8.4996 2.27128 
45 1 9.20562 9.20616 1.56675 
22 1 6.2124 6.31859 6.20132 
23 1 7.76958 7.77223 7.7695 
24 1 7.04528 7.10195 7.04041 
34 1 10.1072 10.0654 10.104 
35 1 8.58318 8.57683 8.58461 
36 1 9.29803 9.27271 9.29751 
ITEM: TIMESTEP
60
ITEM: NUMBER OF ATOMS
49
ITEM: BOX BOUNDS pp pp pp
0.0000000000000000e+00 1.1000000000000000e+01
0.0000000000000000e+00 1.1002000000000001e+01
0.0000000000000000e+00 1.1000000000000000e+01
ITEM: ATOMS id type x y z 
10 1 4.63514 4.60027 4.55736 
11 1 3.08307 3.08401 3.0709 
12 1 3.81076 3.78952 3.75707 
46 1 0.732856 0.731938 0.746649 
47 1 2.2677 2.26721 2.27261 
48 1 1.55952 1.55891 1.56844 
19 1 4.38547 4.56253 6.15663 
20 1 2.9895 3.00013 7.77279 
21 1 3.63601 3.72483 7.02296 
31 1 0.698707 0.656552 10.1052 
32 1 2.20229 2.18147 8.59598 
33 1 1.49805 1.46715 9.3023 
16 1 4.5374 6.26288 4.50814 
17 1 2.98995 7.79166 3.00141 
18 1 3.71489 7.06957 3.67769 
25 1 0.674338 10.0915 0.670814 
26 1 2.18295 8.5914 2.18697 
27 1 1.47513 9.29569 1.4752 
4 1 4.58843 6.18436 6.13654 
5 1 3.09025 7.68459 7.68266 
6 1 3.79219 6.98432 6.96328 
37 1 0.745884 10.0216 10.0345 
38 1 2.27764 8.4913 8.49492 
39 1 1.57173 9.19654 9.20445 
13 1 6.2194 4.54951 4.51534 
14 1 7.75512 3.02458 3.01433 
15 1 7.03886 3.73285 3.71419 
28 1 10.0905 0.673783 0.713795 
29 1 8.57225 2.20389 2.21163 
30 1 9.28146 1.48848 1.51212 
1 1 6.11544 4.63056 6.3615 
2 1 7.79453 3.00807 7.58967 
3 1 7.18333 3.65946 6.76204 
40 1 10.0525 0.710691 10.0693 
41 1 8.50995 2.24957 8.55609 
42 1 9.21943 1.54113 9.25388 
49 2 5.82131 4.74255 7.50213 
7 1 6.19487 6.13462 4.5899 
8 1 7.68645 7.68616 3.08047 
9 1 6.99119 6.96322 3.78335 
43 1 10.0342 10.0332 0.747346 
44 1 8.49574 8.49934 2.27203 
45 1 9.20541 9.20672 1.56847 
22 1 6.21086 6.32178 6.19995 
23 1 7.76658 7.77842 7.76666 
24 1 7.04541 7.10449 7.03953 
34 1 10.108 10.0658 10.105 
35 1 8.58427 8.57306 8.58555 
36 1 9.29813 9.27217 9.29725 
ITEM: TIMESTEP
70
ITEM: NUMBER OF ATOMS
49
ITEM: BOX BOUNDS pp pp pp
0.0000000000000000e+00 1.1000000000000000e+01
0.0000000000000000e+00 1.1002000000000001e+01
0.0000000000000000e+00 1.1000000000000000e+01
ITEM: ATOMS id type x y z 
10 1 4.63622 4.59635 4.55493 
11 1 3.09226 3.08311 3.0624 
12 1 3.80123 3.79044 3.76637 
46 1 0.731439 0.731534 0.744817 
47 1 2.26726 2.26865 2.2702 
48 1 1.55801 1.55599 1.57175 
19 1 4.39317 4.56764 6.1629 
20 1 2.98197 3.00265 7.76492 
21 1 3.63507 3.72671 7.02241 
31 1 0.696538 0.658306 10.105 
32 1 2.20435 2.1803 8.59666 
33 1 1.49791 1.46827 9.30265 
16 1 4.54471 6.25337 4.49139 
17 1 2.99575 7.78258 2.98734 
18 1 3.71063 7.08342 3.69977 
25 1 0.673274 10.0931 0.670871 
26 1 2.18229 8.59117 2.18967 
27 1 1.47626 9.29639 1.47639 
4 1 4.58569 6.18151 6.13398 
5 1 3.09244 7.6831 7.68224 
6 1 3.78984 6.98505 6.95596 
37 1 0.74326 10.0228 10.0341 
38 1 2.27901 8.49072 8.49604 
39 1 1.5721 9.19663 9.20457 
13 1 6.22404 4.54778 4.52048 
14 1 7.75362 3.02414 3.01571 
15 1 7.0391 3.73525 3.71658 
28 1 10.0882 0.675802 0.714823 
29 1 8.57034 2.20424 2.21365 
30 1 9.28106 1.49163 1.51264 
1 1 6.11105 4.63279 6.37583 
2 1 7.81864 2.99462 7.5588 
3 1 7.1795 3.65625 6.7614 
40 1 10.0473 0.713069 10.07 
41 1 8.50845 2.24837 8.55422 
42 1 9.21874 1.54432 9.25383 
49 2 5.82173 4.74622 7.52669 
7 1 6.19481 6.13268 4.5916 
8 1 7.68699 7.68265 3.07953 
9 1 6.99196 6.96156 3.78374 
43 1 10.0323 10.0333 0.746305 
44 1 8.49445 8.49916 2.27202 
45 1 9.20661 9.20719 1.57092 
22 1 6.20857 6.32112 6.20083 
23 1 7.7633 7.78193 7.76204 
24 1 7.04263 7.10504 7.03831 
34 1 10.1074 10.0709 10.1061 
35 1 8.58498 8.57216 8.58666 
36 1 9.29862 9.27214 9.29699 
ITEM: TIMESTEP
80
ITEM: NUMBER OF ATOMS
49
ITEM: BOX BOUNDS pp pp pp
0.0000000000000000e+00 1.1000000000000000e+01
0.0000000000000000e+00 1.1002000000000001e+01
0.0000000000000000e+00 1.1000000000000000e+01
ITEM: ATOMS id type x y z 
10 1 4.63679 4.59636 4.55928 
11 1 3.08759 3.08357 3.06536 
12 1 3.81032 3.78807 3.75824 
46 1 0.730631 0.730397 0.747127 
47 1 2.26712 2.26676 2.27195 
48 1 1.55861 1.55907 1.56781 
19 1 4.3926 4.56681 6.16273 
20 1 2.9797 3.00251 7.7641 
21 1 3.63413 3.72705 7.02239 
31 1 0.695765 0.657701 10.1046 
32 1 2.204 2.18015 8.59651 
33 1 1.49821 1.46801 9.30295 
16 1 4.54239 6.25537 4.49598 
17 1 2.99526 7.7856 2.99075 
18 1 3.7122 7.07934 3.69246 
25 1 0.673607 10.0924 0.67044 
26 1 2.18255 8.59147 2.18853 
27 1 1.47442 9.29614 1.47682 
4 1 4.5864 6.18407 6.13071 
5 1 3.09197 7.68457 7.68101 
6 1 3.78894 6.98375 6.95761 
37 1 0.742697 10.0228 10.0337 
38 1 2.27856 8.49038 8.49653 
39 1 1.57335 9.19754 9.20469 
13 1 6.22163 4.54715 4.52147 
14 1 7.75266 3.02532 3.01646 
15 1 7.03875 3.73509 3.71861 
28 1 10.088 0.67573 0.714749 
29 1 8.5703 2.20536 2.21402 
30 1 9.27955 1.49096 1.51348 
1 1 6.11093 4.63402 6.38305 
2 1 7.82091 2.98961 7.55153 
3 1 7.17957 3.65736 6.76062 
40 1 10.0481 0.714124 10.0716 
41 1 8.5105 2.25032 8.55146 
42 1 9.21669 1.54319 9.25353 
49 2 5.82484 4.74591 7.53054 
7 1 6.19687 6.12958 4.5904 
8 1 7.68721 7.68171 3.07808 
9 1 6.99348 6.96242 3.78507 
43 1 10.0339 10.0345 0.747617 
44 1 8.49645 8.49975 2.27316 
45 1 9.20405 9.20726 1.56782 
22 1 6.20688 6.3209 6.20187 
23 1 7.76348 7.78368 7.76176 
24 1 7.0422 7.10582 7.03871 
34 1 10.1072 10.0699 10.1056 
35 1 8.58549 8.57161 8.5864 
36 1 9.29747 9.27282 9.29715 
ITEM: TIMESTEP
90
ITEM: NUMBER OF ATOMS
49
ITEM: BOX BOUNDS pp pp pp
0.0000000000000000e+00 1.1000000000000000e+01
0.0000000000000000e+00 1.1002000000000001e+01
0.0000000000000000e+00 1.1000000000000000e+01
ITEM: ATOMS id type x y z 
10 1 4.63843 4.5957 4.55895 
11 1 3.08893 3.08421 3.06421 
12 1 3.81015 3.78732 3.75986 
46 1 0.730547 0.730936 0.746781 
47 1 2.2671 2.26698 2.27143 
48 1 1.55841 1.55846 1.56824 
19 1 4.39308 4.56637 6.16307 
20 1 2.97826 3.00297 7.76313 
21 1 3.63387 3.72747 7.02169 
31 1 0.695287 0.657489 10.1046 
32 1 2.20376 2.18001 8.59664 
33 1 1.49797 1.4677 9.30287 
16 1 4.5422 6.25595 4.49663 
17 1 2.99584 7.78656 2.99234 
18 1 3.71285 7.07688 3.6899 
25 1 0.673446 10.0925 0.670279 
26 1 2.18247 8.59162 2.18867 
27 1 1.47444 9.29566 1.47632 
4 1 4.58564 6.18452 6.1296 
5 1 3.09161 7.68475 7.68095 
6 1 3.78849 6.98436 6.957 
37 1 0.743082 10.0237 10.0336 
38 1 2.27923 8.49119 8.49727 
39 1 1.57193 9.1967 9.20453 
13 1 6.22081 4.54711 4.52221 
14 1 7.75246 3.02567 3.01726 
15 1 7.03813 3.73527 3.71917 
28 1 10.0876 0.676124 0.715046 
29 1 8.57006 2.2059 2.21447 
30 1 9.27878 1.49107 1.51383 
1 1 6.10957 4.63518 6.38867 
2 1 7.82413 2.98702 7.54631 
3 1 7.17971 3.65655 6.75945 
40 1 10.0476 0.714524 10.0721 
41 1 8.51119 2.24982 8.54931 
42 1 9.21687 1.54378 9.25335 
49 2 5.82609 4.7461 7.53439 
7 1 6.19734 6.12939 4.59133 
8 1 7.68736 7.68227 3.07914 
9 1 6.99405 6.95969 3.78307 
43 1 10.0332 10.0346 0.747053 
44 1 8.49603 8.49972 2.27239 
45 1 9.20498 9.2076 1.56887 
22 1 6.20688 6.32082 6.20204 
23 1 7.76325 7.78464 7.76146 
24 1 7.04189 7.10669 7.03865 
34 1 10.1072 10.0701 10.1054 
35 1 8.58556 8.57153 8.58631 
36 1 9.29734 9.27295 9.29712 
ITEM: TIMESTEP
100
ITEM: NUMBER OF ATOMS
49
ITEM: BOX BOUNDS pp pp pp
0.0000000000000000e+00 1.1000000000000000e+01
0.0000000000000000e+00 1.1002000000000001e+01
0.0000000000000000e+00 1.1000000000000000e+01
ITEM: ATOMS id type x y z 
10 1 4.63857 4.59552 4.55902 
11 1 3.08905 3.08414 3.06419 
12 1 3.8101 3.78745 3.75981 
46 1 0.73054 0.730943 0.746787 
47 1 2.26714 2.26699 2.27145 
48 1 1.55841 1.55851 1.56823 
19 1 4.39316 4.56637 6.16312 
20 1 2.97812 3.00304 7.76303 
21 1 3.63383 3.72746 7.02165 
31 1 0.695272 0.657556 10.1047 
32 1 2.2038 2.18008 8.59678 
33 1 1.49784 1.46755 9.3026 
16 1 4.54223 6.25592 4.49658 
17 1 2.99588 7.78657 2.99236 
18 1 3.71289 7.07682 3.68985 
25 1 0.67342 10.0924 0.670249 
26 1 2.18245 8.5916 2.18868 
27 1 1.47449 9.2957 1.47631 
4 1 4.58547 6.18446 6.12953 
5 1 3.09148 7.68464 7.6809 
6 1 3.78867 6.9846 6.95696 
37 1 0.743015 10.0237 10.0336 
38 1 2.27922 8.49118 8.49729 
39 1 1.57194 9.19677 9.2046 
13 1 6.22079 4.54713 4.52225 
14 1 7.75242 3.02572 3.01735 
15 1 7.03807 3.7353 3.71924 
28 1 10.0874 0.676123 0.715022 
29 1 8.56993 2.20588 2.21448 
30 1 9.2789 1.4912 1.51392 
1 1 6.10945 4.6353 6.38921 
2 1 7.82444 2.98679 7.54578 
3 1 7.17971 3.65646 6.75933 
40 1 10.0475 0.714558 10.0722 
41 1 8.51132 2.24971 8.54915 
42 1 9.21687 1.54383 9.2533 
49 2 5.82619 4.74613 7.53481 
7 1 6.19742 6.1293 4.59143 
8 1 7.68742 7.68225 3.07921 
9 1 6.99402 6.95953 3.78293 
43 1 10.0332 10.0346 0.747029 
44 1 8.49601 8.49969 2.27239 
45 1 9.20498 9.20763 1.56889 
22 1 6.20682 6.32092 6.20197 
23 1 7.76316 7.78487 7.76135 
24 1 7.04193 7.10647 7.03874 
34 1 10.1071 10.0702 10.1053 
35 1 8.58549 8.57161 8.58632 
36 1 9.29749 9.27281 9.2971 
ITEM: TIMESTEP
101
ITEM: NUMBER OF ATOMS
49
ITEM: BOX BOUNDS pp pp pp
0.0000000000000000e+00 1.1000000000000000e+01
0.0000000000000000e+00 1.1002000000000001e+01
0.0000000000000000e+00 1.1000000000000000e+01
ITEM: ATOMS id type x y z 
10 1 4.63857 4.59552 4.55902 
11 1 3.08905 3.08414 3.06419 
12 1 3.8101 3.78745 3.7598 
46 1 0.73054 0.730943 0.746787 
47 1 2.26714 2.26699 2.27145 
48 1 1.55841 1.55851 1.56823 
19 1 4.39316 4.56637 6.16312 
20 1 2.97812 3.00304 7.76303 
21 1 3.63383 3.72746 7.02165 
31 1 0.695272 0.657556 10.1047 
32 1 2.2038 2.18008 8.59678 
33 1 1.49784 1.46755 9.3026 
16 1 4.54223 6.25592 4.49658 
17 1 2.99588 7.78657 2.99236 
18 1 3.71289 7.07682 3.68985 
25 1 0.67342 10.0924 0.67025 
26 1 2.18245 8.5916 2.18868 
27 1 1.47449 9.2957 1.47631 
4 1 4.58547 6.18446 6.12953 
5 1 3.09148 7.68464 7.6809 
6 1 3.78867 6.9846 6.95696 
37 1 0.743015 10.0237 10.0336 
38 1 2.27922 8.49118 8.49729 
39 1 1.57194 9.19677 9.2046 
13 1 6.22079 4.54713 4.52225 
14 1 7.75242 3.02572 3.01735 
15 1 7.03807 3.7353 3.71924 
28 1 10.0874 0.676123 0.715022 
29 1 8.56993 2.20588 2.21448 
30 1 9.2789 1.4912 1.51392 
1 1 6.10945 4.6353 6.38921 
2 1 7.82444 2.98679 7.54578 
3 1 7.17971 3.65646 6.75933 
40 1 10.0475 0.714558 10.0722 
41 1 8.51132 2.24971 8.54915 
42 1 9.21687 1.54383 9.2533 
49 2 5.82619 4.74613 7.53481 
7 1 6.19742 6.1293 4.59143 
8 1 7.68742 7.68225 3.07921 
9 1 6.99402 6.95953 3.78293 
43 1 10.0332 10.0346 0.747029 
44 1 8.49601 8.49969 2.2724 
45 1 9.20498 9.20763 1.56889 
22 1 6.20682 6.32092 6.20197 
23 1 7.76316 7.78487 7.76135 
24 1 7.04193 7.10647 7.03874 
34 1 10.1071 10.0702 10.1053 
35 1 8.58549 8.57161 8.58632 
36 1 9.29749 9.27281 9.2971 
ITEM: TIMESTEP
110
ITEM: NUMBER OF ATOMS
49
ITEM: BOX BOUNDS pp pp pp
0.0000000000000000e+00 1.1000000000000000e+01
0.0000000000000000e+00 1.1002000000000001e+01
0.0000000000000000e+00 1.1000000000000000e+01
ITEM: ATOMS id type x y z 
10 1 4.63857 4.59551 4.55903 
11 1 3.08905 3.08414 3.06419 
12 1 3.81011 3.78745 3.7598 
46 1 0.730538 0.730943 0.746787 
47 1 2.26714 2.26699 2.27145 
48 1 1.55841 1.55852 1.56823 
19 1 4.39317 4.56637 6.16312 
20 1 2.9781 3.00304 7.76302 
21 1 3.63382 3.72747 7.02164 
31 1 0.695282 0.657565 10.1048 
32 1 2.20382 2.18009 8.5968 
33 1 1.4978 1.46753 9.30255 
16 1 4.54223 6.25591 4.49658 
17 1 2.99588 7.78656 2.99236 
18 1 3.7129 7.07683 3.68984 
25 1 0.673419 10.0924 0.670249 
26 1 2.18245 8.5916 2.18868 
27 1 1.47449 9.2957 1.47631 
4 1 4.58547 6.18447 6.12952 
5 1 3.09149 7.68465 7.6809 
6 1 3.78865 6.98459 6.95695 
37 1 0.743012 10.0237 10.0336 
38 1 2.27922 8.49118 8.4973 
39 1 1.57194 9.19677 9.20461 
13 1 6.22079 4.54713 4.52225 
14 1 7.75241 3.02572 3.01736 
15 1 7.03807 3.7353 3.71924 
28 1 10.0874 0.676133 0.715017 
29 1 8.56993 2.20589 2.21447 
30 1 9.2789 1.4912 1.51394 
1 1 6.10944 4.63531 6.38927 
2 1 7.82447 2.98677 7.54572 
3 1 7.17971 3.65645 6.75932 
40 1 10.0475 0.714561 10.0722 
41 1 8.51133 2.24971 8.54913 
42 1 9.21687 1.54384 9.25329 
49 2 5.8262 4.74613 7.53485 
7 1 6.19743 6.12928 4.59142 
8 1 7.68742 7.68224 3.0792 
9 1 6.99402 6.95954 3.78294 
43 1 10.0332 10.0346 0.747037 
44 1 8.49601 8.4997 2.27241 
45 1 9.20497 9.20761 1.56887 
22 1 6.20682 6.32092 6.20197 
23 1 7.76315 7.78488 7.76136 
24 1 7.04194 7.10648 7.03872 
34 1 10.1071 10.0702 10.1053 
35 1 8.5855 8.57161 8.58632 
36 1 9.29748 9.27283 9.2971 
ITEM: TIMESTEP
112
ITEM: NUMBER OF ATOMS
49
ITEM: BOX BOUNDS pp pp pp
0.0000000000000000e+00 1.1000000000000000e+01
0.0000000000000000e+00 1.1002000000000001e+01
0.0000000000000000e+00 1.1000000000000000e+01
ITEM: ATOMS id type x y z 
10 1 4.63857 4.59551 4.55903 
11 1 3.08906 3.08414 3.06419 
12 1 3.81011 3.78745 3.7598 
46 1 0.730539 0.730942 0.746787 
47 1 2.26714 2.26699 2.27145 
48 1 1.55841 1.55852 1.56823 
19 1 4.39317 4.56637 6.16312 
20 1 2.9781 3.00304 7.76302 
21 1 3.63382 3.72747 7.02164 
31 1 0.695281 0.657565 10.1048 
32 1 2.20382 2.18009 8.5968 
33 1 1.49781 1.46753 9.30254 
16 1 4.54223 6.25591 4.49658 
17 1 2.99588 7.78656 2.99236 
18 1 3.7129 7.07683 3.68984 
25 1 0.673419 10.0924 0.670249 
26 1 2.18245 8.5916 2.18868 
27 1 1.47449 9.2957 1.47631 
4 1 4.58547 6.18447 6.12952 
5 1 3.09149 7.68465 7.6809 
6 1 3.78865 6.98459 6.95695 
37 1 0.743012 10.0237 10.0336 
38 1 2.27922 8.49118 8.4973 
39 1 1.57194 9.19677 9.20461 
13 1 6.22079 4.54713 4.52225 
14 1 7.75241 3.02572 3.01736 
15 1 7.03807 3.7353 3.71924 
28 1 10.0874 0.676133 0.715018 
29 1 8.56993 2.20589 2.21448 
30 1 9.2789 1.4912 1.51394 
1 1 6.10944 4.63531 6.38927 
2 1 7.82448 2.98677 7.54572 
3 1 7.17971 3.65645 6.75932 
40 1 10.0475 0.714562 10.0722 
41 1 8.51133 2.24971 8.54913 
42 1 9.21687 1.54384 9.25329 
49 2 5.8262 4.74613 7.53485 
7 1 6.19743 6.12928 4.59142 
8 1 7.68742 7.68224 3.0792 
9 1 6.99402 6.95954 3.78294 
43 1 10.0332 10.0346 0.747036 
44 1 8.49601 8.4997 2.27241 
45 1 9.20498 9.20761 1.56887 
22 1 6.20682 6.32092 6.20197 
23 1 7.76315 7.78488 7.76135 
24 1 7.04194 7.10648 7.03872 
34 1 10.1071 10.0702 10.1053 
35 1 8.5855 8.57161 8.58632 
36 1 9.29748 9.27283 9.2971 
ITEM: TIMESTEP
120
ITEM: NUMBER OF ATOMS
49
ITEM: BOX BOUNDS pp pp pp
-4.3968214624968754e-03 1.1004396821462494e+01
-4.4008000000000016e-03 1.1006400800000000e+01
-3.9627185463687580e-03 1.1003962718546369e+01
ITEM: ATOMS id type x y z 
10 1 4.63791 4.59482 4.55841 
11 1 3.08715 3.08222 3.06245 
12 1 3.80873 3.78606 3.75853 
46 1 0.72668 0.727088 0.743316 
47 1 2.26454 2.26439 2.26911 
48 1 1.55522 1.55532 1.56537 
19 1 4.39232 4.56565 6.16358 
20 1 2.97609 3.00106 7.76463 
21 1 3.63236 3.72607 7.02271 
31 1 0.691381 0.653643 10.1081 
32 1 2.20117 2.17742 8.59905 
33 1 1.49462 1.46431 9.30526 
16 1 4.5415 6.25648 4.4959 
17 1 2.9939 7.78838 2.99057 
18 1 3.7115 7.07805 3.68857 
25 1 0.669505 10.0961 0.666717 
26 1 2.17978 8.59408 2.18628 
27 1 1.4713 9.29873 1.47343 
4 1 4.58477 6.18498 6.12992 
5 1 3.08957 7.68638 7.68245 
6 1 3.78727 6.98579 6.95803 
37 1 0.739166 10.0274 10.0369 
38 1 2.27663 8.49359 8.49947 
39 1 1.56876 9.19976 9.20731 
13 1 6.22133 4.54641 4.52157 
14 1 7.7542 3.02375 3.0156 
15 1 7.03927 3.73391 3.71796 
28 1 10.0911 0.672219 0.711515 
29 1 8.5724 2.20324 2.2121 
30 1 9.2819 1.48801 1.51108 
1 1 6.10989 4.63466 6.38991 
2 1 7.82632 2.98477 7.54714 
3 1 7.18109 3.65494 6.76026 
40 1 10.0512 0.71069 10.0755 
41 1 8.51375 2.24709 8.55132 
42 1 9.21989 1.54063 9.25604 
49 2 5.82645 4.74553 7.53632 
7 1 6.19795 6.12975 4.59082 
8 1 7.68916 7.68396 3.07748 
9 1 6.99523 6.96073 3.78168 
43 1 10.0368 10.0383 0.743563 
44 1 8.49842 8.50211 2.27006 
45 1 9.20797 9.21062 1.56601 
22 1 6.20735 6.32155 6.20245 
23 1 7.76495 7.7867 7.76296 
24 1 7.04314 7.10774 7.03981 
34 1 10.1108 10.0739 10.1087 
35 1 8.58798 8.57408 8.58856 
36 1 9.30051 9.27583 9.29981 
ITEM: TIMESTEP
130
ITEM: NUMBER OF ATOMS
49
ITEM: BOX BOUNDS pp pp pp
-8.6615527285018052e-03 1.1008661552728503e+01
-8.8013192023077783e-03 1.1010801319202304e+01
-1.9410439163438853e-03 1.1001941043916341e+01
ITEM: ATOMS id type x y z 
10 1 4.63784 4.59477 4.55962 
11 1 3.08564 3.08054 3.06355 
12 1 3.80705 3.78439 3.7589 
46 1 0.722216 0.722568 0.744325 
47 1 2.26163 2.26135 2.26986 
48 1 1.55172 1.5518 1.5664 
19 1 4.3921 4.56548 6.16303 
20 1 2.97439 2.99948 7.76328 
21 1 3.63126 3.72506 7.02182 
31 1 0.6867 0.648899 10.1073 
32 1 2.19833 2.17451 8.59814 
33 1 1.4918 1.46137 9.30362 
16 1 4.54135 6.25638 4.49704 
17 1 2.99242 7.78975 2.99188 
18 1 3.7105 7.07897 3.68963 
25 1 0.664877 10.1007 0.667634 
26 1 2.17697 8.59681 2.18724 
27 1 1.46845 9.30145 1.47521 
4 1 4.58472 6.18479 6.12881 
5 1 3.08794 7.68788 7.6814 
6 1 3.78562 6.9873 6.95774 
37 1 0.734742 10.0317 10.0359 
38 1 2.27369 8.49645 8.49885 
39 1 1.56532 9.2031 9.20634 
13 1 6.22115 4.54637 4.52217 
14 1 7.75561 3.02209 3.0169 
15 1 7.04029 3.7327 3.71874 
28 1 10.0956 0.667501 0.712322 
29 1 8.57501 2.20038 2.21306 
30 1 9.28454 1.48507 1.51284 
1 1 6.1098 4.63457 6.38941 
2 1 7.828 2.98294 7.54574 
3 1 7.1828 3.65297 6.76032 
40 1 10.0554 0.706144 10.0747 
41 1 8.51659 2.24403 8.55041 
42 1 9.22325 1.53701 9.25511 
49 2 5.82656 4.74501 7.53547 
7 1 6.19772 6.12964 4.59192 
8 1 7.69059 7.68539 3.0786 
9 1 6.99677 6.96222 3.78205 
43 1 10.041 10.0427 0.744569 
44 1 8.50118 8.50494 2.27081 
45 1 9.21125 9.214 1.56706 
22 1 6.20733 6.32176 6.20168 
23 1 7.76629 7.78818 7.76168 
24 1 7.04395 7.10879 7.03893 
34 1 10.1152 10.0785 10.1079 
35 1 8.59062 8.57679 8.58767 
36 1 9.30317 9.27858 9.29814 
ITEM: TIMESTEP
140
ITEM: NUMBER OF ATOMS
49
ITEM: BOX BOUNDS pp pp pp
-1.2995041521919911e-02 1.1012995041521920e+01
-1.3447791858048709e-02 1.1015447791858046e+01
-5.9907124002635888e-04 1.1000599071240023e+01
ITEM: ATOMS id type x y z 
10 1 4.63793 4.59478 4.56088 
11 1 3.08404 3.07877 3.06433 
12 1 3.80544 3.78255 3.75906 
46 1 0.717567 0.71778 0.744682 
47 1 2.25835 2.25794 2.26992 
48 1 1.54847 1.54823 1.56715 
19 1 4.39206 4.56542 6.1625 
20 1 2.97287 2.99807 7.76193 
21 1 3.63 3.72386 7.02121 
31 1 0.681981 0.643853 10.1071 
32 1 2.19547 2.17144 8.59762 
33 1 1.48888 1.45825 9.30238 
16 1 4.54138 6.25616 4.49823 
17 1 2.99123 7.79099 2.99317 
18 1 3.70927 7.08001 3.69028 
25 1 0.660081 10.1055 0.667884 
26 1 2.17409 8.59962 2.18781 
27 1 1.46564 9.30444 1.4765 
4 1 4.58481 6.18453 6.12767 
5 1 3.08627 7.68953 7.68062 
6 1 3.78389 6.98885 6.95762 
37 1 0.73016 10.0364 10.0355 
38 1 2.27044 8.49971 8.49889 
39 1 1.562 9.20645 9.20563 
13 1 6.22077 4.54653 4.52278 
14 1 7.7569 3.02049 3.01822 
15 1 7.04121 3.73146 3.7191 
28 1 10.1001 0.662484 0.712593 
29 1 8.57768 2.19733 2.21366 
30 1 9.28721 1.48202 1.51407 
1 1 6.10966 4.63455 6.38897 
2 1 7.82986 2.98086 7.54461 
3 1 7.18439 3.65104 6.76048 
40 1 10.0598 0.701334 10.0745 
41 1 8.51983 2.24046 8.55012 
42 1 9.22638 1.53348 9.25437 
49 2 5.82668 4.74445 7.53485 
7 1 6.19748 6.12932 4.59311 
8 1 7.69216 7.6869 3.07944 
9 1 6.9982 6.96378 3.7821 
43 1 10.0454 10.0474 0.744932 
44 1 8.50427 8.50818 2.2709 
45 1 9.21434 9.21735 1.56781 
22 1 6.20712 6.3219 6.20088 
23 1 7.76735 7.78956 7.76044 
24 1 7.04494 7.10998 7.03829 
34 1 10.1198 10.0833 10.1077 
35 1 8.59333 8.57961 8.58715 
36 1 9.30584 9.28154 9.29693 
ITEM: TIMESTEP
150
ITEM: NUMBER OF ATOMS
49
ITEM: BOX BOUNDS pp pp pp
-1.6528567379478408e-02 1.1016528567379481e+01
-1.7304711354345050e-02 1.1019304711354343e+01
-1.6860022458075154e-04 1.1000168600224576e+01
ITEM: ATOMS id type x y z 
10 1 4.63816 4.59478 4.5619 
11 1 3.08279 3.07729 3.06465 
12 1 3.80406 3.78102 3.75897 
46 1 0.713741 0.713688 0.744345 
47 1 2.25564 2.25497 2.2695 
48 1 1.54575 1.5454 1.56732 
19 1 4.39217 4.56547 6.16206 
20 1 2.97167 2.99701 7.76092 
21 1 3.62901 3.72285 7.02097 
31 1 0.67809 0.639639 10.1076 
32 1 2.1931 2.1689 8.59756 
33 1 1.48656 1.45566 9.30185 
16 1 4.54151 6.25582 4.49916 
17 1 2.99036 7.79188 2.99399 
18 1 3.70827 7.08098 3.69062 
25 1 0.656191 10.1096 0.667473 
26 1 2.17181 8.60201 2.18786 
27 1 1.46324 9.30676 1.47708 
4 1 4.58492 6.18424 6.12675 
5 1 3.08488 7.69089 7.68021 
6 1 3.78251 6.99017 6.95777 
37 1 0.726322 10.0403 10.0358 
38 1 2.26768 8.50249 8.49938 
39 1 1.55933 9.20923 9.20548 
13 1 6.22022 4.54686 4.52317 
14 1 7.75777 3.0193 3.01908 
15 1 7.04201 3.73043 3.7193 
28 1 10.1038 0.658311 0.712215 
29 1 8.57984 2.19481 2.21372 
30 1 9.28939 1.47947 1.51464 
1 1 6.10954 4.63457 6.38869 
2 1 7.83141 2.9791 7.54384 
3 1 7.18562 3.64946 6.76088 
40 1 10.0634 0.697292 10.0749 
41 1 8.52263 2.2374 8.55026 
42 1 9.22891 1.53058 9.25421 
49 2 5.82679 4.74398 7.53456 
7 1 6.19718 6.12893 4.59402 
8 1 7.69337 7.68816 3.07978 
9 1 6.99953 6.96508 3.782 
43 1 10.049 10.0513 0.744588 
44 1 8.50688 8.51095 2.27048 