ITEM: TIMESTEP
0
ITEM: NUMBER OF ATOMS
33
ITEM: BOX BOUNDS pp pp pp
0.0000000000000000e+00 7.0970000000000004e+00
0.0000000000000000e+00 7.0970000000000004e+00
0.0000000000000000e+00 2.4588000000000001e+01
ITEM: ATOMS id type x y z 
2 1 3.339 1.632 13.319 
5 1 4.651 1.581 18.133 
7 1 3.391 1.602 15.981 
8 1 2.166 1.581 18.134 
18 1 3.408 1.581 17.416 
21 1 3.338 2.875 12.602 
23 1 3.367 1.619 14.753 
24 1 3.338 0.39 12.601 
17 1 7.023 2.875 24.28 
19 1 6.997 1.619 22.129 
20 1 7.023 0.39 24.281 
22 1 6.957 1.581 19.466 
25 1 5.714 1.581 18.748 
27 1 6.974 1.602 20.9 
28 1 1.102 1.581 18.748 
30 1 7.024 1.631 23.563 
10 1 6.954 5.232 5.122 
13 1 7.023 3.938 0.307 
15 1 6.994 5.194 2.459 
16 1 7.023 6.423 0.307 
26 1 7.022 5.181 1.025 
29 1 5.711 5.232 5.839 
31 1 6.97 5.211 3.688 
32 1 1.098 5.232 5.84 
1 1 4.647 5.232 6.454 
3 1 3.388 5.211 8.606 
4 1 2.163 5.232 6.454 
6 1 3.338 5.182 11.269 
9 1 3.338 3.939 11.986 
11 1 3.365 5.194 9.834 
12 1 3.338 6.423 11.987 
14 1 3.404 5.232 7.171 
33 2 4.465 5.194 9.834 
ITEM: TIMESTEP
10
ITEM: NUMBER OF ATOMS
33
ITEM: BOX BOUNDS pp pp pp
0.0000000000000000e+00 7.0970000000000004e+00
0.0000000000000000e+00 7.0970000000000004e+00
0.0000000000000000e+00 2.4588000000000001e+01
ITEM: ATOMS id type x y z 
2 1 3.33975 1.63087 13.3152 
5 1 4.65465 1.58105 18.1343 
7 1 3.39122 1.60177 15.9779 
8 1 2.16311 1.58096 18.1366 
18 1 3.40798 1.58098 17.417 
21 1 3.338 2.87043 12.6061 
23 1 3.36729 1.61921 14.7587 
24 1 3.3382 0.40137 12.6033 
17 1 7.02145 2.88014 24.2786 
19 1 6.99715 1.61932 22.1243 
20 1 7.02145 0.388655 24.2864 
22 1 6.95699 1.58098 19.4657 
25 1 5.71036 1.58103 18.7467 
27 1 6.97342 1.60186 20.9044 
28 1 1.10505 1.58096 18.7453 
30 1 7.02485 1.63104 23.5626 
10 1 6.95501 5.23118 5.10298 
13 1 7.02442 3.9324 0.308393 
15 1 6.99349 5.19363 2.45976 
16 1 7.02499 6.42437 0.301489 
26 1 7.02125 5.18142 1.02533 
29 1 5.71672 5.23184 5.83532 
31 1 6.97 5.21104 3.68137 
32 1 1.08784 5.2313 5.83467 
1 1 4.6616 5.23409 6.44495 
3 1 3.3229 5.20326 8.53676 
4 1 2.14585 5.23415 6.44109 
6 1 3.33275 5.18591 11.3402 
9 1 3.33703 3.93124 11.9926 
11 1 3.35796 5.18119 9.77469 
12 1 3.3371 6.43159 11.9969 
14 1 3.40163 5.24114 7.17041 
33 2 4.55155 5.1926 9.92583 
ITEM: TIMESTEP
20
ITEM: NUMBER OF ATOMS
33
ITEM: BOX BOUNDS pp pp pp
0.0000000000000000e+00 7.0970000000000004e+00
0.0000000000000000e+00 7.0970000000000004e+00
0.0000000000000000e+00 2.4588000000000001e+01
ITEM: ATOMS id type x y z 
2 1 3.34106 1.63418 13.3153 
5 1 4.65557 1.58091 18.1345 
7 1 3.39137 1.6017 15.9826 
8 1 2.16286 1.58086 18.1377 
18 1 3.408 1.58084 17.4209 
21 1 3.3384 2.87186 12.6026 
23 1 3.36819 1.61988 14.7636 
24 1 3.33885 0.399397 12.6003 
17 1 7.0237 2.88003 24.2751 
19 1 6.99629 1.61967 22.1238 
20 1 7.02425 0.391901 24.2883 
22 1 6.95697 1.58101 19.4659 
25 1 5.71096 1.58092 18.7477 
27 1 6.9734 1.60173 20.9039 
28 1 1.10389 1.58088 18.7452 
30 1 7.02367 1.63143 23.5613 
10 1 6.95177 5.22896 5.09991 
13 1 7.0224 3.92947 0.309991 
15 1 6.99362 5.19344 2.45068 
16 1 7.02286 6.42416 0.297543 
26 1 7.02258 5.18119 1.01921 
29 1 5.71855 5.23348 5.83249 
31 1 6.96944 5.20976 3.67202 
32 1 1.08502 5.23314 5.83314 
1 1 4.6666 5.2366 6.44713 
3 1 3.28814 5.21031 8.53456 
4 1 2.14305 5.23508 6.43349 
6 1 3.31127 5.1835 11.3556 
9 1 3.33358 3.93831 11.9981 
11 1 3.42007 5.17372 9.78008 
12 1 3.33268 6.42601 12.0007 
14 1 3.3979 5.23711 7.16534 
33 2 4.55606 5.19153 9.93765 
ITEM: TIMESTEP
30
ITEM: NUMBER OF ATOMS
33
ITEM: BOX BOUNDS pp pp pp
0.0000000000000000e+00 7.0970000000000004e+00
0.0000000000000000e+00 7.0970000000000004e+00
0.0000000000000000e+00 2.4588000000000001e+01
ITEM: ATOMS id type x y z 
2 1 3.35082 1.63474 13.3206 
5 1 4.65617 1.58075 18.1351 
7 1 3.39121 1.60236 15.9856 
8 1 2.16283 1.58059 18.1394 
18 1 3.40803 1.58043 17.4244 
21 1 3.33642 2.86693 12.6034 
23 1 3.37026 1.62037 14.7668 
24 1 3.33737 0.403568 12.6011 
17 1 7.02454 2.87621 24.2751 
19 1 6.99428 1.61966 22.1229 
20 1 7.02546 0.393574 24.2849 
22 1 6.95681 1.58088 19.4656 
25 1 5.71146 1.58075 18.7486 
27 1 6.97383 1.60198 20.9028 
28 1 1.10288 1.58077 18.7449 
30 1 7.0241 1.63295 23.5596 
10 1 6.94847 5.22786 5.07021 
13 1 7.02204 3.9284 0.305809 
15 1 6.99664 5.19217 2.43471 
16 1 7.02195 6.42766 0.296276 
26 1 7.02231 5.17955 1.00908 
29 1 5.7226 5.2376 5.82803 
31 1 6.96676 5.21003 3.6578 
32 1 1.07564 5.23364 5.82473 
1 1 4.67513 5.23282 6.44505 
3 1 3.23303 5.20553 8.56285 
4 1 2.13679 5.23582 6.42134 
6 1 3.28515 5.18315 11.3667 
9 1 3.32042 3.93992 12.0081 
11 1 3.49402 5.17253 9.8007 
12 1 3.31868 6.42611 12.0087 
14 1 3.39047 5.24415 7.14904 
33 2 4.59641 5.18952 9.9663 
ITEM: TIMESTEP
40
ITEM: NUMBER OF ATOMS
33
ITEM: BOX BOUNDS pp pp pp
0.0000000000000000e+00 7.0970000000000004e+00
0.0000000000000000e+00 7.0970000000000004e+00
0.0000000000000000e+00 2.4588000000000001e+01
ITEM: ATOMS id type x y z 
2 1 3.35094 1.63454 13.3205 
5 1 4.6562 1.58064 18.1351 
7 1 3.39063 1.602 15.9862 
8 1 2.16277 1.58061 18.1396 
18 1 3.40803 1.58053 17.4246 
21 1 3.3367 2.86735 12.6033 
23 1 3.37153 1.62086 14.7671 
24 1 3.3371 0.403205 12.6009 
17 1 7.02364 2.87584 24.2748 
19 1 6.99571 1.6201 22.1228 
20 1 7.02422 0.394018 24.2848 
22 1 6.95685 1.58091 19.4655 
25 1 5.71143 1.58082 18.7486 
27 1 6.97297 1.60171 20.9025 
28 1 1.1029 1.58068 18.7449 
30 1 7.02407 1.63265 23.5592 
10 1 6.94859 5.22898 5.07317 
13 1 7.0228 3.92795 0.305362 
15 1 6.99467 5.1919 2.4337 
16 1 7.02354 6.42795 0.295638 
26 1 7.02257 5.18002 1.00848 
29 1 5.72092 5.23572 5.82889 
31 1 6.9677 5.2096 3.65632 
32 1 1.07695 5.23314 5.8249 
1 1 4.67428 5.23446 6.4456 
3 1 3.23267 5.20574 8.5627 
4 1 2.13647 5.2367 6.42047 
6 1 3.28387 5.18314 11.3638 
9 1 3.31895 3.93973 12.0087 
11 1 3.49593 5.17266 9.79473 
12 1 3.31774 6.42624 12.0093 
14 1 3.38892 5.24317 7.15451 
33 2 4.60074 5.1894 9.96926 
ITEM: TIMESTEP
50
ITEM: NUMBER OF ATOMS
33
ITEM: BOX BOUNDS pp pp pp
0.0000000000000000e+00 7.0970000000000004e+00
0.0000000000000000e+00 7.0970000000000004e+00
0.0000000000000000e+00 2.4588000000000001e+01
ITEM: ATOMS id type x y z 
2 1 3.35372 1.63444 13.3215 
5 1 4.6562 1.58058 18.1354 
7 1 3.39036 1.60209 15.9875 
8 1 2.16282 1.58044 18.1401 
18 1 3.40786 1.58051 17.4255 
21 1 3.33616 2.86882 12.603 
23 1 3.37327 1.6212 14.7683 
24 1 3.33606 0.401633 12.6002 
17 1 7.0233 2.87447 24.2743 
19 1 6.99654 1.61998 22.1218 
20 1 7.02393 0.39506 24.2837 
22 1 6.95684 1.58076 19.4652 
25 1 5.71147 1.58068 18.7487 
27 1 6.97228 1.60222 20.9014 
28 1 1.10272 1.58057 18.7448 
30 1 7.02393 1.63238 23.5573 
10 1 6.94809 5.23025 5.07981 
13 1 7.02335 3.92719 0.303762 
15 1 6.99225 5.19108 2.43234 
16 1 7.02405 6.42904 0.29463 
26 1 7.02371 5.18053 1.00455 
29 1 5.71568 5.23234 5.83082 
31 1 6.96836 5.20963 3.65399 
32 1 1.07816 5.23322 5.82299 
1 1 4.67088 5.23767 6.44837 
3 1 3.22698 5.20642 8.55736 
4 1 2.13753 5.23762 6.41886 
6 1 3.27829 5.18299 11.3563 
9 1 3.314 3.94159 12.0101 
11 1 3.50886 5.17303 9.78301 
12 1 3.31341 6.42438 12.0103 
14 1 3.38432 5.24135 7.1686 
33 2 4.61762 5.18884 9.98172 
ITEM: TIMESTEP
60
ITEM: NUMBER OF ATOMS
33
ITEM: BOX BOUNDS pp pp pp
0.0000000000000000e+00 7.0970000000000004e+00
0.0000000000000000e+00 7.0970000000000004e+00
0.0000000000000000e+00 2.4588000000000001e+01
ITEM: ATOMS id type x y z 
2 1 3.36459 1.63351 13.3185 
5 1 4.655 1.58017 18.1358 
7 1 3.39006 1.60084 15.9858 
8 1 2.16386 1.58018 18.1417 
18 1 3.40738 1.58079 17.4256 
21 1 3.33176 2.87533 12.6029 
23 1 3.38019 1.62405 14.7659 
24 1 3.32863 0.395821 12.5982 
17 1 7.02198 2.87283 24.2733 
19 1 6.99718 1.62023 22.1179 
20 1 7.02288 0.39565 24.2809 
22 1 6.95726 1.57963 19.4622 
25 1 5.71055 1.58031 18.7483 
27 1 6.96987 1.60427 20.8971 
28 1 1.10281 1.57997 18.744 
30 1 7.02526 1.63161 23.5532 
10 1 6.94026 5.22938 5.08413 
13 1 7.02485 3.92755 0.298939 
15 1 6.99949 5.1906 2.43342 
16 1 7.02607 6.43027 0.292048 
26 1 7.0205 5.18056 1.00032 
29 1 5.70174 5.23673 5.83565 
31 1 6.96167 5.20762 3.65412 
32 1 1.07789 5.23401 5.81278 
1 1 4.66195 5.23642 6.45702 
3 1 3.20271 5.20676 8.57191 
4 1 2.13706 5.23882 6.41043 
6 1 3.25594 5.18295 11.323 
9 1 3.2954 3.94883 12.0132 
11 1 3.56968 5.17563 9.77852 
12 1 3.30217 6.4153 12.014 
14 1 3.37117 5.24027 7.17584 
33 2 4.67518 5.1861 10.0293 
ITEM: TIMESTEP
70
ITEM: NUMBER OF ATOMS
33
ITEM: BOX BOUNDS pp pp pp
0.0000000000000000e+00 7.0970000000000004e+00
0.0000000000000000e+00 7.0970000000000004e+00
0.0000000000000000e+00 2.4588000000000001e+01
ITEM: ATOMS id type x y z 
2 1 3.36666 1.63381 13.3164 
5 1 4.65432 1.58001 18.1355 
7 1 3.39062 1.60352 15.9835 
8 1 2.16518 1.57982 18.1412 
18 1 3.4076 1.5798 17.4238 
21 1 3.32965 2.87706 12.603 
23 1 3.37922 1.62269 14.7647 
24 1 3.33174 0.393403 12.5982 
17 1 7.02413 2.87305 24.2727 
19 1 6.99539 1.62131 22.1171 
20 1 7.02432 0.396096 24.2805 
22 1 6.95669 1.58044 19.4617 
25 1 5.71046 1.58026 18.7482 
27 1 6.97071 1.6025 20.8975 
28 1 1.10261 1.58008 18.744 
30 1 7.02502 1.63198 23.5527 
10 1 6.93767 5.23027 5.08356 
13 1 7.02342 3.9283 0.298935 
15 1 6.99331 5.18879 2.43408 
16 1 7.02436 6.42861 0.291928 
26 1 7.02434 5.18116 1.00085 
29 1 5.701 5.23421 5.83598 
31 1 6.96441 5.20866 3.6553 
32 1 1.07768 5.23469 5.81105 
1 1 4.65943 5.23803 6.459 
3 1 3.20397 5.2069 8.5702 
4 1 2.13655 5.23842 6.40918 
6 1 3.25354 5.18245 11.3289 
9 1 3.29422 3.94977 12.012 
11 1 3.57894 5.17619 9.77576 
12 1 3.29401 6.415 12.0133 
14 1 3.36808 5.24009 7.18003 
33 2 4.68376 5.18565 10.035 
ITEM: TIMESTEP
80
ITEM: NUMBER OF ATOMS
33
ITEM: BOX BOUNDS pp pp pp
0.0000000000000000e+00 7.0970000000000004e+00
0.0000000000000000e+00 7.0970000000000004e+00
0.0000000000000000e+00 2.4588000000000001e+01
ITEM: ATOMS id type x y z 
2 1 3.37042 1.63416 13.3101 
5 1 4.65301 1.57999 18.1348 
7 1 3.39076 1.60326 15.979 
8 1 2.16609 1.57981 18.1409 
18 1 3.40762 1.57983 17.4196 
21 1 3.32661 2.87944 12.6044 
23 1 3.38134 1.62304 14.7597 
24 1 3.32835 0.390533 12.5998 
17 1 7.02523 2.87402 24.2724 
19 1 6.99528 1.62113 22.1165 
20 1 7.02505 0.394724 24.2796 
22 1 6.9562 1.5803 19.4603 
25 1 5.70904 1.58015 18.7472 
27 1 6.97059 1.60259 20.8964 
28 1 1.10405 1.57995 18.7429 
30 1 7.02378 1.6325 23.5524 
10 1 6.93189 5.23034 5.08491 
13 1 7.02434 3.92943 0.297747 
15 1 6.99071 5.18843 2.43539 
16 1 7.02498 6.42852 0.291217 
26 1 7.02443 5.18024 1.00307 
29 1 5.6932 5.23479 5.83889 
31 1 6.96373 5.20866 3.65676 
32 1 1.07718 5.23513 5.80639 
1 1 4.65403 5.23768 6.46386 
3 1 3.21043 5.20718 8.57601 
4 1 2.13517 5.2384 6.40631 
6 1 3.24497 5.18189 11.3289 
9 1 3.28868 3.95072 12.0106 
11 1 3.60149 5.17792 9.77344 
12 1 3.28835 6.41406 12.0105 
14 1 3.36228 5.23983 7.18361 
33 2 4.70371 5.18438 10.0523 
ITEM: TIMESTEP
90
ITEM: NUMBER OF ATOMS
33
ITEM: BOX BOUNDS pp pp pp
0.0000000000000000e+00 7.0970000000000004e+00
0.0000000000000000e+00 7.0970000000000004e+00
0.0000000000000000e+00 2.4588000000000001e+01
ITEM: ATOMS id type x y z 
2 1 3.38261 1.63136 13.2892 
5 1 4.64719 1.57968 18.1274 
7 1 3.39516 1.60356 15.9543 
8 1 2.1716 1.57819 18.1357 
18 1 3.40629 1.58038 17.3979 
21 1 3.31722 2.89366 12.5959 
23 1 3.3899 1.62364 14.7342 
24 1 3.31069 0.373064 12.5884 
17 1 7.02646 2.89175 24.2438 
19 1 6.99044 1.62183 22.1107 
20 1 7.025 0.388675 24.2735 
22 1 6.95671 1.57898 19.4502 
25 1 5.70191 1.57978 18.742 
27 1 6.97036 1.60315 20.8914 
28 1 1.10813 1.57946 18.7369 
30 1 7.02992 1.6277 23.5537 
10 1 6.89211 5.23906 5.10214 
13 1 7.02382 3.92651 0.30279 
15 1 7.01214 5.18137 2.45135 
16 1 7.02108 6.42334 0.289791 
26 1 7.01692 5.18338 1.00806 
29 1 5.65201 5.22133 5.85648 
31 1 6.94475 5.21266 3.67063 
32 1 1.06528 5.23626 5.77505 
1 1 4.62057 5.24423 6.48831 
3 1 3.28334 5.21135 8.59862 
4 1 2.1146 5.23831 6.38835 
6 1 3.20513 5.18207 11.2762 
9 1 3.25959 3.97052 12.0146 
11 1 3.72251 5.18625 9.8152 
12 1 3.24916 6.39631 12.012 
14 1 3.32798 5.23809 7.20598 
33 2 4.81239 5.17708 10.1552 
ITEM: TIMESTEP
100
ITEM: NUMBER OF ATOMS
33
ITEM: BOX BOUNDS pp pp pp
0.0000000000000000e+00 7.0970000000000004e+00
0.0000000000000000e+00 7.0970000000000004e+00
0.0000000000000000e+00 2.4588000000000001e+01
ITEM: ATOMS id type x y z 
2 1 3.38161 1.63275 13.2861 
5 1 4.64786 1.57983 18.1267 
7 1 3.39622 1.60366 15.9535 
8 1 2.17078 1.57852 18.1344 
18 1 3.4068 1.58028 17.3965 
21 1 3.31421 2.892 12.5986 
23 1 3.38998 1.62336 14.7342 
24 1 3.30986 0.376759 12.5918 
17 1 7.02619 2.88843 24.2491 
19 1 6.99592 1.62288 22.1102 
20 1 7.02433 0.388365 24.2739 
22 1 6.95552 1.57916 19.4515 
25 1 5.70237 1.5796 18.741 
27 1 6.96736 1.60205 20.8902 
28 1 1.10819 1.57911 18.7347 
30 1 7.02715 1.63162 23.5482 
10 1 6.89212 5.23566 5.09769 
13 1 7.02387 3.92938 0.298047 
15 1 6.99752 5.18276 2.4492 
16 1 7.02327 6.42458 0.289219 
26 1 7.02322 5.17958 1.01178 
29 1 5.65109 5.23549 5.85434 
31 1 6.94793 5.20756 3.6697 
32 1 1.06295 5.23767 5.77627 
1 1 4.618 5.23439 6.4885 
3 1 3.29831 5.21218 8.59283 
4 1 2.11209 5.238 6.39027 
6 1 3.20144 5.18137 11.2867 
9 1 3.25625 3.96449 12.0095 
11 1 3.73054 5.18553 9.8352 
12 1 3.24914 6.39989 12.0071 
14 1 3.32442 5.23921 7.20645 
33 2 4.81651 5.17688 10.1528 
ITEM: TIMESTEP
110
ITEM: NUMBER OF ATOMS
33
ITEM: BOX BOUNDS pp pp pp
0.0000000000000000e+00 7.0970000000000004e+00
0.0000000000000000e+00 7.0970000000000004e+00
0.0000000000000000e+00 2.4588000000000001e+01
ITEM: ATOMS id type x y z 
2 1 3.38013 1.63292 13.2885 
5 1 4.64813 1.57976 18.1256 
7 1 3.39751 1.60358 15.9543 
8 1 2.16958 1.57848 18.1323 
18 1 3.40699 1.58027 17.3963 
21 1 3.31187 2.89186 12.5988 
23 1 3.38991 1.62327 14.7344 
24 1 3.30928 0.378561 12.5922 
17 1 7.02545 2.88624 24.2528 
19 1 6.99507 1.62177 22.1091 
20 1 7.02526 0.388819 24.2735 
22 1 6.95536 1.57878 19.4504 
25 1 5.70251 1.57938 18.7399 
27 1 6.96815 1.60251 20.889 
28 1 1.10827 1.5797 18.7343 
30 1 7.02594 1.63226 23.5471 
10 1 6.88987 5.23629 5.09592 
13 1 7.02554 3.93115 0.294925 
15 1 6.98605 5.18164 2.44729 
16 1 7.02572 6.42557 0.289074 
26 1 7.02628 5.17946 1.01232 
29 1 5.64948 5.23582 5.85395 
31 1 6.94908 5.20674 3.66824 
32 1 1.06043 5.23738 5.77744 
1 1 4.61616 5.23534 6.48671 
3 1 3.31254 5.2125 8.59678 
4 1 2.10902 5.23882 6.39243 
6 1 3.19608 5.18128 11.2883 
9 1 3.25346 3.96081 12.0061 
11 1 3.73754 5.18526 9.8428 
12 1 3.24895 6.4021 12.0045 
14 1 3.32461 5.23815 7.20676 
33 2 4.82277 5.17653 10.1539 
ITEM: TIMESTEP
120
ITEM: NUMBER OF ATOMS
33
ITEM: BOX BOUNDS pp pp pp
0.0000000000000000e+00 7.0970000000000004e+00
0.0000000000000000e+00 7.0970000000000004e+00
0.0000000000000000e+00 2.4588000000000001e+01
ITEM: ATOMS id type x y z 
2 1 3.37666 1.63326 13.2912 
5 1 4.64894 1.58002 18.1236 
7 1 3.40111 1.60382 15.9561 
8 1 2.16831 1.57842 18.1291 
18 1 3.40685 1.58039 17.3964 
21 1 3.30647 2.89041 12.598 
23 1 3.39009 1.62287 14.7362 
24 1 3.30597 0.379323 12.5911 
17 1 7.02582 2.88157 24.2586 
19 1 6.99425 1.62021 22.1073 
20 1 7.02683 0.389365 24.2726 
22 1 6.95555 1.57943 19.4493 
25 1 5.70359 1.57983 18.7376 
27 1 6.96876 1.60246 20.8871 
28 1 1.10615 1.5781 18.7301 
30 1 7.02417 1.63253 23.5452 
10 1 6.88679 5.23435 5.09403 
13 1 7.02686 3.9336 0.289229 
15 1 6.97974 5.18322 2.44482 
16 1 7.02804 6.42692 0.289653 
26 1 7.02837 5.17904 1.01045 
29 1 5.64574 5.23596 5.85415 
31 1 6.93595 5.20779 3.66583 
32 1 1.05633 5.23825 5.7822 
1 1 4.60965 5.23739 6.48119 
3 1 3.3455 5.21206 8.60207 
4 1 2.10227 5.23909 6.4007 
6 1 3.18505 5.18149 11.2873 
9 1 3.24683 3.95673 11.9989 
11 1 3.75696 5.18548 9.85541 
12 1 3.24563 6.40712 11.9983 
14 1 3.32386 5.23709 7.21162 
33 2 4.83995 5.17541 10.1605 
ITEM: TIMESTEP
130
ITEM: NUMBER OF ATOMS
33
ITEM: BOX BOUNDS pp pp pp
0.0000000000000000e+00 7.0970000000000004e+00
0.0000000000000000e+00 7.0970000000000004e+00
0.0000000000000000e+00 2.4588000000000001e+01
ITEM: ATOMS id type x y z 
2 1 3.37363 1.63316 13.2893 
5 1 4.64967 1.57962 18.1225 
7 1 3.40288 1.60267 15.9545 
8 1 2.16609 1.57993 18.1254 
18 1 3.40771 1.57961 17.3972 
21 1 3.30251 2.89082 12.5944 
23 1 3.39043 1.62331 14.735 
24 1 3.30119 0.379159 12.5887 
17 1 7.02615 2.88078 24.2596 
19 1 6.99439 1.62096 22.1067 
20 1 7.0256 0.389722 24.2719 
22 1 6.95534 1.5793 19.4467 
25 1 5.70479 1.57963 18.7362 
27 1 6.96838 1.59963 20.8869 
28 1 1.10574 1.57977 18.7296 
30 1 7.02483 1.63101 23.5457 
10 1 6.88419 5.23532 5.09626 
13 1 7.02846 3.93374 0.288122 
15 1 6.97468 5.18463 2.44574 
16 1 7.02813 6.42698 0.289243 
26 1 7.03184 5.18087 1.00942 
29 1 5.64314 5.23695 5.85301 
31 1 6.92467 5.20642 3.66621 
32 1 1.05368 5.23694 5.78712 
1 1 4.60422 5.2369 6.47661 
3 1 3.36627 5.21172 8.60571 
4 1 2.0966 5.23973 6.4104 
6 1 3.18038 5.1817 11.2826 
9 1 3.24186 3.95659 11.996 
11 1 3.77525 5.18562 9.86149 
12 1 3.23961 6.40771 11.9936 
14 1 3.3246 5.2377 7.21451 
33 2 4.85608 5.1744 10.1697 
ITEM: TIMESTEP
131
ITEM: NUMBER OF ATOMS
33
ITEM: BOX BOUNDS pp pp pp
0.0000000000000000e+00 7.0970000000000004e+00
0.0000000000000000e+00 7.0970000000000004e+00
0.0000000000000000e+00 2.4588000000000001e+01
ITEM: ATOMS id type x y z 
2 1 3.37363 1.63316 13.2893 
5 1 4.64967 1.57962 18.1225 
7 1 3.40288 1.60267 15.9545 
8 1 2.16609 1.57993 18.1254 
18 1 3.40771 1.57961 17.3972 
21 1 3.30251 2.89082 12.5944 
23 1 3.39043 1.62331 14.735 
24 1 3.30119 0.379159 12.5887 
17 1 7.02615 2.88078 24.2596 
19 1 6.99439 1.62096 22.1067 
20 1 7.0256 0.389722 24.2719 
22 1 6.95534 1.5793 19.4467 
25 1 5.70479 1.57963 18.7362 
27 1 6.96838 1.59963 20.8869 
28 1 1.10574 1.57977 18.7296 
30 1 7.02483 1.63101 23.5457 
10 1 6.88419 5.23532 5.09626 
13 1 7.02846 3.93374 0.288122 
15 1 6.97468 5.18463 2.44574 
16 1 7.02813 6.42698 0.289243 
26 1 7.03184 5.18087 1.00942 
29 1 5.64314 5.23695 5.85301 
31 1 6.92467 5.20642 3.66621 
32 1 1.05368 5.23694 5.78712 
1 1 4.60422 5.2369 6.47661 
3 1 3.36627 5.21172 8.60571 
4 1 2.0966 5.23973 6.4104 
6 1 3.18038 5.1817 11.2826 
9 1 3.24186 3.95659 11.996 
11 1 3.77525 5.18562 9.86149 
12 1 3.23961 6.40771 11.9936 
14 1 3.3246 5.2377 7.21451 
33 2 4.85608 5.1744 10.1697 
ITEM: TIMESTEP
132
ITEM: NUMBER OF ATOMS
33
ITEM: BOX BOUNDS pp pp pp
0.0000000000000000e+00 7.0970000000000004e+00
0.0000000000000000e+00 7.0970000000000004e+00
0.0000000000000000e+00 2.4588000000000001e+01
ITEM: ATOMS id type x y z 
2 1 3.37363 1.63316 13.2893 
5 1 4.64967 1.57962 18.1225 
7 1 3.40288 1.60267 15.9545 
8 1 2.16609 1.57993 18.1254 
18 1 3.40771 1.57961 17.3972 
21 1 3.30251 2.89082 12.5944 
23 1 3.39043 1.62331 14.735 
24 1 3.30119 0.379159 12.5887 
17 1 7.02615 2.88078 24.2596 
19 1 6.99439 1.62096 22.1067 
20 1 7.0256 0.389722 24.2719 
22 1 6.95534 1.5793 19.4467 
25 1 5.70479 1.57963 18.7362 
27 1 6.96838 1.59963 20.8869 
28 1 1.10574 1.57977 18.7296 
30 1 7.02483 1.63101 23.5457 
10 1 6.88419 5.23532 5.09626 
13 1 7.02846 3.93374 0.288122 
15 1 6.97468 5.18463 2.44574 
16 1 7.02813 6.42698 0.289243 
26 1 7.03184 5.18087 1.00942 
29 1 5.64314 5.23695 5.85301 
31 1 6.92467 5.20642 3.66621 
32 1 1.05368 5.23694 5.78712 
1 1 4.60422 5.2369 6.47661 
3 1 3.36627 5.21172 8.60571 
4 1 2.0966 5.23973 6.4104 
6 1 3.18038 5.1817 11.2826 
9 1 3.24186 3.95659 11.996 
11 1 3.77525 5.18562 9.86149 
12 1 3.23961 6.40771 11.9936 
14 1 3.3246 5.2377 7.21451 
33 2 4.85608 5.1744 10.1697 
ITEM: TIMESTEP
140
ITEM: NUMBER OF ATOMS
33
ITEM: BOX BOUNDS pp pp pp
-1.5761339004534401e-03 7.0985761339004538e+00
-9.6248071651193305e-04 7.0979624807165127e+00
-9.8352000000000005e-03 2.4597835199999999e+01
ITEM: ATOMS id type x y z 
2 1 3.37355 1.63264 13.2901 
5 1 4.65016 1.57908 18.1272 
7 1 3.40282 1.60215 15.9574 
8 1 2.16547 1.57939 18.13 
18 1 3.40764 1.57907 17.4013 
21 1 3.30239 2.89069 12.5946 
23 1 3.39035 1.62278 14.7369 
24 1 3.30107 0.378225 12.5889 
17 1 7.0277 2.8806 24.2691 
19 1 6.99592 1.62043 22.1145 
20 1 7.02715 0.388856 24.2815 
22 1 6.95685 1.57876 19.4524 
25 1 5.70574 1.57909 18.7413 
27 1 6.9699 1.59912 20.8938 
28 1 1.10467 1.57923 18.7348 
30 1 7.02636 1.63049 23.5547 
10 1 6.88567 5.23578 5.09051 
13 1 7.03001 3.93384 0.278513 
15 1 6.97619 5.18507 2.43788 
16 1 7.02968 6.42777 0.279636 
26 1 7.03339 5.18131 1.00039 
29 1 5.64399 5.2374 5.84791 
31 1 6.92617 5.20689 3.65928 
32 1 1.05259 5.2374 5.78193 
1 1 4.60475 5.23736 6.47191 
3 1 3.36621 5.21217 8.60276 
4 1 2.09593 5.24018 6.40569 
6 1 3.18021 5.18214 11.2818 
9 1 3.24172 3.95664 11.9957 
11 1 3.77537 5.18606 9.85956 
12 1 3.23947 6.40858 11.9934 
14 1 3.32452 5.23816 7.21044 
33 2 4.85668 5.17484 10.168 
ITEM: TIMESTEP
150
ITEM: NUMBER OF ATOMS
33
ITEM: BOX BOUNDS pp pp pp
-3.9827256869297278e-03 7.1009827256869293e+00
-2.3474448654122000e-03 7.0993474448654128e+00
-2.1328258683811267e-02 2.4609328258683806e+01
ITEM: ATOMS id type x y z 
2 1 3.37338 1.63182 13.291 
5 1 4.65111 1.57831 18.1327 
7 1 3.40273 1.60145 15.9601 
8 1 2.16434 1.57862 18.1356 
18 1 3.40754 1.5783 17.406 
21 1 3.30218 2.89075 12.5947 
23 1 3.39023 1.62199 14.7398 
24 1 3.30085 0.376364 12.5888 
17 1 7.03008 2.88048 24.2804 
19 1 6.99824 1.6196 22.1233 
20 1 7.02955 0.38748 24.2928 
22 1 6.95916 1.57797 19.4592 
25 1 5.70699 1.57832 18.7472 
27 1 6.97223 1.59846 20.9021 
28 1 1.10323 1.57845 18.7406 
30 1 7.02867 1.62976 23.5651 
10 1 6.88793 5.23641 5.08375 
13 1 7.03239 3.93387 0.267216 
15 1 6.97847 5.18569 2.42908 
16 1 7.03207 6.42902 0.268344 
26 1 7.03571 5.18191 0.989898 
29 1 5.64468 5.23801 5.8423 
31 1 6.92844 5.20759 3.65083 
32 1 1.05128 5.2381 5.77613 
1 1 4.60595 5.23806 6.46611 
3 1 3.36624 5.21283 8.59927 
4 1 2.09461 5.24081 6.40006 
6 1 3.18001 5.18279 11.2807 
9 1 3.24151 3.95638 11.9957 
11 1 3.77555 5.1867 9.8574 
12 1 3.2393 6.41049 11.9936 
14 1 3.32446 5.23882 7.20559 
33 2 4.85764 5.17547 10.1661 
ITEM: TIMESTEP
152
ITEM: NUMBER OF ATOMS
33
ITEM: BOX BOUNDS pp pp pp
-4.1915477411604094e-03 7.1011915477411600e+00
-2.6297535055521569e-03 7.0996297535055524e+00
-2.2557658683811269e-02 2.4610557658683806e+01
ITEM: ATOMS id type x y z 
2 1 3.37336 1.63166 13.2911 
5 1 4.65121 1.57815 18.1334 
7 1 3.40272 1.60131 15.9604 
8 1 2.16422 1.57846 18.1362 
18 1 3.40753 1.57814 17.4065 
21 1 3.30216 2.89073 12.5947 
23 1 3.39022 1.62184 14.7401 
24 1 3.30082 0.37605 12.5888 
17 1 7.03029 2.88046 24.2816 
19 1 6.99845 1.61944 22.1242 
20 1 7.02976 0.3872 24.294 
22 1 6.95937 1.57781 19.4599 
25 1 5.70707 1.57816 18.7478 
27 1 6.97243 1.59833 20.9031 
28 1 1.10313 1.57829 18.7413 
30 1 7.02886 1.62962 23.5662 
10 1 6.88813 5.23654 5.08303 
13 1 7.0326 3.93387 0.266 
15 1 6.97866 5.18582 2.42816 
16 1 7.03228 6.42928 0.267129 
26 1 7.03591 5.18204 0.988779 
29 1 5.64471 5.23814 5.8417 
31 1 6.92863 5.20773 3.6499 
32 1 1.05119 5.23824 5.77553 
1 1 4.60607 5.2382 6.46549 
3 1 3.36626 5.21296 8.59889 
4 1 2.09447 5.24094 6.39945 
6 1 3.18 5.18292 11.2806 
9 1 3.24149 3.95636 11.9957 
11 1 3.77557 5.18683 9.85718 
12 1 3.23928 6.4108 11.9936 
14 1 3.32445 5.23895 7.20507 
33 2 4.85772 5.1756 10.1659 
ITEM: TIMESTEP
153
ITEM: NUMBER OF ATOMS
33
ITEM: BOX BOUNDS pp pp pp
-4.1915477411604094e-03 7.1011915477411600e+00
-2.6297535055521569e-03 7.0996297535055524e+00
-2.2557658683811269e-02 2.4610557658683806e+01
ITEM: ATOMS id type x y z 
2 1 3.37336 1.63166 13.2911 
5 1 4.65121 1.57815 18.1334 
7 1 3.40272 1.60131 15.9604 
8 1 2.16422 1.57846 18.1362 
18 1 3.40753 1.57814 17.4065 
21 1 3.30216 2.89073 12.5947 
23 1 3.39022 1.62184 14.7401 
24 1 3.30082 0.37605 12.5888 
17 1 7.03029 2.88046 24.2816 
19 1 6.99845 1.61944 22.1242 
20 1 7.02976 0.3872 24.294 
22 1 6.95937 1.57781 19.4599 
25 1 5.70707 1.57816 18.7478 
27 1 6.97243 1.59833 20.9031 
28 1 1.10313 1.57829 18.7413 
30 1 7.02886 1.62962 23.5662 
10 1 6.88813 5.23654 5.08303 
13 1 7.0326 3.93387 0.266 
15 1 6.97866 5.18582 2.42816 
16 1 7.03228 6.42928 0.267129 
26 1 7.03591 5.18204 0.988779 
29 1 5.64471 5.23814 5.8417 
31 1 6.92863 5.20773 3.6499 
32 1 1.05119 5.23824 5.77553 
1 1 4.60607 5.2382 6.46549 
3 1 3.36626 5.21296 8.59889 
4 1 2.09447 5.24094 6.39945 
6 1 3.18 5.18292 11.2806 
9 1 3.24149 3.95636 11.9957 
11 1 3.77557 5.18683 9.85718 
12 1 3.23928 6.4108 11.9936 
14 1 3.32445 5.23895 7.20507 
33 2 4.85772 5.1756 10.1659 
ITEM: TIMESTEP
154
ITEM: NUMBER OF ATOMS
33
ITEM: BOX BOUNDS pp pp pp
-4.1915477411604094e-03 7.1011915477411600e+00
-2.6297535055521569e-03 7.0996297535055524e+00
-2.2557658683811269e-02 2.4610557658683806e+01
ITEM: ATOMS id type x y z 
2 1 3.37336 1.63166 13.2911 
5 1 4.65121 1.57815 18.1334 
7 1 3.40272 1.60131 15.9604 
8 1 2.16422 1.57846 18.1362 
18 1 3.40753 1.57814 17.4065 
21 1 3.30216 2.89073 12.5947 
23 1 3.39022 1.62184 14.7401 
24 1 3.30082 0.37605 12.5888 
17 1 7.03029 2.88046 24.2816 
19 1 6.99845 1.61944 22.1242 
20 1 7.02976 0.3872 24.294 
22 1 6.95937 1.57781 19.4599 
25 1 5.70707 1.57816 18.7478 
27 1 6.97243 1.59833 20.9031 
28 1 1.10313 1.57829 18.7413 
30 1 7.02886 1.62962 23.5662 
10 1 6.88813 5.23654 5.08303 
13 1 7.0326 3.93387 0.266 
15 1 6.97866 5.18582 2.42816 
16 1 7.03228 6.42928 0.267129 
26 1 7.03591 5.18204 0.988779 
29 1 5.64471 5.23814 5.8417 
31 1 6.92863 5.20773 3.6499 
32 1 1.05119 5.23824 5.77553 
1 1 4.60607 5.2382 6.46549 
3 1 3.36626 5.21296 8.59889 
4 1 2.09447 5.24094 6.39945 
6 1 3.18 5.18292 11.2806 
9 1 3.24149 3.95636 11.9957 
11 1 3.77557 5.18683 9.85718 
12 1 3.23928 6.4108 11.9936 
14 1 3.32445 5.23895 7.20507 
33 2 4.85772 5.1756 10.1659 
ITEM: TIMESTEP
155
ITEM: NUMBER OF ATOMS
33
ITEM: BOX BOUNDS pp pp pp
-4.1915477411604094e-03 7.1011915477411600e+00
-2.6297535055521569e-03 7.0996297535055524e+00
-2.2557658683811269e-02 2.4610557658683806e+01
ITEM: ATOMS id type x y z 
2 1 3.37336 1.63166 13.2911 
5 1 4.65121 1.57815 18.1334 
7 1 3.40272 1.60131 15.9604 
8 1 2.16422 1.57846 18.1362 
18 1 3.40753 1.57814 17.4065 
21 1 3.30216 2.89073 12.5947 
23 1 3.39022 1.62184 14.7401 
24 1 3.30082 0.37605 12.5888 
17 1 7.03029 2.88046 24.2816 
19 1 6.99845 1.61944 22.1242 
20 1 7.02976 0.3872 24.294 
22 1 6.95937 1.57781 19.4599 
25 1 5.70707 1.57816 18.7478 
27 1 6.97243 1.59833 20.9031 
28 1 1.10313 1.57829 18.7413 
30 1 7.02886 1.62962 23.5662 
10 1 6.88813 5.23654 5.08303 
13 1 7.0326 3.93387 0.266 
15 1 6.97866 5.18582 2.42816 
16 1 7.03228 6.42928 0.267129 
26 1 7.03591 5.18204 0.988779 
29 1 5.64471 5.23814 5.8417 
31 1 6.92863 5.20773 3.6499 
32 1 1.05119 5.23824 5.77553 
1 1 4.60607 5.2382 6.46549 
3 1 3.36626 5.21296 8.59889 
4 1 2.09447 5.24094 6.39945 
6 1 3.18 5.18292 11.2806 
9 1 3.24149 3.95636 11.9957 
11 1 3.77557 5.18683 9.85718 
12 1 3.23928 6.4108 11.9936 
14 1 3.32445 5.23895 7.20507 
33 2 4.85772 5.1756 10.1659 
