ITEM: TIMESTEP
0
ITEM: NUMBER OF ATOMS
129
ITEM: BOX BOUNDS xy xz yz pp pp pp
0.0000000000000000e+00 2.3654499999999999e+01 7.8845000000000001e+00
0.0000000000000000e+00 1.3658086643083999e+01 0.0000000000000000e+00
0.0000000000000000e+00 2.5747000000000000e+01 0.0000000000000000e+00
ITEM: ATOMS id type x y z 
18 1 10.522 6.683 2.644 
28 1 5.247 4.273 12.803 
31 1 9.65 6.514 0.446 
62 1 9.171 5.15 12.405 
91 1 9.65 6.514 11.889 
92 1 10.81 6.18 11.007 
106 1 10.522 6.683 9.691 
127 1 10.81 6.18 1.328 
4 1 4.402 5.735 13.319 
5 1 3.307 5.568 14.201 
43 1 4.549 6.796 15.517 
52 1 9.172 5.15 25.677 
66 1 4.402 5.735 24.762 
67 1 5.003 6.76 23.881 
88 1 5.247 4.273 25.278 
107 1 3.307 5.568 23.881 
116 1 4.549 6.796 22.565 
117 1 5.003 6.76 14.201 
11 1 11.272 7.494 3.321 
12 1 10.477 8.871 4.018 
14 1 9.018 11.397 0.446 
15 1 10.114 11.565 1.328 
16 1 8.412 9.024 0.654 
19 1 10.477 8.871 5.569 
29 1 10.927 10.156 3.321 
32 1 8.77 7.648 1.328 
35 1 12.036 9.594 2.644 
45 1 9.231 8.963 3.321 
47 1 12.762 8.702 0.446 
49 1 11.224 11 0.654 
51 1 8.872 10.337 2.644 
53 1 11.272 7.494 9.014 
54 1 10.477 8.871 8.317 
56 1 9.018 11.397 11.889 
57 1 8.418 10.372 11.007 
58 1 11.224 11 11.681 
60 1 12.255 7.901 9.691 
61 1 10.477 8.871 6.766 
73 1 9.231 8.963 9.014 
75 1 12.762 8.702 11.889 
76 1 12.202 10.061 11.007 
79 1 9.224 7.617 9.691 
80 1 8.174 12.859 12.405 
89 1 10.927 10.156 9.014 
93 1 8.412 9.024 11.681 
95 1 9.951 11.095 9.691 
105 1 10.114 11.565 11.007 
109 1 8.77 7.648 11.007 
110 1 12.036 9.594 9.691 
114 1 8.872 10.337 9.691 
119 1 8.418 10.372 1.328 
120 1 12.255 7.901 2.644 
123 1 12.202 10.061 1.328 
124 1 9.224 7.617 2.644 
128 1 9.951 11.095 2.644 
6 1 5.009 8.108 13.527 
13 1 9.663 10.28 25.128 
17 1 9.204 8.965 25.162 
30 1 10.016 7.556 25.128 
34 1 11.289 7.464 25.162 
36 1 8.174 12.859 25.677 
46 1 11.752 8.777 25.128 
50 1 10.937 10.184 25.162 
55 1 9.663 10.28 12.954 
59 1 10.937 10.184 12.919 
74 1 11.752 8.777 12.954 
78 1 11.289 7.464 12.919 
90 1 10.016 7.556 12.954 
94 1 9.204 8.965 12.919 
101 1 5.009 8.108 24.555 
33 1 11.795 6.589 0.654 
77 1 11.795 6.589 11.681 
41 1 17.967 6.132 13.527 
68 1 17.967 6.132 24.554 
103 1 19.24 6.037 22.565 
126 1 19.24 6.037 15.517 
3 1 19.528 6.852 12.254 
7 1 19.987 8.167 12.289 
10 1 15.106 8.528 12.804 
22 1 19.175 9.576 12.254 
26 1 17.902 9.668 12.289 
38 1 17.439 8.356 12.254 
42 1 18.254 6.949 12.289 
44 1 20.019 11.982 12.804 
48 1 12.546 7.4 1.328 
65 1 19.528 6.852 0.081 
69 1 18.254 6.949 0.046 
82 1 17.439 8.356 0.081 
86 1 17.902 9.668 0.046 
96 1 14.084 8.604 12.405 
98 1 19.175 9.576 0.081 
102 1 19.987 8.167 0.046 
113 1 12.546 7.4 11.007 
1 1 17.919 9.638 16.194 
2 1 18.714 8.261 16.892 
8 1 18.669 10.449 15.517 
9 1 18.714 8.261 18.442 
20 1 14.084 8.604 25.677 
21 1 18.264 6.977 16.194 
23 1 19.541 10.618 13.32 
24 1 20.421 9.484 14.201 
25 1 17.396 10.544 13.527 
27 1 17.155 7.538 15.517 
37 1 19.96 8.169 16.194 
39 1 16.429 8.43 13.319 
40 1 16.644 9.732 14.201 
63 1 17.919 9.638 21.888 
64 1 18.714 8.261 21.19 
70 1 16.936 9.231 22.565 
71 1 18.714 8.261 19.64 
72 1 20.019 11.982 25.278 
81 1 19.96 8.169 21.888 
83 1 16.429 8.43 24.762 
84 1 16.989 7.071 23.881 
85 1 17.396 10.544 24.555 
87 1 19.967 9.515 22.565 
97 1 18.263 6.977 21.888 
99 1 19.541 10.618 24.762 
100 1 18.38 10.953 23.881 
104 1 15.106 8.528 25.278 
108 1 18.669 10.449 22.565 
111 1 20.421 9.484 23.881 
112 1 17.155 7.538 22.565 
115 1 16.644 9.732 23.881 
118 1 16.936 9.231 15.517 
121 1 16.989 7.071 14.201 
122 1 19.967 9.515 15.517 
125 1 18.38 10.953 14.201 
129 2 18.646 11.234 16.28 
ITEM: TIMESTEP
10
ITEM: NUMBER OF ATOMS
129
ITEM: BOX BOUNDS xy xz yz pp pp pp
0.0000000000000000e+00 2.3654499999999999e+01 7.8845000000000001e+00
0.0000000000000000e+00 1.3658086643083999e+01 0.0000000000000000e+00
0.0000000000000000e+00 2.5747000000000000e+01 0.0000000000000000e+00
ITEM: ATOMS id type x y z 
18 1 10.3985 6.72852 2.64682 
28 1 5.07457 4.63858 12.9059 
31 1 9.41813 6.55518 0.454675 
62 1 9.14812 5.23111 12.3686 
91 1 9.39659 6.53191 11.8802 
92 1 10.6585 6.19447 10.9462 
106 1 10.3897 6.73196 9.68367 
127 1 10.6665 6.21091 1.3823 
4 1 4.45866 5.76103 13.2198 
5 1 3.10645 5.63914 14.2296 
43 1 4.56332 6.93502 15.4943 
52 1 9.13746 5.20542 25.6994 
66 1 4.45506 5.79293 24.8202 
67 1 5.11339 6.94751 23.918 
88 1 5.07246 4.63997 25.1711 
107 1 3.13599 5.64595 23.8516 
116 1 4.56263 6.93139 22.6355 
117 1 5.14967 6.95867 14.1735 
11 1 11.2491 7.59335 3.4204 
12 1 10.5274 8.7716 4.09791 
14 1 8.97197 11.3622 0.358061 
15 1 10.2915 11.4857 1.37318 
16 1 8.36491 8.90505 0.687466 
19 1 10.472 8.86715 5.56427 
29 1 10.9579 10.1294 3.34272 
32 1 8.64637 7.66606 1.29979 
35 1 12.0671 9.59096 2.58425 
45 1 9.21829 8.93802 3.28249 
47 1 12.7036 8.84855 0.566107 
49 1 11.3739 10.9357 0.661035 
51 1 8.85226 10.1725 2.59871 
53 1 11.243 7.59921 8.91552 
54 1 10.5365 8.7757 8.23308 
56 1 8.96511 11.3465 11.9546 
57 1 8.30126 10.1823 11.0468 
58 1 11.3662 10.9172 11.6628 
60 1 12.3011 8.09204 9.62501 
61 1 10.4727 8.86655 6.77693 
73 1 9.19737 8.92602 9.04106 
75 1 12.686 8.84278 11.7798 
76 1 12.2988 10.0773 11.0135 
79 1 9.18558 7.67637 9.76649 
80 1 8.34756 12.4912 12.2988 
89 1 10.9651 10.1354 8.99251 
93 1 8.3674 8.8986 11.6601 
95 1 10.0715 11.0422 9.70678 
105 1 10.3063 11.4799 10.9897 
109 1 8.66691 7.66223 11.0551 
110 1 12.0639 9.58143 9.72846 
114 1 8.84558 10.1877 9.74223 
119 1 8.2804 10.1587 1.30761 
120 1 12.2986 8.09744 2.70371 
123 1 12.3065 10.0322 1.32535 
124 1 9.17888 7.69635 2.57855 
128 1 10.0711 11.0412 2.61747 
6 1 5.05853 8.23304 13.5381 
13 1 9.61624 10.2251 25.0592 
17 1 9.14688 8.95638 25.1393 
30 1 9.92949 7.73315 25.044 
34 1 11.2405 7.48221 25.203 
36 1 8.34709 12.4944 25.7817 
46 1 11.7154 8.8777 25.0528 
50 1 10.9768 10.1567 25.1736 
55 1 9.61864 10.2465 13.0156 
59 1 10.9781 10.1654 12.921 
74 1 11.6713 8.85042 13.0288 
78 1 11.2219 7.48338 12.8887 
90 1 10.0152 7.74923 13.0483 
94 1 9.09339 8.97298 12.9206 
101 1 5.05521 8.22188 24.5411 
33 1 11.7735 6.69958 0.639254 
77 1 11.784 6.68806 11.684 
41 1 17.8342 6.20397 13.5202 
68 1 17.8364 6.20127 24.5621 
103 1 19.132 6.091 22.5911 
126 1 19.1341 6.09268 15.5027 
3 1 19.569 6.89253 12.1747 
7 1 20.0599 8.19614 12.2851 
10 1 15.1043 8.42563 12.8343 
22 1 19.2182 9.41489 12.193 
26 1 18.0393 9.57014 12.2396 
38 1 17.4923 8.19711 12.1977 
42 1 18.1784 6.99061 12.3132 
44 1 20.1249 11.9112 12.7934 
48 1 12.599 7.59419 1.35751 
65 1 19.5776 6.87654 0.154863 
69 1 18.2164 7.02634 0.0238465 
82 1 17.5213 8.2836 0.133513 
86 1 17.9372 9.62442 0.00129164 
96 1 14.0341 8.69636 12.3357 
98 1 19.2822 9.38706 0.131608 
102 1 20.0293 8.19332 0.0323275 
113 1 12.6074 7.58835 10.9666 
1 1 17.8677 9.45825 16.2693 
2 1 18.6859 8.33027 16.9893 
8 1 18.8215 10.4736 15.5691 
9 1 18.7145 8.27046 18.4424 
20 1 14.021 8.70236 25.7534 
21 1 18.2646 6.97602 16.2182 
23 1 19.788 10.6588 13.3136 
24 1 20.4899 9.45912 14.2672 
25 1 17.4277 10.5675 13.5401 
27 1 17.1498 7.47614 15.4916 
37 1 19.9723 8.17035 16.1497 
39 1 16.4686 8.25844 13.3929 
40 1 16.5759 9.61072 14.2445 
63 1 17.8709 9.55912 21.8391 
64 1 18.6828 8.3012 21.0687 
70 1 16.9149 9.08892 22.44 
71 1 18.7223 8.26325 19.6464 
72 1 20.0726 11.8498 25.2567 
81 1 19.9583 8.21047 21.9167 
83 1 16.4841 8.29547 24.6654 
84 1 16.8939 7.05258 23.8801 
85 1 17.4189 10.4243 24.5751 
87 1 19.9865 9.47509 22.6781 
97 1 18.2648 6.98933 21.8663 
99 1 19.7814 10.6387 24.7708 
100 1 18.5361 10.9019 23.8059 
104 1 15.1201 8.42288 25.2353 
108 1 18.7737 10.3934 22.5935 
111 1 20.4999 9.47809 23.9407 
112 1 17.1426 7.50011 22.5925 
115 1 16.6197 9.6084 23.8505 
118 1 16.8947 9.06515 15.6536 
121 1 16.8999 7.01573 14.1946 
122 1 20.0054 9.4207 15.3675 
125 1 18.4217 10.9519 14.1824 
129 2 18.7121 11.3316 16.3337 
ITEM: TIMESTEP
20
ITEM: NUMBER OF ATOMS
129
ITEM: BOX BOUNDS xy xz yz pp pp pp
0.0000000000000000e+00 2.3654499999999999e+01 7.8845000000000001e+00
0.0000000000000000e+00 1.3658086643083999e+01 0.0000000000000000e+00
0.0000000000000000e+00 2.5747000000000000e+01 0.0000000000000000e+00
ITEM: ATOMS id type x y z 
18 1 10.3439 6.78861 2.68276 
28 1 5.06412 4.69834 12.9079 
31 1 9.40301 6.58246 0.449705 
62 1 9.09288 5.26499 12.3569 
91 1 9.39078 6.55809 11.8652 
92 1 10.6175 6.27011 10.9613 
106 1 10.3377 6.79001 9.64523 
127 1 10.599 6.29718 1.35949 
4 1 4.38304 5.90556 13.26 
5 1 3.12578 5.67987 14.1918 
43 1 4.5968 6.95043 15.4746 
52 1 9.08606 5.25788 25.7122 
66 1 4.38709 5.90663 24.8068 
67 1 5.10503 7.00144 23.9168 
88 1 5.06695 4.68939 25.1648 
107 1 3.12259 5.68435 23.8929 
116 1 4.58114 6.93797 22.6319 
117 1 5.09661 7.00266 14.1757 
11 1 11.2515 7.55313 3.42118 
12 1 10.5124 8.78223 4.07492 
14 1 9.04031 11.2228 0.406456 
15 1 10.3006 11.4325 1.32249 
16 1 8.29216 8.86746 0.647137 
19 1 10.4698 8.85818 5.56523 
29 1 10.9657 10.0993 3.33716 
32 1 8.59478 7.63164 1.29447 
35 1 12.1087 9.62449 2.63155 
45 1 9.22573 8.93775 3.27086 
47 1 12.714 8.88587 0.510542 
49 1 11.4078 10.9256 0.643593 
51 1 8.83587 10.1652 2.59276 
53 1 11.2481 7.55948 8.9203 
54 1 10.515 8.7899 8.26497 
56 1 9.02812 11.2257 11.9122 
57 1 8.32471 10.1195 11.0346 
58 1 11.4103 10.9219 11.6978 
60 1 12.3087 8.11365 9.63115 
61 1 10.4724 8.85929 6.77445 
73 1 9.21226 8.93751 9.07057 
75 1 12.6727 8.90184 11.8322 
76 1 12.349 10.1198 10.9805 
79 1 9.12716 7.67154 9.77424 
80 1 8.35344 12.4409 12.295 
89 1 10.9562 10.0946 8.99172 
93 1 8.31002 8.87231 11.6774 
95 1 10.0591 10.9941 9.70713 
105 1 10.31 11.4381 11.0021 
109 1 8.61498 7.62598 11.0626 
110 1 12.1131 9.62555 9.70387 
114 1 8.84628 10.1555 9.75091 
119 1 8.31992 10.1172 1.30194 
120 1 12.3096 8.1048 2.69165 
123 1 12.3535 10.1215 1.34534 
124 1 9.13218 7.67192 2.56925 
128 1 10.0582 10.9934 2.63228 
6 1 5.12259 8.23361 13.5158 
13 1 9.62457 10.2277 25.0547 
17 1 9.11498 8.92254 25.1468 
30 1 9.90392 7.73114 25.0358 
34 1 11.256 7.54624 25.199 
36 1 8.35928 12.4366 25.7858 
46 1 11.6577 8.86904 25.0574 
50 1 10.9895 10.1615 25.1604 
55 1 9.61532 10.2386 13.0238 
59 1 11.0016 10.1656 12.9259 
74 1 11.6728 8.87387 13.0212 
78 1 11.2376 7.5425 12.8917 
90 1 9.92595 7.7633 13.0678 
94 1 9.08934 8.92121 12.9455 
101 1 5.13617 8.26053 24.5651 
33 1 11.7416 6.75704 0.6708 
77 1 11.733 6.74723 11.641 
41 1 17.7856 6.18524 13.5124 
68 1 17.7791 6.20053 24.5662 
103 1 19.1536 6.1 22.5879 
126 1 19.1469 6.11073 15.4951 
3 1 19.5588 6.92844 12.1869 
7 1 20.1051 8.20276 12.2892 
10 1 15.103 8.41717 12.8291 
22 1 19.2963 9.4586 12.1718 
26 1 18.0872 9.47011 12.2251 
38 1 17.4655 8.1996 12.2285 
42 1 18.1708 6.95534 12.2787 
44 1 20.2 11.8615 12.7991 
48 1 12.5726 7.61733 1.40538 
65 1 19.5746 6.90016 0.176035 
69 1 18.2063 6.98575 0.0290118 
82 1 17.5293 8.27455 0.120794 
86 1 17.9453 9.61371 0.00793568 
96 1 14.0321 8.70349 12.346 
98 1 19.2873 9.3919 0.147382 
102 1 20.0745 8.1997 0.0518549 
113 1 12.5674 7.60306 10.9352 
1 1 17.8462 9.47476 16.2502 
2 1 18.6995 8.31589 16.9496 
8 1 18.7654 10.4803 15.617 
9 1 18.723 8.2798 18.4263 
20 1 14.0824 8.70175 25.7149 
21 1 18.2381 6.98666 16.2175 
23 1 19.7709 10.6619 13.2802 
24 1 20.5751 9.47906 14.2632 
25 1 17.455 10.4925 13.6031 
27 1 17.1026 7.44329 15.5015 
37 1 19.9734 8.16583 16.1306 
39 1 16.4603 8.26037 13.3891 
40 1 16.6629 9.51931 14.2636 
63 1 17.8388 9.55139 21.8182 
64 1 18.6607 8.31199 21.0897 
70 1 16.9201 9.06838 22.4626 
71 1 18.7192 8.26711 19.6365 
72 1 20.11 11.8403 25.2503 
81 1 19.9722 8.1906 21.9291 
83 1 16.4633 8.27285 24.6908 
84 1 16.8553 7.03871 23.8548 
85 1 17.4632 10.3869 24.547 
87 1 20.0122 9.49881 22.665 
97 1 18.2523 7.03172 21.8675 
99 1 19.8021 10.5544 24.7993 
100 1 18.5797 10.9011 23.8556 
104 1 15.1101 8.42691 25.2496 
108 1 18.8296 10.3452 22.565 
111 1 20.5904 9.50458 23.9407 
112 1 17.1062 7.48763 22.5839 
115 1 16.6226 9.51101 23.8186 
118 1 16.908 9.04648 15.625 
121 1 16.8553 6.98662 14.2405 
122 1 20.0605 9.44362 15.3659 
125 1 18.4263 10.9231 14.1687 
129 2 18.7596 11.3393 16.3303 
ITEM: TIMESTEP
30
ITEM: NUMBER OF ATOMS
129
ITEM: BOX BOUNDS xy xz yz pp pp pp
0.0000000000000000e+00 2.3654499999999999e+01 7.8845000000000001e+00
0.0000000000000000e+00 1.3658086643083999e+01 0.0000000000000000e+00
0.0000000000000000e+00 2.5747000000000000e+01 0.0000000000000000e+00
ITEM: ATOMS id type x y z 
18 1 10.3347 6.78988 2.67936 
28 1 5.06967 4.69387 12.9036 
31 1 9.39435 6.5891 0.439073 
62 1 9.07743 5.27242 12.3598 
91 1 9.39787 6.56458 11.8793 
92 1 10.6072 6.28762 10.954 
106 1 10.3305 6.78815 9.65131 
127 1 10.6006 6.31055 1.36652 
4 1 4.37756 5.9195 13.2627 
5 1 3.1286 5.69209 14.1858 
43 1 4.59003 6.95714 15.4715 
52 1 9.07276 5.27169 25.7112 
66 1 4.38644 5.92305 24.8047 
67 1 5.08818 7.01007 23.9122 
88 1 5.07137 4.68743 25.1675 
107 1 3.12562 5.69879 23.8929 
116 1 4.56989 6.97686 22.626 
117 1 5.09102 7.00437 14.1734 
11 1 11.2428 7.56861 3.41883 
12 1 10.5241 8.77946 4.06702 
14 1 9.03988 11.207 0.411286 
15 1 10.2968 11.4202 1.32154 
16 1 8.28649 8.86167 0.651147 
19 1 10.4702 8.85628 5.56625 
29 1 10.9611 10.0914 3.33058 
32 1 8.59974 7.62928 1.28802 
35 1 12.1151 9.6273 2.63041 
45 1 9.21197 8.93488 3.26173 
47 1 12.7034 8.89454 0.512808 
49 1 11.417 10.9266 0.643473 
51 1 8.83859 10.1557 2.58771 
53 1 11.2413 7.57191 8.91885 
54 1 10.521 8.78114 8.26927 
56 1 9.03681 11.2123 11.9156 
57 1 8.32908 10.1142 11.0352 
58 1 11.4142 10.926 11.6949 
60 1 12.3112 8.11593 9.63539 
61 1 10.4718 8.85748 6.77033 
73 1 9.20702 8.93241 9.07627 
75 1 12.6696 8.8997 11.8223 
76 1 12.3535 10.1125 10.9895 
79 1 9.12244 7.67174 9.7742 
80 1 8.34907 12.4432 12.2972 
89 1 10.956 10.0891 9.0004 
93 1 8.30057 8.86434 11.6816 
95 1 10.0628 10.9968 9.69994 
105 1 10.3034 11.4257 11.0109 
109 1 8.61066 7.62476 11.0581 
110 1 12.1168 9.62795 9.69845 
114 1 8.84539 10.1521 9.75159 
119 1 8.33188 10.1113 1.3009 
120 1 12.3097 8.11222 2.69796 
123 1 12.3533 10.1116 1.34279 
124 1 9.12475 7.67248 2.56602 
128 1 10.0614 10.9934 2.63621 
6 1 5.12889 8.2395 13.5184 
13 1 9.62412 10.2156 25.0602 
17 1 9.11445 8.91347 25.1441 
30 1 9.90621 7.73076 25.0559 
34 1 11.2463 7.54957 25.2016 
36 1 8.35435 12.4398 25.783 
46 1 11.6581 8.87153 25.0718 
50 1 10.9982 10.1551 25.1596 
55 1 9.62189 10.2241 13.0114 
59 1 10.9979 10.1649 12.9288 
74 1 11.6735 8.87378 13.0109 
78 1 11.2375 7.54729 12.8793 
90 1 9.91229 7.75196 13.0476 
94 1 9.09742 8.91909 12.9541 
101 1 5.14268 8.26616 24.5575 
33 1 11.7318 6.76705 0.665885 
77 1 11.7226 6.76213 11.6588 
41 1 17.7751 6.18185 13.5194 
68 1 17.7779 6.20463 24.5686 
103 1 19.15 6.11593 22.5838 
126 1 19.1497 6.10623 15.5004 
3 1 19.5554 6.93724 12.1954 
7 1 20.1116 8.20835 12.2878 
10 1 15.1049 8.42162 12.8289 
22 1 19.3028 9.46496 12.174 
26 1 18.0955 9.46474 12.226 
38 1 17.4665 8.19768 12.2391 
42 1 18.1622 6.95727 12.2729 
44 1 20.2098 11.8502 12.801 
48 1 12.5706 7.63125 1.39511 
65 1 19.5695 6.90951 0.163651 
69 1 18.1999 6.99042 0.0262707 
82 1 17.5276 8.27321 0.110821 
86 1 17.9497 9.59945 0.00779726 
96 1 14.03 8.70307 12.3503 
98 1 19.2904 9.39585 0.144718 
102 1 20.076 8.20341 0.05545 
113 1 12.5633 7.62899 10.9399 
1 1 17.8436 9.47459 16.2484 
2 1 18.7015 8.30629 16.9468 
8 1 18.7789 10.4802 15.6153 
9 1 18.724 8.27927 18.4272 
20 1 14.0579 8.70665 25.7218 
21 1 18.24 6.99918 16.2114 
23 1 19.7673 10.6545 13.2798 
24 1 20.5754 9.48826 14.2648 
25 1 17.4607 10.4727 13.6071 
27 1 17.095 7.44175 15.5005 
37 1 19.972 8.17826 16.1216 
39 1 16.4692 8.25675 13.401 
40 1 16.6697 9.49753 14.2564 
63 1 17.8478 9.54568 21.8285 
64 1 18.6929 8.3049 21.1155 
70 1 16.921 9.06594 22.4627 
71 1 18.7195 8.27025 19.6409 
72 1 20.1258 11.8461 25.2575 
81 1 19.9662 8.20687 21.9491 
83 1 16.4785 8.26785 24.6821 
84 1 16.8514 7.04052 23.8591 
85 1 17.4638 10.3842 24.5459 
87 1 20.0272 9.46647 22.6637 
97 1 18.2379 7.02266 21.8719 
99 1 19.8028 10.5444 24.7887 
100 1 18.5872 10.8633 23.8451 
104 1 15.1311 8.42 25.2441 
108 1 18.831 10.3432 22.5702 
111 1 20.5835 9.50056 23.9346 
112 1 17.1039 7.48474 22.5825 
115 1 16.6348 9.50099 23.8227 
118 1 16.9085 9.03609 15.6114 
121 1 16.8575 6.99411 14.2367 
122 1 20.0629 9.44791 15.3667 
125 1 18.4302 10.9162 14.1723 
129 2 18.7686 11.3389 16.3283 
ITEM: TIMESTEP
40
ITEM: NUMBER OF ATOMS
129
ITEM: BOX BOUNDS xy xz yz pp pp pp
0.0000000000000000e+00 2.3654499999999999e+01 7.8845000000000001e+00
0.0000000000000000e+00 1.3658086643083999e+01 0.0000000000000000e+00
0.0000000000000000e+00 2.5747000000000000e+01 0.0000000000000000e+00
ITEM: ATOMS id type x y z 
18 1 10.3236 6.79299 2.68058 
28 1 5.07393 4.69726 12.8981 
31 1 9.38596 6.59144 0.428606 
62 1 9.04785 5.27877 12.3687 
91 1 9.39538 6.57833 11.8988 
92 1 10.5958 6.30799 10.9537 
106 1 10.3213 6.79023 9.64919 
127 1 10.5949 6.32613 1.37064 
4 1 4.37782 5.93188 13.2614 
5 1 3.12928 5.70385 14.1828 
43 1 4.57851 6.96463 15.4667 
52 1 9.04525 5.28223 25.7042 
66 1 4.38803 5.93363 24.8062 
67 1 5.08538 7.02208 23.9128 
88 1 5.07591 4.69183 25.1706 
107 1 3.12893 5.71474 23.895 
116 1 4.56682 6.9856 22.6266 
117 1 5.0895 7.00996 14.1687 
11 1 11.2383 7.57551 3.41475 
12 1 10.5225 8.77507 4.06504 
14 1 9.03673 11.1941 0.410757 
15 1 10.2959 11.4067 1.31829 
16 1 8.27239 8.85301 0.646316 
19 1 10.471 8.85289 5.56529 
29 1 10.9566 10.0836 3.3243 
32 1 8.58789 7.62544 1.28565 
35 1 12.127 9.63163 2.63535 
45 1 9.20435 8.93122 3.25934 
47 1 12.6983 8.90467 0.511296 
49 1 11.4236 10.9269 0.639581 
51 1 8.84401 10.1508 2.58661 
53 1 11.2371 7.5762 8.91958 
54 1 10.518 8.77367 8.26906 
56 1 9.03577 11.1999 11.9183 
57 1 8.33261 10.1037 11.0394 
58 1 11.4217 10.9278 11.696 
60 1 12.3112 8.12671 9.632 
61 1 10.4708 8.85332 6.76874 
73 1 9.20313 8.9301 9.07869 
75 1 12.6746 8.90535 11.8195 
76 1 12.3636 10.1161 10.9916 
79 1 9.10887 7.66752 9.77297 
80 1 8.34468 12.4396 12.2995 
89 1 10.9544 10.0838 9.00921 
93 1 8.28474 8.85373 11.6909 
95 1 10.0611 10.9965 9.69619 
105 1 10.2981 11.4122 11.0156 
109 1 8.59655 7.62388 11.0562 
110 1 12.1272 9.63367 9.69446 
114 1 8.84731 10.1504 9.75201 
119 1 8.33377 10.1044 1.29664 
120 1 12.312 8.12418 2.70046 
123 1 12.366 10.1131 1.34023 
124 1 9.10821 7.6687 2.56583 
128 1 10.0599 10.9945 2.63869 
6 1 5.13782 8.25164 13.5187 
13 1 9.62596 10.2048 25.0639 
17 1 9.09825 8.90946 25.1407 
30 1 9.90681 7.72998 25.0662 
34 1 11.2479 7.54093 25.1984 
36 1 8.34964 12.4365 25.7803 
46 1 11.6597 8.86889 25.081 
50 1 11.0033 10.1627 25.1606 
55 1 9.6246 10.2101 13.0103 
59 1 11.0047 10.1703 12.9276 
74 1 11.6609 8.872 13.0052 
78 1 11.2371 7.54448 12.8799 
90 1 9.90506 7.73997 13.0252 
94 1 9.09106 8.91247 12.9568 
101 1 5.15667 8.27394 24.5639 
33 1 11.725 6.77333 0.66873 
77 1 11.7152 6.77142 11.6629 
41 1 17.7702 6.18054 13.5141 
68 1 17.7719 6.20596 24.5707 
103 1 19.1463 6.1237 22.5792 
126 1 19.1541 6.10535 15.503 
3 1 19.5484 6.95051 12.2034 
7 1 20.1229 8.21725 12.2906 
10 1 15.1161 8.42225 12.8345 
22 1 19.3167 9.4739 12.1679 
26 1 18.1099 9.45804 12.2259 
38 1 17.4514 8.19808 12.2523 
42 1 18.1541 6.94812 12.2762 
44 1 20.2335 11.8437 12.799 
48 1 12.57 7.65 1.3898 
65 1 19.5668 6.92 0.154899 
69 1 18.1916 6.98476 0.0280205 
82 1 17.529 8.27394 0.108851 
86 1 17.9508 9.60118 0.0109612 
96 1 14.0369 8.70548 12.3616 
98 1 19.2918 9.3984 0.14456 
102 1 20.0883 8.21263 0.0607861 
113 1 12.5614 7.64772 10.9431 
1 1 17.8456 9.47141 16.248 
2 1 18.7042 8.30676 16.9502 
8 1 18.7918 10.4762 15.6219 
9 1 18.7253 8.27923 18.4303 
20 1 14.0536 8.70538 25.7166 
21 1 18.241 7.00638 16.206 
23 1 19.7736 10.6447 13.2824 
24 1 20.5842 9.49991 14.2643 
25 1 17.4784 10.446 13.6047 
27 1 17.0842 7.43767 15.507 
37 1 19.9692 8.19122 16.1158 
39 1 16.4732 8.24661 13.4021 
40 1 16.6624 9.46595 14.2387 
63 1 17.8563 9.53486 21.8338 
64 1 18.6976 8.30398 21.1167 
70 1 16.9216 9.05503 22.4586 
71 1 18.7222 8.27508 19.6441 
72 1 20.155 11.8441 25.2676 
81 1 19.9673 8.20885 21.9442 
83 1 16.4846 8.25765 24.6778 
84 1 16.8373 7.033 23.8571 
85 1 17.4631 10.3765 24.5496 
87 1 20.0449 9.47493 22.6635 
97 1 18.2341 7.02524 21.8693 
99 1 19.8116 10.5426 24.7898 
100 1 18.5959 10.8328 23.8442 
104 1 15.1347 8.41865 25.2481 
108 1 18.8453 10.3341 22.5575 
111 1 20.5975 9.50474 23.9358 
112 1 17.0906 7.48308 22.5793 
115 1 16.639 9.49265 23.8239 
118 1 16.9161 9.01785 15.6117 
121 1 16.8393 7.00102 14.2291 
122 1 20.0715 9.46214 15.3683 
125 1 18.4352 10.9115 14.1773 
129 2 18.7867 11.3393 16.3257 
ITEM: TIMESTEP
50
ITEM: NUMBER OF ATOMS
129
ITEM: BOX BOUNDS xy xz yz pp pp pp
0.0000000000000000e+00 2.3654499999999999e+01 7.8845000000000001e+00
0.0000000000000000e+00 1.3658086643083999e+01 0.0000000000000000e+00
0.0000000000000000e+00 2.5747000000000000e+01 0.0000000000000000e+00
ITEM: ATOMS id type x y z 
18 1 10.3061 6.80699 2.68029 
28 1 5.07825 4.71611 12.8872 
31 1 9.36586 6.59598 0.425922 
62 1 8.98588 5.29273 12.3884 
91 1 9.37043 6.59062 11.9093 
92 1 10.5749 6.33973 10.961 
106 1 10.3056 6.8018 9.65039 
127 1 10.5752 6.34826 1.36733 
4 1 4.37971 5.94858 13.258 
5 1 3.12691 5.71709 14.1776 
43 1 4.57028 6.9796 15.4541 
52 1 8.98495 5.29948 25.6872 
66 1 4.39471 5.95361 24.8069 
67 1 5.09172 7.04223 23.9198 
88 1 5.08115 4.71317 25.1755 
107 1 3.12761 5.73407 23.8986 
116 1 4.57063 6.99568 22.6325 
117 1 5.09765 7.03019 14.1636 
11 1 11.2316 7.58183 3.40632 
12 1 10.5141 8.76686 4.06303 
14 1 9.03079 11.1782 0.40927 
15 1 10.2973 11.3919 1.3142 
16 1 8.24931 8.84194 0.636801 
19 1 10.4712 8.84435 5.56512 
29 1 10.9529 10.071 3.31477 
32 1 8.55756 7.61749 1.28426 
35 1 12.1401 9.64836 2.63617 
45 1 9.19714 8.92544 3.25674 
47 1 12.7048 8.92262 0.510345 
49 1 11.4318 10.9237 0.636697 
51 1 8.84234 10.1424 2.57735 
53 1 11.2303 7.58065 8.92491 
54 1 10.5106 8.76676 8.26986 
56 1 9.03013 11.1827 11.9247 
57 1 8.32535 10.0868 11.0454 
58 1 11.4292 10.9278 11.6973 
60 1 12.3075 8.14257 9.62787 
61 1 10.4695 8.84418 6.76808 
73 1 9.19597 8.92481 9.08005 
75 1 12.6805 8.92417 11.8179 
76 1 12.3841 10.1307 10.9891 
79 1 9.07783 7.66162 9.77141 
80 1 8.33917 12.4209 12.303 
89 1 10.9515 10.0732 9.01766 
93 1 8.25547 8.84144 11.7027 
95 1 10.0579 10.9887 9.70151 
105 1 10.2969 11.3966 11.0207 
109 1 8.56289 7.61897 11.0536 
110 1 12.1392 9.64804 9.69255 
114 1 8.84394 10.1425 9.7589 
119 1 8.32373 10.0871 1.29206 
120 1 12.3119 8.1419 2.70318 
123 1 12.3883 10.1269 1.34505 
124 1 9.07457 7.66286 2.56562 
128 1 10.0587 10.9889 2.63153 
6 1 5.15524 8.27022 13.521 
13 1 9.62799 10.186 25.0681 
17 1 9.07988 8.89883 25.1352 
30 1 9.90441 7.73068 25.0684 
34 1 11.2477 7.53428 25.1939 
36 1 8.34249 12.4202 25.7755 
46 1 11.6532 8.86749 25.0838 
50 1 11.0063 10.1617 25.1595 
55 1 9.62347 10.1922 13.0149 
59 1 11.0058 10.1701 12.9241 
74 1 11.6466 8.86848 12.9994 
78 1 11.2407 7.53489 12.8843 
90 1 9.90121 7.7329 13.0182 
94 1 9.07711 8.90307 12.9537 
101 1 5.17736 8.29022 24.5711 
33 1 11.7167 6.78765 0.678164 
77 1 11.7098 6.78484 11.6554 
41 1 17.7548 6.1788 13.5208 
68 1 17.7627 6.21179 24.5698 
103 1 19.1456 6.13611 22.5819 
126 1 19.1534 6.11016 15.498 
3 1 19.5416 6.97185 12.2142 
7 1 20.1358 8.23153 12.2894 
10 1 15.112 8.40868 12.8402 
22 1 19.341 9.48525 12.1501 
26 1 18.1303 9.44532 12.2205 
38 1 17.4534 8.19369 12.246 
42 1 18.1459 6.94913 12.2773 
44 1 20.2887 11.8343 12.7954 
48 1 12.5642 7.67064 1.38757 
65 1 19.5647 6.9389 0.141136 
69 1 18.1825 6.97992 0.0340517 
82 1 17.5331 8.27257 0.107361 
86 1 17.9516 9.6039 0.0203697 
96 1 14.0394 8.71388 12.376 
98 1 19.2968 9.40273 0.14463 
102 1 20.1063 8.23013 0.0729558 
113 1 12.557 7.67177 10.944 
1 1 17.8462 9.4635 16.2461 
2 1 18.7049 8.31305 16.9508 
8 1 18.804 10.4738 15.6286 
9 1 18.7308 8.28358 18.4269 
20 1 14.0538 8.70794 25.7079 
21 1 18.2411 7.01211 16.2002 
23 1 19.7965 10.6445 13.2837 
24 1 20.6156 9.51828 14.2675 
25 1 17.5129 10.3955 13.6043 
27 1 17.0688 7.41874 15.5114 
37 1 19.9636 8.20916 16.1064 
39 1 16.4782 8.22273 13.4004 
40 1 16.6702 9.44371 14.2417 
63 1 17.8631 9.52274 21.8376 
64 1 18.6987 8.31413 21.1168 
70 1 16.9256 9.03643 22.4567 
71 1 18.727 8.28252 19.6393 
72 1 20.2177 11.8318 25.2863 
81 1 19.968 8.21148 21.947 
83 1 16.4868 8.24058 24.677 
84 1 16.8154 7.0164 23.8482 
85 1 17.4726 10.3594 24.5431 
87 1 20.0835 9.47774 22.6596 
97 1 18.2333 7.03441 21.8739 
99 1 19.8359 10.5365 24.7954 
100 1 18.6133 10.7968 23.8449 
104 1 15.1371 8.41454 25.2504 
108 1 18.8683 10.3125 22.5552 
111 1 20.6295 9.51384 23.931 
112 1 17.0724 7.47169 22.5739 
115 1 16.6441 9.47499 23.8215 
118 1 16.9266 8.99586 15.6096 
121 1 16.8157 6.97794 14.2359 
122 1 20.0941 9.48401 15.3762 
125 1 18.4454 10.8928 14.1837 
129 2 18.8289 11.3427 16.3233 
ITEM: TIMESTEP
60
ITEM: NUMBER OF ATOMS
129
ITEM: BOX BOUNDS xy xz yz pp pp pp
0.0000000000000000e+00 2.3654499999999999e+01 7.8845000000000001e+00
0.0000000000000000e+00 1.3658086643083999e+01 0.0000000000000000e+00
0.0000000000000000e+00 2.5747000000000000e+01 0.0000000000000000e+00
ITEM: ATOMS id type x y z 
18 1 10.301 6.81125 2.67698 
28 1 5.0786 4.72549 12.8835 
31 1 9.35876 6.59757 0.424296 
62 1 8.96599 5.30065 12.3935 
91 1 9.36155 6.59223 11.9097 
92 1 10.5686 6.34599 10.9643 
106 1 10.3001 6.80709 9.65346 
127 1 10.5706 6.35336 1.36647 
4 1 4.38093 5.95422 13.2587 
5 1 3.127 5.71825 14.1749 
43 1 4.57094 6.98497 15.4512 
52 1 8.96459 5.30496 25.6816 
66 1 4.39436 5.95816 24.8065 
67 1 5.0982 7.04922 23.9189 
88 1 5.08434 4.71887 25.1782 
107 1 3.12593 5.73801 23.9001 
116 1 4.57265 6.99737 22.636 
117 1 5.09968 7.03444 14.1615 
11 1 11.2319 7.58345 3.40324 
12 1 10.5116 8.76685 4.06305 
14 1 9.02991 11.1733 0.40859 
15 1 10.2973 11.3894 1.30881 
16 1 8.2425 8.83755 0.634655 
19 1 10.4708 8.84101 5.56463 
29 1 10.9511 10.0703 3.31319 
32 1 8.54655 7.61714 1.28293 
35 1 12.1429 9.65013 2.63784 
45 1 9.19283 8.92524 3.25561 
47 1 12.705 8.92753 0.509401 
49 1 11.4344 10.9231 0.638302 
51 1 8.84049 10.1399 2.57486 
53 1 11.2291 7.58176 8.92779 
54 1 10.5083 8.76628 8.26976 
56 1 9.02941 11.1767 11.9262 
57 1 8.32098 10.0841 11.0476 
58 1 11.4312 10.9273 11.6969 
60 1 12.3055 8.14578 9.62843 
61 1 10.4693 8.84109 6.76778 
73 1 9.19256 8.92434 9.08082 
75 1 12.683 8.92923 11.82 
76 1 12.3865 10.1359 10.9894 
79 1 9.06903 7.66025 9.77037 
80 1 8.337 12.414 12.3047 
89 1 10.9494 10.0714 9.01923 
93 1 8.24719 8.83799 11.7033 
95 1 10.0554 10.9849 9.70398 
105 1 10.2963 11.3937 11.0241 
109 1 8.55228 7.61669 11.0552 
110 1 12.1409 9.65115 9.69244 
114 1 8.8411 10.1397 9.76204 
119 1 8.31971 10.0848 1.2891 
120 1 12.3092 8.14487 2.70211 
123 1 12.3909 10.133 1.34193 
124 1 9.06574 7.66102 2.56679 
128 1 10.0559 10.9836 2.63022 
6 1 5.15863 8.27759 13.5189 
13 1 9.62382 10.1844 25.0692 
17 1 9.07873 8.89492 25.1346 
30 1 9.90157 7.72674 25.0685 
34 1 11.2442 7.53726 25.1948 
36 1 8.34116 12.4116 25.7743 
46 1 11.6573 8.86455 25.0849 
50 1 11.0054 10.1598 25.1596 
55 1 9.62143 10.1894 13.014 
59 1 11.0021 10.1669 12.9239 
74 1 11.6517 8.86747 12.9964 
78 1 11.2373 7.53666 12.884 
90 1 9.89752 7.72903 13.018 
94 1 9.07723 8.89772 12.9539 
101 1 5.18072 8.29469 24.5743 
33 1 11.7119 6.79279 0.678009 
77 1 11.7067 6.79123 11.6553 
41 1 17.7535 6.17741 13.5176 
68 1 17.7606 6.21179 24.5678 
103 1 19.1477 6.1397 22.5843 
126 1 19.156 6.11356 15.4954 
3 1 19.5431 6.9756 12.216 
7 1 20.142 8.23541 12.2909 
10 1 15.1126 8.40525 12.8431 
22 1 19.3443 9.48911 12.1492 
26 1 18.1365 9.44349 12.2158 
38 1 17.4525 8.19282 12.2501 
42 1 18.1461 6.94804 12.28 
44 1 20.304 11.8245 12.7985 
48 1 12.5617 7.6752 1.39004 
65 1 19.5653 6.94499 0.14074 
69 1 18.1829 6.98001 0.0367506 
82 1 17.5354 8.27644 0.107913 
86 1 17.9525 9.60313 0.0208889 
96 1 14.0384 8.71544 12.3785 
98 1 19.295 9.40603 0.144822 
102 1 20.1124 8.23287 0.0742903 
113 1 12.5546 7.67609 10.9427 
1 1 17.8481 9.46589 16.2459 
2 1 18.7029 8.31756 16.9479 
8 1 18.8061 10.4728 15.631 
9 1 18.7328 8.28586 18.4299 
20 1 14.0555 8.70939 25.707 
21 1 18.2415 7.01214 16.1974 
23 1 19.8024 10.6464 13.2818 
24 1 20.6229 9.52428 14.2717 
25 1 17.5228 10.3854 13.6025 
27 1 17.0666 7.4142 15.5126 
37 1 19.9626 8.20736 16.1007 
39 1 16.4762 8.21548 13.3981 
40 1 16.6737 9.43371 14.239 
63 1 17.8658 9.52068 21.8385 
64 1 18.6985 8.31367 21.1153 
70 1 16.9263 9.03351 22.456 
71 1 18.7286 8.28498 19.6436 
72 1 20.2371 11.822 25.2898 
81 1 19.9737 8.212 21.9455 
83 1 16.4851 8.23522 24.6765 
84 1 16.812 7.01266 23.8489 
85 1 17.4755 10.3532 24.5425 
87 1 20.0929 9.47974 22.6561 
97 1 18.2315 7.03795 21.8743 
99 1 19.8431 10.5365 24.7959 
100 1 18.6236 10.7906 23.848 
104 1 15.1381 8.41232 25.2488 
108 1 18.8728 10.3072 22.5569 
111 1 20.6421 9.51713 23.9348 
112 1 17.0694 7.46557 22.5706 
115 1 16.6468 9.47109 23.8213 
118 1 16.9262 8.98893 15.6112 
121 1 16.8103 6.97416 14.2369 
122 1 20.1038 9.48937 15.3724 
125 1 18.4579 10.8869 14.1826 
129 2 18.8435 11.344 16.3227 
ITEM: TIMESTEP
70
ITEM: NUMBER OF ATOMS
129
ITEM: BOX BOUNDS xy xz yz pp pp pp
0.0000000000000000e+00 2.3654499999999999e+01 7.8845000000000001e+00
0.0000000000000000e+00 1.3658086643083999e+01 0.0000000000000000e+00
0.0000000000000000e+00 2.5747000000000000e+01 0.0000000000000000e+00
ITEM: ATOMS id type x y z 
18 1 10.2913 6.8193 2.67307 
28 1 5.08233 4.74043 12.8743 
31 1 9.34519 6.60024 0.422232 
62 1 8.92407 5.31298 12.4047 
91 1 9.34581 6.59751 11.9133 
92 1 10.5567 6.35746 10.9698 
106 1 10.2905 6.81532 9.65867 
127 1 10.558 6.36279 1.36183 
4 1 4.38359 5.9636 13.2597 
5 1 3.12851 5.72168 14.1718 
43 1 4.57296 6.99375 15.4457 
52 1 8.9233 5.31733 25.6715 
66 1 4.39829 5.96885 24.8058 
67 1 5.1068 7.05808 23.923 
88 1 5.0903 4.73254 25.1836 
107 1 3.12538 5.74456 23.9028 
116 1 4.57873 7.00098 22.6398 
117 1 5.10614 7.04597 14.1586 
11 1 11.2273 7.5859 3.39727 
12 1 10.5054 8.76549 4.06184 
14 1 9.02663 11.1643 0.405693 
15 1 10.2968 11.384 1.30488 
16 1 8.22831 8.83201 0.62883 
19 1 10.4699 8.83438 5.56486 
29 1 10.9473 10.0668 3.3083 
32 1 8.52878 7.61405 1.2832 
35 1 12.1442 9.65582 2.6366 
45 1 9.18801 8.92371 3.254 
47 1 12.7071 8.93477 0.507248 
49 1 11.4358 10.9223 0.635367 
51 1 8.83308 10.1364 2.56916 
53 1 11.2239 7.58503 8.9337 
54 1 10.5025 8.76547 8.27076 