
     Program PWSCF v.7.1 starts on 24May2025 at 21:14: 1 

     This program is part of the open-source Quantum ESPRESSO suite
     for quantum simulation of materials; please cite
         "P. Giannozzi et al., J. Phys.:Condens. Matter 21 395502 (2009);
         "P. Giannozzi et al., J. Phys.:Condens. Matter 29 465901 (2017);
         "P. Giannozzi et al., J. Chem. Phys. 152 154105 (2020);
          URL http://www.quantum-espresso.org", 
     in publications or presentations arising from this work. More details at
     http://www.quantum-espresso.org/quote

     Parallel version (MPI), running on    16 processors

     MPI processes distributed on     1 nodes
     243734 MiB available memory on the printing compute node when the environment starts

     Reading input from input.pwi
Warning: card &CELL ignored
Warning: card / ignored
Warning: card &FCP ignored
Warning: card / ignored
Warning: card &RISM ignored
Warning: card / ignored

     Current dimensions of program PWSCF are:
     Max number of different atomic species (ntypx) = 10
     Max number of k-points (npk) =  40000
     Max angular momentum in pseudopotentials (lmaxx) =  4
     file C.pbe-n-kjpaw_psl.1.0.0.UPF: wavefunction(s)  2S 2P renormalized
     file O.pbe-n-kjpaw_psl.0.1.UPF: wavefunction(s)  2P renormalized

     IMPORTANT: XC functional enforced from input :
     Exchange-correlation= PBE
                           (   1   4   3   4   0   0   0)
     Any further DFT definition will be discarded
     Please, verify this is what you really want


     gamma-point specific algorithms are used
     Message from routine  set_nelup_neldw :
     BEWARE: non-integer number of up and down electrons!

     R & G space division:  proc/nbgrp/npool/nimage =      16
     Subspace diagonalization in iterative solution of the eigenvalue problem:
     a serial algorithm will be used


     Parallelization info
     --------------------
     sticks:   dense  smooth     PW     G-vecs:    dense   smooth      PW
     Min         858     428    106                75870    26832    3354
     Max         860     430    108                75880    26846    3360
     Sum       13753    6869   1725              1214029   429409   53715

     Using Slab Decomposition



     bravais-lattice index     =            0
     lattice parameter (alat)  =      20.7870  a.u.
     unit-cell volume          =    8983.6663 (a.u.)^3
     number of atoms/cell      =           50
     number of atomic types    =            3
     number of electrons       =       199.00 (up:  99.50, down:  99.50)
     number of Kohn-Sham states=          119
     kinetic-energy cutoff     =      50.0000  Ry
     charge density cutoff     =     400.0000  Ry
     scf convergence threshold =      1.0E-06
     mixing beta               =       0.3000
     number of iterations used =            8  plain     mixing
     energy convergence thresh.=      1.0E-04
     force convergence thresh. =      1.0E-03
     Exchange-correlation= PBE
                           (   1   4   3   4   0   0   0)
     nstep                     =         1000


     celldm(1)=  20.786987  celldm(2)=   0.000000  celldm(3)=   0.000000
     celldm(4)=   0.000000  celldm(5)=   0.000000  celldm(6)=   0.000000

     crystal axes: (cart. coord. in units of alat)
               a(1) = (   1.000000   0.000000   0.000000 )  
               a(2) = (   0.000000   1.000182   0.000000 )  
               a(3) = (   0.000000   0.000000   1.000000 )  

     reciprocal axes: (cart. coord. in units 2 pi/alat)
               b(1) = (  1.000000  0.000000  0.000000 )  
               b(2) = (  0.000000  0.999818  0.000000 )  
               b(3) = (  0.000000  0.000000  1.000000 )  


     PseudoPot. # 1 for C  read from file:
     /home/ana.bisette/espresso/pseudo/C.pbe-n-kjpaw_psl.1.0.0.UPF
     MD5 check sum: 5d2aebdfa2cae82b50a7e79e9516da0f
     Pseudo is Projector augmented-wave + core cor, Zval =  4.0
     Generated using "atomic" code by A. Dal Corso  v.5.1
     Shape of augmentation charge: PSQ
     Using radial grid of 1073 points,  4 beta functions with: 
                l(1) =   0
                l(2) =   0
                l(3) =   1
                l(4) =   1
     Q(r) pseudized with 0 coefficients 


     PseudoPot. # 2 for O  read from file:
     /home/ana.bisette/espresso/pseudo/O.pbe-n-kjpaw_psl.0.1.UPF
     MD5 check sum: 0234752ac141de4415c5fc33072bef88
     Pseudo is Projector augmented-wave + core cor, Zval =  6.0
     Generated using "atomic" code by A. Dal Corso  v.5.0.99 svn rev. 10869
     Shape of augmentation charge: BESSEL
     Using radial grid of 1095 points,  4 beta functions with: 
                l(1) =   0
                l(2) =   0
                l(3) =   1
                l(4) =   1
     Q(r) pseudized with 0 coefficients 


     PseudoPot. # 3 for H  read from file:
     /home/ana.bisette/espresso/pseudo/H.pbe-rrkjus_psl.1.0.0.UPF
     MD5 check sum: f52b6d4d1c606e5624b1dc7b2218f220
     Pseudo is Ultrasoft, Zval =  1.0
     Generated using "atomic" code by A. Dal Corso  v.5.1
     Using radial grid of  929 points,  2 beta functions with: 
                l(1) =   0
                l(2) =   0
     Q(r) pseudized with 0 coefficients 


     atomic species   valence    mass     pseudopotential
        C              4.00    12.01100     C ( 1.00)
        O              6.00    15.99900     O ( 1.00)
        H              1.00     1.00800     H ( 1.00)

     Starting magnetic structure 
     atomic species   magnetization
        C            0.000
        O            0.000
        H            0.000

     No symmetry found



   Cartesian axes

     site n.     atom                  positions (alat units)
         1           C   tau(   1) = (   0.5607273   0.4189091   0.5608182  )
         2           C   tau(   2) = (   0.6985455   0.2805455   0.6985455  )
         3           C   tau(   3) = (   0.6340000   0.3453636   0.6340000  )
         4           C   tau(   4) = (   0.4189091   0.5608182   0.5608182  )
         5           C   tau(   5) = (   0.2805455   0.6985455   0.6985455  )
         6           C   tau(   6) = (   0.3453636   0.6340000   0.6340000  )
         7           C   tau(   7) = (   0.5608182   0.5608182   0.4189091  )
         8           C   tau(   8) = (   0.6985455   0.6985455   0.2805455  )
         9           C   tau(   9) = (   0.6340000   0.6340000   0.3453636  )
        10           C   tau(  10) = (   0.4184545   0.4184545   0.4184545  )
        11           C   tau(  11) = (   0.2804545   0.2804545   0.2804545  )
        12           C   tau(  12) = (   0.3450909   0.3450909   0.3450909  )
        13           C   tau(  13) = (   0.5659091   0.4132727   0.4132727  )
        14           C   tau(  14) = (   0.7058182   0.2739091   0.2739091  )
        15           C   tau(  15) = (   0.6411818   0.3382727   0.3383636  )
        16           C   tau(  16) = (   0.4132727   0.5659091   0.4132727  )
        17           C   tau(  17) = (   0.2739091   0.7059091   0.2739091  )
        18           C   tau(  18) = (   0.3382727   0.6411818   0.3383636  )
        19           C   tau(  19) = (   0.4132727   0.4131818   0.5660000  )
        20           C   tau(  20) = (   0.2739091   0.2739091   0.7058182  )
        21           C   tau(  21) = (   0.3382727   0.3382727   0.6411818  )
        22           C   tau(  22) = (   0.5662727   0.5662727   0.5662727  )
        23           C   tau(  23) = (   0.7058182   0.7059091   0.7059091  )
        24           C   tau(  24) = (   0.6413636   0.6414545   0.6413636  )
        25           C   tau(  25) = (   0.0607273   0.9184545   0.0607273  )
        26           C   tau(  26) = (   0.1989091   0.7808182   0.1989091  )
        27           C   tau(  27) = (   0.1341818   0.8452727   0.1341818  )
        28           C   tau(  28) = (   0.9183636   0.0606364   0.0607273  )
        29           C   tau(  29) = (   0.7808182   0.1988182   0.1989091  )
        30           C   tau(  30) = (   0.8452727   0.1340909   0.1341818  )
        31           C   tau(  31) = (   0.0607273   0.0606364   0.9184545  )
        32           C   tau(  32) = (   0.1988182   0.1988182   0.7808182  )
        33           C   tau(  33) = (   0.1341818   0.1340909   0.8452727  )
        34           C   tau(  34) = (   0.9189091   0.9189091   0.9188182  )
        35           C   tau(  35) = (   0.7809091   0.7809091   0.7809091  )
        36           C   tau(  36) = (   0.8455455   0.8455455   0.8454545  )
        37           C   tau(  37) = (   0.0662727   0.9132727   0.9132727  )
        38           C   tau(  38) = (   0.2053636   0.7735455   0.7734545  )
        39           C   tau(  39) = (   0.1410909   0.8380909   0.8380909  )
        40           C   tau(  40) = (   0.9131818   0.0661818   0.9132727  )
        41           C   tau(  41) = (   0.7734545   0.2053636   0.7734545  )
        42           C   tau(  42) = (   0.8380000   0.1410000   0.8380000  )
        43           C   tau(  43) = (   0.9132727   0.9133636   0.0662727  )
        44           C   tau(  44) = (   0.7734545   0.7735455   0.2053636  )
        45           C   tau(  45) = (   0.8380909   0.8380909   0.1410909  )
        46           C   tau(  46) = (   0.0660000   0.0659091   0.0659091  )
        47           C   tau(  47) = (   0.2054545   0.2053636   0.2054545  )
        48           C   tau(  48) = (   0.1410000   0.1409091   0.1409091  )
        49           O   tau(  49) = (   0.5530000   0.4469091   0.6801818  )
        50           H   tau(  50) = (   0.5530000   0.4469091   0.7689091  )

     number of k points=     1  Gaussian smearing, width (Ry)=  0.0001
                       cart. coord. in units 2pi/alat
        k(    1) = (   0.0000000   0.0000000   0.0000000), wk =   1.0000000

     Dense  grid:   607015 G-vectors     FFT dimensions: ( 135, 135, 135)

     Smooth grid:   214705 G-vectors     FFT dimensions: (  96,  96,  96)

     Estimated max dynamical RAM per process >     175.34 MB

     Estimated total dynamical RAM >       2.74 GB

     Check: negative core charge=   -0.000004
     Generating pointlists ...
     new r_m :   0.0461 (alat units)  0.9573 (a.u.) for type    1
     new r_m :   0.0366 (alat units)  0.7608 (a.u.) for type    2
     new r_m :   0.0366 (alat units)  0.7608 (a.u.) for type    3

     Initial potential from superposition of free atoms

     starting charge     198.9980, renormalised to     199.0000
     Starting wfcs are  197 randomized atomic wfcs
     Checking if some PAW data can be deallocated... 

     total cpu time spent up to now is        3.2 secs

     Self-consistent Calculation

     iteration #  1     ecut=    50.00 Ry     beta= 0.30
     Davidson diagonalization with overlap
     ethr =  1.00E-02,  avg # of iterations =  2.0

     total cpu time spent up to now is        5.7 secs

     total energy              =    -924.29994016 Ry
     estimated scf accuracy    <       5.44322586 Ry

     total magnetization       =     0.00 Bohr mag/cell
     absolute magnetization    =     0.07 Bohr mag/cell

     iteration #  2     ecut=    50.00 Ry     beta= 0.30
     Davidson diagonalization with overlap
     ethr =  2.74E-03,  avg # of iterations =  1.0

     negative rho (up, down):  1.450E-06 1.469E-06

     total cpu time spent up to now is        7.5 secs

     total energy              =    -923.35783788 Ry
     estimated scf accuracy    <       1.82221392 Ry

     total magnetization       =     0.00 Bohr mag/cell
     absolute magnetization    =     0.15 Bohr mag/cell

     iteration #  3     ecut=    50.00 Ry     beta= 0.30
     Davidson diagonalization with overlap
     ethr =  9.16E-04,  avg # of iterations =  2.0

     negative rho (up, down):  7.844E-07 7.947E-07

     total cpu time spent up to now is        9.8 secs

     total energy              =    -923.76789233 Ry
     estimated scf accuracy    <       0.39116826 Ry

     total magnetization       =     0.00 Bohr mag/cell
     absolute magnetization    =     0.04 Bohr mag/cell

     iteration #  4     ecut=    50.00 Ry     beta= 0.30
     Davidson diagonalization with overlap
     ethr =  1.97E-04,  avg # of iterations = 12.0

     negative rho (up, down):  4.915E-07 4.961E-07

     total cpu time spent up to now is       12.3 secs

     total energy              =    -923.77071533 Ry
     estimated scf accuracy    <       0.11393919 Ry

     total magnetization       =     0.00 Bohr mag/cell
     absolute magnetization    =     0.06 Bohr mag/cell

     iteration #  5     ecut=    50.00 Ry     beta= 0.30
     Davidson diagonalization with overlap
     ethr =  5.73E-05,  avg # of iterations =  2.0

     negative rho (up, down):  4.378E-07 4.403E-07

     total cpu time spent up to now is       14.4 secs

     total energy              =    -923.76748087 Ry
     estimated scf accuracy    <       0.08833289 Ry

     total magnetization       =     0.00 Bohr mag/cell
     absolute magnetization    =     0.05 Bohr mag/cell

     iteration #  6     ecut=    50.00 Ry     beta= 0.30
     Davidson diagonalization with overlap
     ethr =  4.44E-05,  avg # of iterations =  2.0

     negative rho (up, down):  7.820E-07 7.848E-07

     total cpu time spent up to now is       16.4 secs

     total energy              =    -923.76798673 Ry
     estimated scf accuracy    <       0.03793028 Ry

     total magnetization       =    -0.00 Bohr mag/cell
     absolute magnetization    =     0.08 Bohr mag/cell

     iteration #  7     ecut=    50.00 Ry     beta= 0.30
     Davidson diagonalization with overlap
     ethr =  1.91E-05,  avg # of iterations =  9.0

     negative rho (up, down):  9.518E-07 9.550E-07

     total cpu time spent up to now is       18.8 secs

     total energy              =    -923.77047328 Ry
     estimated scf accuracy    <       0.07375875 Ry

     total magnetization       =    -0.00 Bohr mag/cell
     absolute magnetization    =     0.03 Bohr mag/cell

     iteration #  8     ecut=    50.00 Ry     beta= 0.30
     Davidson diagonalization with overlap
     ethr =  1.91E-05,  avg # of iterations =  1.5

     negative rho (up, down):  1.141E-06 1.145E-06

     total cpu time spent up to now is       20.8 secs

     total energy              =    -923.77271650 Ry
     estimated scf accuracy    <       0.00420225 Ry

     total magnetization       =     0.00 Bohr mag/cell
     absolute magnetization    =     0.30 Bohr mag/cell

     iteration #  9     ecut=    50.00 Ry     beta= 0.30
     Davidson diagonalization with overlap
     ethr =  2.11E-06,  avg # of iterations =  8.0

     negative rho (up, down):  1.191E-06 1.198E-06

     total cpu time spent up to now is       23.2 secs

     total energy              =    -923.77301515 Ry
     estimated scf accuracy    <       0.00338290 Ry

     total magnetization       =     0.00 Bohr mag/cell
     absolute magnetization    =     0.50 Bohr mag/cell

     iteration # 10     ecut=    50.00 Ry     beta= 0.30
     Davidson diagonalization with overlap
     ethr =  1.70E-06,  avg # of iterations =  1.5

     negative rho (up, down):  1.162E-06 1.169E-06

     total cpu time spent up to now is       25.2 secs

     total energy              =    -923.77396857 Ry
     estimated scf accuracy    <       0.00253093 Ry

     total magnetization       =     0.00 Bohr mag/cell
     absolute magnetization    =     0.83 Bohr mag/cell

     iteration # 11     ecut=    50.00 Ry     beta= 0.30
     Davidson diagonalization with overlap
     ethr =  1.27E-06,  avg # of iterations =  1.0

     negative rho (up, down):  1.148E-06 1.161E-06

     total cpu time spent up to now is       27.1 secs

     total energy              =    -923.77411242 Ry
     estimated scf accuracy    <       0.00279867 Ry

     total magnetization       =    -0.00 Bohr mag/cell
     absolute magnetization    =     0.83 Bohr mag/cell

     iteration # 12     ecut=    50.00 Ry     beta= 0.30
     Davidson diagonalization with overlap
     ethr =  1.27E-06,  avg # of iterations =  1.0

     negative rho (up, down):  1.143E-06 1.162E-06

     total cpu time spent up to now is       29.1 secs

     total energy              =    -923.77451097 Ry
     estimated scf accuracy    <       0.00272959 Ry

     total magnetization       =    -0.00 Bohr mag/cell
     absolute magnetization    =     0.84 Bohr mag/cell

     iteration # 13     ecut=    50.00 Ry     beta= 0.30
     Davidson diagonalization with overlap
     ethr =  1.27E-06,  avg # of iterations =  1.0

     negative rho (up, down):  1.206E-06 1.229E-06

     total cpu time spent up to now is       31.0 secs

     total energy              =    -923.77574136 Ry
     estimated scf accuracy    <       0.00292519 Ry

     total magnetization       =     0.00 Bohr mag/cell
     absolute magnetization    =     0.84 Bohr mag/cell

     iteration # 14     ecut=    50.00 Ry     beta= 0.30
     Davidson diagonalization with overlap
     ethr =  1.27E-06,  avg # of iterations =  3.0

     negative rho (up, down):  1.259E-06 1.285E-06

     total cpu time spent up to now is       33.2 secs

     total energy              =    -923.77637613 Ry
     estimated scf accuracy    <       0.00285615 Ry

     total magnetization       =     0.00 Bohr mag/cell
     absolute magnetization    =     0.92 Bohr mag/cell

     iteration # 15     ecut=    50.00 Ry     beta= 0.30
     Davidson diagonalization with overlap
     ethr =  1.27E-06,  avg # of iterations =  2.0

     negative rho (up, down):  1.292E-06 1.318E-06

     total cpu time spent up to now is       35.2 secs

     total energy              =    -923.77654954 Ry
     estimated scf accuracy    <       0.00249554 Ry

     total magnetization       =    -0.00 Bohr mag/cell
     absolute magnetization    =     0.97 Bohr mag/cell

     iteration # 16     ecut=    50.00 Ry     beta= 0.30
     Davidson diagonalization with overlap
     ethr =  1.25E-06,  avg # of iterations =  2.5

     negative rho (up, down):  1.264E-06 1.286E-06

     total cpu time spent up to now is       37.4 secs

     total energy              =    -923.77638541 Ry
     estimated scf accuracy    <       0.00196264 Ry

     total magnetization       =    -0.00 Bohr mag/cell
     absolute magnetization    =     1.01 Bohr mag/cell

     iteration # 17     ecut=    50.00 Ry     beta= 0.30
     Davidson diagonalization with overlap
     ethr =  9.86E-07,  avg # of iterations =  1.0

     negative rho (up, down):  1.278E-06 1.294E-06

     total cpu time spent up to now is       39.3 secs

     total energy              =    -923.77628652 Ry
     estimated scf accuracy    <       0.00177106 Ry

     total magnetization       =     0.00 Bohr mag/cell
     absolute magnetization    =     1.00 Bohr mag/cell

     iteration # 18     ecut=    50.00 Ry     beta= 0.30
     Davidson diagonalization with overlap
     ethr =  8.90E-07,  avg # of iterations =  1.5

     negative rho (up, down):  1.314E-06 1.317E-06

     total cpu time spent up to now is       41.3 secs

     total energy              =    -923.77580572 Ry
     estimated scf accuracy    <       0.00097883 Ry

     total magnetization       =     0.00 Bohr mag/cell
     absolute magnetization    =     1.04 Bohr mag/cell

     iteration # 19     ecut=    50.00 Ry     beta= 0.30
     Davidson diagonalization with overlap
     ethr =  4.92E-07,  avg # of iterations =  5.0

     negative rho (up, down):  1.307E-06 1.314E-06

     total cpu time spent up to now is       43.8 secs

     total energy              =    -923.77614937 Ry
     estimated scf accuracy    <       0.00004480 Ry

     total magnetization       =    -0.00 Bohr mag/cell
     absolute magnetization    =     1.14 Bohr mag/cell

     iteration # 20     ecut=    50.00 Ry     beta= 0.30
     Davidson diagonalization with overlap
     ethr =  2.25E-08,  avg # of iterations =  4.5

     negative rho (up, down):  1.309E-06 1.317E-06

     total cpu time spent up to now is       46.2 secs

     total energy              =    -923.77616867 Ry
     estimated scf accuracy    <       0.00001127 Ry

     total magnetization       =    -0.00 Bohr mag/cell
     absolute magnetization    =     1.13 Bohr mag/cell

     iteration # 21     ecut=    50.00 Ry     beta= 0.30
     Davidson diagonalization with overlap
     ethr =  5.66E-09,  avg # of iterations =  3.5

     negative rho (up, down):  1.313E-06 1.320E-06

     total cpu time spent up to now is       48.5 secs

     total energy              =    -923.77617291 Ry
     estimated scf accuracy    <       0.00000280 Ry

     total magnetization       =    -0.00 Bohr mag/cell
     absolute magnetization    =     1.12 Bohr mag/cell

     iteration # 22     ecut=    50.00 Ry     beta= 0.30
     Davidson diagonalization with overlap
     ethr =  1.41E-09,  avg # of iterations =  4.0

     negative rho (up, down):  1.318E-06 1.323E-06

     Magnetic moment per site  (integrated on atomic sphere of radius R)
     atom   1 (R=0.046)  charge=  1.1565  magn= -0.0045
     atom   2 (R=0.046)  charge=  1.1840  magn= -0.0683
     atom   3 (R=0.046)  charge=  1.2066  magn=  0.0074
     atom   4 (R=0.046)  charge=  1.1278  magn=  0.0025
     atom   5 (R=0.046)  charge=  1.1714  magn=  0.0028
     atom   6 (R=0.046)  charge=  1.1954  magn=  0.0001
     atom   7 (R=0.046)  charge=  1.1303  magn=  0.0016
     atom   8 (R=0.046)  charge=  1.1735  magn=  0.0037
     atom   9 (R=0.046)  charge=  1.1937  magn= -0.0008
     atom  10 (R=0.046)  charge=  1.1277  magn=  0.0013
     atom  11 (R=0.046)  charge=  1.1734  magn=  0.0027
     atom  12 (R=0.046)  charge=  1.1935  magn= -0.0000
     atom  13 (R=0.046)  charge=  1.1286  magn=  0.0227
     atom  14 (R=0.046)  charge=  1.1739  magn=  0.0134
     atom  15 (R=0.046)  charge=  1.1816  magn= -0.0017
     atom  16 (R=0.046)  charge=  1.1175  magn=  0.0022
     atom  17 (R=0.046)  charge=  1.1723  magn=  0.0009
     atom  18 (R=0.046)  charge=  1.1829  magn=  0.0016
     atom  19 (R=0.046)  charge=  1.1268  magn=  0.0063
     atom  20 (R=0.046)  charge=  1.1726  magn=  0.0044
     atom  21 (R=0.046)  charge=  1.1847  magn= -0.0020
     atom  22 (R=0.046)  charge=  1.1246  magn=  0.0174
     atom  23 (R=0.046)  charge=  1.1717  magn=  0.0073
     atom  24 (R=0.046)  charge=  1.1854  magn= -0.0029
     atom  25 (R=0.046)  charge=  1.1275  magn=  0.0028
     atom  26 (R=0.046)  charge=  1.1721  magn=  0.0027
     atom  27 (R=0.046)  charge=  1.1963  magn=  0.0004
     atom  28 (R=0.046)  charge=  1.1288  magn= -0.0059
     atom  29 (R=0.046)  charge=  1.1711  magn= -0.0017
     atom  30 (R=0.046)  charge=  1.1970  magn=  0.0092
     atom  31 (R=0.046)  charge=  1.1277  magn= -0.0022
     atom  32 (R=0.046)  charge=  1.1723  magn= -0.0017
     atom  33 (R=0.046)  charge=  1.1965  magn=  0.0031
     atom  34 (R=0.046)  charge=  1.1287  magn= -0.0030
     atom  35 (R=0.046)  charge=  1.1712  magn= -0.0015
     atom  36 (R=0.046)  charge=  1.1962  magn=  0.0050
     atom  37 (R=0.046)  charge=  1.1192  magn=  0.0027
     atom  38 (R=0.046)  charge=  1.1709  magn=  0.0008
     atom  39 (R=0.046)  charge=  1.1845  magn=  0.0016
     atom  40 (R=0.046)  charge=  1.1172  magn=  0.0100
     atom  41 (R=0.046)  charge=  1.1667  magn=  0.0156
     atom  42 (R=0.046)  charge=  1.1874  magn= -0.0411
     atom  43 (R=0.046)  charge=  1.1183  magn=  0.0008
     atom  44 (R=0.046)  charge=  1.1698  magn= -0.0006
     atom  45 (R=0.046)  charge=  1.1859  magn=  0.0023
     atom  46 (R=0.046)  charge=  1.1186  magn=  0.0016
     atom  47 (R=0.046)  charge=  1.1704  magn=  0.0003
     atom  48 (R=0.046)  charge=  1.1864  magn=  0.0017
     atom  49 (R=0.037)  charge=  2.0036  magn= -0.0216
     atom  50 (R=0.037)  charge=  0.3726  magn=  0.0078

     total cpu time spent up to now is       50.8 secs

     End of self-consistent calculation

 ------ SPIN UP ------------


          k = 0.0000 0.0000 0.0000 ( 26858 PWs)   bands (ev):

   -26.9541 -21.5157 -21.0876 -17.6800 -17.5363 -17.4779 -17.4533 -17.3725
   -17.3000 -16.8771 -16.7875 -16.7476 -16.6725 -16.6164 -16.2996 -16.1408
   -16.0138 -15.9648 -15.8732 -15.8447 -15.6868 -15.5985 -15.0516 -14.6390
   -14.6087 -14.5941 -14.1225 -14.0410 -13.5894 -13.3412 -13.0530 -12.9464
   -12.8545 -12.2949 -12.2231 -11.8797 -11.7751 -11.7042 -11.2850 -10.8864
   -10.8224 -10.7415 -10.5933 -10.4382 -10.1828 -10.0800  -9.8933  -9.8219
    -9.5614  -9.4552  -9.4509  -9.3999  -9.3568  -8.3315  -8.1362  -7.3797
    -6.8840  -6.7804  -6.7609  -6.5603  -6.2594  -6.2533  -6.1353  -5.9501
    -5.9339  -5.6909  -5.5906  -5.5641  -5.5200  -5.4548  -5.3963  -5.3762
    -5.3424  -5.2928  -5.1819  -5.0073  -4.8269  -4.6868  -4.5303  -4.4461
    -4.3427  -4.2199  -3.9805  -3.9074  -3.8629  -3.6594  -3.6055  -3.5691
    -3.4105  -3.3374  -3.1603  -2.9980  -2.9705  -2.9209  -2.8433  -2.6566
    -2.0166  -1.9767  -1.7543  -1.4182  -0.2343  -0.1813   0.1425   0.5584
     0.6830   0.9025   1.2183   1.2482   1.3354   1.3514   1.6173   1.6710
     2.0960   2.1206   2.2972   2.4380   2.5642   2.6339   2.7054

 ------ SPIN DOWN ----------


          k = 0.0000 0.0000 0.0000 ( 26858 PWs)   bands (ev):

   -26.9999 -21.5149 -21.0748 -17.6780 -17.5274 -17.4801 -17.4518 -17.3609
   -17.3016 -16.9142 -16.7775 -16.7432 -16.6738 -16.6089 -16.3273 -16.1732
   -16.0004 -15.9587 -15.8650 -15.8352 -15.6818 -15.5881 -15.0868 -14.6491
   -14.5882 -14.5853 -14.1161 -14.0336 -13.5916 -13.3338 -13.0560 -12.9414
   -12.8420 -12.2948 -12.2479 -11.8695 -11.7703 -11.7060 -11.2825 -10.8835
   -10.8239 -10.7586 -10.5904 -10.4327 -10.1658 -10.0741  -9.8885  -9.8144
    -9.5754  -9.4521  -9.4483  -9.3946  -9.3503  -8.3308  -8.1802  -7.3978
    -6.8765  -6.7800  -6.7598  -6.5502  -6.2561  -6.2502  -6.1337  -5.9465
    -5.9283  -5.7196  -5.5993  -5.5609  -5.5068  -5.4539  -5.3742  -5.3685
    -5.3270  -5.2835  -5.1762  -5.0008  -4.8344  -4.7232  -4.5114  -4.4470
    -4.3827  -4.2090  -3.9847  -3.9014  -3.8508  -3.6476  -3.5981  -3.5558
    -3.4013  -3.3272  -3.1464  -2.9799  -2.9640  -2.9046  -2.8463  -2.6264
    -2.0028  -1.9742  -1.8008  -1.6542  -0.2403  -0.1694   0.1541   0.5557
     0.6885   0.9101   1.2243   1.2586   1.3463   1.3521   1.6277   1.6717
     2.0941   2.1335   2.3020   2.4440   2.5651   2.6404   2.7076

     the spin up/dw Fermi energies are    -1.4182   -1.6542 ev

!    total energy              =    -923.77617483 Ry
     estimated scf accuracy    <       0.00000074 Ry
     smearing contrib. (-TS)   =      -0.00005642 Ry
     internal energy E=F+TS    =    -923.77611841 Ry

     The total energy is F=E-TS. E is the sum of the following terms:
     one-electron contribution =   -1334.54123619 Ry
     hartree contribution      =     713.96785075 Ry
     xc contribution           =    -226.78177307 Ry
     ewald contribution        =     229.13662610 Ry
     one-center paw contrib.   =    -305.55758601 Ry

     total magnetization       =    -0.00 Bohr mag/cell
     absolute magnetization    =     1.12 Bohr mag/cell

     convergence has been achieved in  22 iterations

     negative rho (up, down):  1.318E-06 1.323E-06

     Forces acting on atoms (cartesian axes, Ry/au):

     atom    1 type  1   force =    -0.03598345   -0.09235249   -0.28077343
     atom    2 type  1   force =     0.15678644   -0.16051939    0.13339367
     atom    3 type  1   force =     0.03655116   -0.04137712   -0.03794070
     atom    4 type  1   force =     0.00239097   -0.00658747    0.01197319
     atom    5 type  1   force =    -0.04968599    0.04929764    0.04956681
     atom    6 type  1   force =    -0.03589283    0.03735768    0.03887964
     atom    7 type  1   force =     0.01664673    0.03401522   -0.05667995
     atom    8 type  1   force =     0.05435747    0.05407474   -0.05312051
     atom    9 type  1   force =     0.02817066    0.03230588   -0.03889392
     atom   10 type  1   force =    -0.02397794   -0.02022109   -0.03054485
     atom   11 type  1   force =    -0.05071911   -0.05148660   -0.05062200
     atom   12 type  1   force =    -0.03499898   -0.03238870   -0.03869015
     atom   13 type  1   force =    -0.05509870    0.06171513   -0.06520762
     atom   14 type  1   force =     0.06741640   -0.06776608   -0.06427871
     atom   15 type  1   force =    -0.02979562    0.02943124    0.02106592
     atom   16 type  1   force =     0.06080670   -0.05344183    0.04604030
     atom   17 type  1   force =    -0.05015375    0.04980590   -0.05029297
     atom   18 type  1   force =     0.00426405   -0.00454903    0.00639077
     atom   19 type  1   force =    -0.01131585    0.01995178   -0.15199884
     atom   20 type  1   force =    -0.05798275   -0.05756878    0.05818183
     atom   21 type  1   force =     0.01615093    0.01098085   -0.01563160
     atom   22 type  1   force =    -0.02950007    0.07237434   -0.19021461
     atom   23 type  1   force =     0.05733839    0.05883797    0.05642389
     atom   24 type  1   force =    -0.00218303   -0.00261665   -0.02538878
     atom   25 type  1   force =     0.01573966   -0.01703181    0.02371202
     atom   26 type  1   force =     0.04785327   -0.04780825    0.04758677
     atom   27 type  1   force =     0.03715629   -0.03692125    0.03709650
     atom   28 type  1   force =    -0.01543726    0.01835510    0.03349818
     atom   29 type  1   force =    -0.05618264    0.05616800    0.05589838
     atom   30 type  1   force =    -0.02981746    0.03017646    0.03410690
     atom   31 type  1   force =     0.01999978    0.02269492   -0.01808173
     atom   32 type  1   force =     0.05123084    0.05147344   -0.05150571
     atom   33 type  1   force =     0.03543356    0.03487625   -0.03466484
     atom   34 type  1   force =    -0.02317928   -0.02743000   -0.02162465
     atom   35 type  1   force =    -0.05324819   -0.05264799   -0.05281620
     atom   36 type  1   force =    -0.03249168   -0.03390200   -0.03285326
     atom   37 type  1   force =    -0.05394570    0.05294130    0.04813931
     atom   38 type  1   force =     0.05230147   -0.05199037   -0.05186710
     atom   39 type  1   force =    -0.00676446    0.00686871    0.00628445
     atom   40 type  1   force =     0.04263845   -0.03941931    0.02969518
     atom   41 type  1   force =    -0.09395298    0.09318089   -0.09693255
     atom   42 type  1   force =     0.03695587   -0.03532838    0.03230526
     atom   43 type  1   force =     0.05124303    0.04955719   -0.05078094
     atom   44 type  1   force =    -0.05354032   -0.05410272    0.05517254
     atom   45 type  1   force =     0.00893458    0.00842640   -0.00809803
     atom   46 type  1   force =    -0.05282682   -0.04960478   -0.05139563
     atom   47 type  1   force =     0.05317773    0.05311171    0.05328488
     atom   48 type  1   force =    -0.00618111   -0.00692364   -0.00645536
     atom   49 type  2   force =     0.00347846    0.06982820    0.71662815
     atom   50 type  3   force =    -0.01216694   -0.01382119    0.03203008

     Total force =     0.994896     Total SCF correction =     0.001008

     BFGS Geometry Optimization
     Energy error            =      0.0E+00 Ry
     Gradient error          =      7.2E-01 Ry/Bohr

     number of scf cycles    =   1
     number of bfgs steps    =   0

     energy             new  =    -923.7761748321 Ry

     new trust radius        =       0.5000000000 bohr
     new conv_thr            =       0.0000010000 Ry


ATOMIC_POSITIONS (angstrom)
C             6.1547772121        4.5740633629        6.0658245835
C             7.7416140900        3.0270141675        7.7330179834
C             6.9874314031        3.7837952070        6.9600579854
C             4.6088786070        6.1665793121        6.1733997695
C             3.0677419579        7.7021153343        7.7022142472
C             3.7858105142        6.9877277727        6.9882870467
C             6.1751171497        6.1814995230        4.5871719003
C             7.7039746642        7.7038707683        3.0664798818
C             6.9843518329        6.9858713956        3.7847077058
C             4.5941888606        4.5955693841        4.5917757261
C             3.0663623206        3.0660802913        3.0663980062
C             3.7831389746        3.7840981710        3.7817825870
C             6.2047529583        4.5686783700        4.5220382499
C             7.7887734106        2.9880980952        2.9893795945
C             7.0420510463        3.7318150544        3.7297410620
C             4.5683445512        6.2053618067        4.5629183638
C             2.9945700723        7.7833021019        2.9945189116
C             3.7225669051        7.0513283759        3.7243484089
C             4.5418417817        4.5523316526        6.1701452002
C             2.9916931622        2.9918452809        7.7853799943
C             3.7269349579        3.7250351189        7.0472558792
C             6.2181596527        6.2555952969        6.1591021080
C             7.7850700575        7.7866211057        7.7857340078
C             7.0541978066        7.0550384626        7.0456704214
C             0.6737838311       10.0967413437        0.6767134227
C             2.2055845741        8.5714319689        2.2054866446
C             1.4896537695        9.2844326018        1.4896317990
C            10.0963272930        0.6737449208        0.6803095274
C             8.5683546465        2.2076399749        2.2085408976
C             9.2870430195        1.4860889008        1.4885332139
C             0.6753492892        0.6753396706       10.0963555308
C             2.2058257229        2.2059148718        8.5700732677
C             1.4890207189        1.4878159277        9.2852617605
C            10.0994823415       10.0979203373       10.0990536211
C             8.5704329621        8.5706535177        8.5705917056
C             9.2890603286        9.2885420806        9.2879274602
C             0.7091766516       10.0654542637       10.0636896836
C             2.2782191457        8.4898951709        8.4889404701
C             1.5495142744        9.2215240343        9.2213093380
C            10.0606682922        0.7135146426       10.0569120458
C             8.4734752326        2.2932410485        8.4723803336
C             9.2315801227        1.5380179287        9.2298711671
C            10.0648302021       10.0652107123        0.7103396009
C             8.4883256158        8.4891189493        2.2792741767
C             9.2222831769        9.2220964389        1.5490242277
C             0.7065878030        0.7067718007        0.7061137193
C             2.2795411453        2.2785168838        2.2795805201
C             1.5487286349        1.5474557797        1.5476278598
O             6.0842782230        4.9416596712        7.7453383329
H             6.0785290335        4.9109211475        8.4697700487



     Writing config-only to output data dir ./pwscf.save/
     NEW-OLD atomic charge density approx. for the potential

     Check: negative core charge=   -0.000004

     negative rho (up, down):  2.726E-06 2.165E-05
     Generating pointlists ...
     new r_m :   0.0272 (alat units)  0.5652 (a.u.) for type    2
     new r_m :   0.0272 (alat units)  0.5652 (a.u.) for type    3

     total cpu time spent up to now is       55.6 secs

     Self-consistent Calculation

     iteration #  1     ecut=    50.00 Ry     beta= 0.30
     Davidson diagonalization with overlap
     ethr =  1.00E-06,  avg # of iterations = 15.5

     negative rho (up, down):  6.915E-05 8.256E-05

     total cpu time spent up to now is       62.0 secs

     total energy              =    -923.85051571 Ry
     estimated scf accuracy    <       0.62251484 Ry

     total magnetization       =    -0.00 Bohr mag/cell
     absolute magnetization    =     0.61 Bohr mag/cell

     iteration #  2     ecut=    50.00 Ry     beta= 0.30
     Davidson diagonalization with overlap
     ethr =  3.13E-04,  avg # of iterations =  3.0

     negative rho (up, down):  4.262E-05 5.283E-05

     total cpu time spent up to now is       64.2 secs

     total energy              =    -923.93856932 Ry
     estimated scf accuracy    <       0.11829756 Ry

     total magnetization       =     0.00 Bohr mag/cell
     absolute magnetization    =     0.53 Bohr mag/cell

     iteration #  3     ecut=    50.00 Ry     beta= 0.30
     Davidson diagonalization with overlap
     ethr =  5.94E-05,  avg # of iterations =  2.0

     negative rho (up, down):  2.676E-05 3.510E-05

     total cpu time spent up to now is       66.4 secs

     total energy              =    -923.94062163 Ry
     estimated scf accuracy    <       0.08666067 Ry

     total magnetization       =    -0.00 Bohr mag/cell
     absolute magnetization    =     0.48 Bohr mag/cell

     iteration #  4     ecut=    50.00 Ry     beta= 0.30
     Davidson diagonalization with overlap
     ethr =  4.35E-05,  avg # of iterations =  1.0

     negative rho (up, down):  1.622E-05 2.164E-05

     total cpu time spent up to now is       68.3 secs

     total energy              =    -923.94147233 Ry
     estimated scf accuracy    <       0.02352554 Ry

     total magnetization       =    -0.00 Bohr mag/cell
     absolute magnetization    =     0.50 Bohr mag/cell

     iteration #  5     ecut=    50.00 Ry     beta= 0.30
     Davidson diagonalization with overlap
     ethr =  1.18E-05,  avg # of iterations =  2.0

     negative rho (up, down):  1.037E-05 1.308E-05

     total cpu time spent up to now is       70.4 secs

     total energy              =    -923.93949037 Ry
     estimated scf accuracy    <       0.00490841 Ry

     total magnetization       =     0.00 Bohr mag/cell
     absolute magnetization    =     0.41 Bohr mag/cell

     iteration #  6     ecut=    50.00 Ry     beta= 0.30
     Davidson diagonalization with overlap
     ethr =  2.47E-06,  avg # of iterations =  4.0

     negative rho (up, down):  7.045E-06 8.696E-06

     total cpu time spent up to now is       72.6 secs

     total energy              =    -923.93988974 Ry
     estimated scf accuracy    <       0.00057099 Ry

     total magnetization       =     0.00 Bohr mag/cell
     absolute magnetization    =     0.35 Bohr mag/cell

     iteration #  7     ecut=    50.00 Ry     beta= 0.30
     Davidson diagonalization with overlap
     ethr =  2.87E-07,  avg # of iterations =  3.0

     negative rho (up, down):  5.325E-06 6.016E-06

     total cpu time spent up to now is       74.7 secs

     total energy              =    -923.93992845 Ry
     estimated scf accuracy    <       0.00023743 Ry

     total magnetization       =     0.00 Bohr mag/cell
     absolute magnetization    =     0.30 Bohr mag/cell

     iteration #  8     ecut=    50.00 Ry     beta= 0.30
     Davidson diagonalization with overlap
     ethr =  1.19E-07,  avg # of iterations =  3.5

     negative rho (up, down):  3.956E-06 4.254E-06

     total cpu time spent up to now is       76.9 secs

     total energy              =    -923.94001188 Ry
     estimated scf accuracy    <       0.00006036 Ry

     total magnetization       =     0.00 Bohr mag/cell
     absolute magnetization    =     0.25 Bohr mag/cell

     iteration #  9     ecut=    50.00 Ry     beta= 0.30
     Davidson diagonalization with overlap
     ethr =  3.03E-08,  avg # of iterations =  4.0

     negative rho (up, down):  2.983E-06 3.108E-06

     total cpu time spent up to now is       79.1 secs

     total energy              =    -923.94006744 Ry
     estimated scf accuracy    <       0.00002337 Ry

     total magnetization       =    -0.00 Bohr mag/cell
     absolute magnetization    =     0.21 Bohr mag/cell

     iteration # 10     ecut=    50.00 Ry     beta= 0.30
     Davidson diagonalization with overlap
     ethr =  1.17E-08,  avg # of iterations =  4.0

     negative rho (up, down):  2.258E-06 2.371E-06

     total cpu time spent up to now is       81.5 secs

     total energy              =    -923.94009785 Ry
     estimated scf accuracy    <       0.00001293 Ry

     total magnetization       =     0.00 Bohr mag/cell
     absolute magnetization    =     0.18 Bohr mag/cell

     iteration # 11     ecut=    50.00 Ry     beta= 0.30
     Davidson diagonalization with overlap
     ethr =  6.50E-09,  avg # of iterations =  4.0

     negative rho (up, down):  1.896E-06 1.914E-06

     total cpu time spent up to now is       83.8 secs

     total energy              =    -923.94012623 Ry
     estimated scf accuracy    <       0.00000884 Ry

     total magnetization       =     0.00 Bohr mag/cell
     absolute magnetization    =     0.15 Bohr mag/cell

     iteration # 12     ecut=    50.00 Ry     beta= 0.30
     Davidson diagonalization with overlap
     ethr =  4.44E-09,  avg # of iterations =  5.0

     negative rho (up, down):  1.672E-06 1.631E-06

     total cpu time spent up to now is       86.5 secs

     total energy              =    -923.94015002 Ry
     estimated scf accuracy    <       0.00000385 Ry

     total magnetization       =    -0.00 Bohr mag/cell
     absolute magnetization    =     0.11 Bohr mag/cell

     iteration # 13     ecut=    50.00 Ry     beta= 0.30
     Davidson diagonalization with overlap
     ethr =  1.93E-09,  avg # of iterations =  6.0

     negative rho (up, down):  1.496E-06 1.490E-06

     total cpu time spent up to now is       89.3 secs

     total energy              =    -923.94016416 Ry
     estimated scf accuracy    <       0.00000156 Ry

     total magnetization       =     0.00 Bohr mag/cell
     absolute magnetization    =     0.06 Bohr mag/cell

     iteration # 14     ecut=    50.00 Ry     beta= 0.30
     Davidson diagonalization with overlap
     ethr =  7.83E-10,  avg # of iterations =  6.0

     negative rho (up, down):  1.340E-06 1.340E-06

     Magnetic moment per site  (integrated on atomic sphere of radius R)
     atom   1 (R=0.046)  charge=  1.1163  magn= -0.0001
     atom   2 (R=0.046)  charge=  1.1961  magn= -0.0012
     atom   3 (R=0.046)  charge=  1.1206  magn=  0.0012
     atom   4 (R=0.046)  charge=  1.1247  magn=  0.0000
     atom   5 (R=0.046)  charge=  1.1876  magn=  0.0001
     atom   6 (R=0.046)  charge=  1.1825  magn= -0.0000
     atom   7 (R=0.046)  charge=  1.1429  magn= -0.0000
     atom   8 (R=0.046)  charge=  1.1868  magn=  0.0000
     atom   9 (R=0.046)  charge=  1.1877  magn= -0.0000
     atom  10 (R=0.046)  charge=  1.1372  magn= -0.0000
     atom  11 (R=0.046)  charge=  1.1879  magn=  0.0000
     atom  12 (R=0.046)  charge=  1.1856  magn=  0.0000
     atom  13 (R=0.046)  charge=  1.1449  magn=  0.0000
     atom  14 (R=0.046)  charge=  1.1641  magn=  0.0001
     atom  15 (R=0.046)  charge=  1.1502  magn= -0.0001
     atom  16 (R=0.046)  charge=  1.1168  magn=  0.0000
     atom  17 (R=0.046)  charge=  1.1711  magn= -0.0001
     atom  18 (R=0.046)  charge=  1.1534  magn=  0.0001
     atom  19 (R=0.046)  charge=  1.1209  magn=  0.0001
     atom  20 (R=0.046)  charge=  1.1678  magn=  0.0002
     atom  21 (R=0.046)  charge=  1.1488  magn= -0.0002
     atom  22 (R=0.046)  charge=  1.1133  magn=  0.0002
     atom  23 (R=0.046)  charge=  1.1703  magn=  0.0002
     atom  24 (R=0.046)  charge=  1.1473  magn= -0.0001
     atom  25 (R=0.046)  charge=  1.1292  magn=  0.0001
     atom  26 (R=0.046)  charge=  1.1882  magn=  0.0001
     atom  27 (R=0.046)  charge=  1.1882  magn= -0.0001
     atom  28 (R=0.046)  charge=  1.1294  magn= -0.0002
     atom  29 (R=0.046)  charge=  1.1871  magn= -0.0001
     atom  30 (R=0.046)  charge=  1.1861  magn=  0.0002
     atom  31 (R=0.046)  charge=  1.1293  magn= -0.0003
     atom  32 (R=0.046)  charge=  1.1882  magn= -0.0002
     atom  33 (R=0.046)  charge=  1.1875  magn=  0.0002
     atom  34 (R=0.046)  charge=  1.1303  magn= -0.0001
     atom  35 (R=0.046)  charge=  1.1868  magn= -0.0001
     atom  36 (R=0.046)  charge=  1.1881  magn=  0.0002
     atom  37 (R=0.046)  charge=  1.1140  magn=  0.0001
     atom  38 (R=0.046)  charge=  1.1701  magn= -0.0000
     atom  39 (R=0.046)  charge=  1.1546  magn=  0.0001
     atom  40 (R=0.046)  charge=  1.1176  magn=  0.0004
     atom  41 (R=0.046)  charge=  1.1845  magn=  0.0011
     atom  42 (R=0.046)  charge=  1.1398  magn= -0.0019
     atom  43 (R=0.046)  charge=  1.1149  magn=  0.0000
     atom  44 (R=0.046)  charge=  1.1699  magn= -0.0000
     atom  45 (R=0.046)  charge=  1.1543  magn=  0.0001
     atom  46 (R=0.046)  charge=  1.1152  magn=  0.0001
     atom  47 (R=0.046)  charge=  1.1699  magn=  0.0000
     atom  48 (R=0.046)  charge=  1.1553  magn= -0.0000
     atom  49 (R=0.027)  charge=  0.9633  magn= -0.0002
     atom  50 (R=0.027)  charge=  0.3832  magn=  0.0000

     total cpu time spent up to now is       92.2 secs

     End of self-consistent calculation

 ------ SPIN UP ------------


          k = 0.0000 0.0000 0.0000 ( 26858 PWs)   bands (ev):

   -24.1321 -21.7631 -21.5900 -17.7095 -17.5773 -17.5709 -17.4949 -17.4105
   -17.3616 -17.0568 -16.8556 -16.7912 -16.7583 -16.7355 -16.2994 -16.1301
   -16.0976 -15.9451 -15.8150 -15.7658 -15.5711 -15.4070 -14.6103 -14.5581
   -14.4818 -14.4712 -14.2384 -14.1759 -13.7728 -13.2927 -13.0102 -12.7701
   -12.7223 -12.3237 -12.2656 -12.1120 -12.1049 -11.5515 -11.2720 -11.0514
   -10.9892 -10.7537 -10.5253 -10.2823  -9.9900  -9.9156  -9.8856  -9.6074
    -9.6019  -9.5841  -9.5426  -9.4472  -9.3946  -8.0681  -7.3951  -6.9245
    -6.8252  -6.7753  -6.5962  -6.5458  -6.3419  -6.2883  -6.1511  -6.0324
    -5.9587  -5.8457  -5.7450  -5.6121  -5.5734  -5.5404  -5.4869  -5.4640
    -5.4150  -5.4140  -5.3250  -5.1343  -4.9351  -4.8993  -4.8225  -4.5772
    -4.5693  -4.4498  -4.2728  -3.7521  -3.7013  -3.5969  -3.4811  -3.3682
    -3.2356  -3.1681  -3.0968  -2.9481  -2.8926  -2.8688  -2.7767  -2.6093
    -2.0985  -1.9487  -1.8725  -1.6250  -0.5523  -0.3809  -0.0162   0.2795
     0.4802   0.6803   0.9189   1.0279   1.0490   1.1155   1.2789   1.2810
     1.6859   2.2287   2.2638   2.2689   2.3770   2.4364   2.4576

 ------ SPIN DOWN ----------


          k = 0.0000 0.0000 0.0000 ( 26858 PWs)   bands (ev):

   -24.1334 -21.7632 -21.5900 -17.7092 -17.5772 -17.5709 -17.4951 -17.4104
   -17.3615 -17.0571 -16.8554 -16.7911 -16.7582 -16.7353 -16.2991 -16.1300
   -16.0976 -15.9457 -15.8148 -15.7656 -15.5710 -15.4068 -14.6123 -14.5573
   -14.4815 -14.4712 -14.2385 -14.1758 -13.7730 -13.2929 -13.0098 -12.7700
   -12.7222 -12.3242 -12.2655 -12.1120 -12.1048 -11.5515 -11.2721 -11.0514
   -10.9891 -10.7537 -10.5252 -10.2823  -9.9901  -9.9156  -9.8857  -9.6073
    -9.6019  -9.5840  -9.5426  -9.4472  -9.3945  -8.0680  -7.3944  -6.9244
    -6.8254  -6.7755  -6.5961  -6.5459  -6.3420  -6.2883  -6.1511  -6.0325
    -5.9588  -5.8459  -5.7449  -5.6118  -5.5732  -5.5402  -5.4866  -5.4638
    -5.4148  -5.4139  -5.3248  -5.1342  -4.9351  -4.8993  -4.8228  -4.5774
    -4.5693  -4.4497  -4.2725  -3.7521  -3.7010  -3.5968  -3.4807  -3.3681
    -3.2354  -3.1681  -3.0965  -2.9476  -2.8924  -2.8687  -2.7763  -2.6095
    -2.0999  -1.9487  -1.8727  -1.6309  -0.5531  -0.3807  -0.0160   0.2792
     0.4802   0.6806   0.9189   1.0282   1.0491   1.1156   1.2790   1.2811
     1.6864   2.2285   2.2639   2.2694   2.3768   2.4365   2.4577

     the spin up/dw Fermi energies are    -1.6250   -1.6309 ev

!    total energy              =    -923.94017140 Ry
     estimated scf accuracy    <       0.00000063 Ry
     smearing contrib. (-TS)   =      -0.00005642 Ry
     internal energy E=F+TS    =    -923.94011498 Ry

     The total energy is F=E-TS. E is the sum of the following terms:
     one-electron contribution =   -1312.52243858 Ry
     hartree contribution      =     702.94131393 Ry
     xc contribution           =    -226.53840179 Ry
     ewald contribution        =     217.71393761 Ry
     one-center paw contrib.   =    -305.53452615 Ry

     total magnetization       =    -0.00 Bohr mag/cell
     absolute magnetization    =     0.03 Bohr mag/cell

     convergence has been achieved in  14 iterations

     negative rho (up, down):  1.340E-06 1.340E-06

     Forces acting on atoms (cartesian axes, Ry/au):

     atom    1 type  1   force =     0.03894094   -0.04111160   -0.09128967
     atom    2 type  1   force =    -0.08888988    0.08257791   -0.12538320
     atom    3 type  1   force =    -0.01321156    0.03299002    0.12093952
     atom    4 type  1   force =    -0.01652711    0.01740763    0.01325747
     atom    5 type  1   force =     0.00939672   -0.00959479   -0.00841529
     atom    6 type  1   force =    -0.02295091    0.02241467    0.02441394
     atom    7 type  1   force =     0.00722552    0.02515882   -0.04500040
     atom    8 type  1   force =    -0.02230275   -0.02261909    0.02216571
     atom    9 type  1   force =     0.05109964    0.05746747   -0.06408005
     atom   10 type  1   force =    -0.03763470   -0.01120307   -0.05175155
     atom   11 type  1   force =     0.01567296    0.01496933    0.01507541
     atom   12 type  1   force =    -0.04471637   -0.03871391   -0.04728321
     atom   13 type  1   force =    -0.03006666    0.02530634   -0.01900793
     atom   14 type  1   force =    -0.09632251    0.09584567    0.09440869
     atom   15 type  1   force =     0.08178937   -0.08220885   -0.09447810
     atom   16 type  1   force =     0.00197228   -0.00368246   -0.00446585
     atom   17 type  1   force =     0.05814285   -0.05880209    0.05811257
     atom   18 type  1   force =    -0.03690724    0.03668690   -0.03660598
     atom   19 type  1   force =     0.03529830    0.01642653   -0.02651631
     atom   20 type  1   force =     0.07598784    0.07662092   -0.07784611
     atom   21 type  1   force =    -0.05544603   -0.05998806    0.04474564
     atom   22 type  1   force =    -0.01560093   -0.04036698   -0.04408104
     atom   23 type  1   force =    -0.06988370   -0.06829166   -0.07434127
     atom   24 type  1   force =     0.05315874    0.05546755    0.02862795
     atom   25 type  1   force =     0.01345184   -0.01444653    0.01957920
     atom   26 type  1   force =    -0.00887394    0.00893541   -0.00907103
     atom   27 type  1   force =     0.03245269   -0.03203661    0.03290407
     atom   28 type  1   force =    -0.01122961    0.00918315    0.03646777
     atom   29 type  1   force =     0.02736490   -0.02772619   -0.02755144
     atom   30 type  1   force =    -0.04006284    0.04049105    0.04847705
     atom   31 type  1   force =     0.01791132    0.01890502   -0.01511526
     atom   32 type  1   force =    -0.01638589   -0.01587775    0.01793591
     atom   33 type  1   force =     0.03689897    0.03693524   -0.03722045
     atom   34 type  1   force =    -0.01936389   -0.02222697   -0.01341133
     atom   35 type  1   force =     0.01822030    0.01837695    0.02055552
     atom   36 type  1   force =    -0.04048919   -0.04154973   -0.04100777
     atom   37 type  1   force =    -0.00891197    0.00986148    0.00365072
     atom   38 type  1   force =    -0.05947935    0.06014938    0.05987494
     atom   39 type  1   force =     0.03672837   -0.03661059   -0.03865677
     atom   40 type  1   force =     0.00466102    0.00310289   -0.02119481
     atom   41 type  1   force =     0.13712861   -0.13651715    0.13225643
     atom   42 type  1   force =    -0.04462717    0.04549194   -0.05123061
     atom   43 type  1   force =     0.00770577    0.00857879   -0.00781421
     atom   44 type  1   force =     0.06844093    0.06772350   -0.06657662
     atom   45 type  1   force =    -0.04269509   -0.04223904    0.04402207
     atom   46 type  1   force =    -0.00882605   -0.00694128   -0.00632372
     atom   47 type  1   force =    -0.06268966   -0.06294804   -0.06284250
     atom   48 type  1   force =     0.03964961    0.04054003    0.04091736
     atom   49 type  2   force =     0.05085392    0.02224304   -0.90713092
     atom   50 type  3   force =    -0.00605840   -0.07415522    1.23730545

     Total force =     1.645651     Total SCF correction =     0.001099
     Energy error            =      1.6E-01 Ry
     Gradient error          =      1.2E+00 Ry/Bohr

     number of scf cycles    =   2
     number of bfgs steps    =   1

     energy             old  =    -923.7761748321 Ry
     energy             new  =    -923.9401714013 Ry

     CASE: energy            _new < energy            _old

     new trust radius        =       0.7408045876 bohr
     new conv_thr            =       0.0000010000 Ry


ATOMIC_POSITIONS (angstrom)
C             6.1503720666        4.5198447985        5.9112395608
C             7.7853844621        2.9796375221        7.7551206761
C             6.9999205351        3.7751435581        6.9797150439
C             4.6049305004        6.1688999350        6.1828407793
C             3.0481598565        7.7214617747        7.7220410970
C             3.7626171143        7.0114196406        7.0132745475
C             6.1848338972        6.2045166015        4.5478818751
C             7.7217402888        7.7214124558        3.0492312470
C             7.0126211053        7.0179456184        3.7476462445
C             4.5719096465        4.5830281858        4.5622358160
C             3.0482230145        3.0473802802        3.0481207682
C             3.7537276366        3.7576918861        3.7499232204
C             6.1707203561        4.6042510826        4.4868042930
C             7.7899183142        2.9866501936        2.9890696069
C             7.0534763128        3.7200975953        3.7105127379
C             4.5964081113        6.1801043294        4.5823539789
C             2.9896066085        7.7879078967        2.9894833555
C             3.7132645890        7.0604349468        3.7160982866
C             4.5474696481        4.5663403373        6.0934274533
C             2.9886226386        2.9891543271        7.7879750975
C             3.7173613822        3.7117446558        7.0538086610
C             6.2000896272        6.2760026641        6.0597804208
C             7.7897066011        7.7924192791        7.7886013989
C             7.0693841728        7.0707313837        7.0429129002
C             0.6849851165       10.0846538430        0.6933795599
C             2.2244979621        8.5525576127        2.2242197084
C             1.5163085203        9.2580105937        1.5163968663
C            10.0859386536        0.6848288232        0.7065335756
C             8.5513047287        2.2245733698        2.2254056788
C             9.2613876608        1.5120366752        1.5186857415
C             0.6898313623        0.6913413264       10.0835903855
C             2.2239792588        2.2243325712        8.5522671399
C             1.5162500688        1.5148046046        9.2582818013
C            10.0831223216       10.0787694413       10.0852066890
C             8.5519263561        8.5524656531        8.5529906493
C             9.2620674425        9.2605895749        9.2606134998
C             0.6821006401       10.0923655017       10.0865426035
C             2.2837460319        8.4847126331        8.4837301172
C             1.5576328574        9.2134883680        9.2123872866
C            10.0813440961        0.6966547707       10.0638759292
C             8.4727593272        2.2937942600        8.4688364448
C             9.2346945599        1.5359016371        9.2288761918
C            10.0903185826       10.0902032808        0.6850269332
C             8.4849655543        8.4852866162        2.2839386108
C             9.2133294996        9.2130519848        1.5587594388
C             0.6800432746        0.6822559165        0.6809768695
C             2.2844871358        2.2833544475        2.2845284065
C             1.5579994072        1.5566620778        1.5571604541
O             6.1013204265        4.9799647424        7.7930317993
H             6.0711906692        4.8821187260        8.8606585534



     Writing config-only to output data dir ./pwscf.save/
     NEW-OLD atomic charge density approx. for the potential

     Check: negative core charge=   -0.000004

     negative rho (up, down):  1.324E-06 1.324E-06
     Generating pointlists ...
     new r_m :   0.0452 (alat units)  0.9394 (a.u.) for type    1

     total cpu time spent up to now is       97.1 secs

     Self-consistent Calculation

     iteration #  1     ecut=    50.00 Ry     beta= 0.30
     Davidson diagonalization with overlap
     ethr =  1.00E-06,  avg # of iterations = 12.0

     negative rho (up, down):  1.453E-06 1.454E-06

     total cpu time spent up to now is      102.9 secs

     total energy              =    -924.00394449 Ry
     estimated scf accuracy    <       0.46929950 Ry

     total magnetization       =    -0.00 Bohr mag/cell
     absolute magnetization    =     0.02 Bohr mag/cell

     iteration #  2     ecut=    50.00 Ry     beta= 0.30
     Davidson diagonalization with overlap
     ethr =  2.36E-04,  avg # of iterations =  4.0

     negative rho (up, down):  1.602E-06 1.602E-06

     total cpu time spent up to now is      105.2 secs

     total energy              =    -924.09021235 Ry
     estimated scf accuracy    <       0.18458994 Ry

     total magnetization       =     0.00 Bohr mag/cell
     absolute magnetization    =     0.02 Bohr mag/cell

     iteration #  3     ecut=    50.00 Ry     beta= 0.30
     Davidson diagonalization with overlap
     ethr =  9.28E-05,  avg # of iterations =  2.0

     negative rho (up, down):  1.825E-06 1.825E-06

     total cpu time spent up to now is      107.3 secs

     total energy              =    -924.10728470 Ry
     estimated scf accuracy    <       0.07035128 Ry

     total magnetization       =    -0.00 Bohr mag/cell
     absolute magnetization    =     0.02 Bohr mag/cell

     iteration #  4     ecut=    50.00 Ry     beta= 0.30
     Davidson diagonalization with overlap
     ethr =  3.54E-05,  avg # of iterations =  2.0

     negative rho (up, down):  1.608E-06 1.608E-06

     total cpu time spent up to now is      109.4 secs

     total energy              =    -924.11191305 Ry
     estimated scf accuracy    <       0.01628434 Ry

     total magnetization       =     0.00 Bohr mag/cell
     absolute magnetization    =     0.02 Bohr mag/cell

     iteration #  5     ecut=    50.00 Ry     beta= 0.30
     Davidson diagonalization with overlap
     ethr =  8.18E-06,  avg # of iterations =  4.0

     negative rho (up, down):  1.683E-06 1.683E-06

     total cpu time spent up to now is      111.5 secs

     total energy              =    -924.11287148 Ry
     estimated scf accuracy    <       0.00454010 Ry

     total magnetization       =     0.00 Bohr mag/cell
     absolute magnetization    =     0.01 Bohr mag/cell

     iteration #  6     ecut=    50.00 Ry     beta= 0.30
     Davidson diagonalization with overlap
     ethr =  2.28E-06,  avg # of iterations =  2.0

     negative rho (up, down):  1.695E-06 1.695E-06

     total cpu time spent up to now is      113.6 secs

     total energy              =    -924.11315349 Ry
     estimated scf accuracy    <       0.00080623 Ry

     total magnetization       =    -0.00 Bohr mag/cell
     absolute magnetization    =     0.01 Bohr mag/cell

     iteration #  7     ecut=    50.00 Ry     beta= 0.30
     Davidson diagonalization with overlap
     ethr =  4.05E-07,  avg # of iterations =  4.0

     negative rho (up, down):  1.656E-06 1.656E-06

     total cpu time spent up to now is      115.9 secs

     total energy              =    -924.11328992 Ry
     estimated scf accuracy    <       0.00009869 Ry

     total magnetization       =     0.00 Bohr mag/cell
     absolute magnetization    =     0.01 Bohr mag/cell

     iteration #  8     ecut=    50.00 Ry     beta= 0.30
     Davidson diagonalization with overlap
     ethr =  4.96E-08,  avg # of iterations =  2.0

     negative rho (up, down):  1.631E-06 1.631E-06

     total cpu time spent up to now is      118.0 secs

     total energy              =    -924.11329561 Ry
     estimated scf accuracy    <       0.00004276 Ry

     total magnetization       =     0.00 Bohr mag/cell
     absolute magnetization    =     0.01 Bohr mag/cell

     iteration #  9     ecut=    50.00 Ry     beta= 0.30
     Davidson diagonalization with overlap
     ethr =  2.15E-08,  avg # of iterations =  3.0

     negative rho (up, down):  1.615E-06 1.615E-06

     total cpu time spent up to now is      120.2 secs

     total energy              =    -924.11330280 Ry
     estimated scf accuracy    <       0.00000651 Ry

     total magnetization       =     0.00 Bohr mag/cell
     absolute magnetization    =     0.01 Bohr mag/cell

     iteration # 10     ecut=    50.00 Ry     beta= 0.30
     Davidson diagonalization with overlap
     ethr =  3.27E-09,  avg # of iterations =  4.0

     negative rho (up, down):  1.605E-06 1.605E-06

     total cpu time spent up to now is      122.4 secs

     total energy              =    -924.11330348 Ry
     estimated scf accuracy    <       0.00000165 Ry

     total magnetization       =     0.00 Bohr mag/cell
     absolute magnetization    =     0.01 Bohr mag/cell

     iteration # 11     ecut=    50.00 Ry     beta= 0.30
     Davidson diagonalization with overlap
     ethr =  8.29E-10,  avg # of iterations =  4.0

     negative rho (up, down):  1.599E-06 1.599E-06

     Magnetic moment per site  (integrated on atomic sphere of radius R)
     atom   1 (R=0.045)  charge=  1.0684  magn= -0.0000
     atom   2 (R=0.045)  charge=  1.1608  magn= -0.0002
     atom   3 (R=0.045)  charge=  1.0233  magn=  0.0003
     atom   4 (R=0.045)  charge=  1.0659  magn= -0.0000
     atom   5 (R=0.045)  charge=  1.1531  magn=  0.0000
     atom   6 (R=0.045)  charge=  1.1201  magn= -0.0000
     atom   7 (R=0.045)  charge=  1.0968  magn= -0.0000
     atom   8 (R=0.045)  charge=  1.1607  magn=  0.0000
     atom   9 (R=0.045)  charge=  1.1427  magn= -0.0000
     atom  10 (R=0.045)  charge=  1.0911  magn= -0.0000
     atom  11 (R=0.045)  charge=  1.1583  magn= -0.0000
     atom  12 (R=0.045)  charge=  1.1372  magn=  0.0000
     atom  13 (R=0.045)  charge=  1.1045  magn=  0.0000
     atom  14 (R=0.045)  charge=  1.1327  magn=  0.0000
     atom  15 (R=0.045)  charge=  1.0975  magn= -0.0000
     atom  16 (R=0.045)  charge=  1.0572  magn=  0.0000
     atom  17 (R=0.045)  charge=  1.1352  magn= -0.0000
     atom  18 (R=0.045)  charge=  1.0906  magn=  0.0000
     atom  19 (R=0.045)  charge=  1.0583  magn=  0.0000
     atom  20 (R=0.045)  charge=  1.1335  magn=  0.0000
     atom  21 (R=0.045)  charge=  1.0835  magn= -0.0000
     atom  22 (R=0.045)  charge=  1.0477  magn=  0.0001
     atom  23 (R=0.045)  charge=  1.1367  magn=  0.0000
     atom  24 (R=0.045)  charge=  1.0793  magn= -0.0000
     atom  25 (R=0.045)  charge=  1.0737  magn=  0.0000
     atom  26 (R=0.045)  charge=  1.1556  magn=  0.0000
     atom  27 (R=0.045)  charge=  1.1320  magn= -0.0000
     atom  28 (R=0.045)  charge=  1.0720  magn= -0.0000
     atom  29 (R=0.045)  charge=  1.1547  magn= -0.0000
     atom  30 (R=0.045)  charge=  1.1316  magn=  0.0000
     atom  31 (R=0.045)  charge=  1.0733  magn= -0.0001
     atom  32 (R=0.045)  charge=  1.1550  magn= -0.0000
     atom  33 (R=0.045)  charge=  1.1327  magn=  0.0000
     atom  34 (R=0.045)  charge=  1.0727  magn= -0.0000
     atom  35 (R=0.045)  charge=  1.1524  magn= -0.0000
     atom  36 (R=0.045)  charge=  1.1350  magn=  0.0000
     atom  37 (R=0.045)  charge=  1.0516  magn=  0.0000
     atom  38 (R=0.045)  charge=  1.1330  magn= -0.0000
     atom  39 (R=0.045)  charge=  1.0883  magn=  0.0000
     atom  40 (R=0.045)  charge=  1.0558  magn=  0.0001
     atom  41 (R=0.045)  charge=  1.1640  magn=  0.0002
     atom  42 (R=0.045)  charge=  1.0793  magn= -0.0003
     atom  43 (R=0.045)  charge=  1.0540  magn=  0.0000
     atom  44 (R=0.045)  charge=  1.1335  magn= -0.0000
     atom  45 (R=0.045)  charge=  1.0894  magn=  0.0000
     atom  46 (R=0.045)  charge=  1.0531  magn=  0.0000
     atom  47 (R=0.045)  charge=  1.1329  magn=  0.0000
     atom  48 (R=0.045)  charge=  1.0901  magn= -0.0000
     atom  49 (R=0.027)  charge=  0.9131  magn= -0.0000
     atom  50 (R=0.027)  charge=  0.1718  magn= -0.0000

     total cpu time spent up to now is      124.7 secs

     End of self-consistent calculation

 ------ SPIN UP ------------


          k = 0.0000 0.0000 0.0000 ( 26858 PWs)   bands (ev):

   -22.3678 -21.8579 -20.9549 -17.7823 -17.6393 -17.5072 -17.4196 -17.3746
   -17.1562 -17.0152 -16.9434 -16.8670 -16.8626 -16.7429 -16.4016 -16.3029
   -16.0901 -15.7095 -15.6334 -15.6037 -15.4356 -15.2773 -14.6475 -14.6183
   -14.4640 -14.1769 -14.1301 -13.9600 -13.6995 -13.1675 -12.7322 -12.5708
   -12.5466 -12.4111 -12.2899 -12.2762 -12.0334 -11.2410 -11.2195 -11.1418
   -11.0906 -10.7374 -10.2582 -10.1744  -9.9213  -9.8517  -9.7445  -9.6791
    -9.5898  -9.5739  -9.4555  -9.3961  -8.9404  -7.6917  -7.1824  -6.8795
    -6.7261  -6.6640  -6.5185  -6.4297  -6.3285  -6.2519  -6.1732  -6.0246
    -5.9538  -5.8661  -5.7660  -5.6812  -5.6326  -5.6201  -5.5993  -5.5638
    -5.5398  -5.4944  -5.4910  -5.2834  -5.1968  -4.9559  -4.8610  -4.7076
    -4.6892  -4.5871  -4.2647  -3.6493  -3.6225  -3.4727  -3.3986  -3.2661
    -3.1395  -3.1237  -3.0419  -3.0247  -2.9655  -2.9230  -2.7889  -2.4614
    -2.2459  -2.0948  -1.8235  -1.4953  -0.5239  -0.3036   0.1014   0.3943
     0.6275   0.7874   1.0237   1.0589   1.1601   1.1685   1.2530   1.2902
     1.6803   2.1226   2.1296   2.1759   2.2655   2.3890   2.5415

 ------ SPIN DOWN ----------


          k = 0.0000 0.0000 0.0000 ( 26858 PWs)   bands (ev):

   -22.3677 -21.8579 -20.9550 -17.7823 -17.6392 -17.5073 -17.4196 -17.3746
   -17.1563 -17.0152 -16.9434 -16.8670 -16.8626 -16.7429 -16.4016 -16.3029
   -16.0901 -15.7095 -15.6334 -15.6037 -15.4357 -15.2773 -14.6474 -14.6183
   -14.4640 -14.1768 -14.1301 -13.9600 -13.6995 -13.1676 -12.7321 -12.5708
   -12.5466 -12.4111 -12.2899 -12.2762 -12.0334 -11.2410 -11.2195 -11.1418
   -11.0906 -10.7374 -10.2582 -10.1744  -9.9213  -9.8517  -9.7445  -9.6792
    -9.5898  -9.5739  -9.4555  -9.3961  -8.9404  -7.6917  -7.1823  -6.8795
    -6.7261  -6.6640  -6.5184  -6.4298  -6.3285  -6.2519  -6.1733  -6.0246
    -5.9538  -5.8660  -5.7660  -5.6812  -5.6326  -5.6201  -5.5993  -5.5638
    -5.5398  -5.4944  -5.4910  -5.2833  -5.1969  -4.9558  -4.8610  -4.7076
    -4.6892  -4.5871  -4.2645  -3.6492  -3.6225  -3.4727  -3.3986  -3.2661
    -3.1395  -3.1237  -3.0419  -3.0246  -2.9655  -2.9229  -2.7888  -2.4614
    -2.2460  -2.0948  -1.8237  -1.4964  -0.5240  -0.3036   0.1014   0.3943
     0.6275   0.7875   1.0237   1.0589   1.1602   1.1685   1.2530   1.2902
     1.6804   2.1226   2.1296   2.1759   2.2656   2.3890   2.5415

     the spin up/dw Fermi energies are    -1.4953   -1.4964 ev

!    total energy              =    -924.11330368 Ry
     estimated scf accuracy    <       0.00000052 Ry
     smearing contrib. (-TS)   =      -0.00005642 Ry
     internal energy E=F+TS    =    -924.11324726 Ry

     The total energy is F=E-TS. E is the sum of the following terms:
     one-electron contribution =   -1293.37146006 Ry
     hartree contribution      =     693.68791488 Ry
     xc contribution           =    -226.38361584 Ry
     ewald contribution        =     207.54332455 Ry
     one-center paw contrib.   =    -305.58941079 Ry

     total magnetization       =    -0.00 Bohr mag/cell
     absolute magnetization    =     0.01 Bohr mag/cell

     convergence has been achieved in  11 iterations

     negative rho (up, down):  1.599E-06 1.599E-06

     Forces acting on atoms (cartesian axes, Ry/au):

     atom    1 type  1   force =     0.06545848   -0.03114588    0.18749743
     atom    2 type  1   force =    -0.25347099    0.24734628   -0.28458330
     atom    3 type  1   force =    -0.04509617    0.06188500    0.09726084
     atom    4 type  1   force =    -0.01454376    0.02052851   -0.00528910
     atom    5 type  1   force =     0.04515690   -0.04521090   -0.04346040
     atom    6 type  1   force =     0.02032497   -0.02092000   -0.01832038
     atom    7 type  1   force =     0.00056389    0.02061745   -0.06770683
     atom    8 type  1   force =    -0.01738180   -0.01821670    0.01722280
     atom    9 type  1   force =    -0.01889518   -0.00587389   -0.00375048
     atom   10 type  1   force =    -0.04852889    0.00487708   -0.08410627
     atom   11 type  1   force =     0.02653214    0.02548114    0.02556613
     atom   12 type  1   force =     0.00557558    0.01740224    0.00124752
     atom   13 type  1   force =     0.03960146   -0.04400023   -0.13527705
     atom   14 type  1   force =    -0.10771711    0.10759779    0.10291203
     atom   15 type  1   force =     0.02690400   -0.02706470   -0.05569808
     atom   16 type  1   force =    -0.07908625    0.06632117   -0.07959429
     atom   17 type  1   force =     0.09398074   -0.09438693    0.09402586
     atom   18 type  1   force =     0.00065109   -0.00111111   -0.00063943
     atom   19 type  1   force =     0.00902224   -0.03312419    0.08842787
     atom   20 type  1   force =     0.10134650    0.10161665   -0.10454857
     atom   21 type  1   force =    -0.00579795   -0.01371658   -0.01649537
     atom   22 type  1   force =     0.03567082   -0.02774166    0.11168614
     atom   23 type  1   force =    -0.10012399   -0.09848621   -0.10891148
     atom   24 type  1   force =     0.00448147    0.00877552   -0.03255105
     atom   25 type  1   force =     0.00928975   -0.00806719    0.00536949
     atom   26 type  1   force =    -0.02961067    0.02961248   -0.02960014
     atom   27 type  1   force =    -0.01785020    0.01778313   -0.01612264
     atom   28 type  1   force =    -0.00571257    0.00154817    0.00751339
     atom   29 type  1   force =     0.03740771   -0.03797295   -0.03566962
     atom   30 type  1   force =     0.01243842   -0.01225360   -0.00340674
     atom   31 type  1   force =     0.00682990    0.00955993   -0.00989870
     atom   32 type  1   force =    -0.02970404   -0.02886731    0.03247320
     atom   33 type  1   force =    -0.01480795   -0.01562857    0.01565825
     atom   34 type  1   force =    -0.00869836   -0.00368862   -0.00526068
     atom   35 type  1   force =     0.03150723    0.03135637    0.03559426
     atom   36 type  1   force =     0.01245892    0.01095696    0.01294677
     atom   37 type  1   force =     0.05323499   -0.05224952   -0.05399341
     atom   38 type  1   force =    -0.10057544    0.10101474    0.10050828
     atom   39 type  1   force =     0.00098818   -0.00041254   -0.00254576
     atom   40 type  1   force =    -0.04091226    0.04358536   -0.04931106
     atom   41 type  1   force =     0.25417615   -0.25236507    0.25256484
     atom   42 type  1   force =    -0.02393717    0.02474145   -0.02967908
     atom   43 type  1   force =    -0.05616302   -0.05248810    0.05431560
     atom   44 type  1   force =     0.10114644    0.10001759   -0.09879844
     atom   45 type  1   force =    -0.00233876   -0.00205184    0.00457910
     atom   46 type  1   force =     0.05335830    0.05491889    0.05634112
     atom   47 type  1   force =    -0.09860606   -0.09943087   -0.09860993
     atom   48 type  1   force =     0.00048024    0.00182865    0.00252047
     atom   49 type  2   force =     0.06232381   -0.07749985    0.27904012
     atom   50 type  3   force =     0.00864829   -0.00539751   -0.11144325

     Total force =     0.955219     Total SCF correction =     0.001116
     Energy error            =      1.7E-01 Ry
     Gradient error          =      2.8E-01 Ry/Bohr

     number of scf cycles    =   3
     number of bfgs steps    =   2

     energy             old  =    -923.9401714013 Ry
     energy             new  =    -924.1133036772 Ry

     CASE: energy            _new < energy            _old

     new trust radius        =       0.3449199381 bohr
     new conv_thr            =       0.0000010000 Ry


ATOMIC_POSITIONS (angstrom)
C             6.1764269046        4.4891764446        5.9374687835
C             7.6939818527        3.0672815386        7.6434892342
C             6.9851956704        3.7982877297        7.0277730685
C             4.5974484096        6.1783316990        6.1838878708
C             3.0605927429        7.7089286325        7.7103971745
C             3.7632041626        7.0107386086        7.0141031876
C             6.1882710192        6.2206909549        4.5069125215
C             7.7199075420        7.7191611989        3.0511610345
C             7.0146858923        7.0266599396        3.7332948513
C             4.5443290722        4.5808592580        4.5175368087
C             3.0535812383        3.0521181035        3.0530295793
C             3.7459424319        3.7558063053        3.7395442825
C             6.1756475411        4.5979342808        4.4198451766
C             7.7445845791        3.0318310165        3.0326685851
C             7.0694495968        3.7039587896        3.6800518877
C             4.5729474016        6.1991976479        4.5558379276
C             3.0274830429        7.7497406477        3.0273548690
C             3.7099811134        7.0634640751        3.7126252806
C             4.5535238216        4.5574814192        6.1048507316
C             3.0304065090        3.0311797947        7.7446977134
C             3.7110508142        3.7009334012        7.0498490127
C             6.2087140691        6.2704737965        6.0732669541
C             7.7490197708        7.7527987230        7.7436785039
C             7.0769033785        7.0802088265        7.0291527406
C             0.6925709071       10.0772713883        0.7011946613
C             2.2182331098        8.5588366080        2.2178986656
C             1.5179890571        9.2563832562        1.5188278425
C            10.0801132114        0.6891355751        0.7185379390
C             8.5616547910        2.2139487687        2.2157061799
C             9.2576846041        1.5159153467        1.5276559802
C             0.6975237524        0.7006519297       10.0752309740
C             2.2173139810        2.2181024221        8.5602028275
C             1.5194316630        1.5175738766        9.2555228920
C            10.0740435420       10.0708106544       10.0784316885
C             8.5592478977        8.5598292351        8.5623128805
C             9.2579405967        9.2555248980        9.2565761939
C             0.6951678001       10.0796651139       10.0717371660
C             2.2433242052        8.5254347833        8.5242314203
C             1.5612089423        9.2101764890        9.2078863047
C            10.0712243951        0.7092082345       10.0455382262
C             8.5789168017        2.1883372057        8.5733559512
C             9.2251573738        1.5460997924        9.2155726399
C            10.0755270008       10.0767743573        0.6991154090
C             8.5264542759        8.5261509306        2.2438570381
C             9.2088385255        9.2086570641        1.5644385433
C             0.6933313755        0.6968590669        0.6959754148
C             2.2446363148        2.2431269154        2.2446741506
C             1.5617805705        1.5609897249        1.5618814954
O             6.1331020768        4.9607364344        7.9080234998
H             6.0723046517        4.8695570970        8.9591362362



     Writing config-only to output data dir ./pwscf.save/
     NEW-OLD atomic charge density approx. for the potential

     Check: negative core charge=   -0.000004

     negative rho (up, down):  1.701E-06 1.701E-06
     Generating pointlists ...
     new r_m :   0.0418 (alat units)  0.8689 (a.u.) for type    1

     total cpu time spent up to now is      129.6 secs

     Self-consistent Calculation

     iteration #  1     ecut=    50.00 Ry     beta= 0.30
     Davidson diagonalization with overlap
     c_bands:  2 eigenvalues not converged
     c_bands:  2 eigenvalues not converged
     ethr =  1.00E-06,  avg # of iterations = 20.0

     negative rho (up, down):  2.053E-06 2.053E-06

     total cpu time spent up to now is      136.3 secs

     total energy              =    -924.01331815 Ry
     estimated scf accuracy    <       0.59692728 Ry

     total magnetization       =    -0.00 Bohr mag/cell
     absolute magnetization    =     0.00 Bohr mag/cell

     iteration #  2     ecut=    50.00 Ry     beta= 0.30
     Davidson diagonalization with overlap
     ethr =  3.00E-04,  avg # of iterations =  3.0

     negative rho (up, down):  2.271E-06 2.271E-06

     total cpu time spent up to now is      138.5 secs

     total energy              =    -924.06569205 Ry
     estimated scf accuracy    <       0.08835459 Ry

     total magnetization       =     0.00 Bohr mag/cell
     absolute magnetization    =     0.00 Bohr mag/cell

     iteration #  3     ecut=    50.00 Ry     beta= 0.30
     Davidson diagonalization with overlap
     ethr =  4.44E-05,  avg # of iterations =  2.0

     negative rho (up, down):  2.491E-06 2.491E-06

     total cpu time spent up to now is      140.6 secs

     total energy              =    -924.06689465 Ry
     estimated scf accuracy    <       0.02409912 Ry

     total magnetization       =    -0.00 Bohr mag/cell
     absolute magnetization    =     0.00 Bohr mag/cell

     iteration #  4     ecut=    50.00 Ry     beta= 0.30
     Davidson diagonalization with overlap
     ethr =  1.21E-05,  avg # of iterations =  2.0

     negative rho (up, down):  2.655E-06 2.655E-06

     total cpu time spent up to now is      142.7 secs

     total energy              =    -924.06687891 Ry
     estimated scf accuracy    <       0.00642445 Ry

     total magnetization       =    -0.00 Bohr mag/cell
     absolute magnetization    =     0.00 Bohr mag/cell

     iteration #  5     ecut=    50.00 Ry     beta= 0.30
     Davidson diagonalization with overlap
     ethr =  3.23E-06,  avg # of iterations =  9.0

     negative rho (up, down):  2.588E-06 2.587E-06

     total cpu time spent up to now is      145.1 secs

     total energy              =    -924.06749838 Ry
     estimated scf accuracy    <       0.00272080 Ry

     total magnetization       =    -0.00 Bohr mag/cell
     absolute magnetization    =     0.00 Bohr mag/cell

     iteration #  6     ecut=    50.00 Ry     beta= 0.30
     Davidson diagonalization with overlap
     ethr =  1.37E-06,  avg # of iterations =  3.0

     negative rho (up, down):  2.504E-06 2.504E-06

     total cpu time spent up to now is      147.1 secs

     total energy              =    -924.06779644 Ry
     estimated scf accuracy    <       0.00027068 Ry

     total magnetization       =    -0.00 Bohr mag/cell
     absolute magnetization    =     0.00 Bohr mag/cell

     iteration #  7     ecut=    50.00 Ry     beta= 0.30
     Davidson diagonalization with overlap
     ethr =  1.36E-07,  avg # of iterations =  2.0

     negative rho (up, down):  2.433E-06 2.433E-06

     total cpu time spent up to now is      149.3 secs

     total energy              =    -924.06783324 Ry
     estimated scf accuracy    <       0.00005599 Ry

     total magnetization       =    -0.00 Bohr mag/cell
     absolute magnetization    =     0.00 Bohr mag/cell

     iteration #  8     ecut=    50.00 Ry     beta= 0.30
     Davidson diagonalization with overlap
     ethr =  2.81E-08,  avg # of iterations =  4.0

     negative rho (up, down):  2.387E-06 2.387E-06

     total cpu time spent up to now is      151.6 secs

     total energy              =    -924.06783918 Ry
     estimated scf accuracy    <       0.00001357 Ry

     total magnetization       =     0.00 Bohr mag/cell
     absolute magnetization    =     0.00 Bohr mag/cell

     iteration #  9     ecut=    50.00 Ry     beta= 0.30
     Davidson diagonalization with overlap
     ethr =  6.82E-09,  avg # of iterations =  4.0

     negative rho (up, down):  2.354E-06 2.354E-06

     total cpu time spent up to now is      153.9 secs

     total energy              =    -924.06784096 Ry
     estimated scf accuracy    <       0.00000330 Ry

     total magnetization       =    -0.00 Bohr mag/cell
     absolute magnetization    =     0.00 Bohr mag/cell

     iteration # 10     ecut=    50.00 Ry     beta= 0.30
[...]
     absolute magnetization    =     0.01 Bohr mag/cell

     iteration #  7     ecut=    50.00 Ry     beta= 0.30
     Davidson diagonalization with overlap
     ethr =  3.13E-07,  avg # of iterations =  2.0

     negative rho (up, down):  1.407E-06 1.409E-06

     total cpu time spent up to now is     1314.1 secs

     total energy              =    -924.53647209 Ry
     estimated scf accuracy    <       0.00013715 Ry

     total magnetization       =    -0.00 Bohr mag/cell
     absolute magnetization    =     0.01 Bohr mag/cell

     iteration #  8     ecut=    50.00 Ry     beta= 0.30
     Davidson diagonalization with overlap
     ethr =  6.89E-08,  avg # of iterations =  4.0

     negative rho (up, down):  1.345E-06 1.345E-06

     total cpu time spent up to now is     1316.4 secs

     total energy              =    -924.53650021 Ry
     estimated scf accuracy    <       0.00008570 Ry

     total magnetization       =    -0.00 Bohr mag/cell
     absolute magnetization    =     0.01 Bohr mag/cell

     iteration #  9     ecut=    50.00 Ry     beta= 0.30
     Davidson diagonalization with overlap
     ethr =  4.31E-08,  avg # of iterations =  1.0

     negative rho (up, down):  1.324E-06 1.324E-06

     total cpu time spent up to now is     1318.3 secs

     total energy              =    -924.53651654 Ry
     estimated scf accuracy    <       0.00001704 Ry

     total magnetization       =    -0.00 Bohr mag/cell
     absolute magnetization    =     0.01 Bohr mag/cell

     iteration # 10     ecut=    50.00 Ry     beta= 0.30
     Davidson diagonalization with overlap
     ethr =  8.56E-09,  avg # of iterations =  4.0

     negative rho (up, down):  1.298E-06 1.298E-06

     total cpu time spent up to now is     1320.7 secs

     total energy              =    -924.53652306 Ry
     estimated scf accuracy    <       0.00000192 Ry

     total magnetization       =     0.00 Bohr mag/cell
     absolute magnetization    =     0.01 Bohr mag/cell

     iteration # 11     ecut=    50.00 Ry     beta= 0.30
     Davidson diagonalization with overlap
     ethr =  9.64E-10,  avg # of iterations =  4.0

     negative rho (up, down):  1.286E-06 1.286E-06

     total cpu time spent up to now is     1323.0 secs

     total energy              =    -924.53652518 Ry
     estimated scf accuracy    <       0.00000047 Ry

     total magnetization       =    -0.00 Bohr mag/cell
     absolute magnetization    =     0.00 Bohr mag/cell

     iteration # 12     ecut=    50.00 Ry     beta= 0.30
     Davidson diagonalization with overlap
     ethr =  2.37E-10,  avg # of iterations =  3.5

     negative rho (up, down):  1.280E-06 1.280E-06

     total cpu time spent up to now is     1325.2 secs

     total energy              =    -924.53652646 Ry
     estimated scf accuracy    <       0.00000010 Ry

     total magnetization       =     0.00 Bohr mag/cell
     absolute magnetization    =     0.00 Bohr mag/cell

     iteration # 13     ecut=    50.00 Ry     beta= 0.30
     Davidson diagonalization with overlap
     ethr =  4.90E-11,  avg # of iterations =  3.0

     negative rho (up, down):  1.276E-06 1.276E-06

     total cpu time spent up to now is     1327.5 secs

     total energy              =    -924.53652715 Ry
     estimated scf accuracy    <       0.00000002 Ry

     total magnetization       =     0.00 Bohr mag/cell
     absolute magnetization    =     0.00 Bohr mag/cell

     iteration # 14     ecut=    50.00 Ry     beta= 0.30
     Davidson diagonalization with overlap
     ethr =  9.31E-12,  avg # of iterations =  4.0

     negative rho (up, down):  1.266E-06 1.266E-06

     Magnetic moment per site  (integrated on atomic sphere of radius R)
     atom   1 (R=0.042)  charge=  0.8567  magn=  0.0000
     atom   2 (R=0.042)  charge=  0.9047  magn= -0.0000
     atom   3 (R=0.042)  charge=  0.8705  magn=  0.0000
     atom   4 (R=0.042)  charge=  0.8621  magn=  0.0000
     atom   5 (R=0.042)  charge=  0.9169  magn= -0.0000
     atom   6 (R=0.042)  charge=  0.9121  magn=  0.0000
     atom   7 (R=0.042)  charge=  0.8611  magn= -0.0000
     atom   8 (R=0.042)  charge=  0.9153  magn= -0.0000
     atom   9 (R=0.042)  charge=  0.9103  magn=  0.0000
     atom  10 (R=0.042)  charge=  0.8604  magn=  0.0000
     atom  11 (R=0.042)  charge=  0.9155  magn= -0.0000
     atom  12 (R=0.042)  charge=  0.9101  magn=  0.0000
     atom  13 (R=0.042)  charge=  0.8578  magn=  0.0000
     atom  14 (R=0.042)  charge=  0.9177  magn=  0.0000
     atom  15 (R=0.042)  charge=  0.9109  magn= -0.0000
     atom  16 (R=0.042)  charge=  0.8607  magn=  0.0000
     atom  17 (R=0.042)  charge=  0.9151  magn=  0.0000
     atom  18 (R=0.042)  charge=  0.9101  magn= -0.0000
     atom  19 (R=0.042)  charge=  0.8639  magn= -0.0000
     atom  20 (R=0.042)  charge=  0.9180  magn= -0.0000
     atom  21 (R=0.042)  charge=  0.9117  magn=  0.0000
     atom  22 (R=0.042)  charge=  0.8642  magn= -0.0000
     atom  23 (R=0.042)  charge=  0.9177  magn= -0.0000
     atom  24 (R=0.042)  charge=  0.9117  magn=  0.0000
     atom  25 (R=0.042)  charge=  0.8600  magn= -0.0000
     atom  26 (R=0.042)  charge=  0.9159  magn= -0.0000
     atom  27 (R=0.042)  charge=  0.9104  magn=  0.0000
     atom  28 (R=0.042)  charge=  0.8574  magn=  0.0000
     atom  29 (R=0.042)  charge=  0.9162  magn=  0.0000
     atom  30 (R=0.042)  charge=  0.9127  magn= -0.0000
     atom  31 (R=0.042)  charge=  0.8624  magn=  0.0000
     atom  32 (R=0.042)  charge=  0.9180  magn=  0.0000
     atom  33 (R=0.042)  charge=  0.9124  magn= -0.0000
     atom  34 (R=0.042)  charge=  0.8623  magn=  0.0000
     atom  35 (R=0.042)  charge=  0.9171  magn=  0.0000
     atom  36 (R=0.042)  charge=  0.9129  magn= -0.0000
     atom  37 (R=0.042)  charge=  0.8624  magn= -0.0000
     atom  38 (R=0.042)  charge=  0.9171  magn=  0.0000
     atom  39 (R=0.042)  charge=  0.9121  magn= -0.0000
     atom  40 (R=0.042)  charge=  0.8559  magn= -0.0000
     atom  41 (R=0.042)  charge=  0.9095  magn=  0.0000
     atom  42 (R=0.042)  charge=  0.9063  magn= -0.0000
     atom  43 (R=0.042)  charge=  0.8611  magn=  0.0000
     atom  44 (R=0.042)  charge=  0.9154  magn=  0.0000
     atom  45 (R=0.042)  charge=  0.9099  magn= -0.0000
     atom  46 (R=0.042)  charge=  0.8612  magn=  0.0000
     atom  47 (R=0.042)  charge=  0.9155  magn=  0.0000
     atom  48 (R=0.042)  charge=  0.9099  magn= -0.0000
     atom  49 (R=0.027)  charge=  0.9233  magn= -0.0000
     atom  50 (R=0.027)  charge=  0.2020  magn=  0.0000

     total cpu time spent up to now is     1329.9 secs

     End of self-consistent calculation

 ------ SPIN UP ------------


          k = 0.0000 0.0000 0.0000 ( 26858 PWs)   bands (ev):

   -23.5223 -21.4445 -21.3434 -17.5061 -17.4654 -17.3844 -17.2670 -17.2365
   -17.1280 -16.8889 -16.8462 -16.8241 -16.7605 -16.6886 -16.0682 -16.0219
   -15.9865 -15.8691 -15.8277 -15.7694 -15.5771 -15.4350 -14.5872 -14.5603
   -14.4698 -14.1787 -14.0507 -14.0341 -13.5671 -13.1325 -12.8031 -12.7341
   -12.6541 -12.2012 -12.0477 -12.0211 -12.0081 -11.4389 -11.0269 -10.9929
   -10.9197 -10.7188 -10.6229 -10.2420  -9.8269  -9.7623  -9.5774  -9.4146
    -9.4002  -9.3722  -9.3403  -9.2705  -9.1857  -8.9336  -7.1984  -6.8886
    -6.7975  -6.7213  -6.6916  -6.5245  -6.3544  -6.3483  -6.2248  -6.1404
    -6.0057  -5.7995  -5.7360  -5.6988  -5.6361  -5.5928  -5.5724  -5.5158
    -5.4848  -5.4797  -5.3721  -5.3545  -5.0460  -4.9555  -4.8246  -4.7336
    -4.6843  -4.4248  -4.3930  -4.2394  -3.7593  -3.6853  -3.6597  -3.4235
    -3.3566  -3.3343  -3.1369  -3.1269  -2.9957  -2.9666  -2.9048  -2.5502
    -2.2972  -2.0402  -1.8130  -1.3208  -0.2384  -0.1987  -0.0453   0.6132
     0.6278   0.7458   1.1528   1.1669   1.1918   1.1990   1.4062   1.4886
     1.9765   2.2356   2.3512   2.3773   2.3909   2.4190   2.4863

 ------ SPIN DOWN ----------


          k = 0.0000 0.0000 0.0000 ( 26858 PWs)   bands (ev):

   -23.5223 -21.4444 -21.3434 -17.5061 -17.4654 -17.3844 -17.2670 -17.2365
   -17.1280 -16.8889 -16.8462 -16.8241 -16.7605 -16.6886 -16.0683 -16.0219
   -15.9865 -15.8691 -15.8277 -15.7694 -15.5771 -15.4349 -14.5872 -14.5603
   -14.4698 -14.1787 -14.0507 -14.0341 -13.5671 -13.1325 -12.8031 -12.7341
   -12.6541 -12.2012 -12.0477 -12.0211 -12.0081 -11.4389 -11.0269 -10.9929
   -10.9197 -10.7188 -10.6229 -10.2420  -9.8269  -9.7623  -9.5774  -9.4145
    -9.4002  -9.3722  -9.3403  -9.2705  -9.1857  -8.9336  -7.1984  -6.8886
    -6.7975  -6.7213  -6.6916  -6.5245  -6.3544  -6.3483  -6.2248  -6.1404
    -6.0057  -5.7995  -5.7360  -5.6988  -5.6361  -5.5928  -5.5724  -5.5158
    -5.4848  -5.4798  -5.3721  -5.3545  -5.0460  -4.9555  -4.8246  -4.7336
    -4.6843  -4.4248  -4.3930  -4.2394  -3.7593  -3.6853  -3.6597  -3.4235
    -3.3566  -3.3342  -3.1369  -3.1269  -2.9957  -2.9666  -2.9048  -2.5502
    -2.2972  -2.0402  -1.8130  -1.3208  -0.2384  -0.1987  -0.0453   0.6132
     0.6278   0.7458   1.1528   1.1669   1.1918   1.1990   1.4062   1.4886
     1.9766   2.2356   2.3512   2.3773   2.3909   2.4190   2.4862

     the spin up/dw Fermi energies are    -1.3208   -1.3208 ev

!    total energy              =    -924.53652726 Ry
     estimated scf accuracy    <          4.2E-09 Ry
     smearing contrib. (-TS)   =      -0.00005642 Ry
     internal energy E=F+TS    =    -924.53647084 Ry

     The total energy is F=E-TS. E is the sum of the following terms:
     one-electron contribution =   -1257.06635153 Ry
     hartree contribution      =     675.25439785 Ry
     xc contribution           =    -226.22781539 Ry
     ewald contribution        =     189.04931505 Ry
     one-center paw contrib.   =    -305.54601682 Ry

     total magnetization       =    -0.00 Bohr mag/cell
     absolute magnetization    =     0.00 Bohr mag/cell

     convergence has been achieved in  14 iterations

     negative rho (up, down):  1.266E-06 1.266E-06

     Forces acting on atoms (cartesian axes, Ry/au):

     atom    1 type  1   force =     0.00013503   -0.00010174    0.00003477
     atom    2 type  1   force =    -0.00006185   -0.00008485    0.00001169
     atom    3 type  1   force =     0.00019304   -0.00018143   -0.00001596
     atom    4 type  1   force =    -0.00000740    0.00014531    0.00033740
     atom    5 type  1   force =     0.00030348   -0.00037742   -0.00031633
     atom    6 type  1   force =    -0.00039556    0.00036995    0.00009906
     atom    7 type  1   force =     0.00007347    0.00006393    0.00009030
     atom    8 type  1   force =    -0.00026909   -0.00019592    0.00031035
     atom    9 type  1   force =     0.00024803    0.00008490   -0.00018857
     atom   10 type  1   force =    -0.00008206   -0.00022743    0.00002193
     atom   11 type  1   force =    -0.00053705   -0.00050260   -0.00049387
     atom   12 type  1   force =     0.00076677    0.00048714    0.00069899
     atom   13 type  1   force =     0.00012884   -0.00007188   -0.00005922
     atom   14 type  1   force =     0.00061880   -0.00067112   -0.00041249
     atom   15 type  1   force =    -0.00061484    0.00055866    0.00054463
     atom   16 type  1   force =     0.00001450   -0.00008077    0.00020219
     atom   17 type  1   force =     0.00008638   -0.00007131    0.00009830
     atom   18 type  1   force =    -0.00032771    0.00032804   -0.00055379
     atom   19 type  1   force =     0.00030278    0.00011608    0.00008422
     atom   20 type  1   force =    -0.00015626   -0.00025825    0.00054973
     atom   21 type  1   force =     0.00017923    0.00011768   -0.00016062
     atom   22 type  1   force =    -0.00003476   -0.00001088   -0.00003190
     atom   23 type  1   force =    -0.00001246   -0.00010777    0.00015473
     atom   24 type  1   force =     0.00002067   -0.00019390   -0.00024859
     atom   25 type  1   force =     0.00003789    0.00023317   -0.00002152
     atom   26 type  1   force =     0.00005520    0.00004928   -0.00018605
     atom   27 type  1   force =     0.00001311    0.00016957   -0.00032742
     atom   28 type  1   force =     0.00015509   -0.00005698   -0.00019582
     atom   29 type  1   force =     0.00072797   -0.00075253   -0.00066247
     atom   30 type  1   force =    -0.00084032    0.00081911    0.00022454
     atom   31 type  1   force =     0.00006366    0.00009886    0.00005588
     atom   32 type  1   force =     0.00069508    0.00086373   -0.00071319
     atom   33 type  1   force =    -0.00072743   -0.00042539    0.00033317
     atom   34 type  1   force =     0.00004800   -0.00010764    0.00022779
     atom   35 type  1   force =     0.00012095    0.00016590    0.00033491
     atom   36 type  1   force =    -0.00045959   -0.00031108   -0.00032972
     atom   37 type  1   force =     0.00009808    0.00003337   -0.00005205
     atom   38 type  1   force =    -0.00026173    0.00018915    0.00001956
     atom   39 type  1   force =    -0.00030866    0.00033147   -0.00017037
     atom   40 type  1   force =    -0.00003307   -0.00006411    0.00035436
     atom   41 type  1   force =    -0.00011848   -0.00019920   -0.00008205
     atom   42 type  1   force =    -0.00036693   -0.00015582    0.00006234
     atom   43 type  1   force =     0.00012657   -0.00008550    0.00021687
     atom   44 type  1   force =     0.00011248   -0.00004746    0.00004924
     atom   45 type  1   force =     0.00029336    0.00000614   -0.00001970
     atom   46 type  1   force =     0.00011063    0.00005799    0.00002402
     atom   47 type  1   force =    -0.00024542   -0.00027274   -0.00036045
     atom   48 type  1   force =     0.00038942    0.00029376    0.00030006
     atom   49 type  2   force =    -0.00006529    0.00034854   -0.00019848
     atom   50 type  3   force =    -0.00019252   -0.00031601    0.00035964

     Total force =     0.003884     Total SCF correction =     0.000081
     Energy error            =      1.5E-05 Ry
     Gradient error          =      8.6E-04 Ry/Bohr

     bfgs converged in  50 scf cycles and  47 bfgs steps
     (criteria: energy <  1.0E-04 Ry, force <  1.0E-03 Ry/Bohr)

     End of BFGS Geometry Optimization

     Final energy             =    -924.5365272590 Ry

     File ./pwscf.bfgs deleted, as requested
Begin final coordinates

ATOMIC_POSITIONS (angstrom)
C             6.1518343551        4.6317135282        6.2310715822
C             7.7771153214        3.0162272358        7.5950228349
C             6.8367361517        3.9540864697        7.4104502213
C             4.5344246931        6.2461009977        6.1192940261
C             2.9855358165        7.8003412607        7.6420341716
C             3.6917007945        7.0913498779        6.9204952447
C             6.2071670720        6.1891007448        4.5470393883
C             7.7492236503        7.7260170569        2.9878389742
C             7.0498718828        7.0077610754        3.7088523456
C             4.5902857563        4.5702453279        4.5509996317
C             3.0497550212        3.0221248395        3.0017105345
C             3.7700260066        3.7243816231        3.7171950420
C             6.2221323498        4.5571926891        4.6183501789
C             7.7617340711        3.0154253001        3.0699190484
C             7.0608942387        3.7171310837        3.8051781750
C             4.5874783868        6.1897360062        4.4947907940
C             3.0445375099        7.7259438300        2.9371811382
C             3.7664083146        7.0074511068        3.6356257515
C             4.5363445662        4.6283949999        6.1645034658
C             2.9801344000        3.0865039944        7.6934061780
C             3.6852345981        3.8057950280        6.9825173917
C             6.1520339074        6.2468077628        6.1606589682
C             7.6952184708        7.8117561990        7.6802349995
C             6.9742571293        7.1029103664        6.9745337480
C             0.6803025019       10.0933706128        0.6466894801
C             2.2397934571        8.5281943033        2.1599924809
C             1.5177021261        9.2500859355        1.4654713091
C            10.0679297378        0.7077620658        0.6978282961
C             8.5436685217        2.2316621493        2.2631642962
C             9.2575130784        1.5162624676        1.5494923832
C             0.6795842958        0.7295000823       10.0379105488
C             2.2054761539        2.2863070781        8.4954446564
C             1.5150707824        1.5620159089        9.2161617963
C            10.0532380041       10.1094973146       10.0269583711
C             8.4974886934        8.5891647703        8.4773226539
C             9.2232898159        9.2798024048        9.1970690190
C             0.6731495086       10.1118767292       10.0232661691
C             2.2009892329        8.5874073080        8.4475819142
C             1.4975962375        9.2905879899        9.1774589027
C            10.0580558889        0.7301015140        9.9678875142
C             8.5364277655        2.2588716856        8.3823662814
C             9.2709345537        1.5243223394        9.1107332215
C            10.0559612991       10.1014331231        0.6452454351
C             8.5282949005        8.5314397815        2.1883131258
C             9.2262910866        9.2573298214        1.4740996651
C             0.6767635803        0.7159487716        0.6559522319
C             2.2433159822        2.2398425578        2.2062063366
C             1.5179123236        1.5407796993        1.4922790199
O             6.2435137179        4.5545805788        8.5188573752
H             6.6476522903        4.1803546033        9.3233436818
End final coordinates



     Writing all to output data dir ./pwscf.save/

     init_run     :      2.91s CPU      3.04s WALL (       1 calls)
     electrons    :   1057.02s CPU   1102.53s WALL (      51 calls)
     update_pot   :     90.88s CPU     91.82s WALL (      49 calls)
     forces       :     88.35s CPU     91.76s WALL (      51 calls)

     Called by init_run:
     wfcinit      :      0.69s CPU      0.72s WALL (       1 calls)
     potinit      :      2.37s CPU      2.43s WALL (       2 calls)
     hinit0       :      0.74s CPU      0.77s WALL (       1 calls)

     Called by electrons:
     c_bands      :    584.73s CPU    601.99s WALL (     473 calls)
     sum_band     :    146.18s CPU    150.97s WALL (     473 calls)
     v_of_rho     :    120.30s CPU    124.00s WALL (     514 calls)
     newd         :     56.16s CPU     57.40s WALL (     514 calls)
     PAW_pot      :    175.21s CPU    176.22s WALL (     563 calls)
     mix_rho      :     12.10s CPU     12.98s WALL (     473 calls)

     Called by c_bands:
     init_us_2    :      8.56s CPU      8.76s WALL (    2094 calls)
     init_us_2:cp :      8.54s CPU      8.75s WALL (    2094 calls)
     regterg      :    570.44s CPU    587.31s WALL (     946 calls)

     Called by *egterg:
     rdiaghg      :     37.68s CPU     37.89s WALL (    3643 calls)
     h_psi        :    321.33s CPU    336.05s WALL (    3765 calls)
     s_psi        :     54.16s CPU     54.54s WALL (    3765 calls)
     g_psi        :      1.13s CPU      1.14s WALL (    2817 calls)

     Called by h_psi:
     h_psi:calbec :     54.77s CPU     55.64s WALL (    3765 calls)
     vloc_psi     :    209.10s CPU    222.54s WALL (    3765 calls)
     add_vuspsi   :     54.53s CPU     54.91s WALL (    3765 calls)

     General routines
     calbec       :     86.27s CPU     87.61s WALL (    5217 calls)
     fft          :     50.19s CPU     55.94s WALL (   11269 calls)
     ffts         :      2.41s CPU      2.74s WALL (    1974 calls)
     fftw         :    215.79s CPU    230.12s WALL (  340458 calls)
     interpolate  :      6.80s CPU      7.55s WALL (    1028 calls)

     Parallel routines

     PWSCF        :  21m15.27s CPU  22m13.49s WALL


   This run was terminated on:  21:36:14  24May2025            

=------------------------------------------------------------------------------=
   JOB DONE.
=------------------------------------------------------------------------------=
