ITEM: TIMESTEP
0
ITEM: NUMBER OF ATOMS
49
ITEM: BOX BOUNDS pp pp pp
0.0000000000000000e+00 1.1000000000000000e+01
0.0000000000000000e+00 1.1002000000000001e+01
0.0000000000000000e+00 1.1000000000000000e+01
ITEM: ATOMS id type x y z 
10 1 4.603 4.603 4.603 
11 1 3.085 3.085 3.085 
12 1 3.796 3.796 3.796 
46 1 0.726 0.725 0.725 
47 1 2.26 2.259 2.26 
48 1 1.551 1.55 1.55 
19 1 4.546 4.545 6.226 
20 1 3.013 3.013 7.764 
21 1 3.721 3.721 7.053 
31 1 0.668 0.667 10.103 
32 1 2.187 2.187 8.589 
33 1 1.476 1.475 9.298 
16 1 4.546 6.225 4.546 
17 1 3.013 7.765 3.013 
18 1 3.721 7.053 3.722 
25 1 0.668 10.103 0.668 
26 1 2.188 8.589 2.188 
27 1 1.476 9.298 1.476 
4 1 4.608 6.169 6.169 
5 1 3.086 7.684 7.684 
6 1 3.799 6.974 6.974 
37 1 0.729 10.046 10.046 
38 1 2.259 8.509 8.508 
39 1 1.552 9.219 9.219 
13 1 6.225 4.546 4.546 
14 1 7.764 3.013 3.013 
15 1 7.053 3.721 3.722 
28 1 10.102 0.667 0.668 
29 1 8.589 2.187 2.188 
30 1 9.298 1.475 1.476 
1 1 6.168 4.608 6.169 
2 1 7.684 3.086 7.684 
3 1 6.974 3.799 6.974 
40 1 10.045 0.728 10.046 
41 1 8.508 2.259 8.508 
42 1 9.218 1.551 9.218 
7 1 6.169 6.169 4.608 
8 1 7.684 7.684 3.086 
9 1 6.974 6.974 3.799 
43 1 10.046 10.047 0.729 
44 1 8.508 8.509 2.259 
45 1 9.219 9.219 1.552 
22 1 6.229 6.229 6.229 
23 1 7.764 7.765 7.765 
24 1 7.055 7.056 7.055 
34 1 10.108 10.108 10.107 
35 1 8.59 8.59 8.59 
36 1 9.301 9.301 9.3 
49 2 8.884 8.665 10.43 
ITEM: TIMESTEP
10
ITEM: NUMBER OF ATOMS
49
ITEM: BOX BOUNDS pp pp pp
0.0000000000000000e+00 1.1000000000000000e+01
0.0000000000000000e+00 1.1002000000000001e+01
0.0000000000000000e+00 1.1000000000000000e+01
ITEM: ATOMS id type x y z 
10 1 4.59452 4.59393 4.5955 
11 1 3.08152 3.081 3.08164 
12 1 3.78889 3.78977 3.78859 
46 1 0.737433 0.736159 0.734982 
47 1 2.26914 2.26823 2.26923 
48 1 1.56323 1.56216 1.56219 
19 1 4.53688 4.53621 6.23515 
20 1 3.00319 3.00301 7.77392 
21 1 3.70828 3.70858 7.06546 
31 1 0.687397 0.684815 10.0994 
32 1 2.19052 2.19056 8.5829 
33 1 1.48418 1.48302 9.29517 
16 1 4.53742 6.23479 4.53669 
17 1 3.00378 7.77427 3.00359 
18 1 3.70803 7.06575 3.70901 
25 1 0.677652 10.0984 0.688941 
26 1 2.19231 8.5849 2.19023 
27 1 1.48046 9.29342 1.48496 
4 1 4.595 6.17533 6.17638 
5 1 3.08595 7.68544 7.68548 
6 1 3.79337 6.9768 6.9768 
37 1 0.74775 10.0269 10.0229 
38 1 2.27645 8.49178 8.49176 
39 1 1.56943 9.2007 9.19918 
13 1 6.23466 4.53762 4.53666 
14 1 7.77381 3.00348 3.00326 
15 1 7.06574 3.70801 3.70921 
28 1 10.0978 0.676923 0.690358 
29 1 8.58487 2.19194 2.19026 
30 1 9.29245 1.47901 1.48538 
1 1 6.17477 4.5948 6.17616 
2 1 7.68524 3.08596 7.6851 
3 1 6.97676 3.79376 6.97696 
40 1 10.0257 0.7484 10.0211 
41 1 8.4908 2.27627 8.49122 
42 1 9.19822 1.5703 9.19783 
7 1 6.17364 6.17346 4.59754 
8 1 7.69205 7.69224 3.07873 
9 1 6.98409 6.98418 3.7862 
43 1 10.0378 10.0427 0.77823 
44 1 8.50431 8.50298 2.26607 
45 1 9.215 9.2243 1.61166 
22 1 6.24201 6.24247 6.2432 
23 1 7.77812 7.78059 7.76561 
24 1 7.06087 7.06203 7.05694 
34 1 10.167 10.1751 10.1353 
35 1 8.5468 8.53979 8.59388 
36 1 9.3389 9.34434 9.29973 
49 2 8.78184 8.53948 10.3594 
ITEM: TIMESTEP
20
ITEM: NUMBER OF ATOMS
49
ITEM: BOX BOUNDS pp pp pp
0.0000000000000000e+00 1.1000000000000000e+01
0.0000000000000000e+00 1.1002000000000001e+01
0.0000000000000000e+00 1.1000000000000000e+01
ITEM: ATOMS id type x y z 
10 1 4.59557 4.59349 4.59903 
11 1 3.08605 3.08262 3.08912 
12 1 3.79393 3.79962 3.78905 
46 1 0.754862 0.752707 0.738963 
47 1 2.27739 2.2776 2.2765 
48 1 1.56872 1.56617 1.56794 
19 1 4.53072 4.52879 6.2368 
20 1 3.00306 3.00052 7.77559 
21 1 3.7049 3.70892 7.06406 
31 1 0.67965 0.680266 10.0958 
32 1 2.18857 2.19454 8.5799 
33 1 1.49439 1.48226 9.29776 
16 1 4.53461 6.23813 4.52887 
17 1 3.00527 7.77386 3.00316 
18 1 3.70681 7.06313 3.71 
25 1 0.691317 10.1061 0.679714 
26 1 2.19762 8.58547 2.19575 
27 1 1.48183 9.28467 1.48562 
4 1 4.5932 6.17009 6.17177 
5 1 3.09832 7.67942 7.68268 
6 1 3.7885 6.96723 6.96203 
37 1 0.777003 10.0425 10.0302 
38 1 2.26761 8.49596 8.49579 
39 1 1.57028 9.20627 9.20446 
13 1 6.23742 4.53471 4.52747 
14 1 7.77318 3.00489 3.00219 
15 1 7.06415 3.70613 3.71067 
28 1 10.1057 0.692778 0.682215 
29 1 8.5845 2.1977 2.19649 
30 1 9.28407 1.48169 1.48655 
1 1 6.16701 4.59253 6.17306 
2 1 7.67616 3.09783 7.6823 
3 1 6.97025 3.79202 6.95996 
40 1 10.0431 0.77975 10.0257 
41 1 8.49444 2.26741 8.49423 
42 1 9.20336 1.57384 9.2027 
7 1 6.16388 6.16512 4.59481 
8 1 7.6833 7.68232 3.0862 
9 1 6.9719 6.97198 3.79288 
43 1 10.056 10.0612 0.813629 
44 1 8.50408 8.50632 2.2851 
45 1 9.23421 9.24715 1.64993 
22 1 6.24399 6.23962 6.24151 
23 1 7.78142 7.78524 7.7226 
24 1 7.05523 7.06985 7.03801 
34 1 10.164 10.1733 10.1763 
35 1 8.50148 8.46673 8.72313 
36 1 9.38233 9.39885 9.26867 
49 2 8.70064 8.44671 10.1892 
ITEM: TIMESTEP
30
ITEM: NUMBER OF ATOMS
49
ITEM: BOX BOUNDS pp pp pp
0.0000000000000000e+00 1.1000000000000000e+01
0.0000000000000000e+00 1.1002000000000001e+01
0.0000000000000000e+00 1.1000000000000000e+01
ITEM: ATOMS id type x y z 
10 1 4.59529 4.59738 4.59506 
11 1 3.08648 3.08773 3.08578 
12 1 3.79447 3.7924 3.79722 
46 1 0.752409 0.750398 0.741214 
47 1 2.27953 2.27762 2.28255 
48 1 1.57564 1.57539 1.56604 
19 1 4.52734 4.52982 6.23428 
20 1 2.99848 3.00024 7.77608 
21 1 3.70654 3.70408 7.06655 
31 1 0.687396 0.68033 10.0979 
32 1 2.19246 2.19063 8.58724 
33 1 1.48251 1.48308 9.29263 
16 1 4.52891 6.23427 4.53027 
17 1 2.9991 7.77726 3.00039 
18 1 3.7072 7.06788 3.70426 
25 1 0.692647 10.1061 0.677873 
26 1 2.18993 8.58563 2.19089 
27 1 1.48694 9.29678 1.48218 
4 1 4.58826 6.16719 6.16676 
5 1 3.08601 7.68311 7.68317 
6 1 3.79151 6.97391 6.97462 
37 1 0.777889 10.0567 10.0496 
38 1 2.26957 8.48869 8.48968 
39 1 1.58173 9.20718 9.20342 
13 1 6.23406 4.52989 4.53004 
14 1 7.77716 2.99934 3.00106 
15 1 7.06621 3.70689 3.70395 
28 1 10.1073 0.693847 0.678362 
29 1 8.58472 2.18974 2.19125 
30 1 9.29684 1.48737 1.48286 
1 1 6.16708 4.58926 6.16487 
2 1 7.68208 3.08679 7.68073 
3 1 6.97135 3.7937 6.9748 
40 1 10.058 0.782116 10.0471 
41 1 8.48562 2.26994 8.48827 
42 1 9.20716 1.58498 9.20166 
7 1 6.17072 6.17056 4.58765 
8 1 7.68101 7.68018 3.08478 
9 1 6.97236 6.97263 3.79095 
43 1 10.0714 10.0763 0.815161 
44 1 8.50441 8.50847 2.30489 
45 1 9.23607 9.2489 1.66232 
22 1 6.22374 6.22816 6.22969 
23 1 7.78109 7.79954 7.70203 
24 1 7.07061 7.07247 7.02062 
34 1 10.1524 10.1658 10.1856 
35 1 8.48013 8.43441 8.75482 
36 1 9.38646 9.40522 9.24764 
49 2 8.68976 8.42569 10.1794 
ITEM: TIMESTEP
40
ITEM: NUMBER OF ATOMS
49
ITEM: BOX BOUNDS pp pp pp
0.0000000000000000e+00 1.1000000000000000e+01
0.0000000000000000e+00 1.1002000000000001e+01
0.0000000000000000e+00 1.1000000000000000e+01
ITEM: ATOMS id type x y z 
10 1 4.59565 4.59672 4.59622 
11 1 3.08682 3.08667 3.08744 
12 1 3.79472 3.79521 3.79529 
46 1 0.754277 0.752587 0.74086 
47 1 2.27971 2.27843 2.28068 
48 1 1.57455 1.57322 1.5683 
19 1 4.52794 4.52878 6.23487 
20 1 2.99976 2.99976 7.77653 
21 1 3.70457 3.70526 7.06519 
31 1 0.686458 0.680723 10.0982 
32 1 2.19133 2.19142 8.58567 
33 1 1.4858 1.48269 9.29462 
16 1 4.5297 6.23539 4.529 
17 1 3.0005 7.77745 3.00028 
18 1 3.70535 7.06627 3.70527 
25 1 0.692829 10.1072 0.67839 
26 1 2.18956 8.58505 2.19085 
27 1 1.48821 9.29824 1.48224 
4 1 4.58689 6.1678 6.16722 
5 1 3.08684 7.68295 7.68326 
6 1 3.78999 6.97283 6.97317 
37 1 0.777648 10.0547 10.0473 
38 1 2.2675 8.4901 8.49061 
39 1 1.58212 9.20896 9.20587 
13 1 6.23468 4.53032 4.52856 
14 1 7.77691 3.00025 3.00058 
15 1 7.06563 3.70562 3.70537 
28 1 10.1084 0.694251 0.679458 
29 1 8.58422 2.18933 2.19119 
30 1 9.29842 1.48868 1.48282 
1 1 6.16684 4.58869 6.16637 
2 1 7.68116 3.08813 7.68182 
3 1 6.97139 3.79131 6.97144 
40 1 10.0563 0.782535 10.0447 
41 1 8.48701 2.26841 8.48879 
42 1 9.20834 1.58539 9.2039 
7 1 6.16832 6.16899 4.58781 
8 1 7.68139 7.68118 3.08487 
9 1 6.97212 6.97132 3.7894 
43 1 10.069 10.0738 0.815864 
44 1 8.50635 8.51068 2.30646 
45 1 9.23754 9.25029 1.66247 
22 1 6.22728 6.22819 6.22915 
23 1 7.7834 7.7983 7.69755 
24 1 7.06621 7.07598 7.01819 
34 1 10.1529 10.1664 10.1865 
35 1 8.47792 8.43176 8.75508 
36 1 9.38186 9.39906 9.25134 
49 2 8.69374 8.42883 10.179 
ITEM: TIMESTEP
50
ITEM: NUMBER OF ATOMS
49
ITEM: BOX BOUNDS pp pp pp
0.0000000000000000e+00 1.1000000000000000e+01
0.0000000000000000e+00 1.1002000000000001e+01
0.0000000000000000e+00 1.1000000000000000e+01
ITEM: ATOMS id type x y z 
10 1 4.59587 4.59708 4.59629 
11 1 3.08833 3.08814 3.08928 
12 1 3.79641 3.79673 3.79714 
46 1 0.757716 0.755131 0.742824 
47 1 2.28233 2.28128 2.28256 
48 1 1.57719 1.57548 1.57054 
19 1 4.52923 4.52922 6.23511 
20 1 3.0015 2.99922 7.77682 
21 1 3.70132 3.70671 7.06279 
31 1 0.68889 0.682443 10.0999 
32 1 2.19228 2.19176 8.58509 
33 1 1.48693 1.48344 9.29514 
16 1 4.52726 6.23744 4.52863 
17 1 2.99886 7.77852 2.99969 
18 1 3.70366 7.06529 3.70271 
25 1 0.695151 10.1124 0.681153 
26 1 2.18992 8.58599 2.18934 
27 1 1.48906 9.30164 1.48221 
4 1 4.5825 6.16782 6.16813 
5 1 3.0853 7.68379 7.68441 
6 1 3.78355 6.97147 6.97148 
37 1 0.771303 10.0514 10.0458 
38 1 2.26613 8.49282 8.493 
39 1 1.58244 9.21213 9.20898 
13 1 6.2359 4.52774 4.52675 
14 1 7.77713 2.99823 2.99954 
15 1 7.06611 3.70452 3.7034 
28 1 10.1139 0.697582 0.682933 
29 1 8.58517 2.18994 2.18964 
30 1 9.30214 1.48963 1.48316 
1 1 6.1663 4.58316 6.16693 
2 1 7.681 3.08532 7.68164 
3 1 6.97043 3.78839 6.97137 
40 1 10.0544 0.779496 10.0435 
41 1 8.49037 2.26924 8.49118 
42 1 9.21002 1.58367 9.20549 
7 1 6.16297 6.16349 4.58308 
8 1 7.68238 7.682 3.08441 
9 1 6.97091 6.97127 3.78485 
43 1 10.0661 10.0708 0.811359 
44 1 8.51433 8.52029 2.32006 
45 1 9.24265 9.25509 1.6681 
22 1 6.22824 6.23312 6.22166 
23 1 7.78604 7.80839 7.67345 
24 1 7.06471 7.07247 7.00769 
34 1 10.1522 10.1683 10.1889 
35 1 8.46282 8.41333 8.74656 
36 1 9.36721 9.37812 9.27107 
49 2 8.70941 8.43503 10.1903 
ITEM: TIMESTEP
60
ITEM: NUMBER OF ATOMS
49
ITEM: BOX BOUNDS pp pp pp
0.0000000000000000e+00 1.1000000000000000e+01
0.0000000000000000e+00 1.1002000000000001e+01
0.0000000000000000e+00 1.1000000000000000e+01
ITEM: ATOMS id type x y z 
10 1 4.59662 4.59745 4.59608 
11 1 3.08869 3.08835 3.08987 
12 1 3.79677 3.79736 3.79723 
46 1 0.758067 0.755533 0.742395 
47 1 2.28291 2.28189 2.28327 
48 1 1.57813 1.5763 1.57084 
19 1 4.52819 4.53013 6.23493 
20 1 2.99926 2.99932 7.77584 
21 1 3.70412 3.70536 7.06524 
31 1 0.688492 0.681962 10.0995 
32 1 2.19211 2.19131 8.58551 
33 1 1.48676 1.48327 9.29562 
16 1 4.52651 6.23655 4.52832 
17 1 2.9982 7.77789 2.99807 
18 1 3.70306 7.06729 3.70406 
25 1 0.694893 10.1125 0.680854 
26 1 2.18998 8.58661 2.18901 
27 1 1.48903 9.30209 1.48202 
4 1 4.58233 6.16782 6.16707 
5 1 3.08271 7.68327 7.68394 
6 1 3.7856 6.97329 6.97327 
37 1 0.770964 10.0536 10.0473 
38 1 2.26862 8.49322 8.49322 
39 1 1.58005 9.21019 9.20735 
13 1 6.23576 4.52754 4.52761 
14 1 7.77723 2.998 2.99869 
15 1 7.06637 3.7035 3.70361 
28 1 10.1144 0.697032 0.682485 
29 1 8.58574 2.18994 2.18962 
30 1 9.30255 1.4901 1.48276 
1 1 6.16655 4.58476 6.16605 
2 1 7.68093 3.08435 7.68193 
3 1 6.97116 3.78784 6.97156 
40 1 10.0558 0.778019 10.0447 
41 1 8.48996 2.27015 8.49066 
42 1 9.20956 1.58448 9.20493 
7 1 6.16412 6.16453 4.58083 
8 1 7.68192 7.68188 3.08452 
9 1 6.9708 6.97088 3.78546 
43 1 10.068 10.0733 0.810974 
44 1 8.51499 8.52115 2.32372 
45 1 9.24306 9.25577 1.6711 
22 1 6.22584 6.22832 6.22195 
23 1 7.78667 7.80726 7.67443 
24 1 7.06624 7.07884 7.00112 
34 1 10.1504 10.1667 10.1873 
35 1 8.46411 8.41388 8.74924 
36 1 9.36621 9.37759 9.26933 
49 2 8.70562 8.42755 10.1906 
ITEM: TIMESTEP
66
ITEM: NUMBER OF ATOMS
49
ITEM: BOX BOUNDS pp pp pp
0.0000000000000000e+00 1.1000000000000000e+01
0.0000000000000000e+00 1.1002000000000001e+01
0.0000000000000000e+00 1.1000000000000000e+01
ITEM: ATOMS id type x y z 
10 1 4.5966 4.59754 4.59607 
11 1 3.08865 3.08844 3.08986 
12 1 3.79689 3.79723 3.79729 
46 1 0.758145 0.755574 0.742363 
47 1 2.28296 2.2819 2.28322 
48 1 1.57805 1.5763 1.57093 
19 1 4.52813 4.53016 6.23495 
20 1 2.9992 2.99938 7.77581 
21 1 3.70425 3.70528 7.06526 
31 1 0.688471 0.681944 10.0995 
32 1 2.1921 2.19129 8.5855 
33 1 1.48678 1.48329 9.29567 
16 1 4.5265 6.23662 4.52837 
17 1 2.9982 7.77794 2.99813 
18 1 3.70305 7.06717 3.70395 
25 1 0.694876 10.1126 0.680872 
26 1 2.18998 8.58665 2.18902 
27 1 1.48904 9.30207 1.48197 
4 1 4.58238 6.16788 6.1671 
5 1 3.08277 7.68329 7.68396 
6 1 3.78547 6.97321 6.9732 
37 1 0.770902 10.0536 10.0473 
38 1 2.26855 8.49322 8.49323 
39 1 1.58012 9.21026 9.2074 
13 1 6.23577 4.52757 4.52756 
14 1 7.77724 2.99804 2.99861 
15 1 7.06635 3.70341 3.70374 
28 1 10.1144 0.697079 0.682425 
29 1 8.58577 2.19 2.18954 
30 1 9.30256 1.48998 1.48286 
1 1 6.16658 4.58482 6.16609 
2 1 7.68092 3.08441 7.68197 
3 1 6.97111 3.78771 6.97145 
40 1 10.0558 0.778032 10.0447 
41 1 8.48998 2.27018 8.49072 
42 1 9.2096 1.5844 9.20488 
7 1 6.16411 6.16449 4.58075 
8 1 7.68193 7.68185 3.0845 
9 1 6.97079 6.97096 3.78551 
43 1 10.068 10.0733 0.810988 
44 1 8.51504 8.52121 2.32382 
45 1 9.2431 9.25582 1.67117 
22 1 6.22585 6.22834 6.22189 
23 1 7.78668 7.80729 7.6743 
24 1 7.06625 7.07889 7.00109 
34 1 10.1503 10.1667 10.1873 
35 1 8.46411 8.41385 8.74933 
36 1 9.36618 9.37757 9.26935 
49 2 8.70553 8.42735 10.1906 
ITEM: TIMESTEP
70
ITEM: NUMBER OF ATOMS
49
ITEM: BOX BOUNDS pp pp pp
0.0000000000000000e+00 1.1000000000000000e+01
0.0000000000000000e+00 1.1002000000000001e+01
0.0000000000000000e+00 1.1000000000000000e+01
ITEM: ATOMS id type x y z 
10 1 4.5966 4.59754 4.59607 
11 1 3.08865 3.08844 3.08987 
12 1 3.79689 3.79724 3.79729 
46 1 0.758144 0.755579 0.742373 
47 1 2.28296 2.2819 2.28323 
48 1 1.57807 1.57631 1.57091 
19 1 4.52813 4.53016 6.23495 
20 1 2.9992 2.99938 7.77581 
21 1 3.70425 3.70528 7.06526 
31 1 0.68847 0.681944 10.0995 
32 1 2.1921 2.19129 8.5855 
33 1 1.48678 1.48328 9.29566 
16 1 4.52649 6.23663 4.52838 
17 1 2.9982 7.77795 2.99814 
18 1 3.70305 7.06715 3.70393 
25 1 0.694875 10.1126 0.680877 
26 1 2.18998 8.58666 2.18902 
27 1 1.48903 9.30206 1.48196 
4 1 4.58238 6.16788 6.1671 
5 1 3.08277 7.68329 7.68395 
6 1 3.78546 6.97321 6.9732 
37 1 0.770891 10.0536 10.0473 
38 1 2.26855 8.49322 8.49323 
39 1 1.58013 9.21027 9.20741 
13 1 6.23577 4.52756 4.52757 
14 1 7.77724 2.99803 2.99862 
15 1 7.06634 3.70343 3.70373 
28 1 10.1144 0.697076 0.682426 
29 1 8.58578 2.19 2.18954 
30 1 9.30256 1.48998 1.48285 
1 1 6.16658 4.58483 6.1661 
2 1 7.68092 3.08442 7.68197 
3 1 6.97111 3.7877 6.97144 
40 1 10.0558 0.778025 10.0447 
41 1 8.48999 2.27017 8.49072 
42 1 9.2096 1.58441 9.20489 
7 1 6.16409 6.16449 4.58074 
8 1 7.68192 7.68185 3.08449 
9 1 6.9708 6.97095 3.78551 
43 1 10.068 10.0733 0.810991 
44 1 8.51505 8.52122 2.32383 
45 1 9.24311 9.25583 1.67118 
22 1 6.22585 6.22834 6.22188 
23 1 7.78668 7.80729 7.67428 
24 1 7.06625 7.07889 7.00109 
34 1 10.1503 10.1667 10.1873 
35 1 8.46411 8.41384 8.74934 
36 1 9.36618 9.37756 9.26936 
49 2 8.70552 8.42732 10.1906 
ITEM: TIMESTEP
80
ITEM: NUMBER OF ATOMS
49
ITEM: BOX BOUNDS pp pp pp
0.0000000000000000e+00 1.1000000000000000e+01
0.0000000000000000e+00 1.1002000000000001e+01
0.0000000000000000e+00 1.1000000000000000e+01
ITEM: ATOMS id type x y z 
10 1 4.59661 4.59755 4.59608 
11 1 3.08865 3.08845 3.08987 
12 1 3.7969 3.79724 3.7973 
46 1 0.758158 0.755591 0.742375 
47 1 2.28296 2.28191 2.28323 
48 1 1.57807 1.57631 1.57091 
19 1 4.52813 4.53015 6.23496 
20 1 2.9992 2.99938 7.7758 
21 1 3.70425 3.70529 7.06526 
31 1 0.688466 0.681938 10.0995 
32 1 2.1921 2.19129 8.5855 
33 1 1.48678 1.48329 9.29567 
16 1 4.52649 6.23665 4.52839 
17 1 2.9982 7.77797 2.99816 
18 1 3.70304 7.06711 3.7039 
25 1 0.69487 10.1126 0.680876 
26 1 2.18998 8.58667 2.18902 
27 1 1.48903 9.30206 1.48196 
4 1 4.58238 6.16788 6.1671 
5 1 3.08277 7.68329 7.68395 
6 1 3.78545 6.9732 6.97319 
37 1 0.770868 10.0536 10.0473 
38 1 2.26852 8.49322 8.49323 
39 1 1.58015 9.2103 9.20743 
13 1 6.23577 4.52756 4.52756 
14 1 7.77724 2.99803 2.99861 
15 1 7.06634 3.70342 3.70374 
28 1 10.1144 0.697073 0.682423 
29 1 8.58578 2.19 2.18954 
30 1 9.30257 1.48997 1.48286 
1 1 6.16658 4.58482 6.1661 
2 1 7.68092 3.08442 7.68196 
3 1 6.97111 3.7877 6.97143 
40 1 10.0558 0.778023 10.0447 
41 1 8.49 2.27017 8.49073 
42 1 9.20961 1.58441 9.20489 
7 1 6.16409 6.16449 4.58073 
8 1 7.68192 7.68185 3.0845 
9 1 6.9708 6.97094 3.78551 
43 1 10.068 10.0733 0.810995 
44 1 8.51507 8.52125 2.32387 
45 1 9.24313 9.25585 1.6712 
22 1 6.22586 6.22835 6.22186 
23 1 7.78669 7.8073 7.67424 
24 1 7.06625 7.07891 7.00108 
34 1 10.1503 10.1666 10.1873 
35 1 8.46411 8.41383 8.74937 
36 1 9.36617 9.37756 9.26936 
49 2 8.70549 8.42725 10.1906 
ITEM: TIMESTEP
83
ITEM: NUMBER OF ATOMS
49
ITEM: BOX BOUNDS pp pp pp
0.0000000000000000e+00 1.1000000000000000e+01
0.0000000000000000e+00 1.1002000000000001e+01
0.0000000000000000e+00 1.1000000000000000e+01
ITEM: ATOMS id type x y z 
10 1 4.59661 4.59755 4.59608 
11 1 3.08865 3.08845 3.08987 
12 1 3.7969 3.79724 3.7973 
46 1 0.758159 0.755592 0.742374 
47 1 2.28296 2.28191 2.28323 
48 1 1.57807 1.57631 1.57091 
19 1 4.52813 4.53015 6.23496 
20 1 2.9992 2.99938 7.7758 
21 1 3.70426 3.70529 7.06526 
31 1 0.688466 0.681939 10.0995 
32 1 2.1921 2.19129 8.5855 
33 1 1.48678 1.48328 9.29567 
16 1 4.52649 6.23665 4.52839 
17 1 2.9982 7.77797 2.99815 
18 1 3.70304 7.06712 3.7039 
25 1 0.694869 10.1126 0.680876 
26 1 2.18998 8.58667 2.18902 
27 1 1.48903 9.30206 1.48196 
4 1 4.58238 6.16788 6.1671 
5 1 3.08277 7.68329 7.68395 
6 1 3.78545 6.9732 6.97319 
37 1 0.770867 10.0535 10.0473 
38 1 2.26852 8.49322 8.49323 
39 1 1.58016 9.2103 9.20743 
13 1 6.23577 4.52756 4.52756 
14 1 7.77724 2.99803 2.99861 
15 1 7.06634 3.70342 3.70374 
28 1 10.1144 0.697074 0.682423 
29 1 8.58579 2.19001 2.18953 
30 1 9.30257 1.48997 1.48286 
1 1 6.16658 4.58482 6.1661 
2 1 7.68092 3.08442 7.68196 
3 1 6.9711 3.7877 6.97143 
40 1 10.0558 0.778023 10.0447 
41 1 8.49 2.27017 8.49073 
42 1 9.20961 1.58441 9.20489 
7 1 6.16409 6.16449 4.58073 
8 1 7.68192 7.68185 3.0845 
9 1 6.9708 6.97094 3.78551 
43 1 10.068 10.0733 0.810996 
44 1 8.51507 8.52125 2.32387 
45 1 9.24313 9.25585 1.6712 
22 1 6.22586 6.22835 6.22186 
23 1 7.78669 7.8073 7.67424 
24 1 7.06625 7.07891 7.00108 
34 1 10.1503 10.1666 10.1873 
35 1 8.46411 8.41382 8.74937 
36 1 9.36617 9.37756 9.26936 
49 2 8.70549 8.42725 10.1906 
ITEM: TIMESTEP
90
ITEM: NUMBER OF ATOMS
49
ITEM: BOX BOUNDS pp pp pp
-3.4937653194984427e-03 1.1003493765319499e+01
-3.5381172888769778e-03 1.1005538117288877e+01
-3.8500000000000001e-03 1.1003850000000003e+01
ITEM: ATOMS id type x y z 
10 1 4.59605 4.59699 4.59546 
11 1 3.08713 3.08691 3.08819 
12 1 3.79581 3.79613 3.7961 
46 1 0.755136 0.752529 0.739031 
47 1 2.28091 2.27983 2.28098 
48 1 1.57556 1.57378 1.56815 
19 1 4.52752 4.52954 6.23547 
20 1 2.99762 2.99778 7.77739 
21 1 3.70313 3.70414 7.06634 
31 1 0.685393 0.678821 10.1027 
32 1 2.19 2.18915 8.58766 
33 1 1.48424 1.48071 9.29832 
16 1 4.52588 6.23711 4.52772 
17 1 2.99661 7.77943 2.99641 
18 1 3.70191 7.06811 3.70265 
25 1 0.6918 10.1156 0.677486 
26 1 2.18788 8.58866 2.18669 
27 1 1.48649 9.3045 1.47915 
4 1 4.58181 6.1683 6.16755 
5 1 3.08124 7.68469 7.68548 
6 1 3.78436 6.97416 6.97423 
37 1 0.767847 10.0565 10.0504 
38 1 2.26646 8.49514 8.49534 
39 1 1.57766 9.2127 9.21003 
13 1 6.23623 4.52694 4.52689 
14 1 7.77868 2.99642 2.99686 
15 1 7.06732 3.70228 3.70249 
28 1 10.1174 0.693965 0.679035 
29 1 8.58775 2.18787 2.18721 
30 1 9.30498 1.4874 1.48005 
1 1 6.16699 4.58425 6.16655 
2 1 7.6823 3.08287 7.68348 
3 1 6.97204 3.78659 6.97247 
40 1 10.0587 0.774971 10.0479 
41 1 8.4919 2.26809 8.49283 
42 1 9.21198 1.58187 9.20749 
7 1 6.1645 6.1649 4.5801 
8 1 7.6833 7.68325 3.08281 
9 1 6.97174 6.97189 3.7843 
43 1 10.0709 10.0763 0.807701 
44 1 8.51699 8.5232 2.32165 
45 1 9.24552 9.25828 1.66851 
22 1 6.2263 6.2288 6.22235 
23 1 7.78814 7.80878 7.67575 
24 1 7.06723 7.07991 7.00211 
34 1 10.1532 10.1697 10.1906 
35 1 8.46599 8.4157 8.75165 
36 1 9.36863 9.38005 9.272 
49 2 8.70752 8.42912 10.1939 
ITEM: TIMESTEP
100
ITEM: NUMBER OF ATOMS
49
ITEM: BOX BOUNDS pp pp pp
-4.1680561827554443e-03 1.1004168056182754e+01
-4.5952365584210975e-03 1.1006595236558422e+01
-9.3500000000000007e-03 1.1009350000000008e+01
ITEM: ATOMS id type x y z 
10 1 4.59643 4.59731 4.59505 
11 1 3.08699 3.08661 3.08594 
12 1 3.79544 3.79564 3.79425 
46 1 0.754182 0.751254 0.733911 
47 1 2.28031 2.27901 2.27755 
48 1 1.57483 1.57276 1.56396 
19 1 4.52779 4.52974 6.23585 
20 1 2.99753 2.99751 7.77943 
21 1 3.70318 3.70407 7.06766 
31 1 0.684313 0.677407 10.1078 
32 1 2.18944 2.18837 8.5909 
33 1 1.48392 1.48011 9.30195 
16 1 4.52614 6.23689 4.52714 
17 1 2.99651 7.77965 2.99411 
18 1 3.70194 7.06816 3.70111 
25 1 0.690694 10.117 0.672201 
26 1 2.18733 8.58942 2.18323 
27 1 1.48616 9.30506 1.4753 
4 1 4.58218 6.16795 6.16774 
5 1 3.08107 7.68496 7.68751 
6 1 3.78398 6.9746 6.97586 
37 1 0.766862 10.0577 10.0553 
38 1 2.26584 8.49595 8.49856 
39 1 1.57695 9.21369 9.21401 
13 1 6.23596 4.52713 4.52631 
14 1 7.77874 2.99614 2.99457 
15 1 7.06726 3.70219 3.70095 
28 1 10.1185 0.692526 0.673751 
29 1 8.58829 2.18709 2.18374 
30 1 9.3053 1.48679 1.47621 
1 1 6.16659 4.58457 6.16673 
2 1 7.68241 3.08253 7.68551 
3 1 6.97238 3.7861 6.9741 
40 1 10.0596 0.773653 10.0528 
41 1 8.49252 2.26726 8.49607 
42 1 9.21269 1.58086 9.21145 
7 1 6.16409 6.16454 4.57965 
8 1 7.68343 7.68354 3.08055 
9 1 6.97209 6.97233 3.78242 
43 1 10.0718 10.0775 0.802641 
44 1 8.51763 8.52405 2.31835 
45 1 9.24625 9.25928 1.66444 
22 1 6.22602 6.22858 6.22259 
23 1 7.78819 7.80901 7.67764 
24 1 7.06713 7.07994 7.0033 
34 1 10.1542 10.171 10.1957 
35 1 8.46636 8.41622 8.75499 
36 1 9.36909 9.38078 9.27589 
49 2 8.70787 8.42957 10.1985 
ITEM: TIMESTEP
110
ITEM: NUMBER OF ATOMS
49
ITEM: BOX BOUNDS pp pp pp
-3.9287259786868773e-03 1.1003928725978689e+01
-4.7897059007057869e-03 1.1006789705900706e+01
-1.4850000000000002e-02 1.1014850000000013e+01
ITEM: ATOMS id type x y z 
10 1 4.59712 4.59793 4.59481 
11 1 3.08728 3.08671 3.08372 
12 1 3.79532 3.79538 3.79235 
46 1 0.753893 0.750593 0.728649 
47 1 2.28006 2.2785 2.27392 
48 1 1.57479 1.57241 1.55981 
19 1 4.52835 4.53022 6.23611 
20 1 2.99805 2.99784 7.78128 
21 1 3.70347 3.70422 7.06899 
31 1 0.683878 0.676589 10.113 
32 1 2.18942 2.18808 8.59417 
33 1 1.48431 1.48018 9.30552 
16 1 4.52668 6.23643 4.5267 
17 1 2.99702 7.7793 2.99201 
18 1 3.70223 7.068 3.69953 
25 1 0.690223 10.1178 0.666752 
26 1 2.18732 8.58972 2.17973 
27 1 1.48653 9.30499 1.4715 
4 1 4.58284 6.16735 6.16776 
5 1 3.08132 7.68485 7.68951 
6 1 3.78385 6.97486 6.97753 
37 1 0.76654 10.0584 10.0604 
38 1 2.26557 8.49651 8.50201 
39 1 1.57689 9.21405 9.21794 
13 1 6.23544 4.5276 4.52587 
14 1 7.77821 2.99646 2.99246 
15 1 7.06698 3.70234 3.69938 
28 1 10.1189 0.691679 0.668318 
29 1 8.58836 2.18682 2.18024 
30 1 9.30493 1.48685 1.47241 
1 1 6.16593 4.58516 6.16675 
2 1 7.68213 3.08259 7.68751 
3 1 6.97252 3.78583 6.97576 
40 1 10.0599 0.772932 10.0578 
41 1 8.49285 2.26675 8.49951 
42 1 9.21275 1.5805 9.21537 
7 1 6.16341 6.16392 4.57932 
8 1 7.68318 7.68347 3.07831 
9 1 6.97223 6.9726 3.78049 
43 1 10.0722 10.0783 0.79745 
44 1 8.51798 8.52466 2.31492 
45 1 9.24634 9.25965 1.66039 
22 1 6.22549 6.22813 6.22267 
23 1 7.78766 7.80866 7.67934 
24 1 7.06681 7.07977 7.00451 
34 1 10.1546 10.1718 10.201 
35 1 8.46623 8.41627 8.7584 
36 1 9.36889 9.38085 9.27988 
49 2 8.70768 8.42955 10.2029 
ITEM: TIMESTEP
120
ITEM: NUMBER OF ATOMS
49
ITEM: BOX BOUNDS pp pp pp
-3.6005917159316076e-03 1.1003600591715934e+01
-4.9033956219967367e-03 1.1006903395622000e+01
-1.9743419864134779e-02 1.1019743419864152e+01
ITEM: ATOMS id type x y z 
10 1 4.59793 4.59865 4.5948 
11 1 3.08764 3.08683 3.0818 
12 1 3.79518 3.79518 3.79059 
46 1 0.753597 0.749893 0.723802 
47 1 2.27971 2.27786 2.27048 
48 1 1.57484 1.57219 1.55614 
19 1 4.52902 4.53082 6.23617 
20 1 2.99877 2.99836 7.7827 
21 1 3.70377 3.70438 7.07023 
31 1 0.683399 0.675721 10.1178 
32 1 2.18943 2.18781 8.59708 
33 1 1.48483 1.48036 9.3087 
16 1 4.52734 6.23587 4.52648 
17 1 2.99772 7.77878 2.99035 
18 1 3.70248 7.06785 3.69809 
25 1 0.689718 10.1186 0.661748 
26 1 2.18735 8.59002 2.17661 
27 1 1.48702 9.3048 1.46811 
4 1 4.58362 6.16666 6.16762 
5 1 3.08165 7.68471 7.69127 
6 1 3.78365 6.9751 6.97904 
37 1 0.766184 10.0591 10.065 
38 1 2.2652 8.49719 8.50529 
39 1 1.57695 9.21431 9.22144 
13 1 6.23481 4.52817 4.52566 
14 1 7.77749 2.99695 2.9908 
15 1 7.06672 3.70248 3.69794 
28 1 10.1194 0.690814 0.663306 
29 1 8.58841 2.18661 2.17709 
30 1 9.30445 1.48696 1.46908 
1 1 6.16517 4.58588 6.16661 
2 1 7.6818 3.08273 7.68926 
3 1 6.97264 3.78551 6.97727 
40 1 10.0602 0.772171 10.0624 
41 1 8.4933 2.26614 8.50278 
42 1 9.21269 1.58024 9.21885 
7 1 6.16263 6.16317 4.57917 
8 1 7.68289 7.68333 3.07636 
9 1 6.97236 6.9729 3.77873 
43 1 10.0725 10.079 0.792674 
44 1 8.51845 8.5254 2.31173 
45 1 9.24632 9.25993 1.65679 
22 1 6.22486 6.22758 6.22253 
23 1 7.78695 7.80814 7.68071 
24 1 7.06652 7.07963 7.00556 
34 1 10.155 10.1725 10.2057 
35 1 8.46607 8.41627 8.76152 
36 1 9.36859 9.38081 9.28358 
49 2 8.70742 8.42948 10.2066 
ITEM: TIMESTEP
130
ITEM: NUMBER OF ATOMS
49
ITEM: BOX BOUNDS pp pp pp
-5.0543028954180167e-03 1.1005054302895418e+01
-6.9135594078201983e-03 1.1008913559407825e+01
-2.4322099041449028e-02 1.1024322099041470e+01
ITEM: ATOMS id type x y z 
10 1 4.59852 4.59924 4.59488 
11 1 3.0872 3.08625 3.07996 
12 1 3.79453 3.79416 3.78904 
46 1 0.751629 0.747508 0.719106 
47 1 2.27815 2.27605 2.26711 
48 1 1.57373 1.57054 1.55271 
19 1 4.5295 4.5312 6.23612 
20 1 2.99883 2.99817 7.78392 
21 1 3.70342 3.70385 7.07128 
31 1 0.681327 0.673131 10.1226 
32 1 2.18841 2.18644 8.59993 
33 1 1.48396 1.4791 9.31144 
16 1 4.52776 6.23543 4.52641 
17 1 2.99772 7.77888 2.98891 
18 1 3.70216 7.06832 3.6968 
25 1 0.687571 10.1211 0.656835 
26 1 2.1863 8.59133 2.17357 
27 1 1.48622 9.30604 1.46515 
4 1 4.58404 6.16606 6.16728 
5 1 3.08108 7.68524 7.69282 
6 1 3.78308 6.97599 6.98061 
37 1 0.764208 10.0615 10.0696 
38 1 2.26367 8.49902 8.50857 
39 1 1.57571 9.21591 9.22466 
13 1 6.23433 4.52854 4.52559 
14 1 7.77739 2.99674 2.98936 
15 1 7.06697 3.7019 3.69665 
28 1 10.1214 0.688106 0.658486 
29 1 8.58939 2.18514 2.17412 
30 1 9.30535 1.48592 1.46598 
1 1 6.1645 4.58623 6.16627 
2 1 7.68211 3.08192 7.6908 
3 1 6.97336 3.78478 6.97884 
40 1 10.0621 0.769685 10.067 
41 1 8.49483 2.26431 8.50606 
42 1 9.21391 1.57861 9.22205 
7 1 6.1619 6.16266 4.57915 
8 1 7.68322 7.68405 3.0746 
9 1 6.97316 6.97354 3.77699 
43 1 10.0744 10.0814 0.788066 
44 1 8.52005 8.52734 2.30865 
45 1 9.24751 9.2615 1.6534 
22 1 6.22437 6.2272 6.22221 
23 1 7.78689 7.80829 7.68202 
24 1 7.06677 7.08007 7.00652 
34 1 10.1569 10.1749 10.2103 
35 1 8.46689 8.41728 8.76453 
36 1 9.3695 9.38204 9.28719 
49 2 8.70815 8.43038 10.2096 
ITEM: TIMESTEP
140
ITEM: NUMBER OF ATOMS
49
ITEM: BOX BOUNDS pp pp pp
-6.8500258985684645e-03 1.1006850025898567e+01
-9.1393957858413900e-03 1.1011139395785847e+01
-2.8295952378880371e-02 1.1028295952378905e+01
ITEM: ATOMS id type x y z 
10 1 4.59899 4.59958 4.59507 
11 1 3.08663 3.08542 3.07847 
12 1 3.79371 3.79335 3.78753 
46 1 0.749459 0.744923 0.714963 
47 1 2.2765 2.2741 2.26414 
48 1 1.57229 1.56888 1.54971 
19 1 4.52985 4.53148 6.23595 
20 1 2.99864 2.99779 7.78484 
21 1 3.70302 3.70331 7.07234 
31 1 0.678977 0.670396 10.1266 
32 1 2.18715 2.1849 8.60231 
33 1 1.48295 1.47777 9.314 
16 1 4.52809 6.23511 4.52645 
17 1 2.99754 7.77916 2.98774 
18 1 3.70167 7.0688 3.69562 
25 1 0.685223 10.1238 0.652613 
26 1 2.18507 8.59283 2.17101 
27 1 1.48514 9.30728 1.46244 
4 1 4.58451 6.16566 6.16706 
5 1 3.08052 7.68597 7.69426 
6 1 3.78208 6.97676 6.98182 
37 1 0.761973 10.064 10.0735 
38 1 2.26196 8.50097 8.51142 
39 1 1.57428 9.21754 9.22758 
13 1 6.23392 4.52878 4.52564 
14 1 7.77746 2.99634 2.98819 
15 1 7.06736 3.70133 3.69548 
28 1 10.1237 0.685439 0.654252 
29 1 8.59068 2.18372 2.17152 
30 1 9.30625 1.48441 1.46335 
1 1 6.16403 4.58664 6.16603 
2 1 7.68265 3.08118 7.69222 
3 1 6.97401 3.78365 6.98004 
40 1 10.0643 0.767049 10.0709 
41 1 8.49656 2.26239 8.5089 
42 1 9.21523 1.57687 9.22496 
7 1 6.16144 6.16211 4.57912 
8 1 7.68384 7.68471 3.07305 
9 1 6.97377 6.97454 3.77551 
43 1 10.0766 10.084 0.784012 
44 1 8.52182 8.52937 2.30596 
45 1 9.24892 9.26319 1.65046 
22 1 6.22397 6.2269 6.22184 
23 1 7.78696 7.80852 7.68313 
24 1 7.06716 7.08062 7.00733 
34 1 10.159 10.1774 10.2142 
35 1 8.4679 8.4184 8.76716 
36 1 9.37063 9.38339 9.29044 
49 2 8.70908 8.4314 10.2121 
ITEM: TIMESTEP
150
ITEM: NUMBER OF ATOMS
49
ITEM: BOX BOUNDS pp pp pp
-8.1678525399082498e-03 1.1008167852539906e+01
-1.1119014837382367e-02 1.1013119014837391e+01
-3.2426506939069656e-02 1.1032426506939098e+01
ITEM: ATOMS id type x y z 
10 1 4.60011 4.60046 4.59589 
11 1 3.08646 3.08476 3.07712 
12 1 3.79278 3.79259 3.78568 
46 1 0.747143 0.742013 0.710037 
47 1 2.27461 2.27181 2.26056 
48 1 1.5711 1.56724 1.54645 
19 1 4.53092 4.53244 6.23525 
20 1 2.99922 2.99808 7.78534 
21 1 3.70285 3.70293 7.07316 
31 1 0.676585 0.667393 10.1315 
32 1 2.18613 2.18347 8.60508 
33 1 1.48237 1.47668 9.31612 
16 1 4.52905 6.23416 4.52712 
17 1 2.99806 7.77877 2.98698 
18 1 3.70147 7.06911 3.69457 
25 1 0.682614 10.1266 0.647618 
26 1 2.18392 8.59419 2.16811 
27 1 1.48482 9.30848 1.45997 
4 1 4.58537 6.16468 6.16619 
5 1 3.08011 7.68638 7.69551 
6 1 3.78124 6.97779 6.98343 
37 1 0.759592 10.067 10.0783 
38 1 2.26004 8.50341 8.51498 
39 1 1.57299 9.21917 9.23077 
13 1 6.23291 4.52964 4.52633 
14 1 7.77679 2.99657 2.98743 
15 1 7.06749 3.7009 3.69442 
28 1 10.1262 0.682335 0.64938 
29 1 8.59186 2.18227 2.1687 
30 1 9.30669 1.48343 1.46073 
1 1 6.16294 4.58745 6.16517 
2 1 7.68279 3.08049 7.69346 
3 1 6.97485 3.78263 6.98163 
40 1 10.0666 0.764054 10.0757 
41 1 8.49862 2.26016 8.51249 
42 1 9.21644 1.57508 9.22802 
7 1 6.16028 6.16112 4.57954 
8 1 7.68408 7.6853 3.07167 
9 1 6.97465 6.97548 3.7737 
43 1 10.079 10.087 0.779239 
44 1 8.52401 8.53198 2.30289 
45 1 9.25017 9.26488 1.64722 
22 1 6.22298 6.22607 6.22067 