LAMMPS (3 Mar 2020)
Reading data file ...
  orthogonal box = (0 0 0) to (11 11.002 11)
  2 by 2 by 2 MPI processor grid
  reading atoms ...
  49 atoms
  read_data CPU = 0.0026362 secs
WARNING: Changed valency_val to valency_boc for X (../reaxc_ffield.cpp:315)
WARNING: Using 'neigh_modify every 1 delay 0 check yes' setting during minimization (../min.cpp:190)
Neighbor list info ...
  update every 1 steps, delay 0 steps, check yes
  max neighbors/atom: 2000, page size: 100000
  master list distance cutoff = 12
  ghost atom cutoff = 12
  binsize = 6, bins = 2 2 2
  2 neighbor lists, perpetual/occasional/extra = 2 0 0
  (1) pair reax/c, perpetual
      attributes: half, newton off, ghost
      pair build: half/bin/newtoff/ghost
      stencil: half/ghost/bin/3d/newtoff
      bin: standard
  (2) fix qeq/reax, perpetual, copy from (1)
      attributes: half, newton off, ghost
      pair build: copy
      stencil: none
      bin: none
Setting up cg style minimization ...
  Unit style    : real
  Current step  : 0
Per MPI rank memory allocation (min/avg/max) = 24.7 | 24.82 | 24.96 Mbytes
Step Temp E_pair E_mol TotEng Press 
       0            0   -8498.2564            0   -8498.2564    101132.08 
      66            0   -8767.4425            0   -8767.4425     56549.49 
Loop time of 2.43602 on 8 procs for 66 steps with 49 atoms

98.9% CPU use with 8 MPI tasks x no OpenMP threads

Minimization stats:
  Stopping criterion = energy tolerance
  Energy initial, next-to-last, final = 
        -8498.25637197     -8767.44253739     -8767.44254066
  Force two-norm initial, final = 1861.25 65.1465
  Force max component initial, final = 727.516 15.3267
  Final line search alpha, max atom move = 4.21416e-08 6.45892e-07
  Iterations, force evaluations = 66 482

MPI task timing breakdown:
Section |  min time  |  avg time  |  max time  |%varavg| %total
---------------------------------------------------------------
Pair    | 2.0062     | 2.0384     | 2.0811     |   1.4 | 83.68
Neigh   | 0          | 0          | 0          |   0.0 |  0.00
Comm    | 0.025385   | 0.068121   | 0.099878   |   7.5 |  2.80
Output  | 0.00016133 | 0.00021753 | 0.00041493 |   0.0 |  0.01
Modify  | 0.3239     | 0.32447    | 0.32508    |   0.1 | 13.32
Other   |            | 0.004781   |            |       |  0.20

Nlocal:    6.125 ave 7 max 6 min
Histogram: 7 0 0 0 0 0 0 0 0 1
Nghost:    944.625 ave 953 max 938 min
Histogram: 2 0 0 0 4 0 0 0 0 2
Neighs:    1695.5 ave 1932 max 1658 min
Histogram: 7 0 0 0 0 0 0 0 0 1

Total # of neighbors = 13564
Ave neighs/atom = 276.816
Neighbor list builds = 0
Dangerous builds = 0
WARNING: Using 'neigh_modify every 1 delay 0 check yes' setting during minimization (../min.cpp:190)
Setting up cg style minimization ...
  Unit style    : real
  Current step  : 66
Per MPI rank memory allocation (min/avg/max) = 24.7 | 24.82 | 24.96 Mbytes
Step Temp E_pair E_mol TotEng Press 
      66            0   -8767.4425            0   -8767.4425    56549.489 
      83            0   -8767.4498            0   -8767.4498    56537.784 
Loop time of 1.41167 on 8 procs for 17 steps with 49 atoms

98.7% CPU use with 8 MPI tasks x no OpenMP threads

Minimization stats:
  Stopping criterion = energy tolerance
  Energy initial, next-to-last, final = 
        -8767.44254104     -8767.44973375      -8767.4497806
  Force two-norm initial, final = 65.1465 63.7883
  Force max component initial, final = 15.3267 15.1889
  Final line search alpha, max atom move = 2.36944e-08 3.59894e-07
  Iterations, force evaluations = 17 292

MPI task timing breakdown:
Section |  min time  |  avg time  |  max time  |%varavg| %total
---------------------------------------------------------------
Pair    | 1.2052     | 1.2261     | 1.2509     |   1.1 | 86.86
Neigh   | 0          | 0          | 0          |   0.0 |  0.00
Comm    | 0.015694   | 0.040297   | 0.061075   |   6.2 |  2.85
Output  | 7.2114e-05 | 9.2489e-05 | 0.00016339 |   0.0 |  0.01
Modify  | 0.14208    | 0.14225    | 0.14247    |   0.0 | 10.08
Other   |            | 0.002907   |            |       |  0.21

Nlocal:    6.125 ave 7 max 6 min
Histogram: 7 0 0 0 0 0 0 0 0 1
Nghost:    944.625 ave 953 max 938 min
Histogram: 2 0 0 0 4 0 0 0 0 2
Neighs:    1699 ave 1932 max 1658 min
Histogram: 7 0 0 0 0 0 0 0 0 1

Total # of neighbors = 13592
Ave neighs/atom = 277.388
Neighbor list builds = 0
Dangerous builds = 0
WARNING: Using 'neigh_modify every 1 delay 0 check yes' setting during minimization (../min.cpp:190)
Setting up cg style minimization ...
  Unit style    : real
  Current step  : 83
WARNING: Energy due to 3 extra global DOFs will be included in minimizer energies
Per MPI rank memory allocation (min/avg/max) = 24.7 | 24.82 | 24.96 Mbytes
Step Temp E_pair E_mol TotEng Press Volume 
      83            0   -8767.4498            0   -8767.4498    56537.781     1331.242 
     274            0   -8777.6357            0   -8777.6357    3345.3918    1354.3026 
Loop time of 1.82083 on 8 procs for 191 steps with 49 atoms

99.0% CPU use with 8 MPI tasks x no OpenMP threads

Minimization stats:
  Stopping criterion = energy tolerance
  Energy initial, next-to-last, final = 
        -8767.44978126      -8777.6357214     -8777.63572144
  Force two-norm initial, final = 1902.83 123.093
  Force max component initial, final = 1134.24 70.3602
  Final line search alpha, max atom move = 1.34071e-12 9.43329e-11
  Iterations, force evaluations = 191 384

MPI task timing breakdown:
Section |  min time  |  avg time  |  max time  |%varavg| %total
---------------------------------------------------------------
Pair    | 1.5896     | 1.6158     | 1.6495     |   1.3 | 88.74
Neigh   | 0          | 0          | 0          |   0.0 |  0.00
Comm    | 0.019288   | 0.052871   | 0.07889    |   7.3 |  2.90
Output  | 0.00040925 | 0.00061837 | 0.001222   |   0.0 |  0.03
Modify  | 0.14036    | 0.14065    | 0.14087    |   0.0 |  7.72
Other   |            | 0.01087    |            |       |  0.60

Nlocal:    6.125 ave 7 max 6 min
Histogram: 7 0 0 0 0 0 0 0 0 1
Nghost:    944.625 ave 953 max 938 min
Histogram: 2 0 0 0 4 0 0 0 0 2
Neighs:    1699 ave 1932 max 1658 min
Histogram: 7 0 0 0 0 0 0 0 0 1

Total # of neighbors = 13592
Ave neighs/atom = 277.388
Neighbor list builds = 0
Dangerous builds = 0
WARNING: Using 'neigh_modify every 1 delay 0 check yes' setting during minimization (../min.cpp:190)
Setting up cg style minimization ...
  Unit style    : real
  Current step  : 274
Per MPI rank memory allocation (min/avg/max) = 24.7 | 24.82 | 24.96 Mbytes
Step Temp E_pair E_mol TotEng Press 
     274            0   -8777.6357            0   -8777.6357    3345.3942 
     276            0   -8777.6429            0   -8777.6429    2967.0911 
Loop time of 0.303123 on 8 procs for 2 steps with 49 atoms

98.9% CPU use with 8 MPI tasks x no OpenMP threads

Minimization stats:
  Stopping criterion = energy tolerance
  Energy initial, next-to-last, final = 
        -8777.63572135     -8777.64288853      -8777.6428895
  Force two-norm initial, final = 46.6389 46.6244
  Force max component initial, final = 9.94269 9.86854
  Final line search alpha, max atom move = 5.19862e-12 5.13028e-11
  Iterations, force evaluations = 2 68

MPI task timing breakdown:
Section |  min time  |  avg time  |  max time  |%varavg| %total
---------------------------------------------------------------
Pair    | 0.26404    | 0.26764    | 0.27053    |   0.4 | 88.30
Neigh   | 0          | 0          | 0          |   0.0 |  0.00
Comm    | 0.0034892  | 0.0063956  | 0.010058   |   2.8 |  2.11
Output  | 0          | 0          | 0          |   0.0 |  0.00
Modify  | 0.028386   | 0.028436   | 0.028473   |   0.0 |  9.38
Other   |            | 0.0006485  |            |       |  0.21

Nlocal:    6.125 ave 7 max 6 min
Histogram: 7 0 0 0 0 0 0 0 0 1
Nghost:    904.875 ave 917 max 893 min
Histogram: 1 0 1 2 0 0 2 1 0 1
Neighs:    1679.25 ave 1904 max 1642 min
Histogram: 7 0 0 0 0 0 0 0 0 1

Total # of neighbors = 13434
Ave neighs/atom = 274.163
Neighbor list builds = 0
Dangerous builds = 0
WARNING: Using 'neigh_modify every 1 delay 0 check yes' setting during minimization (../min.cpp:190)
Setting up cg style minimization ...
  Unit style    : real
  Current step  : 276
WARNING: Energy due to 3 extra global DOFs will be included in minimizer energies
Per MPI rank memory allocation (min/avg/max) = 24.7 | 24.82 | 24.96 Mbytes
Step Temp E_pair E_mol TotEng Press Volume 
     276            0   -8777.6429            0   -8777.6429    2967.0876    1354.3026 
     277            0   -8777.6429            0   -8777.6429    2967.0929    1354.3026 
Loop time of 0.193161 on 8 procs for 1 steps with 49 atoms

99.1% CPU use with 8 MPI tasks x no OpenMP threads

Minimization stats:
  Stopping criterion = linesearch alpha is zero
  Energy initial, next-to-last, final = 
        -8777.64288963     -8777.64288963     -8777.64288893
  Force two-norm initial, final = 111.853 111.853
  Force max component initial, final = 63.3809 63.3811
  Final line search alpha, max atom move = 7.52335e-13 4.76838e-11
  Iterations, force evaluations = 1 43

MPI task timing breakdown:
Section |  min time  |  avg time  |  max time  |%varavg| %total
---------------------------------------------------------------
Pair    | 0.17024    | 0.17315    | 0.17497    |   0.3 | 89.64
Neigh   | 0          | 0          | 0          |   0.0 |  0.00
Comm    | 0.0019705  | 0.003812   | 0.006766   |   2.2 |  1.97
Output  | 0          | 0          | 0          |   0.0 |  0.00
Modify  | 0.015163   | 0.015204   | 0.015243   |   0.0 |  7.87
Other   |            | 0.0009914  |            |       |  0.51

Nlocal:    6.125 ave 7 max 6 min
Histogram: 7 0 0 0 0 0 0 0 0 1
Nghost:    904.875 ave 917 max 893 min
Histogram: 1 0 1 2 0 0 2 1 0 1
Neighs:    1679.25 ave 1904 max 1642 min
Histogram: 7 0 0 0 0 0 0 0 0 1

Total # of neighbors = 13434
Ave neighs/atom = 274.163
Neighbor list builds = 0
Dangerous builds = 0
WARNING: Using 'neigh_modify every 1 delay 0 check yes' setting during minimization (../min.cpp:190)
Setting up cg style minimization ...
  Unit style    : real
  Current step  : 277
Per MPI rank memory allocation (min/avg/max) = 24.7 | 24.82 | 24.96 Mbytes
Step Temp E_pair E_mol TotEng Press 
     277            0   -8777.6429            0   -8777.6429    2967.0943 
     278            0    -8777.643            0    -8777.643    2964.8545 
Loop time of 0.062795 on 8 procs for 1 steps with 49 atoms

99.3% CPU use with 8 MPI tasks x no OpenMP threads

Minimization stats:
  Stopping criterion = energy tolerance
  Energy initial, next-to-last, final = 
        -8777.64288866     -8777.64288866     -8777.64296271
  Force two-norm initial, final = 46.6244 46.6087
  Force max component initial, final = 9.86854 9.86828
  Final line search alpha, max atom move = 9.89571e-06 9.76536e-05
  Iterations, force evaluations = 1 13

MPI task timing breakdown:
Section |  min time  |  avg time  |  max time  |%varavg| %total
---------------------------------------------------------------
Pair    | 0.053276   | 0.054125   | 0.05467    |   0.2 | 86.19
Neigh   | 0          | 0          | 0          |   0.0 |  0.00
Comm    | 0.00068032 | 0.0012249  | 0.0020827  |   1.2 |  1.95
Output  | 0          | 0          | 0          |   0.0 |  0.00
Modify  | 0.0072309  | 0.0072383  | 0.0072442  |   0.0 | 11.53
Other   |            | 0.0002065  |            |       |  0.33

Nlocal:    6.125 ave 7 max 6 min
Histogram: 7 0 0 0 0 0 0 0 0 1
Nghost:    904.875 ave 917 max 893 min
Histogram: 1 0 1 2 0 0 2 1 0 1
Neighs:    1679.25 ave 1904 max 1642 min
Histogram: 7 0 0 0 0 0 0 0 0 1

Total # of neighbors = 13434
Ave neighs/atom = 274.163
Neighbor list builds = 0
Dangerous builds = 0
Setting up Verlet run ...
  Unit style    : real
  Current step  : 0
  Time step     : 0.25
Per MPI rank memory allocation (min/avg/max) = 23.58 | 23.69 | 23.83 Mbytes
Step Temp TotEng KinEng PotEng Press 
       0          300   -8734.7193    42.923665    -8777.643    4413.6836 
     200    214.97028   -8716.4318    30.757708   -8747.1895    2074.1284 
     400    369.95695   -8694.7539    52.933027   -8747.6869     11773.33 
     600    283.84675   -8707.1832    40.612475   -8747.7957   -41399.253 
     800    263.47058   -8702.1345    37.697076   -8739.8316    24019.764 
    1000    307.31576   -8702.6878    43.970396   -8746.6582    18389.146 
    1200    285.94974    -8710.943     40.91337   -8751.8563    -2651.317 
    1400    314.54799   -8701.4233    45.005175   -8746.4285   -25550.232 
    1600    268.60462   -8704.6087    38.431649   -8743.0403   -27103.767 
    1800    255.42655   -8716.5074    36.546145   -8753.0535   -13312.746 
    2000     288.5043   -8701.4436    41.278872   -8742.7225   -27804.693 
    2200    300.49691   -8699.6252    42.994763     -8742.62   -5029.4772 
    2400    229.65958   -8713.9292    32.859436   -8746.7887     3486.799 
    2600    304.93643   -8706.6569    43.629964   -8750.2869    -17823.59 
    2800    260.78176   -8702.6996    37.312363    -8740.012   -21681.107 
    3000    260.83662   -8703.2503    37.320212   -8740.5705   -26692.912 
    3200    321.27178   -8696.0244    45.967207   -8741.9916   -4411.3871 
    3400    318.50369   -8693.3683    45.571152   -8738.9395     23202.19 
    3600    247.87643   -8704.7129    35.465882   -8740.1788     4767.462 
    3800     332.5115   -8690.6318    47.575373   -8738.2072       -58693 
    4000    269.64405   -8708.8957    38.580369    -8747.476    5873.0904 
    4200    303.46264   -8707.9685    43.419095   -8751.3876    7797.5631 
    4400    342.71885   -8690.0205    49.035831   -8739.0564   -11458.278 
    4600     303.2199   -8697.5157    43.384364   -8740.9001    48086.195 
    4800    295.74498   -8705.8633    42.314862   -8748.1782   -2248.0737 
    5000    248.60574   -8696.9616    35.570231   -8732.5319    31685.469 
    5200    317.95548    -8699.608    45.492714   -8745.1007    43685.821 
    5400    297.44812   -8711.0248    42.558545   -8753.5834   -10895.569 
    5600    232.41324   -8718.8189    33.253426   -8752.0724   -38537.143 
    5800    287.63801   -8698.9208    41.154925   -8740.0757    21951.382 
    6000    273.01753   -8707.3532    39.063043   -8746.4162    -7279.221 
    6200    245.53616   -8708.7933    35.131039   -8743.9243    23981.284 
    6400    320.75474   -8697.8426     45.89323   -8743.7358   -21768.981 
    6600    285.56399   -8707.4851    40.858176   -8748.3433    29430.993 
    6800    352.79706   -8691.6155    50.477809   -8742.0933   -29484.399 
    7000      230.453   -8706.9884    32.972958   -8739.9614   -43468.778 
    7200    308.48791   -8703.3443    44.138106   -8747.4824    1361.0052 
    7400    229.43638    -8713.897    32.827501   -8746.7245   -32979.505 
    7600    296.89605   -8712.7915    42.479555   -8755.2711    4283.7531 
    7800    329.89571   -8699.8055    47.201109   -8747.0066    2610.5418 
    8000    309.22396   -8693.3842    44.243419   -8737.6276    -7559.957 
    8200    304.35431   -8709.9134    43.546675     -8753.46   -54955.751 
    8400    331.41177   -8703.7727    47.418026   -8751.1908    33216.957 
    8600     292.0269   -8685.0313    41.782882   -8726.8142   -21173.659 
    8800    344.64113    -8704.321    49.310868   -8753.6319    -2550.356 
    9000    245.13748   -8709.2973    35.073997   -8744.3713    -4983.225 
    9200    330.17622   -8693.8819    47.241245   -8741.1232    8700.3995 
    9400    292.73948   -8706.9186    41.884837   -8748.8035   -11271.371 
    9600    341.90891   -8701.2588    48.919944   -8750.1788   -3913.9175 
    9800    290.75313   -8702.7692    41.600633   -8744.3699   -17333.838 
   10000    345.18811   -8690.5013    49.389129   -8739.8904    4798.1074 
   10200    315.50884   -8702.4097    45.142652   -8747.5524    7219.8306 
   10400     332.5536   -8697.4556    47.581397    -8745.037    5058.9003 
   10600    258.78643   -8713.7314    37.026873   -8750.7583    1278.1976 
   10800    314.24956   -8705.0603    44.962476   -8750.0228    -26437.52 
   11000    335.55544   -8703.6341    48.010898    -8751.645   -7245.9563 
   11200    330.61867   -8696.6829     47.30455   -8743.9875   -14970.757 
   11400    349.00976   -8692.0308    49.935926   -8741.9667     37622.04 
   11600    256.20812   -8708.5069    36.657971   -8745.1649   -1153.3907 
   11800    303.46963   -8697.8344    43.420096   -8741.2544   -18957.135 
   12000    370.75431   -8689.2084    53.047113   -8742.2556   -7402.3677 
   12200    243.14947   -8705.0276    34.789555   -8739.8171    4358.6721 
   12400    353.95398   -8698.4444    50.643339   -8749.0878    2379.9977 
   12600    304.11559   -8694.2174    43.512519   -8737.7299   -1064.5656 
   12800    305.94193   -8702.3449    43.773829   -8746.1188   -3770.6922 
   13000    255.12454   -8701.5429    36.502934   -8738.0458   -1118.6216 
   13200    367.53182   -8681.8708    52.586042   -8734.4569   -1616.4137 
   13400    299.66662   -8698.1721    42.875965    -8741.048    8992.1677 
   13600    293.72086   -8703.4391    42.025253   -8745.4643   -2528.7376 
   13800    357.70997   -8686.5011    51.180743   -8737.6819     -9530.19 
   14000    327.95039   -8699.3961    46.922776   -8746.3188    8503.9752 
   14200    300.47382   -8705.5084    42.991458   -8748.4998    50933.009 
   14400    267.08189   -8703.6185    38.213778   -8741.8323    42672.614 
   14600    345.79046   -8694.1628    49.475313   -8743.6381    13423.815 
   14800    275.69692   -8709.3033    39.446407   -8748.7497     16214.52 
   15000    351.09165    -8700.191    50.233801   -8750.4248    34167.536 
   15200     323.2956   -8700.6125    46.256774   -8746.8692   -49796.458 
   15400    354.27307   -8689.3633    50.688995   -8740.0523   -23926.819 
   15600    289.94308   -8706.0989    41.484732   -8747.5836    35650.353 
   15800    340.13693   -8704.4278    48.666412   -8753.0943    12339.491 
   16000    332.68667   -8694.9525    47.600437   -8742.5529     20762.09 
   16200    285.11034   -8708.7823    40.793269   -8749.5756   -36694.008 
   16400    272.77113   -8706.7098    39.027788   -8745.7376   -3406.5451 
   16600    310.50657    -8694.387    44.426934    -8738.814    27021.408 
   16800    269.00076   -8703.0277    38.488328    -8741.516   -2686.8107 
   17000     255.5064   -8712.9643     36.55757   -8749.5219    5094.4919 
   17200    248.66751   -8712.6341     35.57907   -8748.2132   -24820.576 
   17400    303.97041    -8700.204    43.491747   -8743.6957   -14319.739 
   17600    273.18564   -8711.1496    39.087096   -8750.2367   -44612.423 
   17800    334.21237   -8697.1393    47.818732    -8744.958    -38058.11 
   18000    316.92602   -8700.8299    45.345421   -8746.1754    13582.552 
   18200    275.47462   -8707.8497    39.414601   -8747.2643    5246.9943 
   18400    290.18407   -8709.2433    41.519212   -8750.7625   -6786.4297 
   18600    333.59535   -8699.2554     47.73045   -8746.9858    6215.6093 
   18800    346.19157   -8687.9276    49.532703   -8737.4603      1280.72 
   19000    291.72515   -8704.7615    41.739709   -8746.5012   -23812.479 
   19200    279.01061   -8709.3949    39.920526   -8749.3154   -3080.4763 
   19400     343.3868   -8693.9225      49.1314   -8743.0539   -3752.2248 
   19600    256.41416   -8712.1105    36.687452    -8748.798    8225.6641 
   19800    312.05409   -8706.0255    44.648351   -8750.6739   -11731.693 
   20000    297.97111   -8694.4496    42.633373    -8737.083    12637.242 
   20200    345.58217   -8696.8172    49.445511   -8746.2627   -49217.579 
   20400    260.32746   -8713.9385    37.247361   -8751.1859   -27191.041 
   20600    302.93992   -8702.2407    43.344304    -8745.585   -45445.567 
   20800    323.33209     -8694.59    46.261994   -8740.8519    32676.178 
   21000    271.98764   -8713.3529    38.915687   -8752.2686   -25623.217 
   21200    281.19716   -8706.0533    40.233375   -8746.2866    24731.918 
   21400    338.44709   -8694.0866    48.424631   -8742.5112    6264.3757 
   21600    289.92007   -8711.3708     41.48144   -8752.8522   -5789.6806 
   21800    288.09691   -8708.4408    41.220584   -8749.6614   -4620.8033 
   22000    335.69728   -8697.2565    48.031192   -8745.2877   -5343.0323 
   22200    365.35748   -8677.1653     52.27494   -8729.4402    -1735.823 
   22400    270.68608    -8704.411    38.729461   -8743.1405   -8762.8946 
   22600    272.34526   -8709.8842    38.966855   -8748.8511   -11203.134 
   22800     313.6349   -8695.7996     44.87453   -8740.6742   -11672.526 
   23000    346.32426   -8697.8784    49.551688   -8747.4301   -27868.443 
   23200    274.03471   -8703.4709     39.20858   -8742.6795   -12156.008 
   23400    348.90661   -8698.4724    49.921168   -8748.3936   -46419.081 
   23600    273.06687   -8700.4399    39.070103     -8739.51   -29534.893 
   23800    303.43866   -8709.7801    43.415664   -8753.1958      8734.32 
   24000    285.71597   -8702.7545    40.879921   -8743.6345   -11457.567 
   24200    316.52854   -8690.6348    45.288549   -8735.9234    37103.399 
   24400    277.46516   -8709.9158    39.699405   -8749.6152    6843.9691 
   24600     279.2123    -8704.374    39.949384   -8744.3234    8230.8696 
   24800    358.08917    -8695.168    51.234998    -8746.403   -27741.762 
   25000    297.95988   -8706.4264    42.631766   -8749.0581   -14840.287 
   25200    318.65911   -8700.9011    45.593389   -8746.4945    1823.5308 
   25400    333.56248   -8689.5894    47.725747   -8737.3151   -17343.094 
   25600    298.86418   -8708.1671    42.761153   -8750.9283   -19413.397 
   25800    315.35343   -8698.8889    45.120416   -8744.0093   -20928.707 
   26000    293.74665   -8698.6348    42.028943   -8740.6638    27933.225 
   26200    289.91744   -8705.6574    41.481063   -8747.1385    17737.461 
   26400    297.88564   -8699.7526    42.621145   -8742.3737    26006.173 
   26600    240.47653   -8705.7194    34.407113   -8740.1265   -21568.106 
   26800    300.31974   -8695.9819    42.969413   -8738.9513    16949.333 
   27000    275.66251   -8701.9824    39.441484   -8741.4239   -1115.6953 
   27200    253.15392   -8704.9305    36.220981   -8741.1515    26033.959 
   27400    349.37771   -8699.3167    49.988573   -8749.3052    31461.416 
   27600    261.98976   -8713.6476    37.485203   -8751.1328   -7049.7823 
   27800    354.44483   -8697.6134    50.713571    -8748.327    21337.336 
   28000    274.61007   -8707.3049    39.290902   -8746.5958    51786.357 
   28200    310.23081   -8709.3931    44.387477   -8753.7806    -2395.013 
   28400    303.01983   -8694.3004    43.355738   -8737.6562    7222.2345 
   28600    313.60777   -8706.6345     44.87065   -8751.5052    17834.053 
   28800    244.92048    -8714.448    35.042949    -8749.491   -10322.899 
   29000    348.32955   -8700.0684    49.838602    -8749.907    41343.811 
   29200    276.33766   -8694.1243    39.538084   -8733.6624   -33154.309 
   29400     306.7941   -8699.5823    43.895758    -8743.478   -31377.885 
   29600    288.31982   -8708.3672    41.252478   -8749.6197   -9579.9995 
   29800    298.84892   -8696.1378    42.758969   -8738.8968     3723.506 
   30000    241.19709   -8715.2565    34.510211   -8749.7667    16573.454 
   30200    308.59635   -8705.5821     44.15362   -8749.7357    21465.398 
   30400    296.22648   -8697.0061    42.383754   -8739.3899    15149.804 
   30600    379.79184   -8680.0417    54.340192   -8734.3819     18907.64 
   30800    300.46417   -8701.8806    42.990078   -8744.8707    7100.9135 
   31000    284.21162    -8713.923    40.664681   -8754.5877    4900.9288 
   31200    281.33869    -8699.949    40.253625   -8740.2027    22424.068 
   31400    312.80726   -8705.0256    44.756113   -8749.7817   -19194.684 
   31600    272.22734   -8706.0488    38.949983   -8744.9988    22043.643 
   31800     315.1493   -8695.3522     45.09121   -8740.4434    21913.086 
   32000    342.17662   -8701.3307    48.958248    -8750.289    10396.401 
   32200    291.76053   -8704.8405    41.744771   -8746.5852   -17169.222 
   32400     272.9869   -8706.2764    39.058661   -8745.3351    22107.618 
   32600    334.91027   -8688.4729    47.918587   -8736.3915    9653.7943 
   32800     316.6258   -8699.8638    45.302465   -8745.1663    -42055.78 
   33000    269.14914   -8705.4402    38.509558   -8743.9497   -11296.138 
   33200    321.85832   -8693.3627    46.051129   -8739.4138     28318.71 
   33400    391.50097   -8686.6581    56.015521   -8742.6737   -27151.621 
   33600    320.13436   -8705.8293    45.804466   -8751.6338    163.55808 
   33800    339.45532   -8703.4645    48.568887   -8752.0334     40189.41 
   34000    350.62352   -8690.1133    50.166821   -8740.2801   -7389.5293 
   34200    272.27534   -8712.3415    38.956852   -8751.2983   -38795.113 
   34400     257.3503   -8706.1052    36.821394   -8742.9266    34106.422 
   34600    309.34014   -8693.6809    44.260042    -8737.941   -23419.214 
   34800    251.31157   -8709.7473    35.957379   -8745.7047     15229.27 
   35000    310.02854   -8704.4039    44.358538   -8748.7625    -14541.15 
   35200    361.48054   -8694.1211    51.720232   -8745.8414   -18531.841 
   35400    345.11814   -8686.5116    49.379117   -8735.8907   -5061.7472 
   35600    282.33725    -8706.581    40.396499   -8746.9775    11810.106 
   35800    335.68349   -8700.6838    48.029218    -8748.713    4921.9794 
   36000    386.41534   -8686.1568    55.287874   -8741.4447    15313.198 
   36200    262.79648   -8706.3766    37.600627   -8743.9773    27702.251 
   36400     307.9163   -8703.1195     44.05632   -8747.1759    11853.971 
   36600    268.10599   -8696.2823    38.360306   -8734.6426   -2410.0269 
   36800    341.95439   -8691.3236    48.926453     -8740.25    48470.401 
   37000    304.66272   -8707.2303    43.590802   -8750.8211   -4497.2158 
   37200    295.10064     -8698.72     42.22267   -8740.9427   -13970.393 
   37400    303.99862   -8696.0701    43.495783   -8739.5659    13432.436 
   37600    282.79744   -8705.7848    40.462341   -8746.2471   -13272.304 
   37800    370.54318   -8696.8657    53.016904   -8749.8826    66224.146 
   38000    295.69698   -8695.0619    42.307993   -8737.3699    6556.0299 
   38200    231.85355   -8712.1759    33.173346   -8745.3492    18575.391 
   38400    299.20004    -8707.259    42.809207   -8750.0682    6055.0273 
   38600    343.03947   -8699.6014    49.081704   -8748.6831   -16618.785 
   38800    341.15836   -8694.2687    48.812557   -8743.0812    31950.644 
   39000    240.88634   -8710.3877    34.465748   -8744.8535   -16438.175 
   39200    271.55554   -8703.3399    38.853864   -8742.1937   -31051.463 
   39400    292.86313   -8692.8463    41.902529   -8734.7488   -15794.729 
   39600    272.32019    -8705.736    38.963268   -8744.6993     39322.19 
   39800    313.38617    -8703.891    44.838943     -8748.73   -51560.663 
   40000    275.95519   -8706.6108     39.48336   -8746.0941   -8185.8636 
   40200    252.99043   -8696.7774    36.197588    -8732.975   -31800.485 
   40400    312.46829   -8705.9566    44.707614   -8750.6642    8052.8309 
   40600    260.27582   -8704.1086    37.239973   -8741.3485   -21145.645 
   40800    308.06705   -8697.4999     44.07789   -8741.5777     42284.58 
   41000    265.64587   -8714.5682    38.008314   -8752.5765    -10543.96 
   41200    273.42662   -8705.2742    39.121575   -8744.3958   -21709.465 
   41400    280.03858   -8698.1608    40.067608   -8738.2284    -28563.71 
   41600    294.72317   -8702.9688    42.168662   -8745.1375    16660.315 
   41800    258.00554   -8715.6263    36.915145   -8752.5414    45620.983 
   42000    287.62541   -8708.0823    41.153123   -8749.2354    19509.213 
   42200    288.27999   -8696.6695    41.246778   -8737.9163   -37655.309 
   42400    288.50035   -8700.8899    41.278308   -8742.1683   -61383.382 
   42600    292.83978   -8699.2709    41.899189     -8741.17   -16648.524 
   42800    301.83703   -8705.2801    43.186504   -8748.4666   -17697.303 
   43000     267.8798   -8713.4287    38.327942   -8751.7566    4859.3889 
   43200    304.84973   -8702.1174    43.617558    -8745.735    35919.215 
   43400    312.45512   -8700.9291    44.705729   -8745.6348   -3935.7294 
   43600    342.49245   -8689.7629    49.003436   -8738.7664    44783.202 
   43800     298.7098    -8701.363    42.739065   -8744.1021   -39436.647 
   44000    294.47616   -8708.5481    42.133319   -8750.6814    11914.713 
   44200    344.71225   -8688.6378    49.321044   -8737.9588   -52394.386 
   44400    278.35383   -8700.6546    39.826554   -8740.4811    33557.666 
   44600    304.48819   -8706.8464    43.565831   -8750.4123   -3665.8116 
   44800    342.00048    -8688.014    48.933047   -8736.9471    31639.492 
   45000    304.55802   -8698.5648    43.575821   -8742.1406    39475.719 
   45200    250.62047   -8709.4632    35.858497   -8745.3217    189.02229 
   45400    316.48394   -8694.6044    45.282168   -8739.8866   -24352.286 
   45600    354.26719   -8700.0782    50.688154   -8750.7664   -24862.644 
   45800    312.39992   -8705.1196    44.697831   -8749.8175     29469.06 
   46000    356.71931   -8684.8259       51.039   -8735.8649    28534.846 
   46200     339.5947    -8698.183     48.58883   -8746.7718   -33953.649 
   46400    302.37203   -8704.9905    43.263053   -8748.2536   -10149.192 
   46600    306.52133   -8705.3369     43.85673   -8749.1937    13920.326 
   46800    331.75387   -8698.6162    47.466973   -8746.0832    17140.638 
   47000    283.69955   -8707.9665    40.591414    -8748.558   -32982.767 
   47200    332.27372   -8700.8958    47.541352   -8748.4372   -2780.7184 
   47400    268.83066   -8699.5951     38.46399   -8738.0591    52685.123 
   47600    330.14804     -8701.48    47.237212   -8748.7172    20184.178 
   47800    252.73975   -8714.3977    36.161721   -8750.5594   -22799.959 
   48000    275.43565   -8698.5707    39.409025   -8737.9797    43192.082 
   48200    280.86892   -8698.1268    40.186411   -8738.3133    42412.394 
   48400     284.9026   -8710.0869    40.763546   -8750.8504    24882.921 
   48600    390.87244   -8692.5855    55.925592   -8748.5111    34770.594 
   48800    310.55202   -8705.7735    44.433436    -8750.207     17985.57 
   49000    275.87092   -8705.6612    39.471303   -8745.1325   -23658.819 
   49200    329.81744    -8688.019    47.189911   -8735.2089   -9106.4069 
   49400    279.08815   -8699.7616    39.931621   -8739.6932   -18063.262 
   49600    268.30881   -8708.3632    38.389324   -8746.7526   -6267.7553 
   49800     290.2253   -8713.9481    41.525112   -8755.4732     28240.58 
   50000    361.33665   -8696.5568    51.699644   -8748.2565   -38896.993 
   50200    309.38061   -8704.8152    44.265832    -8749.081   -17643.502 
   50400    261.95327   -8715.8268    37.479981   -8753.3068   -16853.117 
   50600    306.10707   -8703.5503    43.797457   -8747.3477    54728.025 
   50800     359.4834   -8697.0792    51.434483   -8748.5137    48511.566 
   51000    282.01374   -8708.1948    40.350211    -8748.545   -4412.1505 
   51200    232.75078   -8711.7126    33.301722   -8745.0143   -36635.627 
   51400    275.47356   -8694.1229    39.414449   -8733.5373    29373.602 
   51600    347.09268   -8704.0044    49.661632    -8753.666    14646.997 
   51800    260.98692   -8708.6874    37.341717   -8746.0291     -22703.6 
   52000    292.75416   -8702.7991    41.886938   -8744.6861   -7510.6688 
   52200    303.28662   -8702.5411    43.393911    -8745.935   -41428.407 
   52400    274.89354   -8702.8105     39.33146    -8742.142    -6952.734 
   52600    338.65483   -8696.8992    48.454355   -8745.3535    9181.3422 
   52800    369.29911   -8682.0959    52.838904   -8734.9348    44260.225 
   53000    336.12472    -8704.467    48.092349   -8752.5593   -3683.0073 
   53200    267.54247   -8709.6848    38.279678   -8747.9645    57581.922 
   53400    280.60714   -8701.3853    40.148955   -8741.5343    1498.2445 
   53600    313.58681   -8698.5828    44.867651   -8743.4504   -8663.1398 
   53800    288.56086     -8711.99    41.286965    -8753.277    13378.122 
   54000    396.00106   -8689.2983    56.659389   -8745.9577    35499.905 
   54200    295.28448   -8699.8434    42.248973   -8742.0923   -34727.008 
   54400    232.94694   -8716.0917    33.329787   -8749.4215   -16164.448 
   54600     261.2244   -8707.1878    37.375695   -8744.5635    16965.174 
   54800    335.87927   -8699.6201    48.057231   -8747.6773    52824.976 
   55000    272.89027   -8701.4086    39.044836   -8740.4534   -22834.818 
   55200    297.23968   -8702.1544    42.528721   -8744.6831    13095.913 
   55400    225.11482   -8715.1817    32.209176   -8747.3909    33732.367 
   55600    279.58677   -8700.1992    40.002962   -8740.2022    13314.705 
   55800    246.85337   -8700.9824    35.319505   -8736.3019   -47609.184 
   56000     349.5609   -8694.7552    50.014783   -8744.7699    46440.133 
   56200    277.98427   -8710.5783    39.773679    -8750.352   -13230.764 
   56400    313.48139   -8695.8096    44.852567   -8740.6621   -88238.358 
   56600    283.17048   -8698.5225    40.515716   -8739.0382   -4311.4295 
   56800    324.04088   -8703.6282    46.363407   -8749.9917   -17872.222 
   57000    231.56586   -8716.1103    33.132184   -8749.2425    11715.071 
   57200    277.88449   -8702.7018    39.759402   -8742.4612    7806.8099 
   57400    300.52263   -8693.9432    42.998442   -8736.9417    33331.138 
   57600    290.97881   -8703.0719    41.632922   -8744.7049   -15397.753 
   57800    282.45743   -8701.2158    40.413694   -8741.6295    24501.714 
   58000    317.75409   -8696.3945    45.463901   -8741.8584   -27784.714 
   58200    259.43618   -8708.9661    37.119838    -8746.086   -43019.459 
   58400    328.51935   -8702.1298    47.004181    -8749.134     -29727.8 
   58600    289.02673   -8699.9824    41.353621    -8741.336   -8816.6829 
   58800    263.98153   -8701.8904    37.770182   -8739.6605   -9727.1169 
   59000    317.67129   -8702.2255    45.452052   -8747.6775   -29087.867 
   59200    232.33531   -8711.0886    33.242277   -8744.3309   -29195.846 
   59400    269.60093   -8712.7004    38.574199   -8751.2746    8310.1661 
   59600    293.87653   -8697.8294    42.047526   -8739.8769   -7359.7563 
   59800    330.33664   -8701.2431    47.264197   -8748.5073   -12120.965 
   60000    315.99323   -8697.5244    45.211959   -8742.7363    2786.6668 
   60200    286.52754   -8707.9831    40.996041   -8748.9792    47937.061 
   60400    349.40556   -8695.1979    49.992557   -8745.1904    24480.224 
   60600    343.72074    -8698.778    49.179179   -8747.9571    14803.138 
   60800    274.55848   -8712.6999     39.28352   -8751.9835    -3521.583 
   61000    313.20296    -8699.668     44.81273   -8744.4807   -59317.713 
   61200    331.28301   -8691.3862    47.399603   -8738.7858   -3583.8421 
   61400     297.2096   -8705.1143    42.524417   -8747.6387    -20715.68 
   61600    228.45861   -8711.9544    32.687602    -8744.642   -9012.4839 
   61800     322.2493    -8695.707     46.10707    -8741.814    16488.036 
   62000    293.79964   -8700.8924    42.036524   -8742.9289     5734.895 
   62200    271.57456   -8707.5187    38.856584   -8746.3753   -21548.922 
   62400    336.23276   -8700.0102    48.107807    -8748.118    50634.147 
   62600    272.99509   -8705.0364    39.059833   -8744.0962    35897.561 
   62800    296.37166   -8704.1291    42.404526   -8746.5336   -48025.113 
   63000    329.97264    -8689.866    47.212116   -8737.0782    -27826.43 
   63200    271.20284    -8706.297    38.803399   -8745.1004   -10974.362 
   63400    371.30351   -8701.7628    53.125691   -8754.8885   -1993.3371 
   63600    401.14992   -8686.9856    57.396083   -8744.3817    36914.941 
   63800     342.1806   -8698.3781    48.958818   -8747.3369   -21338.898 
   64000    308.39079   -8707.5064     44.12421   -8751.6307   -5632.6127 
   64200    313.82901   -8700.1738    44.902303   -8745.0761   -35347.398 
   64400    369.32202   -8692.6678    52.842182     -8745.51   -21440.626 
   64600    252.16572    -8705.668     36.07959   -8741.7476    -29698.49 
   64800    332.14926   -8700.3357    47.523544   -8747.8593    3320.5015 
   65000    381.34972   -8682.4128    54.563091   -8736.9759    6965.4664 
   65200    306.92404   -8700.9087    43.914349    -8744.823    -16689.66 
   65400    282.52533   -8704.7777    40.423408   -8745.2011   -10041.336 
   65600    224.02199   -8716.6613    32.052816   -8748.7141    45159.169 
   65800    305.61991   -8701.9267    43.727755   -8745.6545     51605.31 
   66000    208.50848   -8701.8198     29.83316    -8731.653   -21534.621 
   66200    333.74122   -8689.7628    47.751321   -8737.5141   -52056.498 
   66400    262.94639   -8704.8699    37.622075   -8742.4919   -11537.095 
   66600     288.2133   -8698.9496    41.237237   -8740.1868    -7831.866 
   66800    281.24308   -8710.6432    40.239945   -8750.8832   -34304.123 
   67000    292.73732   -8708.7447    41.884529   -8750.6292    10159.252 
   67200    281.60464   -8695.0245    40.291677   -8735.3161      18067.6 
   67400    490.23277   -8671.2946    70.141956   -8741.4366   -6834.3389 
   67600    301.31897   -8696.7308    43.112382   -8739.8431   -11893.358 
   67800    295.00375   -8708.4792    42.208807    -8750.688     55706.53 
   68000    311.62496   -8696.4064    44.586951   -8740.9933   -25724.499 
   68200    306.73824   -8698.7206    43.887764   -8742.6084     61191.28 
   68400    290.86367   -8705.3218    41.616449   -8746.9382   -46211.211 
   68600    426.64712   -8690.3876    61.044193   -8751.4318    9752.1477 
   68800    312.45998   -8704.1063    44.706424   -8748.8127    46074.882 
   69000    308.13642   -8706.6998    44.087815   -8750.7876    17685.763 
   69200    277.45094   -8699.1134    39.697371   -8738.8107    24212.549 
   69400    363.29195   -8684.7613    51.979406   -8736.7407    23453.522 
   69600    230.81033    -8704.632    33.024084   -8737.6561   -22335.865 
   69800    341.29084   -8696.8166    48.831512   -8745.6481   -6378.2452 
   70000    306.25085   -8699.5021     43.81803   -8743.3201    23128.448 
   70200    278.87427   -8709.0719    39.901019   -8748.9729     33378.92 
   70400    283.58526   -8696.6982    40.575062   -8737.2733    7532.9633 
   70600    337.59077   -8694.1335     48.30211   -8742.4356    2884.8343 
   70800    237.96006   -8705.4163    34.047059   -8739.4633   -860.83909 
   71000    369.16889   -8694.6186    52.820272   -8747.4389   -7090.1474 
   71200     291.9091    -8703.083    41.766028    -8744.849   -9751.4811 
   71400    256.28829   -8714.2922    36.669441   -8750.9617    5240.9191 
   71600     332.6031   -8694.3264     47.58848   -8741.9149    8757.5917 
   71800    333.05248   -8702.7591    47.652777   -8750.4119    25032.161 
   72000     269.8001   -8711.8956    38.602697   -8750.4983    1932.5926 
   72200    300.55099   -8692.7617    43.002499   -8735.7642    14690.468 
   72400    310.95712    -8701.553    44.491398   -8746.0444    11039.608 
   72600    220.20854   -8709.5819    31.507192   -8741.0891    15725.347 
   72800     319.3422   -8692.2236    45.691126   -8737.9148    -3882.709 
   73000    331.71253   -8706.8681    47.461058   -8754.3292    35567.526 
   73200    316.11282   -8705.9307    45.229069   -8751.1597   -11969.868 
   73400    250.16111   -8703.0429    35.792772   -8738.8357   -11244.852 
   73600     288.2239   -8703.7527    41.238754   -8744.9914   -1438.9659 
   73800    335.35329   -8694.8657    47.981974   -8742.8477   -8088.8764 
   74000    284.99497   -8698.8057    40.776761   -8739.5825    38536.813 
   74200    264.61954   -8705.2223    37.861467   -8743.0837   -19982.565 
   74400    341.27137   -8697.8652    48.828726   -8746.6939    2037.1048 
   74600    284.35845   -8701.9438    40.685689   -8742.6295    37576.398 
   74800    321.75337   -8700.0748    46.036113   -8746.1109    12390.913 
   75000    251.31869    -8713.277    35.958398   -8749.2354     14562.55 
   75200    326.16031   -8698.2514    46.666653   -8744.9181    20930.262 
   75400    292.77438   -8701.7416    41.889832   -8743.6314   -27547.269 
   75600    271.63047   -8709.4964    38.864584    -8748.361   -30903.207 
   75800    261.85805   -8710.9854    37.466357   -8748.4518   -16453.595 
   76000    317.73953   -8698.7346    45.461817   -8744.1964    33020.454 
   76200    276.31809   -8702.6826    39.535284   -8742.2179    28970.572 
   76400    265.64035   -8713.3172    38.007524   -8751.3247    10793.211 
   76600    265.88573   -8703.1814    38.042633   -8741.2241   -1802.8718 
   76800    320.14519   -8697.5061    45.806016   -8743.3121   -17607.698 
   77000      303.115   -8707.7314    43.369356   -8751.1008   -4014.7344 
   77200    240.49863   -8718.3024    34.410275   -8752.7127   -39993.112 
   77400    225.72966    -8705.091    32.297147   -8737.3881    8213.8001 
   77600    396.06888   -8693.0933    56.669093   -8749.7624    -25461.88 
   77800    254.09016   -8703.9381    36.354936    -8740.293   -38837.132 
   78000     262.1599   -8708.7097    37.509545   -8746.2192   -24289.984 
   78200    347.46676   -8693.0933    49.715155   -8742.8084   -9774.5465 
   78400    287.68003   -8699.0038    41.160937   -8740.1647     18293.84 
   78600    289.41315    -8706.727    41.408909   -8748.1359    22096.736 
   78800    302.17852   -8695.0391    43.235365   -8738.2745    56290.668 
   79000    387.05336   -8695.4452    55.379162   -8750.8244   -7827.2388 
   79200    277.08306    -8707.174    39.644735   -8746.8187   -13766.692 
   79400    308.15651   -8704.2396    44.090688   -8748.3303    32106.954 
   79600    301.28845   -8689.9932    43.108014   -8733.1012   -5332.5747 
   79800    320.51266   -8707.2131    45.858594   -8753.0717    35781.376 
   80000    285.32577   -8702.3014    40.824092   -8743.1255    1747.7611 
   80200    329.29179   -8686.2786    47.114701   -8733.3933   -6981.5539 
   80400     348.8733   -8694.3108    49.916402   -8744.2272   -23798.263 
   80600    305.86632    -8704.853    43.763011    -8748.616   -20915.679 
   80800    298.47387   -8708.2883    42.705307   -8750.9936   -11717.933 
   81000    339.71228   -8689.5977    48.605654   -8738.2033    23067.267 
   81200    305.37991   -8702.9703    43.693416   -8746.6637    1963.0154 
   81400    282.22067   -8705.7179    40.379818   -8746.0978    901.23193 
   81600    316.55778   -8697.7932    45.292734   -8743.0859    42345.657 
   81800      352.808   -8688.3103    50.479374   -8738.7897   -690.92095 
   82000    279.00376   -8707.3369    39.919546   -8747.2564    -27329.78 
   82200    301.87996   -8704.2789    43.192648   -8747.4716   -3310.9506 
   82400    337.44017    -8686.264    48.280562   -8734.5446    40348.971 
   82600     308.3432   -8702.8222      44.1174   -8746.9396    41424.748 
   82800    358.92891    -8705.983    51.355147   -8757.3381    6981.7639 
   83000    366.73816   -8693.9516    52.472486   -8746.4241    3061.0882 
   83200    372.95132   -8697.2867    53.361458   -8750.6482    28778.101 
   83400    267.16386   -8707.6463    38.225506   -8745.8718    73369.029 
   83600    293.62511   -8697.4256    42.011553   -8739.4371    35507.583 
   83800    280.22453   -8705.1625    40.094213   -8745.2568   -15847.817 
   84000    301.55974   -8707.7725    43.146831   -8750.9193   -44044.864 
   84200    282.95311   -8695.7904    40.484615   -8736.2751   -56747.846 
   84400    252.92288    -8707.562    36.187923   -8743.7499   -50716.392 
   84600     290.4825   -8716.1031    41.561911    -8757.665   -18541.965 
   84800    305.77032   -8703.2222    43.749276   -8746.9715    2834.1219 
   85000    351.30323   -8694.6246    50.264073   -8744.8887   -24753.631 
   85200    259.88167   -8704.3509    37.183578   -8741.5345   -17123.791 
   85400    267.78871   -8710.4646    38.314909   -8748.7795   -8498.3469 
   85600    322.26776   -8697.0311    46.109711   -8743.1408   -39435.958 
   85800    323.99417   -8700.0999    46.356724   -8746.4566   -1163.8748 
   86000     286.8383   -8711.6837    41.040504   -8752.7242   -38863.017 
   86200    248.78626    -8717.402    35.596061    -8752.998   -23269.376 
   86400    265.56414   -8699.6824     37.99662    -8737.679   -16017.947 
   86600      292.949   -8700.4189    41.914815   -8742.3337    31216.447 
   86800    258.35204   -8716.2372    36.964721   -8753.2019   -6697.6191 
   87000    301.61469   -8703.2571    43.154693   -8746.4118   -12321.759 
   87200    282.56149   -8702.9433    40.428583   -8743.3719   -10869.019 
   87400    311.64748   -8699.7589    44.590173   -8744.3491   -17407.882 
   87600    310.26781   -8697.2367    44.392771   -8741.6295    37360.029 
   87800    267.45433   -8711.3854    38.267067   -8749.6524    15524.816 
   88000    281.14992   -8697.1611    40.226617   -8737.3877    -1038.743 
   88200    350.60057   -8694.9208    50.163537   -8745.0844    22903.597 
   88400    290.16338   -8708.3682    41.516252   -8749.8845    26631.984 
   88600    310.24654   -8703.2241    44.389729   -8747.6139   -6739.2408 
   88800      277.101   -8703.7492    39.647301   -8743.3965   -23464.168 
   89000    262.53295   -8702.9436    37.562921   -8740.5065    11672.693 
   89200    324.90911   -8705.8238    46.487633   -8752.3114   -14971.025 
   89400    248.10858   -8716.3152    35.499098   -8751.8143   -11878.586 
   89600    319.11692   -8700.1653    45.658893   -8745.8241    11019.873 
   89800    327.71329   -8700.6567    46.888852   -8747.5456   -18670.194 
   90000    248.68925   -8715.2513     35.58218   -8750.8335   -15131.491 
   90200    341.37179   -8698.6733    48.843095   -8747.5164    16285.935 
   90400     262.0474   -8698.8153    37.493449   -8736.3087    36699.702 
   90600    290.79338   -8711.4736    41.606391     -8753.08   -4801.4569 
   90800    220.03413   -8705.6519    31.482237   -8737.1341    424.41863 
   91000    282.91659   -8696.5744    40.479389   -8737.0538    9377.4605 
   91200    249.41794   -8708.9505     35.68644   -8744.6369   -6505.7108 
   91400    305.39049   -8703.8733    43.694929   -8747.5682    9599.3566 
   91600    358.40757   -8694.3312    51.280554   -8745.6118    3888.6123 
   91800    280.43165   -8708.9988    40.123847   -8749.1227   -35074.461 
   92000    294.55074   -8706.3059    42.143991   -8748.4498    21852.775 
   92200     321.0325   -8694.7127    45.932971   -8740.6457   -8343.5767 
   92400    256.35573    -8698.565    36.679091   -8735.2441     28904.56 
   92600    280.58973   -8701.4497    40.146466   -8741.5961    31547.097 
   92800    283.51015   -8704.2493    40.564315   -8744.8136   -41597.126 
   93000    300.32424   -8709.3186    42.970057   -8752.2886     40438.58 
   93200    276.09245   -8694.3714    39.502999   -8733.8744   -17621.259 
   93400    289.34752   -8704.6984    41.399519   -8746.0979   -16010.819 
   93600    257.02771   -8709.4683    36.775238   -8746.2436    37083.487 
   93800    331.21367   -8694.8089    47.389682   -8742.1986     52219.43 
   94000    272.13982   -8701.8357    38.937462   -8740.7731     -27429.6 
   94200    339.69216   -8699.3234    48.602774   -8747.9261    3644.3261 
   94400    402.53391   -8685.9417    57.594102   -8743.5358    10730.891 
   94600    315.24312   -8702.3929    45.104633   -8747.4975   -41370.014 
   94800    283.41157   -8709.2935     40.55021   -8749.8437   -9988.9201 
   95000     352.9096   -8693.8134     50.49391   -8744.3073   -16784.715 
   95200    268.52206   -8703.9476    38.419837   -8742.3674    47495.037 
   95400    331.37774   -8705.2738    47.413156   -8752.6869   -20393.072 
   95600    350.72845   -8691.8022    50.181835    -8741.984    921.39522 
   95800    304.79862   -8704.0486    43.610247   -8747.6588   -38559.357 
   96000     265.9318   -8718.4279    38.049225   -8756.4771   -40616.322 
   96200     299.7965   -8703.2073    42.894549   -8746.1018   -16117.071 
   96400    314.68239   -8705.1612    45.024404   -8750.1856   -12005.448 
   96600    262.03004   -8712.6325    37.490966   -8750.1235   -22917.964 
   96800    337.91304   -8700.6321     48.34822   -8748.9804   -12225.154 
   97000    351.30038   -8693.4035    50.263665   -8743.6672    34981.493 
   97200     272.9649   -8711.4162    39.055512   -8750.4717    27871.125 
   97400    288.94418   -8708.2802     41.34181    -8749.622   -5078.7403 
   97600    340.90188   -8694.4297     48.77586   -8743.2056   -10897.176 
   97800    297.12287   -8710.0618    42.512008   -8752.5738   -10523.259 
   98000    288.43075   -8707.2907     41.26835    -8748.559   -33731.315 
   98200    316.52376   -8699.0997    45.287866   -8744.3876    1633.4466 
   98400    273.73334   -8706.1482     39.16546   -8745.3136    -19296.46 
   98600    277.81448   -8715.2482    39.749386   -8754.9976   -9732.5023 
   98800    266.55096   -8700.5144    38.137814   -8738.6522    -27105.17 
   99000    330.29858    -8695.627    47.258751   -8742.8857    4056.8055 
   99200    377.44316   -8695.3625    54.004145   -8749.3666    -7220.592 
   99400    283.87965   -8707.9304    40.617183   -8748.5476   -28507.584 
   99600     325.1971   -8706.1529    46.528838   -8752.6817   -9962.9976 
   99800    343.46412   -8693.1787    49.142463   -8742.3212    6840.0962 
  100000    273.96177   -8708.4064    39.198143   -8747.6046    -4876.454 
  100200    267.75841   -8703.5117    38.310573   -8741.8223    9494.5391 
  100400    263.29686   -8700.7086     37.67222   -8738.3808    35245.757 
  100600    317.83782   -8700.6746    45.475881   -8746.1505   -23250.725 
  100800    244.48687    -8715.196    34.980909   -8750.1769   -40245.264 
  101000    311.95382   -8702.9876    44.634003   -8747.6217    -7382.328 
  101200    282.33138   -8702.2367    40.395659   -8742.6323    7938.5587 
  101400    318.41273   -8703.8457    45.558137   -8749.4039   -8354.6821 
  101600    330.25065   -8696.8546    47.251894   -8744.1065    2033.4338 
  101800    303.50785   -8704.7371    43.425564   -8748.1627     1271.842 
  102000    290.76063   -8707.0924    41.601705   -8748.6941    52824.218 
  102200    313.96494   -8694.0365    44.921753   -8738.9582    10713.032 
  102400    272.70288   -8702.4931    39.018024   -8741.5111    24419.816 
  102600    330.07976   -8702.3506    47.227444   -8749.5781   -7970.1942 
  102800    285.14605   -8702.1853    40.798379   -8742.9837   -11420.994 
  103000     234.6845   -8712.1212    33.578396   -8745.6996   -39454.866 
  103200    326.13432   -8695.3323    46.662933   -8741.9952   -10157.964 
  103400    322.46309   -8697.1755    46.137659   -8743.3132   -2019.2068 
  103600     281.1027   -8714.7501     40.21986   -8754.9699   -10468.451 
  103800    300.13051     -8705.93    42.942338   -8748.8723    27448.483 
  104000     304.4948   -8700.0254    43.566776   -8743.5922    27921.569 
  104200    270.39422   -8708.8695    38.687702   -8747.5572   -16199.676 
  104400    247.28835   -8714.8171     35.38174   -8750.1988    -21479.39 
  104600    330.06678   -8700.4412    47.225586   -8747.6668   -25573.292 
  104800    287.39844   -8703.1496    41.120647   -8744.2702   -18187.192 
  105000    244.56033   -8716.1396    34.991418    -8751.131    39259.077 
  105200    356.15223   -8697.7014    50.957863   -8748.6593    -3761.517 
  105400    316.18675   -8701.1429    45.239647   -8746.3825    21878.547 
  105600    297.03832   -8709.3534    42.499911   -8751.8533   -15376.219 
  105800     335.2904   -8692.9618    47.972976   -8740.9348   -30871.543 
  106000    265.44012   -8704.6727    37.978875   -8742.6516    3554.0064 
  106200    278.60973   -8704.8634    39.863169   -8744.7266    18174.441 
  106400    254.36807   -8703.5489    36.394699   -8739.9436    -8329.091 
  106600    344.33107   -8688.3108    49.266504   -8737.5773    -20994.69 
  106800     277.6852   -8707.2664    39.730887   -8746.9973     20008.17 
  107000    281.06006   -8701.5496    40.213759   -8741.7634    15923.512 
  107200     310.4322   -8698.7915    44.416292   -8743.2078     17603.27 
  107400    233.89527    -8713.144    33.465475   -8746.6095    3476.7329 
  107600    309.50971   -8698.2203    44.284303   -8742.5046    14911.999 
  107800    275.82189   -8702.4014    39.464287   -8741.8657   -8239.6229 
  108000    283.02141   -8716.6875    40.494387   -8757.1819   -16815.787 
  108200    321.52929   -8705.4792    46.004051   -8751.4832   -11371.905 
  108400    315.01677   -8698.9651    45.072247   -8744.0373    11323.445 
  108600    367.26254   -8694.8153    52.547514   -8747.3629   -10976.216 
  108800    329.33957   -8707.1447    47.121538   -8754.2662   -23532.047 
  109000    291.77881   -8704.2328    41.747386   -8745.9802     60684.95 
  109200    327.13438   -8695.4844    46.806021   -8742.2904   -39122.539 
  109400    240.24192   -8707.9496    34.373545   -8742.3231    1016.8366 
  109600    247.28078   -8717.7023    35.380657    -8753.083   -22671.659 
  109800    305.56117   -8700.8609    43.719351   -8744.5803    4945.9278 
  110000    317.18187   -8694.4055    45.382028   -8739.7876    46743.877 
  110200    278.49545   -8712.7045    39.846818   -8752.5513   -2989.3604 
  110400    306.33247   -8706.6284    43.829707   -8750.4581     2440.534 
  110600    281.61696   -8699.8949    40.293439   -8740.1884    7926.8351 
  110800    282.51557   -8699.0112    40.422012   -8739.4332    6508.8201 
  111000    238.66693   -8715.0291    34.148198   -8749.1773   -33246.188 
  111200    338.55994    -8700.697    48.440777   -8749.1378    481.79373 
  111400    342.87371   -8700.1429    49.057987   -8749.2009    21992.041 
  111600    233.51749   -8716.1734    33.411421   -8749.5848   -17300.012 
  111800    334.44109   -8698.8007    47.851457   -8746.6522   -10287.129 
  112000    273.83371   -8701.3044    39.179821   -8740.4842   -23922.232 
  112200    289.84585   -8703.4693     41.47082   -8744.9401   -51214.235 
  112400    309.78914   -8703.1497    44.324284    -8747.474   -44247.791 
  112600    277.12731    -8698.758    39.651066   -8738.4091   -22232.774 
  112800    298.94681   -8691.3049    42.772976   -8734.0779   -4153.0029 
  113000    312.67706   -8707.3966    44.737484   -8752.1341   -17129.216 
  113200    309.15726   -8704.9436    44.233875   -8749.1775    18849.488 
  113400    329.15125   -8684.8632    47.094593   -8731.9578   -17409.699 
  113600    329.76874   -8698.0746    47.182943   -8745.2575   -29261.882 
  113800    280.52674   -8701.9413    40.137452   -8742.0787    19264.498 
  114000    304.83482   -8703.6724    43.615426   -8747.2878    7049.4775 
  114200    378.62302   -8693.2668    54.172959   -8747.4397   -40706.864 
  114400    235.12498   -8710.5195     33.64142   -8744.1609   -17842.606 
  114600    282.02729   -8705.9228     40.35215   -8746.2749    18458.551 
  114800    360.89212   -8696.1158    51.636041   -8747.7518   -17990.937 
  115000    261.07973   -8713.7027    37.354996   -8751.0577    30955.281 
  115200    299.29665   -8701.8562    42.823031   -8744.6792   -1981.7607 
  115400    305.31025   -8697.6861    43.683449   -8741.3695    63814.909 
  115600    272.67175   -8710.7022    39.013569   -8749.7158     48197.25 
  115800    297.04682   -8709.4765    42.501127   -8751.9776   -19405.848 
  116000    340.25701   -8695.7263    48.683592   -8744.4099   -22443.303 
  116200    298.80932   -8706.5238    42.753304   -8749.2772    4494.7453 
  116400    296.02547   -8713.6021    42.354993   -8755.9571    44470.413 
  116600    291.65268   -8702.9513     41.72934   -8744.6807    -24824.61 
  116800     328.6494   -8695.9546    47.022789   -8742.9774    81.955042 
  117000    259.49369   -8703.9944    37.128067   -8741.1225   -49279.637 
  117200    336.15874   -8707.4666    48.097216   -8755.5638    41305.434 
  117400    314.31744   -8695.1757    44.972187   -8740.1478    37027.098 
  117600    216.93376   -8703.7008     31.03864   -8734.7394   -5953.3861 
  117800    269.26873   -8703.6006    38.526669   -8742.1272   -14104.457 
  118000    287.51589   -8704.3779    41.137452   -8745.5153   -15518.852 
  118200    298.73138   -8700.9792    42.742151   -8743.7214    30035.807 
  118400    275.97106    -8705.917     39.48563   -8745.4026   -19596.935 
  118600    195.21008   -8712.8576    27.930441   -8740.7881    -25165.04 
  118800    311.27401   -8698.5022    44.536738   -8743.0389    14369.991 
  119000    238.59869   -8708.6735    34.138434   -8742.8119   -14986.239 
  119200    293.10114    -8703.215    41.936583   -8745.1516   -7651.1365 
  119400    276.78791   -8700.2113    39.602504   -8739.8138    51306.026 
  119600    243.67438   -8708.2955    34.864658   -8743.1601    20028.316 
  119800    287.56347   -8691.9447     41.14426    -8733.089   -26904.163 
  120000    277.91701    -8702.701    39.764055   -8742.4651   -27057.091 
  120200    304.69626    -8702.084      43.5956   -8745.6796   -11901.809 
  120400    246.10011    -8703.457    35.211729   -8738.6688    3967.3485 
  120600    286.38412   -8704.1689     40.97552   -8745.1444   -12476.156 
  120800     306.2925   -8700.9029    43.823988   -8744.7269    12338.049 
  121000    319.71649   -8707.2115    45.744678   -8752.9562   -15350.764 
  121200    297.78671    -8703.568     42.60699    -8746.175    57104.449 
  121400    271.67242   -8694.8621    38.870587   -8733.7327    24163.435 
  121600    321.78116   -8702.3172    46.040089   -8748.3573    25913.652 
  121800    284.53734   -8703.8746    40.711284   -8744.5859    43031.921 
  122000     258.8217   -8698.3526     37.03192   -8735.3846   -29838.746 
  122200      300.997   -8697.7362    43.066315   -8740.8025    9736.4393 
  122400    308.10288   -8712.3391    44.083016   -8756.4221   -16819.629 
  122600    321.34611   -8699.3329    45.977842   -8745.3107    40661.049 
  122800    341.94554   -8698.4015    48.925186   -8747.3266    22345.986 
  123000    239.55513   -8709.3879    34.275281   -8743.6632      14987.1 
  123200    406.09162   -8689.6161    58.103135   -8747.7192    7177.6625 
  123400    261.03385    -8699.814    37.348431   -8737.1625   -51720.943 
  123600    231.36992    -8710.055    33.104149   -8743.1592    10309.466 
  123800    263.88107    -8717.278    37.755808   -8755.0339   -3209.0071 
  124000    313.48881   -8702.5816    44.853629   -8747.4352    3092.9278 
  124200    280.91995   -8695.4141    40.193713   -8735.6078    16890.958 
  124400    288.24473   -8710.4077    41.241733   -8751.6494   -8923.1147 
  124600    299.40634   -8704.6969    42.838725   -8747.5357    6226.4678 
  124800    310.78467   -8699.7322    44.466723    -8744.199   -12249.995 
  125000    307.34965   -8703.7646    43.975245   -8747.7398   -34951.777 
  125200    271.23796   -8705.5975    38.808425   -8744.4059   -46581.565 
  125400    307.52531   -8691.7992    44.000378   -8735.7996   -33616.995 
  125600     321.7446   -8699.9571    46.034858    -8745.992    12660.839 
  125800    311.86685   -8707.4397    44.621561   -8752.0612    27354.812 
  126000    339.02107   -8692.8059    48.506755   -8741.3126    7437.8127 
  126200    335.37079   -8693.2817    47.984477   -8741.2662    12615.404 
  126400    252.78491   -8709.5966    36.168182   -8745.7648     15552.87 
  126600    274.34681   -8704.1466    39.253235   -8743.3998   -18745.675 
  126800    364.59868   -8690.3548    52.166372   -8742.5212   -22955.551 
  127000      289.799   -8707.9565    41.464117   -8749.4207    14440.154 
  127200    323.93677   -8701.4216    46.348511   -8747.7701   -4136.0795 
  127400    342.16399   -8694.6303    48.956441   -8743.5867   -9803.8911 
  127600    274.57343   -8709.1619     39.28566   -8748.4476    15940.997 
  127800    283.19763   -8698.9867      40.5196   -8739.5063   -35454.809 
  128000    343.28584   -8682.0972    49.116954   -8731.2142    44696.963 
  128200    358.32661    -8698.159    51.268971    -8749.428    14295.421 
  128400    310.00058   -8704.3555    44.354537     -8748.71    29221.482 
  128600    296.07641   -8693.5421    42.362282   -8735.9043   -37678.786 
  128800    263.50522   -8701.1738    37.702032   -8738.8758   -8985.1789 
  129000    259.71693   -8706.4673    37.160008   -8743.6273   -25985.228 
  129200    293.15618   -8694.5248    41.944458   -8736.4692     18074.31 
  129400    320.68822   -8693.3846    45.883712   -8739.2683    2929.6818 
  129600    276.66551   -8706.5984    39.584992   -8746.1833   -12166.642 
  129800    320.88302    -8703.335    45.911584   -8749.2466     51823.31 
  130000    307.28435   -8687.2555    43.965902   -8731.2214    28611.035 
  130200    266.83728    -8707.316    38.178779   -8745.4948    -3284.499 
  130400    289.97208   -8705.1346     41.48888   -8746.6235   -14168.322 
  130600    375.19352   -8694.0719     53.68227   -8747.7541     48273.81 
  130800    280.07807   -8702.7666    40.073258   -8742.8398    53492.173 
  131000    319.03916   -8698.7533    45.647766   -8744.4011    33105.195 
  131200    335.41566   -8686.1839    47.990898   -8734.1748    53290.098 
  131400    283.31382   -8700.3712    40.536225   -8740.9074   -5364.2405 
  131600    303.73401   -8707.2505    43.457923   -8750.7085    8708.4008 
  131800    223.00619   -8716.3895    31.907477   -8748.2969    2556.9454 
  132000    315.27082   -8702.5495    45.108597   -8747.6581    1008.7141 
  132200    243.60707   -8704.5747    34.855027   -8739.4297    37407.103 
  132400    296.42222   -8696.6498     42.41176   -8739.0615     4390.081 
  132600    313.26856   -8705.0218    44.822115   -8749.8439    33914.053 
  132800     228.5892   -8709.0257    32.706287    -8741.732   -70269.653 
  133000    314.22505   -8693.2996    44.958969   -8738.2586    26894.154 
  133200    229.05754   -8707.5323    32.773297   -8740.3056   -16266.521 
  133400    300.74478   -8703.4156    43.030228   -8746.4459   -7032.1057 
  133600    251.76177   -8710.2382    36.021792     -8746.26    28724.638 
  133800    229.03522   -8711.3506    32.770103   -8744.1207    5671.0916 
  134000    295.43828   -8698.6899    42.270979   -8740.9608   -16033.913 
  134200    227.26257   -8703.6642    32.516474   -8736.1807    24210.783 
  134400     257.7333   -8709.2652    36.876193   -8746.1414   -242.47802 
  134600    302.37671   -8693.2779    43.263721   -8736.5416    -8900.688 
  134800    273.24436   -8707.4254    39.095498   -8746.5209    26870.973 
  135000    309.02431   -8709.8765    44.214852   -8754.0913   -34338.165 
  135200    287.34328   -8695.7374    41.112755   -8736.8502   -13583.943 
  135400    377.37783   -8686.9214    53.994798   -8740.9162   -20356.504 
  135600    284.30858    -8704.883    40.678554   -8745.5616   -10638.574 
  135800    240.50918    -8708.402    34.411785   -8742.8138     65725.26 
  136000    330.19415   -8692.9561     47.24381   -8740.1999   -14592.987 
  136200    293.22304   -8708.7348    41.954025   -8750.6888   -13367.097 
  136400    274.37408      -8702.4    39.257137   -8741.6572   -11717.283 
  136600    337.76001   -8696.4354    48.326325   -8744.7617    64168.621 
  136800     330.8969   -8703.7473    47.344359   -8751.0917   -3432.2613 
  137000    315.97343   -8698.8353    45.209126   -8744.0445   -28197.323 
  137200    303.37244   -8693.3921     43.40619   -8736.7982    37114.346 
  137400    226.17554   -8709.6211    32.360943    -8741.982    5015.8628 
  137600    322.73705   -8701.6761    46.176857    -8747.853    -51370.12 
  137800    267.42144   -8704.7834    38.262361   -8743.0458    28158.015 
  138000    332.69956    -8700.624    47.602281   -8748.2263    1633.4312 
  138200    277.32056    -8713.016    39.678716   -8752.6947   -34868.069 
  138400    312.42801   -8697.9075    44.701851   -8742.6094    26876.241 
  138600    318.70305   -8702.7382    45.599677   -8748.3378    36635.858 
  138800    292.51065   -8702.1159    41.852097    -8743.968   -27933.893 
  139000     366.4957   -8690.5948    52.437796   -8743.0325   -19049.258 
  139200    297.71835   -8709.2753    42.597208   -8751.8725   -17379.075 
  139400    306.05975   -8703.7551    43.790687   -8747.5457   -59702.044 
  139600    294.18287   -8699.0432    42.091356   -8741.1346   -39684.913 
  139800    291.14605    -8703.368    41.656852   -8745.0249   -27487.848 
  140000    368.21968   -8699.0602     52.68446   -8751.7446   -85.262888 
  140200    238.97189   -8714.7789     34.19183   -8748.9708   -21362.084 
  140400     301.2379   -8704.6651    43.100782   -8747.7659    28161.533 
  140600    311.18757   -8702.0999     44.52437   -8746.6242    5290.5504 
  140800    319.71665   -8690.7594    45.744702   -8736.5041    15451.972 
  141000    265.79352   -8704.5001     38.02944   -8742.5296   -16944.086 
  141200    296.92429   -8708.5153    42.483595   -8750.9989    3427.2245 
  141400    339.17129   -8691.9089    48.528249   -8740.4371    22808.289 
  141600    291.68238   -8698.1449    41.733589   -8739.8785    592.07645 
  141800    298.61191   -8703.6996    42.725059   -8746.4247    537.35016 
  142000    344.97553   -8698.5332    49.358714   -8747.8919    11736.473 
  142200    324.38414   -8694.2259    46.412521   -8740.6384   -9084.2834 
  142400    282.20764   -8709.5495    40.377954   -8749.9275   -54690.135 
  142600    348.73008   -8700.4724     49.89591   -8750.3683    29438.477 
  142800    341.91533   -8687.2454    48.920863   -8736.1662   -11195.861 
  143000    267.12398   -8707.2465    38.219801   -8745.4663    -7484.269 
  143200    314.28745   -8699.5665    44.967897   -8744.5344    37686.228 
  143400    323.60254    -8694.743     46.30069   -8741.0437   -18342.896 
  143600    287.70624   -8709.5455    41.164687   -8750.7102    47643.337 
  143800    312.89702   -8695.0367    44.768955   -8739.8056   -23601.708 
  144000    325.69912   -8695.8238    46.600666   -8742.4245   -1471.5489 
  144200    315.79291   -8702.3775    45.183296   -8747.5608   -8392.3613 
  144400    321.51246   -8707.1439    46.001644   -8753.1456   -35847.805 
  144600    346.62771    -8698.253    49.595106   -8747.8481      45051.9 
  144800    247.03595   -8700.4699    35.345628   -8735.8155   -26067.857 
  145000    281.56888   -8712.4432     40.28656   -8752.7298   -20510.013 
  145200    325.71235   -8691.5589     46.60256   -8738.1615    26689.634 
  145400    354.27699    -8698.476    50.689556   -8749.1655    1906.3564 
  145600    293.09845     -8706.88    41.936199   -8748.8162   -25747.631 
  145800    278.79992   -8707.3656    39.890381    -8747.256    8946.5556 
  146000    360.25464   -8690.6382    51.544831   -8742.1831    11988.644 
  146200    316.72434   -8699.9274    45.316564   -8745.2439    25088.228 
  146400    313.12186   -8705.6031    44.801126   -8750.4042   -30731.883 
  146600    342.06722   -8692.6173    48.942596   -8741.5599     28766.49 
  146800    283.22608   -8702.6792    40.523672   -8743.2029    14696.638 
  147000    321.34396   -8705.2205    45.977535    -8751.198   -11591.359 
  147200    336.11041   -8689.7227    48.090301    -8737.813   -26840.874 
  147400    307.22229   -8688.1996    43.957022   -8732.1567   -42143.153 
  147600    326.01678   -8708.1689    46.646116    -8754.815    25320.847 
  147800    300.73009   -8709.2034    43.028125   -8752.2316    9201.3127 
  148000    337.03069   -8691.0838    48.221974   -8739.3058     8877.605 
  148200    340.12574   -8704.9856    48.664811   -8753.6504    8712.0339 
  148400      267.132   -8705.2805    38.220948   -8743.5014    -28893.67 
  148600    365.53828   -8684.3638    52.300808   -8736.6646    20583.288 
  148800     283.8683   -8698.9089    40.615558   -8739.5245    35483.674 
  149000    266.46767   -8703.8703    38.125897   -8741.9962   -27369.504 
  149200     256.7587   -8718.0403    36.736747   -8754.7771   -19736.023 
  149400    249.05289   -8706.5346     35.63421   -8742.1688   -39795.336 
  149600    264.25123   -8702.6666     37.80877   -8740.4754    15995.942 
  149800    294.68909   -8709.6337    42.163785   -8751.7975    24565.236 
  150000    301.77619   -8703.4019    43.177801   -8746.5797   -11925.493 
  150200    324.31177   -8694.3432    46.402166   -8740.7453    10695.229 
  150400     298.6214   -8708.0572    42.726416   -8750.7836   -14204.661 
  150600    254.56866   -8711.7057    36.423399   -8748.1291    -28760.73 
  150800     291.3257    -8695.401    41.682555   -8737.0835    29553.301 
  151000    327.71351   -8703.5824    46.888882   -8750.4712    14190.598 
  151200    299.47894   -8713.4254    42.849113   -8756.2745    24148.624 
  151400    298.47669   -8705.9851    42.705711   -8748.6908    17760.162 
  151600    322.40011   -8693.8494    46.128648   -8739.9781   -9665.4898 
  151800    255.35278   -8705.3924     36.53559    -8741.928   -20610.923 
  152000    303.61052   -8704.7134    43.440254   -8748.1537   -399.83117 
  152200    260.41321   -8699.3836    37.259631   -8736.6432   -2742.6243 
  152400    268.34431   -8714.6973    38.394404   -8753.0917   -17030.766 
  152600    310.55636   -8706.9635    44.434056   -8751.3975    12283.609 
  152800    322.54318   -8698.5553    46.149118   -8744.7044    33114.418 
  153000    315.15832   -8694.3455      45.0925    -8739.438   -14567.643 
  153200    284.01641   -8707.9569     40.63675   -8748.5936    6017.2963 
  153400    293.41378   -8698.7611    41.981315   -8740.7424    29027.312 
  153600    363.97134   -8691.0493    52.076612   -8743.1259    5337.4846 
  153800    251.73541   -8706.1185    36.018021   -8742.1366    41871.268 
  154000    304.84373   -8703.0232      43.6167   -8746.6399    33049.203 
  154200    351.79994   -8684.9158    50.335142   -8735.2509   -25505.511 
  154400    320.83898   -8699.0404    45.905282   -8744.9457   -1237.7085 
  154600    327.83026   -8706.6374    46.905587    -8753.543    27949.808 
  154800    271.59869   -8703.1026    38.860037   -8741.9626    24886.546 
  155000    260.04508   -8693.3314     37.20696   -8730.5383    5690.1374 
  155200    279.01234   -8708.7316    39.920773   -8748.6524   -45807.848 
  155400    278.94015   -8705.6859    39.910444   -8745.5964    76589.123 
  155600    364.43673   -8688.7113      52.1432   -8740.8545   -3618.3025 
  155800    278.11019   -8708.1175    39.791695   -8747.9092   -25900.177 
  156000    292.56126   -8704.7433    41.859338   -8746.6027   -50477.072 
  156200    326.72471   -8689.6671    46.747407   -8736.4145   -12475.603 
  156400    295.92073   -8699.1216    42.340007   -8741.4616   -4889.1129 
  156600    251.83815    -8715.261    36.032721   -8751.2938   -17995.252 
  156800    271.65089   -8707.4095    38.867506    -8746.277    5831.1668 
  157000    372.01967   -8703.2204    53.228158   -8756.4485   -3668.0953 
  157200    264.79944   -8712.4847    37.887207   -8750.3719    22191.129 
  157400    361.88022   -8696.5232    51.777417   -8748.3006    45725.794 
  157600    305.41176   -8700.4516    43.697974   -8744.1496    5084.3701 
  157800    241.34498   -8714.4341     34.53137   -8748.9655   -23023.017 
  158000    270.80514   -8694.7175    38.746497    -8733.464   -19491.585 
  158200    247.06814   -8704.3665    35.350233   -8739.7167    19039.862 
  158400    257.87398   -8710.7562    36.896321   -8747.6525    18370.151 
  158600     310.1187   -8702.6369    44.371438   -8747.0083    14549.496 
  158800    323.83518   -8695.4298    46.333976   -8741.7638   -6167.4467 
  159000    312.57874   -8696.9955    44.723417   -8741.7189    -64341.21 
  159200    284.70123   -8707.8235    40.734734   -8748.5582   -14844.083 
  159400    305.82029   -8692.4592    43.756425   -8736.2157    27715.497 
  159600    286.35728   -8699.8073     40.97168    -8740.779   -28279.497 
  159800    325.15136   -8702.4323    46.522293   -8748.9546   -9072.3852 
  160000    300.35477   -8702.2856    42.974425     -8745.26    27745.688 
  160200    293.18201   -8708.5981    41.948155   -8750.5462   -36402.618 
  160400    312.03019   -8697.1998     44.64493   -8741.8447   -28699.759 
  160600    324.09677   -8700.3128    46.371404   -8746.6842   -17652.752 
  160800    281.53626   -8706.6354    40.281894   -8746.9173    -28674.25 
  161000    312.41896   -8698.2446    44.700555   -8742.9452   -37373.526 
  161200    266.24322    -8703.728    38.093782   -8741.8218   -48969.996 
  161400    270.20112   -8716.5416    38.660074   -8755.2016   -23528.287 
  161600    328.73394   -8705.3132    47.034885   -8752.3481   -21064.281 
  161800    331.13211   -8698.7426    47.378013   -8746.1206    35525.303 
  162000     326.4197   -8692.3093    46.703765    -8739.013    16822.606 
  162200    279.76915   -8707.5678    40.029058   -8747.5969   -16819.906 
  162400    282.77095   -8692.1917    40.458552   -8732.6502   -19188.376 
  162600    297.40812    -8695.632    42.552821   -8738.1848    -21222.72 
  162800    249.80152   -8707.4561    35.741323   -8743.1974   -27274.143 
  163000    333.83092   -8694.1948    47.764155    -8741.959    9156.0507 
  163200    321.35051   -8700.1125    45.978472    -8746.091   -29144.169 
  163400    290.11843   -8706.9108     41.50982   -8748.4206   -21305.469 
  163600    298.22464   -8698.2399    42.669649   -8740.9096    23328.638 
  163800    247.44984   -8705.9682    35.404846   -8741.3731   -24624.582 
  164000    363.85372   -8702.5183    52.059784   -8754.5781   -3964.7082 
  164200    340.88204   -8688.9494    48.773021   -8737.7224   -18592.943 
  164400    276.29077   -8710.1181    39.531374   -8749.6495    6266.9181 
  164600    284.29009   -8709.0986    40.675908   -8749.7745   -5012.5574 
  164800    348.80873   -8696.7741    49.907163   -8746.6813   -14042.201 
  165000    244.09895   -8714.5572    34.925404   -8749.4826   -30639.051 
  165200     327.5956   -8706.4962    46.872012   -8753.3682   -37680.368 
  165400    269.58862   -8697.6787    38.572438   -8736.2511    14231.915 
  165600    384.66092   -8692.4094    55.036854   -8747.4462   -29959.271 
  165800    252.53843   -8708.0324    36.132916   -8744.1653    251.85328 
  166000    337.16795    -8696.366    48.241613   -8744.6077    3294.8131 
  166200    284.14722   -8704.2277    40.655467   -8744.8832    38860.442 
  166400    339.29651   -8701.4344    48.546165   -8749.9806    -16267.89 
  166600    312.49889   -8690.2365    44.711992   -8734.9485   -22220.224 
  166800    309.25476   -8700.9842    44.247825    -8745.232   -18447.392 
  167000    277.67275   -8705.8298    39.729106   -8745.5589    18552.406 
  167200    383.70748    -8683.808    54.900437   -8738.7085   -3953.2023 
  167400    353.87753   -8696.1426    50.632402    -8746.775    1861.4631 
  167600    314.06248   -8703.9528    44.935708   -8748.8885    16423.713 
  167800    266.36412   -8716.9012    38.111081   -8755.0123   -12980.789 
  168000    351.86615   -8704.5104    50.344616   -8754.8551   -3211.3306 
  168200    335.45206   -8702.4447    47.996106   -8750.4408   -7622.7644 
  168400    250.59429   -8716.5317    35.854751   -8752.3865   -15274.009 
  168600    333.88742   -8701.0122    47.772239   -8748.7845   -2749.5975 
  168800    279.77846   -8700.7075     40.03039   -8740.7379   -27335.644 
  169000    270.12254   -8705.8017    38.648831   -8744.4506   -8351.4102 
  169200    301.23384   -8708.7488    43.100201    -8751.849    6034.9397 
  169400    320.02325   -8693.5882    45.788569   -8739.3767   -8430.5375 
  169600    308.45054   -8694.5049    44.132759   -8738.6377    46986.296 
  169800    231.88533   -8713.3372    33.177894   -8746.5151    18469.919 
  170000    343.05376   -8699.9348    49.083748   -8749.0186   -5864.3898 
  170200    324.34362   -8702.0857    46.406723   -8748.4924    354.17823 
  170400    275.85977   -8712.2058    39.469707   -8751.6755   -7227.8855 
  170600    348.19391   -8690.9089    49.819196    -8740.728    2429.9158 
  170800    334.75838   -8698.4544    47.896855   -8746.3513   -26179.317 
  171000    277.75278   -8710.9976    39.740557   -8750.7381    19091.283 
  171200    312.65984   -8702.9487     44.73502   -8747.6837    22221.955 
  171400    241.93826   -8703.6201    34.616256   -8738.2364   -3696.2675 
  171600    345.87748   -8687.0328    49.487763   -8736.5206   -15618.189 
  171800     284.9368   -8695.8011    40.768439   -8736.5695   -5124.8845 
  172000    343.31713   -8701.6146    49.121431    -8750.736   -18499.441 
  172200    254.31078   -8717.5561    36.386502   -8753.9426    5347.8921 
  172400    333.71387   -8703.1631    47.747408   -8750.9105   -15801.613 
  172600    245.65635    -8703.049    35.148236   -8738.1973   -54547.852 
  172800    290.19931   -8699.2444    41.521392   -8740.7658    18721.655 
  173000    411.88586    -8689.317    58.932168   -8748.2491    45954.518 
  173200    268.93284   -8706.2677     38.47861   -8744.7463    33248.189 
  173400    322.39508   -8699.1883    46.127927   -8745.3163    53975.174 
  173600    304.32851    -8696.818    43.542984    -8740.361    1009.9268 
  173800    297.96489   -8710.4469    42.632483   -8753.0794   -1888.9756 
  174000    298.79781   -8696.9312    42.751657   -8739.6829   -8083.4272 
  174200    296.42261   -8700.1353    42.411815   -8742.5471   -13634.059 
  174400    270.42948   -8705.7938    38.692748   -8744.4865   -2501.5971 
  174600    293.14703   -8706.9601     41.94315   -8748.9033   -11357.324 
  174800    311.31868   -8696.9007    44.543128   -8741.4438   -20758.076 
  175000    269.76809   -8699.8961    38.598116   -8738.4943    9608.6849 
  175200    233.40002   -8707.4098    33.394615   -8740.8044    10508.623 
  175400    322.30268   -8701.2943    46.114707    -8747.409    3107.7685 
  175600    267.59742   -8712.6558     38.28754   -8750.9433   -6259.1845 
  175800    252.41685   -8705.9814     36.11552   -8742.0969   -9345.0665 
  176000     307.6869   -8697.6549    44.023498   -8741.6784   -13440.858 
  176200    242.01126   -8705.1312    34.626701    -8739.758    21437.584 
  176400     241.4988    -8712.843    34.553378   -8747.3964   -1369.9911 
  176600    338.02085   -8697.2023    48.363645   -8745.5659    -9930.466 
  176800    293.29222   -8710.9141    41.963923    -8752.878   -14058.104 
  177000    330.78303   -8699.1888    47.328066   -8746.5168   -7848.0132 
  177200    288.93993   -8697.6152    41.341203   -8738.9564   -28150.403 
  177400    319.68121   -8703.9192     45.73963   -8749.6588   -17371.155 
  177600    281.41167   -8699.7278    40.264067   -8739.9918    44.116938 
  177800    352.62871   -8695.0214    50.453722   -8745.4751   -23676.903 
  178000    270.32371   -8710.5064    38.677614    -8749.184   -16895.782 
  178200    321.04001   -8695.8391    45.934046   -8741.7731     19407.63 
  178400    304.89944   -8702.8539    43.624671   -8746.4785    18034.234 
  178600    236.38487   -8719.7307    33.821683   -8753.5524    18408.852 
  178800    302.43695     -8707.85    43.272341   -8751.1223    1068.0433 
  179000    326.62834   -8698.9503    46.733618   -8745.6839    3498.2968 
  179200    311.35192   -8701.0368    44.547885   -8745.5847   -26623.191 
  179400    240.91029   -8713.0473    34.469175   -8747.5164   -11469.735 
  179600    271.08621   -8699.2049    38.786713   -8737.9916    16137.168 
  179800    251.05831   -8697.4034    35.921143   -8733.3245    17546.957 
  180000    281.39939   -8712.9148     40.26231   -8753.1771     596.9152 
  180200     302.4111   -8699.2166    43.268643   -8742.4852   -44712.162 
  180400    290.97221   -8700.7695    41.631979   -8742.4015    8880.9074 
  180600    322.98542   -8699.5538    46.212393   -8745.7662    50389.529 
  180800    347.74069   -8679.5122     49.75435   -8729.2666    12976.016 
  181000     314.0268   -8697.0951    44.930603   -8742.0258    63366.376 
  181200    303.23712   -8706.5599    43.386828   -8749.9468   -30930.328 
[...]
  950000    344.72556   -8688.5262    49.322948   -8737.8492    8743.7681 
  950200     244.5666   -8709.9905    34.992316   -8744.9828    3939.4641 
  950400    334.14707   -8703.4802     47.80939   -8751.2896   -6514.2564 
  950600    358.23497   -8689.4919     51.25586   -8740.7478   -4884.3987 
  950800    290.29849   -8700.2398    41.535583   -8741.7754    10973.851 
  951000    309.96074   -8706.8773    44.348836   -8751.2261     11357.21 
  951200    322.76261   -8695.6322    46.180513   -8741.8127   -14609.683 
  951400    279.11669   -8703.2038    39.935704   -8743.1395      7116.09 
  951600    283.44577   -8714.5808    40.555103   -8755.1359   -27339.652 
  951800    255.69125    -8696.634    36.584018    -8733.218    2656.3107 
  952000    361.36533   -8700.8363    51.703747   -8752.5401   -11060.205 
  952200    257.19682   -8708.8298    36.799434   -8745.6292   -25801.272 
  952400    331.60843   -8706.4496    47.446164   -8753.8958   -22151.452 
  952600    339.86385   -8695.6233     48.62734   -8744.2506   -26366.758 
  952800    264.63383   -8711.9537    37.863512   -8749.8173    14694.216 
  953000    327.42293   -8703.8941    46.847307   -8750.7414   -157.01263 
  953200    275.81813   -8702.2583     39.46375   -8741.7221   -14635.471 
  953400    316.72021    -8699.638    45.315974    -8744.954    2678.9968 
  953600    266.09035   -8706.0233     38.07191   -8744.0952   -2136.4829 
  953800    244.35175   -8711.6672    34.961575   -8746.6288    80139.906 
  954000    319.59353   -8696.1484    45.727086   -8741.8755    35637.679 
  954200     296.4671   -8700.6605    42.418182   -8743.0787    3584.9696 
  954400    290.70008   -8705.8004    41.593042   -8747.3934   -24479.818 
  954600    374.64306   -8687.5407    53.603511   -8741.1443    16590.663 
  954800    340.88954   -8692.1452    48.774095   -8740.9193    34956.387 
  955000    296.57898   -8704.2879    42.434188   -8746.7221   -40941.816 
  955200    281.19595   -8705.1575    40.233202   -8745.3907   -68347.485 
  955400    341.69716   -8691.4035    48.889648   -8740.2932    25389.731 
  955600    278.35013   -8701.5084    39.826025   -8741.3344    2856.1712 
  955800    345.27397   -8705.3884    49.401413   -8754.7899   -24078.806 
  956000    268.07736   -8702.2658    38.356209    -8740.622    -34908.78 
  956200    301.08223    -8704.994    43.078509   -8748.0725    11233.855 
  956400    254.74782    -8716.704    36.449033    -8753.153    30460.483 
  956600    281.13613   -8698.7925    40.224643   -8739.0172   -47604.414 
  956800    303.20831   -8698.0089    43.382706   -8741.3916    10227.623 
  957000    252.68867   -8716.2755    36.154413   -8752.4299    10776.629 
  957200    320.43771   -8701.5321    45.847869     -8747.38   -15843.139 
  957400    289.01812   -8702.0301    41.352389   -8743.3824   -13119.619 
  957600    329.91924   -8699.5401    47.204477   -8746.7446    32311.646 
  957800    316.60587   -8698.8279    45.299614   -8744.1275   -25928.112 
  958000    275.61146   -8704.7381     39.43418   -8744.1722   -26293.702 
  958200    382.93978   -8684.1034    54.790595    -8738.894    29270.123 
  958400    284.05016   -8701.2378    40.641579   -8741.8793    43747.605 
  958600    258.99045    -8709.012    37.056064   -8746.0681    25137.602 
  958800    261.60316   -8704.2987    37.429888   -8741.7285   -27017.927 
  959000    346.69103   -8695.6475    49.604166   -8745.2517    37183.237 
  959200    299.70034   -8710.7943     42.88079   -8753.6751   -8092.5949 
  959400    268.04296   -8716.0495    38.351287   -8754.4007    70128.693 
  959600    281.91962   -8701.9769    40.336745   -8742.3137   -25362.178 
  959800    323.83323   -8700.2789    46.333697   -8746.6126    44914.002 
  960000    260.68728   -8712.6873    37.298844   -8749.9861    36664.125 
  960200    296.47865   -8703.8509    42.419834   -8746.2708    16134.304 
  960400     329.9305   -8695.7298    47.206088   -8742.9359   -13155.544 
  960600    261.66459   -8704.5744    37.438676   -8742.0131   -7864.7962 
  960800    284.98149   -8703.5334    40.774833   -8744.3083   -20800.628 
  961000    344.27437   -8696.0014    49.258393   -8745.2598       -24549 
  961200    336.00335   -8705.6447    48.074984   -8753.7197   -2937.3987 
  961400    333.65603   -8700.3846    47.739132   -8748.1237   -24012.193 
  961600    264.00774   -8708.5246    37.773932   -8746.2985   -9249.6008 
  961800     358.6009   -8693.4813    51.308216   -8744.7895    54471.285 
  962000    298.47035   -8705.6672    42.704804    -8748.372   -29993.751 
  962200    319.68867   -8702.6216    45.740698   -8748.3623    2757.1745 
  962400    356.78135   -8695.9443    51.047877   -8746.9922    30010.872 
  962600    259.78744   -8713.6675    37.170096   -8750.8376    28538.365 
  962800    309.49037   -8703.3757    44.281536   -8747.6572    11843.266 
  963000    300.95217   -8703.4258      43.0599   -8746.4857   -15357.192 
  963200    346.75436   -8693.9461    49.613226   -8743.5593    28281.935 
  963400     294.7427   -8702.5083    42.171457   -8744.6798   -31760.145 
  963600    327.55217   -8704.9592    46.865798    -8751.825     25492.09 
  963800    310.24762   -8692.5325    44.389882   -8736.9223    38825.067 
  964000    296.51893   -8693.6097    42.425597   -8736.0353    2939.1405 
  964200     286.6851   -8704.3631    41.018583   -8745.3817    -51327.34 
  964400    312.88219   -8702.5619    44.766834   -8747.3287    34859.761 
  964600    228.94441   -8708.4814     32.75711   -8741.2385    17367.592 
  964800     379.9684   -8694.4279    54.365453   -8748.7934   -20312.355 
  965000    310.40175   -8706.0636    44.411935   -8750.4755   -37907.281 
  965200    335.76882   -8693.6901    48.041427   -8741.7316    20317.199 
  965400    282.17355   -8698.8714    40.373076   -8739.2445    17847.326 
  965600    277.36893   -8706.8615    39.685636   -8746.5472   -24834.267 
  965800    358.86127   -8687.0096    51.345469    -8738.355    10587.035 
  966000     299.6416   -8696.4609    42.872385   -8739.3333    42792.096 
  966200    342.14193   -8703.3825    48.953285   -8752.3358    13004.492 
  966400    288.56863   -8716.3511    41.288078   -8757.6392   -22109.802 
  966600    287.70042    -8703.157    41.163855   -8744.3209   -65863.343 
  966800    341.83489   -8697.9101    48.909354   -8746.8195    33004.242 
  967000     284.4223   -8707.0708    40.694825   -8747.7657   -1735.4092 
  967200    339.99219   -8690.1746    48.645702   -8738.8203   -45225.976 
  967400    305.51675   -8701.0465    43.712995   -8744.7595    16875.049 
  967600     306.4559   -8702.4758    43.847367   -8746.3232   -29505.072 
  967800    346.21553    -8692.943    49.536131   -8742.4791    -17328.37 
  968000    283.96695   -8694.4662    40.629674   -8735.0959   -20512.104 
  968200    294.20423   -8707.6742    42.094412   -8749.7687    42676.331 
  968400    278.66901   -8708.7081     39.87165   -8748.5797    14436.235 
  968600    339.87994   -8693.8167    48.629642   -8742.4464   -10689.477 
  968800    295.01449   -8706.2331    42.210343   -8748.4434    42481.191 
  969000    266.74754   -8706.3334     38.16594   -8744.4993     2861.017 
  969200    271.04392   -8702.4086    38.780661   -8741.1892   -20818.668 
  969400    282.75822   -8711.6369     40.45673   -8752.0936    39234.779 
  969600    260.00173   -8713.3324    37.200757   -8750.5331   -20634.639 
  969800    275.48883   -8702.7583    39.416634    -8742.175    52679.191 
  970000    342.38968   -8698.8312    48.988733   -8747.8199   -35814.389 
  970200     389.4355   -8684.8356    55.719996   -8740.5556    13656.954 
  970400    276.60066   -8702.9091    39.575713   -8742.4848   -2065.2996 
  970600    315.03949   -8695.8967    45.075498   -8740.9722    7427.8312 
  970800    299.12846   -8700.5522    42.798966   -8743.3512   -37034.372 
  971000    285.81465   -8700.9629    40.894041    -8741.857    40073.429 
  971200    377.44263   -8695.3409     54.00407    -8749.345   -7952.2267 
  971400    290.26344   -8709.5599    41.530568   -8751.0905    12348.322 
  971600    353.57133   -8693.6742     50.58859   -8744.2628     1613.562 
  971800    307.48682   -8695.1246    43.994871   -8739.1195   -61324.192 
  972000    268.83963    -8706.343    38.465273   -8744.8083   -19601.964 
  972200    352.04473   -8703.6986    50.370167   -8754.0687    28088.393 
  972400    271.79219   -8691.3987    38.887723   -8730.2864    86492.733 
  972600    294.70027   -8709.5326    42.165385    -8751.698   -33353.632 
  972800    237.01446   -8706.0804    33.911765   -8739.9921   -13013.963 
  973000    338.05245    -8690.061    48.368167   -8738.4292   -26662.147 
  973200    269.84826   -8705.2417    38.609588   -8743.8513    -19598.99 
  973400    294.91515   -8706.1662    42.196129   -8748.3623   -20470.027 
  973600    363.67745   -8691.5722    52.034563   -8743.6068   -29803.902 
  973800    289.74237   -8702.8601    41.456015   -8744.3161   -23123.467 
  974000    305.38479   -8704.4742    43.694115   -8748.1683   -2971.9606 
  974200    303.16575   -8695.2029    43.376617   -8738.5795    58000.633 
  974400    273.14349   -8701.6225    39.081066   -8740.7035    24106.272 
  974600    348.89363   -8700.1677    49.919311    -8750.087    36988.083 
  974800    269.44999   -8712.8826    38.552603   -8751.4352    22182.246 
  975000    235.16991   -8712.1226    33.647847   -8745.7704    10426.358 
  975200    308.33616   -8702.1108    44.116393   -8746.2272    32690.943 
  975400     352.9435   -8691.8187    50.498762   -8742.3175    30979.619 
  975600    245.11959   -8708.2358    35.071437   -8743.3072   -23982.126 
  975800    322.04969   -8705.4414     46.07851   -8751.5199   -33858.846 
  976000    294.38866    -8693.182    42.120801   -8735.3028    51144.121 
  976200    306.96975   -8706.4476    43.920888   -8750.3685   -30253.099 
  976400    230.59403   -8707.0509    32.993136    -8740.044   -2021.9663 
  976600    289.67593   -8697.7091    41.446508   -8739.1556   -21109.812 
  976800     274.1145   -8702.5345    39.219996   -8741.7545   -27694.006 
  977000    321.35878   -8702.5644    45.979655    -8748.544    63540.975 
  977200    294.63763   -8701.8733    42.156423   -8744.0298    21089.941 
  977400    372.20349   -8689.7978     53.25446   -8743.0523   -28457.685 
  977600    284.35639   -8705.5298    40.685394   -8746.2152    -23757.06 
  977800    314.56523   -8705.1056    45.007642   -8750.1132    -4955.614 
  978000    301.65248   -8702.1342      43.1601   -8745.2943    43383.658 
  978200    355.27521    -8693.756     50.83238   -8744.5884    22811.846 
  978400    281.39262   -8706.8938    40.261341   -8747.1552   -27488.711 
  978600    307.58291   -8699.9583    44.008619   -8743.9669    37955.372 
  978800    332.07005   -8684.4529    47.512212   -8731.9651    68736.095 
  979000    299.01437   -8702.1293    42.782641   -8744.9119    48753.218 
  979200    267.23735   -8705.1804    38.236022   -8743.4164   -16191.586 
  979400    262.19019   -8715.6024    37.513879   -8753.1163   -16678.659 
  979600    287.53342   -8697.3674     41.13996   -8738.5073    9513.7997 
  979800    270.35109   -8704.7813    38.681531   -8743.4628    -36003.31 
  980000    301.28821   -8716.3783    43.107981   -8759.4863    2448.9203 
  980200    269.55242   -8704.4586    38.567259   -8743.0259    23253.598 
  980400    261.82733   -8697.9189    37.461962   -8735.3809    16476.441 
  980600    342.95122   -8692.6332    49.069078   -8741.7023   -1395.6654 
  980800    292.71559   -8707.8132     41.88142   -8749.6946   -19004.694 
  981000    348.40001   -8703.6386    49.848684   -8753.4873   -5791.3198 
  981200    285.65039   -8697.8687    40.870539   -8738.7393   -21238.354 
  981400    265.90272   -8707.5391    38.045064   -8745.5841    -13191.34 
  981600    344.25703   -8695.0954    49.255911   -8744.3513      42765.7 
  981800    304.23217   -8698.6364    43.529199   -8742.1656     2534.216 
  982000    313.86974   -8704.2385    44.908132   -8749.1467   -1144.3558 
  982200    287.61544   -8700.3814    41.151696   -8741.5331     4430.906 
  982400    260.31109     -8701.43     37.24502    -8738.675    48576.295 
  982600    287.79719   -8701.0204      41.1777   -8742.1981    -15759.15 
  982800    200.40155   -8715.8744    28.673229   -8744.5476   -51339.295 
  983000    308.33291   -8699.6256    44.115928   -8743.7415    11718.929 
  983200    280.82891   -8701.0026    40.180687   -8741.1833    1741.9645 
  983400    229.78908   -8718.5418    32.877965   -8751.4197   -9530.5666 
  983600    276.21856   -8708.3969    39.521043   -8747.9179   -30878.466 
  983800    287.38199   -8698.3074    41.118294   -8739.4257   -13978.654 
  984000    290.83446   -8697.6456    41.612269   -8739.2578   -64654.179 
  984200    283.92705   -8711.2135    40.623965   -8751.8374       -15552 
  984400    328.19884   -8695.8305    46.958323   -8742.7889   -19574.374 
  984600    280.19485    -8699.982    40.089966    -8740.072   -17767.743 
  984800    317.37725   -8700.5953    45.409982   -8746.0053    15658.508 
  985000    272.25027   -8705.1008    38.953265   -8744.0541   -15771.069 
  985200    308.21856   -8708.7133    44.099567   -8752.8129    31848.741 
  985400    346.97324   -8695.6018    49.644544   -8745.2463    19137.384 
  985600    301.67272   -8708.0279    43.162995   -8751.1908   -31153.987 
  985800    285.54696   -8718.0665    40.855741   -8758.9222   -25761.027 
  986000    328.54326   -8703.2612    47.007602   -8750.2688    2976.5676 
  986200    362.19805   -8694.0559    51.822892   -8745.8788   -9506.5337 
  986400     285.6729    -8710.835     40.87376   -8751.7088   -24191.592 
  986600    309.46372   -8704.9263    44.277723   -8749.2041   -16385.846 
  986800    337.01469   -8696.8121    48.219685   -8745.0317    20758.011 
  987000    330.08534   -8704.3272    47.228242   -8751.5554    7531.9047 
  987200    301.88852   -8703.7242    43.193872    -8746.918   -14496.047 
  987400    323.82611   -8690.7022    46.332678   -8737.0349    25315.768 
  987600    260.41233   -8706.3608    37.259505   -8743.6203   -18969.159 
  987800    309.03472   -8700.0382    44.216342   -8744.2545    27308.601 
  988000    369.14785   -8683.3613    52.817262   -8736.1785    7929.7755 
  988200    320.66661   -8703.8418     45.88062   -8749.7224    6369.9597 
  988400    318.44489   -8703.3388    45.562739   -8748.9016   -21717.341 
  988600    431.82906   -8687.9749    61.785619   -8749.7605     -261.452 
  988800    278.51124   -8705.2294    39.849077   -8745.0785    13603.555 
  989000    283.40679    -8703.618    40.549526   -8744.1676    155.92638 
  989200    323.73799   -8687.9639    46.320069    -8734.284   -46959.758 
  989400    369.38647   -8695.0896    52.851404    -8747.941   -22045.786 
  989600    302.85226   -8705.3514    43.331762   -8748.6832   -9175.4571 
  989800    398.64477   -8692.6845    57.037649   -8749.7222   -6121.2568 
  990000    283.32865   -8703.5141    40.538347   -8744.0525    -15587.34 
  990200    347.05761   -8705.0691    49.656615   -8754.7257    23448.961 
  990400    356.78657   -8689.3499    51.048624   -8740.3985    54169.093 
  990600     352.0596    -8693.327    50.372295   -8743.6993    6371.1384 
  990800    279.10301    -8706.945    39.933747   -8746.8788   -5440.2638 
  991000    318.55034   -8693.5827    45.577826   -8739.1605   -43171.506 
  991200    264.84948   -8704.0909    37.894368   -8741.9853   -20543.299 
  991400    266.20844   -8707.3326    38.088807   -8745.4214     9213.474 
  991600      304.459   -8701.7433    43.561654    -8745.305   -15727.149 
  991800    373.23105   -8688.3456    53.401482    -8741.747   -298.67611 
  992000    314.44311    -8703.937    44.990168   -8748.9271   -18671.517 
  992200    297.67122        -8704    42.590465   -8746.5905    23900.257 
  992400    342.07007   -8690.8676    48.943003   -8739.8106   -23798.974 
  992600    342.45713   -8701.1643    48.998383   -8750.1627     1806.372 
  992800     270.2621   -8707.6633    38.668799   -8746.3321    16686.895 
  993000    306.64117   -8691.4001    43.873876    -8735.274   -9441.1158 
  993200    270.06411   -8701.6665    38.640471    -8740.307   -9701.4482 
  993400    305.24859   -8701.1956    43.674626   -8744.8702   -19833.434 
  993600    282.90769   -8706.7441    40.478116   -8747.2222    27378.998 
  993800    303.02069   -8707.1658    43.355862   -8750.5217    6740.6492 
  994000    278.41989   -8693.8428    39.836007   -8733.6789   -63816.189 
  994200     271.1514   -8713.7939    38.796039   -8752.5899    8797.3573 
  994400    258.75873   -8707.3992     37.02291   -8744.4221    76245.219 
  994600    312.47985   -8699.1283    44.709268   -8743.8375   -11680.776 
  994800    288.43826   -8707.6232    41.269424   -8748.8926   -50588.065 
  995000    220.75311   -8722.7534    31.585109   -8754.3385   -17048.123 
  995200    239.21432   -8706.9156    34.226517   -8741.1421   -28844.696 
  995400    341.08272   -8694.1581    48.801734   -8742.9599    11215.942 
  995600    266.14311   -8710.3943    38.079459   -8748.4738    21170.288 
  995800     344.6736   -8704.4558    49.315513   -8753.7713   -23095.244 
  996000    261.65189   -8701.4186    37.436861   -8738.8555    2236.1639 
  996200    286.06816   -8702.5331    40.930313   -8743.4634    5886.1959 
  996400     233.2348   -8717.1597    33.370975   -8750.5307   -5089.2686 
  996600    315.77606   -8700.8957    45.180886   -8746.0766    37324.448 
  996800    321.59373   -8695.9531    46.013272   -8741.9663    52345.058 
  997000    351.79964   -8691.5672    50.335099   -8741.9023   -13189.369 
  997200    276.00993   -8708.2388    39.491192     -8747.73    31478.596 
  997400    340.40842     -8695.69    48.705256   -8744.3953    35252.159 
  997600    360.79956   -8690.9936    51.622798   -8742.6164   -20682.542 
  997800    297.71192   -8709.8655    42.596289   -8752.4618    16049.745 
  998000    311.48997   -8701.1803    44.567636   -8745.7479    -45630.09 
  998200    301.52552   -8694.7781    43.141934     -8737.92   -18779.138 
  998400    317.52538   -8700.1488    45.431176     -8745.58    10153.963 
  998600    291.55527   -8708.1724    41.715403   -8749.8878   -16859.031 
  998800    338.51281   -8688.2042    48.434035   -8736.6382   -14523.967 
  999000    269.28603   -8703.3841    38.529144   -8741.9132    18978.411 
  999200    269.47791   -8701.1448    38.556598   -8739.7014   -22413.621 
  999400    311.76273   -8693.2089    44.606663   -8737.8156   -35909.917 
  999600    312.40424   -8698.8553     44.69845   -8743.5537   -37604.885 
  999800    284.57891   -8708.8821    40.717232   -8749.5994   -43820.813 
 1000000    255.84184   -8712.6533    36.605565   -8749.2589   -24500.113 
Loop time of 4309.2 on 8 procs for 1000000 steps with 49 atoms

Performance: 5.013 ns/day, 4.788 hours/ns, 232.061 timesteps/s
99.0% CPU use with 8 MPI tasks x no OpenMP threads

MPI task timing breakdown:
Section |  min time  |  avg time  |  max time  |%varavg| %total
---------------------------------------------------------------
Pair    | 3794.9     | 3848.4     | 3905.4     |  45.8 | 89.31
Neigh   | 0.90672    | 0.92297    | 0.9361     |   0.9 |  0.02
Comm    | 57.726     | 114.6      | 167.92     | 264.8 |  2.66
Output  | 0.095473   | 0.11386    | 0.23431    |  13.5 |  0.00
Modify  | 340.67     | 341.24     | 341.69     |   1.6 |  7.92
Other   |            | 3.912      |            |       |  0.09

Nlocal:    6.125 ave 7 max 6 min
Histogram: 7 0 0 0 0 0 0 0 0 1
Nghost:    918.375 ave 935 max 902 min
Histogram: 1 1 0 1 1 1 1 1 0 1
Neighs:    1685.25 ave 1908 max 1640 min
Histogram: 7 0 0 0 0 0 0 0 0 1

Total # of neighbors = 13482
Ave neighs/atom = 275.143
Neighbor list builds = 419
Dangerous builds = 0

Please see the log.cite file for references relevant to this simulation

Total wall time: 1:11:55
