ITEM: TIMESTEP
0
ITEM: NUMBER OF ATOMS
35
ITEM: BOX BOUNDS pp pp pp
0.0000000000000000e+00 7.0970000000000004e+00
0.0000000000000000e+00 7.0970000000000004e+00
0.0000000000000000e+00 2.4588000000000001e+01
ITEM: ATOMS id type x y z 
35 3 1.531 2.167 11.799 
2 1 3.339 1.632 13.319 
5 1 4.651 1.581 18.133 
7 1 3.391 1.602 15.981 
8 1 2.166 1.581 18.134 
18 1 3.408 1.581 17.416 
21 1 3.338 2.875 12.602 
23 1 3.367 1.619 14.753 
24 1 3.338 0.39 12.601 
33 2 1.989 1.632 13.319 
34 2 0.81 1.91 12.43 
17 1 7.023 2.875 24.28 
19 1 6.997 1.619 22.129 
20 1 7.023 0.39 24.281 
22 1 6.957 1.581 19.466 
25 1 5.714 1.581 18.748 
27 1 6.974 1.602 20.9 
28 1 1.102 1.581 18.748 
30 1 7.024 1.631 23.563 
10 1 6.954 5.232 5.122 
13 1 7.023 3.938 0.307 
15 1 6.994 5.194 2.459 
16 1 7.023 6.423 0.307 
26 1 7.022 5.181 1.025 
29 1 5.711 5.232 5.839 
31 1 6.97 5.211 3.688 
32 1 1.098 5.232 5.84 
1 1 4.647 5.232 6.454 
3 1 3.388 5.211 8.606 
4 1 2.163 5.232 6.454 
6 1 3.338 5.182 11.269 
9 1 3.338 3.939 11.986 
11 1 3.365 5.194 9.834 
12 1 3.338 6.423 11.987 
14 1 3.404 5.232 7.171 
ITEM: TIMESTEP
10
ITEM: NUMBER OF ATOMS
35
ITEM: BOX BOUNDS pp pp pp
0.0000000000000000e+00 7.0970000000000004e+00
0.0000000000000000e+00 7.0970000000000004e+00
0.0000000000000000e+00 2.4588000000000001e+01
ITEM: ATOMS id type x y z 
35 3 1.52451 2.18132 11.8372 
2 1 3.18847 1.57609 13.3604 
5 1 4.66839 1.5815 18.1487 
7 1 3.40091 1.60189 16.0487 
8 1 2.15284 1.58163 18.1499 
18 1 3.40915 1.57935 17.5093 
21 1 3.27339 2.90879 12.5108 
23 1 3.41133 1.61772 14.8355 
24 1 3.37465 0.343523 12.5873 
33 2 2.06376 1.60852 13.381 
34 2 0.817594 1.93809 12.3536 
17 1 7.02311 2.88295 24.2769 
19 1 6.99429 1.62052 22.1285 
20 1 7.02242 0.392264 24.2888 
22 1 6.95655 1.58264 19.4735 
25 1 5.73003 1.57936 18.7568 
27 1 6.97425 1.6012 20.9151 
28 1 1.08208 1.57914 18.7552 
30 1 7.02523 1.63182 23.5665 
10 1 6.95298 5.23169 5.11754 
13 1 7.02366 3.93049 0.311173 
15 1 6.99526 5.19268 2.46444 
16 1 7.02486 6.41984 0.299525 
26 1 7.02022 5.18081 1.02501 
29 1 5.71155 5.23141 5.83651 
31 1 6.96846 5.21143 3.67975 
32 1 1.0919 5.23367 5.84019 
1 1 4.65973 5.23282 6.44805 
3 1 3.39092 5.21113 8.55818 
4 1 2.15587 5.23069 6.44439 
6 1 3.33074 5.19631 11.1727 
9 1 3.37415 3.9901 11.9603 
11 1 3.36299 5.19352 9.78231 
12 1 3.35631 6.41016 11.9758 
14 1 3.40547 5.23293 7.15024 
ITEM: TIMESTEP
20
ITEM: NUMBER OF ATOMS
35
ITEM: BOX BOUNDS pp pp pp
0.0000000000000000e+00 7.0970000000000004e+00
0.0000000000000000e+00 7.0970000000000004e+00
0.0000000000000000e+00 2.4588000000000001e+01
ITEM: ATOMS id type x y z 
35 3 1.56467 2.21835 11.8242 
2 1 3.18984 1.58462 13.3823 
5 1 4.66604 1.58145 18.1559 
7 1 3.41387 1.60123 16.0348 
8 1 2.15169 1.58132 18.158 
18 1 3.40911 1.57976 17.4957 
21 1 3.19439 2.87638 12.473 
23 1 3.42246 1.6154 14.8227 
24 1 3.38958 0.353343 12.6143 
33 2 2.0416 1.59914 13.4234 
34 2 0.807869 1.94315 12.3411 
17 1 7.02278 2.8829 24.2794 
19 1 6.99763 1.62206 22.1453 
20 1 7.02287 0.388655 24.2918 
22 1 6.95698 1.57961 19.4898 
25 1 5.7314 1.58025 18.7557 
27 1 6.97116 1.60204 20.9253 
28 1 1.08415 1.58029 18.7525 
30 1 7.02485 1.63215 23.5776 
10 1 6.95354 5.23199 5.10531 
13 1 7.02391 3.93417 0.311608 
15 1 6.99281 5.19071 2.45361 
16 1 7.0244 6.4198 0.299602 
26 1 7.02221 5.18069 1.02135 
29 1 5.72064 5.23218 5.8301 
31 1 6.96883 5.21157 3.67396 
32 1 1.08659 5.23349 5.83599 
1 1 4.66446 5.23235 6.44275 
3 1 3.38972 5.21142 8.55219 
4 1 2.14781 5.23236 6.43937 
6 1 3.33984 5.18106 11.1992 
9 1 3.38277 3.97118 11.9727 
11 1 3.36481 5.19359 9.77535 
12 1 3.3668 6.42643 11.9675 
14 1 3.40594 5.23289 7.12625 
ITEM: TIMESTEP
30
ITEM: NUMBER OF ATOMS
35
ITEM: BOX BOUNDS pp pp pp
0.0000000000000000e+00 7.0970000000000004e+00
0.0000000000000000e+00 7.0970000000000004e+00
0.0000000000000000e+00 2.4588000000000001e+01
ITEM: ATOMS id type x y z 
35 3 1.60367 2.25986 11.8267 
2 1 3.16344 1.5595 13.3938 
5 1 4.66478 1.58385 18.1649 
7 1 3.43644 1.60105 16.0334 
8 1 2.15308 1.58409 18.1625 
18 1 3.41193 1.58141 17.4933 
21 1 2.99183 2.863 12.3488 
23 1 3.45742 1.61597 14.8222 
24 1 3.41703 0.347228 12.6332 
33 2 2.0176 1.59157 13.4987 
34 2 0.832659 1.96819 12.2908 
17 1 7.02191 2.88208 24.279 
19 1 6.99528 1.62452 22.1498 
20 1 7.02576 0.391887 24.2979 
22 1 6.95836 1.57881 19.4957 
25 1 5.73069 1.57707 18.7639 
27 1 6.97083 1.60256 20.9292 
28 1 1.08694 1.57717 18.7589 
30 1 7.02593 1.63145 23.5821 
10 1 6.95407 5.23208 5.10128 
13 1 7.02553 3.93254 0.313812 
15 1 6.99097 5.19252 2.44909 
16 1 7.02587 6.41779 0.295566 
26 1 7.02381 5.181 1.01604 
29 1 5.72017 5.23326 5.82866 
31 1 6.96492 5.20852 3.67026 
32 1 1.08679 5.23554 5.83535 
1 1 4.6613 5.23583 6.43532 
3 1 3.38345 5.21021 8.55663 
4 1 2.15176 5.23094 6.43095 
6 1 3.37981 5.17338 11.2206 
9 1 3.40016 3.96258 11.9921 
11 1 3.37165 5.18527 9.77802 
12 1 3.40541 6.43004 11.9711 
14 1 3.40676 5.23526 7.13047 
ITEM: TIMESTEP
40
ITEM: NUMBER OF ATOMS
35
ITEM: BOX BOUNDS pp pp pp
0.0000000000000000e+00 7.0970000000000004e+00
0.0000000000000000e+00 7.0970000000000004e+00
0.0000000000000000e+00 2.4588000000000001e+01
ITEM: ATOMS id type x y z 
35 3 1.59448 2.2485 11.7993 
2 1 3.15154 1.5651 13.3856 
5 1 4.65992 1.58463 18.1672 
7 1 3.46374 1.60442 16.0171 
8 1 2.1573 1.58458 18.1608 
18 1 3.41208 1.58366 17.4772 
21 1 2.91983 2.8679 12.3218 
23 1 3.4559 1.61469 14.8062 
24 1 3.41541 0.35239 12.6371 
33 2 2.02074 1.59654 13.529 
34 2 0.833844 1.97585 12.28 
17 1 7.02316 2.88101 24.2816 
19 1 6.99543 1.62433 22.1483 
20 1 7.02606 0.390904 24.2968 
22 1 6.96003 1.57853 19.4925 
25 1 5.7253 1.57566 18.7656 
27 1 6.96943 1.60242 20.9275 
28 1 1.09264 1.57618 18.7601 
30 1 7.02636 1.63291 23.582 
10 1 6.95397 5.23129 5.10524 
13 1 7.02651 3.93385 0.312812 
15 1 6.99016 5.1923 2.45125 
16 1 7.02572 6.41876 0.297693 
26 1 7.02478 5.17983 1.01762 
29 1 5.71603 5.23405 5.82911 
31 1 6.96423 5.20857 3.67264 
32 1 1.09248 5.24006 5.83202 
1 1 4.65705 5.2343 6.43475 
3 1 3.37362 5.20669 8.5695 
4 1 2.15327 5.22828 6.43506 
6 1 3.41668 5.16566 11.24 
9 1 3.39566 3.95171 11.9986 
11 1 3.38888 5.18225 9.79089 
12 1 3.4303 6.43045 11.9872 
14 1 3.40547 5.23973 7.13997 
ITEM: TIMESTEP
50
ITEM: NUMBER OF ATOMS
35
ITEM: BOX BOUNDS pp pp pp
0.0000000000000000e+00 7.0970000000000004e+00
0.0000000000000000e+00 7.0970000000000004e+00
0.0000000000000000e+00 2.4588000000000001e+01
ITEM: ATOMS id type x y z 
35 3 1.57812 2.23039 11.7637 
2 1 3.13816 1.57715 13.3714 
5 1 4.65664 1.57591 18.1675 
7 1 3.49013 1.60672 16.0056 
8 1 2.16196 1.57807 18.1565 
18 1 3.41361 1.5922 17.4655 
21 1 2.86084 2.86717 12.3012 
23 1 3.46009 1.61591 14.7953 
24 1 3.41635 0.356134 12.6378 
33 2 2.01416 1.60487 13.556 
34 2 0.827192 1.981 12.2732 
17 1 7.02836 2.87987 24.2847 
19 1 6.99543 1.62286 22.1443 
20 1 7.02663 0.390358 24.2952 
22 1 6.95854 1.57331 19.4877 
25 1 5.72004 1.58303 18.7694 
27 1 6.96914 1.60364 20.9234 
28 1 1.10018 1.58222 18.7605 
30 1 7.02518 1.63258 23.5789 
10 1 6.95319 5.23452 5.10804 
13 1 7.02326 3.93498 0.311388 
15 1 6.99408 5.19005 2.45506 
16 1 7.02599 6.42021 0.299911 
26 1 7.02467 5.18104 1.0206 
29 1 5.70939 5.23406 5.82993 
31 1 6.9609 5.20962 3.67642 
32 1 1.09657 5.2319 5.83377 
1 1 4.65227 5.23818 6.43826 
3 1 3.37013 5.21031 8.59157 
4 1 2.1581 5.23433 6.43628 
6 1 3.46428 5.16423 11.2508 
9 1 3.38385 3.94508 12.0071 
11 1 3.40158 5.17746 9.80431 
12 1 3.45596 6.42298 11.9998 
14 1 3.40302 5.23568 7.14883 
ITEM: TIMESTEP
60
ITEM: NUMBER OF ATOMS
35
ITEM: BOX BOUNDS pp pp pp
0.0000000000000000e+00 7.0970000000000004e+00
0.0000000000000000e+00 7.0970000000000004e+00
0.0000000000000000e+00 2.4588000000000001e+01
ITEM: ATOMS id type x y z 
35 3 1.57485 2.2276 11.7592 
2 1 3.1361 1.57907 13.3699 
5 1 4.65563 1.5821 18.169 
7 1 3.49209 1.60848 16.0065 
8 1 2.16169 1.58278 18.1557 
18 1 3.41469 1.5883 17.4641 
21 1 2.85844 2.86728 12.3002 
23 1 3.46252 1.61569 14.7945 
24 1 3.41622 0.356536 12.638 
33 2 2.0118 1.60665 13.5565 
34 2 0.824682 1.98083 12.2725 
17 1 7.02564 2.88018 24.2846 
19 1 6.99513 1.62359 22.1435 
20 1 7.02638 0.390411 24.2949 
22 1 6.95966 1.57645 19.4874 
25 1 5.72023 1.57752 18.7686 
27 1 6.96923 1.60201 20.9235 
28 1 1.10062 1.57806 18.7603 
30 1 7.02641 1.63254 23.5784 
10 1 6.95278 5.2334 5.10991 
13 1 7.026 3.93478 0.311674 
15 1 6.99127 5.18972 2.4557 
16 1 7.02615 6.42045 0.300186 
26 1 7.0252 5.18086 1.0213 
29 1 5.70947 5.23558 5.8305 
31 1 6.96258 5.20998 3.67598 
32 1 1.09649 5.23307 5.83373 
1 1 4.65152 5.23636 6.43908 
3 1 3.36958 5.20864 8.58983 
4 1 2.15849 5.23435 6.43583 
6 1 3.46995 5.16297 11.2529 
9 1 3.38054 3.94414 12.0071 
11 1 3.40437 5.17824 9.8078 
12 1 3.45909 6.42256 12.0007 
14 1 3.40249 5.23682 7.15016 
ITEM: TIMESTEP
61
ITEM: NUMBER OF ATOMS
35
ITEM: BOX BOUNDS pp pp pp
0.0000000000000000e+00 7.0970000000000004e+00
0.0000000000000000e+00 7.0970000000000004e+00
0.0000000000000000e+00 2.4588000000000001e+01
ITEM: ATOMS id type x y z 
35 3 1.57485 2.2276 11.7592 
34 2 0.824682 1.98083 12.2725 
2 1 3.1361 1.57907 13.3699 
5 1 4.65563 1.5821 18.169 
7 1 3.49209 1.60848 16.0065 
8 1 2.16169 1.58278 18.1557 
18 1 3.41469 1.5883 17.4641 
21 1 2.85844 2.86728 12.3002 
23 1 3.46252 1.61569 14.7945 
24 1 3.41622 0.356536 12.638 
33 2 2.0118 1.60665 13.5565 
17 1 7.02564 2.88018 24.2846 
19 1 6.99513 1.62359 22.1435 
20 1 7.02638 0.390411 24.2949 
22 1 6.95966 1.57645 19.4874 
25 1 5.72023 1.57752 18.7686 
27 1 6.96923 1.60201 20.9235 
28 1 1.10062 1.57806 18.7603 
30 1 7.02641 1.63254 23.5784 
10 1 6.95278 5.2334 5.10991 
13 1 7.026 3.93478 0.311674 
15 1 6.99127 5.18972 2.4557 
16 1 7.02615 6.42045 0.300186 
26 1 7.0252 5.18086 1.0213 
29 1 5.70947 5.23558 5.8305 
31 1 6.96258 5.20998 3.67598 
32 1 1.09649 5.23307 5.83373 
1 1 4.65152 5.23636 6.43908 
3 1 3.36958 5.20864 8.58983 
4 1 2.15849 5.23435 6.43583 
6 1 3.46995 5.16297 11.2529 
9 1 3.38054 3.94414 12.0071 
11 1 3.40437 5.17824 9.8078 
12 1 3.45909 6.42256 12.0007 
14 1 3.40249 5.23682 7.15016 
ITEM: TIMESTEP
70
ITEM: NUMBER OF ATOMS
35
ITEM: BOX BOUNDS pp pp pp
-2.0709045639450644e-03 7.0990709045639449e+00
-1.5698525251168047e-03 7.0985698525251175e+00
-1.1064600000000003e-02 2.4599064599999998e+01
ITEM: ATOMS id type x y z 
35 3 1.57369 2.22701 11.7587 
34 2 0.823082 1.98014 12.2725 
2 1 3.13585 1.57821 13.3709 
5 1 4.65628 1.58123 18.1743 
7 1 3.49206 1.60763 16.0099 
8 1 2.16087 1.58191 18.161 
18 1 3.41461 1.58743 17.4687 
21 1 2.85803 2.86701 12.3002 
23 1 3.46248 1.61483 14.7968 
24 1 3.41615 0.35506 12.6383 
33 2 2.01089 1.6058 13.5577 
17 1 7.02768 2.87989 24.2954 
19 1 6.99714 1.62274 22.1524 
20 1 7.02841 0.389004 24.3057 
22 1 6.96165 1.57557 19.4939 
25 1 5.72149 1.57666 18.7744 
27 1 6.97122 1.60115 20.9313 
28 1 1.0992 1.57719 18.7661 
30 1 7.02844 1.63169 23.5886 
10 1 6.95476 5.23415 5.10345 
13 1 7.02803 3.93494 0.300884 
15 1 6.99328 5.19045 2.44686 
16 1 7.02818 6.42173 0.289388 
26 1 7.02723 5.18158 1.01116 
29 1 5.71072 5.23632 5.82469 
31 1 6.96458 5.21071 3.66822 
32 1 1.09507 5.23382 5.82792 
1 1 4.65217 5.23711 6.43381 
3 1 3.36948 5.20937 8.58659 
4 1 2.15767 5.2351 6.43055 
6 1 3.46993 5.16369 11.252 
9 1 3.38041 3.94427 12.0069 
11 1 3.4043 5.17896 9.8055 
12 1 3.45905 6.42387 12.0004 
14 1 3.4024 5.23757 7.14553 
ITEM: TIMESTEP
80
ITEM: NUMBER OF ATOMS
35
ITEM: BOX BOUNDS pp pp pp
-5.1965127565002309e-03 7.1021965127564997e+00
-3.3398510803134196e-03 7.1003398510803137e+00
-2.3179680574323045e-02 2.4611179680574320e+01
ITEM: ATOMS id type x y z 
35 3 1.57194 2.22634 11.7582 
34 2 0.82066 1.97936 12.2725 
2 1 3.13545 1.57727 13.3719 
5 1 4.65733 1.58026 18.1801 
7 1 3.49203 1.60667 16.0135 
8 1 2.15958 1.58092 18.1668 
18 1 3.41451 1.58645 17.4738 
21 1 2.85747 2.86687 12.3001 
23 1 3.46243 1.61387 14.7994 
24 1 3.41604 0.353147 12.6384 
33 2 2.00952 1.60485 13.5589 
17 1 7.03075 2.87961 24.3073 
19 1 7.00018 1.62177 22.162 
20 1 7.03148 0.387368 24.3176 
22 1 6.96466 1.57457 19.501 
25 1 5.72332 1.57569 18.7808 
27 1 6.97424 1.60019 20.9399 
28 1 1.09713 1.57623 18.7724 
30 1 7.03149 1.63074 23.5997 
10 1 6.95776 5.235 5.09638 
13 1 7.03108 3.93507 0.28904 
15 1 6.99631 5.19127 2.43729 
16 1 7.03124 6.42322 0.27754 
26 1 7.03029 5.18239 1.00007 
29 1 5.71255 5.23714 5.81837 
31 1 6.96759 5.21153 3.65961 
32 1 1.09299 5.23466 5.8216 
1 1 4.65321 5.23796 6.428 
3 1 3.36933 5.21017 8.58335 
4 1 2.15638 5.23595 6.42473 
6 1 3.46992 5.16456 11.2509 
9 1 3.38012 3.94427 12.0066 
11 1 3.40419 5.1798 9.80274 
12 1 3.459 6.4255 12.0003 
14 1 3.40227 5.23841 7.14049 
ITEM: TIMESTEP
90
ITEM: NUMBER OF ATOMS
35
ITEM: BOX BOUNDS pp pp pp
-8.6181196763858627e-03 7.1056181196763841e+00
-5.5396764852179477e-03 7.1025396764852182e+00
-3.2639725282031608e-02 2.4620639725282032e+01
ITEM: ATOMS id type x y z 
35 3 1.57003 2.22549 11.7577 
34 2 0.817984 1.97839 12.2724 
2 1 3.13496 1.57619 13.3727 
5 1 4.65868 1.57905 18.1849 
7 1 3.49202 1.6055 16.0162 
8 1 2.15797 1.57967 18.1715 
18 1 3.4144 1.58523 17.4777 
21 1 2.85694 2.867 12.2999 
23 1 3.46244 1.61268 14.8017 
24 1 3.41595 0.350345 12.6382 
33 2 2.00798 1.6037 13.5599 
17 1 7.03413 2.8794 24.3166 
19 1 7.0035 1.62056 22.1692 
20 1 7.03484 0.385198 24.3269 
22 1 6.96796 1.57331 19.5065 
25 1 5.72511 1.57449 18.7856 
27 1 6.97755 1.59899 20.9469 
28 1 1.09509 1.57505 18.7772 
30 1 7.03483 1.62956 23.6083 
10 1 6.96103 5.23605 5.09088 
13 1 7.03441 3.93511 0.279692 
15 1 6.99962 5.19231 2.4301 
16 1 7.03459 6.42522 0.268208 
26 1 7.03365 5.1834 0.991435 
29 1 5.71434 5.23815 5.81357 
31 1 6.9709 5.21255 3.65263 
32 1 1.0909 5.23572 5.81677 
1 1 4.65452 5.23901 6.42335 
3 1 3.36919 5.21114 8.58156 
4 1 2.15478 5.23702 6.42007 
6 1 3.46997 5.16574 11.2501 
9 1 3.37956 3.94395 12.0065 
11 1 3.40411 5.18087 9.80005 
12 1 3.45898 6.4277 12.0003 
14 1 3.40212 5.23946 7.13656 
ITEM: TIMESTEP
100
ITEM: NUMBER OF ATOMS
35
ITEM: BOX BOUNDS pp pp pp
-1.1051069983999021e-02 7.1080510699839969e+00
-8.9322646308578248e-03 7.1059322646308578e+00
-4.2596649416483542e-02 2.4630596649416482e+01
ITEM: ATOMS id type x y z 
35 3 1.56865 2.2242 11.7571 
34 2 0.816033 1.9769 12.2723 
2 1 3.13449 1.57456 13.3734 
5 1 4.66001 1.57719 18.19 
7 1 3.49205 1.60369 16.019 
8 1 2.15645 1.57775 18.1765 
18 1 3.41437 1.58333 17.4817 
21 1 2.85661 2.86721 12.2996 
23 1 3.46255 1.61085 14.8046 
24 1 3.41591 0.346087 12.6377 
33 2 2.00683 1.60195 13.5609 
17 1 7.03656 2.8792 24.3266 
19 1 7.00586 1.61869 22.1765 
20 1 7.03723 0.381714 24.3369 
22 1 6.97033 1.57135 19.5123 
25 1 5.72598 1.57267 18.7905 
27 1 6.97992 1.59714 20.9545 
28 1 1.09405 1.57325 18.7821 
30 1 7.03719 1.62774 23.6174 
10 1 6.96335 5.23767 5.08513 
13 1 7.03675 3.93504 0.269711 
15 1 7.00196 5.19391 2.42281 
16 1 7.03698 6.42843 0.258268 
26 1 7.03604 5.18494 0.982373 
29 1 5.71526 5.2397 5.80866 
31 1 6.97327 5.21411 3.64503 
32 1 1.08975 5.23736 5.81183 
1 1 4.65575 5.24064 6.41834 
3 1 3.36912 5.21263 8.57992 
4 1 2.15334 5.23867 6.41503 
6 1 3.47016 5.16756 11.2493 
9 1 3.37879 3.94356 12.0063 
11 1 3.40413 5.18252 9.79715 
12 1 3.45907 6.43085 12.0004 
14 1 3.402 5.24109 7.13244 
ITEM: TIMESTEP
110
ITEM: NUMBER OF ATOMS
35
ITEM: BOX BOUNDS pp pp pp
-1.3151264249387905e-02 7.1101512642493852e+00
-1.2480764630857828e-02 7.1094807646308569e+00
-5.1012449400802934e-02 2.4639012449400798e+01
ITEM: ATOMS id type x y z 
35 3 1.5674 2.22283 11.7565 
34 2 0.814316 1.97536 12.2722 
2 1 3.13398 1.57292 13.374 
5 1 4.6612 1.57525 18.1944 
7 1 3.49211 1.60182 16.0215 
8 1 2.15509 1.57573 18.1808 
18 1 3.41439 1.58135 17.4849 
21 1 2.8562 2.86738 12.2992 
23 1 3.46275 1.60895 14.8075 
24 1 3.4159 0.341602 12.6371 
33 2 2.00579 1.60016 13.5618 
17 1 7.03868 2.87916 24.3353 
19 1 7.00789 1.61673 22.1824 
20 1 7.0393 0.377889 24.3454 
22 1 6.97239 1.56928 19.5172 
25 1 5.72665 1.57078 18.7946 
27 1 6.98198 1.59521 20.9611 
28 1 1.09326 1.57137 18.7862 
30 1 7.03921 1.62584 23.625 
10 1 6.96535 5.23936 5.08031 
13 1 7.03875 3.9348 0.261112 
15 1 7.00397 5.1956 2.41689 
16 1 7.03904 6.43198 0.249739 
26 1 7.0381 5.18654 0.974724 
29 1 5.71584 5.24133 5.80462 
31 1 6.97533 5.21574 3.63839 
32 1 1.08896 5.23908 5.80775 
1 1 4.65696 5.24232 6.41402 
3 1 3.36907 5.21417 8.57855 
4 1 2.15194 5.2404 6.41066 
6 1 3.47046 5.1695 11.2487 
9 1 3.37793 3.9434 12.006 
11 1 3.40425 5.18426 9.79492 
12 1 3.45926 6.43378 12.0003 
14 1 3.40187 5.24279 7.12896 
ITEM: TIMESTEP
120
ITEM: NUMBER OF ATOMS
35
ITEM: BOX BOUNDS pp pp pp
-1.4857685906240358e-02 7.1118576859062381e+00
-1.6029264630857829e-02 7.1130292646308559e+00
-5.7572265362451573e-02 2.4645572265362446e+01
ITEM: ATOMS id type x y z 
35 3 1.56627 2.22146 11.7558 
34 2 0.812869 1.97384 12.272 
2 1 3.13341 1.57138 13.3744 
5 1 4.66225 1.57332 18.198 
7 1 3.49222 1.59997 16.0238 
8 1 2.15392 1.57372 18.1843 
18 1 3.41447 1.57936 17.4872 
21 1 2.85561 2.86752 12.2986 
23 1 3.46308 1.60708 14.8103 
24 1 3.41591 0.336923 12.6364 
33 2 2.00488 1.59846 13.5626 
17 1 7.04041 2.87923 24.3422 
19 1 7.00955 1.61475 22.1869 
20 1 7.04098 0.373912 24.3522 
22 1 6.97409 1.56719 19.521 
25 1 5.72707 1.56892 18.7978 
27 1 6.98367 1.59327 20.9665 
28 1 1.09278 1.56952 18.7893 
30 1 7.04083 1.62395 23.631 
10 1 6.96696 5.24103 5.07661 
13 1 7.04037 3.93444 0.254227 
15 1 7.00561 5.19731 2.41245 
16 1 7.04072 6.43569 0.242968 
26 1 7.03976 5.18814 0.96876 
29 1 5.71617 5.24294 5.80157 
31 1 6.97703 5.21736 3.63307 
32 1 1.08844 5.24083 5.80463 
1 1 4.65799 5.24398 6.41062 
3 1 3.36907 5.21566 8.57759 
4 1 2.15072 5.24216 6.40718 
6 1 3.47094 5.17154 11.2484 
9 1 3.37693 3.94362 12.0053 
11 1 3.4045 5.18604 9.79346 
12 1 3.45961 6.43618 12 
14 1 3.40173 5.2445 7.1263 
ITEM: TIMESTEP
130
ITEM: NUMBER OF ATOMS
35
ITEM: BOX BOUNDS pp pp pp
-1.6428715605328249e-02 7.1134287156053251e+00
-1.9145458778055843e-02 7.1161454587780533e+00
-6.1232861002549488e-02 2.4649232861002549e+01
ITEM: ATOMS id type x y z 
35 3 1.565 2.22026 11.7549 
34 2 0.811462 1.97255 12.2716 
2 1 3.13269 1.57019 13.3745 
5 1 4.66313 1.57164 18.2002 
7 1 3.49243 1.5984 16.026 
8 1 2.15293 1.57195 18.1862 
18 1 3.41465 1.57759 17.4882 
21 1 2.8546 2.86782 12.2979 
23 1 3.46364 1.60551 14.8128 
24 1 3.416 0.33209 12.6352 
33 2 2.00392 1.59714 13.5631 
17 1 7.04202 2.87936 24.3463 
19 1 7.01108 1.61299 22.1892 
20 1 7.04253 0.370303 24.3561 
22 1 6.9757 1.56531 19.5231 
25 1 5.72752 1.56735 18.7995 
27 1 6.98526 1.59156 20.9695 
28 1 1.09233 1.56793 18.7909 
30 1 7.04229 1.6223 23.6343 
10 1 6.96842 5.24248 5.0747 
13 1 7.04185 3.93405 0.250143 
15 1 7.00711 5.19885 2.41012 
16 1 7.04227 6.43907 0.239077 
26 1 7.04127 5.18952 0.965409 
29 1 5.71649 5.24433 5.79999 
31 1 6.97862 5.21877 3.63003 
32 1 1.0879 5.24242 5.80294 
1 1 4.65878 5.24541 6.40873 
3 1 3.36914 5.21687 8.57757 
4 1 2.14972 5.24375 6.40517 
6 1 3.47175 5.17356 11.2485 
9 1 3.37557 3.94436 12.0041 
11 1 3.405 5.18769 9.79304 
12 1 3.46022 6.43747 11.9995 
14 1 3.40155 5.24601 7.12497 
ITEM: TIMESTEP
140
ITEM: NUMBER OF ATOMS
35
ITEM: BOX BOUNDS pp pp pp
-1.6620527459755913e-02 7.1136205274597524e+00
-2.0231936973690280e-02 7.1172319369736874e+00
-6.2069801800862114e-02 2.4650069801800868e+01
ITEM: ATOMS id type x y z 
35 3 1.56479 2.21986 11.7547 
34 2 0.811273 1.97209 12.2715 
2 1 3.13257 1.56967 13.3745 
5 1 4.66323 1.57105 18.2007 
7 1 3.49248 1.59783 16.0265 
8 1 2.15283 1.57135 18.1866 
18 1 3.4147 1.57698 17.4884 
21 1 2.85438 2.86775 12.2977 
23 1 3.46376 1.60495 14.8133 
24 1 3.41602 0.330856 12.635 
33 2 2.00378 1.59663 13.5632 
17 1 7.04222 2.87924 24.3472 
19 1 7.01127 1.61239 22.1898 
20 1 7.04272 0.369224 24.357 
22 1 6.9759 1.56468 19.5236 
25 1 5.72759 1.56678 18.8 
27 1 6.98546 1.59096 20.9701 
28 1 1.09228 1.56735 18.7913 
30 1 7.04246 1.62173 23.6351 
10 1 6.9686 5.24298 5.07426 
13 1 7.04203 3.93408 0.249255 
15 1 7.0073 5.19937 2.4095 
16 1 7.04246 6.44006 0.238229 
26 1 7.04144 5.19001 0.964634 
29 1 5.71652 5.24482 5.79959 
31 1 6.97882 5.21927 3.62941 
32 1 1.08783 5.24296 5.80252 
1 1 4.65885 5.24591 6.40833 
3 1 3.36916 5.21733 8.57749 
4 1 2.14962 5.24428 6.40474 
6 1 3.47193 5.17414 11.2484 
9 1 3.37531 3.94463 12.0039 
11 1 3.40511 5.18824 9.79298 
12 1 3.46036 6.43796 11.9993 
14 1 3.40152 5.24653 7.12467 
ITEM: TIMESTEP
149
ITEM: NUMBER OF ATOMS
35
ITEM: BOX BOUNDS pp pp pp
-1.6786972615636470e-02 7.1137869726156326e+00
-2.0552322926225355e-02 7.1175523229262225e+00
-6.3143125628987107e-02 2.4651143125628987e+01
ITEM: ATOMS id type x y z 
35 3 1.56463 2.21974 11.7545 
34 2 0.811117 1.97197 12.2715 
2 1 3.13249 1.56955 13.3746 
5 1 4.6633 1.57088 18.2013 
7 1 3.49251 1.59767 16.027 
8 1 2.15275 1.57117 18.1871 
18 1 3.41472 1.5768 17.4888 
21 1 2.85423 2.86779 12.2976 
23 1 3.46385 1.60479 14.8137 
24 1 3.41604 0.330317 12.6349 
33 2 2.00366 1.59651 13.5633 
17 1 7.04239 2.87923 24.3483 
19 1 7.01144 1.61221 22.1907 
20 1 7.04289 0.368867 24.3581 
22 1 6.97608 1.56448 19.5242 
25 1 5.72766 1.56662 18.8005 
27 1 6.98563 1.59078 20.9709 
28 1 1.09222 1.56719 18.7918 
30 1 7.04261 1.62156 23.636 
10 1 6.96875 5.24313 5.07367 
13 1 7.04219 3.93406 0.248161 
15 1 7.00746 5.19953 2.40866 
16 1 7.04263 6.4404 0.237164 
26 1 7.0416 5.19015 0.963641 
29 1 5.71657 5.24496 5.79905 
31 1 6.97899 5.21942 3.62864 
32 1 1.08776 5.24313 5.80197 
1 1 4.6589 5.24606 6.40782 
3 1 3.36918 5.21745 8.57727 
4 1 2.14954 5.24445 6.40421 
6 1 3.47205 5.17436 11.2484 
9 1 3.37512 3.94476 12.0037 
11 1 3.40519 5.18841 9.79286 
12 1 3.46045 6.438 11.9992 
14 1 3.40149 5.24668 7.12425 
ITEM: TIMESTEP
150
ITEM: NUMBER OF ATOMS
35
ITEM: BOX BOUNDS pp pp pp
-1.6786972615636470e-02 7.1137869726156326e+00
-2.0552322926225355e-02 7.1175523229262225e+00
-6.3143125628987107e-02 2.4651143125628987e+01
ITEM: ATOMS id type x y z 
35 3 1.56318 2.21976 11.752 
34 2 0.81054 1.97227 12.2703 
2 1 3.13121 1.57062 13.3743 
5 1 4.66373 1.57104 18.2022 
7 1 3.49323 1.59802 16.0308 
8 1 2.15242 1.57117 18.1872 
18 1 3.41541 1.57668 17.4875 
21 1 2.85172 2.87001 12.2952 
23 1 3.46562 1.60524 14.8183 
24 1 3.41656 0.324389 12.631 
33 2 2.00282 1.59766 13.5639 
17 1 7.0425 2.88019 24.3493 
19 1 7.01147 1.61203 22.19 
20 1 7.04291 0.367545 24.3585 
22 1 6.97637 1.56416 19.524 
25 1 5.72705 1.56704 18.8005 
27 1 6.98585 1.59069 20.9714 
28 1 1.09325 1.56747 18.7914 
30 1 7.0424 1.62166 23.6361 
10 1 6.96861 5.24299 5.07434 
13 1 7.04209 3.93307 0.247271 
15 1 7.00745 5.1998 2.4093 
16 1 7.04267 6.44179 0.23687 
26 1 7.04145 5.19001 0.963502 
29 1 5.7155 5.24472 5.79958 
31 1 6.9792 5.21932 3.62818 
32 1 1.08852 5.24345 5.80215 
1 1 4.65894 5.24589 6.40788 
3 1 3.36968 5.21675 8.58036 
4 1 2.14928 5.24474 6.40391 
6 1 3.47464 5.17604 11.2492 
9 1 3.37145 3.94668 12.0001 
11 1 3.4069 5.18909 9.79384 
12 1 3.46231 6.43435 11.9978 
14 1 3.40113 5.24673 7.12498 
ITEM: TIMESTEP
160
ITEM: NUMBER OF ATOMS
35
ITEM: BOX BOUNDS pp pp pp
-1.6786972615636470e-02 7.1137869726156326e+00
-2.0552322926225355e-02 7.1175523229262225e+00
-6.3143125628987107e-02 2.4651143125628987e+01
ITEM: ATOMS id type x y z 
35 3 1.55254 2.22018 11.737 
34 2 0.807051 1.97335 12.265 
2 1 3.1323 1.56375 13.3791 
5 1 4.66412 1.57165 18.2053 
7 1 3.49712 1.59898 16.0374 
8 1 2.15317 1.57176 18.1864 
18 1 3.41686 1.57679 17.4926 
21 1 2.83849 2.87156 12.2869 
23 1 3.47033 1.60764 14.8234 
24 1 3.41825 0.323814 12.6307 
33 2 1.99977 1.60217 13.5685 
17 1 7.04214 2.87827 24.3498 
19 1 7.01171 1.61152 22.1903 
20 1 7.0428 0.368255 24.3569 
22 1 6.97771 1.56431 19.5243 
25 1 5.72907 1.56765 18.8036 
27 1 6.98678 1.58997 20.9706 
28 1 1.09334 1.56752 18.7922 
30 1 7.04212 1.62176 23.6359 
10 1 6.96788 5.24239 5.07638 
13 1 7.04198 3.9348 0.247177 
15 1 7.00767 5.20053 2.40985 
16 1 7.04259 6.44129 0.23894 
26 1 7.04103 5.18993 0.963717 
29 1 5.71368 5.24403 5.80035 
31 1 6.97987 5.21948 3.62968 
32 1 1.08905 5.24428 5.80143 
1 1 4.65657 5.24533 6.40968 
3 1 3.37128 5.21567 8.57913 
4 1 2.15042 5.2455 6.40424 
6 1 3.48941 5.17354 11.2442 
9 1 3.35755 3.94955 11.9914 
11 1 3.41489 5.19035 9.79536 
12 1 3.46863 6.42895 11.997 
14 1 3.39989 5.24656 7.12906 
ITEM: TIMESTEP
164
ITEM: NUMBER OF ATOMS
35
ITEM: BOX BOUNDS pp pp pp
-1.6786972615636470e-02 7.1137869726156326e+00
-2.0552322926225355e-02 7.1175523229262225e+00
-6.3143125628987107e-02 2.4651143125628987e+01
ITEM: ATOMS id type x y z 
35 3 1.55238 2.22024 11.7367 
34 2 0.806927 1.97338 12.2648 
2 1 3.13206 1.56397 13.3791 
5 1 4.66434 1.57164 18.2055 
7 1 3.49723 1.59906 16.0374 
8 1 2.153 1.57172 18.1865 
18 1 3.41693 1.57681 17.4926 
21 1 2.83802 2.87155 12.2867 
23 1 3.47052 1.60766 14.8241 
24 1 3.41834 0.323655 12.6307 
33 2 1.99977 1.60231 13.5686 
17 1 7.04217 2.87852 24.3499 
19 1 7.01173 1.61149 22.1902 
20 1 7.04279 0.367995 24.357 
22 1 6.97777 1.56428 19.5243 
25 1 5.72892 1.56769 18.8036 
27 1 6.9868 1.58999 20.9707 
28 1 1.09351 1.56759 18.7922 
30 1 7.0421 1.62176 23.6359 
10 1 6.96785 5.2424 5.07642 
13 1 7.04193 3.93456 0.247017 
15 1 7.00767 5.20055 2.40993 
16 1 7.04258 6.44155 0.23884 
26 1 7.04104 5.18994 0.963722 
29 1 5.7136 5.24401 5.80039 
31 1 6.97989 5.21948 3.62968 
32 1 1.08909 5.24427 5.80142 
1 1 4.65661 5.24531 6.40968 
3 1 3.3713 5.2157 8.57879 
4 1 2.15035 5.24551 6.4042 
6 1 3.4898 5.17373 11.2444 
9 1 3.35711 3.94946 11.991 
11 1 3.4152 5.19032 9.79569 
12 1 3.46888 6.42846 11.9967 
14 1 3.39986 5.24656 7.12907 
ITEM: TIMESTEP
170
ITEM: NUMBER OF ATOMS
35
ITEM: BOX BOUNDS pp pp pp
-1.6864963268162433e-02 7.1138649632681590e+00
-2.0562219879801405e-02 7.1175622198797983e+00
-6.3292864025986703e-02 2.4651292864025987e+01
ITEM: ATOMS id type x y z 
35 3 1.55234 2.22024 11.7366 
34 2 0.806865 1.97337 12.2648 
21 1 2.83799 2.87155 12.2867 
2 1 3.13204 1.56397 13.3791 
5 1 4.66436 1.57163 18.2056 
7 1 3.49723 1.59906 16.0375 
8 1 2.15297 1.57171 18.1866 
18 1 3.41693 1.57681 17.4927 
33 2 1.99973 1.60231 13.5687 
23 1 3.47053 1.60766 14.8241 
24 1 3.41835 0.323617 12.6307 
17 1 7.04224 2.87851 24.3501 
19 1 7.0118 1.61148 22.1904 
20 1 7.04287 0.367986 24.3571 
22 1 6.97785 1.56427 19.5244 
25 1 5.72896 1.56768 18.8037 
27 1 6.98688 1.58998 20.9708 
28 1 1.09346 1.56758 18.7922 
30 1 7.04218 1.62175 23.636 
10 1 6.96792 5.2424 5.07634 
13 1 7.042 3.93456 0.246871 
15 1 7.00775 5.20055 2.40982 
16 1 7.04266 6.44155 0.238694 
26 1 7.04111 5.18994 0.963585 
29 1 5.71365 5.24402 5.80031 
31 1 6.97996 5.21948 3.62958 
32 1 1.08903 5.24428 5.80135 
1 1 4.65664 5.24532 6.40961 
3 1 3.3713 5.2157 8.57876 
4 1 2.15032 5.24552 6.40413 
6 1 3.48981 5.17374 11.2444 
9 1 3.3571 3.94946 11.991 
11 1 3.4152 5.19033 9.79564 
12 1 3.46888 6.42848 11.9967 
14 1 3.39986 5.24657 7.129 
ITEM: TIMESTEP
175
ITEM: NUMBER OF ATOMS
35
ITEM: BOX BOUNDS pp pp pp
-1.6874015754616344e-02 7.1138740157546128e+00
-2.0565243895374629e-02 7.1175652438953723e+00
-6.3311863460661436e-02 2.4651311863460659e+01
ITEM: ATOMS id type x y z 
35 3 1.55233 2.22024 11.7366 
34 2 0.806857 1.97337 12.2648 
21 1 2.83799 2.87155 12.2867 
2 1 3.13204 1.56396 13.3791 
5 1 4.66436 1.57163 18.2056 
7 1 3.49723 1.59906 16.0375 
8 1 2.15297 1.57171 18.1866 
18 1 3.41693 1.57681 17.4927 
33 2 1.99973 1.60231 13.5687 
23 1 3.47053 1.60766 14.8241 
24 1 3.41835 0.323611 12.6307 
17 1 7.04225 2.87851 24.3501 
19 1 7.01181 1.61148 22.1904 
20 1 7.04288 0.367983 24.3571 
22 1 6.97786 1.56427 19.5244 
25 1 5.72897 1.56768 18.8037 
27 1 6.98689 1.58998 20.9708 
28 1 1.09345 1.56758 18.7922 
30 1 7.04218 1.62175 23.636 
10 1 6.96793 5.2424 5.07633 
13 1 7.04201 3.93456 0.246852 
15 1 7.00776 5.20055 2.4098 
16 1 7.04267 6.44156 0.238676 
26 1 7.04112 5.18994 0.963568 
29 1 5.71365 5.24402 5.8003 
31 1 6.97997 5.21948 3.62956 
32 1 1.08903 5.24428 5.80134 
1 1 4.65664 5.24532 6.4096 
3 1 3.3713 5.2157 8.57876 
4 1 2.15031 5.24552 6.40412 
6 1 3.48981 5.17375 11.2444 
9 1 3.35709 3.94946 11.991 
11 1 3.4152 5.19033 9.79564 
12 1 3.46888 6.42849 11.9967 
14 1 3.39986 5.24657 7.129 
ITEM: TIMESTEP
176
ITEM: NUMBER OF ATOMS
35
ITEM: BOX BOUNDS pp pp pp
-1.6874015754616344e-02 7.1138740157546128e+00
-2.0565243895374629e-02 7.1175652438953723e+00
-6.3311863460661436e-02 2.4651311863460659e+01
ITEM: ATOMS id type x y z 
35 3 1.55233 2.22024 11.7366 
34 2 0.806857 1.97337 12.2648 
21 1 2.83799 2.87155 12.2867 
2 1 3.13204 1.56396 13.3791 
5 1 4.66436 1.57163 18.2056 
7 1 3.49723 1.59906 16.0375 
8 1 2.15297 1.57171 18.1866 
18 1 3.41693 1.57681 17.4927 
33 2 1.99973 1.60231 13.5687 
23 1 3.47053 1.60766 14.8241 
24 1 3.41835 0.323611 12.6307 
17 1 7.04225 2.87851 24.3501 
19 1 7.01181 1.61148 22.1904 
20 1 7.04288 0.367983 24.3571 
22 1 6.97786 1.56427 19.5244 
25 1 5.72897 1.56768 18.8037 
27 1 6.98689 1.58998 20.9708 
28 1 1.09345 1.56758 18.7922 
30 1 7.04218 1.62175 23.636 
10 1 6.96793 5.2424 5.07633 
13 1 7.04201 3.93456 0.246852 
15 1 7.00776 5.20055 2.4098 
16 1 7.04267 6.44156 0.238676 
26 1 7.04112 5.18994 0.963568 
29 1 5.71365 5.24402 5.8003 
31 1 6.97997 5.21948 3.62956 
32 1 1.08903 5.24428 5.80134 
1 1 4.65664 5.24532 6.4096 
3 1 3.3713 5.2157 8.57876 
4 1 2.15031 5.24552 6.40412 
6 1 3.48981 5.17375 11.2444 
9 1 3.35709 3.94946 11.991 
11 1 3.4152 5.19033 9.79564 
12 1 3.46888 6.42849 11.9967 
14 1 3.39986 5.24657 7.129 
