LAMMPS (3 Mar 2020)
# Alpha
clear
units		real
dimension 3
boundary        p p p
atom_style	charge
newton on
read_data       O_2.lmp
  orthogonal box = (0 0 0) to (13.416 13.416 13.415)
  2 by 2 by 2 MPI processor grid
  reading atoms ...
  81 atoms
  read_data CPU = 0.0178996 secs

timestep 0.25

# ---------- Define Interatomic Potential ---------------------
pair_style      reax/c NULL checkqeq no
pair_coeff      * * ffield.reax C O
fix             2 all qeq/reax 1 0.0 10.0 1.0e-6 reax/c

#------------ Equilibration of the system -------------------------
reset_timestep 0

dump 1 all custom 10 min.lammpstrj id type x y z

minimize 1.0e-8 1.0e-8 100000 100000
WARNING: Using 'neigh_modify every 1 delay 0 check yes' setting during minimization (../min.cpp:190)
WARNING: Total cutoff < 2*bond cutoff. May need to use an increased neighbor list skin. (../pair_reaxc.cpp:413)
Neighbor list info ...
  update every 1 steps, delay 0 steps, check yes
  max neighbors/atom: 2000, page size: 100000
  master list distance cutoff = 9.5
  ghost atom cutoff = 9.5
  binsize = 4.75, bins = 3 3 3
  2 neighbor lists, perpetual/occasional/extra = 2 0 0
  (1) pair reax/c, perpetual
      attributes: half, newton off, ghost
      pair build: half/bin/newtoff/ghost
      stencil: half/ghost/bin/3d/newtoff
      bin: standard
  (2) fix qeq/reax, perpetual, copy from (1)
      attributes: half, newton off, ghost
      pair build: copy
      stencil: none
      bin: none
Per MPI rank memory allocation (min/avg/max) = 18.19 | 18.23 | 18.29 Mbytes
Step Temp E_pair E_mol TotEng Press 
       0            0   -14638.789            0   -14638.789    3304.0948 
      62            0   -14714.632            0   -14714.632    7226.6421 
Loop time of 1.09645 on 8 procs for 62 steps with 81 atoms

99.5% CPU use with 8 MPI tasks x no OpenMP threads

Minimization stats:
  Stopping criterion = energy tolerance
  Energy initial, next-to-last, final = 
        -14638.7892146     -14714.6315666     -14714.6315946
  Force two-norm initial, final = 420.314 71.9632
  Force max component initial, final = 200.327 31.1609
  Final line search alpha, max atom move = 0.00221277 0.0689519
  Iterations, force evaluations = 62 432

MPI task timing breakdown:
Section |  min time  |  avg time  |  max time  |%varavg| %total
---------------------------------------------------------------
Pair    | 0.82414    | 0.8291     | 0.83743    |   0.5 | 75.62
Neigh   | 0          | 0          | 0          |   0.0 |  0.00
Comm    | 0.0090098  | 0.017401   | 0.022523   |   3.2 |  1.59
Output  | 0.00014145 | 0.00018133 | 0.00029397 |   0.0 |  0.02
Modify  | 0.24741    | 0.24747    | 0.2475     |   0.0 | 22.57
Other   |            | 0.002303   |            |       |  0.21

Nlocal:    10.125 ave 11 max 10 min
Histogram: 7 0 0 0 0 0 0 0 0 1
Nghost:    560.375 ave 564 max 557 min
Histogram: 1 1 0 0 4 0 0 0 0 2
Neighs:    1088.25 ave 1182 max 1066 min
Histogram: 5 2 0 0 0 0 0 0 0 1

Total # of neighbors = 8706
Ave neighs/atom = 107.481
Neighbor list builds = 0
Dangerous builds = 0

###
min_style cg
minimize 1.0e-8 1.0e-8 100000 100000
WARNING: Using 'neigh_modify every 1 delay 0 check yes' setting during minimization (../min.cpp:190)
WARNING: Total cutoff < 2*bond cutoff. May need to use an increased neighbor list skin. (../pair_reaxc.cpp:413)
Per MPI rank memory allocation (min/avg/max) = 18.19 | 18.23 | 18.29 Mbytes
Step Temp E_pair E_mol TotEng Press 
      62            0   -14714.632            0   -14714.632    7226.6421 
     101            0    -14714.84            0    -14714.84    7937.2885 
Loop time of 1.17671 on 8 procs for 39 steps with 81 atoms

99.5% CPU use with 8 MPI tasks x no OpenMP threads

Minimization stats:
  Stopping criterion = energy tolerance
  Energy initial, next-to-last, final = 
        -14714.6315946     -14714.8395608     -14714.8395755
  Force two-norm initial, final = 71.9632 16.6611
  Force max component initial, final = 31.1609 4.67506
  Final line search alpha, max atom move = 0.000696578 0.00325655
  Iterations, force evaluations = 39 478

MPI task timing breakdown:
Section |  min time  |  avg time  |  max time  |%varavg| %total
---------------------------------------------------------------
Pair    | 0.90503    | 0.91099    | 0.91661    |   0.4 | 77.42
Neigh   | 0          | 0          | 0          |   0.0 |  0.00
Comm    | 0.0093525  | 0.014837   | 0.02098    |   3.1 |  1.26
Output  | 8.0239e-05 | 0.00010114 | 0.00016196 |   0.0 |  0.01
Modify  | 0.24857    | 0.2486     | 0.24862    |   0.0 | 21.13
Other   |            | 0.002185   |            |       |  0.19

Nlocal:    10.125 ave 11 max 10 min
Histogram: 7 0 0 0 0 0 0 0 0 1
Nghost:    563 ave 564 max 560 min
Histogram: 1 0 0 0 0 2 0 0 0 5
Neighs:    1091.5 ave 1195 max 1072 min
Histogram: 7 0 0 0 0 0 0 0 0 1

Total # of neighbors = 8732
Ave neighs/atom = 107.802
Neighbor list builds = 0
Dangerous builds = 0

###
fix 1 all box/relax aniso 0.0
min_style cg
minimize 1.0e-8 1.0e-8 100000 100000
WARNING: Using 'neigh_modify every 1 delay 0 check yes' setting during minimization (../min.cpp:190)
WARNING: Total cutoff < 2*bond cutoff. May need to use an increased neighbor list skin. (../pair_reaxc.cpp:413)
Per MPI rank memory allocation (min/avg/max) = 18.19 | 18.23 | 18.29 Mbytes
Step Temp E_pair E_mol TotEng Press Volume 
     101            0    -14714.84            0    -14714.84    7937.2885    2414.5532 
     215            0   -14715.465            0   -14715.465   -194.64045    2421.6479 
Loop time of 0.445603 on 8 procs for 114 steps with 81 atoms

99.5% CPU use with 8 MPI tasks x no OpenMP threads

Minimization stats:
  Stopping criterion = energy tolerance
  Energy initial, next-to-last, final = 
        -14714.8395755     -14715.4644162     -14715.4645241
  Force two-norm initial, final = 485.304 20.804
  Force max component initial, final = 292.03 8.27076
  Final line search alpha, max atom move = 1.71638e-05 0.000141958
  Iterations, force evaluations = 114 195

MPI task timing breakdown:
Section |  min time  |  avg time  |  max time  |%varavg| %total
---------------------------------------------------------------
Pair    | 0.36901    | 0.37166    | 0.37406    |   0.3 | 83.41
Neigh   | 0          | 0          | 0          |   0.0 |  0.00
Comm    | 0.0038374  | 0.0061921  | 0.0089291  |   2.2 |  1.39
Output  | 0.00019687 | 0.00029169 | 0.00048001 |   0.0 |  0.07
Modify  | 0.064348   | 0.064358   | 0.064372   |   0.0 | 14.44
Other   |            | 0.003105   |            |       |  0.70

Nlocal:    10.125 ave 11 max 10 min
Histogram: 7 0 0 0 0 0 0 0 0 1
Nghost:    563 ave 564 max 560 min
Histogram: 1 0 0 0 0 2 0 0 0 5
Neighs:    1091.5 ave 1195 max 1072 min
Histogram: 7 0 0 0 0 0 0 0 0 1

Total # of neighbors = 8732
Ave neighs/atom = 107.802
Neighbor list builds = 0
Dangerous builds = 0

unfix 1
###
min_style cg
minimize 1.0e-8 1.0e-8 100000 100000
WARNING: Using 'neigh_modify every 1 delay 0 check yes' setting during minimization (../min.cpp:190)
WARNING: Total cutoff < 2*bond cutoff. May need to use an increased neighbor list skin. (../pair_reaxc.cpp:413)
Per MPI rank memory allocation (min/avg/max) = 18.19 | 18.23 | 18.29 Mbytes
Step Temp E_pair E_mol TotEng Press 
     215            0   -14715.465            0   -14715.465   -194.64045 
     257            0   -14715.613            0   -14715.613    2698.0267 
Loop time of 1.23656 on 8 procs for 42 steps with 81 atoms

99.5% CPU use with 8 MPI tasks x no OpenMP threads

Minimization stats:
  Stopping criterion = energy tolerance
  Energy initial, next-to-last, final = 
        -14715.4645241     -14715.6127551      -14715.612829
  Force two-norm initial, final = 16.9705 11.3045
  Force max component initial, final = 4.78309 3.14126
  Final line search alpha, max atom move = 7.87393e-05 0.00024734
  Iterations, force evaluations = 42 505

MPI task timing breakdown:
Section |  min time  |  avg time  |  max time  |%varavg| %total
---------------------------------------------------------------
Pair    | 0.96205    | 0.96623    | 0.97484    |   0.4 | 78.14
Neigh   | 0          | 0          | 0          |   0.0 |  0.00
Comm    | 0.00934    | 0.017778   | 0.021883   |   2.8 |  1.44
Output  | 9.12e-05   | 0.00011564 | 0.0001852  |   0.0 |  0.01
Modify  | 0.24998    | 0.25004    | 0.25008    |   0.0 | 20.22
Other   |            | 0.002397   |            |       |  0.19

Nlocal:    10.125 ave 11 max 10 min
Histogram: 7 0 0 0 0 0 0 0 0 1
Nghost:    565.25 ave 568 max 564 min
Histogram: 5 0 0 0 0 0 0 2 0 1
Neighs:    1090.5 ave 1191 max 1072 min
Histogram: 7 0 0 0 0 0 0 0 0 1

Total # of neighbors = 8724
Ave neighs/atom = 107.704
Neighbor list builds = 0
Dangerous builds = 0

###
fix 1 all box/relax aniso 0.0
min_style cg
minimize 1.0e-8 1.0e-8 100000 100000
WARNING: Using 'neigh_modify every 1 delay 0 check yes' setting during minimization (../min.cpp:190)
WARNING: Total cutoff < 2*bond cutoff. May need to use an increased neighbor list skin. (../pair_reaxc.cpp:413)
Per MPI rank memory allocation (min/avg/max) = 18.19 | 18.23 | 18.29 Mbytes
Step Temp E_pair E_mol TotEng Press Volume 
     257            0   -14715.613            0   -14715.613    2698.0267    2421.6479 
     282            0   -14715.648            0   -14715.648   -48.387071    2423.0904 
Loop time of 0.23832 on 8 procs for 25 steps with 81 atoms

99.4% CPU use with 8 MPI tasks x no OpenMP threads

Minimization stats:
  Stopping criterion = energy tolerance
  Energy initial, next-to-last, final = 
         -14715.612829     -14715.6474272     -14715.6475488
  Force two-norm initial, final = 165.701 14.1802
  Force max component initial, final = 100.145 5.31521
  Final line search alpha, max atom move = 2.75529e-05 0.00014645
  Iterations, force evaluations = 25 103

MPI task timing breakdown:
Section |  min time  |  avg time  |  max time  |%varavg| %total
---------------------------------------------------------------
Pair    | 0.19669    | 0.19772    | 0.19961    |   0.2 | 82.97
Neigh   | 0          | 0          | 0          |   0.0 |  0.00
Comm    | 0.0018175  | 0.0036763  | 0.0046995  |   1.4 |  1.54
Output  | 5.6556e-05 | 7.0792e-05 | 0.0001122  |   0.0 |  0.03
Modify  | 0.035388   | 0.035397   | 0.035406   |   0.0 | 14.85
Other   |            | 0.001451   |            |       |  0.61

Nlocal:    10.125 ave 11 max 10 min
Histogram: 7 0 0 0 0 0 0 0 0 1
Nghost:    565.25 ave 568 max 564 min
Histogram: 5 0 0 0 0 0 0 2 0 1
Neighs:    1090.75 ave 1192 max 1073 min
Histogram: 7 0 0 0 0 0 0 0 0 1

Total # of neighbors = 8726
Ave neighs/atom = 107.728
Neighbor list builds = 0
Dangerous builds = 0

unfix 1
###
min_style cg
minimize 1.0e-8 1.0e-8 100000 100000
WARNING: Using 'neigh_modify every 1 delay 0 check yes' setting during minimization (../min.cpp:190)
WARNING: Total cutoff < 2*bond cutoff. May need to use an increased neighbor list skin. (../pair_reaxc.cpp:413)
Per MPI rank memory allocation (min/avg/max) = 18.19 | 18.23 | 18.29 Mbytes
Step Temp E_pair E_mol TotEng Press 
     282            0   -14715.648            0   -14715.648   -48.387071 
     288            0    -14715.65            0    -14715.65    -27.87488 
Loop time of 0.250247 on 8 procs for 6 steps with 81 atoms

99.5% CPU use with 8 MPI tasks x no OpenMP threads

Minimization stats:
  Stopping criterion = energy tolerance
  Energy initial, next-to-last, final = 
        -14715.6475488     -14715.6497118     -14715.6497904
  Force two-norm initial, final = 11.462 12.2821
  Force max component initial, final = 3.4677 4.6587
  Final line search alpha, max atom move = 2.71679e-06 1.26567e-05
  Iterations, force evaluations = 6 104

MPI task timing breakdown:
Section |  min time  |  avg time  |  max time  |%varavg| %total
---------------------------------------------------------------
Pair    | 0.19931    | 0.20022    | 0.20202    |   0.2 | 80.01
Neigh   | 0          | 0          | 0          |   0.0 |  0.00
Comm    | 0.001949   | 0.0037274  | 0.0046365  |   1.3 |  1.49
Output  | 0          | 0          | 0          |   0.0 |  0.00
Modify  | 0.04578    | 0.045784   | 0.045789   |   0.0 | 18.30
Other   |            | 0.00051    |            |       |  0.20

Nlocal:    10.125 ave 11 max 10 min
Histogram: 7 0 0 0 0 0 0 0 0 1
Nghost:    565.25 ave 568 max 564 min
Histogram: 5 0 0 0 0 0 0 2 0 1
Neighs:    1090.5 ave 1191 max 1072 min
Histogram: 7 0 0 0 0 0 0 0 0 1

Total # of neighbors = 8724
Ave neighs/atom = 107.704
Neighbor list builds = 0
Dangerous builds = 0

undump 1
#############
#----------- Thermo ------------
reset_timestep 0
thermo  200

thermo_style    custom step temp etotal ke pe press
velocity all create 300 12345 mom yes rot yes
fix 1 all npt temp 300 300 25.0 iso 0.0 0.0 250.0

variable vpe equal pe
variable vtemp equal temp
variable vstep equal step

fix output all print 2500 "${vstep} ${vtemp} ${vpe}" file temp-tpdh-Pt.dat screen no

dump 1 all custom 2500 thermo-tpdh-Pt.lammpstrj id type x y z

run 1000000
WARNING: Total cutoff < 2*bond cutoff. May need to use an increased neighbor list skin. (../pair_reaxc.cpp:413)
Per MPI rank memory allocation (min/avg/max) = 17.06 | 17.11 | 17.17 Mbytes
Step Temp TotEng KinEng PotEng Press 
       0          300    -14644.11    71.539441    -14715.65    1321.7367 
     200    229.48045   -14616.664     54.72301   -14671.387   -9380.6407 
     400    319.47219   -14573.952    76.182874   -14650.135    3586.7598 
     600    340.41105   -14555.505    81.176054   -14636.681   -17424.103 
     800     294.5948   -14579.402    70.250492   -14649.652   -15093.501 
    1000     356.8635   -14565.359    85.099385   -14650.458   -248.85657 
    1200    265.70598   -14572.979    63.361524    -14636.34   -16993.265 
    1400    246.77907   -14586.813    58.848122   -14645.662   -3769.2125 
    1600    311.72058   -14562.742    74.334388   -14637.077    4090.9378 
    1800    293.33827   -14573.538    69.950854   -14643.489   -11110.426 
    2000    318.54758   -14576.622    75.962386   -14652.584    5131.1929 
    2200    261.27331    -14592.26    62.304489   -14654.565    -13642.75 
    2400    279.70063   -14572.863    66.698755   -14639.562    2480.8518 
    2600    288.47628   -14569.184    68.791441   -14637.975    2986.4646 
    2800    282.19582   -14589.264    67.293772   -14656.558   -6390.6292 
    3000    296.39514   -14568.517     70.67981   -14639.197   -4086.5325 
    3200    319.44734   -14566.426    76.176948   -14642.603    12475.325 
    3400     257.0078   -14583.163    61.287316    -14644.45    26308.446 
    3600    303.07869   -14565.293    72.273601   -14637.567    6689.2566 
    3800    398.43339   -14532.834     95.01234   -14627.847   -1666.8656 
    4000    329.98938   -14566.348    78.690852   -14645.039    -6214.218 
    4200    307.11275   -14583.733    73.235583   -14656.969    15993.829 
    4400    301.29603   -14577.667    71.848498   -14649.516    7078.8096 
    4600     301.4619   -14563.181    71.888053   -14635.069     6710.156 
    4800    298.24731   -14578.281    71.121487   -14649.403    4019.9092 
    5000    328.17046    -14574.66    78.257105   -14652.917    18480.619 
    5200    324.34789   -14558.604    77.345556    -14635.95   -9237.1495 
    5400    306.88914   -14563.542    73.182259   -14636.724   -9530.0181 
    5600     319.2372    -14576.97    76.126837   -14653.097    -12295.08 
    5800    320.27863   -14563.784    76.375181    -14640.16   -4169.1662 
    6000    309.16491   -14558.835    73.724949    -14632.56   -10292.664 
    6200    260.22932   -14580.241    62.055533   -14642.297   -8832.5691 
    6400    301.70051   -14565.148    71.944953   -14637.093      2290.44 
    6600    371.11108   -14547.454    88.496931   -14635.951   -11609.482 
    6800    304.37299   -14576.561    72.582246   -14649.143    7990.8622 
    7000    319.11332   -14581.614    76.097296   -14657.711   -8751.6016 
    7200    328.91108    -14563.03    78.433717   -14641.463    4280.7358 
    7400     310.0633   -14566.276    73.939184   -14640.215   -5160.7748 
    7600    290.14266   -14578.605    69.188812   -14647.794    627.59901 
    7800    294.33632   -14563.142    70.188853   -14633.331    3576.8567 
    8000    274.85524   -14573.297    65.543302    -14638.84    -11378.82 
    8200    272.95723    -14581.32    65.090693   -14646.411    9978.1941 
    8400    302.70226   -14562.016    72.183836     -14634.2   -14874.944 
    8600    288.14971   -14575.529    68.713564   -14644.243    9802.4455 
    8800    299.12567   -14568.487    71.330943   -14639.818    10873.803 
    9000    315.67053   -14553.628    75.276312   -14628.905   -16520.434 
    9200    291.63235   -14575.923     69.54405   -14645.467   -16045.404 
    9400     297.8567   -14568.749     71.02834   -14639.778   -587.24519 
    9600    296.76221   -14560.217    70.767341   -14630.984    15954.187 
    9800    322.32211    -14572.63    76.862479   -14649.492    1415.9646 
   10000    303.56323   -14572.057    72.389147   -14644.446    2395.1294 
   10200    354.21397   -14553.977    84.467565   -14638.444   -6754.9799 
   10400    292.11358   -14579.013    69.658808   -14648.671     10479.88 
   10600    317.07425    -14577.68    75.611048   -14653.291    10335.187 
   10800    363.43352   -14559.925    86.666103   -14646.591   -2193.7684 
   11000    295.12797   -14570.388    70.377635   -14640.766     23147.83 
   11200    292.80791   -14580.979    69.824381   -14650.803    3077.1602 
   11400     310.9778    -14553.75    74.157261   -14627.907    2737.0064 
   11600    321.15534   -14572.463    76.584246   -14649.048   -4189.1993 
   11800    298.30301   -14578.061    71.134768   -14649.195   -7010.2505 
   12000    337.71866   -14568.955    80.534014   -14649.489     2209.722 
   12200    361.00397   -14560.348    86.086741   -14646.435    -21695.18 
   12400    292.59307   -14582.067    69.773149    -14651.84   -2240.7372 
   12600    309.56686   -14568.466      73.8208   -14642.287   -16213.252 
   12800    302.50849   -14563.605    72.137627   -14635.742    13810.719 
   13000    271.85567   -14574.609    64.828009   -14639.437    13898.107 
   13200    282.49225   -14569.445    67.364458   -14636.809   -3288.2157 
   13400    280.26933    -14566.28     66.83437   -14633.115    -16897.22 
   13600    238.60903   -14584.268    56.899857   -14641.168    -2942.374 
   13800    310.71406   -14562.815    74.094367    -14636.91   -2200.6281 
   14000    314.55079   -14565.989    75.009294   -14640.998   -19718.744 
   14200    297.73335   -14578.407    70.998925   -14649.406   -7232.0319 
   14400    338.66109   -14555.167     80.75875   -14635.926    -17683.15 
   14600    293.63884   -14570.973    70.022529   -14640.996   -9563.7009 
   14800    257.76187   -14583.355    61.467133   -14644.822   -2664.9046 
   15000    312.73079   -14565.738    74.575287   -14640.313   -7512.7511 
   15200    292.14872   -14567.464    69.667187   -14637.131    5168.8403 
   15400    270.32158   -14591.384    64.462183   -14655.846     1114.898 
   15600    254.63433    -14581.44    60.721325   -14642.161   -6293.1071 
   15800    265.48059   -14570.988    63.307777   -14634.296    3508.9586 
   16000    335.44444   -14554.488    79.991694    -14634.48    160.57573 
   16200    262.41103   -14581.015    62.575794   -14643.591    15391.014 
   16400    310.15032   -14568.336    73.959936   -14642.296    838.57411 
   16600    373.99659   -14546.897    89.185023   -14636.082    19147.136 
   16800    313.78709   -14572.168    74.827178   -14646.995    3390.2559 
   17000    299.11222   -14576.913    71.327737   -14648.241   -12393.334 
   17200    293.25409   -14579.926    69.930779   -14649.856    13109.604 
   17400     339.4961   -14556.642    80.957871     -14637.6   -1594.2245 
   17600    336.15109   -14570.229    80.160205   -14650.389   -5182.1059 
   17800    311.89683   -14573.539    74.376417   -14647.916   -8179.1772 
   18000    284.18006   -14563.733    67.766942     -14631.5    8525.2936 
   18200    346.83128   -14559.124    82.707054   -14641.831    11699.202 
   18400    263.33292   -14580.231    62.795634   -14643.027   -1618.6518 
   18600    313.27265   -14573.877    74.704502   -14648.582   -4808.0289 
   18800    310.22694   -14559.452    73.978207    -14633.43   -3613.2896 
   19000    278.00237   -14585.752     66.29378   -14652.045    58.924768 
   19200    310.45974   -14571.889    74.033721   -14645.922    3437.8184 
   19400    314.22253   -14564.431    74.931015   -14639.362    7055.0651 
   19600    257.89808    -14591.62    61.499614    -14653.12    4553.0417 
   19800    279.46691   -14579.894    66.643022   -14646.537   -7244.0107 
   20000    308.48711   -14569.209    73.563318   -14642.772   -855.38676 
   20200    242.69236   -14579.891    57.873586   -14637.764   -8359.1696 
   20400    267.40962   -14588.044    63.767783   -14651.812    1558.3171 
   20600    342.84577   -14569.351    81.756649   -14651.107   -18567.125 
   20800    331.82262   -14567.842    79.128015    -14646.97   -3781.3762 
   21000    292.75403   -14580.159    69.811532   -14649.971    4150.9853 
   21200    302.53953   -14585.871    72.145029   -14658.016    12413.732 
   21400    349.34054   -14563.477    83.305424   -14646.783    13094.392 
   21600    303.32595   -14568.089    72.332563   -14640.421    12353.633 
   21800    275.82668   -14590.797    65.774955   -14656.572    6916.1384 
   22000    328.88789   -14577.691    78.428187    -14656.12    2296.6885 
   22200    277.29974   -14569.797    66.126228   -14635.923   -2106.3148 
   22400    348.90456   -14559.968    83.201457    -14643.17   -576.43133 
   22600    284.55716   -14576.746    67.856867   -14644.603   -21834.155 
   22800    281.78188   -14577.029     67.19506   -14644.224   -1013.7359 
   23000    347.79592   -14560.881    82.937085   -14643.818   -3199.3718 
   23200    267.78769   -14574.959    63.857938   -14638.817   -10702.838 
   23400    262.15547   -14588.717    62.514853   -14651.231    2276.4551 
   23600    306.02787   -14564.103    72.976876   -14637.079    2451.9512 
   23800    306.45823   -14574.281    73.079502    -14647.36    18136.285 
   24000    251.93873   -14594.869     60.07852   -14654.947     11288.14 
   24200    262.98247    -14581.63    62.712064   -14644.342    4567.7937 
   24400    281.14855   -14565.695    67.044033   -14632.739    18713.963 
   24600    290.20339   -14571.388    69.203294   -14640.591   -6959.5655 
   24800    290.87152   -14575.063    69.362619   -14644.426    4042.0312 
   25000    313.21633   -14557.186     74.69107   -14631.877   -2288.6663 
   25200    290.67442   -14573.014    69.315619   -14642.329    23117.668 
   25400    328.96902   -14577.735    78.447533   -14656.182    8983.3992 
   25600    346.38354   -14560.572    82.600283   -14643.172   -10813.638 
   25800    270.78013   -14575.781    64.571532   -14640.353    -5759.161 
   26000    273.53294   -14581.813     65.22798   -14647.041   -8997.3828 
   26200    319.58323   -14562.736    76.209353   -14638.946   -15460.404 
   26400    339.40267   -14560.586    80.935591   -14641.522    3911.7074 
   26600    259.98222   -14582.392    61.996609   -14644.389   -22437.621 
   26800    288.49288   -14569.638    68.795399   -14638.434    -12664.74 
   27000    297.39038   -14554.654    70.917138   -14625.571    4908.0928 
   27200    268.21513   -14581.185    63.959869   -14645.145   -15097.631 
   27400    323.00621   -14567.085    77.025614   -14644.111   -3827.1206 
   27600    354.39596   -14563.697    84.510962   -14648.208   -2649.9006 
   27800    287.35011   -14582.855    68.522887   -14651.378    7118.6277 
   28000    322.17959   -14565.151    76.828492   -14641.979    -9037.981 
   28200    324.34669   -14567.835     77.34527    -14645.18   -1849.5645 
   28400    284.49361   -14573.309    67.841712   -14641.151    11425.215 
   28600      305.857   -14573.354    72.936129    -14646.29    2927.6685 
   28800    363.31255   -14562.167    86.637256   -14648.804    22343.082 
   29000    337.03602   -14579.837    80.371227   -14660.209   -9415.8202 
   29200    311.96281   -14578.537     74.39215   -14652.929   -14656.015 
   29400    322.40493   -14564.694    76.882229   -14641.577     7604.234 
   29600    282.86412    -14582.69    67.453137   -14650.143     3453.478 
   29800    308.06215   -14572.181    73.461981   -14645.643    4033.3895 
   30000    323.95479   -14575.523    77.251816   -14652.775    903.91585 
   30200    296.94837   -14587.095    70.811734   -14657.906    230.71728 
   30400    311.68652   -14562.186    74.326265   -14636.513   -9566.0922 
   30600    315.10147    -14572.34     75.14061   -14647.481    8359.5441 
   30800    317.89793   -14577.311    75.807469   -14653.118    16928.843 
   31000     287.7708   -14565.067    68.623208    -14633.69   -12618.781 
   31200    329.22685   -14559.592    78.509016   -14638.101    7020.2012 
   31400    288.69287   -14577.733    68.843088   -14646.576     2739.725 
   31600    303.08554   -14576.759    72.275234   -14649.034    1546.7025 
   31800    307.55556   -14558.634    73.341177   -14631.976   -6153.3047 
   32000    276.14853   -14581.144    65.851705   -14646.996   -551.12355 
   32200    297.27652   -14574.772    70.889987   -14645.662   -7479.7688 
   32400    323.48855   -14564.276    77.140635   -14641.417   -8135.3388 
   32600    282.79787   -14585.329    67.437338   -14652.767   -6815.1707 
   32800    295.69066   -14584.638    70.511816    -14655.15    3227.9734 
   33000    317.00542   -14570.325    75.594635    -14645.92   -8089.7156 
   33200    309.19447   -14578.771       73.732   -14652.503   -10488.835 
   33400    248.21717   -14594.512    59.191058   -14653.703   -6515.7748 
   33600    307.24881   -14570.292    73.268028    -14643.56   -159.55255 
   33800    280.77641   -14573.551    66.955291   -14640.506     6882.154 
   34000    288.49154   -14583.846    68.795079   -14652.641   -5618.2349 
   34200    279.65681    -14559.44    66.688306   -14626.128    13609.534 
   34400    287.20756   -14577.584    68.488896   -14646.073    7238.1321 
   34600    270.31902    -14575.21    64.461572   -14639.672    -3775.869 
   34800    317.66492   -14569.934    75.751904   -14645.686   -9107.7007 
   35000    280.97043   -14589.887    67.001558   -14656.888   -4691.6622 
   35200    295.87103   -14577.388    70.554827   -14647.943    1024.9214 
   35400    342.37328   -14571.346    81.643977    -14652.99   -20746.468 
   35600    275.89493   -14589.983     65.79123   -14655.774   -2437.4175 
   35800    284.77504   -14574.629    67.908823   -14642.538   -580.14677 
   36000    299.69997    -14569.21    71.467894   -14640.678   -4457.1819 
   36200    303.21512   -14583.384    72.306135    -14655.69   -15699.747 
   36400    293.88088   -14577.613    70.080247   -14647.693   -2817.6571 
   36600    298.12574   -14564.229    71.092497   -14635.322    501.90547 
   36800    273.99817   -14581.974    65.338921   -14647.312   -1750.9639 
   37000    333.89021   -14569.037    79.621063   -14648.658    5938.0449 
   37200    328.10327   -14563.351    78.241082   -14641.593   -2957.7053 
   37400    306.31082    -14582.84    73.044351   -14655.884    6698.6543 
   37600    311.59386   -14572.226     74.30417    -14646.53   -6173.8918 
   37800    299.50895   -14564.596    71.422343   -14636.019    9513.1156 
   38000    283.33546   -14583.526    67.565534   -14651.092   -3509.3684 
   38200    322.08889   -14571.917    76.806865   -14648.724   -14024.794 
   38400    329.26162   -14555.111    78.517308   -14633.628   -1621.1146 
   38600    309.97053   -14580.282    73.917061   -14654.199   -3726.3886 
   38800    298.12236   -14569.582    71.091691   -14640.674    14174.262 
   39000    307.86038   -14563.088    73.413864   -14636.502   -1112.6094 
   39200    264.24545   -14587.892    63.013239   -14650.905    6003.0743 
   39400    300.21828    -14570.13    71.591493   -14641.722   -1734.6328 
   39600    304.57787   -14577.416    72.631101   -14650.047   -9201.4361 
   39800    280.22274   -14578.353    66.823261   -14645.176    418.04183 
   40000    330.31131   -14571.508    78.767623   -14650.276   -1578.5576 
   40200    308.81317    -14571.57    73.641073   -14645.211   -5916.2739 
   40400    249.25514   -14591.367    59.438577   -14650.805   -9227.2617 
   40600    310.34017   -14575.823    74.005208   -14649.828    17491.542 
   40800    314.57646    -14572.99    75.015413   -14648.006    8652.9741 
   41000    239.85353   -14594.871    57.196624   -14652.067    16542.408 
   41200    245.13582   -14584.441    58.456264   -14642.897     5883.033 
   41400    328.49892   -14572.295     78.33543    -14650.63   -1555.3241 
   41600    301.10861   -14580.024    71.803806   -14651.828   -12354.468 
   41800     272.7527   -14586.661    65.041919   -14651.703    -11898.16 
   42000    301.61456   -14569.663    71.924458   -14641.588    2773.4499 
   42200    272.85011    -14580.84    65.065149   -14645.905     3251.081 
   42400    303.11582   -14574.463    72.282454   -14646.745    2271.2748 
   42600    337.48371    -14565.39    80.477987   -14645.868   -4138.8214 
   42800    337.38287   -14579.309     80.45394   -14659.763    5130.9824 
   43000    253.93649    -14599.19    60.554916   -14659.744    973.58279 
   43200    275.47683   -14583.753    65.691528   -14649.444   -3810.2964 
   43400     295.6304   -14570.536    70.497445   -14641.033   -17294.486 
   43600     303.2163   -14579.692    72.306415   -14651.998    -5920.914 
   43800    271.23498   -14584.626    64.679997   -14649.306   -11377.362 
   44000    315.11293    -14571.16    75.143344   -14646.303   -7797.3613 
   44200    276.82084   -14581.225    66.012028   -14647.237    -886.1408 
   44400    259.37744   -14591.741    61.852391   -14653.593    9206.5144 
   44600    300.48919   -14578.129    71.656095   -14649.785   -360.70176 
   44800    292.39662   -14572.875    69.726302   -14642.602   -5321.3153 
   45000    304.10844   -14576.971    72.519159    -14649.49    17863.086 
   45200    268.62599    -14586.04    64.057844   -14650.098   -17963.971 
   45400    322.95702   -14564.178    77.013884   -14641.192    15991.093 
   45600    311.28053   -14572.088    74.229449   -14646.318    9374.5975 
   45800     303.9968   -14579.658    72.492538   -14652.151   -1297.9174 
   46000    305.90754   -14569.828    72.948182   -14642.776   -17081.278 
   46200    270.12513   -14583.892    64.415336   -14648.307   -15941.493 
   46400    284.18904   -14578.918    67.769084   -14646.687    -23593.29 
   46600    321.28989   -14566.389    76.616332   -14643.005   -5827.5437 
   46800    296.47286   -14580.205    70.698342   -14650.903    1588.2073 
   47000    327.18394   -14562.177    78.021855   -14640.199    -9101.235 
   47200    295.23511   -14564.646    70.403183   -14635.049    -6592.226 
   47400    289.77992   -14576.635    69.102313   -14645.738   -8797.0304 
   47600    323.76203   -14573.368    77.205849   -14650.574    -1647.047 
   47800    335.28603   -14562.661    79.953917   -14642.615   -4017.7128 
   48000    307.08746   -14579.917    73.229551   -14653.146    2625.9358 
   48200    265.75021   -14581.404    63.372071   -14644.776    3502.3867 
   48400    333.68427    -14566.52    79.571953   -14646.092   -5338.9759 
   48600    322.14327   -14561.656    76.819832   -14638.476    17.869417 
   48800    299.26433   -14578.698    71.364011   -14650.062    11439.122 
   49000    279.38508   -14573.704    66.623508   -14640.328     -2920.04 
   49200     319.0874   -14552.811    76.091113   -14628.902    2939.0997 
   49400    312.99068   -14573.382    74.637261    -14648.02   -13235.321 
   49600    292.80789   -14582.882    69.824377   -14652.707   -5734.4865 
   49800    305.71551   -14573.127    72.902389   -14646.029   -5344.6693 
   50000    365.35389   -14556.498    87.124043   -14643.622    1614.0709 
   50200    300.63934   -14581.879    71.691901    -14653.57   -8554.1931 
   50400    281.00568   -14573.655    67.009964   -14640.665    824.58541 
   50600    340.74299   -14549.909    81.255209   -14631.165     1272.646 
   50800    300.20857     -14580.2    71.589177   -14651.789    5455.1426 
   51000    297.13524   -14579.561    70.856296   -14650.417   -5464.3073 
   51200    334.98597   -14563.366    79.882363   -14643.249    7083.8382 
   51400    305.38279   -14573.461    72.823047   -14646.284    21660.456 
   51600    292.96671   -14582.306    69.862249   -14652.168   -3798.4245 
   51800    328.85289   -14558.091    78.419841   -14636.511    4153.0026 
   52000    343.98412   -14561.411    82.028106   -14643.439   -11533.768 
   52200    244.37481   -14585.304     58.27479   -14643.579   -2486.6643 
   52400    288.99162   -14577.913     68.91433   -14646.828    5946.4996 
   52600    313.05952   -14569.556    74.653676    -14644.21    11813.912 
   52800    287.11801   -14580.129     68.46754   -14648.597   -2280.4866 
   53000    343.70183   -14562.413    81.960789   -14644.374    6029.6674 
   53200    269.78405   -14577.251       64.334   -14641.585    11384.655 
   53400    274.63412   -14581.939    65.490571    -14647.43    17490.572 
   53600    348.84066   -14558.426    83.186221   -14641.612     9086.429 
   53800    305.40461     -14574.6     72.82825   -14647.428   -1653.1415 
   54000    323.93365   -14577.046    77.246774   -14654.293     1219.262 
   54200    328.16229   -14559.559    78.255157   -14637.815     -5734.54 
   54400     283.2094   -14579.665    67.535474     -14647.2     13593.38 
   54600    267.50523   -14581.799    63.790583   -14645.589    -10045.92 
   54800    319.03584   -14571.044    76.078819   -14647.123    2018.0222 
   55000    298.03774   -14574.819    71.071511   -14645.891   -5234.5094 
   55200    272.49842   -14589.867    64.981283   -14654.849   -13546.268 
   55400    301.98322   -14573.445    72.012368   -14645.457   -10140.794 
   55600    267.94844   -14566.233    63.896271   -14630.129   -8764.4069 
   55800    253.48649   -14586.966    60.447606   -14647.413    10366.809 
   56000    265.40117   -14581.823    63.288838   -14645.112    2649.7394 
   56200    293.45547   -14573.736    69.978802   -14643.715   -3005.8733 
   56400    300.03735   -14577.948    71.548349   -14649.497    2734.3143 
   56600    259.71127   -14596.691    61.931998   -14658.623    23255.045 
   56800    316.27895   -14573.255    75.421398   -14648.677   -10756.433 
   57000    334.54308   -14565.233    79.776751   -14645.009    2632.6635 
   57200    285.69512   -14581.275    68.128231   -14649.403    6769.6013 
   57400    256.04193   -14587.686    61.056988   -14648.743     7073.773 
   57600    350.60731   -14567.618    83.607503   -14651.225    5267.0847 
   57800    298.50536   -14577.262    71.183023   -14648.445    -7797.313 
   58000    296.56553   -14580.687    70.720442   -14651.408   -1178.2862 
   58200    295.81148   -14569.247    70.540626   -14639.788    321.85541 
   58400    252.34941   -14572.306    60.176453   -14632.482    11202.859 
   58600    259.92277   -14596.241    61.982433   -14658.224    10857.337 
   58800    306.13926   -14579.569    73.003439   -14652.572   -1613.9452 
   59000    268.66213   -14576.836    64.066463   -14640.902    11626.621 
   59200    292.07715   -14558.467     69.65012   -14628.117    7669.0438 
   59400    292.04682   -14573.792    69.642887   -14643.435   -5023.8302 
   59600    295.58644   -14585.396    70.486962   -14655.883    4648.5396 
   59800    286.73473   -14566.897    68.376141   -14635.273    14425.387 
   60000    309.72592   -14570.125    73.858731   -14643.984    8409.2105 
   60200    306.72114   -14579.488    73.142196    -14652.63    1231.2916 
   60400    311.15042    -14579.35    74.198423   -14653.548     10251.86 
   60600    320.30863   -14558.958    76.382335    -14635.34   -4108.3041 
   60800    299.94381   -14571.891    71.526043   -14643.417    222.06665 
   61000    285.01959   -14580.618    67.967142   -14648.585   -3920.1691 
   61200    290.58294   -14577.698    69.293803   -14646.992   -6467.3063 
   61400    270.32626   -14571.785    64.463299   -14636.249    12125.865 
   61600    347.62822   -14560.185    82.897095   -14643.082    4496.4633 
   61800    281.38129   -14579.177    67.099533   -14646.277     450.9312 
   62000     273.8196   -14575.439    65.296337   -14640.735   -4927.0817 
   62200    363.16772   -14560.069    86.602718   -14646.672   -1120.4432 
   62400     281.8877   -14577.236    67.220295   -14644.456   -2614.3671 
   62600    289.42837   -14577.647     69.01848   -14646.666   -15539.575 
   62800    334.29835   -14579.107    79.718391   -14658.825   -21271.397 
   63000    352.23815   -14566.996    83.996403   -14650.993   -6328.0365 
   63200    347.08576   -14571.686    82.767738   -14654.454    7061.4191 
   63400    286.81908   -14585.537    68.396255   -14653.933     4478.021 
   63600    325.75654   -14568.479    77.681469   -14646.161   -11639.252 
   63800    318.51246    -14571.59    75.954012   -14647.544   -16921.645 
   64000    277.24744   -14581.024    66.113757   -14647.137   -11207.932 
   64200    261.98704   -14595.015    62.474688    -14657.49    6458.3097 
   64400    262.99604   -14573.992      62.7153   -14636.707    666.67918 
   64600    262.31302   -14572.072    62.552424   -14634.624    22136.289 
   64800    262.07642    -14583.17    62.496001   -14645.666     16819.25 
   65000    292.56986   -14582.901    69.767614   -14652.669    7628.0664 
   65200    316.39588   -14566.931    75.449281    -14642.38   -9625.9835 
   65400     241.3982   -14587.387    57.564974   -14644.952    805.32291 
   65600    289.31515   -14580.538    68.991481   -14649.529   -17492.045 
   65800    348.18808   -14570.038    83.030603   -14653.068   -2574.7998 
   66000    331.42843   -14574.505    79.034015   -14653.539   -7715.6495 
   66200    242.18682   -14596.129    57.753033   -14653.882   -511.93276 
   66400    292.93328   -14577.776    69.854278    -14647.63    3995.3546 
   66600    343.78029   -14569.252    81.979498   -14651.231   -10094.156 
   66800    285.52077   -14586.428    68.086656   -14654.514    2879.2212 
   67000    346.41176   -14569.456    82.607012   -14652.063    13916.968 
   67200    295.59566   -14571.385    70.489161   -14641.874    11973.886 
   67400    243.68129   -14587.438     58.10941   -14645.548    15270.503 
   67600    288.32847   -14576.293    68.756191   -14645.049    4696.7148 
   67800    292.72828   -14578.202    69.805391   -14648.007    4737.0815 
   68000    261.22765   -14576.754    62.293601   -14639.048   -13065.298 
   68200    306.00411   -14565.272     72.97121   -14638.243   -2735.0243 
   68400    288.33331   -14581.764    68.757345   -14650.521   -5329.2319 
   68600    303.27686   -14582.887    72.320857   -14655.208   -5358.9657 
   68800     343.1284   -14556.497    81.824047   -14638.321   -18220.804 
   69000    293.28893   -14564.413    69.939088   -14634.353   -2566.4903 
   69200    328.16524    -14585.69    78.255859   -14663.946   -4055.1675 
   69400    273.51724   -14581.936    65.224236    -14647.16   -13048.004 
   69600    285.54597    -14566.51    68.092664   -14634.602    5341.0483 
   69800    298.78905   -14577.093    71.250672   -14648.344    1625.3812 
   70000    288.95531   -14585.433     68.90567   -14654.338   -206.77698 
   70200    296.67233   -14573.872    70.745908   -14644.618    5155.9384 
   70400    285.07909   -14571.046    67.981329   -14639.027    8530.8286 
   70600    282.47198   -14586.957    67.359625   -14654.316   -13264.256 
   70800    278.74191    -14585.86    66.470135    -14652.33   -10790.022 
   71000    320.45631   -14565.083     76.41755     -14641.5    10348.323 
   71200    257.29022   -14580.943    61.354662   -14642.297   -6054.7207 
   71400    303.52163   -14567.609    72.379227   -14639.988    -7376.066 
   71600    324.30955   -14575.401    77.336413   -14652.738    22356.683 
   71800    276.59985     -14582.5    65.959329   -14648.459    6536.4138 
   72000     327.2769   -14566.803    78.044021   -14644.847     17796.07 
   72200    292.41074   -14584.071    69.729671   -14653.801    7171.4925 
   72400    316.62218   -14560.512    75.503245   -14636.016    298.57352 
   72600    303.50158   -14566.548    72.374444   -14638.923    2914.6143 
   72800    291.57681   -14580.214    69.530807   -14649.745    23355.463 
   73000    343.40695   -14567.552    81.890471   -14649.443    10291.436 
   73200    335.21682   -14556.421    79.937413   -14636.358   -1175.2301 
   73400    295.38648   -14573.311    70.439279   -14643.751    9127.9509 
   73600    250.80191   -14588.404    59.807427   -14648.211    24063.662 
   73800    307.59136   -14563.504    73.349713   -14636.854    9114.6654 
   74000     333.8609   -14565.273    79.614075   -14644.888   -12273.175 
   74200    283.52425    -14584.83    67.610554   -14652.441    3689.4731 
   74400    299.96962   -14572.786    71.532196   -14644.319    18252.821 
   74600    347.18516   -14544.339    82.791442    -14627.13   -11255.629 
   74800    270.66729    -14569.21    64.544623   -14633.755   -13236.169 
   75000    293.23984   -14584.572    69.927382   -14654.499   -5020.6458 
   75200    314.23334   -14568.848    74.933591   -14643.782   -6996.2958 
   75400    311.59697     -14564.6    74.304909   -14638.905    9153.6495 
   75600    290.10417   -14589.948    69.179635   -14659.127    8235.7361 
   75800    290.62213   -14583.362     69.30315   -14652.665    6260.0257 
   76000    297.93652   -14565.851    71.047373   -14636.899    17003.412 
   76200    315.08789   -14564.372    75.137373   -14639.509     1108.909 
   76400    282.84082   -14577.669     67.44758   -14645.117   -9647.1795 
   76600    246.11776   -14585.333    58.690424   -14644.023   -3809.6508 
   76800     326.9362   -14565.358    77.962778   -14643.321    7259.5754 
   77000    266.95031   -14583.652    63.658254    -14647.31    3772.1637 
   77200    249.82864   -14577.503    59.575337   -14637.078   -15111.498 
   77400     345.9621   -14557.338    82.499783   -14639.838   -5380.3221 
   77600    331.43137   -14577.043    79.034717   -14656.078    5479.7326 
   77800    300.70848    -14572.25    71.708388   -14643.958    10485.868 
   78000    251.82106   -14592.155     60.05046   -14652.206    10285.797 
   78200    322.38057   -14571.236    76.876419   -14648.113   -1248.3803 
   78400    303.39353    -14576.18    72.348679   -14648.529   -4798.6506 
   78600    280.81887     -14585.1    66.965417   -14652.065   -9100.8314 
   78800    319.78837    -14569.16     76.25827   -14645.418   -10846.768 
   79000    309.11377   -14572.529    73.712754   -14646.242     9748.433 
   79200    274.51777   -14580.288    65.462825   -14645.751     19291.53 
   79400    304.05451   -14555.276    72.506299   -14627.782    7103.6568 
   79600    287.29205   -14567.022    68.509042   -14635.531    8554.4142 
   79800    277.78104   -14580.927    66.241001   -14647.168    10209.833 
   80000    302.72352   -14573.233    72.188905   -14645.422   -8369.0108 
   80200    310.71457   -14570.151    74.094489   -14644.246    -7804.663 
   80400    286.10788   -14581.082     68.22666   -14649.309   -11195.452 
   80600    290.08029   -14569.926     69.17394     -14639.1   -490.60174 
   80800    299.02007    -14568.26    71.305763   -14639.566   -15911.128 
   81000    259.35302   -14586.326    61.846568   -14648.173    13422.483 
   81200    298.07153   -14577.975    71.079569   -14649.055    17014.567 
   81400    342.58905   -14568.162     81.69543   -14649.858    553.01922 
   81600    329.18231   -14557.425    78.498395   -14635.924   -15402.512 
   81800    281.90074   -14583.026    67.223405   -14650.249   -7977.4717 
   82000    290.20041   -14575.177    69.202583   -14644.379    4026.0057 
   82200    306.25298   -14580.417    73.030557   -14653.447    5832.0875 
   82400    270.72211   -14593.332    64.557695    -14657.89    11941.597 
   82600    342.40752   -14572.511    81.652142   -14654.163   -17353.844 
   82800    242.10821   -14582.188    57.734286   -14639.922    -5602.451 
   83000    256.96738    -14583.37    61.277676   -14644.648   -3345.0136 
   83200    298.95389    -14563.03     71.28998    -14634.32    2577.9407 
   83400    290.65056   -14584.201    69.309929   -14653.511    5456.4128 
   83600    301.28845   -14578.057     71.84669   -14649.903   -6165.9218 
   83800    300.37979   -14571.122    71.630007   -14642.752    12472.943 
   84000    284.73241   -14577.887    67.898657   -14645.785    7083.0455 
   84200    324.07802   -14570.865    77.281201   -14648.146   -1349.9963 
   84400    282.94426   -14555.714    67.472249   -14623.186   -8728.7942 
   84600    285.34502   -14569.464    68.044743   -14637.509   -15658.309 
   84800    240.85811   -14582.558    57.436181   -14639.994   -1278.4468 
   85000    280.24631   -14570.817     66.82888   -14637.646   -10087.734 
   85200     295.9048   -14567.262    70.562881   -14637.824   -2252.2038 
   85400     309.2324   -14578.331    73.741043   -14652.072    7120.3762 
   85600     332.7505   -14571.233    79.349282   -14650.582   -17.139664 
   85800    330.10314   -14557.153    78.717981   -14635.871    5947.0726 
   86000    295.50272   -14576.843    70.466999    -14647.31    5082.6413 
   86200    303.67547    -14580.48    72.415911   -14652.896    14342.698 
   86400    338.23481   -14572.543    80.657099     -14653.2     9107.602 
   86600    307.04144   -14569.785    73.218577   -14643.004   -156.51505 
   86800    254.15819   -14589.097    60.607782   -14649.705    -3186.641 
   87000    291.41843   -14569.799    69.493039   -14639.292   -7446.4681 
   87200    288.83933   -14574.669    68.878015   -14643.547    2139.1226 
   87400    291.70894   -14582.084    69.562315   -14651.646   -7350.4513 
   87600    320.55836   -14562.922    76.441886   -14639.364    2859.4671 
   87800    267.19772   -14582.243    63.717251    -14645.96   -10575.191 
   88000    273.86276     -14580.2    65.306629   -14645.507    8658.7376 
   88200    325.40554   -14558.405    77.597769   -14636.003    18895.672 
   88400    310.72799    -14569.52    74.097689   -14643.618    10708.418 
   88600    292.06366   -14577.223    69.646905    -14646.87   -940.32465 
   88800    278.35477   -14588.311    66.377815   -14654.689    11445.987 
   89000    301.40684   -14571.116    71.874924   -14642.991   -4754.9494 
   89200    336.78306   -14570.929    80.310908    -14651.24    14375.274 
   89400    308.57088    -14577.36    73.583294   -14650.944    817.55657 
   89600    336.15809   -14569.571    80.161873   -14649.733   -12076.077 
   89800    302.31834   -14567.545    72.092283   -14639.637    4979.1952 
   90000    273.79558   -14586.383     65.29061   -14651.674   -6503.3756 
   90200     327.3004   -14566.507    78.049627   -14644.557    -4660.924 
   90400    324.02995    -14570.11     77.26974    -14647.38    5918.2188 
   90600     291.4239   -14577.832    69.494343   -14647.326   -1551.2921 
   90800    324.86279   -14552.834    77.468343   -14630.303    9783.5749 
   91000     342.6462   -14564.926    81.709059   -14646.635   -3020.2443 
   91200    304.61588    -14576.97    72.640167   -14649.611     4228.067 
   91400    314.34598   -14571.213    74.960452   -14646.174    3036.5356 
   91600    333.68374   -14564.817    79.571827   -14644.389   -5770.3853 
   91800     299.6762   -14583.189    71.462227   -14654.651    6852.3781 
   92000    341.62647   -14566.525     81.46589   -14647.991    11247.487 
   92200    348.92913   -14564.952    83.207318   -14648.159   -9486.5795 
   92400    321.40889   -14571.605    76.644709    -14648.25    701.62995 
   92600     271.8884   -14582.458    64.835815   -14647.294   -19783.878 
   92800    290.46706   -14590.619    69.266171   -14659.885    26734.103 
   93000    314.94257   -14568.799    75.102719   -14643.902    7174.0046 
   93200    317.81154    -14576.52    75.786866   -14652.307   -1812.5922 
   93400    277.60221   -14580.029    66.198358   -14646.227    5573.2019 
   93600    351.54553   -14560.003    83.831236   -14643.834    13529.786 
   93800    310.74132   -14579.505    74.100869   -14653.606    7752.9449 
   94000    285.89765   -14576.443    68.176527    -14644.62   -11350.026 
   94200    312.12514   -14558.835    74.430861   -14633.265   -17063.068 
   94400    294.29481    -14579.19    70.178955   -14649.369    -10221.36 
   94600    291.36125   -14577.996    69.479404   -14647.476   -8869.9054 
   94800    340.83791   -14555.676    81.277844   -14636.954    6225.0118 
   95000    294.63796   -14570.437    70.260784   -14640.698   -8548.4892 
   95200    286.12901   -14575.472    68.231698   -14643.704     11241.67 
   95400    285.04707   -14589.297    67.973694   -14657.271    6263.4763 
   95600    294.55592    -14577.23    70.241221   -14647.471   -1612.2037 
   95800    334.86428   -14569.541    79.853345   -14649.394   -10156.103 
   96000    286.83125   -14590.876    68.399158   -14659.276    13658.635 
   96200    334.62264   -14577.898    79.795721   -14657.694    3922.1181 
   96400    278.54194   -14570.714    66.422449   -14637.137   -12458.325 
   96600    321.20253   -14560.046    76.595499   -14636.641    7693.3195 
   96800    286.27348   -14576.151    68.266149   -14644.417   -3445.1904 
   97000    259.31793   -14585.195    61.838198   -14647.034   -11046.702 
   97200    295.90136   -14570.086    70.562061   -14640.648   -15108.926 
   97400    292.14083   -14570.643    69.665306   -14640.309   -3272.6662 
   97600    279.39105   -14581.219    66.624933   -14647.844    -12849.98 
   97800    257.84141   -14583.128    61.486101   -14644.614   -5997.4323 
   98000     326.4656   -14563.108    77.850554   -14640.959   -16744.897 
   98200    288.16752   -14583.561    68.717811   -14652.279   -12468.429 
   98400    312.00434   -14582.029    74.402054   -14656.431   -2411.7256 
   98600    358.69816   -14561.207    85.536887   -14646.744    295.52894 
   98800     287.6062   -14568.924    68.583955   -14637.508   -3177.9434 
   99000     323.3276   -14569.523    77.102252   -14646.625    -4455.402 
   99200    323.47247   -14581.839      77.1368   -14658.976   -3283.5607 
   99400    347.43124   -14560.446    82.850123   -14643.296    1091.6534 
   99600    276.99949   -14579.296     66.05463   -14645.351   -11775.272 
   99800    281.24367   -14582.914    67.066716   -14649.981   -7774.2702 
  100000    302.30983   -14572.071    72.090253   -14644.161    12577.775 
  100200    285.92546   -14584.762    68.183158   -14652.945   -2777.6977 
  100400    336.59945   -14573.122    80.267122    -14653.39     822.9055 
  100600    289.31231   -14572.072    68.990803   -14641.063   -4994.6119 
  100800    291.41815   -14581.458    69.492973   -14650.951   -5509.1422 
  101000    304.49777   -14571.044       72.612   -14643.656    62.845902 
  101200    316.30645   -14564.618    75.427956   -14640.046    9116.1745 
  101400    276.42788    -14583.07    65.918321   -14648.988     13794.38 
  101600     310.5253   -14564.885    74.049354   -14638.935    225.18789 
  101800    356.74731   -14565.785    85.071677   -14650.857    11842.305 
  102000    326.67032   -14576.351    77.899374   -14654.251   -16279.631 
  102200    278.28254   -14587.557    66.360592   -14653.918   -8604.9083 
  102400    291.25516    -14586.71    69.454106   -14656.165   -11690.315 
  102600     322.8541   -14569.019    76.989339   -14646.008    13183.803 
  102800    261.68821    -14580.74    62.403427   -14643.143   -2217.1171 
  103000    277.46495   -14582.129    66.165624   -14648.295   -4081.1514 
  103200    345.15039   -14574.242     82.30622   -14656.548    1978.3249 
  103400    321.08628   -14575.704    76.567777   -14652.272    14171.963 
  103600     306.1451   -14549.707    73.004832   -14622.712    8665.3022 
  103800    324.93624   -14569.874    77.485858    -14647.36   -4104.2475 
  104000    290.11469   -14579.285    69.182143   -14648.467    6704.6345 
  104200    340.04733   -14558.399    81.089321   -14639.489    7473.4617 
  104400    342.42076   -14569.263      81.6553   -14650.919    8572.6976 
  104600    298.36744   -14578.796    71.150134   -14649.946    7779.1886 
  104800    318.92129   -14574.579    76.051504   -14650.631    9210.6903 
  105000    256.86108    -14586.06    61.252328   -14647.313   -18952.181 
  105200    295.50477   -14565.936    70.467487   -14636.404   -4135.9196 
  105400    340.09143    -14567.19    81.099836    -14648.29    9272.8787 
  105600    313.53226   -14584.394    74.766409    -14659.16   -1483.4086 
  105800    332.78437   -14566.204     79.35736   -14645.561   -11134.699 
  106000    341.74323   -14575.484    81.493733   -14656.978   -3777.5884 
  106200    269.63406   -14597.192    64.298234    -14661.49   -10778.178 
  106400    276.98049   -14579.978    66.050099   -14646.028    2699.9609 
  106600    299.46306   -14567.888    71.411399     -14639.3   -9678.8544 
  106800    277.66825   -14580.327    66.214104   -14646.541    4217.0175 
  107000    246.23898    -14590.38    58.719329   -14649.099   -7770.2847 
  107200    294.81949   -14569.283    70.304072   -14639.587   -1898.7771 
  107400     292.3285   -14582.264    69.710059   -14651.974     9294.995 
  107600     279.7103    -14586.27    66.701063   -14652.972    18909.167 
  107800    326.85379   -14563.618    77.943125   -14641.561    13241.643 
  108000    265.26153   -14579.319     63.25554   -14642.575     9330.777 
  108200    277.41428   -14575.401    66.153542   -14641.554   -2167.7068 
  108400    318.17381   -14554.655    75.873256   -14630.529    4601.9419 
  108600    260.69473   -14578.493    62.166518   -14640.659   -6911.9377 
  108800    330.31816    -14573.56    78.769255   -14652.329   -8469.1968 
  109000    295.96422   -14569.718    70.577049   -14640.295   -2482.0676 
  109200    278.52408   -14587.911    66.418191   -14654.329    3294.9253 
  109400    343.29519   -14566.431     81.86382   -14648.294   -5049.8546 
  109600    316.21553   -14574.521    75.406275   -14649.927    2030.6861 
  109800    315.69703   -14583.609     75.28263   -14658.892    4198.2358 
  110000    325.00909    -14573.53    77.503229   -14651.033    16153.973 
  110200    297.46279    -14574.39    70.934406   -14645.324   -3055.9699 
  110400    273.01159   -14587.077    65.103654   -14652.181    1515.0336 
  110600    290.34372   -14579.226    69.236757   -14648.463   -11303.659 
  110800    280.55016   -14568.116    66.901339   -14635.017    10764.095 
  111000    257.80678   -14588.281    61.477843   -14649.759    4137.9522 
  111200    290.71461   -14581.254    69.325203    -14650.58   -2161.3435 
  111400    297.70542   -14571.997    70.992264   -14642.989   -1235.6728 
  111600    287.87294    -14580.52    68.647565   -14649.168   -1815.7523 
  111800    299.45239   -14571.978    71.408855   -14643.387    10222.749 
  112000     309.1165   -14563.128    73.713407   -14636.841    23496.091 
  112200    267.22195   -14581.572     63.72303   -14645.295   -1087.0884 
  112400    340.33617   -14570.099    81.158197   -14651.257    -2168.899 
  112600    357.99358   -14545.659    85.368869   -14631.028    12065.037 
  112800    272.72987   -14570.848    65.036474   -14635.885   -4494.1907 
  113000    269.48126   -14579.925    64.261795   -14644.186    388.17222 
  113200    273.70481   -14570.509    65.268963   -14635.778     2949.988 
  113400    348.05405   -14559.855    82.998641   -14642.854    5379.7768 
  113600    264.28313   -14580.659    63.022224   -14643.681   -1034.2799 
  113800    309.88569   -14575.108    73.896831   -14649.005   -2260.6924 
  114000    352.96876   -14557.522    84.170626   -14641.693   -3882.4981 
  114200    285.92142   -14581.377    68.182196   -14649.559   -1979.3881 
  114400    310.00273    -14568.41    73.924741   -14642.335   -4956.4307 
  114600    311.23156   -14559.166    74.217773   -14633.384   -2882.3576 
  114800    265.66828   -14579.333    63.352534   -14642.685   -4570.2196 
  115000    270.65189   -14568.115    64.540949   -14632.656    8705.9135 
  115200    267.85259   -14592.665    63.873416   -14656.538    320.44813 
  115400    295.32159   -14578.479    70.423806   -14648.902   -19409.452 
  115600    332.35338   -14567.029    79.254584   -14646.283   -949.70695 
  115800    319.34774   -14572.169    76.153197   -14648.323   -22137.123 
  116000    258.57217   -14591.501    61.660361   -14653.161   -33314.512 
  116200     342.3242   -14570.136    81.632272   -14651.768     2078.486 
  116400    386.68481   -14571.227    92.210717   -14663.438   -5071.1667 
  116600    299.18638   -14586.395    71.345423   -14657.741   -74.660304 
  116800    262.30167   -14587.216    62.549716   -14649.766    1.1437758 
  117000    325.06884    -14565.26    77.517477   -14642.778    17035.899 
  117200    269.76452    -14577.94    64.329344    -14642.27    22977.392 
  117400    227.59248   -14594.937    54.272796    -14649.21   -9827.2456 
  117600    316.03238   -14569.745    75.362601   -14645.108    5342.3318 
  117800    297.31432   -14575.358    70.899001   -14646.257     14905.05 
  118000    252.95061   -14589.657    60.319817   -14649.976   -8691.2147 
  118200    304.06557    -14571.05    72.508936   -14643.559    -4752.552 
  118400    286.34511   -14568.125    68.283231   -14636.408   -10786.652 
  118600    274.50656   -14582.112    65.460153   -14647.572    4648.4635 
  118800    280.54402   -14584.602    66.899874   -14651.502    9555.6031 
  119000    297.21336   -14566.562    70.874925   -14637.437   -1240.5125 
  119200    303.77292   -14576.593    72.439151   -14649.032    9908.3748 
  119400    290.36459    -14583.36    69.241735   -14652.601   -9703.4538 
  119600    323.62185   -14558.227    77.172421   -14635.399   -5718.9069 
  119800     305.8039   -14573.755    72.923467   -14646.679   -9905.3268 
  120000    321.84915   -14577.201    76.749696   -14653.951    2490.8174 
  120200    304.37018   -14576.658    72.581574    -14649.24    4456.6862 
  120400    278.58071   -14578.089    66.431694    -14644.52   -8434.0152 
  120600    355.54274   -14562.236    84.784431    -14647.02    6548.9787 
  120800    305.94043   -14570.679    72.956025   -14643.635    9125.8123 
  121000    284.03473   -14583.525    67.732286   -14651.257   -14492.109 
  121200    321.02038   -14562.968    76.552063    -14639.52    -10249.24 
  121400     299.9327   -14574.452    71.523393   -14645.975    -422.2703 
  121600    278.03949   -14579.252    66.302633   -14645.554     17079.19 
  121800    294.26134   -14574.556    70.170973   -14644.727    15002.695 
  122000    348.32668   -14564.738    83.063654   -14647.801   -6570.0684 
  122200    327.12299   -14578.881    78.007321   -14656.888   -1657.9618 
  122400    322.27835   -14564.038    76.852044    -14640.89    4361.3619 
  122600    367.69565   -14538.231    87.682472   -14625.914    -5087.859 
  122800    353.52832   -14566.535    84.304061   -14650.839    13996.289 
  123000     283.7986   -14582.354    67.675976    -14650.03    10780.187 
  123200    317.27593   -14568.032    75.659143   -14643.692    14132.333 
  123400    354.73146   -14558.371    84.590969   -14642.962    8086.2812 
  123600     286.0142    -14579.67    68.204319   -14647.874    3826.7271 
  123800    301.58928   -14572.965    71.918429   -14644.884   -16964.456 
  124000    356.15198   -14558.117    84.929713   -14643.047    23980.891 
  124200    293.27629   -14579.985    69.936072   -14649.921     4865.675 
  124400    343.37523   -14566.992    81.882908   -14648.875    19231.705 
  124600    285.14267   -14572.345     67.99649   -14640.341    15201.093 
  124800    306.35109   -14583.309    73.053952   -14656.363    15258.264 
  125000    288.71412    -14569.69    68.848156   -14638.538    9229.0838 
  125200    300.32941   -14576.842    71.617993    -14648.46    4613.3074 
  125400    272.14154   -14582.681     64.89618   -14647.577    3864.2895 
  125600    306.75515   -14573.384    73.150306   -14646.534    3121.8532 
  125800    344.60273   -14565.613    82.175623   -14647.789     11641.96 
  126000    280.12441   -14586.794    66.799811   -14653.594   -2776.8233 
  126200    302.66441   -14568.559    72.174808   -14640.734   -3595.4488 
  126400    310.55325   -14570.804    74.056021    -14644.86     -909.361 
  126600    316.02688    -14578.36    75.361288   -14653.722    10830.148 
  126800    295.81113   -14575.943    70.540544   -14646.484   -7034.7421 
  127000    324.91097   -14570.079    77.479831   -14647.559   -1017.7843 
  127200    288.33003   -14582.202    68.756563   -14650.958   -4333.9896 
  127400    309.84405   -14581.834    73.886902   -14655.721    6272.1049 
  127600    336.97413    -14565.61    80.356471   -14645.967   -15305.341 
  127800    266.26077   -14580.025    63.493822   -14643.519   -1466.4053 
  128000    248.80214   -14592.971    59.330554   -14652.302    8525.8963 
  128200    272.67119   -14575.325    65.022482   -14640.348   -7687.0251 
  128400    337.64589   -14567.409     80.51666   -14647.926   -954.46004 
  128600    249.28445   -14590.355    59.445566     -14649.8   -6821.1555 
  128800    313.21742   -14576.831     74.69133   -14651.523   -5451.6367 
  129000    312.46783   -14568.126     74.51258   -14642.638     1918.566 
  129200    275.39019   -14573.027    65.670867   -14638.698   -11030.664 
  129400    302.71633   -14576.401    72.187191   -14648.588   -9613.0365 
  129600    253.71444   -14589.189    60.501963   -14649.691    7592.0356 
  129800    327.04907   -14569.644    77.989692   -14647.634   -10319.123 
  130000    359.19537   -14574.256    85.655454   -14659.911   -15693.429 
  130200    273.30386   -14595.742    65.173352   -14660.916   -9135.5767 
  130400    289.06144   -14583.004     68.93098   -14651.935    7863.4968 
  130600    343.36378   -14568.371    81.880177   -14650.252    2326.5696 
  130800    282.40807   -14582.698    67.344385   -14650.043    12167.207 
  131000    263.71223   -14591.273    62.886085   -14654.159     8036.113 
  131200    329.63534   -14570.537    78.606426   -14649.143   -2664.6436 
  131400    277.95784    -14571.52    66.283163   -14637.803     -994.789 
  131600    273.39216   -14574.345    65.194409    -14639.54   -3758.7046 
  131800    285.07099   -14584.532    67.979397   -14652.511   -991.03904 
  132000    250.95023   -14589.417    59.842797   -14649.259   -12636.001 
  132200    313.69849    -14569.47    74.806049   -14644.276    9275.0056 
  132400    274.18335   -14578.284    65.383078   -14643.667   -6893.3331 
  132600    246.28855   -14592.058    58.731151    -14650.79    2040.0026 
  132800    294.36761   -14574.191    70.196315   -14644.388    9546.6402 
  133000    345.30408   -14567.383     82.34287   -14649.726   -14889.662 
  133200    290.46703   -14586.855    69.266163   -14656.121   -5821.7319 
  133400    301.45769   -14572.563     71.88705    -14644.45    11416.349 
  133600    286.55998   -14571.332     68.33447   -14639.667    19938.713 
  133800    284.46787   -14586.686    67.835576   -14654.521    5567.1098 
  134000    270.46014   -14592.371    64.495224   -14656.866    556.78746 
  134200    306.20088   -14568.574    73.018132   -14641.593    15464.834 
  134400    290.85825   -14575.849    69.359455   -14645.209    6590.8766 
  134600    278.18378   -14589.067     66.33704   -14655.404    6981.2434 
  134800    305.70579   -14576.461    72.900072   -14649.361    28516.916 
  135000    288.89425   -14573.521     68.89111   -14642.412    29.619068 
  135200    251.85308   -14593.246    60.058095   -14653.304   -2670.8178 
  135400    315.23175    -14566.69    75.171679   -14641.862   -11906.282 
  135600     332.8633   -14574.793    79.376182   -14654.169   -14145.934 
  135800    311.28073   -14578.663    74.229498   -14652.892   -6141.1971 
  136000    253.06993    -14572.08    60.348271   -14632.428   -3358.2721 
  136200    302.16317   -14573.115    72.055282    -14645.17   -10094.913 
  136400    252.59091   -14584.751    60.234041   -14644.985   -3899.0951 
  136600    284.07789   -14566.048    67.742579    -14633.79   -2593.4077 
  136800    272.52438   -14582.439    64.987473   -14647.426   -6337.9579 
  137000    254.72856   -14583.181    60.743796   -14643.925   -1989.6655 
  137200    306.98079   -14569.443    73.204114   -14642.647   -3489.0857 
  137400    297.37444   -14584.544    70.913338   -14655.457   -12254.875 
  137600     313.4415   -14582.247    74.744765   -14656.991   -8902.2784 
  137800    299.04908   -14569.634    71.312681   -14640.947    4954.0502 
  138000    290.33719   -14577.193    69.235202   -14646.428    11000.731 
  138200    301.21791   -14574.191    71.829871   -14646.021    3359.3161 
  138400    337.67029   -14555.977    80.522479     -14636.5    13221.544 
  138600    313.07218   -14578.015    74.656695   -14652.672   -2206.3806 
  138800    268.94597   -14575.231    64.134149   -14639.366    9914.8072 
  139000    311.13569   -14565.424    74.194912   -14639.619   -3540.5251 
  139200    284.47979    -14588.89    67.838417   -14656.728    1877.4992 
  139400    356.10688   -14569.364    84.918958   -14654.283    8564.3683 
  139600    319.39195   -14573.771    76.163739   -14649.935   -11173.974 
  139800    301.17599   -14579.801    71.819872   -14651.621    4146.6256 
  140000    291.97907   -14576.068    69.626733   -14645.695   -27444.876 
  140200    296.73226   -14570.455      70.7602   -14641.216   -7928.7612 
  140400    263.76015   -14580.621    62.897513   -14643.519    74.708361 
  140600    312.46136   -14581.803    74.511037   -14656.314     4332.946 
  140800      317.567   -14563.797    75.728553   -14639.526     1373.807 
  141000    299.56815   -14574.957     71.43646   -14646.393   -2660.1442 
  141200      286.528   -14579.153    68.326844    -14647.48   -10904.972 
  141400    316.24303   -14562.441    75.412833   -14637.854   -10801.633 
  141600    283.38596   -14577.523    67.577578     -14645.1   -9632.5531 
  141800    251.62042   -14582.496    60.002614   -14642.499   -8719.3182 
  142000    330.76247   -14558.423    78.875209   -14637.298     115.0135 
  142200    311.91035   -14559.943    74.379641   -14634.322    13561.574 
  142400    273.97685   -14580.223    65.333835   -14645.557    11692.906 
  142600    267.14587   -14581.072    63.704888   -14644.777    6322.8315 
  142800    322.99005   -14564.871    77.021759   -14641.893    5766.7744 
  143000    280.49592   -14589.011    66.888405   -14655.899   -6617.1114 
  143200     267.0851   -14576.971    63.690396   -14640.662    4536.2631 
  143400    313.69582    -14571.24    74.805413   -14646.045    19543.092 
  143600    303.95519   -14569.756    72.482616   -14642.239   -17445.599 
  143800    284.94251   -14585.869    67.948761   -14653.818     7641.324 
  144000      311.405   -14560.823    74.259133   -14635.082   -10425.637 
  144200    305.67197   -14568.874    72.892007   -14641.766   -563.09291 
  144400    280.58575   -14583.131    66.909825   -14650.041    3993.8102 
  144600    323.10727   -14563.619    77.049712   -14640.668    4793.0008 
  144800    251.93421   -14581.703    60.077443   -14641.781    -17009.53 
  145000    331.25965   -14573.002    78.993767   -14651.996    4700.1087 
  145200    351.45188    -14564.57    83.808903   -14648.379    5245.6986 
  145400    244.28657   -14589.607    58.253749    -14647.86    6876.7694 
  145600     270.2886   -14572.794    64.454319   -14637.249   -7955.8801 
  145800    305.90532   -14570.219    72.947653   -14643.167   -12699.765 
  146000    246.15001   -14594.875    58.698114   -14653.573    1349.9396 
  146200    268.68855   -14579.695    64.072763   -14643.768   -1119.9748 
  146400    322.69074   -14565.274    76.950383   -14642.224    6355.0921 
  146600    278.42117   -14577.808    66.393649   -14644.202    9479.6903 
  146800    290.58394   -14578.362    69.294041   -14647.656    959.00773 
  147000    341.94587   -14571.247    81.542055   -14652.789    18173.111 
  147200    318.58029    -14565.14    75.970185    -14641.11    5333.9505 
  147400    270.71081   -14580.648       64.555   -14645.203    12871.884 
  147600    301.21653   -14575.459    71.829541   -14647.288   -14103.762 
  147800    321.71571    -14574.78    76.717873   -14651.498    8384.0704 
  148000    280.20264   -14594.879    66.818469   -14661.698   -11081.872 
  148200    283.80829     -14581.5    67.678289   -14649.179   -10299.576 
  148400    266.60784   -14574.388    63.576587   -14637.964   -12469.663 
  148600    253.92866   -14581.695    60.553047   -14642.248   -9092.5045 
  148800    275.32177   -14580.889    65.654552   -14646.544    -9185.083 
  149000    294.04284   -14563.079    70.118868   -14633.198   -15740.025 
  149200    244.92375   -14589.096    58.405695   -14647.502    4259.9165 
  149400    269.05956   -14578.615    64.161234   -14642.776   -8168.1202 
  149600    305.16813   -14570.324    72.771857   -14643.096    713.26509 
  149800     259.4361   -14594.409    61.866378   -14656.275    2821.8706 
  150000    279.77441   -14581.652     66.71635   -14648.368    8173.3458 
  150200     330.8449   -14571.157    78.894864   -14650.052    8534.3873 
  150400    251.37545   -14581.959    59.944197   -14641.903   -913.17493 
  150600    236.24215   -14591.969    56.335439   -14648.304   -1267.0898 
  150800    350.02977    -14567.94     83.46978    -14651.41   -1699.4459 
  151000    296.79955   -14582.652    70.776246   -14653.428   -4598.4798 
  151200    311.63576   -14563.272    74.314161   -14637.586    7315.7052 
  151400    286.45976   -14558.658     68.31057   -14626.968   -20241.895 
  151600     276.1324   -14578.977    65.847859   -14644.825   -7142.3055 
  151800    345.50314   -14566.089     82.39034    -14648.48   -13443.549 
  152000     263.0585   -14584.457    62.730194   -14647.187   -1402.9466 
  152200    268.17541   -14584.212    63.950396   -14648.162    -6454.803 
  152400    320.11401    -14560.51    76.335925   -14636.846   -11009.805 
  152600    288.98651   -14578.605    68.913111   -14647.518   -14393.176 
  152800     315.9633   -14576.799    75.346127   -14652.145   -11417.176 
  153000    293.20306    -14575.82    69.918611   -14645.739    7383.5242 
  153200    301.61587   -14575.241     71.92477   -14647.166    8365.6441 
  153400    268.15884   -14586.322    63.946444   -14650.268    1739.7111 
  153600     317.9273   -14589.605    75.814472    -14665.42    5302.3845 
  153800    316.38909   -14570.516    75.447663   -14645.964    1362.1427 
  154000    298.43944   -14578.863    71.167303    -14650.03   -9521.8276 
  154200    288.17934   -14583.048     68.72063   -14651.769   -10338.109 
  154400    329.99775   -14562.246    78.692849   -14640.939   -2078.7349 
  154600     294.8948   -14584.561    70.322031   -14654.883       7534.1 
  154800    291.43494   -14576.492    69.496975   -14645.989    4401.9234 
  155000    270.42916   -14579.758    64.487837   -14644.246    8549.6617 
  155200    246.17121   -14593.366    58.703169   -14652.069   -6662.2776 
  155400    282.03996   -14576.245    67.256604   -14643.501    8462.5344 
  155600    319.11359     -14564.9    76.097361   -14640.997   -6240.2939 
  155800    254.27109   -14588.538    60.634705   -14649.173   -3506.7576 
  156000    285.55674   -14578.946    68.095232   -14647.041   -16887.381 
  156200    353.37597    -14562.68    84.267731   -14646.948   -997.57537 
  156400    295.82135   -14577.746     70.54298   -14648.289    26368.402 
  156600    326.96697   -14572.817    77.970114   -14650.787   -13424.863 
  156800     294.5817   -14550.613    70.247368    -14620.86   -8784.5867 
  157000    309.28635   -14575.313    73.753909   -14649.067     10925.93 
  157200    250.87681   -14580.367    59.825289   -14640.192   -1708.8524 
  157400    315.86079    -14562.81    75.321681   -14638.132   -13346.819 
  157600    368.75526   -14562.881    87.935151   -14650.817     7346.751 
  157800    284.58935    -14580.87    67.864545   -14648.735    -9097.025 
  158000    302.41715   -14563.339    72.115847   -14635.454   -7655.9154 
  158200    254.95461   -14583.344    60.797701   -14644.142   -5314.7596 
  158400    284.51294   -14581.398    67.846323   -14649.244     3749.486 
  158600    333.35607   -14569.664    79.493689   -14649.158   -9615.8631 
  158800    289.38794   -14582.564    69.008838   -14651.573    5994.5583 
  159000    274.21893   -14600.256    65.391563   -14665.648   -7580.4662 
  159200    287.28854   -14577.561    68.508206   -14646.069   -12930.626 
  159400    332.58063     -14566.4    79.308776   -14645.709     -9057.59 
  159600     268.9805   -14580.308    64.142382    -14644.45   -10561.787 
  159800    286.58289   -14584.999    68.339932   -14653.339   -4713.4426 
  160000     306.7265   -14562.608    73.143475   -14635.751    7134.1415 
  160200    261.31767   -14580.165    62.315066    -14642.48   -6648.6202 
  160400     326.6672   -14578.619     77.89863   -14656.517    8138.7569 
  160600    306.97447   -14558.239    73.202608   -14631.441    7451.6377 
  160800    287.75612    -14571.43    68.619707    -14640.05    21449.838 
  161000    303.75145    -14574.95    72.434031   -14647.384   -9359.0921 
  161200    323.61907   -14575.632    77.171757   -14652.803    11714.967 
  161400     294.9106   -14574.117    70.325799   -14644.443   -14597.671 
  161600    290.08632   -14586.166    69.175377   -14655.341    6555.3549 
  161800     301.0605    -14564.37    71.792333   -14636.162    4497.9275 
  162000    284.92502   -14574.163    67.944589   -14642.107    4025.7039 
  162200    307.90521   -14575.499    73.424554   -14648.923   -12058.347 
  162400    290.44497   -14559.631    69.260904   -14628.892     8718.775 
  162600    287.23354   -14565.165     68.49509    -14633.66    10658.793 
  162800    279.08938   -14581.615    66.552994   -14648.168    4206.3124 
  163000    341.11883   -14566.557    81.344834   -14647.902   -7517.0346 
  163200    294.89357   -14570.347    70.321738   -14640.668    2123.0185 
  163400    306.61155   -14574.377    73.116063   -14647.493    7792.0085 
  163600    242.31242   -14581.421    57.782984   -14639.204    10753.643 
  163800     342.9398    -14561.69    81.779073   -14643.469    2031.4608 
  164000    279.06453   -14577.882    66.547068   -14644.429    2618.4508 
  164200    288.42712   -14585.115    68.779717   -14653.895   -6948.9691 
  164400    306.57995   -14567.388    73.108527   -14640.496   -22880.297 
  164600    269.34019   -14579.171    64.228157   -14643.399    -13080.09 
  164800    271.09139   -14578.572    64.645756   -14643.218    4430.7058 
  165000    306.90481   -14565.834    73.185995    -14639.02   -2408.1748 
  165200    256.84743   -14579.499    61.249071   -14640.748   -7374.5596 
  165400    306.43047     -14582.1    73.072881   -14655.173   -3072.8514 
  165600    351.78016   -14559.579    83.887188   -14643.467     11428.14 
  165800    276.18127   -14572.716    65.859513   -14638.575    9876.8984 
  166000    282.18376   -14579.883    67.290894   -14647.174    2379.9957 
  166200    310.22006   -14561.638    73.976565   -14635.615   -8398.2809 
  166400    322.71279   -14570.344    76.955641     -14647.3   -9168.4135 
  166600    292.54648   -14582.226    69.762039   -14651.988   -349.20019 
  166800    333.16771   -14574.029    79.448773   -14653.478    4064.9475 
  167000    244.78396   -14581.079     58.37236   -14639.452    9503.5415 
  167200    275.21945   -14590.945    65.630152   -14656.575    13770.733 
  167400    293.82382    -14567.78    70.066639   -14637.847     -15298.1 
  167600    288.55244   -14579.127    68.809601   -14647.936   -6012.9425 
  167800    244.88247   -14587.156     58.39585   -14645.552    -1465.159 
  168000    296.16454   -14568.291    70.624818   -14638.915    2033.8784 
  168200    317.37983   -14568.575     75.68392   -14644.259    19336.546 
  168400    288.98878   -14586.992    68.913652   -14655.906    6948.0716 
  168600    304.47341   -14571.756    72.606193   -14644.362     2359.999 
  168800    276.66532   -14577.822    65.974941   -14643.797   -15725.591 
  169000     272.8623   -14589.291    65.068055   -14654.359    338.92467 
  169200    306.69382   -14566.766    73.135682   -14639.902   -1730.8713 
  169400    243.36573   -14578.461    58.034161   -14636.495    3674.6747 
  169600    335.09175   -14572.406    79.907587   -14652.314     712.8376 
  169800    312.75416   -14574.741     74.58086   -14649.322    801.13289 
  170000    264.31909   -14583.329    63.030799    -14646.36    17789.224 
  170200    302.94988   -14572.497    72.242885    -14644.74    7342.0671 
  170400    309.67446   -14563.398    73.846458   -14637.245    30070.989 
  170600    273.99373   -14590.468    65.337862   -14655.806   -2258.2519 
  170800    289.00824   -14572.941    68.918294   -14641.859    16980.184 
  171000     317.1284   -14567.032    75.623961   -14642.656    7905.6899 
  171200    283.52857   -14590.465    67.611586   -14658.077   -2004.6747 
  171400     322.8995   -14580.999    77.000167   -14657.999    -14862.29 
  171600    297.38321   -14573.691    70.915429   -14644.606    19389.614 
  171800    334.83284   -14572.816    79.845847   -14652.662      -6711.2 
  172000    258.74529    -14586.66    61.701645   -14648.362       498.64 
  172200    332.94796   -14566.176     79.39637   -14645.573     5279.236 
  172400    338.32067    -14571.17    80.677571   -14651.847    3259.2011 
  172600    279.61889   -14578.278    66.679264   -14644.957   -6041.6678 
  172800    343.82942   -14558.682    81.991214   -14640.673   -7327.5631 
  173000    310.77175   -14579.899    74.108125   -14654.007   -10272.912 
  173200    346.45511   -14575.578     82.61735   -14658.195   -10535.588 
  173400    311.10516   -14571.646     74.18763   -14645.834   -4898.5404 
  173600    274.52194   -14596.285     65.46382   -14661.749    8781.4544 
  173800    280.60461   -14581.841    66.914324   -14648.755   -12631.512 
  174000    334.89197    -14570.99    79.859948    -14650.85   -10550.196 
  174200    273.22395   -14589.357    65.154296   -14654.511   -19707.634 
  174400    298.83853   -14586.733    71.262472   -14657.996   -178.59209 
  174600    322.44365   -14567.075    76.891461   -14643.966    6939.1775 
  174800    308.49584   -14574.337    73.565401   -14647.903    23320.062 
  175000    257.17311   -14588.851    61.326734   -14650.178     16745.96 
  175200    319.94007   -14570.088    76.294445   -14646.383    14880.599 
  175400    312.47937   -14574.369    74.515332   -14648.885    -5955.005 
  175600    274.89402    -14591.05    65.552549   -14656.602    14087.954 
  175800    303.19515   -14569.539    72.301371    -14641.84   -6080.7653 
  176000    315.47137   -14568.711    75.228819    -14643.94   -7045.0329 
  176200     279.8358   -14586.147     66.73099   -14652.878   -4092.1176 
  176400    283.41526   -14573.148    67.584565   -14640.732    -7732.823 
  176600    281.12778   -14571.179    67.039081   -14638.218    16987.327 
  176800      306.631   -14578.484    73.120701   -14651.605    12684.209 
  177000     311.0569     -14578.1    74.176123   -14652.276    17765.171 
  177200    309.50435   -14562.081    73.805895   -14635.887    13923.314 
  177400    261.92574   -14586.142    62.460069   -14648.602    10150.581 
  177600    316.26058   -14570.371    75.417018   -14645.788   -20884.425 
  177800    340.16931   -14569.664    81.118409   -14650.782    -2572.963 
[...]
  950000    247.48653   -14577.525    59.016826   -14636.542   -781.60536 
  950200    316.04198   -14578.991    75.364888   -14654.356   -55.732233 
  950400    345.22025   -14567.543    82.322878   -14649.865    4080.4266 
  950600    328.55961   -14571.484    78.349904   -14649.834    4161.5245 
  950800    282.78793   -14580.028    67.434968   -14647.463    762.82631 
  951000    311.77613   -14571.358    74.347635   -14645.706   -9224.7712 
  951200    354.83946   -14552.243    84.616723    -14636.86    -1796.961 
  951400    287.21957    -14575.87    68.491759   -14644.361    -3380.429 
  951600    277.18164   -14583.114    66.098065   -14649.212    9782.6459 
  951800    242.24375   -14593.913    57.766609   -14651.679   -10007.057 
  952000    300.92117   -14568.051    71.759109    -14639.81    2589.2415 
  952200    275.19681   -14575.845    65.624754   -14641.469    14489.658 
  952400    266.46006   -14581.967    63.541346   -14645.508    7205.7671 
  952600       329.79   -14549.188    78.643308   -14627.832    3027.2287 
  952800    319.64653   -14572.744    76.224446   -14648.968    2254.5697 
  953000    283.12134   -14584.851    67.514476   -14652.366   -887.23364 
  953200     341.2227   -14568.513    81.369604   -14649.883   -716.88682 
  953400    321.15107   -14567.784    76.583226   -14644.367    489.25999 
  953600    262.28274   -14589.626    62.545201   -14652.172    -963.5439 
  953800    311.58721   -14578.657    74.302583   -14652.959    12779.433 
  954000    293.97913   -14569.677    70.103675    -14639.78   -4512.1112 
  954200    288.85513   -14575.346    68.881782   -14644.228   -6435.2988 
  954400    281.52333   -14594.283    67.133405   -14661.417     7230.009 
  954600    298.47667   -14570.864    71.176181    -14642.04   -12060.967 
  954800    317.77959   -14566.683    75.779248   -14642.462    14931.239 
  955000    271.39494   -14587.464    64.718141   -14652.182    2373.0261 
  955200    306.74162   -14573.652     73.14708   -14646.799    13291.606 
  955400    304.78793   -14568.694    72.681194   -14641.375   -9701.7783 
  955600    291.64984   -14575.048    69.548223   -14644.596   -14019.973 
  955800    257.79698   -14592.162    61.475507   -14653.638    1628.2485 
  956000    288.60701   -14580.769    68.822613   -14649.592   -9255.1102 
  956200    313.59879   -14564.928    74.782273   -14639.711   -24918.205 
  956400     303.2124    -14575.47    72.305485   -14647.775    4101.3179 
  956600    289.06797   -14584.135    68.932538   -14653.067     4364.314 
  956800    326.96915   -14562.166    77.970634   -14640.136   -10747.194 
  957000    341.79197   -14560.713    81.505355   -14642.218   -15905.521 
  957200    259.17486   -14580.297    61.804083   -14642.101   -15361.297 
  957400    270.27962   -14581.909    64.452178   -14646.361   -8753.0667 
  957600    347.87174   -14561.244    82.955167   -14644.199   -14677.382 
  957800     317.1013   -14573.981    75.617499   -14649.599    4320.6848 
  958000    289.47567   -14591.625     69.02976   -14660.654    -10772.21 
  958200    247.55313   -14591.512    59.032708   -14650.544    190.37565 
  958400    269.38795   -14573.224    64.239545   -14637.464    12475.211 
  958600    252.99062   -14568.528    60.329359   -14628.857      10313.2 
  958800    242.92733   -14592.426    57.929618   -14650.356    2327.1416 
  959000    275.84033   -14577.985    65.778211   -14643.763    1498.9324 
  959200    283.78644   -14574.226    67.673078   -14641.899    13006.853 
  959400    300.83762   -14570.252    71.739185   -14641.991    11450.666 
  959600    325.04878   -14566.181    77.512695   -14643.694   -9680.1604 
  959800    252.38858   -14581.744    60.185793   -14641.929    1264.8484 
  960000    361.18237   -14563.421    86.129283   -14649.551   -2117.2604 
  960200    298.14311   -14567.508    71.096638   -14638.605    8149.2239 
  960400    262.34544   -14583.036    62.560155   -14645.596    -30939.84 
  960600    298.62032   -14577.621    71.210436   -14648.831    787.93238 
  960800    315.77512   -14568.382    75.301252   -14643.684    20373.957 
  961000    290.08099   -14575.888    69.174107   -14645.062   -8172.6819 
  961200     288.4671   -14584.148     68.78925   -14652.937    8711.2749 
  961400    307.50966   -14565.399    73.330232   -14638.729   -12796.117 
  961600    322.20945   -14569.248    76.835614   -14646.083    14919.925 
  961800    317.11438   -14581.907    75.620619   -14657.527    8503.7892 
  962000     323.4454   -14574.407    77.130345   -14651.538    1203.2628 
  962200    319.73789   -14565.124    76.246232    -14641.37    3757.7946 
  962400    277.86291   -14578.539    66.260525   -14644.799   -6233.5302 
  962600    271.46528   -14581.999    64.734916   -14646.734     1865.415 
  962800    309.86536   -14561.792    73.891982   -14635.684    10565.564 
  963000    271.85359   -14583.318    64.827514   -14648.146    13290.551 
  963200    262.12633   -14580.036    62.507903   -14642.543    13423.906 
  963400    328.24004   -14571.765    78.273696   -14650.038    14212.157 
  963600    293.17365   -14592.982    69.911597   -14662.893    4423.1087 
  963800      293.266   -14574.769     69.93362   -14644.703    4400.8628 
  964000    309.40051    -14575.29    73.781131   -14649.071    7677.2196 
  964200    282.30738    -14588.66    67.320374    -14655.98     11087.83 
  964400    329.07784   -14567.924    78.473482   -14646.397   -13235.927 
  964600    298.03186   -14574.369    71.070109   -14645.439   -4278.8779 
  964800    254.21382   -14593.211    60.621049   -14653.832    1099.1267 
  965000    331.10494   -14566.771    78.956875   -14645.728    11507.232 
  965200    320.82712   -14573.484    76.505975    -14649.99    6320.8651 
  965400    244.58868   -14589.795    58.325792   -14648.121     14626.31 
  965600    296.28692   -14564.898    70.654003   -14635.552    9637.7896 
  965800    318.40622   -14570.671    75.928677   -14646.599   -1186.1772 
  966000    261.58788   -14587.048    62.379503   -14649.428    468.53037 
  966200    267.99422   -14575.137     63.90719   -14639.044   -10575.184 
  966400    305.09724   -14561.068    72.754954   -14633.822     3479.175 
  966600    310.95564   -14586.054    74.151975   -14660.206    6882.6263 
  966800    309.54667   -14575.842    73.815985   -14649.658   -1297.7111 
  967000    330.13981   -14563.923    78.726724    -14642.65   -12166.375 
  967200    283.98713   -14577.905    67.720935   -14645.626    2919.7504 
  967400    279.28503   -14572.905    66.599649   -14639.505   -1953.7912 
  967600    248.84109   -14581.279    59.339843   -14640.618   -10795.488 
  967800    249.62613   -14585.788    59.527047   -14645.315   -6268.3111 
  968000     335.0839   -14563.239    79.905716   -14643.145    15767.137 
  968200    306.13374   -14577.197    73.002121   -14650.199    10235.969 
  968400    255.16707   -14579.167    60.848365   -14640.015   -10859.398 
  968600    276.78564   -14574.489    66.003634   -14640.493   -340.30472 
  968800     270.6442   -14578.189    64.539117   -14642.729    1928.9018 
  969000    324.74135   -14570.623    77.439382   -14648.062   -2797.2164 
  969200    315.00196   -14563.983     75.11688     -14639.1   -8578.5655 
  969400     260.1371   -14588.948    62.033543   -14650.981    16770.202 
  969600    306.61577   -14577.888    73.117069   -14651.005   -10831.115 
  969800    325.76291   -14571.878    77.682988   -14649.561   -4236.8905 
  970000    307.36714   -14575.691    73.296245   -14648.987   -8125.9477 
  970200    335.07258   -14570.018    79.903016   -14649.921    14843.932 
  970400    259.34084   -14579.508    61.843663   -14641.352    20819.063 
  970600    292.04788   -14580.287    69.643141    -14649.93    18079.449 
  970800     325.7097   -14559.004      77.6703   -14636.674     -24083.9 
  971000      283.524    -14579.97    67.610495    -14647.58   -16019.646 
  971200    322.36486   -14575.497    76.872674   -14652.369   -10958.308 
  971400     309.6048   -14560.548    73.829847   -14634.377    6449.0635 
  971600    285.53115   -14584.613     68.08913   -14652.702    10821.244 
  971800    284.94566   -14571.036     67.94951   -14638.985   -120.48574 
  972000    346.75652   -14559.252    82.689226   -14641.941   -26398.017 
  972200    289.65809   -14582.692     69.07326   -14651.765   -3301.6216 
  972400    252.43312   -14573.435    60.196415   -14633.632    9857.7848 
  972600    311.02994   -14569.461    74.169695   -14643.631    10573.019 
  972800    286.28251   -14581.218    68.268302   -14649.486     17403.76 
  973000    361.66683    -14556.59    86.244809   -14642.835    7118.5089 
  973200    344.81688   -14568.162    82.226689   -14650.389    7883.8033 
  973400    274.12448   -14581.504    65.369041   -14646.873    8436.5272 
  973600    306.71426   -14561.157    73.140555   -14634.298   -5111.4203 
  973800    332.78967   -14568.496    79.358623   -14647.855   -1066.4246 
  974000    304.19169   -14578.779    72.539012   -14651.318    3650.7089 
  974200    313.06147   -14565.845    74.654142   -14640.499   -4854.6913 
  974400    334.30977   -14556.127    79.721114   -14635.848    1498.2095 
  974600    278.68156   -14582.991    66.455743   -14649.446    427.76345 
  974800    332.32909   -14568.854    79.248792   -14648.103    5799.4213 
  975000     334.4646   -14572.749    79.758035   -14652.507   -3190.1475 
  975200    284.57147   -14576.804     67.86028   -14644.665    7832.9593 
  975400    325.55715   -14566.923    77.633922   -14644.557    26323.551 
  975600    346.35053   -14552.346    82.592412   -14634.938    11661.453 
  975800    288.61253   -14579.332     68.82393   -14648.156   -2019.8916 
  976000     327.7788   -14569.788    78.163708   -14647.951    12369.671 
  976200    330.62117   -14568.351    78.841513   -14647.193   -28.003587 
  976400    326.76925   -14578.586    77.922965   -14656.509    -10555.94 
  976600    313.03104   -14569.033    74.646885    -14643.68   -931.61319 
  976800    348.38407   -14575.443    83.077339   -14658.521   -518.87069 
  977000    266.90919   -14586.332    63.648447   -14649.981    2925.6575 
  977200    328.40246   -14563.372    78.312428   -14641.684    25563.817 
  977400    279.32945   -14577.908    66.610242   -14644.518    2718.2503 
  977600    324.63305   -14575.101    77.413557   -14652.515   -5806.3043 
  977800    328.81563   -14556.827    78.410954   -14635.238   -3632.3382 
  978000    271.02197    -14577.07    64.629201   -14641.699   -1542.4505 
  978200    316.77625   -14577.287    75.539987   -14652.827    -8565.541 
  978400    325.09761   -14552.879    77.524338   -14630.403   -4651.5792 
  978600    288.91256   -14578.304    68.895477   -14647.199    -2601.878 
  978800    283.25863   -14574.543    67.547213    -14642.09    261.08669 
  979000    298.89525   -14571.003    71.275997   -14642.279   -3183.0076 
  979200    235.31502   -14585.254     56.11435   -14641.368   -7261.8568 
  979400    342.36608   -14570.506     81.64226   -14652.148    8958.8016 
  979600    336.88661   -14570.596      80.3356   -14650.931   -2076.2741 
  979800    280.28991   -14580.768    66.839278   -14647.607    4040.8503 
  980000    330.97939   -14558.542    78.926936   -14637.469    6368.6389 
  980200     274.3026   -14577.682    65.411516   -14643.093    12792.866 
  980400    303.10286    -14577.99    72.279365   -14650.269   -292.82318 
  980600    349.75277   -14555.097    83.403725   -14638.501    10974.078 
  980800    368.31494   -14570.517     87.83015   -14658.347   -2256.4816 
  981000    297.80351   -14575.222    71.015657   -14646.237    8665.4586 
  981200     293.4928   -14570.693    69.987702    -14640.68   -8882.9654 
  981400    292.28791    -14568.29     69.70038    -14637.99   -20693.074 
  981600    301.40718   -14583.052    71.875004   -14654.927    13030.673 
  981800    319.49777       -14571    76.188973   -14647.189    17802.295 
  982000    306.44516   -14565.035    73.076385   -14638.112    13265.572 
  982200    307.94603   -14580.527     73.43429   -14653.961   -17929.154 
  982400    312.74217   -14566.529    74.577999   -14641.107   -16134.641 
  982600    364.30013   -14555.063    86.872758   -14641.935    3092.3141 
  982800    263.30806   -14582.271    62.789705    -14645.06    1888.7113 
  983000    301.44282   -14570.404    71.883504   -14642.288    15528.245 
  983200     312.3462   -14560.835    74.483575   -14635.319    296.64994 
  983400    294.78432   -14585.276    70.295684   -14655.572    8876.3918 
  983600     298.1279   -14570.144     71.09301   -14641.237   -11586.037 
  983800    302.85492     -14570.3    72.220239   -14642.521   -2811.7075 
  984000     239.0171   -14597.748    56.997167   -14654.745    -101.0146 
  984200    271.98261   -14579.793     64.85828   -14644.651   -7421.2448 
  984400     331.4958   -14568.375    79.050081   -14647.425    4179.9994 
  984600     254.1128    -14588.84    60.596959   -14649.437   -8081.4105 
  984800    289.85795   -14576.771    69.120919   -14645.892   -8646.3328 
  985000    296.85106    -14562.21     70.78853   -14632.999   -23460.498 
  985200    275.49206   -14578.512     65.69516   -14644.207    11637.767 
  985400    293.00689   -14576.926     69.87183   -14646.798   -13105.577 
  985600    295.95743   -14563.978     70.57543   -14634.553   -218.56832 
  985800    292.66146    -14581.35    69.789458   -14651.139    -10309.77 
  986000    313.12806   -14575.704     74.67002   -14650.374    6490.3382 
  986200    312.33327   -14575.687    74.480492   -14650.168    -5954.495 
  986400    237.31381   -14597.501     56.59099   -14654.092    4299.9149 
  986600    284.77875   -14576.661     67.90971    -14644.57   -4202.8265 
  986800    297.90747   -14572.123    71.040448   -14643.163   -3736.8496 
  987000    282.94524   -14588.303     67.47248   -14655.775   -2600.5002 
  987200    266.71484   -14579.365    63.602102   -14642.967   -14290.028 
  987400    317.72168   -14565.673    75.765437   -14641.439     9850.777 
  987600    290.76893   -14586.757    69.338157   -14656.095    11237.615 
  987800    296.95478   -14581.158    70.813264   -14651.972    566.35258 
  988000    349.20385   -14569.539    83.272827   -14652.812    1323.6039 
  988200    304.18229   -14580.691     72.53677   -14653.228     4318.706 
  988400    262.92672   -14585.778    62.698769   -14648.477   -6429.9621 
  988600    339.48727   -14565.083    80.955765   -14646.038    817.91737 
  988800    291.03336   -14581.077    69.401213   -14650.479    934.16836 
  989000    303.12697   -14567.647    72.285114   -14639.932   -152.04485 
  989200    317.84958   -14558.096    75.795939   -14633.892    9030.9045 
  989400    294.68947   -14575.319    70.273067   -14645.592    15328.164 
  989600    300.28022   -14579.545    71.606264   -14651.151   -4076.9705 
  989800    270.65436   -14580.935     64.54154   -14645.477   -3458.1355 
  990000    336.82127   -14560.553    80.320019   -14640.873    1954.0984 
  990200    273.78647   -14585.463    65.288438   -14650.751   -10396.279 
  990400    271.29646   -14578.285    64.694657    -14642.98      9487.29 
  990600    333.71797   -14563.964    79.579991   -14643.544    5393.1621 
  990800    325.91528   -14573.616    77.719324   -14651.335    14226.054 
  991000    305.22963   -14578.076    72.786524   -14650.863    4380.7157 
  991200     284.3716    -14590.97    67.812617   -14658.783   -12139.545 
  991400    317.15998    -14568.05    75.631493   -14643.681   -6123.1568 
  991600     314.7085    -14572.99      75.0469   -14648.037    15197.282 
  991800    290.57404   -14583.057    69.291682   -14652.348    16716.962 
  992000    273.00389   -14576.155    65.101819   -14641.257    4551.5751 
  992200    319.85817   -14565.869    76.274915   -14642.144    5536.2742 
  992400    292.61148   -14586.276    69.777538   -14656.053   -16851.844 
  992600    303.47789   -14574.431    72.368796     -14646.8   -10057.154 
  992800    384.22828   -14547.533    91.624922   -14639.158   -1861.6147 
  993000    338.27842   -14575.073    80.667497    -14655.74    -744.9591 
  993200    266.96403   -14585.218    63.661526   -14648.879   -10963.074 
  993400    367.24274    -14564.33    87.574467   -14651.905    4892.2117 
  993600    318.20758   -14572.741    75.881308   -14648.622    9566.5613 
  993800    255.86527   -14592.932    61.014862   -14653.947   -3305.5055 
  994000    305.56593   -14588.579    72.866719   -14661.446   -6669.4666 
  994200    304.56278   -14573.734    72.627503   -14646.362   -24301.513 
  994400    320.19484   -14570.771    76.355201   -14647.127     6843.953 
  994600    256.49003   -14593.275    61.163846   -14654.439    15898.292 
  994800    295.09218   -14574.428    70.369099   -14644.797   -1364.8666 
  995000    306.09267   -14573.355    72.992329   -14646.348    2593.4419 
  995200    292.43471   -14576.188    69.735386   -14645.923    12072.189 
  995400    272.20388   -14582.641    64.911044   -14647.552   -1790.8428 
  995600    321.14859   -14563.597    76.582637   -14640.179     8354.774 
  995800    308.60903   -14579.694    73.592391   -14653.286    -1448.055 
  996000    257.31512   -14584.035    61.360599   -14645.396     9070.169 
  996200    305.61177   -14572.112    72.877651    -14644.99    1571.1075 
  996400    273.99706   -14574.215    65.338654   -14639.554   -9393.5513 
  996600     310.9618   -14568.382    74.153444   -14642.535    7813.7211 
  996800    335.42888   -14566.647    79.987983   -14646.635   -4303.6508 
  997000    257.25172   -14584.417    61.345482   -14645.762    10582.459 
  997200    314.63799   -14566.745    75.030085   -14641.776   -10091.186 
  997400    425.69068   -14534.761    101.51225   -14636.273   -832.21808 
  997600    294.43761   -14570.531    70.213006   -14640.744     452.0219 
  997800    258.86289   -14583.744    61.729688   -14645.474     3212.177 
  998000    293.69215   -14568.263    70.035242   -14638.298   -997.26928 
  998200    304.58497   -14571.386    72.632795   -14644.018    10309.655 
  998400    301.72051   -14578.346    71.949722   -14650.296    14582.075 
  998600    281.17467   -14570.236    67.050262   -14637.286    14482.694 
  998800    278.19459   -14573.482    66.339619   -14639.822    21248.967 
  999000    274.02847   -14586.388    65.346145   -14651.734    13949.787 
  999200    306.78855   -14564.049    73.158272   -14637.207    8933.5976 
  999400    294.33841   -14573.394     70.18935   -14643.584    -2931.578 
  999600    297.07498   -14584.481    70.841928   -14655.323    -10119.45 
  999800    351.15744   -14573.555    83.738691   -14657.294   -13296.328 
 1000000    293.95708   -14575.385    70.098418   -14645.483    17014.925 
Loop time of 2344.05 on 8 procs for 1000000 steps with 81 atoms

Performance: 9.215 ns/day, 2.604 hours/ns, 426.613 timesteps/s
99.5% CPU use with 8 MPI tasks x no OpenMP threads

MPI task timing breakdown:
Section |  min time  |  avg time  |  max time  |%varavg| %total
---------------------------------------------------------------
Pair    | 1979.9     | 1987.6     | 1999.3     |  13.8 | 84.79
Neigh   | 0.22075    | 0.22188    | 0.2232     |   0.2 |  0.01
Comm    | 25.995     | 37.9       | 46.148     | 101.3 |  1.62
Output  | 0.093734   | 0.10342    | 0.16387    |   7.1 |  0.00
Modify  | 316.1      | 316.61     | 316.85     |   1.3 | 13.51
Other   |            | 1.598      |            |       |  0.07

Nlocal:    10.125 ave 11 max 10 min
Histogram: 7 0 0 0 0 0 0 0 0 1
Nghost:    579.875 ave 586 max 575 min
Histogram: 3 0 0 1 0 0 1 2 0 1
Neighs:    1132 ave 1238 max 1112 min
Histogram: 7 0 0 0 0 0 0 0 0 1

Total # of neighbors = 9056
Ave neighs/atom = 111.802
Neighbor list builds = 324
Dangerous builds = 0

unfix 1
unfix output
undump 1

Please see the log.cite file for references relevant to this simulation

Total wall time: 0:39:08
