ITEM: TIMESTEP
0
ITEM: NUMBER OF ATOMS
81
ITEM: BOX BOUNDS pp pp pp
0.0000000000000000e+00 1.3416000000000000e+01
0.0000000000000000e+00 1.3416000000000000e+01
0.0000000000000000e+00 1.3414999999999999e+01
ITEM: ATOMS id type x y z 
21 1 1.912 1.912 1.912 
22 1 2.794 2.794 2.795 
23 1 0.386 2.099 2.099 
33 1 2.098 2.099 0.386 
37 1 2.099 0.386 2.099 
41 1 4.371 4.372 4.372 
42 1 3.489 3.489 3.489 
43 1 4.184 5.897 4.185 
53 1 4.185 4.185 5.898 
57 1 5.897 4.185 4.185 
4 1 1.912 1.912 11.079 
5 1 2.794 2.794 10.197 
6 1 2.099 0.386 10.892 
16 1 2.098 2.099 12.605 
19 1 0.386 2.099 10.892 
64 1 4.371 4.372 8.62 
65 1 3.489 3.489 9.502 
66 1 5.897 4.185 8.807 
76 1 4.185 4.185 7.094 
79 1 4.184 5.897 8.807 
10 1 1.911 11.079 1.912 
11 1 2.794 10.197 2.795 
12 1 2.099 12.605 2.099 
15 1 2.099 10.892 0.386 
18 1 0.386 10.892 2.099 
67 1 4.372 8.62 4.371 
68 1 3.489 9.502 3.489 
69 1 5.897 8.807 4.185 
74 1 4.185 8.807 5.897 
80 1 4.185 7.094 4.185 
30 1 1.911 11.079 11.079 
31 1 2.794 10.197 10.197 
32 1 0.386 10.892 10.892 
35 1 2.099 10.892 12.605 
38 1 2.099 12.605 10.892 
47 1 4.372 8.62 8.62 
48 1 3.489 9.502 9.502 
49 1 4.184 7.094 8.807 
54 1 4.184 8.807 7.094 
60 1 5.897 8.807 8.807 
7 1 11.08 1.912 1.912 
8 1 10.197 2.794 2.795 
9 1 10.893 0.386 2.099 
14 1 10.893 2.099 0.386 
20 1 12.606 2.099 2.099 
70 1 8.62 4.372 4.372 
71 1 9.502 3.489 3.489 
72 1 7.094 4.185 4.185 
75 1 8.807 4.185 5.897 
78 1 8.807 5.898 4.185 
27 1 11.08 1.912 11.079 
28 1 10.197 2.794 10.197 
29 1 12.606 2.099 10.892 
34 1 10.893 2.099 12.605 
40 1 10.893 0.386 10.892 
50 1 8.62 4.372 8.62 
51 1 9.502 3.489 9.502 
52 1 8.807 5.897 8.807 
55 1 8.807 4.185 7.094 
58 1 7.094 4.185 8.807 
24 1 11.08 11.08 1.912 
25 1 10.197 10.197 2.795 
26 1 12.606 10.892 2.099 
36 1 10.893 10.892 0.386 
39 1 10.893 12.605 2.099 
44 1 8.62 8.62 4.372 
45 1 9.502 9.502 3.489 
46 1 8.807 7.094 4.185 
56 1 8.807 8.807 5.898 
59 1 7.094 8.807 4.185 
1 1 11.08 11.079 11.079 
2 1 10.197 10.197 10.197 
3 1 10.893 12.605 10.892 
13 1 10.893 10.892 12.605 
17 1 12.606 10.892 10.892 
61 1 8.62 8.62 8.62 
62 1 9.502 9.502 9.502 
63 1 7.094 8.807 8.807 
73 1 8.807 8.807 7.094 
77 1 8.807 7.094 8.807 
81 2 9.585 9.546 11.224 
ITEM: TIMESTEP
10
ITEM: NUMBER OF ATOMS
81
ITEM: BOX BOUNDS pp pp pp
0.0000000000000000e+00 1.3416000000000000e+01
0.0000000000000000e+00 1.3416000000000000e+01
0.0000000000000000e+00 1.3414999999999999e+01
ITEM: ATOMS id type x y z 
21 1 1.91181 1.9115 1.91218 
22 1 2.79436 2.79415 2.7946 
23 1 0.386083 2.09847 2.09859 
33 1 2.0977 2.0985 0.38637 
37 1 2.09844 0.385635 2.09847 
41 1 4.37133 4.37171 4.37177 
42 1 3.48884 3.48886 3.48945 
43 1 4.1848 5.8975 4.18534 
53 1 4.18533 4.18538 5.89751 
57 1 5.8974 4.18546 4.18545 
4 1 1.91184 1.91178 11.079 
5 1 2.79456 2.79442 10.197 
6 1 2.09869 0.386436 10.8925 
16 1 2.0977 2.09849 12.6049 
19 1 0.386878 2.09866 10.8924 
64 1 4.37151 4.37192 8.62008 
65 1 3.4889 3.48893 9.50205 
66 1 5.89759 4.18553 8.80654 
76 1 4.18534 4.18541 7.09442 
79 1 4.18453 5.89774 8.80659 
10 1 1.91191 11.0794 1.91232 
11 1 2.7941 10.1969 2.79457 
12 1 2.0984 12.6056 2.09849 
15 1 2.09867 10.8925 0.387228 
18 1 0.387042 10.8925 2.09877 
67 1 4.37149 8.61985 4.37165 
68 1 3.48894 9.50226 3.48917 
69 1 5.89715 8.80662 4.18528 
74 1 4.18511 8.80643 5.89767 
80 1 4.18504 7.09381 4.18537 
30 1 1.91108 11.0788 11.0785 
31 1 2.79476 10.1951 10.1951 
32 1 0.398268 10.8903 10.8904 
35 1 2.09847 10.8921 12.6066 
38 1 2.09843 12.6072 10.8921 
47 1 4.37214 8.61963 8.61938 
48 1 3.48942 9.50103 9.50132 
49 1 4.18449 7.09428 8.80635 
54 1 4.18489 8.80644 7.0941 
60 1 5.89933 8.80553 8.80704 
7 1 11.0798 1.91213 1.91225 
8 1 10.1969 2.79432 2.7945 
9 1 10.8935 0.386728 2.09869 
14 1 10.8935 2.09862 0.387049 
20 1 12.6056 2.09849 2.09856 
70 1 8.61967 4.37139 4.37167 
71 1 9.50257 3.48889 3.48945 
72 1 7.0937 4.18549 4.18545 
75 1 8.80647 4.18548 5.89779 
78 1 8.80658 5.89692 4.18537 
27 1 11.0793 1.91065 11.0784 
28 1 10.195 2.79465 10.1956 
29 1 12.6072 2.09848 10.892 
34 1 10.8931 2.09837 12.6063 
40 1 10.8915 0.396817 10.8907 
50 1 8.61972 4.37215 8.61945 
51 1 9.5013 3.48916 9.50139 
52 1 8.80555 5.8994 8.80712 
55 1 8.80637 4.18539 7.09422 
58 1 7.09411 4.18537 8.80635 
24 1 11.0791 11.079 1.91092 
25 1 10.1959 10.1961 2.79459 
26 1 12.6074 10.8921 2.09866 
36 1 10.8923 10.8915 0.39742 
39 1 10.8931 12.6075 2.09854 
44 1 8.61959 8.61954 4.37062 
45 1 9.50169 9.50225 3.48903 
46 1 8.80665 7.09356 4.18502 
56 1 8.80676 8.80681 5.89393 
59 1 7.09334 8.80664 4.18505 
1 1 11.1354 11.1344 11.1343 
2 1 10.2242 10.2403 10.1107 
3 1 10.9005 12.6127 10.8985 
13 1 10.9034 10.9023 12.6139 
17 1 12.6136 10.8983 10.8978 
61 1 8.61686 8.617 8.59872 
62 1 9.42092 9.40843 9.64543 
63 1 7.09413 8.80559 8.80457 
73 1 8.8114 8.81151 7.09055 
77 1 8.80528 7.09415 8.80435 
81 2 9.54737 9.50885 11.1194 
ITEM: TIMESTEP
20
ITEM: NUMBER OF ATOMS
81
ITEM: BOX BOUNDS pp pp pp
0.0000000000000000e+00 1.3416000000000000e+01
0.0000000000000000e+00 1.3416000000000000e+01
0.0000000000000000e+00 1.3414999999999999e+01
ITEM: ATOMS id type x y z 
21 1 1.9121 1.91191 1.91264 
22 1 2.79487 2.79491 2.79393 
23 1 0.386463 2.0983 2.09856 
33 1 2.09771 2.09833 0.386647 
37 1 2.09836 0.386207 2.09846 
41 1 4.37151 4.37147 4.37161 
42 1 3.48833 3.48892 3.49039 
43 1 4.18505 5.89701 4.18548 
53 1 4.18546 4.18553 5.89743 
57 1 5.89697 4.1856 4.18557 
4 1 1.91302 1.91319 11.0792 
5 1 2.79505 2.79466 10.1968 
6 1 2.09886 0.387578 10.8921 
16 1 2.09791 2.09858 12.6055 
19 1 0.387701 2.09884 10.892 
64 1 4.37121 4.37161 8.61972 
65 1 3.48936 3.48977 9.50211 
66 1 5.89702 4.18543 8.80644 
76 1 4.18544 4.18551 7.09375 
79 1 4.18455 5.89707 8.80647 
10 1 1.91336 11.0798 1.91368 
11 1 2.79525 10.1966 2.79442 
12 1 2.09856 12.6058 2.09866 
15 1 2.09891 10.8921 0.388097 
18 1 0.387706 10.892 2.09913 
67 1 4.37072 8.61942 4.37146 
68 1 3.48874 9.50229 3.4904 
69 1 5.89606 8.80672 4.18509 
74 1 4.1849 8.80637 5.89732 
80 1 4.18497 7.09338 4.18541 
30 1 1.9177 11.0791 11.0787 
31 1 2.79698 10.195 10.195 
32 1 0.398423 10.8893 10.8894 
35 1 2.09953 10.892 12.6069 
38 1 2.09946 12.6073 10.892 
47 1 4.37321 8.61886 8.61923 
48 1 3.4906 9.50062 9.50018 
49 1 4.18467 7.09271 8.80645 
54 1 4.18518 8.80644 7.09283 
60 1 5.89455 8.80618 8.80707 
7 1 11.0802 1.91345 1.91371 
8 1 10.1967 2.79538 2.79429 
9 1 10.893 0.387927 2.09901 
14 1 10.8931 2.0989 0.387929 
20 1 12.6063 2.09869 2.09875 
70 1 8.61929 4.37072 4.37146 
71 1 9.50233 3.48875 3.49041 
72 1 7.09346 4.18545 4.18554 
75 1 8.80638 4.18525 5.89734 
78 1 8.8067 5.89623 4.18518 
27 1 11.0795 1.91727 11.0785 
28 1 10.1949 2.79654 10.195 
29 1 12.6076 2.09938 10.8919 
34 1 10.8929 2.09929 12.6069 
40 1 10.8908 0.398065 10.8897 
50 1 8.61899 4.37292 8.61917 
51 1 9.50073 3.49124 9.50129 
52 1 8.80606 5.89437 8.80705 
55 1 8.80643 4.18551 7.09292 
58 1 7.09268 4.18546 8.80643 
24 1 11.0798 11.0798 1.9177 
25 1 10.196 10.1963 2.79667 
26 1 12.6078 10.892 2.09969 
36 1 10.8919 10.8911 0.397131 
39 1 10.8929 12.6078 2.09957 
44 1 8.61822 8.61858 4.37036 
45 1 9.5017 9.50083 3.48952 
46 1 8.80663 7.09185 4.18464 
56 1 8.80954 8.80968 5.88956 
59 1 7.09182 8.80673 4.18459 
1 1 11.1213 11.1212 11.117 
2 1 10.2422 10.2571 10.0998 
3 1 10.9076 12.6159 10.9047 
13 1 10.9095 10.9087 12.6146 
17 1 12.6165 10.9052 10.9038 
61 1 8.59305 8.59286 8.58233 
62 1 9.4269 9.41552 9.68936 
63 1 7.09232 8.79995 8.7969 
73 1 8.81299 8.81303 7.08805 
77 1 8.79936 7.09207 8.79642 
81 2 9.54061 9.50043 11.1199 
ITEM: TIMESTEP
30
ITEM: NUMBER OF ATOMS
81
ITEM: BOX BOUNDS pp pp pp
0.0000000000000000e+00 1.3416000000000000e+01
0.0000000000000000e+00 1.3416000000000000e+01
0.0000000000000000e+00 1.3414999999999999e+01
ITEM: ATOMS id type x y z 
21 1 1.9122 1.91232 1.91259 
22 1 2.79493 2.79363 2.79486 
23 1 0.386491 2.09852 2.09878 
33 1 2.09796 2.0985 0.386729 
37 1 2.09845 0.386359 2.0986 
41 1 4.37092 4.37122 4.37132 
42 1 3.48867 3.48922 3.48924 
43 1 4.18485 5.89688 4.18525 
53 1 4.18518 4.18525 5.89716 
57 1 5.89671 4.18533 4.18535 
4 1 1.91343 1.91294 11.0795 
5 1 2.79387 2.7954 10.1971 
6 1 2.09923 0.387404 10.892 
16 1 2.09834 2.09878 12.6056 
19 1 0.38785 2.09915 10.8918 
64 1 4.37025 4.37032 8.61945 
65 1 3.48948 3.48865 9.50233 
66 1 5.89558 4.18474 8.80685 
76 1 4.18503 4.18514 7.09325 
79 1 4.1839 5.89577 8.80695 
10 1 1.91316 11.08 1.91357 
11 1 2.79482 10.1978 2.79512 
12 1 2.09885 12.6062 2.09895 
15 1 2.09933 10.892 0.388054 
18 1 0.387691 10.892 2.09949 
67 1 4.36983 8.61912 4.37053 
68 1 3.48831 9.50161 3.48918 
69 1 5.89539 8.80711 4.18446 
74 1 4.18416 8.80683 5.89612 
80 1 4.18456 7.093 4.18514 
30 1 1.91896 11.0796 11.0795 
31 1 2.7981 10.1969 10.1962 
32 1 0.399429 10.8923 10.8922 
35 1 2.10113 10.892 12.6073 
38 1 2.101 12.6076 10.892 
47 1 4.37054 8.6185 8.61887 
48 1 3.49096 9.50152 9.50137 
49 1 4.18419 7.09157 8.80687 
54 1 4.18466 8.80664 7.09197 
60 1 5.89128 8.80647 8.80536 
7 1 11.0802 1.9132 1.91372 
8 1 10.1979 2.79528 2.79483 
9 1 10.8928 0.387701 2.09941 
14 1 10.8929 2.0993 0.388098 
20 1 12.6063 2.09896 2.09912 
70 1 8.61904 4.36991 4.37047 
71 1 9.50214 3.48867 3.48938 
72 1 7.09283 4.18494 4.1852 
75 1 8.8068 4.18442 5.89618 
78 1 8.80701 5.89529 4.18454 
27 1 11.0797 1.91875 11.0795 
28 1 10.1971 2.79832 10.1964 
29 1 12.6081 2.10103 10.8918 
34 1 10.8928 2.10096 12.6073 
40 1 10.894 0.399615 10.8925 
50 1 8.61829 4.37047 8.6191 
51 1 9.50145 3.49074 9.50149 
52 1 8.80622 5.89097 8.80527 
55 1 8.80669 4.1849 7.09201 
58 1 7.09139 4.18486 8.80688 
24 1 11.0807 11.0803 1.91834 
25 1 10.1974 10.197 2.79725 
26 1 12.6078 10.8923 2.10115 
36 1 10.8956 10.8949 0.395969 
39 1 10.893 12.6078 2.10102 
44 1 8.61839 8.61817 4.36844 
45 1 9.50126 9.50178 3.48919 
46 1 8.80659 7.0913 4.18401 
56 1 8.8131 8.81323 5.88879 
59 1 7.09137 8.80664 4.18393 
1 1 11.1192 11.1195 11.1126 
2 1 10.242 10.2549 10.1 
3 1 10.9123 12.6172 10.9079 
13 1 10.9132 10.9128 12.6138 
17 1 12.6171 10.9101 10.9071 
61 1 8.58851 8.58821 8.58062 
62 1 9.42247 9.41284 9.69638 
63 1 7.08939 8.79333 8.78968 
73 1 8.81205 8.81207 7.08709 
77 1 8.79263 7.08909 8.78903 
81 2 9.54552 9.50388 11.1285 
ITEM: TIMESTEP
40
ITEM: NUMBER OF ATOMS
81
ITEM: BOX BOUNDS pp pp pp
0.0000000000000000e+00 1.3416000000000000e+01
0.0000000000000000e+00 1.3416000000000000e+01
0.0000000000000000e+00 1.3414999999999999e+01
ITEM: ATOMS id type x y z 
21 1 1.91298 1.91163 1.91298 
22 1 2.79429 2.79506 2.794 
23 1 0.386991 2.09887 2.09922 
33 1 2.09869 2.09883 0.386991 
37 1 2.09902 0.386346 2.09911 
41 1 4.37243 4.36956 4.37082 
42 1 3.48644 3.49047 3.49021 
43 1 4.18432 5.89685 4.18479 
53 1 4.18464 4.18481 5.89686 
57 1 5.89676 4.18474 4.18488 
4 1 1.91355 1.91338 11.0799 
5 1 2.79608 2.79438 10.1988 
6 1 2.10052 0.388166 10.8918 
16 1 2.09881 2.09929 12.6059 
19 1 0.388047 2.10063 10.8915 
64 1 4.36885 4.37011 8.61897 
65 1 3.48753 3.48841 9.50052 
66 1 5.8948 4.18369 8.8076 
76 1 4.18435 4.18439 7.09285 
79 1 4.18318 5.89521 8.80754 
10 1 1.91317 11.0806 1.91445 
11 1 2.79421 10.1962 2.79405 
12 1 2.09919 12.6062 2.09946 
15 1 2.1006 10.892 0.388694 
18 1 0.387639 10.8923 2.10081 
67 1 4.37036 8.61936 4.36975 
68 1 3.4887 9.50253 3.48963 
69 1 5.89554 8.80683 4.18374 
74 1 4.18347 8.80711 5.89471 
80 1 4.18398 7.09283 4.18448 
30 1 1.91987 11.081 11.0799 
31 1 2.80131 10.197 10.1999 
32 1 0.400117 10.897 10.8958 
35 1 2.10297 10.8918 12.6079 
38 1 2.10298 12.6084 10.8917 
47 1 4.36865 8.61796 8.61799 
48 1 3.48903 9.50109 9.50075 
49 1 4.18278 7.09088 8.80699 
54 1 4.18288 8.8069 7.09044 
60 1 5.8883 8.80354 8.80067 
7 1 11.081 1.91476 1.91322 
8 1 10.1977 2.79134 2.79841 
9 1 10.8929 0.387561 2.10072 
14 1 10.8926 2.10055 0.389036 
20 1 12.6069 2.09943 2.09972 
70 1 8.62062 4.37051 4.37103 
71 1 9.49953 3.48968 3.48569 
72 1 7.09283 4.18436 4.18455 
75 1 8.80713 4.18377 5.89476 
78 1 8.8069 5.89594 4.1837 
27 1 11.083 1.92248 11.0808 
28 1 10.1954 2.79781 10.198 
29 1 12.6083 2.103 10.8915 
34 1 10.8924 2.10299 12.6083 
40 1 10.8987 0.400575 10.8961 
50 1 8.61895 4.36922 8.61781 
51 1 9.50172 3.4901 9.50129 
52 1 8.80301 5.88789 8.80047 
55 1 8.80671 4.18296 7.0905 
58 1 7.09049 4.1831 8.8072 
24 1 11.0812 11.0797 1.91797 
25 1 10.1966 10.198 2.79729 
26 1 12.6078 10.8921 2.10255 
36 1 10.9004 10.8999 0.395235 
39 1 10.8928 12.6077 2.1024 
44 1 8.61918 8.61755 4.36817 
45 1 9.50158 9.50277 3.49024 
46 1 8.80637 7.09184 4.18353 
56 1 8.81455 8.81467 5.88829 
59 1 7.09134 8.80651 4.18343 
1 1 11.1198 11.1204 11.1116 
2 1 10.2384 10.2495 10.098 
3 1 10.916 12.618 10.91 
13 1 10.917 10.917 12.6128 
17 1 12.6176 10.9139 10.9093 
61 1 8.58589 8.58588 8.57955 
62 1 9.41588 9.4073 9.70246 
63 1 7.08678 8.78827 8.7837 
73 1 8.81205 8.81206 7.08668 
77 1 8.78758 7.08645 8.783 
81 2 9.54927 9.50615 11.1348 
ITEM: TIMESTEP
50
ITEM: NUMBER OF ATOMS
81
ITEM: BOX BOUNDS pp pp pp
0.0000000000000000e+00 1.3416000000000000e+01
0.0000000000000000e+00 1.3416000000000000e+01
0.0000000000000000e+00 1.3414999999999999e+01
ITEM: ATOMS id type x y z 
21 1 1.91254 1.91252 1.91286 
22 1 2.79402 2.79453 2.79486 
23 1 0.387059 2.09916 2.09949 
33 1 2.09894 2.09912 0.387432 
37 1 2.0993 0.386416 2.09941 
41 1 4.37109 4.37118 4.37065 
42 1 3.48855 3.48937 3.48954 
43 1 4.1842 5.89655 4.18464 
53 1 4.18444 4.18443 5.89631 
57 1 5.89664 4.1844 4.18464 
4 1 1.91383 1.91379 11.0802 
5 1 2.79468 2.7945 10.1974 
6 1 2.10149 0.388243 10.8916 
16 1 2.09936 2.09955 12.6064 
19 1 0.388963 2.10143 10.8914 
64 1 4.36929 4.36939 8.61888 
65 1 3.48865 3.48864 9.50177 
66 1 5.89429 4.18307 8.80753 
76 1 4.18381 4.18401 7.09262 
79 1 4.18242 5.89471 8.80758 
10 1 1.91316 11.0804 1.91452 
11 1 2.79398 10.1967 2.79474 
12 1 2.09943 12.6063 2.09982 
15 1 2.1012 10.8919 0.389465 
18 1 0.387625 10.8922 2.1015 
67 1 4.37003 8.61862 4.36902 
68 1 3.48927 9.50237 3.48878 
69 1 5.89597 8.80677 4.18327 
74 1 4.18286 8.80731 5.89433 
80 1 4.18387 7.09275 4.18411 
30 1 1.9215 11.0815 11.0815 
31 1 2.79939 10.1971 10.1983 
32 1 0.400277 10.8989 10.8973 
35 1 2.10409 10.8919 12.6088 
38 1 2.10411 12.6087 10.8917 
47 1 4.36691 8.6173 8.61742 
48 1 3.48989 9.50172 9.50158 
49 1 4.18173 7.09041 8.80715 
54 1 4.18167 8.80696 7.08989 
60 1 5.8874 8.80175 8.79821 
7 1 11.0808 1.9129 1.91502 
8 1 10.1969 2.79374 2.79503 
9 1 10.893 0.387696 2.10137 
14 1 10.8924 2.10129 0.389756 
20 1 12.6069 2.09959 2.10011 
70 1 8.6189 4.37017 4.36923 
71 1 9.50123 3.48853 3.48852 
72 1 7.09306 4.18427 4.1842 
75 1 8.80738 4.18306 5.89419 
78 1 8.80693 5.89606 4.18324 
27 1 11.0817 1.92186 11.0818 
28 1 10.1975 2.79904 10.1975 
29 1 12.6094 2.10454 10.8915 
34 1 10.8925 2.10435 12.609 
40 1 10.9008 0.40109 10.8978 
50 1 8.6171 4.36647 8.61704 
51 1 9.50114 3.4897 9.50187 
52 1 8.80132 5.88729 8.79799 
55 1 8.80688 4.18181 7.09009 
58 1 7.08998 4.18216 8.80721 
24 1 11.0811 11.0811 1.9184 
25 1 10.1978 10.1976 2.79744 
26 1 12.6077 10.8922 2.10329 
36 1 10.9022 10.9019 0.394405 
39 1 10.8928 12.6077 2.10302 
44 1 8.61889 8.61901 4.36869 
45 1 9.50152 9.50215 3.48913 
46 1 8.80649 7.09212 4.18323 
56 1 8.815 8.81512 5.88881 
59 1 7.09185 8.80651 4.18325 
1 1 11.12 11.1208 11.1107 
2 1 10.2375 10.248 10.0983 
3 1 10.9177 12.6183 10.9108 
13 1 10.9191 10.9192 12.6117 
17 1 12.6175 10.9157 10.9101 
61 1 8.58496 8.585 8.57957 
62 1 9.41423 9.40565 9.70567 
63 1 7.08535 8.7864 8.78132 
73 1 8.81229 8.81235 7.08648 
77 1 8.78558 7.0852 8.7806 
81 2 9.54964 9.50586 11.1371 
ITEM: TIMESTEP
60
ITEM: NUMBER OF ATOMS
81
ITEM: BOX BOUNDS pp pp pp
0.0000000000000000e+00 1.3416000000000000e+01
0.0000000000000000e+00 1.3416000000000000e+01
0.0000000000000000e+00 1.3414999999999999e+01
ITEM: ATOMS id type x y z 
21 1 1.91146 1.91216 1.91501 
22 1 2.79627 2.79404 2.79302 
23 1 0.386175 2.10036 2.10106 
33 1 2.1001 2.10017 0.388421 
37 1 2.0999 0.387376 2.10055 
41 1 4.36866 4.37088 4.37234 
42 1 3.49248 3.48772 3.48679 
43 1 4.18298 5.89669 4.18318 
53 1 4.18292 4.18329 5.8961 
57 1 5.89557 4.18368 4.18343 
4 1 1.91535 1.9139 11.0807 
5 1 2.79657 2.79409 10.1992 
6 1 2.1049 0.390463 10.8912 
16 1 2.101 2.10075 12.6076 
19 1 0.389732 2.10547 10.8909 
64 1 4.36742 4.36796 8.61729 
65 1 3.48632 3.48915 9.50019 
66 1 5.89313 4.17978 8.80814 
76 1 4.18239 4.18234 7.09207 
79 1 4.17945 5.89344 8.80789 
10 1 1.91343 11.0815 1.91667 
11 1 2.79477 10.1962 2.79393 
12 1 2.10024 12.6073 2.10136 
15 1 2.10403 10.8914 0.392183 
18 1 0.387729 10.8921 2.1049 
67 1 4.37134 8.61852 4.36738 
68 1 3.48927 9.50304 3.49007 
69 1 5.89732 8.80635 4.18168 
74 1 4.18034 8.80741 5.89182 
80 1 4.18317 7.09259 4.18205 
30 1 1.92601 11.084 11.0855 
31 1 2.7947 10.1966 10.1965 
32 1 0.402818 10.9072 10.9036 
35 1 2.10888 10.892 12.6115 
38 1 2.10941 12.6107 10.8921 
47 1 4.36102 8.61552 8.61458 
48 1 3.48616 9.50137 9.50027 
49 1 4.17711 7.08905 8.80721 
54 1 4.1768 8.80707 7.08743 
60 1 5.88299 8.79491 8.78865 
7 1 11.0797 1.91282 1.91592 
8 1 10.2005 2.79792 2.79534 
9 1 10.8923 0.386861 2.1049 
14 1 10.8918 2.10431 0.39264 
20 1 12.6062 2.09998 2.10159 
70 1 8.61773 4.37197 4.36577 
71 1 9.50317 3.48831 3.49128 
72 1 7.09141 4.18304 4.18206 
75 1 8.80737 4.18035 5.89141 
78 1 8.80615 5.89691 4.18171 
27 1 11.0857 1.92642 11.0838 
28 1 10.1983 2.79945 10.1989 
29 1 12.61 2.1095 10.8922 
34 1 10.8923 2.10927 12.612 
40 1 10.9085 0.403577 10.9039 
50 1 8.61502 4.36043 8.61451 
51 1 9.50188 3.48639 9.49963 
52 1 8.79376 5.88221 8.78776 
55 1 8.80698 4.17646 7.08697 
58 1 7.08871 4.1769 8.80712 
24 1 11.081 11.082 1.9173 
25 1 10.199 10.1991 2.79926 
26 1 12.608 10.8919 2.10606 
36 1 10.9098 10.9099 0.391777 
39 1 10.8927 12.6071 2.10605 
44 1 8.61917 8.62093 4.36928 
45 1 9.50309 9.50087 3.48831 
46 1 8.80671 7.09275 4.18244 
56 1 8.81655 8.81672 5.88933 
59 1 7.09327 8.8065 4.18243 
1 1 11.1209 11.1219 11.107 
2 1 10.2325 10.2414 10.101 
3 1 10.9237 12.6207 10.9131 
13 1 10.9262 10.9273 12.6089 
17 1 12.6201 10.922 10.9125 
61 1 8.58154 8.58148 8.57961 
62 1 9.40703 9.39809 9.71547 
63 1 7.08211 8.77866 8.77202 
73 1 8.81305 8.81336 7.0876 
77 1 8.77757 7.08121 8.77122 
81 2 9.55097 9.50451 11.1464 
ITEM: TIMESTEP
62
ITEM: NUMBER OF ATOMS
81
ITEM: BOX BOUNDS pp pp pp
0.0000000000000000e+00 1.3416000000000000e+01
0.0000000000000000e+00 1.3416000000000000e+01
0.0000000000000000e+00 1.3414999999999999e+01
ITEM: ATOMS id type x y z 
21 1 1.91182 1.91282 1.91396 
22 1 2.79642 2.79356 2.79306 
23 1 0.386093 2.10031 2.10124 
33 1 2.09998 2.10011 0.38872 
37 1 2.09989 0.38707 2.10074 
41 1 4.36991 4.37102 4.37107 
42 1 3.49182 3.48795 3.48742 
43 1 4.18283 5.89647 4.18323 
53 1 4.1827 4.18313 5.89581 
57 1 5.89508 4.18364 4.18362 
4 1 1.91533 1.91419 11.0812 
5 1 2.79473 2.79539 10.1986 
6 1 2.1052 0.390003 10.8912 
16 1 2.10104 2.10073 12.6077 
19 1 0.39056 2.10551 10.8911 
64 1 4.36735 4.36861 8.61771 
65 1 3.48812 3.48786 9.50088 
66 1 5.89273 4.17958 8.80798 
76 1 4.18223 4.18222 7.09234 
79 1 4.1793 5.89324 8.80779 
10 1 1.91284 11.0807 1.91655 
11 1 2.79591 10.1981 2.79476 
12 1 2.10034 12.6074 2.10146 
15 1 2.10422 10.8915 0.392394 
18 1 0.387641 10.8921 2.10501 
67 1 4.37173 8.619 4.36742 
68 1 3.48826 9.50123 3.48921 
69 1 5.89726 8.80631 4.18165 
74 1 4.18024 8.80745 5.8918 
80 1 4.18321 7.09266 4.1819 
30 1 1.9254 11.0842 11.085 
31 1 2.79602 10.1973 10.1967 
32 1 0.403065 10.9074 10.9038 
35 1 2.10908 10.892 12.6117 
38 1 2.10957 12.6106 10.8922 
47 1 4.361 8.61599 8.61414 
48 1 3.48524 9.50044 9.50031 
49 1 4.17683 7.08891 8.80718 
54 1 4.17652 8.80696 7.08763 
60 1 5.8832 8.79459 8.78825 
7 1 11.0804 1.91314 1.91632 
8 1 10.1996 2.79583 2.79648 
9 1 10.8923 0.387232 2.10501 
14 1 10.8916 2.10453 0.392131 
20 1 12.6062 2.10005 2.1016 
70 1 8.61733 4.37083 4.36679 
71 1 9.50386 3.49055 3.4903 
72 1 7.09147 4.1832 4.18184 
75 1 8.80724 4.18036 5.89103 
78 1 8.80623 5.89738 4.18151 
27 1 11.0841 1.92603 11.0851 
28 1 10.1996 2.80023 10.1982 
29 1 12.6112 2.10997 10.892 
34 1 10.8926 2.10939 12.6114 
40 1 10.9088 0.403627 10.9038 
50 1 8.61546 4.36015 8.61367 
51 1 9.5007 3.48604 9.50028 
52 1 8.79348 5.88242 8.78743 
55 1 8.80686 4.17618 7.08682 
58 1 7.0884 4.1766 8.80718 
24 1 11.0822 11.0818 1.91823 
25 1 10.1978 10.1985 2.79702 
26 1 12.6077 10.892 2.10605 
36 1 10.9099 10.9101 0.39181 
39 1 10.8926 12.6073 2.10618 
44 1 8.61959 8.61992 4.36893 
45 1 9.50417 9.50157 3.48997 
46 1 8.80655 7.0936 4.18258 
56 1 8.81657 8.81689 5.88995 
59 1 7.09303 8.80665 4.18237 
1 1 11.1216 11.1226 11.1073 
2 1 10.2333 10.2422 10.1007 
3 1 10.9238 12.6205 10.9132 
13 1 10.9265 10.9274 12.6085 
17 1 12.6198 10.9222 10.9126 
61 1 8.58177 8.58157 8.57969 
62 1 9.40622 9.39716 9.71565 
63 1 7.08105 8.77847 8.77186 
73 1 8.81308 8.81329 7.08741 
77 1 8.77732 7.08054 8.77097 
81 2 9.5503 9.5037 11.1468 
ITEM: TIMESTEP
70
ITEM: NUMBER OF ATOMS
81
ITEM: BOX BOUNDS pp pp pp
0.0000000000000000e+00 1.3416000000000000e+01
0.0000000000000000e+00 1.3416000000000000e+01
0.0000000000000000e+00 1.3414999999999999e+01
ITEM: ATOMS id type x y z 
21 1 1.91202 1.91268 1.91391 
22 1 2.79612 2.7939 2.79318 
23 1 0.38623 2.1003 2.10125 
33 1 2.09999 2.10014 0.388639 
37 1 2.0999 0.387195 2.10077 
41 1 4.37001 4.37095 4.37087 
42 1 3.49169 3.48779 3.48743 
43 1 4.1828 5.89667 4.18318 
53 1 4.18266 4.18308 5.89607 
57 1 5.8954 4.18361 4.18356 
4 1 1.91525 1.91451 11.0813 
5 1 2.79494 2.79487 10.1984 
6 1 2.10535 0.390071 10.8913 
16 1 2.10106 2.10074 12.6077 
19 1 0.390636 2.1056 10.8911 
64 1 4.36754 4.36842 8.61778 
65 1 3.48791 3.48833 9.50109 
66 1 5.8928 4.1795 8.80796 
76 1 4.18214 4.18218 7.09198 
79 1 4.17919 5.89337 8.80779 
10 1 1.91308 11.0809 1.91661 
11 1 2.79502 10.1976 2.79505 
12 1 2.10032 12.6072 2.10151 
15 1 2.10432 10.8915 0.392328 
18 1 0.387646 10.8921 2.10505 
67 1 4.37142 8.61868 4.36741 
68 1 3.48917 9.50178 3.48892 
69 1 5.89727 8.80635 4.18162 
74 1 4.18018 8.80746 5.89186 
80 1 4.18322 7.0926 4.18189 
30 1 1.92529 11.0842 11.085 
31 1 2.79626 10.1972 10.1971 
32 1 0.402974 10.9075 10.9038 
35 1 2.10914 10.892 12.6117 
38 1 2.10965 12.6105 10.8922 
47 1 4.36075 8.61576 8.61413 
48 1 3.48521 9.50056 9.50001 
49 1 4.17671 7.08895 8.80713 
54 1 4.17638 8.80694 7.0875 
60 1 5.88269 8.79448 8.78809 
7 1 11.0804 1.91316 1.91642 
8 1 10.1996 2.79577 2.79685 
9 1 10.8923 0.387295 2.10504 
14 1 10.8916 2.10463 0.392131 
20 1 12.6063 2.10009 2.10166 
70 1 8.6176 4.37125 4.36677 
71 1 9.5034 3.49029 3.48994 
72 1 7.09137 4.18321 4.18182 
75 1 8.80721 4.18027 5.89107 
78 1 8.80618 5.89746 4.18153 
27 1 11.0844 1.92621 11.0851 
28 1 10.1993 2.79972 10.198 
29 1 12.6111 2.11006 10.892 
34 1 10.8926 2.10947 12.6115 
40 1 10.9089 0.403735 10.9039 
50 1 8.61523 4.35985 8.61351 
51 1 9.50098 3.48659 9.50046 
52 1 8.79336 5.88204 8.78725 
55 1 8.80684 4.17605 7.08675 
58 1 7.08838 4.17647 8.80712 
24 1 11.082 11.0818 1.91809 
25 1 10.1985 10.1982 2.79743 
26 1 12.6078 10.892 2.10613 
36 1 10.91 10.9103 0.391666 
39 1 10.8926 12.6075 2.10625 
44 1 8.61993 8.61999 4.36921 
45 1 9.50347 9.50186 3.48936 
46 1 8.80656 7.09337 4.18256 
56 1 8.81659 8.81691 5.88977 
59 1 7.09318 8.80665 4.18235 
1 1 11.1214 11.1223 11.1069 
2 1 10.2322 10.2411 10.1013 
3 1 10.9239 12.6208 10.9131 
13 1 10.9266 10.9275 12.6089 
17 1 12.6201 10.9223 10.9126 
61 1 8.58152 8.58129 8.57946 
62 1 9.40685 9.39776 9.7157 
63 1 7.08158 8.77831 8.77172 
73 1 8.81306 8.81326 7.08795 
77 1 8.77715 7.08092 8.77081 
81 2 9.55067 9.50404 11.1466 
ITEM: TIMESTEP
80
ITEM: NUMBER OF ATOMS
81
ITEM: BOX BOUNDS pp pp pp
0.0000000000000000e+00 1.3416000000000000e+01
0.0000000000000000e+00 1.3416000000000000e+01
0.0000000000000000e+00 1.3414999999999999e+01
ITEM: ATOMS id type x y z 
21 1 1.91235 1.91265 1.91373 
22 1 2.79549 2.79394 2.79383 
23 1 0.386594 2.10029 2.1013 
33 1 2.10013 2.10025 0.388617 
37 1 2.09999 0.387078 2.10091 
41 1 4.37041 4.37087 4.37033 
42 1 3.49099 3.48824 3.48777 
43 1 4.18281 5.89658 4.18296 
53 1 4.18255 4.18289 5.89582 
57 1 5.89578 4.18349 4.18328 
4 1 1.91522 1.91485 11.0813 
5 1 2.79487 2.7947 10.1981 
6 1 2.10592 0.390096 10.8915 
16 1 2.10118 2.10092 12.6077 
19 1 0.390796 2.10605 10.8913 
64 1 4.36761 4.36836 8.61788 
65 1 3.4884 3.48844 9.50155 
66 1 5.89265 4.1791 8.80786 
76 1 4.18182 4.18203 7.09173 
79 1 4.17879 5.89324 8.80776 
10 1 1.91305 11.081 1.91695 
11 1 2.7947 10.1977 2.79565 
12 1 2.10031 12.6071 2.10177 
15 1 2.10475 10.8916 0.392353 
18 1 0.387727 10.8921 2.10526 
67 1 4.37153 8.61844 4.36703 
68 1 3.48974 9.50165 3.48834 
69 1 5.89755 8.80638 4.18158 
74 1 4.17985 8.80748 5.89157 
80 1 4.18316 7.09254 4.18179 
30 1 1.92512 11.0839 11.0851 
31 1 2.7972 10.1978 10.1976 
32 1 0.403102 10.908 10.9039 
35 1 2.10943 10.8921 12.6117 
38 1 2.11004 12.6105 10.8923 
47 1 4.35971 8.61528 8.61377 
48 1 3.48539 9.50079 9.49999 
49 1 4.17601 7.08884 8.80695 
54 1 4.17567 8.80688 7.0872 
60 1 5.88222 8.79387 8.7873 
7 1 11.0807 1.913 1.91714 
8 1 10.1992 2.79548 2.79688 
9 1 10.8923 0.387557 2.10527 
14 1 10.8916 2.10502 0.392365 
20 1 12.6066 2.10023 2.10198 
70 1 8.61788 4.3717 4.36675 
71 1 9.5024 3.4902 3.48911 
72 1 7.09174 4.18334 4.18173 
75 1 8.80717 4.1799 5.89098 
78 1 8.80613 5.89765 4.18148 
27 1 11.0849 1.92659 11.0851 
28 1 10.1987 2.79952 10.1983 
29 1 12.6112 2.11058 10.8921 
34 1 10.8925 2.10989 12.6117 
40 1 10.9094 0.404132 10.9041 
50 1 8.61497 4.35936 8.61317 
51 1 9.50121 3.48653 9.50019 
52 1 8.79271 5.88156 8.78641 
55 1 8.80671 4.17537 7.0866 
58 1 7.08824 4.17579 8.80691 
24 1 11.0822 11.0817 1.91785 
25 1 10.1986 10.1983 2.79728 
26 1 12.6079 10.892 2.10639 
36 1 10.9105 10.9108 0.391726 
39 1 10.8925 12.6078 2.10648 
44 1 8.62015 8.62019 4.3693 
45 1 9.50358 9.50228 3.48956 
46 1 8.80658 7.09355 4.18252 
56 1 8.8167 8.81699 5.89 
59 1 7.09345 8.80667 4.18236 
1 1 11.1218 11.1227 11.1068 
2 1 10.2318 10.2406 10.102 
3 1 10.9243 12.6211 10.9131 
13 1 10.927 10.9279 12.6089 
17 1 12.6202 10.9228 10.9127 
61 1 8.58126 8.58098 8.57956 
62 1 9.4066 9.39729 9.71608 
63 1 7.0811 8.77774 8.77121 
73 1 8.81307 8.81328 7.08823 
77 1 8.77652 7.08047 8.77021 
81 2 9.55028 9.50337 11.1471 
ITEM: TIMESTEP
90
ITEM: NUMBER OF ATOMS
81
ITEM: BOX BOUNDS pp pp pp
0.0000000000000000e+00 1.3416000000000000e+01
0.0000000000000000e+00 1.3416000000000000e+01
0.0000000000000000e+00 1.3414999999999999e+01
ITEM: ATOMS id type x y z 
21 1 1.91251 1.91262 1.91371 
22 1 2.79519 2.794 2.79412 
23 1 0.386759 2.10029 2.10132 
33 1 2.10024 2.10032 0.38857 
37 1 2.10004 0.387056 2.10099 
41 1 4.37055 4.37086 4.37019 
42 1 3.49063 3.48839 3.48806 
43 1 4.18282 5.89651 4.18285 
53 1 4.18251 4.18282 5.89568 
57 1 5.89591 4.18343 4.18312 
4 1 1.91547 1.9149 11.0815 
5 1 2.79482 2.79473 10.198 
6 1 2.1062 0.390118 10.8915 
16 1 2.10125 2.10103 12.6077 
19 1 0.390851 2.10631 10.8914 
64 1 4.36776 4.3683 8.61797 
65 1 3.48832 3.48842 9.50137 
66 1 5.89259 4.17885 8.80781 
76 1 4.18168 4.18197 7.09159 
79 1 4.17856 5.89314 8.80774 
10 1 1.91298 11.0809 1.91708 
11 1 2.79486 10.1979 2.79568 
12 1 2.10031 12.6071 2.10193 
15 1 2.10494 10.8916 0.392455 
18 1 0.387754 10.8921 2.10542 
67 1 4.37157 8.61831 4.3669 
68 1 3.48995 9.50171 3.48829 
69 1 5.89768 8.80636 4.18154 
74 1 4.17967 8.80745 5.89134 
80 1 4.18314 7.09246 4.1817 
30 1 1.92519 11.0841 11.0851 
31 1 2.79766 10.1979 10.1979 
32 1 0.403183 10.9082 10.904 
35 1 2.10959 10.8921 12.6118 
38 1 2.11026 12.6105 10.8923 
47 1 4.35929 8.61517 8.61353 
48 1 3.48542 9.50088 9.49998 
49 1 4.17559 7.08874 8.80686 
54 1 4.17525 8.80685 7.08697 
60 1 5.88193 8.79351 8.78685 
7 1 11.0809 1.91301 1.91735 
8 1 10.199 2.79539 2.79665 
9 1 10.8923 0.387589 2.10546 
14 1 10.8917 2.10518 0.392594 
20 1 12.6068 2.10029 2.10217 
70 1 8.61798 4.3718 4.36669 
71 1 9.50212 3.49028 3.48873 
72 1 7.09187 4.18339 4.18165 
75 1 8.80716 4.17967 5.89088 
78 1 8.80612 5.89779 4.18145 
27 1 11.085 1.92684 11.0853 
28 1 10.1987 2.79941 10.1983 
29 1 12.6113 2.1109 10.8922 
34 1 10.8926 2.11013 12.612 
40 1 10.9096 0.40436 10.9042 
50 1 8.61484 4.35908 8.61307 
51 1 9.50114 3.48637 9.50017 
52 1 8.79235 5.88135 8.78595 
55 1 8.80667 4.17497 7.08649 
58 1 7.08817 4.17541 8.8068 
24 1 11.0823 11.0819 1.91796 
25 1 10.1987 10.1981 2.79703 
26 1 12.608 10.892 2.10651 
36 1 10.9107 10.9111 0.391695 
39 1 10.8925 12.6078 2.10657 
44 1 8.62038 8.6203 4.36947 
45 1 9.50344 9.50268 3.48967 
46 1 8.80661 7.09369 4.18251 
56 1 8.81676 8.81705 5.89015 
59 1 7.09358 8.80671 4.18238 
1 1 11.1219 11.1229 11.1068 
2 1 10.2316 10.2404 10.1023 
3 1 10.9245 12.6214 10.9131 
13 1 10.9273 10.9282 12.6089 
17 1 12.6202 10.923 10.9127 
61 1 8.58107 8.5808 8.57961 
62 1 9.40635 9.39692 9.71626 
63 1 7.08079 8.77741 8.77091 
73 1 8.81308 8.81328 7.08835 
77 1 8.77616 7.08025 8.76986 
81 2 9.55003 9.50296 11.1473 
ITEM: TIMESTEP
100
ITEM: NUMBER OF ATOMS
81
ITEM: BOX BOUNDS pp pp pp
0.0000000000000000e+00 1.3416000000000000e+01
0.0000000000000000e+00 1.3416000000000000e+01
0.0000000000000000e+00 1.3414999999999999e+01
ITEM: ATOMS id type x y z 
21 1 1.91257 1.91262 1.9137 
22 1 2.79508 2.79398 2.79429 
23 1 0.38685 2.1003 2.10135 
33 1 2.1003 2.10037 0.388561 
37 1 2.10007 0.387056 2.10104 
41 1 4.37062 4.37084 4.37013 
42 1 3.49039 3.4885 3.48822 
43 1 4.18282 5.89648 4.18277 
53 1 4.18248 4.18279 5.89562 
57 1 5.89599 4.1834 4.18302 
4 1 1.91545 1.91496 11.0815 
5 1 2.79497 2.79467 10.1981 
6 1 2.10636 0.39014 10.8916 
16 1 2.10131 2.10109 12.6077 
19 1 0.390904 2.10645 10.8914 
64 1 4.36773 4.36828 8.61791 
65 1 3.48824 3.48847 9.5013 
66 1 5.89256 4.17868 8.80777 
76 1 4.18162 4.18192 7.09153 
79 1 4.17843 5.89308 8.80772 
10 1 1.91314 11.081 1.91706 
11 1 2.79475 10.1978 2.79579 
12 1 2.10032 12.6071 2.10202 
15 1 2.10505 10.8916 0.392514 
18 1 0.387786 10.8921 2.10551 
67 1 4.3718 8.61838 4.36675 
68 1 3.48987 9.50157 3.48827 
69 1 5.89777 8.80635 4.18151 
74 1 4.17955 8.80744 5.89121 
80 1 4.18314 7.09243 4.18164 
30 1 1.92525 11.0841 11.0852 
31 1 2.7979 10.198 10.198 
32 1 0.403233 10.9083 10.9041 
35 1 2.1097 10.8921 12.6119 
38 1 2.1104 12.6106 10.8924 
47 1 4.35902 8.61516 8.61331 
48 1 3.4855 9.50082 9.50015 
49 1 4.17533 7.08868 8.8068 
54 1 4.175 8.80683 7.08684 