
     Program PWSCF v.7.1 starts on 24May2025 at 21:36:33 

     This program is part of the open-source Quantum ESPRESSO suite
     for quantum simulation of materials; please cite
         "P. Giannozzi et al., J. Phys.:Condens. Matter 21 395502 (2009);
         "P. Giannozzi et al., J. Phys.:Condens. Matter 29 465901 (2017);
         "P. Giannozzi et al., J. Chem. Phys. 152 154105 (2020);
          URL http://www.quantum-espresso.org", 
     in publications or presentations arising from this work. More details at
     http://www.quantum-espresso.org/quote

     Parallel version (MPI), running on    16 processors

     MPI processes distributed on     1 nodes
     242955 MiB available memory on the printing compute node when the environment starts

     Reading input from input.pwi
Warning: card &CELL ignored
Warning: card / ignored
Warning: card &FCP ignored
Warning: card / ignored
Warning: card &RISM ignored
Warning: card / ignored

     Current dimensions of program PWSCF are:
     Max number of different atomic species (ntypx) = 10
     Max number of k-points (npk) =  40000
     Max angular momentum in pseudopotentials (lmaxx) =  4
     file C.pbe-n-kjpaw_psl.1.0.0.UPF: wavefunction(s)  2S 2P renormalized
     file O.pbe-n-kjpaw_psl.0.1.UPF: wavefunction(s)  2P renormalized

     IMPORTANT: XC functional enforced from input :
     Exchange-correlation= PBE
                           (   1   4   3   4   0   0   0)
     Any further DFT definition will be discarded
     Please, verify this is what you really want


     gamma-point specific algorithms are used

     R & G space division:  proc/nbgrp/npool/nimage =      16
     Subspace diagonalization in iterative solution of the eigenvalue problem:
     a serial algorithm will be used


     Parallelization info
     --------------------
     sticks:   dense  smooth     PW     G-vecs:    dense   smooth      PW
     Min         858     428    106                75870    26832    3354
     Max         860     430    108                75880    26846    3360
     Sum       13753    6869   1725              1214029   429409   53715

     Using Slab Decomposition



     bravais-lattice index     =            0
     lattice parameter (alat)  =      20.7870  a.u.
     unit-cell volume          =    8983.6663 (a.u.)^3
     number of atoms/cell      =           49
     number of atomic types    =            2
     number of electrons       =       198.00 (up:  99.00, down:  99.00)
     number of Kohn-Sham states=          119
     kinetic-energy cutoff     =      50.0000  Ry
     charge density cutoff     =     400.0000  Ry
     scf convergence threshold =      1.0E-06
     mixing beta               =       0.3000
     number of iterations used =            8  plain     mixing
     energy convergence thresh.=      1.0E-04
     force convergence thresh. =      1.0E-03
     Exchange-correlation= PBE
                           (   1   4   3   4   0   0   0)
     nstep                     =         1000


     celldm(1)=  20.786987  celldm(2)=   0.000000  celldm(3)=   0.000000
     celldm(4)=   0.000000  celldm(5)=   0.000000  celldm(6)=   0.000000

     crystal axes: (cart. coord. in units of alat)
               a(1) = (   1.000000   0.000000   0.000000 )  
               a(2) = (   0.000000   1.000182   0.000000 )  
               a(3) = (   0.000000   0.000000   1.000000 )  

     reciprocal axes: (cart. coord. in units 2 pi/alat)
               b(1) = (  1.000000  0.000000  0.000000 )  
               b(2) = (  0.000000  0.999818  0.000000 )  
               b(3) = (  0.000000  0.000000  1.000000 )  


     PseudoPot. # 1 for C  read from file:
     /home/ana.bisette/espresso/pseudo/C.pbe-n-kjpaw_psl.1.0.0.UPF
     MD5 check sum: 5d2aebdfa2cae82b50a7e79e9516da0f
     Pseudo is Projector augmented-wave + core cor, Zval =  4.0
     Generated using "atomic" code by A. Dal Corso  v.5.1
     Shape of augmentation charge: PSQ
     Using radial grid of 1073 points,  4 beta functions with: 
                l(1) =   0
                l(2) =   0
                l(3) =   1
                l(4) =   1
     Q(r) pseudized with 0 coefficients 


     PseudoPot. # 2 for O  read from file:
     /home/ana.bisette/espresso/pseudo/O.pbe-n-kjpaw_psl.0.1.UPF
     MD5 check sum: 0234752ac141de4415c5fc33072bef88
     Pseudo is Projector augmented-wave + core cor, Zval =  6.0
     Generated using "atomic" code by A. Dal Corso  v.5.0.99 svn rev. 10869
     Shape of augmentation charge: BESSEL
     Using radial grid of 1095 points,  4 beta functions with: 
                l(1) =   0
                l(2) =   0
                l(3) =   1
                l(4) =   1
     Q(r) pseudized with 0 coefficients 


     atomic species   valence    mass     pseudopotential
        C              4.00    12.01100     C ( 1.00)
        O              6.00    15.99900     O ( 1.00)

     Starting magnetic structure 
     atomic species   magnetization
        C            0.000
        O            0.000

     No symmetry found



   Cartesian axes

     site n.     atom                  positions (alat units)
         1           C   tau(   1) = (   0.5607273   0.4189091   0.5608182  )
         2           C   tau(   2) = (   0.6985455   0.2805455   0.6985455  )
         3           C   tau(   3) = (   0.6340000   0.3453636   0.6340000  )
         4           C   tau(   4) = (   0.4189091   0.5608182   0.5608182  )
         5           C   tau(   5) = (   0.2805455   0.6985455   0.6985455  )
         6           C   tau(   6) = (   0.3453636   0.6340000   0.6340000  )
         7           C   tau(   7) = (   0.5608182   0.5608182   0.4189091  )
         8           C   tau(   8) = (   0.6985455   0.6985455   0.2805455  )
         9           C   tau(   9) = (   0.6340000   0.6340000   0.3453636  )
        10           C   tau(  10) = (   0.4184545   0.4184545   0.4184545  )
        11           C   tau(  11) = (   0.2804545   0.2804545   0.2804545  )
        12           C   tau(  12) = (   0.3450909   0.3450909   0.3450909  )
        13           C   tau(  13) = (   0.5659091   0.4132727   0.4132727  )
        14           C   tau(  14) = (   0.7058182   0.2739091   0.2739091  )
        15           C   tau(  15) = (   0.6411818   0.3382727   0.3383636  )
        16           C   tau(  16) = (   0.4132727   0.5659091   0.4132727  )
        17           C   tau(  17) = (   0.2739091   0.7059091   0.2739091  )
        18           C   tau(  18) = (   0.3382727   0.6411818   0.3383636  )
        19           C   tau(  19) = (   0.4132727   0.4131818   0.5660000  )
        20           C   tau(  20) = (   0.2739091   0.2739091   0.7058182  )
        21           C   tau(  21) = (   0.3382727   0.3382727   0.6411818  )
        22           C   tau(  22) = (   0.5662727   0.5662727   0.5662727  )
        23           C   tau(  23) = (   0.7058182   0.7059091   0.7059091  )
        24           C   tau(  24) = (   0.6413636   0.6414545   0.6413636  )
        25           C   tau(  25) = (   0.0607273   0.9184545   0.0607273  )
        26           C   tau(  26) = (   0.1989091   0.7808182   0.1989091  )
        27           C   tau(  27) = (   0.1341818   0.8452727   0.1341818  )
        28           C   tau(  28) = (   0.9183636   0.0606364   0.0607273  )
        29           C   tau(  29) = (   0.7808182   0.1988182   0.1989091  )
        30           C   tau(  30) = (   0.8452727   0.1340909   0.1341818  )
        31           C   tau(  31) = (   0.0607273   0.0606364   0.9184545  )
        32           C   tau(  32) = (   0.1988182   0.1988182   0.7808182  )
        33           C   tau(  33) = (   0.1341818   0.1340909   0.8452727  )
        34           C   tau(  34) = (   0.9189091   0.9189091   0.9188182  )
        35           C   tau(  35) = (   0.7809091   0.7809091   0.7809091  )
        36           C   tau(  36) = (   0.8455455   0.8455455   0.8454545  )
        37           C   tau(  37) = (   0.0662727   0.9132727   0.9132727  )
        38           C   tau(  38) = (   0.2053636   0.7735455   0.7734545  )
        39           C   tau(  39) = (   0.1410909   0.8380909   0.8380909  )
        40           C   tau(  40) = (   0.9131818   0.0661818   0.9132727  )
        41           C   tau(  41) = (   0.7734545   0.2053636   0.7734545  )
        42           C   tau(  42) = (   0.8380000   0.1410000   0.8380000  )
        43           C   tau(  43) = (   0.9132727   0.9133636   0.0662727  )
        44           C   tau(  44) = (   0.7734545   0.7735455   0.2053636  )
        45           C   tau(  45) = (   0.8380909   0.8380909   0.1410909  )
        46           C   tau(  46) = (   0.0660000   0.0659091   0.0659091  )
        47           C   tau(  47) = (   0.2054545   0.2053636   0.2054545  )
        48           C   tau(  48) = (   0.1410000   0.1409091   0.1409091  )
        49           O   tau(  49) = (   0.6814545   0.3169091   0.8151818  )

     number of k points=     1  Gaussian smearing, width (Ry)=  0.0001
                       cart. coord. in units 2pi/alat
        k(    1) = (   0.0000000   0.0000000   0.0000000), wk =   1.0000000

     Dense  grid:   607015 G-vectors     FFT dimensions: ( 135, 135, 135)

     Smooth grid:   214705 G-vectors     FFT dimensions: (  96,  96,  96)

     Estimated max dynamical RAM per process >     173.67 MB

     Estimated total dynamical RAM >       2.71 GB

     Check: negative core charge=   -0.000004
     Generating pointlists ...
     new r_m :   0.0461 (alat units)  0.9573 (a.u.) for type    1
     new r_m :   0.0509 (alat units)  1.0578 (a.u.) for type    2

     Initial potential from superposition of free atoms

     starting charge     197.9980, renormalised to     198.0000
     Starting wfcs are  196 randomized atomic wfcs
     Checking if some PAW data can be deallocated... 

     total cpu time spent up to now is        2.9 secs

     Self-consistent Calculation

     iteration #  1     ecut=    50.00 Ry     beta= 0.30
     Davidson diagonalization with overlap
     ethr =  1.00E-02,  avg # of iterations =  2.0

     total cpu time spent up to now is        5.4 secs

     total energy              =    -923.43247118 Ry
     estimated scf accuracy    <       5.35569949 Ry

     total magnetization       =    -0.00 Bohr mag/cell
     absolute magnetization    =     0.06 Bohr mag/cell

     iteration #  2     ecut=    50.00 Ry     beta= 0.30
     Davidson diagonalization with overlap
     ethr =  2.70E-03,  avg # of iterations =  1.0

     negative rho (up, down):  1.625E-08 1.673E-08

     total cpu time spent up to now is        7.4 secs

     total energy              =    -922.69032440 Ry
     estimated scf accuracy    <       2.64609767 Ry

     total magnetization       =    -0.00 Bohr mag/cell
     absolute magnetization    =     0.05 Bohr mag/cell

     iteration #  3     ecut=    50.00 Ry     beta= 0.30
     Davidson diagonalization with overlap
     ethr =  1.34E-03,  avg # of iterations =  2.0

     negative rho (up, down):  6.197E-07 6.224E-07

     total cpu time spent up to now is        9.5 secs

     total energy              =    -922.82967753 Ry
     estimated scf accuracy    <       2.06189311 Ry

     total magnetization       =     0.00 Bohr mag/cell
     absolute magnetization    =     0.04 Bohr mag/cell

     iteration #  4     ecut=    50.00 Ry     beta= 0.30
     Davidson diagonalization with overlap
     ethr =  1.04E-03,  avg # of iterations =  1.0

     negative rho (up, down):  6.688E-07 6.767E-07

     total cpu time spent up to now is       11.4 secs

     total energy              =    -922.96463766 Ry
     estimated scf accuracy    <       0.46072947 Ry

     total magnetization       =    -0.00 Bohr mag/cell
     absolute magnetization    =     0.03 Bohr mag/cell

     iteration #  5     ecut=    50.00 Ry     beta= 0.30
     Davidson diagonalization with overlap
     ethr =  2.33E-04,  avg # of iterations =  1.0

     negative rho (up, down):  7.002E-07 7.055E-07

     total cpu time spent up to now is       13.4 secs

     total energy              =    -922.93530477 Ry
     estimated scf accuracy    <       0.23913564 Ry

     total magnetization       =     0.00 Bohr mag/cell
     absolute magnetization    =     0.03 Bohr mag/cell

     iteration #  6     ecut=    50.00 Ry     beta= 0.30
     Davidson diagonalization with overlap
     ethr =  1.21E-04,  avg # of iterations =  3.0

     negative rho (up, down):  7.491E-07 7.543E-07

     total cpu time spent up to now is       15.5 secs

     total energy              =    -922.95204042 Ry
     estimated scf accuracy    <       0.01806823 Ry

     total magnetization       =    -0.00 Bohr mag/cell
     absolute magnetization    =     0.02 Bohr mag/cell

     iteration #  7     ecut=    50.00 Ry     beta= 0.30
     Davidson diagonalization with overlap
     ethr =  9.13E-06,  avg # of iterations =  5.0

     negative rho (up, down):  9.528E-07 9.574E-07

     total cpu time spent up to now is       18.0 secs

     total energy              =    -922.95258306 Ry
     estimated scf accuracy    <       0.02405689 Ry

     total magnetization       =    -0.00 Bohr mag/cell
     absolute magnetization    =     0.01 Bohr mag/cell

     iteration #  8     ecut=    50.00 Ry     beta= 0.30
     Davidson diagonalization with overlap
     ethr =  9.13E-06,  avg # of iterations =  2.0

     negative rho (up, down):  1.169E-06 1.173E-06

     total cpu time spent up to now is       20.1 secs

     total energy              =    -922.95415902 Ry
     estimated scf accuracy    <       0.00161970 Ry

     total magnetization       =    -0.00 Bohr mag/cell
     absolute magnetization    =     0.01 Bohr mag/cell

     iteration #  9     ecut=    50.00 Ry     beta= 0.30
     Davidson diagonalization with overlap
     ethr =  8.18E-07,  avg # of iterations = 16.0

     negative rho (up, down):  1.153E-06 1.156E-06

     total cpu time spent up to now is       23.3 secs

     total energy              =    -922.95409819 Ry
     estimated scf accuracy    <       0.00377332 Ry

     total magnetization       =     0.00 Bohr mag/cell
     absolute magnetization    =     0.01 Bohr mag/cell

     iteration # 10     ecut=    50.00 Ry     beta= 0.30
     Davidson diagonalization with overlap
     ethr =  8.18E-07,  avg # of iterations =  2.0

     negative rho (up, down):  1.139E-06 1.141E-06

     total cpu time spent up to now is       25.4 secs

     total energy              =    -922.95435296 Ry
     estimated scf accuracy    <       0.00006948 Ry

     total magnetization       =     0.00 Bohr mag/cell
     absolute magnetization    =     0.01 Bohr mag/cell

     iteration # 11     ecut=    50.00 Ry     beta= 0.30
     Davidson diagonalization with overlap
     ethr =  3.51E-08,  avg # of iterations =  4.0

     negative rho (up, down):  1.156E-06 1.158E-06

     total cpu time spent up to now is       27.8 secs

     total energy              =    -922.95436557 Ry
     estimated scf accuracy    <       0.00000989 Ry

     total magnetization       =     0.00 Bohr mag/cell
     absolute magnetization    =     0.01 Bohr mag/cell

     iteration # 12     ecut=    50.00 Ry     beta= 0.30
     Davidson diagonalization with overlap
     ethr =  4.99E-09,  avg # of iterations =  3.0

     negative rho (up, down):  1.155E-06 1.157E-06

     total cpu time spent up to now is       30.1 secs

     total energy              =    -922.95436752 Ry
     estimated scf accuracy    <       0.00000179 Ry

     total magnetization       =    -0.00 Bohr mag/cell
     absolute magnetization    =     0.01 Bohr mag/cell

     iteration # 13     ecut=    50.00 Ry     beta= 0.30
     Davidson diagonalization with overlap
     ethr =  9.03E-10,  avg # of iterations =  4.0

     negative rho (up, down):  1.159E-06 1.160E-06

     total cpu time spent up to now is       32.3 secs

     total energy              =    -922.95436763 Ry
     estimated scf accuracy    <       0.00000132 Ry

     total magnetization       =     0.00 Bohr mag/cell
     absolute magnetization    =     0.00 Bohr mag/cell

     iteration # 14     ecut=    50.00 Ry     beta= 0.30
     Davidson diagonalization with overlap
     ethr =  6.67E-10,  avg # of iterations =  2.0

     negative rho (up, down):  1.162E-06 1.162E-06

     Magnetic moment per site  (integrated on atomic sphere of radius R)
     atom   1 (R=0.046)  charge=  1.1227  magn= -0.0000
     atom   2 (R=0.046)  charge=  1.2114  magn= -0.0000
     atom   3 (R=0.046)  charge=  1.2056  magn=  0.0001
     atom   4 (R=0.046)  charge=  1.1271  magn=  0.0000
     atom   5 (R=0.046)  charge=  1.1710  magn=  0.0001
     atom   6 (R=0.046)  charge=  1.1953  magn= -0.0001
     atom   7 (R=0.046)  charge=  1.1270  magn= -0.0000
     atom   8 (R=0.046)  charge=  1.1709  magn= -0.0000
     atom   9 (R=0.046)  charge=  1.1956  magn=  0.0000
     atom  10 (R=0.046)  charge=  1.1266  magn=  0.0000
     atom  11 (R=0.046)  charge=  1.1712  magn=  0.0000
     atom  12 (R=0.046)  charge=  1.1951  magn= -0.0000
     atom  13 (R=0.046)  charge=  1.1151  magn=  0.0000
     atom  14 (R=0.046)  charge=  1.1704  magn= -0.0000
     atom  15 (R=0.046)  charge=  1.1855  magn=  0.0000
     atom  16 (R=0.046)  charge=  1.1182  magn= -0.0000
     atom  17 (R=0.046)  charge=  1.1715  magn= -0.0000
     atom  18 (R=0.046)  charge=  1.1838  magn=  0.0000
     atom  19 (R=0.046)  charge=  1.1191  magn=  0.0000
     atom  20 (R=0.046)  charge=  1.1717  magn=  0.0000
     atom  21 (R=0.046)  charge=  1.1846  magn= -0.0000
     atom  22 (R=0.046)  charge=  1.1174  magn=  0.0000
     atom  23 (R=0.046)  charge=  1.1703  magn= -0.0000
     atom  24 (R=0.046)  charge=  1.1834  magn=  0.0000
     atom  25 (R=0.046)  charge=  1.1271  magn=  0.0000
     atom  26 (R=0.046)  charge=  1.1724  magn=  0.0000
     atom  27 (R=0.046)  charge=  1.1960  magn= -0.0000
     atom  28 (R=0.046)  charge=  1.1304  magn= -0.0000
     atom  29 (R=0.046)  charge=  1.1725  magn=  0.0000
     atom  30 (R=0.046)  charge=  1.1951  magn= -0.0000
     atom  31 (R=0.046)  charge=  1.1279  magn=  0.0000
     atom  32 (R=0.046)  charge=  1.1724  magn=  0.0000
     atom  33 (R=0.046)  charge=  1.1961  magn= -0.0000
     atom  34 (R=0.046)  charge=  1.1290  magn= -0.0000
     atom  35 (R=0.046)  charge=  1.1713  magn=  0.0000
     atom  36 (R=0.046)  charge=  1.1960  magn= -0.0000
     atom  37 (R=0.046)  charge=  1.1184  magn= -0.0000
     atom  38 (R=0.046)  charge=  1.1707  magn= -0.0000
     atom  39 (R=0.046)  charge=  1.1847  magn=  0.0000
     atom  40 (R=0.046)  charge=  1.1123  magn=  0.0000
     atom  41 (R=0.046)  charge=  1.1681  magn=  0.0000
     atom  42 (R=0.046)  charge=  1.1949  magn= -0.0001
     atom  43 (R=0.046)  charge=  1.1186  magn= -0.0000
     atom  44 (R=0.046)  charge=  1.1711  magn=  0.0000
     atom  45 (R=0.046)  charge=  1.1843  magn= -0.0000
     atom  46 (R=0.046)  charge=  1.1188  magn= -0.0000
     atom  47 (R=0.046)  charge=  1.1715  magn= -0.0000
     atom  48 (R=0.046)  charge=  1.1851  magn=  0.0000
     atom  49 (R=0.051)  charge=  3.5225  magn= -0.0001

     total cpu time spent up to now is       34.4 secs

     End of self-consistent calculation

 ------ SPIN UP ------------


          k = 0.0000 0.0000 0.0000 ( 26858 PWs)   bands (ev):

   -23.7646 -21.6834 -21.5491 -17.6796 -17.6336 -17.6094 -17.4873 -17.4670
   -17.4526 -16.8926 -16.8389 -16.8046 -16.7299 -16.4601 -16.2714 -16.1080
   -16.0671 -15.9801 -15.9363 -15.8561 -15.7020 -15.4481 -14.9294 -14.7232
   -14.6832 -14.1797 -14.1386 -13.9580 -13.5179 -13.1292 -13.0403 -12.9873
   -12.9511 -12.3926 -12.1376 -11.9235 -11.8857 -11.6785 -11.2383 -10.9360
   -10.8919 -10.6938 -10.3889 -10.0745 -10.0458 -10.0216  -9.6184  -9.6171
    -9.5884  -9.5443  -9.5131  -9.4838  -9.4809  -7.6549  -7.5985  -7.0017
    -6.9283  -6.8153  -6.6842  -6.6669  -6.6523  -6.3732  -6.2556  -6.2246
    -6.0958  -5.9627  -5.9487  -5.6784  -5.6057  -5.5754  -5.5687  -5.4842
    -5.4456  -5.4390  -5.3074  -5.2873  -4.8992  -4.8807  -4.7749  -4.5048
    -4.4841  -4.3439  -4.0055  -3.9516  -3.8595  -3.6959  -3.6205  -3.5305
    -3.4729  -3.3169  -3.2032  -3.0723  -3.0671  -3.0191  -2.6116  -2.4805
    -2.1190  -2.0954  -1.7684  -1.1391  -0.2911  -0.2108  -0.0076   0.5327
     0.6170   0.7644   1.1490   1.1612   1.2187   1.2932   1.4845   1.6061
     2.1664   2.1856   2.2041   2.3466   2.4645   2.5225   2.5526

 ------ SPIN DOWN ----------


          k = 0.0000 0.0000 0.0000 ( 26858 PWs)   bands (ev):

   -23.7645 -21.6834 -21.5491 -17.6796 -17.6336 -17.6093 -17.4873 -17.4670
   -17.4526 -16.8926 -16.8389 -16.8046 -16.7299 -16.4600 -16.2715 -16.1080
   -16.0671 -15.9800 -15.9362 -15.8561 -15.7020 -15.4481 -14.9294 -14.7232
   -14.6832 -14.1797 -14.1386 -13.9580 -13.5179 -13.1292 -13.0403 -12.9872
   -12.9511 -12.3926 -12.1377 -11.9235 -11.8857 -11.6785 -11.2383 -10.9360
   -10.8919 -10.6938 -10.3889 -10.0745 -10.0458 -10.0216  -9.6184  -9.6171
    -9.5884  -9.5443  -9.5131  -9.4838  -9.4809  -7.6548  -7.5984  -7.0017
    -6.9283  -6.8153  -6.6842  -6.6670  -6.6523  -6.3732  -6.2556  -6.2246
    -6.0958  -5.9628  -5.9487  -5.6785  -5.6057  -5.5754  -5.5687  -5.4842
    -5.4456  -5.4389  -5.3074  -5.2873  -4.8992  -4.8806  -4.7749  -4.5048
    -4.4841  -4.3439  -4.0055  -3.9517  -3.8595  -3.6959  -3.6205  -3.5306
    -3.4729  -3.3169  -3.2032  -3.0723  -3.0671  -3.0191  -2.6115  -2.4805
    -2.1190  -2.0954  -1.7686  -1.1388  -0.2911  -0.2108  -0.0075   0.5327
     0.6170   0.7644   1.1490   1.1612   1.2186   1.2932   1.4845   1.6061
     2.1664   2.1856   2.2042   2.3466   2.4645   2.5225   2.5525

     the spin up/dw Fermi energies are    -1.5501   -1.5501 ev

!    total energy              =    -922.95436774 Ry
     total all-electron energy =     -3804.477956 Ry
     estimated scf accuracy    <       0.00000018 Ry
     smearing contrib. (-TS)   =      -0.00000000 Ry
     internal energy E=F+TS    =    -922.95436774 Ry

     The total energy is F=E-TS. E is the sum of the following terms:
     one-electron contribution =   -1262.08517809 Ry
     hartree contribution      =     677.14078402 Ry
     xc contribution           =    -225.64826772 Ry
     ewald contribution        =     193.22147100 Ry
     one-center paw contrib.   =    -305.58317695 Ry

     total magnetization       =     0.00 Bohr mag/cell
     absolute magnetization    =     0.00 Bohr mag/cell

     convergence has been achieved in  14 iterations

     negative rho (up, down):  1.162E-06 1.162E-06

     Forces acting on atoms (cartesian axes, Ry/au):

     atom    1 type  1   force =     0.04684070   -0.06185258    0.11706770
     atom    2 type  1   force =     0.15572896   -0.15399392    0.16990323
     atom    3 type  1   force =    -0.13357577    0.12453369   -0.20653128
     atom    4 type  1   force =    -0.01585372    0.01222003    0.02107737
     atom    5 type  1   force =    -0.04939638    0.04918287    0.04907136
     atom    6 type  1   force =    -0.03710198    0.03735574    0.03907016
     atom    7 type  1   force =     0.01759576    0.01891732   -0.01972598
     atom    8 type  1   force =     0.04887555    0.04907103   -0.04920935
     atom    9 type  1   force =     0.03788407    0.03687111   -0.03859693
     atom   10 type  1   force =    -0.01716442   -0.01814865   -0.01464017
     atom   11 type  1   force =    -0.04893572   -0.04912286   -0.04878076
     atom   12 type  1   force =    -0.03558689   -0.03742448   -0.03755760
     atom   13 type  1   force =    -0.04263517    0.04547540    0.00362112
     atom   14 type  1   force =     0.06058218   -0.06075719   -0.06033646
     atom   15 type  1   force =    -0.01884109    0.01922074    0.01212865
     atom   16 type  1   force =     0.05663705   -0.05255711    0.04598141
     atom   17 type  1   force =    -0.04907063    0.04858028   -0.04888297
     atom   18 type  1   force =     0.00394067   -0.00374352    0.00345970
     atom   19 type  1   force =     0.04129485    0.04855699   -0.05017734
     atom   20 type  1   force =    -0.05723713   -0.05785493    0.05661961
     atom   21 type  1   force =     0.01121035    0.01122131   -0.01214847
     atom   22 type  1   force =    -0.04606874   -0.03352295   -0.05164660
     atom   23 type  1   force =     0.05696607    0.05609932    0.05573861
     atom   24 type  1   force =    -0.01232956   -0.01139106   -0.01360726
     atom   25 type  1   force =     0.01473034   -0.01375045    0.02203791
     atom   26 type  1   force =     0.04636086   -0.04633074    0.04638776
     atom   27 type  1   force =     0.03882741   -0.03852220    0.03888250
     atom   28 type  1   force =    -0.01465356    0.01572208    0.05588214
     atom   29 type  1   force =    -0.05796147    0.05782547    0.05502897
     atom   30 type  1   force =    -0.02497398    0.02529679    0.03267884
     atom   31 type  1   force =     0.02413895    0.02627921   -0.01851827
     atom   32 type  1   force =     0.05289168    0.05333656   -0.05264532
     atom   33 type  1   force =     0.03427748    0.03234527   -0.03318194
     atom   34 type  1   force =    -0.02814018   -0.03304980   -0.01998181
     atom   35 type  1   force =    -0.05438140   -0.05315851   -0.05328674
     atom   36 type  1   force =    -0.03053298   -0.03402471   -0.03180307
     atom   37 type  1   force =    -0.05517280    0.05502316    0.04596559
     atom   38 type  1   force =     0.05300401   -0.05255564   -0.05274546
     atom   39 type  1   force =    -0.00725560    0.00739382    0.00723306
     atom   40 type  1   force =     0.02078410   -0.01505423    0.00403489
     atom   41 type  1   force =    -0.02477130    0.01243958   -0.11690161
     atom   42 type  1   force =     0.09600208   -0.09652253    0.06302420
     atom   43 type  1   force =     0.05108041    0.05128769   -0.05207400
     atom   44 type  1   force =    -0.05207066   -0.05208805    0.05284556
     atom   45 type  1   force =     0.00742131    0.00670573   -0.00686707
     atom   46 type  1   force =    -0.05277086   -0.05073196   -0.05169251
     atom   47 type  1   force =     0.05222305    0.05279606    0.05249167
     atom   48 type  1   force =    -0.00542838   -0.00641556   -0.00585153
     atom   49 type  2   force =    -0.05738750    0.07881640    0.09715848

     Total force =     0.658946     Total SCF correction =     0.000722

     BFGS Geometry Optimization
     Energy error            =      0.0E+00 Ry
     Gradient error          =      2.1E-01 Ry/Bohr

     number of scf cycles    =   1
     number of bfgs steps    =   0

     energy             new  =    -922.9543677371 Ry

     new trust radius        =       0.2771872002 bohr
     new conv_thr            =       0.0000010000 Ry


ATOMIC_POSITIONS (angstrom)
C             6.1927870312        4.5752690247        6.2309495583
C             7.7664082182        3.0045099292        7.7739089181
C             6.9033147452        3.8649003926        6.8647083537
C             4.5996105706        6.1754665623        6.1801536643
C             3.0598605606        7.7100264531        7.7099674463
C             3.7793664789        6.9937678079        6.9946750393
C             6.1783112743        6.1790106162        4.5975614596
C             7.7098638247        7.7099672690        3.0599595359
C             6.9940473880        6.9935113506        3.7785753825
C             4.5939169808        4.5933961469        4.5952527583
C             3.0591043299        3.0590053009        3.0591863309
C             3.7771682269        3.7761958155        3.7761253741
C             6.2024384395        4.5700645458        4.5479162155
C             7.7960587069        2.9808486774        2.9810713224
C             7.0430297220        3.7311711801        3.7284182064
C             4.5759710351        6.1971879737        4.5703323140
C             2.9870329402        7.7907075785        2.9871322470
C             3.7230853151        7.0510190155        3.7238307962
C             4.5678522949        4.5706952542        6.1994472936
C             2.9827114165        2.9823844912        7.7939618090
C             3.7269322606        3.7269380612        7.0465713087
C             6.2046214749        6.2112604170        6.2016697953
C             7.7941451483        7.7946864807        7.7944956007
C             7.0484754762        7.0499721118        7.0477993478
C             0.6757949582       10.0957235734        0.6796619615
C             2.2125331084        8.5644828266        2.2125473465
C             1.4965465791        9.2776149291        1.4965757320
C            10.0942456703        0.6753197661        0.6975715565
C             8.5583281102        2.2175999195        2.2171200746
C             9.2847843410        1.4883864827        1.4932928950
C             0.6807737801        0.6809063589       10.0932005515
C             2.2149890729        2.2152244920        8.5611412982
C             1.4941388622        1.4921163775        9.2804408722
C            10.0931088599       10.0905107995       10.0964260794
C             8.5612226048        8.5618697259        8.5618018702
C             9.2848426438        9.2829948999        9.2831705376
C             0.6998038112       10.0751170008       10.0703239441
C             2.2870485125        8.4811887508        8.4800883036
C             1.5481605029        9.2229126392        9.2228275713
C            10.0559984738        0.7200336466       10.0481351724
C             8.4948915923        2.2655827438        8.4461383338
C             9.2688021127        1.4999224756        9.2513509682
C            10.0730305864       10.0741402751        0.7014436260
C             8.4804453939        8.4814361905        2.2869646685
C             9.2229271875        9.2225485179        1.5483661023
C             0.6980748628        0.6981538047        0.6976455040
C             2.2876352457        2.2869384727        2.2877773965
C             1.5481274265        1.5466050337        1.5469035033
O             7.4656318413        3.5277078414        9.0184140524



     Writing config-only to output data dir ./pwscf.save/
     NEW-OLD atomic charge density approx. for the potential

     Check: negative core charge=   -0.000004

     negative rho (up, down):  1.232E-06 1.232E-06
     Generating pointlists ...
     new r_m :   0.0445 (alat units)  0.9260 (a.u.) for type    1

     total cpu time spent up to now is       38.6 secs

     Self-consistent Calculation

     iteration #  1     ecut=    50.00 Ry     beta= 0.30
     Davidson diagonalization with overlap
     c_bands:  1 eigenvalues not converged
     c_bands:  1 eigenvalues not converged
     ethr =  1.00E-06,  avg # of iterations = 20.0

     negative rho (up, down):  1.157E-06 1.158E-06

     total cpu time spent up to now is       45.1 secs

     total energy              =    -922.73976181 Ry
     estimated scf accuracy    <       0.57847048 Ry

     total magnetization       =     0.00 Bohr mag/cell
     absolute magnetization    =     0.00 Bohr mag/cell

     iteration #  2     ecut=    50.00 Ry     beta= 0.30
     Davidson diagonalization with overlap
     ethr =  2.92E-04,  avg # of iterations =  2.0

     negative rho (up, down):  1.456E-06 1.457E-06

     total cpu time spent up to now is       47.2 secs

     total energy              =    -922.74555945 Ry
     estimated scf accuracy    <       0.70477170 Ry

     total magnetization       =     0.00 Bohr mag/cell
     absolute magnetization    =     0.00 Bohr mag/cell

     iteration #  3     ecut=    50.00 Ry     beta= 0.30
     Davidson diagonalization with overlap
     ethr =  2.92E-04,  avg # of iterations =  1.0

     negative rho (up, down):  1.497E-06 1.497E-06

     total cpu time spent up to now is       49.0 secs

     total energy              =    -922.81537577 Ry
     estimated scf accuracy    <       0.31838668 Ry

     total magnetization       =    -0.00 Bohr mag/cell
     absolute magnetization    =     0.00 Bohr mag/cell

     iteration #  4     ecut=    50.00 Ry     beta= 0.30
     Davidson diagonalization with overlap
     ethr =  1.61E-04,  avg # of iterations =  1.0

     negative rho (up, down):  1.136E-06 1.136E-06

     total cpu time spent up to now is       50.8 secs

     total energy              =    -922.83496031 Ry
     estimated scf accuracy    <       0.02221668 Ry

     total magnetization       =    -0.00 Bohr mag/cell
     absolute magnetization    =     0.00 Bohr mag/cell

     iteration #  5     ecut=    50.00 Ry     beta= 0.30
     Davidson diagonalization with overlap
     ethr =  1.12E-05,  avg # of iterations =  2.0

     negative rho (up, down):  1.087E-06 1.087E-06

     total cpu time spent up to now is       53.0 secs

     total energy              =    -922.83603837 Ry
     estimated scf accuracy    <       0.00880507 Ry

     total magnetization       =    -0.00 Bohr mag/cell
     absolute magnetization    =     0.00 Bohr mag/cell

     iteration #  6     ecut=    50.00 Ry     beta= 0.30
     Davidson diagonalization with overlap
     ethr =  4.45E-06,  avg # of iterations =  2.0

     negative rho (up, down):  1.079E-06 1.079E-06

     total cpu time spent up to now is       55.1 secs

     total energy              =    -922.83687691 Ry
     estimated scf accuracy    <       0.00240970 Ry

     total magnetization       =    -0.00 Bohr mag/cell
     absolute magnetization    =     0.00 Bohr mag/cell

     iteration #  7     ecut=    50.00 Ry     beta= 0.30
     Davidson diagonalization with overlap
     ethr =  1.22E-06,  avg # of iterations =  4.0

     negative rho (up, down):  1.087E-06 1.087E-06

     total cpu time spent up to now is       57.2 secs

     total energy              =    -922.83711191 Ry
     estimated scf accuracy    <       0.00079597 Ry

     total magnetization       =     0.00 Bohr mag/cell
     absolute magnetization    =     0.00 Bohr mag/cell

     iteration #  8     ecut=    50.00 Ry     beta= 0.30
     Davidson diagonalization with overlap
     ethr =  4.02E-07,  avg # of iterations =  2.0

     negative rho (up, down):  1.101E-06 1.101E-06

     total cpu time spent up to now is       59.3 secs

     total energy              =    -922.83719811 Ry
     estimated scf accuracy    <       0.00015543 Ry

     total magnetization       =    -0.00 Bohr mag/cell
     absolute magnetization    =     0.00 Bohr mag/cell

     iteration #  9     ecut=    50.00 Ry     beta= 0.30
     Davidson diagonalization with overlap
     ethr =  7.85E-08,  avg # of iterations =  2.0

     negative rho (up, down):  1.110E-06 1.110E-06

     total cpu time spent up to now is       61.4 secs

     total energy              =    -922.83721215 Ry
     estimated scf accuracy    <       0.00002411 Ry

     total magnetization       =     0.00 Bohr mag/cell
     absolute magnetization    =     0.00 Bohr mag/cell

     iteration # 10     ecut=    50.00 Ry     beta= 0.30
     Davidson diagonalization with overlap
     ethr =  1.22E-08,  avg # of iterations =  4.0

     negative rho (up, down):  1.109E-06 1.109E-06

     total cpu time spent up to now is       63.8 secs

     total energy              =    -922.83721525 Ry
     estimated scf accuracy    <       0.00000521 Ry

     total magnetization       =     0.00 Bohr mag/cell
     absolute magnetization    =     0.00 Bohr mag/cell

     iteration # 11     ecut=    50.00 Ry     beta= 0.30
     Davidson diagonalization with overlap
     ethr =  2.63E-09,  avg # of iterations =  2.0

     negative rho (up, down):  1.108E-06 1.108E-06

     total cpu time spent up to now is       65.9 secs

     total energy              =    -922.83721599 Ry
     estimated scf accuracy    <       0.00000141 Ry

     total magnetization       =    -0.00 Bohr mag/cell
     absolute magnetization    =     0.00 Bohr mag/cell

     iteration # 12     ecut=    50.00 Ry     beta= 0.30
     Davidson diagonalization with overlap
     ethr =  7.10E-10,  avg # of iterations =  2.0

     negative rho (up, down):  1.110E-06 1.110E-06

     Magnetic moment per site  (integrated on atomic sphere of radius R)
     atom   1 (R=0.045)  charge=  1.1180  magn= -0.0000
     atom   2 (R=0.045)  charge=  1.0726  magn= -0.0000
     atom   3 (R=0.045)  charge=  1.1027  magn=  0.0000
     atom   4 (R=0.045)  charge=  1.0343  magn=  0.0000
     atom   5 (R=0.045)  charge=  1.0979  magn=  0.0000
     atom   6 (R=0.045)  charge=  1.0844  magn= -0.0000
     atom   7 (R=0.045)  charge=  1.0345  magn= -0.0000
     atom   8 (R=0.045)  charge=  1.0974  magn= -0.0000
     atom   9 (R=0.045)  charge=  1.0856  magn=  0.0000
     atom  10 (R=0.045)  charge=  1.0340  magn=  0.0000
     atom  11 (R=0.045)  charge=  1.0969  magn=  0.0000
     atom  12 (R=0.045)  charge=  1.0845  magn= -0.0000
     atom  13 (R=0.045)  charge=  1.0136  magn=  0.0000
     atom  14 (R=0.045)  charge=  1.0707  magn=  0.0000
     atom  15 (R=0.045)  charge=  1.0472  magn= -0.0000
     atom  16 (R=0.045)  charge=  1.0194  magn= -0.0000
     atom  17 (R=0.045)  charge=  1.0751  magn= -0.0000
     atom  18 (R=0.045)  charge=  1.0496  magn=  0.0000
     atom  19 (R=0.045)  charge=  1.0231  magn=  0.0000
     atom  20 (R=0.045)  charge=  1.0736  magn=  0.0000
     atom  21 (R=0.045)  charge=  1.0450  magn= -0.0000
     atom  22 (R=0.045)  charge=  1.0214  magn=  0.0000
     atom  23 (R=0.045)  charge=  1.0734  magn=  0.0000
     atom  24 (R=0.045)  charge=  1.0448  magn= -0.0000
     atom  25 (R=0.045)  charge=  1.0353  magn=  0.0000
     atom  26 (R=0.045)  charge=  1.0963  magn=  0.0000
     atom  27 (R=0.045)  charge=  1.0868  magn= -0.0000
     atom  28 (R=0.045)  charge=  1.0388  magn= -0.0000
     atom  29 (R=0.045)  charge=  1.0936  magn= -0.0000
     atom  30 (R=0.045)  charge=  1.0806  magn=  0.0000
     atom  31 (R=0.045)  charge=  1.0352  magn= -0.0000
     atom  32 (R=0.045)  charge=  1.0948  magn= -0.0000
     atom  33 (R=0.045)  charge=  1.0843  magn=  0.0000
     atom  34 (R=0.045)  charge=  1.0348  magn= -0.0000
     atom  35 (R=0.045)  charge=  1.0932  magn= -0.0000
     atom  36 (R=0.045)  charge=  1.0824  magn=  0.0000
     atom  37 (R=0.045)  charge=  1.0201  magn= -0.0000
     atom  38 (R=0.045)  charge=  1.0719  magn= -0.0000
     atom  39 (R=0.045)  charge=  1.0459  magn=  0.0000
     atom  40 (R=0.045)  charge=  1.0364  magn=  0.0000
     atom  41 (R=0.045)  charge=  1.0876  magn=  0.0000
     atom  42 (R=0.045)  charge=  1.0541  magn= -0.0000
     atom  43 (R=0.045)  charge=  1.0221  magn=  0.0000
     atom  44 (R=0.045)  charge=  1.0724  magn=  0.0000
     atom  45 (R=0.045)  charge=  1.0459  magn= -0.0000
     atom  46 (R=0.045)  charge=  1.0217  magn= -0.0000
     atom  47 (R=0.045)  charge=  1.0728  magn= -0.0000
     atom  48 (R=0.045)  charge=  1.0457  magn=  0.0000
     atom  49 (R=0.051)  charge=  3.5003  magn= -0.0000

     total cpu time spent up to now is       68.1 secs

     End of self-consistent calculation

 ------ SPIN UP ------------


          k = 0.0000 0.0000 0.0000 ( 26858 PWs)   bands (ev):

   -23.3983 -21.7922 -21.7759 -17.8996 -17.6717 -17.6214 -17.5927 -17.4803
   -17.4385 -16.9932 -16.9159 -16.9060 -16.8732 -16.7019 -16.2943 -16.2417
   -16.0822 -15.8378 -15.7772 -15.6408 -15.5257 -15.3707 -14.7865 -14.5252
   -14.4853 -14.3710 -14.3032 -14.1508 -13.8992 -13.4420 -12.7995 -12.7534
   -12.7358 -12.3976 -12.3169 -12.2592 -12.2024 -11.5396 -11.3465 -11.1842
   -11.1361 -10.8379 -10.4611 -10.0964  -9.9972  -9.9219  -9.7095  -9.6751
    -9.6496  -9.6387  -9.6299  -9.5148  -9.4505  -7.6033  -7.5377  -7.0088
    -6.9317  -6.8579  -6.7606  -6.7512  -6.6819  -6.4189  -6.3134  -6.3026
    -6.0897  -6.0327  -5.9971  -5.7165  -5.6839  -5.6730  -5.6035  -5.5588
    -5.5520  -5.4909  -5.4594  -5.2415  -5.1475  -5.1196  -4.9896  -4.7884
    -4.7774  -4.6159  -3.7407  -3.7024  -3.6280  -3.3817  -3.3328  -3.2776
    -3.1745  -3.0910  -3.0048  -2.9039  -2.8985  -2.8448  -2.4974  -2.4429
    -2.0614  -1.9767  -1.4995  -0.8510  -0.7498  -0.5243  -0.1376   0.0749
     0.2957   0.5334   0.6629   0.8463   0.8988   0.9180   1.0554   1.1192
     1.7007   2.0496   2.0656   2.3697   2.4589   2.4630   2.5309

 ------ SPIN DOWN ----------


          k = 0.0000 0.0000 0.0000 ( 26858 PWs)   bands (ev):

   -23.3983 -21.7922 -21.7759 -17.8995 -17.6717 -17.6213 -17.5928 -17.4803
   -17.4385 -16.9932 -16.9159 -16.9060 -16.8732 -16.7019 -16.2943 -16.2417
   -16.0822 -15.8378 -15.7772 -15.6408 -15.5257 -15.3707 -14.7865 -14.5252
   -14.4853 -14.3710 -14.3032 -14.1508 -13.8992 -13.4420 -12.7995 -12.7534
   -12.7358 -12.3976 -12.3169 -12.2592 -12.2024 -11.5396 -11.3465 -11.1842
   -11.1361 -10.8379 -10.4611 -10.0964  -9.9972  -9.9219  -9.7095  -9.6751
    -9.6496  -9.6387  -9.6299  -9.5148  -9.4505  -7.6034  -7.5377  -7.0088
    -6.9317  -6.8579  -6.7606  -6.7511  -6.6819  -6.4189  -6.3134  -6.3026
    -6.0897  -6.0327  -5.9971  -5.7165  -5.6839  -5.6730  -5.6035  -5.5588
    -5.5520  -5.4909  -5.4594  -5.2415  -5.1475  -5.1196  -4.9896  -4.7884
    -4.7774  -4.6159  -3.7407  -3.7024  -3.6280  -3.3817  -3.3328  -3.2776
    -3.1745  -3.0910  -3.0048  -2.9039  -2.8985  -2.8448  -2.4974  -2.4429
    -2.0615  -1.9767  -1.4994  -0.8509  -0.7499  -0.5243  -0.1376   0.0749
     0.2957   0.5334   0.6629   0.8463   0.8988   0.9180   1.0555   1.1192
     1.7007   2.0496   2.0656   2.3697   2.4589   2.4630   2.5309

     the spin up/dw Fermi energies are    -1.1056   -1.1056 ev

!    total energy              =    -922.83721618 Ry
     total all-electron energy =     -3804.360804 Ry
     estimated scf accuracy    <       0.00000026 Ry
     smearing contrib. (-TS)   =      -0.00000000 Ry
     internal energy E=F+TS    =    -922.83721618 Ry

     The total energy is F=E-TS. E is the sum of the following terms:
     one-electron contribution =   -1254.73215380 Ry
     hartree contribution      =     673.17859411 Ry
     xc contribution           =    -225.35612088 Ry
     ewald contribution        =     189.64937841 Ry
     one-center paw contrib.   =    -305.57691403 Ry

     total magnetization       =     0.00 Bohr mag/cell
     absolute magnetization    =     0.00 Bohr mag/cell

     convergence has been achieved in  12 iterations

     negative rho (up, down):  1.110E-06 1.110E-06

     Forces acting on atoms (cartesian axes, Ry/au):

     atom    1 type  1   force =    -0.24908086    0.23776246   -0.15752316
     atom    2 type  1   force =    -0.38845360    0.41192812   -0.23555568
     atom    3 type  1   force =     0.44407330   -0.45330954    0.33637194
     atom    4 type  1   force =    -0.01058804    0.01044517    0.01725210
     atom    5 type  1   force =     0.03981096   -0.03981304   -0.03926406
     atom    6 type  1   force =    -0.02509923    0.02497032    0.02800266
     atom    7 type  1   force =     0.02008471    0.00536426   -0.00791411
     atom    8 type  1   force =    -0.03995001   -0.03997096    0.03993028
     atom    9 type  1   force =     0.02903290    0.02836428   -0.02974462
     atom   10 type  1   force =    -0.00516792   -0.01995410   -0.00785614
     atom   11 type  1   force =     0.04150578    0.04117931    0.04152919
     atom   12 type  1   force =    -0.02740885   -0.02914185   -0.02860995
     atom   13 type  1   force =     0.00498098   -0.00336744   -0.07389131
     atom   14 type  1   force =    -0.12357690    0.12323603    0.12527397
     atom   15 type  1   force =     0.05709931   -0.05601411   -0.07061899
     atom   16 type  1   force =    -0.00619020    0.00909060   -0.01363693
     atom   17 type  1   force =     0.10247805   -0.10337823    0.10259902
     atom   18 type  1   force =    -0.04880875    0.04941289   -0.05013977
     atom   19 type  1   force =    -0.04441094   -0.00634467    0.00728848
     atom   20 type  1   force =     0.12468869    0.12266153   -0.12491800
     atom   21 type  1   force =    -0.06569690   -0.06185926    0.06019046
     atom   22 type  1   force =     0.00649247    0.04765673    0.00444765
     atom   23 type  1   force =    -0.12095526   -0.12331826   -0.12298568
     atom   24 type  1   force =     0.05994734    0.06479631    0.05733652
     atom   25 type  1   force =     0.01661638   -0.01617433    0.01796848
     atom   26 type  1   force =    -0.03211175    0.03201850   -0.03180497
     atom   27 type  1   force =     0.02200794   -0.02170417    0.02281680
     atom   28 type  1   force =    -0.00725470    0.00619938    0.04340923
     atom   29 type  1   force =     0.05818400   -0.05866788   -0.06201555
     atom   30 type  1   force =    -0.04107675    0.04155638    0.05497115
     atom   31 type  1   force =     0.01111616    0.01562391   -0.01016137
     atom   32 type  1   force =    -0.05395052   -0.05391505    0.05486527
     atom   33 type  1   force =     0.04237186    0.04141728   -0.04115732
     atom   34 type  1   force =    -0.01393495   -0.01465255   -0.00634632
     atom   35 type  1   force =     0.05366842    0.05467332    0.05512930
     atom   36 type  1   force =    -0.04393736   -0.04712589   -0.04409223
     atom   37 type  1   force =     0.00536555   -0.00624412   -0.01625360
     atom   38 type  1   force =    -0.11268312    0.11332890    0.11267883
     atom   39 type  1   force =     0.05498975   -0.05475758   -0.05582705
     atom   40 type  1   force =     0.03430083   -0.03259739    0.01189410
     atom   41 type  1   force =     0.37061690   -0.37964191    0.29637312
     atom   42 type  1   force =    -0.11875946    0.11729664   -0.16876607
     atom   43 type  1   force =    -0.01295342   -0.01023015    0.00949716
     atom   44 type  1   force =     0.11315292    0.11307130   -0.11191660
     atom   45 type  1   force =    -0.05680443   -0.05658708    0.05605950
     atom   46 type  1   force =     0.00959437    0.01381639    0.01058130
     atom   47 type  1   force =    -0.11154168   -0.11106345   -0.11117107
     atom   48 type  1   force =     0.05553798    0.05555267    0.05483415
     atom   49 type  2   force =    -0.01732195    0.01841034    0.00086985

     Total force =     1.380151     Total SCF correction =     0.000697
     Energy error            =      1.2E-01 Ry
     Gradient error          =      4.5E-01 Ry/Bohr

     number of scf cycles    =   2
     number of bfgs steps    =   1

     energy             old  =    -922.9543677371 Ry
     energy             new  =    -922.8372161844 Ry

     CASE: energy            _new > energy            _old

     new trust radius        =       0.1091456491 bohr
     new conv_thr            =       0.0000010000 Ry


ATOMIC_POSITIONS (angstrom)
C             6.1777601787        4.5951118019        6.1933933513
C             7.7164491840        3.0539123471        7.7194026709
C             6.9461668677        3.8249490378        6.9309651569
C             4.6046965657        6.1715462833        6.1733918837
C             3.0757072950        7.6942482154        7.6942249807
C             3.7912690752        6.9817838018        6.9821410346
C             6.1726664214        6.1729417953        4.6038897046
C             7.6941841785        7.6942249109        3.0757462677
C             6.9818938897        6.9816828188        3.7909575719
C             4.5994234567        4.5992183723        4.5999494344
C             3.0748032820        3.0747642882        3.0748355708
C             3.7885847727        3.7882018745        3.7881741374
C             6.2161161260        4.5554756918        4.5467545319
C             7.7766234847        3.0003400468        3.0004277159
C             7.0490740883        3.7250050192        3.7245272426
C             4.5578014399        6.2140486947        4.5555811286
C             3.0027751715        7.7751226548        3.0028142747
C             3.7218211168        7.0522199646        3.7227208971
C             4.5546045925        4.5551178020        6.2155445664
C             3.0010735218        3.0009447912        7.7757978070
C             3.7233358959        3.7233381799        7.0504686288
C             6.2194006753        6.2220148351        6.2182384175
C             7.7758699990        7.7766893933        7.7766142321
C             7.0524308937        7.0536264497        7.0521646604
C             0.6710693545       10.1001348233        0.6725920315
C             2.1976601937        8.5793460809        2.1976658001
C             1.4840904519        9.2899731438        1.4841019312
C            10.0989466435        0.6702760036        0.6796441406
C             8.5769225905        2.1990490704        2.1994663644
C             9.2927961822        1.4802710816        1.4828092764
C             0.6730298229        0.6724757888       10.0991413544
C             2.1980210195        2.1981137184        8.5780303157
C             1.4831423857        1.4817397705        9.2910858914
C            10.1021364423       10.1011134261       10.1028363971
C             8.5786685696        8.5789233809        8.5788966620
C             9.2946378551        9.2939102847        9.2933732056
C             0.7175036648       10.0574651541       10.0555778328
C             2.2700444245        8.4980490007        8.4970094484
C             1.5504881539        9.2205406467        9.2205071502
C            10.0493307756        0.7248631567       10.0468407487
C             8.5028384137        2.2615920311        8.4836412572
C             9.2380039163        1.5308876371        9.2311323274
C            10.0566436044       10.0576867956        0.7181493607
C             8.4971500568        8.4981464329        2.2700114100
C             9.2205463752        9.2203972697        1.5505691110
C             0.7150041560        0.7144290017        0.7142288525
C             2.2708816959        2.2700010950        2.2709376694
C             1.5498688911        1.5486631930        1.5487807188
O             7.4840421881        3.5024229424        8.9872448747



     Writing config-only to output data dir ./pwscf.save/
     NEW-OLD atomic charge density approx. for the potential

     Check: negative core charge=   -0.000004

     negative rho (up, down):  1.015E-06 1.015E-06
     Generating pointlists ...

     total cpu time spent up to now is       72.5 secs

     Self-consistent Calculation

     iteration #  1     ecut=    50.00 Ry     beta= 0.30
     Davidson diagonalization with overlap
     ethr =  1.00E-06,  avg # of iterations = 14.0

     negative rho (up, down):  1.047E-06 1.047E-06

     total cpu time spent up to now is       78.0 secs

     total energy              =    -923.00485709 Ry
     estimated scf accuracy    <       0.19956360 Ry

     total magnetization       =     0.00 Bohr mag/cell
     absolute magnetization    =     0.00 Bohr mag/cell

     iteration #  2     ecut=    50.00 Ry     beta= 0.30
     Davidson diagonalization with overlap
     ethr =  1.01E-04,  avg # of iterations =  2.0

     negative rho (up, down):  1.122E-06 1.122E-06

     total cpu time spent up to now is       80.1 secs

     total energy              =    -923.00890188 Ry
     estimated scf accuracy    <       0.19464704 Ry

     total magnetization       =    -0.00 Bohr mag/cell
     absolute magnetization    =     0.00 Bohr mag/cell

     iteration #  3     ecut=    50.00 Ry     beta= 0.30
     Davidson diagonalization with overlap
     ethr =  9.83E-05,  avg # of iterations =  2.0

     negative rho (up, down):  1.144E-06 1.144E-06

     total cpu time spent up to now is       82.2 secs

     total energy              =    -923.02935207 Ry
     estimated scf accuracy    <       0.08994278 Ry

     total magnetization       =     0.00 Bohr mag/cell
     absolute magnetization    =     0.00 Bohr mag/cell

     iteration #  4     ecut=    50.00 Ry     beta= 0.30
     Davidson diagonalization with overlap
     ethr =  4.54E-05,  avg # of iterations =  1.0

     negative rho (up, down):  1.079E-06 1.079E-06

     total cpu time spent up to now is       84.1 secs

     total energy              =    -923.03433368 Ry
     estimated scf accuracy    <       0.00771059 Ry

     total magnetization       =    -0.00 Bohr mag/cell
     absolute magnetization    =     0.00 Bohr mag/cell

     iteration #  5     ecut=    50.00 Ry     beta= 0.30
     Davidson diagonalization with overlap
     ethr =  3.89E-06,  avg # of iterations =  2.0

     negative rho (up, down):  1.081E-06 1.081E-06

     total cpu time spent up to now is       86.2 secs

     total energy              =    -923.03475575 Ry
     estimated scf accuracy    <       0.00273631 Ry

     total magnetization       =    -0.00 Bohr mag/cell
     absolute magnetization    =     0.00 Bohr mag/cell

     iteration #  6     ecut=    50.00 Ry     beta= 0.30
     Davidson diagonalization with overlap
     ethr =  1.38E-06,  avg # of iterations =  2.0

     negative rho (up, down):  1.092E-06 1.092E-06

     total cpu time spent up to now is       88.3 secs

     total energy              =    -923.03505260 Ry
     estimated scf accuracy    <       0.00049740 Ry

     total magnetization       =    -0.00 Bohr mag/cell
     absolute magnetization    =     0.00 Bohr mag/cell

     iteration #  7     ecut=    50.00 Ry     beta= 0.30
     Davidson diagonalization with overlap
     ethr =  2.51E-07,  avg # of iterations =  3.0

     negative rho (up, down):  1.084E-06 1.084E-06

     total cpu time spent up to now is       90.5 secs

     total energy              =    -923.03511324 Ry
     estimated scf accuracy    <       0.00011957 Ry

     total magnetization       =    -0.00 Bohr mag/cell
     absolute magnetization    =     0.00 Bohr mag/cell

     iteration #  8     ecut=    50.00 Ry     beta= 0.30
     Davidson diagonalization with overlap
     ethr =  6.04E-08,  avg # of iterations =  2.0

     negative rho (up, down):  1.086E-06 1.086E-06

     total cpu time spent up to now is       92.6 secs

     total energy              =    -923.03512687 Ry
     estimated scf accuracy    <       0.00003410 Ry

     total magnetization       =    -0.00 Bohr mag/cell
     absolute magnetization    =     0.00 Bohr mag/cell

     iteration #  9     ecut=    50.00 Ry     beta= 0.30
     Davidson diagonalization with overlap
     ethr =  1.72E-08,  avg # of iterations =  2.0

     negative rho (up, down):  1.084E-06 1.084E-06

     total cpu time spent up to now is       94.8 secs

     total energy              =    -923.03513101 Ry
     estimated scf accuracy    <       0.00000575 Ry

     total magnetization       =     0.00 Bohr mag/cell
     absolute magnetization    =     0.00 Bohr mag/cell

     iteration # 10     ecut=    50.00 Ry     beta= 0.30
     Davidson diagonalization with overlap
     ethr =  2.91E-09,  avg # of iterations =  4.0

     negative rho (up, down):  1.080E-06 1.080E-06

     total cpu time spent up to now is       97.1 secs

     total energy              =    -923.03513186 Ry
     estimated scf accuracy    <       0.00000102 Ry

     total magnetization       =    -0.00 Bohr mag/cell
     absolute magnetization    =     0.00 Bohr mag/cell

     iteration # 11     ecut=    50.00 Ry     beta= 0.30
     Davidson diagonalization with overlap
     ethr =  5.13E-10,  avg # of iterations =  4.0

     negative rho (up, down):  1.068E-06 1.068E-06

     Magnetic moment per site  (integrated on atomic sphere of radius R)
     atom   1 (R=0.045)  charge=  1.0556  magn= -0.0000
     atom   2 (R=0.045)  charge=  1.0751  magn= -0.0000
     atom   3 (R=0.045)  charge=  1.0817  magn=  0.0000
     atom   4 (R=0.045)  charge=  1.0340  magn= -0.0000
     atom   5 (R=0.045)  charge=  1.0822  magn=  0.0000
     atom   6 (R=0.045)  charge=  1.0919  magn= -0.0000
     atom   7 (R=0.045)  charge=  1.0340  magn= -0.0000
     atom   8 (R=0.045)  charge=  1.0820  magn= -0.0000
     atom   9 (R=0.045)  charge=  1.0926  magn=  0.0000
     atom  10 (R=0.045)  charge=  1.0333  magn= -0.0000
     atom  11 (R=0.045)  charge=  1.0818  magn=  0.0000
     atom  12 (R=0.045)  charge=  1.0916  magn= -0.0000
     atom  13 (R=0.045)  charge=  1.0188  magn=  0.0000
     atom  14 (R=0.045)  charge=  1.0688  magn=  0.0000
     atom  15 (R=0.045)  charge=  1.0707  magn= -0.0000
     atom  16 (R=0.045)  charge=  1.0222  magn= -0.0000
     atom  17 (R=0.045)  charge=  1.0724  magn= -0.0000
     atom  18 (R=0.045)  charge=  1.0709  magn=  0.0000
     atom  19 (R=0.045)  charge=  1.0244  magn=  0.0000
     atom  20 (R=0.045)  charge=  1.0711  magn=  0.0000
     atom  21 (R=0.045)  charge=  1.0694  magn= -0.0000
     atom  22 (R=0.045)  charge=  1.0243  magn=  0.0000
     atom  23 (R=0.045)  charge=  1.0707  magn=  0.0000
     atom  24 (R=0.045)  charge=  1.0688  magn= -0.0000
     atom  25 (R=0.045)  charge=  1.0333  magn=  0.0000
     atom  26 (R=0.045)  charge=  1.0815  magn=  0.0000
     atom  27 (R=0.045)  charge=  1.0916  magn= -0.0000
     atom  28 (R=0.045)  charge=  1.0367  magn= -0.0000
     atom  29 (R=0.045)  charge=  1.0792  magn= -0.0000
     atom  30 (R=0.045)  charge=  1.0881  magn=  0.0000
     atom  31 (R=0.045)  charge=  1.0338  magn= -0.0000
     atom  32 (R=0.045)  charge=  1.0804  magn= -0.0000
     atom  33 (R=0.045)  charge=  1.0902  magn=  0.0000
     atom  34 (R=0.045)  charge=  1.0332  magn= -0.0000
     atom  35 (R=0.045)  charge=  1.0818  magn= -0.0000
     atom  36 (R=0.045)  charge=  1.0893  magn=  0.0000
     atom  37 (R=0.045)  charge=  1.0235  magn= -0.0000
     atom  38 (R=0.045)  charge=  1.0722  magn= -0.0000
     atom  39 (R=0.045)  charge=  1.0682  magn=  0.0000
     atom  40 (R=0.045)  charge=  1.0257  magn=  0.0000
     atom  41 (R=0.045)  charge=  1.0683  magn=  0.0000
     atom  42 (R=0.045)  charge=  1.0750  magn= -0.0000
     atom  43 (R=0.045)  charge=  1.0244  magn=  0.0000
     atom  44 (R=0.045)  charge=  1.0726  magn=  0.0000
     atom  45 (R=0.045)  charge=  1.0680  magn= -0.0000
     atom  46 (R=0.045)  charge=  1.0237  magn= -0.0000
     atom  47 (R=0.045)  charge=  1.0711  magn= -0.0000
     atom  48 (R=0.045)  charge=  1.0681  magn=  0.0000
     atom  49 (R=0.051)  charge=  3.5140  magn= -0.0000

     total cpu time spent up to now is       99.4 secs

     End of self-consistent calculation

 ------ SPIN UP ------------


          k = 0.0000 0.0000 0.0000 ( 26858 PWs)   bands (ev):

   -23.6460 -21.7142 -21.6385 -17.6870 -17.6573 -17.6198 -17.5066 -17.4781
   -17.4437 -16.9153 -16.8526 -16.8311 -16.7695 -16.5073 -16.1220 -16.1139
   -16.0717 -15.9789 -15.9271 -15.7387 -15.5922 -15.3448 -14.7300 -14.6458
   -14.6076 -14.2572 -14.2041 -14.0718 -13.6961 -13.2682 -13.0721 -12.9139
   -12.8743 -12.4113 -12.2854 -12.0905 -12.0430 -11.6483 -11.3494 -11.0514
   -11.0045 -10.7748 -10.4387 -10.0882 -10.0295  -9.9752  -9.6496  -9.6369
    -9.6231  -9.5613  -9.5469  -9.5239  -9.4858  -7.5882  -7.4328  -7.0007
    -6.8958  -6.8189  -6.7232  -6.6871  -6.6741  -6.3917  -6.2583  -6.2526
    -6.1077  -5.9811  -5.9763  -5.6473  -5.6143  -5.6078  -5.5977  -5.5217
    -5.4805  -5.4749  -5.3688  -5.3459  -4.9917  -4.9713  -4.8651  -4.6149
    -4.5955  -4.4448  -3.8863  -3.8534  -3.7679  -3.5541  -3.5086  -3.4281
    -3.3459  -3.2287  -3.1155  -3.0066  -2.9998  -2.9535  -2.5488  -2.4622
    -2.0643  -1.9161  -1.8907  -0.9898  -0.3860  -0.3640  -0.0628   0.4067
     0.4445   0.6708   0.9586   1.0356   1.0760   1.0844   1.3128   1.3855
     2.0159   2.2421   2.2726   2.3292   2.3449   2.4386   2.4639

 ------ SPIN DOWN ----------


          k = 0.0000 0.0000 0.0000 ( 26858 PWs)   bands (ev):

   -23.6460 -21.7142 -21.6385 -17.6869 -17.6573 -17.6198 -17.5066 -17.4781
   -17.4437 -16.9153 -16.8526 -16.8311 -16.7695 -16.5073 -16.1220 -16.1139
   -16.0717 -15.9789 -15.9271 -15.7387 -15.5922 -15.3448 -14.7300 -14.6458
   -14.6076 -14.2572 -14.2041 -14.0718 -13.6961 -13.2682 -13.0721 -12.9139
   -12.8743 -12.4114 -12.2854 -12.0905 -12.0430 -11.6483 -11.3494 -11.0514
   -11.0045 -10.7748 -10.4387 -10.0882 -10.0295  -9.9752  -9.6496  -9.6369
    -9.6231  -9.5613  -9.5469  -9.5239  -9.4858  -7.5882  -7.4328  -7.0007
    -6.8958  -6.8189  -6.7232  -6.6871  -6.6741  -6.3917  -6.2583  -6.2526
    -6.1078  -5.9811  -5.9763  -5.6473  -5.6143  -5.6078  -5.5977  -5.5217
    -5.4805  -5.4749  -5.3688  -5.3459  -4.9917  -4.9713  -4.8651  -4.6149
    -4.5955  -4.4448  -3.8863  -3.8534  -3.7679  -3.5541  -3.5086  -3.4281
    -3.3459  -3.2287  -3.1155  -3.0066  -2.9998  -2.9535  -2.5488  -2.4622
    -2.0643  -1.9162  -1.8907  -0.9898  -0.3860  -0.3640  -0.0628   0.4067
     0.4445   0.6708   0.9586   1.0356   1.0760   1.0844   1.3128   1.3855
     2.0159   2.2421   2.2726   2.3292   2.3449   2.4386   2.4639

     the spin up/dw Fermi energies are    -1.6064   -1.6064 ev

!    total energy              =    -923.03513203 Ry
     total all-electron energy =     -3804.558720 Ry
     estimated scf accuracy    <       0.00000018 Ry
     smearing contrib. (-TS)   =      -0.00000000 Ry
     internal energy E=F+TS    =    -923.03513203 Ry

     The total energy is F=E-TS. E is the sum of the following terms:
     one-electron contribution =   -1258.39782297 Ry
     hartree contribution      =     675.14447149 Ry
     xc contribution           =    -225.44979453 Ry
     ewald contribution        =     191.23686509 Ry
     one-center paw contrib.   =    -305.56885111 Ry

     total magnetization       =     0.00 Bohr mag/cell
     absolute magnetization    =     0.00 Bohr mag/cell

     convergence has been achieved in  11 iterations

     negative rho (up, down):  1.068E-06 1.068E-06

     Forces acting on atoms (cartesian axes, Ry/au):

     atom    1 type  1   force =    -0.03031655    0.01741460    0.03773374
     atom    2 type  1   force =    -0.09520977    0.10664307   -0.01997090
     atom    3 type  1   force =     0.11461272   -0.12509055    0.03299470
     atom    4 type  1   force =    -0.01366051    0.01119698    0.01953422
     atom    5 type  1   force =    -0.01848728    0.01832739    0.01840990
     atom    6 type  1   force =    -0.03310769    0.03316447    0.03540148
     atom    7 type  1   force =     0.01830207    0.01369960   -0.01531332
     atom    8 type  1   force =     0.01812970    0.01825994   -0.01840392
     atom    9 type  1   force =     0.03497176    0.03416459   -0.03570639
     atom   10 type  1   force =    -0.01258765   -0.01859978   -0.01203144
     atom   11 type  1   force =    -0.01755595   -0.01777555   -0.01746740
     atom   12 type  1   force =    -0.03307618   -0.03480902   -0.03464918
     atom   13 type  1   force =    -0.02425867    0.02682337   -0.02235869
     atom   14 type  1   force =    -0.01275907    0.01240808    0.01337356
     atom   15 type  1   force =     0.01866789   -0.01801375   -0.02814990
     atom   16 type  1   force =     0.03125407   -0.02754296    0.02185667
     atom   17 type  1   force =     0.00962042   -0.01033439    0.00980430
     atom   18 type  1   force =    -0.01918511    0.01956140   -0.02004083
     atom   19 type  1   force =     0.00967814    0.02596731   -0.02682179
     atom   20 type  1   force =     0.01385342    0.01272015   -0.01439915
     atom   21 type  1   force =    -0.02399574   -0.02242437    0.02130162
     atom   22 type  1   force =    -0.02453719   -0.00410998   -0.02916413
     atom   23 type  1   force =    -0.01276672   -0.01413612   -0.01425677
     atom   24 type  1   force =     0.02122149    0.02374268    0.01952207
     atom   25 type  1   force =     0.01523983   -0.01443023    0.02027663
     atom   26 type  1   force =     0.01914621   -0.01911344    0.01925385
     atom   27 type  1   force =     0.03282878   -0.03249317    0.03316029
     atom   28 type  1   force =    -0.01114879    0.01147852    0.04883821
     atom   29 type  1   force =    -0.01629672    0.01611177    0.01319304
     atom   30 type  1   force =    -0.03388380    0.03425630    0.04409937
     atom   31 type  1   force =     0.01905878    0.02194170   -0.01521544
     atom   32 type  1   force =     0.01554682    0.01594195   -0.01516994
     atom   33 type  1   force =     0.03858496    0.03683489   -0.03709603
     atom   34 type  1   force =    -0.02231774   -0.02574036   -0.01458913
     atom   35 type  1   force =    -0.01639694   -0.01516972   -0.01525693
     atom   36 type  1   force =    -0.03689249   -0.04048372   -0.03758182
     atom   37 type  1   force =    -0.03091735    0.03040900    0.02126872
     atom   38 type  1   force =    -0.01149732    0.01208344    0.01176805
     atom   39 type  1   force =     0.02058959   -0.02043796   -0.02100958
     atom   40 type  1   force =     0.02491768   -0.02069516    0.00661006
     atom   41 type  1   force =     0.12284769   -0.13295142    0.04448682
     atom   42 type  1   force =    -0.00675771    0.00577645   -0.04576138
     atom   43 type  1   force =     0.02541969    0.02669780   -0.02745246
     atom   44 type  1   force =     0.01218791    0.01213871   -0.01121017
     atom   45 type  1   force =    -0.02099048   -0.02140066    0.02117145
     atom   46 type  1   force =    -0.02782473   -0.02490182   -0.02667542
     atom   47 type  1   force =    -0.01134073   -0.01081636   -0.01108705
     atom   48 type  1   force =     0.02162981    0.02098919    0.02120512
     atom   49 type  2   force =    -0.04054057    0.05271714    0.05157528

     Total force =     0.406990     Total SCF correction =     0.000360
     Energy error            =      8.1E-02 Ry
     Gradient error          =      1.3E-01 Ry/Bohr

     number of scf cycles    =   3
     number of bfgs steps    =   1

     energy             old  =    -922.9543677371 Ry
     energy             new  =    -923.0351320307 Ry

     CASE: energy            _new < energy            _old

     new trust radius        =       0.1665350028 bohr
     new conv_thr            =       0.0000010000 Ry


ATOMIC_POSITIONS (angstrom)
C             6.1714811912        4.5917479034        6.2361893213
C             7.6984502775        3.0781489954        7.7430021892
C             6.9785831413        3.7853298410        6.9067706817
C             4.5944948673        6.1797536917        6.1876623033
C             3.0563275700        7.7135029588        7.7135000005
C             3.7668077236        7.0063250321        7.0081769838
C             6.1856074292        6.1837747305        4.5920639035
C             7.7132757515        7.7134225914        3.0564468027
C             7.0074718118        7.0066427454        3.7648588958
C             4.5895131688        4.5860136694        4.5908292786
C             3.0559953649        3.0558058792        3.0561041935
C             3.7644418727        3.7627994864        3.7628275646
C             6.1951110265        4.5783689380        4.5359552590
C             7.7821330005        2.9946147518        2.9952838662
C             7.0549355330        3.7195563860        3.7124407248
C             4.5852042754        6.1893720466        4.5760159407
C             2.9979445038        7.7794876023        2.9981157929
C             3.7127209532        7.0615533612        3.7130838355
C             4.5678288974        4.5781846029        6.1917142349
C             2.9967951686        2.9959592275        7.7796717642
C             3.7132068683        3.7140210760        7.0590222341
C             6.1975671548        6.2132101007        6.1929079868
C             7.7806542684        7.7805951069        7.7803858247
C             7.0609070832        7.0635890291        7.0595102634
C             0.6818608039       10.0899560267        0.6874366220
C             2.2167739743        8.5602551930        2.2168404170
C             1.5087522517        9.2655451656        1.5089455456
C            10.0902786512        0.6793270475        0.7159576142
C             8.5569631944        2.2188860333        2.2172414669
C             9.2703540760        1.5029695334        1.5120524262
C             0.6876659370        0.6890244107       10.0876068942
C             2.2165827180        2.2169677709        8.5597119680
C             1.5098628046        1.5071729503        9.2653512546
C            10.0850228370       10.0812568005       10.0913327450
C             8.5593716446        8.5605027796        8.5604055425
C             9.2695364931        9.2662618412        9.2676632786
C             0.6905664206       10.0841105945       10.0757065117
C             2.2746925061        8.4937923862        8.4925524481
C             1.5596508285        9.2114836815        9.2111235610
C            10.0663168283        0.7111959373       10.0510517988
C             8.5612014845        2.1955626310        8.4832472016
C             9.2536711907        1.5146108978        9.2201226480
C            10.0799315589       10.0816747169        0.6936157156
C             8.4930440158        8.4940115693        2.2747758567
C             9.2112101757        9.2107069622        1.5601091191
C             0.6901396699        0.6914774147        0.6901717143
C             2.2754546939        2.2749585996        2.2756949695
C             1.5599320710        1.5581993466        1.5585406497
O             7.4517042675        3.5453099558        9.0332021851



     Writing config-only to output data dir ./pwscf.save/
     NEW-OLD atomic charge density approx. for the potential

     Check: negative core charge=   -0.000004

     negative rho (up, down):  1.191E-06 1.191E-06
     Generating pointlists ...

     total cpu time spent up to now is      104.0 secs

     Self-consistent Calculation

     iteration #  1     ecut=    50.00 Ry     beta= 0.30
     Davidson diagonalization with overlap
     ethr =  1.00E-06,  avg # of iterations = 11.0

     negative rho (up, down):  1.351E-06 1.351E-06

     total cpu time spent up to now is      109.3 secs

     total energy              =    -923.06012355 Ry
     estimated scf accuracy    <       0.16316682 Ry

     total magnetization       =     0.00 Bohr mag/cell
     absolute magnetization    =     0.00 Bohr mag/cell

     iteration #  2     ecut=    50.00 Ry     beta= 0.30
     Davidson diagonalization with overlap
     ethr =  8.24E-05,  avg # of iterations =  3.0

     negative rho (up, down):  1.578E-06 1.578E-06

     total cpu time spent up to now is      111.4 secs

     total energy              =    -923.07720561 Ry
     estimated scf accuracy    <       0.16252919 Ry

     total magnetization       =     0.00 Bohr mag/cell
     absolute magnetization    =     0.00 Bohr mag/cell

     iteration #  3     ecut=    50.00 Ry     beta= 0.30
     Davidson diagonalization with overlap
     ethr =  8.21E-05,  avg # of iterations =  2.0

     negative rho (up, down):  1.777E-06 1.777E-06

     total cpu time spent up to now is      113.5 secs

     total energy              =    -923.09614778 Ry
     estimated scf accuracy    <       0.04084945 Ry

     total magnetization       =     0.00 Bohr mag/cell
     absolute magnetization    =     0.00 Bohr mag/cell

     iteration #  4     ecut=    50.00 Ry     beta= 0.30
     Davidson diagonalization with overlap
     ethr =  2.06E-05,  avg # of iterations =  1.0

     negative rho (up, down):  1.666E-06 1.666E-06

     total cpu time spent up to now is      115.3 secs

     total energy              =    -923.09873458 Ry
     estimated scf accuracy    <       0.00494678 Ry

     total magnetization       =    -0.00 Bohr mag/cell
     absolute magnetization    =     0.00 Bohr mag/cell

     iteration #  5     ecut=    50.00 Ry     beta= 0.30
     Davidson diagonalization with overlap
     ethr =  2.50E-06,  avg # of iterations =  2.0

     negative rho (up, down):  1.536E-06 1.536E-06

     total cpu time spent up to now is      117.3 secs

     total energy              =    -923.09883990 Ry
     estimated scf accuracy    <       0.00361777 Ry

     total magnetization       =     0.00 Bohr mag/cell
     absolute magnetization    =     0.00 Bohr mag/cell

     iteration #  6     ecut=    50.00 Ry     beta= 0.30
     Davidson diagonalization with overlap
     ethr =  1.83E-06,  avg # of iterations =  1.0

     negative rho (up, down):  1.575E-06 1.575E-06

     total cpu time spent up to now is      119.2 secs

     total energy              =    -923.09897617 Ry
     estimated scf accuracy    <       0.00056011 Ry

     total magnetization       =    -0.00 Bohr mag/cell
     absolute magnetization    =     0.00 Bohr mag/cell

     iteration #  7     ecut=    50.00 Ry     beta= 0.30
     Davidson diagonalization with overlap
     ethr =  2.83E-07,  avg # of iterations =  2.0

     negative rho (up, down):  1.559E-06 1.559E-06

     total cpu time spent up to now is      121.3 secs

     total energy              =    -923.09904804 Ry
     estimated scf accuracy    <       0.00004966 Ry

     total magnetization       =    -0.00 Bohr mag/cell
     absolute magnetization    =     0.00 Bohr mag/cell

     iteration #  8     ecut=    50.00 Ry     beta= 0.30
     Davidson diagonalization with overlap
     ethr =  2.51E-08,  avg # of iterations =  2.0

     negative rho (up, down):  1.544E-06 1.544E-06

     total cpu time spent up to now is      123.5 secs

     total energy              =    -923.09905436 Ry
     estimated scf accuracy    <       0.00000948 Ry

     total magnetization       =    -0.00 Bohr mag/cell
     absolute magnetization    =     0.00 Bohr mag/cell

     iteration #  9     ecut=    50.00 Ry     beta= 0.30
     Davidson diagonalization with overlap
     ethr =  4.79E-09,  avg # of iterations =  4.0

     negative rho (up, down):  1.533E-06 1.533E-06

     total cpu time spent up to now is      125.8 secs

     total energy              =    -923.09905576 Ry
     estimated scf accuracy    <       0.00000335 Ry

     total magnetization       =     0.00 Bohr mag/cell
     absolute magnetization    =     0.00 Bohr mag/cell

     iteration # 10     ecut=    50.00 Ry     beta= 0.30
     Davidson diagonalization with overlap
     ethr =  1.69E-09,  avg # of iterations =  2.0

     negative rho (up, down):  1.524E-06 1.524E-06

     Magnetic moment per site  (integrated on atomic sphere of radius R)
     atom   1 (R=0.045)  charge=  1.0515  magn= -0.0000
     atom   2 (R=0.045)  charge=  1.0533  magn= -0.0000
     atom   3 (R=0.045)  charge=  1.0911  magn=  0.0000
     atom   4 (R=0.045)  charge=  1.0318  magn= -0.0000
     atom   5 (R=0.045)  charge=  1.1018  magn=  0.0000
     atom   6 (R=0.045)  charge=  1.0894  magn= -0.0000
     atom   7 (R=0.045)  charge=  1.0321  magn= -0.0000
     atom   8 (R=0.045)  charge=  1.1022  magn=  0.0000
     atom   9 (R=0.045)  charge=  1.0909  magn=  0.0000
     atom  10 (R=0.045)  charge=  1.0315  magn= -0.0000
     atom  11 (R=0.045)  charge=  1.1015  magn=  0.0000
     atom  12 (R=0.045)  charge=  1.0905  magn= -0.0000
     atom  13 (R=0.045)  charge=  1.0080  magn=  0.0000
     atom  14 (R=0.045)  charge=  1.0865  magn=  0.0000
     atom  15 (R=0.045)  charge=  1.0649  magn= -0.0000
     atom  16 (R=0.045)  charge=  1.0142  magn= -0.0000
     atom  17 (R=0.045)  charge=  1.0918  magn= -0.0000
     atom  18 (R=0.045)  charge=  1.0629  magn=  0.0000
     atom  19 (R=0.045)  charge=  1.0176  magn=  0.0000
     atom  20 (R=0.045)  charge=  1.0902  magn=  0.0000
     atom  21 (R=0.045)  charge=  1.0629  magn= -0.0000
     atom  22 (R=0.045)  charge=  1.0150  magn=  0.0000
     atom  23 (R=0.045)  charge=  1.0891  magn=  0.0000
     atom  24 (R=0.045)  charge=  1.0628  magn= -0.0000
     atom  25 (R=0.045)  charge=  1.0330  magn=  0.0000
     atom  26 (R=0.045)  charge=  1.1014  magn=  0.0000
     atom  27 (R=0.045)  charge=  1.0917  magn= -0.0000
     atom  28 (R=0.045)  charge=  1.0338  magn= -0.0000
     atom  29 (R=0.045)  charge=  1.1005  magn= -0.0000
     atom  30 (R=0.045)  charge=  1.0912  magn=  0.0000
     atom  31 (R=0.045)  charge=  1.0326  magn= -0.0000
     atom  32 (R=0.045)  charge=  1.1018  magn= -0.0000
     atom  33 (R=0.045)  charge=  1.0931  magn=  0.0000
     atom  34 (R=0.045)  charge=  1.0325  magn= -0.0000
     atom  35 (R=0.045)  charge=  1.1003  magn= -0.0000
     atom  36 (R=0.045)  charge=  1.0941  magn=  0.0000
     atom  37 (R=0.045)  charge=  1.0131  magn= -0.0000
     atom  38 (R=0.045)  charge=  1.0909  magn= -0.0000
     atom  39 (R=0.045)  charge=  1.0598  magn=  0.0000
     atom  40 (R=0.045)  charge=  1.0212  magn=  0.0000
     atom  41 (R=0.045)  charge=  1.0738  magn=  0.0000
     atom  42 (R=0.045)  charge=  1.1046  magn= -0.0000
     atom  43 (R=0.045)  charge=  1.0156  magn=  0.0000
     atom  44 (R=0.045)  charge=  1.0916  magn=  0.0000
     atom  45 (R=0.045)  charge=  1.0605  magn= -0.0000
     atom  46 (R=0.045)  charge=  1.0155  magn=  0.0000
     atom  47 (R=0.045)  charge=  1.0902  magn= -0.0000
     atom  48 (R=0.045)  charge=  1.0612  magn=  0.0000
     atom  49 (R=0.051)  charge=  3.4933  magn= -0.0000

     total cpu time spent up to now is      127.9 secs

     End of self-consistent calculation

 ------ SPIN UP ------------


          k = 0.0000 0.0000 0.0000 ( 26858 PWs)   bands (ev):

   -22.3094 -21.8432 -21.7279 -17.6571 -17.6073 -17.5913 -17.4720 -17.4125
   -17.3797 -17.0248 -16.9509 -16.9422 -16.9125 -16.6408 -16.2863 -16.2388
   -16.1004 -15.8926 -15.8324 -15.7020 -15.5600 -15.4353 -14.7741 -14.7333
   -14.7037 -14.1787 -14.1071 -13.9607 -13.6317 -13.1568 -13.0028 -12.8079
   -12.7820 -12.2792 -12.2239 -12.2149 -12.1828 -11.4499 -11.2821 -11.2044
   -11.1675 -10.8349 -10.4144  -9.9884  -9.9455  -9.8677  -9.6929  -9.6464
    -9.5937  -9.5535  -9.5295  -9.4503  -9.4001  -7.2217  -7.2073  -7.0204
    -6.8105  -6.6962  -6.6640  -6.5874  -6.5323  -6.3712  -6.2428  -6.2250
    -6.0415  -6.0123  -5.8791  -5.7630  -5.7302  -5.7253  -5.6628  -5.6184
    -5.6143  -5.5398  -5.5183  -5.2286  -5.1576  -5.0615  -4.9711  -4.7561
    -4.7241  -4.6535  -3.8953  -3.7987  -3.7019  -3.5555  -3.4515  -3.3710
    -3.3216  -3.2153  -3.1555  -3.0780  -3.0718  -3.0079  -2.5331  -2.5134
    -2.2032  -2.0587  -1.9797  -1.0565  -0.3394  -0.2316  -0.0016   0.5508
     0.6026   0.7098   1.0462   1.0779   1.1198   1.1344   1.2429   1.3725
     1.8833   2.1779   2.2442   2.2659   2.3986   2.4258   2.4507

 ------ SPIN DOWN ----------


          k = 0.0000 0.0000 0.0000 ( 26858 PWs)   bands (ev):

   -22.3094 -21.8432 -21.7279 -17.6571 -17.6073 -17.5913 -17.4720 -17.4125
   -17.3797 -17.0248 -16.9509 -16.9422 -16.9125 -16.6408 -16.2863 -16.2388
   -16.1004 -15.8926 -15.8324 -15.7020 -15.5600 -15.4353 -14.7741 -14.7333
   -14.7037 -14.1787 -14.1071 -13.9607 -13.6317 -13.1568 -13.0028 -12.8079
   -12.7820 -12.2792 -12.2239 -12.2149 -12.1828 -11.4499 -11.2821 -11.2044
   -11.1675 -10.8349 -10.4144  -9.9884  -9.9455  -9.8677  -9.6929  -9.6464
    -9.5937  -9.5535  -9.5295  -9.4503  -9.4001  -7.2216  -7.2073  -7.0204
    -6.8105  -6.6962  -6.6640  -6.5874  -6.5323  -6.3712  -6.2428  -6.2250
    -6.0415  -6.0123  -5.8791  -5.7630  -5.7302  -5.7253  -5.6628  -5.6184
    -5.6143  -5.5398  -5.5183  -5.2286  -5.1576  -5.0615  -4.9711  -4.7561
    -4.7241  -4.6535  -3.8953  -3.7987  -3.7019  -3.5555  -3.4515  -3.3710
    -3.3216  -3.2153  -3.1555  -3.0780  -3.0718  -3.0079  -2.5331  -2.5134
    -2.2032  -2.0587  -1.9797  -1.0565  -0.3394  -0.2316  -0.0016   0.5508
     0.6026   0.7098   1.0463   1.0779   1.1198   1.1344   1.2429   1.3725
     1.8833   2.1779   2.2442   2.2659   2.3986   2.4258   2.4507

     the spin up/dw Fermi energies are    -1.4087   -1.4087 ev

!    total energy              =    -923.09905622 Ry
     total all-electron energy =     -3804.622644 Ry
     estimated scf accuracy    <       0.00000047 Ry
     smearing contrib. (-TS)   =      -0.00000000 Ry
     internal energy E=F+TS    =    -923.09905622 Ry

     The total energy is F=E-TS. E is the sum of the following terms:
     one-electron contribution =   -1248.52787309 Ry
     hartree contribution      =     670.36596136 Ry
     xc contribution           =    -225.60342892 Ry
     ewald contribution        =     186.25946191 Ry
     one-center paw contrib.   =    -305.59317747 Ry

     total magnetization       =    -0.00 Bohr mag/cell
[...]
     estimated scf accuracy    <       0.00280947 Ry

     total magnetization       =     0.00 Bohr mag/cell
     absolute magnetization    =     0.01 Bohr mag/cell

     iteration #  8     ecut=    50.00 Ry     beta= 0.30
     Davidson diagonalization with overlap
     ethr =  1.42E-06,  avg # of iterations = 16.0

     negative rho (up, down):  1.395E-06 1.395E-06

     total cpu time spent up to now is     1415.2 secs

     total energy              =    -923.26591853 Ry
     estimated scf accuracy    <       0.00049622 Ry

     total magnetization       =    -0.00 Bohr mag/cell
     absolute magnetization    =     0.01 Bohr mag/cell

     iteration #  9     ecut=    50.00 Ry     beta= 0.30
     Davidson diagonalization with overlap
     ethr =  2.51E-07,  avg # of iterations =  4.0

     negative rho (up, down):  1.390E-06 1.390E-06

     total cpu time spent up to now is     1417.4 secs

     total energy              =    -923.26582971 Ry
     estimated scf accuracy    <       0.00009340 Ry

     total magnetization       =     0.00 Bohr mag/cell
     absolute magnetization    =     0.01 Bohr mag/cell

     iteration # 10     ecut=    50.00 Ry     beta= 0.30
     Davidson diagonalization with overlap
     ethr =  4.72E-08,  avg # of iterations =  4.0

     negative rho (up, down):  1.390E-06 1.390E-06

     total cpu time spent up to now is     1419.6 secs

     total energy              =    -923.26575145 Ry
     estimated scf accuracy    <       0.00001992 Ry

     total magnetization       =     0.00 Bohr mag/cell
     absolute magnetization    =     0.01 Bohr mag/cell

     iteration # 11     ecut=    50.00 Ry     beta= 0.30
     Davidson diagonalization with overlap
     ethr =  1.01E-08,  avg # of iterations =  2.0

     negative rho (up, down):  1.384E-06 1.384E-06

     total cpu time spent up to now is     1421.9 secs

     total energy              =    -923.26572904 Ry
     estimated scf accuracy    <       0.00000490 Ry

     total magnetization       =     0.00 Bohr mag/cell
     absolute magnetization    =     0.01 Bohr mag/cell

     iteration # 12     ecut=    50.00 Ry     beta= 0.30
     Davidson diagonalization with overlap
     ethr =  2.47E-09,  avg # of iterations =  4.0

     negative rho (up, down):  1.381E-06 1.381E-06

     total cpu time spent up to now is     1424.1 secs

     total energy              =    -923.26571938 Ry
     estimated scf accuracy    <       0.00000051 Ry

     total magnetization       =    -0.00 Bohr mag/cell
     absolute magnetization    =     0.00 Bohr mag/cell

     iteration # 13     ecut=    50.00 Ry     beta= 0.30
     Davidson diagonalization with overlap
     ethr =  2.59E-10,  avg # of iterations =  4.0

     negative rho (up, down):  1.380E-06 1.380E-06

     total cpu time spent up to now is     1426.5 secs

     total energy              =    -923.26571188 Ry
     estimated scf accuracy    <       0.00000016 Ry

     total magnetization       =    -0.00 Bohr mag/cell
     absolute magnetization    =     0.00 Bohr mag/cell

     iteration # 14     ecut=    50.00 Ry     beta= 0.30
     Davidson diagonalization with overlap
     ethr =  8.22E-11,  avg # of iterations =  2.0

     negative rho (up, down):  1.378E-06 1.378E-06

     total cpu time spent up to now is     1428.6 secs

     total energy              =    -923.26570948 Ry
     estimated scf accuracy    <       0.00000002 Ry

     total magnetization       =    -0.00 Bohr mag/cell
     absolute magnetization    =     0.00 Bohr mag/cell

     iteration # 15     ecut=    50.00 Ry     beta= 0.30
     Davidson diagonalization with overlap
     ethr =  9.74E-12,  avg # of iterations =  4.0

     negative rho (up, down):  1.374E-06 1.374E-06

     Magnetic moment per site  (integrated on atomic sphere of radius R)
     atom   1 (R=0.045)  charge=  1.0197  magn= -0.0000
     atom   2 (R=0.045)  charge=  1.0549  magn= -0.0000
     atom   3 (R=0.045)  charge=  1.0490  magn=  0.0000
     atom   4 (R=0.045)  charge=  1.0225  magn=  0.0000
     atom   5 (R=0.045)  charge=  1.0888  magn= -0.0000
     atom   6 (R=0.045)  charge=  1.0796  magn=  0.0000
     atom   7 (R=0.045)  charge=  1.0246  magn= -0.0000
     atom   8 (R=0.045)  charge=  1.0888  magn= -0.0000
     atom   9 (R=0.045)  charge=  1.0819  magn=  0.0000
     atom  10 (R=0.045)  charge=  1.0233  magn= -0.0000
     atom  11 (R=0.045)  charge=  1.0880  magn=  0.0000
     atom  12 (R=0.045)  charge=  1.0822  magn= -0.0000
     atom  13 (R=0.045)  charge=  1.0143  magn=  0.0000
     atom  14 (R=0.045)  charge=  1.0867  magn= -0.0000
     atom  15 (R=0.045)  charge=  1.0838  magn=  0.0000
     atom  16 (R=0.045)  charge=  1.0223  magn= -0.0000
     atom  17 (R=0.045)  charge=  1.0885  magn=  0.0000
     atom  18 (R=0.045)  charge=  1.0819  magn= -0.0000
     atom  19 (R=0.045)  charge=  1.0227  magn=  0.0000
     atom  20 (R=0.045)  charge=  1.0893  magn=  0.0000
     atom  21 (R=0.045)  charge=  1.0827  magn= -0.0000
     atom  22 (R=0.045)  charge=  1.0219  magn= -0.0001
     atom  23 (R=0.045)  charge=  1.0894  magn= -0.0000
     atom  24 (R=0.045)  charge=  1.0831  magn=  0.0000
     atom  25 (R=0.045)  charge=  1.0226  magn= -0.0000
     atom  26 (R=0.045)  charge=  1.0884  magn= -0.0000
     atom  27 (R=0.045)  charge=  1.0818  magn=  0.0000
     atom  28 (R=0.045)  charge=  1.0216  magn=  0.0000
     atom  29 (R=0.045)  charge=  1.0888  magn=  0.0000
     atom  30 (R=0.045)  charge=  1.0817  magn= -0.0000
     atom  31 (R=0.045)  charge=  1.0240  magn=  0.0000
     atom  32 (R=0.045)  charge=  1.0891  magn=  0.0000
     atom  33 (R=0.045)  charge=  1.0831  magn= -0.0000
     atom  34 (R=0.045)  charge=  1.0242  magn= -0.0000
     atom  35 (R=0.045)  charge=  1.0893  magn=  0.0000
     atom  36 (R=0.045)  charge=  1.0830  magn= -0.0000
     atom  37 (R=0.045)  charge=  1.0230  magn=  0.0000
     atom  38 (R=0.045)  charge=  1.0884  magn=  0.0000
     atom  39 (R=0.045)  charge=  1.0820  magn= -0.0000
     atom  40 (R=0.045)  charge=  1.0234  magn= -0.0000
     atom  41 (R=0.045)  charge=  1.0821  magn=  0.0000
     atom  42 (R=0.045)  charge=  1.0848  magn= -0.0000
     atom  43 (R=0.045)  charge=  1.0232  magn=  0.0000
     atom  44 (R=0.045)  charge=  1.0888  magn= -0.0000
     atom  45 (R=0.045)  charge=  1.0825  magn=  0.0000
     atom  46 (R=0.045)  charge=  1.0224  magn= -0.0000
     atom  47 (R=0.045)  charge=  1.0876  magn=  0.0000
     atom  48 (R=0.045)  charge=  1.0822  magn= -0.0000
     atom  49 (R=0.046)  charge=  3.0183  magn= -0.0001

     total cpu time spent up to now is     1431.0 secs

     End of self-consistent calculation

 ------ SPIN UP ------------


          k = 0.0000 0.0000 0.0000 ( 26858 PWs)   bands (ev):

   -22.5958 -21.5896 -21.4749 -17.6135 -17.5857 -17.5187 -17.3875 -17.3674
   -17.3172 -16.9904 -16.9459 -16.9084 -16.8595 -16.5839 -16.1618 -16.1375
   -16.0258 -15.9725 -15.9317 -15.7879 -15.6434 -15.4445 -14.6924 -14.6669
   -14.4973 -14.2066 -14.1681 -14.0874 -13.6386 -13.2031 -12.8797 -12.8446
   -12.7990 -12.1979 -12.1552 -12.1239 -12.0731 -11.5037 -11.1299 -11.0958
   -11.0321 -10.7643 -10.3965  -9.9505  -9.9401  -9.9119  -9.5469  -9.5417
    -9.5327  -9.5091  -9.4987  -9.4292  -9.3867  -7.4971  -7.1210  -7.0206
    -6.8913  -6.7218  -6.6709  -6.5671  -6.5318  -6.3872  -6.3070  -6.2070
    -6.0270  -5.9850  -5.9371  -5.7362  -5.6888  -5.6861  -5.6178  -5.5727
    -5.5646  -5.4739  -5.4481  -5.1142  -5.0836  -4.9635  -4.7135  -4.6615
    -4.5474  -4.2309  -4.0226  -3.8647  -3.7155  -3.6934  -3.5239  -3.5085
    -3.4231  -3.4063  -3.2391  -3.2070  -3.0878  -3.0609  -3.0109  -2.4948
    -2.3806  -2.1530  -1.6104  -0.9065  -0.3647  -0.2801  -0.0956   0.5007
     0.5330   0.6519   1.0548   1.0608   1.0971   1.1128   1.2824   1.4173
     1.6923   2.2129   2.2848   2.2985   2.3129   2.3565   2.4590

 ------ SPIN DOWN ----------


          k = 0.0000 0.0000 0.0000 ( 26858 PWs)   bands (ev):

   -22.5959 -21.5896 -21.4749 -17.6135 -17.5857 -17.5187 -17.3875 -17.3674
   -17.3172 -16.9905 -16.9459 -16.9084 -16.8595 -16.5839 -16.1618 -16.1375
   -16.0258 -15.9725 -15.9317 -15.7879 -15.6434 -15.4445 -14.6924 -14.6669
   -14.4973 -14.2066 -14.1681 -14.0875 -13.6386 -13.2031 -12.8797 -12.8446
   -12.7990 -12.1979 -12.1552 -12.1239 -12.0731 -11.5037 -11.1299 -11.0958
   -11.0321 -10.7643 -10.3965  -9.9505  -9.9401  -9.9119  -9.5469  -9.5418
    -9.5327  -9.5091  -9.4987  -9.4292  -9.3866  -7.4971  -7.1211  -7.0205
    -6.8913  -6.7218  -6.6709  -6.5670  -6.5318  -6.3872  -6.3070  -6.2070
    -6.0270  -5.9850  -5.9371  -5.7362  -5.6889  -5.6861  -5.6178  -5.5727
    -5.5646  -5.4739  -5.4481  -5.1142  -5.0836  -4.9635  -4.7135  -4.6615
    -4.5474  -4.2309  -4.0227  -3.8647  -3.7155  -3.6934  -3.5238  -3.5085
    -3.4231  -3.4063  -3.2391  -3.2070  -3.0878  -3.0609  -3.0110  -2.4948
    -2.3806  -2.1530  -1.6103  -0.9064  -0.3647  -0.2801  -0.0955   0.5007
     0.5330   0.6519   1.0548   1.0608   1.0971   1.1128   1.2824   1.4173
     1.6923   2.2129   2.2848   2.2985   2.3129   2.3564   2.4590

     the spin up/dw Fermi energies are    -1.4465   -1.4465 ev

!    total energy              =    -923.26570894 Ry
     total all-electron energy =     -3804.789297 Ry
     estimated scf accuracy    <          4.1E-09 Ry
     smearing contrib. (-TS)   =      -0.00000000 Ry
     internal energy E=F+TS    =    -923.26570894 Ry

     The total energy is F=E-TS. E is the sum of the following terms:
     one-electron contribution =   -1239.68203017 Ry
     hartree contribution      =     665.94383581 Ry
     xc contribution           =    -225.41840656 Ry
     ewald contribution        =     181.46469965 Ry
     one-center paw contrib.   =    -305.57380767 Ry

     total magnetization       =    -0.00 Bohr mag/cell
     absolute magnetization    =     0.00 Bohr mag/cell

     convergence has been achieved in  15 iterations

     negative rho (up, down):  1.374E-06 1.374E-06

     Forces acting on atoms (cartesian axes, Ry/au):

     atom    1 type  1   force =     0.00009721    0.00010791   -0.00011477
     atom    2 type  1   force =     0.00002678    0.00007762   -0.00007684
     atom    3 type  1   force =    -0.00005682   -0.00003397   -0.00012774
     atom    4 type  1   force =     0.00011143   -0.00021169   -0.00008997
     atom    5 type  1   force =     0.00016630   -0.00014596   -0.00042531
     atom    6 type  1   force =    -0.00033109    0.00034707   -0.00032650
     atom    7 type  1   force =    -0.00000246   -0.00021536   -0.00006389
     atom    8 type  1   force =    -0.00039293   -0.00035066    0.00051831
     atom    9 type  1   force =     0.00050234    0.00017014   -0.00073862
     atom   10 type  1   force =    -0.00005582   -0.00023387   -0.00015840
     atom   11 type  1   force =    -0.00072956   -0.00072675   -0.00052335
     atom   12 type  1   force =     0.00085680    0.00068336    0.00037119
     atom   13 type  1   force =    -0.00020765   -0.00001544   -0.00050659
     atom   14 type  1   force =     0.00002546   -0.00004373    0.00043177
     atom   15 type  1   force =     0.00031718   -0.00043202   -0.00033923
     atom   16 type  1   force =     0.00012451   -0.00021142    0.00006435
     atom   17 type  1   force =     0.00052968   -0.00061073    0.00039084
     atom   18 type  1   force =    -0.00029271    0.00032569   -0.00076082
     atom   19 type  1   force =    -0.00017757   -0.00024292   -0.00007044
     atom   20 type  1   force =    -0.00077556   -0.00021485    0.00052236
     atom   21 type  1   force =     0.00022945    0.00040205   -0.00081220
     atom   22 type  1   force =     0.00022978   -0.00013707   -0.00005554
     atom   23 type  1   force =    -0.00000348    0.00035919    0.00021682
     atom   24 type  1   force =    -0.00005668    0.00004168   -0.00047117
     atom   25 type  1   force =    -0.00007521    0.00006317    0.00007119
     atom   26 type  1   force =     0.00040828   -0.00047122   -0.00001018
     atom   27 type  1   force =    -0.00054432    0.00058316   -0.00023853
     atom   28 type  1   force =    -0.00018074    0.00023978   -0.00011878
     atom   29 type  1   force =    -0.00007037    0.00010535    0.00042422
     atom   30 type  1   force =     0.00043146   -0.00035387   -0.00011658
     atom   31 type  1   force =    -0.00002385    0.00002231    0.00019618
     atom   32 type  1   force =    -0.00037203   -0.00017684    0.00082758
     atom   33 type  1   force =     0.00053840    0.00078516   -0.00002998
     atom   34 type  1   force =    -0.00011737    0.00007179    0.00011230
     atom   35 type  1   force =    -0.00029072   -0.00007066    0.00039604
     atom   36 type  1   force =    -0.00035107   -0.00010360    0.00044590
     atom   37 type  1   force =     0.00007264   -0.00002648    0.00003887
     atom   38 type  1   force =     0.00025313   -0.00028872   -0.00030881
     atom   39 type  1   force =    -0.00012178    0.00011409    0.00021169
     atom   40 type  1   force =    -0.00009802    0.00013602    0.00008987
     atom   41 type  1   force =     0.00011330    0.00025028   -0.00025016
     atom   42 type  1   force =     0.00005530    0.00016162    0.00038083
     atom   43 type  1   force =    -0.00012912    0.00026077    0.00007495
     atom   44 type  1   force =     0.00027311   -0.00022585    0.00044650
     atom   45 type  1   force =     0.00036575    0.00046816    0.00010748
     atom   46 type  1   force =    -0.00029035    0.00006262   -0.00004842
     atom   47 type  1   force =    -0.00031112   -0.00091244   -0.00017035
     atom   48 type  1   force =     0.00038768    0.00042528    0.00085327
     atom   49 type  2   force =    -0.00005761    0.00019186   -0.00023934

     Total force =     0.004192     Total SCF correction =     0.000098
     Energy error            =      2.0E-05 Ry
     Gradient error          =      9.1E-04 Ry/Bohr

     bfgs converged in  55 scf cycles and  51 bfgs steps
     (criteria: energy <  1.0E-04 Ry, force <  1.0E-03 Ry/Bohr)

     End of BFGS Geometry Optimization

     Final energy             =    -923.2657089442 Ry

     File ./pwscf.bfgs deleted, as requested
Begin final coordinates

ATOMIC_POSITIONS (angstrom)
C             6.2149211231        4.5459933469        6.2471040514
C             7.5621934536        3.2901083391        8.2131187123
C             7.0482312697        3.7839306356        7.0507552433
C             4.5904779488        6.1773876164        6.1778278556
C             3.0481528252        7.7220224202        7.7241935337
C             3.7603101116        7.0101332754        7.0107053969
C             6.2213956877        6.1670528010        4.5696883312
C             7.7614889997        7.7057672153        3.0155724720
C             7.0539872260        6.9920533006        3.7310210049
C             4.6034174454        4.5466846301        4.5713658575
C             3.0645064944        3.0057005071        3.0166000980
C             3.7804421647        3.7105491641        3.7324216613
C             6.2211264880        4.5514753603        4.5666439017
C             7.7593784183        3.0129539828        3.0222711754
C             7.0479996702        3.7266647373        3.7374528135
C             4.6018516366        6.1675073851        4.5495105278
C             3.0561144878        7.7137339871        3.0091328160
C             3.7712132498        6.9975034856        3.7149759290
C             4.5638466200        4.5624877260        6.1817743327
C             3.0172478451        3.0134183353        7.7053710749
C             3.7159318780        3.7389959382        6.9925334853
C             6.2040353264        6.2086562322        6.1771534782
C             7.7541869969        7.7516794866        7.7021063612
C             7.0304196663        7.0503156437        6.9892730934
C             0.7138470246       10.0563603680        0.6809385476
C             2.2602340235        8.5105734205        2.2207816703
C             1.5478516699        9.2236431546        1.5094932584
C            10.0922666391        0.6714644960        0.6962204405
C             8.5482369576        2.2199121718        2.2299238525
C             9.2637950453        1.5001252714        1.5255021458
C             0.7047294693        0.6791498413       10.0609251508
C             2.2341914345        2.2187564103        8.5026796656
C             1.5292831784        1.5070061538        9.2229718438
C            10.0871909701       10.0573333373       10.0632567228
C             8.5479749539        8.5318267152        8.5019749186
C             9.2604755045        9.2330010261        9.2256234742
C             0.7089982978       10.0599529101       10.0574000778
C             2.2537374403        8.5164338147        8.5152906525
C             1.5405893968        9.2300405603        9.2260248015
C            10.0888463993        0.6749917103       10.0589204048
C             8.5105603231        2.2654010175        8.6160779642
C             9.2490882047        1.5173153765        9.2538624516
C            10.0928574911       10.0526774602        0.6834543138
C             8.5501599679        8.5028930403        2.2216895663
C             9.2620265343        9.2176673583        1.5119237809
C             0.7143957821        0.6766412555        0.6815672842
C             2.2654993228        2.2190082106        2.2212511379
C             1.5500372683        1.5082458936        1.5096487283
O             7.0182496675        4.0338034739        9.1170239383
End final coordinates



     Writing all to output data dir ./pwscf.save/

     init_run     :      2.68s CPU      2.79s WALL (       1 calls)
     electrons    :   1156.86s CPU   1206.76s WALL (      56 calls)
     update_pot   :     83.30s CPU     84.26s WALL (      54 calls)
     forces       :     88.22s CPU     91.78s WALL (      56 calls)

     Called by init_run:
     wfcinit      :      0.70s CPU      0.73s WALL (       1 calls)
     potinit      :      2.03s CPU      2.09s WALL (       2 calls)
     hinit0       :      0.67s CPU      0.69s WALL (       1 calls)

     Called by electrons:
     c_bands      :    632.46s CPU    651.22s WALL (     539 calls)
     sum_band     :    165.29s CPU    170.46s WALL (     539 calls)
     v_of_rho     :    132.18s CPU    136.70s WALL (     569 calls)
     newd         :     61.28s CPU     62.56s WALL (     569 calls)
     PAW_pot      :    193.87s CPU    194.97s WALL (     623 calls)
     mix_rho      :     13.33s CPU     14.25s WALL (     539 calls)

     Called by c_bands:
     init_us_2    :      9.46s CPU      9.68s WALL (    2378 calls)
     init_us_2:cp :      9.44s CPU      9.67s WALL (    2378 calls)
     regterg      :    616.17s CPU    634.49s WALL (    1078 calls)

     Called by *egterg:
     rdiaghg      :     39.16s CPU     39.38s WALL (    3806 calls)
     h_psi        :    348.80s CPU    364.89s WALL (    3970 calls)
     s_psi        :     60.10s CPU     60.51s WALL (    3970 calls)
     g_psi        :      1.19s CPU      1.20s WALL (    2890 calls)

     Called by h_psi:
     h_psi:calbec :     58.97s CPU     59.92s WALL (    3970 calls)
     vloc_psi     :    227.00s CPU    241.71s WALL (    3970 calls)
     add_vuspsi   :     59.60s CPU     60.00s WALL (    3970 calls)

     General routines
     calbec       :     94.46s CPU     95.89s WALL (    5604 calls)
     fft          :     58.43s CPU     65.14s WALL (   12501 calls)
     ffts         :      2.69s CPU      3.09s WALL (    2216 calls)
     fftw         :    235.53s CPU    251.11s WALL (  372432 calls)
     interpolate  :      7.65s CPU      8.46s WALL (    1138 calls)

     Parallel routines

     PWSCF        :  22m50.62s CPU  23m54.64s WALL


   This run was terminated on:  22: 0:27  24May2025            

=------------------------------------------------------------------------------=
   JOB DONE.
=------------------------------------------------------------------------------=
