ITEM: TIMESTEP
0
ITEM: NUMBER OF ATOMS
57
ITEM: BOX BOUNDS pp pp pp
0.0000000000000000e+00 3.2808000000000000e+01
0.0000000000000000e+00 1.7780000000000001e+01
0.0000000000000000e+00 2.4729999999999999e+00
ITEM: ATOMS id type x y z 
13 1 7.043 0.849 2.464 
29 1 7.397 1.432 1.228 
37 1 8.035 2.733 1.228 
57 2 3.973 0.968 1.228 
1 1 6.173 17.398 2.464 
5 1 5.371 17.398 1.228 
9 1 3.973 17.398 1.228 
16 1 7.043 16.167 2.464 
32 1 7.397 15.584 1.228 
40 1 8.035 14.283 1.228 
45 1 3.236 17.398 2.464 
49 1 1.81 17.398 2.464 
53 1 1.083 17.398 1.228 
4 1 10.968 8.508 2.464 
8 1 11.771 8.508 1.228 
12 1 13.168 8.508 1.228 
18 1 10.098 7.277 2.464 
21 1 8.308 3.392 2.464 
26 1 8.833 4.734 2.464 
34 1 9.745 6.694 1.228 
42 1 9.106 5.393 1.228 
48 1 13.906 8.508 2.464 
52 1 15.331 8.508 2.464 
56 1 16.058 8.508 1.228 
19 1 10.098 9.739 2.464 
24 1 8.308 13.624 2.464 
27 1 8.833 12.282 2.464 
35 1 9.745 10.322 1.228 
43 1 9.106 11.623 1.228 
3 1 22.577 8.508 2.464 
7 1 21.775 8.508 1.228 
11 1 20.377 8.508 1.228 
20 1 23.447 7.277 2.464 
36 1 23.801 6.694 1.228 
44 1 24.439 5.393 1.228 
47 1 19.64 8.508 2.464 
51 1 18.214 8.508 2.464 
55 1 17.487 8.508 1.228 
17 1 23.447 9.739 2.464 
33 1 23.801 10.322 1.228 
41 1 24.439 11.623 1.228 
15 1 26.502 0.849 2.464 
23 1 25.237 3.392 2.464 
28 1 24.712 4.734 2.464 
31 1 26.149 1.432 1.228 
39 1 25.511 2.733 1.228 
2 1 27.373 17.398 2.464 
6 1 28.175 17.398 1.228 
10 1 29.572 17.398 1.228 
14 1 26.502 16.167 2.464 
22 1 25.237 13.624 2.464 
25 1 24.712 12.282 2.464 
30 1 26.149 15.584 1.228 
38 1 25.511 14.283 1.228 
46 1 30.31 17.398 2.464 
50 1 31.735 17.398 2.464 
54 1 32.462 17.398 1.228 
ITEM: TIMESTEP
10
ITEM: NUMBER OF ATOMS
57
ITEM: BOX BOUNDS pp pp pp
0.0000000000000000e+00 3.2808000000000000e+01
0.0000000000000000e+00 1.7780000000000001e+01
0.0000000000000000e+00 2.4729999999999999e+00
ITEM: ATOMS id type x y z 
13 1 7.06584 0.805937 2.46438 
29 1 7.43241 1.44236 1.2277 
37 1 8.04972 2.71422 1.22764 
57 2 4.08635 1.0938 1.22792 
1 1 6.16677 17.3888 2.46432 
5 1 5.27737 17.4304 1.22753 
9 1 3.77665 17.4963 1.22764 
16 1 7.06608 16.217 2.46438 
32 1 7.43523 15.5717 1.22769 
40 1 8.0549 14.2919 1.22764 
45 1 3.23838 17.1636 2.46444 
49 1 1.81101 17.3863 2.46437 
53 1 1.0403 17.4044 1.22764 
4 1 10.9737 8.50722 2.46432 
8 1 11.8056 8.5079 1.22757 
12 1 13.2024 8.508 1.22766 
18 1 10.062 7.29075 2.46436 
21 1 8.30755 3.3698 2.46435 
26 1 8.82965 4.74659 2.46434 
34 1 9.70662 6.67361 1.2277 
42 1 9.09681 5.42932 1.22764 
48 1 13.9058 8.508 2.46437 
52 1 15.3232 8.508 2.46435 
56 1 16.0531 8.508 1.22764 
19 1 10.0622 9.72451 2.46436 
24 1 8.30806 13.6453 2.46435 
27 1 8.82896 12.271 2.46434 
35 1 9.70662 10.3422 1.2277 
43 1 9.09782 11.5837 1.22764 
3 1 22.5717 8.508 2.46432 
7 1 21.7407 8.508 1.22757 
11 1 20.3453 8.508 1.22766 
20 1 23.4835 7.28978 2.46436 
36 1 23.8393 6.67392 1.2277 
44 1 24.4476 5.42979 1.22764 
47 1 19.6418 8.508 2.46437 
51 1 18.2234 8.508 2.46435 
55 1 17.4888 8.508 1.22764 
17 1 23.4835 9.72622 2.46436 
33 1 23.8393 10.3421 1.2277 
41 1 24.4476 11.5862 1.22764 
15 1 26.4662 0.835925 2.46436 
23 1 25.2366 3.37202 2.46434 
28 1 24.7125 4.7533 2.46434 
31 1 26.1116 1.45078 1.2277 
39 1 25.5025 2.69635 1.22764 
2 1 27.3782 17.398 2.46432 
6 1 28.2122 17.398 1.22756 
10 1 29.5959 17.398 1.22766 
14 1 26.4662 16.1801 2.46436 
22 1 25.2366 13.644 2.46434 
25 1 24.7125 12.2627 2.46434 
30 1 26.1116 15.5652 1.2277 
38 1 25.5025 14.3196 1.22764 
46 1 30.3356 17.398 2.46437 
50 1 31.7953 17.3979 2.46435 
54 1 32.5444 17.3994 1.22765 
ITEM: TIMESTEP
20
ITEM: NUMBER OF ATOMS
57
ITEM: BOX BOUNDS pp pp pp
0.0000000000000000e+00 3.2808000000000000e+01
0.0000000000000000e+00 1.7780000000000001e+01
0.0000000000000000e+00 2.4729999999999999e+00
ITEM: ATOMS id type x y z 
13 1 7.08957 0.822346 2.46426 
29 1 7.45236 1.44331 1.22778 
37 1 8.05333 2.69291 1.22776 
57 2 4.16254 1.14607 1.22791 
1 1 6.17457 17.3876 2.46421 
5 1 5.31135 17.4898 1.22774 
9 1 3.77982 17.5244 1.22779 
16 1 7.07533 16.1955 2.46426 
32 1 7.45558 15.5721 1.22778 
40 1 8.05449 14.3225 1.22776 
45 1 3.24367 17.0257 2.46428 
49 1 1.81078 17.3731 2.46424 
53 1 1.03576 17.4192 1.22776 
4 1 10.974 8.50722 2.46421 
8 1 11.7864 8.50757 1.22774 
12 1 13.204 8.50803 1.22777 
18 1 10.0491 7.29009 2.46426 
21 1 8.31432 3.36902 2.46424 
26 1 8.82657 4.75695 2.46423 
34 1 9.69002 6.67811 1.22777 
42 1 9.08494 5.43494 1.22775 
48 1 13.911 8.50802 2.46424 
52 1 15.2971 8.508 2.46424 
56 1 16.0436 8.508 1.22776 
19 1 10.0493 9.72449 2.46426 
24 1 8.31674 13.6425 2.46424 
27 1 8.82698 12.2571 2.46423 
35 1 9.69105 10.3356 1.22777 
43 1 9.08613 11.5768 1.22775 
3 1 22.5744 8.508 2.46421 
7 1 21.7594 8.508 1.22774 
11 1 20.3431 8.508 1.22777 
20 1 23.4966 7.29001 2.46426 
36 1 23.8553 6.67919 1.22777 
44 1 24.4594 5.43509 1.22776 
47 1 19.6384 8.508 2.46424 
51 1 18.2459 8.508 2.46424 
55 1 17.5003 8.508 1.22776 
17 1 23.4966 9.72599 2.46426 
33 1 23.8553 10.3368 1.22777 
41 1 24.4594 11.5809 1.22776 
15 1 26.4498 0.8373 2.46426 
23 1 25.2307 3.36884 2.46424 
28 1 24.7175 4.7586 2.46424 
31 1 26.0926 1.4508 1.22777 
39 1 25.4902 2.69184 1.22776 
2 1 27.3644 17.398 2.46421 
6 1 28.1942 17.398 1.22774 
10 1 29.5919 17.398 1.22777 
14 1 26.4498 16.1787 2.46426 
22 1 25.2307 13.6472 2.46424 
25 1 24.7175 12.2574 2.46424 
30 1 26.0926 15.5652 1.22777 
38 1 25.4902 14.3242 1.22776 
46 1 30.3075 17.3977 2.46425 
50 1 31.7689 17.3968 2.46424 
54 1 32.5208 17.4045 1.22776 
ITEM: TIMESTEP
30
ITEM: NUMBER OF ATOMS
57
ITEM: BOX BOUNDS pp pp pp
0.0000000000000000e+00 3.2808000000000000e+01
0.0000000000000000e+00 1.7780000000000001e+01
0.0000000000000000e+00 2.4729999999999999e+00
ITEM: ATOMS id type x y z 
13 1 7.11963 0.805472 2.46426 
29 1 7.47488 1.4319 1.22776 
37 1 8.07082 2.68652 1.22775 
57 2 4.27881 1.12134 1.22787 
1 1 6.1752 17.3922 2.46425 
5 1 5.27206 17.6011 1.22774 
9 1 3.73932 17.5279 1.22779 
16 1 7.0483 16.2015 2.46426 
32 1 7.46915 15.5887 1.22776 
40 1 8.07214 14.332 1.22775 
45 1 3.25681 16.9321 2.46429 
49 1 1.861 17.3246 2.46426 
53 1 1.09715 17.4473 1.22775 
4 1 10.9713 8.50589 2.46424 
8 1 11.774 8.50688 1.22773 
12 1 13.1952 8.50809 1.22775 
18 1 10.0391 7.2947 2.46426 
21 1 8.32342 3.36628 2.46425 
26 1 8.81723 4.76107 2.46425 
34 1 9.67121 6.69363 1.22776 
42 1 9.06634 5.44234 1.22775 
48 1 13.9316 8.50809 2.46426 
52 1 15.3004 8.50802 2.46425 
56 1 16.0402 8.508 1.22775 
19 1 10.0393 9.71866 2.46426 
24 1 8.32445 13.6494 2.46425 
27 1 8.81527 12.2593 2.46425 
35 1 9.67151 10.321 1.22776 
43 1 9.06524 11.5745 1.22774 
3 1 22.5759 8.508 2.46424 
7 1 21.7715 8.508 1.22773 
11 1 20.3497 8.508 1.22775 
20 1 23.5079 7.29535 2.46426 
36 1 23.8754 6.69278 1.22776 
44 1 24.4771 5.44541 1.22775 
47 1 19.6144 8.508 2.46426 
51 1 18.2433 8.508 2.46425 
55 1 17.5046 8.508 1.22775 
17 1 23.5079 9.72065 2.46426 
33 1 23.8754 10.3232 1.22776 
41 1 24.4771 11.5706 1.22775 
15 1 26.4341 0.832438 2.46426 
23 1 25.2198 3.36849 2.46425 
28 1 24.7264 4.76425 2.46425 
31 1 26.0731 1.43562 1.22776 
39 1 25.4708 2.6859 1.22775 
2 1 27.3732 17.398 2.46424 
6 1 28.1788 17.3981 1.22773 
10 1 29.6081 17.3979 1.22775 
14 1 26.4341 16.1836 2.46426 
22 1 25.2198 13.6475 2.46425 
25 1 24.7264 12.2518 2.46425 
30 1 26.0731 15.5804 1.22776 
38 1 25.4708 14.3301 1.22775 
46 1 30.2922 17.3964 2.46426 
50 1 31.6927 17.3936 2.46425 
54 1 32.4899 17.4175 1.22775 
ITEM: TIMESTEP
40
ITEM: NUMBER OF ATOMS
57
ITEM: BOX BOUNDS pp pp pp
0.0000000000000000e+00 3.2808000000000000e+01
0.0000000000000000e+00 1.7780000000000001e+01
0.0000000000000000e+00 2.4729999999999999e+00
ITEM: ATOMS id type x y z 
13 1 7.14005 0.791774 2.46426 
29 1 7.49068 1.42677 1.22776 
37 1 8.08055 2.68385 1.22775 
57 2 4.31827 1.08546 1.22786 
1 1 6.16267 17.4018 2.46425 
5 1 5.27046 17.6525 1.22775 
9 1 3.69678 17.5302 1.22779 
16 1 7.01848 16.2017 2.46426 
32 1 7.4698 15.6033 1.22776 
40 1 8.0823 14.3389 1.22775 
45 1 3.23704 16.8994 2.46429 
49 1 1.8642 17.3001 2.46426 
53 1 1.12909 17.456 1.22776 
4 1 10.9691 8.50761 2.46424 
8 1 11.7678 8.50706 1.22774 
12 1 13.1933 8.50811 1.22775 
18 1 10.0328 7.29567 2.46426 
21 1 8.32892 3.365 2.46425 
26 1 8.81183 4.76415 2.46425 
34 1 9.65741 6.69597 1.22776 
42 1 9.05549 5.44793 1.22775 
48 1 13.9373 8.50815 2.46425 
52 1 15.3005 8.50803 2.46425 
56 1 16.0392 8.50799 1.22775 
19 1 10.033 9.71846 2.46425 
24 1 8.32965 13.6536 2.46425 
27 1 8.80876 12.2599 2.46425 
35 1 9.65752 10.3199 1.22776 
43 1 9.05361 11.5716 1.22775 
3 1 22.5781 8.508 2.46424 
7 1 21.7782 8.508 1.22774 
11 1 20.3517 8.508 1.22775 
20 1 23.5137 7.29662 2.46426 
36 1 23.8883 6.69667 1.22776 
44 1 24.4892 5.44794 1.22775 
47 1 19.6076 8.508 2.46425 
51 1 18.2435 8.508 2.46425 
55 1 17.506 8.508 1.22775 
17 1 23.5137 9.71938 2.46426 
33 1 23.8883 10.3193 1.22776 
41 1 24.4892 11.5681 1.22775 
15 1 26.4314 0.827384 2.46426 
23 1 25.2149 3.36465 2.46425 
28 1 24.7325 4.76516 2.46425 
31 1 26.0604 1.43154 1.22776 
39 1 25.46 2.68169 1.22775 
2 1 27.3588 17.398 2.46424 
6 1 28.1872 17.3983 1.22774 
10 1 29.59 17.3979 1.22775 
14 1 26.4315 16.1886 2.46426 
22 1 25.2149 13.6514 2.46425 
25 1 24.7325 12.2509 2.46425 
30 1 26.0605 15.5845 1.22776 
38 1 25.46 14.3343 1.22775 
46 1 30.2903 17.3948 2.46425 
50 1 31.7484 17.3936 2.46425 
54 1 32.4867 17.4263 1.22775 
ITEM: TIMESTEP
50
ITEM: NUMBER OF ATOMS
57
ITEM: BOX BOUNDS pp pp pp
0.0000000000000000e+00 3.2808000000000000e+01
0.0000000000000000e+00 1.7780000000000001e+01
0.0000000000000000e+00 2.4729999999999999e+00
ITEM: ATOMS id type x y z 
13 1 7.14721 0.781943 2.46426 
29 1 7.49746 1.4215 1.22776 
37 1 8.08503 2.6823 1.22775 
57 2 4.32489 1.08704 1.22785 
1 1 6.16613 17.406 2.46425 
5 1 5.27394 17.6635 1.22776 
9 1 3.68329 17.523 1.22779 
16 1 7.00101 16.2045 2.46426 
32 1 7.46697 15.6134 1.22776 
40 1 8.08805 14.3409 1.22775 
45 1 3.24029 16.8837 2.46429 
49 1 1.86664 17.2899 2.46426 
53 1 1.13368 17.4619 1.22776 
4 1 10.964 8.50906 2.46424 
8 1 11.7604 8.50734 1.22774 
12 1 13.1911 8.50811 1.22775 
18 1 10.0298 7.29623 2.46425 
21 1 8.33147 3.36418 2.46425 
26 1 8.80902 4.76552 2.46425 
34 1 9.65196 6.69894 1.22776 
42 1 9.04992 5.4504 1.22775 
48 1 13.9434 8.50817 2.46425 
52 1 15.3003 8.50804 2.46425 
56 1 16.037 8.50799 1.22775 
19 1 10.0298 9.71898 2.46425 
24 1 8.33229 13.6561 2.46425 
27 1 8.80525 12.2611 2.46425 
35 1 9.65246 10.3169 1.22776 
43 1 9.04782 11.5702 1.22775 
3 1 22.5801 8.508 2.46424 
7 1 21.7861 8.508 1.22774 
11 1 20.355 8.508 1.22775 
20 1 23.5167 7.29677 2.46426 
36 1 23.8943 6.69889 1.22776 
44 1 24.4949 5.45011 1.22775 
47 1 19.6004 8.508 2.46425 
51 1 18.2442 8.508 2.46425 
55 1 17.5075 8.50799 1.22775 
17 1 23.5167 9.71923 2.46426 
33 1 23.8943 10.3171 1.22776 
41 1 24.4949 11.5659 1.22775 
15 1 26.4282 0.827986 2.46425 
23 1 25.2121 3.36332 2.46425 
28 1 24.7356 4.76562 2.46425 
31 1 26.0539 1.43034 1.22776 
39 1 25.4544 2.67991 1.22775 
2 1 27.3587 17.398 2.46424 
6 1 28.1823 17.3984 1.22774 
10 1 29.5811 17.3978 1.22775 
14 1 26.4283 16.188 2.46425 
22 1 25.2121 13.6527 2.46425 
25 1 24.7356 12.2504 2.46425 
30 1 26.0539 15.5857 1.22776 
38 1 25.4544 14.3361 1.22775 
46 1 30.3039 17.3937 2.46425 
50 1 31.7617 17.3938 2.46425 
54 1 32.4921 17.4313 1.22775 
ITEM: TIMESTEP
60
ITEM: NUMBER OF ATOMS
57
ITEM: BOX BOUNDS pp pp pp
0.0000000000000000e+00 3.2808000000000000e+01
0.0000000000000000e+00 1.7780000000000001e+01
0.0000000000000000e+00 2.4729999999999999e+00
ITEM: ATOMS id type x y z 
13 1 7.16872 0.766101 2.46426 
29 1 7.51577 1.41105 1.22776 
37 1 8.09547 2.67829 1.22775 
57 2 4.32172 1.08459 1.22784 
1 1 6.16365 17.4144 2.46426 
5 1 5.26777 17.6859 1.22776 
9 1 3.67618 17.5069 1.22779 
16 1 6.96301 16.2035 2.46426 
32 1 7.46097 15.6391 1.22776 
40 1 8.10298 14.3464 1.22775 
45 1 3.25251 16.8616 2.46429 
49 1 1.87051 17.2681 2.46426 
53 1 1.15607 17.4735 1.22776 
4 1 10.9584 8.50977 2.46424 
8 1 11.7517 8.50791 1.22774 
12 1 13.1824 8.50806 1.22775 
18 1 10.0214 7.29636 2.46425 
21 1 8.33748 3.36219 2.46425 
26 1 8.8015 4.76747 2.46425 
34 1 9.63808 6.70468 1.22775 
42 1 9.0356 5.45514 1.22775 
48 1 13.9513 8.5082 2.46425 
52 1 15.3005 8.50805 2.46425 
56 1 16.0352 8.50798 1.22775 
19 1 10.0209 9.72072 2.46425 
24 1 8.34003 13.6602 2.46425 
27 1 8.79761 12.2609 2.46425 
35 1 9.63777 10.3137 1.22775 
43 1 9.03364 11.566 1.22775 
3 1 22.5854 8.50801 2.46424 
7 1 21.7921 8.508 1.22774 
11 1 20.3616 8.508 1.22775 
20 1 23.525 7.29631 2.46425 
36 1 23.9087 6.70418 1.22775 
44 1 24.5093 5.45503 1.22775 
47 1 19.5948 8.508 2.46425 
51 1 18.2445 8.508 2.46425 
55 1 17.5095 8.50799 1.22775 
17 1 23.525 9.71969 2.46425 
33 1 23.9087 10.3118 1.22775 
41 1 24.5093 11.561 1.22775 
15 1 26.42 0.828526 2.46425 
23 1 25.2047 3.36125 2.46425 
28 1 24.7428 4.76849 2.46425 
31 1 26.0397 1.42486 1.22775 
39 1 25.4407 2.67464 1.22775 
2 1 27.353 17.398 2.46424 
6 1 28.1792 17.3987 1.22774 
10 1 29.5729 17.3974 1.22775 
14 1 26.4203 16.1875 2.46425 
22 1 25.2047 13.6548 2.46425 
25 1 24.7428 12.2476 2.46425 
30 1 26.0398 15.5912 1.22775 
38 1 25.4407 14.3414 1.22775 
46 1 30.3319 17.3906 2.46425 
50 1 31.7741 17.3946 2.46425 
54 1 32.5043 17.4437 1.22775 
ITEM: TIMESTEP
70
ITEM: NUMBER OF ATOMS
57
ITEM: BOX BOUNDS pp pp pp
0.0000000000000000e+00 3.2808000000000000e+01
0.0000000000000000e+00 1.7780000000000001e+01
0.0000000000000000e+00 2.4729999999999999e+00
ITEM: ATOMS id type x y z 
13 1 7.23035 0.695405 2.46426 
29 1 7.58596 1.36915 1.22776 
37 1 8.13612 2.66829 1.22775 
57 2 4.26737 1.08099 1.22781 
1 1 6.15079 17.4323 2.46427 
5 1 5.27844 17.754 1.22777 
9 1 3.69356 17.4529 1.22779 
16 1 6.85205 16.1771 2.46426 
32 1 7.44023 15.6789 1.22776 
40 1 8.14272 14.3947 1.22775 
45 1 3.25795 16.8063 2.46429 
49 1 1.88153 17.1992 2.46426 
53 1 1.16779 17.4898 1.22776 
4 1 10.9397 8.51769 2.46425 
8 1 11.7319 8.51156 1.22775 
12 1 13.1665 8.50765 1.22775 
18 1 10.0009 7.30848 2.46425 
21 1 8.35804 3.35385 2.46425 
26 1 8.76897 4.76623 2.46425 
34 1 9.59091 6.72959 1.22775 
42 1 8.98024 5.47081 1.22775 
48 1 13.9287 8.50816 2.46425 
52 1 15.3002 8.5081 2.46425 
56 1 16.0394 8.50794 1.22775 
19 1 9.99949 9.71597 2.46425 
24 1 8.36168 13.6944 2.46425 
27 1 8.76271 12.2808 2.46425 
35 1 9.59009 10.2973 1.22775 
43 1 8.97049 11.5749 1.22775 
3 1 22.5989 8.50805 2.46425 
7 1 21.8144 8.50802 1.22775 
11 1 20.3793 8.508 1.22775 
20 1 23.5441 7.30522 2.46425 
36 1 23.9565 6.73006 1.22775 
44 1 24.566 5.47 1.22775 
47 1 19.6085 8.508 2.46425 
51 1 18.2418 8.508 2.46425 
55 1 17.5057 8.50797 1.22775 
17 1 23.5441 9.71083 2.46425 
33 1 23.9565 10.286 1.22775 
41 1 24.566 11.5462 1.22775 
15 1 26.4202 0.807342 2.46425 
23 1 25.1773 3.34914 2.46425 
28 1 24.774 4.77114 2.46425 
31 1 26.0029 1.3849 1.22775 
39 1 25.3889 2.65411 1.22775 
2 1 27.378 17.3982 2.46425 
6 1 28.2054 17.4 1.22775 
10 1 29.6047 17.3932 1.22775 
14 1 26.4212 16.2085 2.46425 
22 1 25.1773 13.667 2.46425 
25 1 24.774 12.2451 2.46425 
30 1 26.0033 15.6314 1.22775 
38 1 25.3889 14.362 1.22775 
46 1 30.3269 17.3789 2.46425 
50 1 31.8094 17.4081 2.46425 
54 1 32.5349 17.4882 1.22775 
ITEM: TIMESTEP
80
ITEM: NUMBER OF ATOMS
57
ITEM: BOX BOUNDS pp pp pp
0.0000000000000000e+00 3.2808000000000000e+01
0.0000000000000000e+00 1.7780000000000001e+01
0.0000000000000000e+00 2.4729999999999999e+00
ITEM: ATOMS id type x y z 
13 1 7.28873 0.646228 2.46426 
29 1 7.6376 1.29406 1.22776 
37 1 8.17098 2.64614 1.22775 
57 2 4.2173 1.05492 1.22778 
1 1 6.15611 17.4537 2.46427 
5 1 5.26458 17.817 1.22778 
9 1 3.71983 17.3959 1.22779 
16 1 6.79674 16.1362 2.46426 
32 1 7.39729 15.6938 1.22776 
40 1 8.16282 14.4484 1.22775 
45 1 3.27493 16.7871 2.46429 
49 1 1.86856 17.1494 2.46427 
53 1 1.19221 17.4833 1.22777 
4 1 10.9147 8.5308 2.46425 
8 1 11.7169 8.51693 1.22775 
12 1 13.1393 8.50717 1.22775 
18 1 9.97905 7.31994 2.46425 
21 1 8.37809 3.34949 2.46425 
26 1 8.73464 4.75958 2.46425 
34 1 9.54992 6.75967 1.22775 
42 1 8.92311 5.47927 1.22775 
48 1 13.9081 8.50798 2.46425 
52 1 15.3015 8.50812 2.46425 
56 1 16.0379 8.50792 1.22775 
19 1 9.97263 9.72072 2.46425 
24 1 8.38108 13.7283 2.46425 
27 1 8.7242 12.3171 2.46425 
35 1 9.54542 10.2873 1.22775 
43 1 8.90868 11.6021 1.22775 
3 1 22.6167 8.50808 2.46426 
7 1 21.8206 8.50804 1.22775 
11 1 20.394 8.508 1.22775 
20 1 23.566 7.30958 2.46425 
36 1 24.0038 6.75374 1.22775 
44 1 24.6244 5.48109 1.22775 
47 1 19.6264 8.50801 2.46425 
51 1 18.241 8.508 2.46425 
55 1 17.5032 8.50794 1.22775 
17 1 23.566 9.70651 2.46425 
33 1 24.0038 10.2623 1.22775 
41 1 24.6244 11.5352 1.22775 
15 1 26.423 0.788559 2.46425 
23 1 25.1476 3.34424 2.46425 
28 1 24.8082 4.76443 2.46425 
31 1 25.976 1.33431 1.22775 
39 1 25.3358 2.63642 1.22775 
2 1 27.4073 17.3985 2.46426 
6 1 28.2227 17.401 1.22776 
10 1 29.6257 17.3878 1.22775 
14 1 26.4249 16.2272 2.46425 
22 1 25.1476 13.6719 2.46425 
25 1 24.8083 12.2521 2.46425 
30 1 25.977 15.6824 1.22775 
38 1 25.3359 14.3798 1.22775 
46 1 30.3732 17.3698 2.46425 
50 1 31.822 17.4263 2.46425 
54 1 32.5555 17.526 1.22775 
ITEM: TIMESTEP
90
ITEM: NUMBER OF ATOMS
57
ITEM: BOX BOUNDS pp pp pp
0.0000000000000000e+00 3.2808000000000000e+01
0.0000000000000000e+00 1.7780000000000001e+01
0.0000000000000000e+00 2.4729999999999999e+00
ITEM: ATOMS id type x y z 
13 1 7.2911 0.639957 2.46426 
29 1 7.65166 1.28572 1.22776 
37 1 8.17626 2.63504 1.22775 
57 2 4.21048 1.05993 1.22778 
1 1 6.15283 17.4513 2.46427 
5 1 5.26984 17.8108 1.22777 
9 1 3.72891 17.3924 1.22779 
16 1 6.80381 16.1376 2.46426 
32 1 7.3876 15.6625 1.22776 
40 1 8.15776 14.4455 1.22775 
45 1 3.28155 16.7807 2.46429 
49 1 1.8809 17.1463 2.46427 
53 1 1.20178 17.4741 1.22777 
4 1 10.9031 8.5461 2.46425 
8 1 11.7144 8.52307 1.22775 
12 1 13.1223 8.50673 1.22775 
18 1 9.97559 7.32815 2.46425 
21 1 8.37895 3.34771 2.46425 
26 1 8.72361 4.74555 2.46425 
34 1 9.55105 6.77437 1.22775 
42 1 8.90545 5.4718 1.22775 
48 1 13.897 8.50753 2.46425 
52 1 15.3058 8.50805 2.46425 
56 1 16.0377 8.50793 1.22775 
19 1 9.96014 9.73557 2.46425 
24 1 8.383 13.7338 2.46425 
27 1 8.71908 12.3275 2.46425 
35 1 9.53866 10.3017 1.22775 
43 1 8.90666 11.6113 1.22775 
3 1 22.6186 8.50805 2.46425 
7 1 21.819 8.50804 1.22775 
11 1 20.3973 8.508 1.22775 
20 1 23.5693 7.30955 2.46425 
36 1 24.0103 6.75815 1.22775 
44 1 24.6382 5.48732 1.22775 
47 1 19.6274 8.50801 2.46425 
51 1 18.2402 8.508 2.46425 
55 1 17.5038 8.50794 1.22775 
17 1 23.5692 9.70649 2.46425 
33 1 24.0103 10.2578 1.22775 
41 1 24.6385 11.5293 1.22775 
15 1 26.4281 0.791294 2.46425 
23 1 25.1399 3.34635 2.46425 
28 1 24.8173 4.76078 2.46425 
31 1 25.9709 1.32531 1.22775 
39 1 25.3189 2.63219 1.22775 
2 1 27.4106 17.3986 2.46426 
6 1 28.2288 17.4011 1.22776 
10 1 29.6279 17.3849 1.22775 
14 1 26.4302 16.2242 2.46425 
22 1 25.1401 13.6703 2.46425 
25 1 24.8175 12.256 2.46425 
30 1 25.9722 15.691 1.22775 
38 1 25.3193 14.3843 1.22775 
46 1 30.3813 17.3685 2.46425 
50 1 31.8261 17.4336 2.46425 
54 1 32.5558 17.5322 1.22775 
ITEM: TIMESTEP
100
ITEM: NUMBER OF ATOMS
57
ITEM: BOX BOUNDS pp pp pp
0.0000000000000000e+00 3.2808000000000000e+01
0.0000000000000000e+00 1.7780000000000001e+01
0.0000000000000000e+00 2.4729999999999999e+00
ITEM: ATOMS id type x y z 
13 1 7.29912 0.634192 2.46426 
29 1 7.67537 1.27187 1.22776 
37 1 8.19049 2.62907 1.22775 
57 2 4.20086 1.05817 1.22778 
1 1 6.15282 17.4648 2.46427 
5 1 5.26681 17.8213 1.22777 
9 1 3.73178 17.3878 1.22778 
16 1 6.78485 16.139 2.46426 
32 1 7.36206 15.6604 1.22776 
40 1 8.16735 14.4593 1.22775 
45 1 3.29095 16.7699 2.46428 
49 1 1.89279 17.1433 2.46427 
53 1 1.20489 17.4556 1.22777 
4 1 10.8882 8.53943 2.46425 
8 1 11.7171 8.53051 1.22775 
12 1 13.1074 8.50619 1.22775 
18 1 9.96255 7.32907 2.46425 
21 1 8.37888 3.33805 2.46425 
26 1 8.71228 4.75349 2.46425 
34 1 9.53959 6.7678 1.22775 
42 1 8.89128 5.47399 1.22775 
48 1 13.8665 8.50616 2.46425 
52 1 15.3096 8.50785 2.46425 
56 1 16.0377 8.50799 1.22775 
19 1 9.94953 9.7398 2.46425 
24 1 8.39582 13.7417 2.46425 
27 1 8.71178 12.3349 2.46425 
35 1 9.52946 10.3022 1.22775 
43 1 8.88964 11.6086 1.22775 
3 1 22.6212 8.5078 2.46425 
7 1 21.8219 8.50803 1.22775 
11 1 20.4011 8.508 1.22775 
20 1 23.5728 7.31191 2.46425 
36 1 24.0195 6.77068 1.22775 
44 1 24.6722 5.47693 1.22775 
47 1 19.6315 8.50801 2.46425 
51 1 18.2406 8.50799 2.46425 
55 1 17.5022 8.50795 1.22775 
17 1 23.5727 9.70406 2.46425 
33 1 24.0194 10.2452 1.22775 
41 1 24.6728 11.5401 1.22775 
15 1 26.4334 0.791246 2.46425 
23 1 25.1297 3.33547 2.46425 
28 1 24.8345 4.74839 2.46425 
31 1 25.9671 1.31975 1.22775 
39 1 25.3017 2.61561 1.22775 
2 1 27.4133 17.3991 2.46425 
6 1 28.2304 17.4003 1.22775 
10 1 29.6308 17.3796 1.22775 
14 1 26.4358 16.2242 2.46425 
22 1 25.1298 13.6809 2.46425 
25 1 24.8348 12.2691 2.46425 
30 1 25.9691 15.6967 1.22775 
38 1 25.3023 14.4014 1.22775 
46 1 30.3842 17.3682 2.46425 
50 1 31.8277 17.4474 2.46425 
54 1 32.5641 17.5398 1.22776 
ITEM: TIMESTEP
110
ITEM: NUMBER OF ATOMS
57
ITEM: BOX BOUNDS pp pp pp
0.0000000000000000e+00 3.2808000000000000e+01
0.0000000000000000e+00 1.7780000000000001e+01
0.0000000000000000e+00 2.4729999999999999e+00
ITEM: ATOMS id type x y z 
13 1 7.31065 0.626698 2.46426 
29 1 7.7102 1.25585 1.22776 
37 1 8.21059 2.61334 1.22775 
57 2 4.18772 1.05794 1.22778 
1 1 6.15261 17.47 2.46427 
5 1 5.27663 17.8339 1.22777 
9 1 3.74347 17.3756 1.22778 
16 1 6.77149 16.1413 2.46426 
32 1 7.33029 15.6349 1.22776 
40 1 8.16608 14.4644 1.22775 
45 1 3.30429 16.7584 2.46428 
49 1 1.90342 17.135 2.46427 
53 1 1.21594 17.4278 1.22777 
4 1 10.8696 8.55045 2.46425 
8 1 11.6967 8.54015 1.22775 
12 1 13.0914 8.50738 1.22775 
18 1 9.94637 7.33521 2.46425 
21 1 8.38151 3.3333 2.46425 
26 1 8.69014 4.75134 2.46425 
34 1 9.53087 6.77311 1.22775 
42 1 8.8679 5.47118 1.22775 
48 1 13.8452 8.50286 2.46425 
52 1 15.2933 8.50712 2.46425 
56 1 16.0302 8.50816 1.22775 
19 1 9.93344 9.74595 2.46425 
24 1 8.41043 13.7506 2.46425 
27 1 8.7031 12.3446 2.46425 
35 1 9.5159 10.3153 1.22775 
43 1 8.87227 11.6251 1.22775 
3 1 22.6415 8.50823 2.46425 
7 1 21.8225 8.50825 1.22775 
11 1 20.4213 8.50798 1.22775 
20 1 23.5856 7.30911 2.46425 
36 1 24.0387 6.77068 1.22775 
44 1 24.7121 5.47729 1.22775 
47 1 19.6458 8.508 2.46425 
51 1 18.2243 8.50798 2.46425 
55 1 17.4796 8.50803 1.22775 
17 1 23.586 9.70783 2.46425 
33 1 24.0391 10.2465 1.22775 
41 1 24.7116 11.539 1.22775 
15 1 26.4383 0.795637 2.46425 
23 1 25.1105 3.32236 2.46425 
28 1 24.8562 4.74894 2.46425 
31 1 25.9611 1.31442 1.22775 
39 1 25.2712 2.59529 1.22775 
2 1 27.4172 17.3996 2.46425 
6 1 28.2399 17.3982 1.22775 
10 1 29.6365 17.3719 1.22775 
14 1 26.4409 16.2198 2.46425 
22 1 25.1108 13.6943 2.46425 
25 1 24.8564 12.2684 2.46425 
30 1 25.9639 15.7014 1.22775 
38 1 25.2724 14.4216 1.22775 
46 1 30.3925 17.3693 2.46425 
50 1 31.8363 17.4696 2.46426 
54 1 32.5703 17.5492 1.22776 
ITEM: TIMESTEP
120
ITEM: NUMBER OF ATOMS
57
ITEM: BOX BOUNDS pp pp pp
0.0000000000000000e+00 3.2808000000000000e+01
0.0000000000000000e+00 1.7780000000000001e+01
0.0000000000000000e+00 2.4729999999999999e+00
ITEM: ATOMS id type x y z 
13 1 7.31781 0.629126 2.46426 
29 1 7.7193 1.2513 1.22776 
37 1 8.2179 2.61272 1.22775 
57 2 4.18641 1.05491 1.22778 
1 1 6.15425 17.4761 2.46427 
5 1 5.2743 17.841 1.22777 
9 1 3.74789 17.3722 1.22778 
16 1 6.76489 16.1408 2.46426 
32 1 7.31787 15.6351 1.22776 
40 1 8.16726 14.4666 1.22775 
45 1 3.30524 16.7574 2.46428 
49 1 1.90575 17.1307 2.46427 
53 1 1.20984 17.4189 1.22777 
4 1 10.8676 8.54766 2.46425 
8 1 11.6926 8.54151 1.22775 
12 1 13.0897 8.50797 1.22775 
18 1 9.94044 7.33421 2.46425 
21 1 8.38302 3.33532 2.46425 
26 1 8.68345 4.75165 2.46425 
34 1 9.52619 6.76904 1.22775 
42 1 8.86553 5.47143 1.22775 
48 1 13.8469 8.50198 2.46425 
52 1 15.29 8.5066 2.46425 
56 1 16.0337 8.50819 1.22775 
19 1 9.92819 9.74703 2.46425 
24 1 8.41426 13.7601 2.46425 
27 1 8.70155 12.3446 2.46425 
35 1 9.51312 10.3144 1.22775 
43 1 8.86864 11.6212 1.22775 
3 1 22.645 8.50844 2.46425 
7 1 21.8226 8.50831 1.22775 
11 1 20.4235 8.50799 1.22775 
20 1 23.5917 7.31079 2.46425 
36 1 24.0379 6.76786 1.22775 
44 1 24.712 5.47575 1.22775 
47 1 19.6661 8.50798 2.46425 
51 1 18.2236 8.50799 2.46425 
55 1 17.4798 8.50812 1.22775 
17 1 23.592 9.70595 2.46425 
33 1 24.0381 10.2489 1.22775 
41 1 24.7118 11.5413 1.22775 
15 1 26.4375 0.793303 2.46425 
23 1 25.1049 3.32095 2.46425 
28 1 24.8626 4.74943 2.46425 
31 1 25.9642 1.3168 1.22775 
39 1 25.2682 2.59879 1.22775 
2 1 27.4167 17.3996 2.46425 
6 1 28.2352 17.3967 1.22775 
10 1 29.6358 17.3703 1.22775 
14 1 26.44 16.2223 2.46425 
22 1 25.1052 13.696 2.46425 
25 1 24.8625 12.2676 2.46425 
30 1 25.9673 15.6991 1.22775 
38 1 25.2694 14.418 1.22775 
46 1 30.3928 17.3721 2.46425 
50 1 31.8329 17.4766 2.46426 
54 1 32.5711 17.5492 1.22776 
ITEM: TIMESTEP
130
ITEM: NUMBER OF ATOMS
57
ITEM: BOX BOUNDS pp pp pp
0.0000000000000000e+00 3.2808000000000000e+01
0.0000000000000000e+00 1.7780000000000001e+01
0.0000000000000000e+00 2.4729999999999999e+00
ITEM: ATOMS id type x y z 
13 1 7.34305 0.629375 2.46426 
29 1 7.76811 1.23682 1.22776 
37 1 8.25301 2.60518 1.22776 
57 2 4.17692 1.04804 1.22778 
1 1 6.1676 17.4977 2.46427 
5 1 5.28254 17.864 1.22777 
9 1 3.7706 17.3539 1.22778 
16 1 6.74491 16.1443 2.46426 
32 1 7.26634 15.612 1.22776 
40 1 8.1562 14.4701 1.22776 
45 1 3.31557 16.7526 2.46428 
49 1 1.90611 17.1083 2.46427 
53 1 1.20199 17.37 1.22777 
4 1 10.8631 8.55135 2.46425 
8 1 11.6816 8.54707 1.22775 
12 1 13.0867 8.51163 1.22775 
18 1 9.92352 7.34386 2.46425 
21 1 8.38822 3.33237 2.46426 
26 1 8.65306 4.76088 2.46425 
34 1 9.5188 6.77363 1.22775 
42 1 8.84908 5.46887 1.22775 
48 1 13.8479 8.49932 2.46425 
52 1 15.2867 8.50371 2.46425 
56 1 16.0356 8.50796 1.22775 
19 1 9.91081 9.74589 2.46425 
24 1 8.42976 13.7755 2.46426 
27 1 8.69629 12.3512 2.46425 
35 1 9.50327 10.3187 1.22775 
43 1 8.85994 11.6276 1.22775 
3 1 22.6497 8.5086 2.46425 
7 1 21.8295 8.50851 1.22775 
11 1 20.4283 8.50805 1.22775 
20 1 23.6125 7.31946 2.46425 
36 1 24.0398 6.7623 1.22775 
44 1 24.7234 5.47496 1.22775 
47 1 19.669 8.50789 2.46425 
51 1 18.2275 8.50806 2.46425 
55 1 17.4793 8.5086 1.22775 
17 1 23.6126 9.6973 2.46425 
33 1 24.0399 10.2547 1.22775 
41 1 24.7232 11.5421 1.22775 
15 1 26.4322 0.795886 2.46425 
23 1 25.078 3.31594 2.46425 
28 1 24.89 4.75082 2.46425 
31 1 25.9719 1.32676 1.22775 
39 1 25.252 2.59274 1.22775 
2 1 27.414 17.4001 2.46425 
6 1 28.2325 17.3893 1.22775 
10 1 29.6331 17.3635 1.22775 
14 1 26.4332 16.2205 2.46425 
22 1 25.0785 13.7009 2.46425 
25 1 24.8897 12.2661 2.46425 
30 1 25.9751 15.6888 1.22775 
38 1 25.2534 14.4237 1.22775 
46 1 30.3899 17.3859 2.46425 
50 1 31.829 17.5111 2.46426 
54 1 32.5695 17.5517 1.22776 
ITEM: TIMESTEP
140
ITEM: NUMBER OF ATOMS
57
ITEM: BOX BOUNDS pp pp pp
0.0000000000000000e+00 3.2808000000000000e+01
0.0000000000000000e+00 1.7780000000000001e+01
0.0000000000000000e+00 2.4729999999999999e+00
ITEM: ATOMS id type x y z 
13 1 7.35453 0.634227 2.46426 
29 1 7.78349 1.23982 1.22776 
37 1 8.26442 2.6085 1.22776 
57 2 4.18159 1.04762 1.22778 
1 1 6.17938 17.5079 2.46427 
5 1 5.29342 17.8671 1.22777 
9 1 3.77976 17.3508 1.22777 
16 1 6.7425 16.1498 2.46426 
32 1 7.25065 15.6026 1.22776 
40 1 8.14097 14.4628 1.22776 
45 1 3.31761 16.753 2.46427 
49 1 1.90409 17.0898 2.46427 
53 1 1.19783 17.348 1.22777 
4 1 10.863 8.54902 2.46425 
8 1 11.6856 8.54669 1.22775 
12 1 13.0861 8.51268 1.22775 
18 1 9.92471 7.3453 2.46425 
21 1 8.39215 3.33611 2.46426 
26 1 8.64906 4.76441 2.46425 
34 1 9.52004 6.77588 1.22775 
42 1 8.85273 5.4776 1.22775 
48 1 13.845 8.50131 2.46425 
52 1 15.2856 8.50263 2.46425 
56 1 16.0325 8.5067 1.22775 
19 1 9.91262 9.74426 2.46425 
24 1 8.42503 13.7709 2.46426 
27 1 8.70208 12.3522 2.46425 
35 1 9.50463 10.3186 1.22775 
43 1 8.86999 11.6294 1.22775 
3 1 22.6462 8.50803 2.46425 
7 1 21.827 8.50837 1.22775 
11 1 20.4233 8.50805 1.22775 
20 1 23.6089 7.3193 2.46425 
36 1 24.0406 6.76624 1.22775 
44 1 24.7248 5.47571 1.22775 
47 1 19.6642 8.50791 2.46425 
51 1 18.2226 8.50831 2.46425 
55 1 17.4766 8.50874 1.22775 
17 1 23.6088 9.69723 2.46425 
33 1 24.0407 10.2503 1.22775 
41 1 24.7248 11.5407 1.22775 
15 1 26.4357 0.798112 2.46425 
23 1 25.0758 3.31624 2.46425 
28 1 24.8886 4.75363 2.46425 
31 1 25.9736 1.32971 1.22775 
39 1 25.2464 2.59508 1.22775 
2 1 27.4114 17.3996 2.46425 
6 1 28.2288 17.386 1.22775 
10 1 29.6308 17.3664 1.22775 
14 1 26.4348 16.219 2.46425 
22 1 25.076 13.7001 2.46425 
25 1 24.8884 12.2627 2.46425 
30 1 25.975 15.6862 1.22775 
38 1 25.247 14.421 1.22775 
46 1 30.3886 17.3956 2.46425 
50 1 31.8253 17.521 2.46426 
54 1 32.5683 17.551 1.22776 
ITEM: TIMESTEP
150
ITEM: NUMBER OF ATOMS
57
ITEM: BOX BOUNDS pp pp pp
0.0000000000000000e+00 3.2808000000000000e+01
0.0000000000000000e+00 1.7780000000000001e+01
0.0000000000000000e+00 2.4729999999999999e+00
ITEM: ATOMS id type x y z 
13 1 7.3693 0.632976 2.46426 
29 1 7.80394 1.23437 1.22776 
37 1 8.2808 2.60718 1.22776 
57 2 4.18722 1.05052 1.22778 
1 1 6.18126 17.5178 2.46427 
5 1 5.29798 17.874 1.22777 
9 1 3.78703 17.3477 1.22777 
16 1 6.73163 16.154 2.46426 
32 1 7.23217 15.6 1.22776 
40 1 8.1261 14.46 1.22776 
45 1 3.31759 16.757 2.46427 
49 1 1.89998 17.0675 2.46427 
53 1 1.18974 17.32 1.22777 
4 1 10.8626 8.55179 2.46425 
8 1 11.6837 8.54862 1.22775 
12 1 13.089 8.51392 1.22775 
18 1 9.92365 7.34476 2.46425 
21 1 8.39662 3.33264 2.46426 
26 1 8.64251 4.76937 2.46425 
34 1 9.51369 6.77619 1.22775 
42 1 8.84172 5.4819 1.22775 
48 1 13.8484 8.50173 2.46425 
52 1 15.2881 8.50162 2.46425 
56 1 16.036 8.50541 1.22775 
19 1 9.91172 9.74513 2.46425 
24 1 8.4205 13.7735 2.46426 
27 1 8.70874 12.3559 2.46425 
35 1 9.50266 10.3167 1.22775 
43 1 8.86884 11.6364 1.22775 
3 1 22.6504 8.50772 2.46425 
7 1 21.8269 8.5081 1.22775 
11 1 20.4279 8.50804 1.22775 
20 1 23.6086 7.31861 2.46425 
36 1 24.042 6.76397 1.22775 
44 1 24.7233 5.47538 1.22775 
47 1 19.669 8.50804 2.46425 
51 1 18.2274 8.50863 2.46425 
55 1 17.48 8.50867 1.22775 
17 1 23.6083 9.69712 2.46425 
33 1 24.0419 10.2519 1.22775 
41 1 24.7235 11.54 1.22775 
15 1 26.4345 0.800825 2.46425 
23 1 25.0737 3.31725 2.46425 