ITEM: TIMESTEP
0
ITEM: NUMBER OF ATOMS
161
ITEM: BOX BOUNDS xy xz yz pp pp pp
-6.7755000000000001e+00 1.3552000000000000e+01 -6.7755000000000001e+00
0.0000000000000000e+00 1.1735510246683001e+01 0.0000000000000000e+00
0.0000000000000000e+00 2.2149999999999999e+01 0.0000000000000000e+00
ITEM: ATOMS id type x y z 
8 1 -2.486 5.297 9.849 
87 1 3.001 4.231 10.696 
90 1 2.733 5.481 9.824 
109 1 -2.486 5.297 0.765 
158 1 2.733 5.481 0.79 
11 1 4.24 4.139 20.131 
14 1 3.031 4.094 19.728 
18 1 1.299 5.827 18.554 
33 1 2.266 4.151 20.924 
43 1 4.343 3.96 21.647 
47 1 3.32 5.732 17.88 
52 1 4.24 4.139 12.633 
76 1 2.552 4.924 14.209 
85 1 4.343 3.96 11.117 
89 1 3.32 5.732 14.883 
91 1 1.036 5.037 11.84 
102 1 3.031 4.094 13.035 
105 1 1.299 5.827 14.209 
114 1 2.266 4.151 11.84 
150 1 2.552 4.924 18.554 
156 1 3.001 4.231 22.068 
159 1 1.036 5.037 20.924 
5 1 -5.049 10.63 8.653 
9 1 -3.317 8.897 7.479 
19 1 -1.707 7.414 10.572 
21 1 -2.66 8.795 10.993 
23 1 -3.31 7.532 6.805 
25 1 -4.284 10.573 9.849 
32 1 1.503 6.367 0.79 
36 1 -1.869 7.426 9.056 
38 1 -2.209 6.086 8.653 
54 1 0.3 8.576 10.696 
57 1 1.291 8.001 9.824 
60 1 -1.707 7.414 0.042 
65 1 -3.31 7.532 3.808 
78 1 -1.869 7.426 1.558 
80 1 -2.566 8.842 1.961 
84 1 -4.57 9.799 3.135 
99 1 -3.054 9.687 0.765 
100 1 -2.96 6.142 3.135 
107 1 -5.049 10.63 1.961 
110 1 -3.317 8.897 3.135 
111 1 0.642 5.929 10.696 
113 1 1.503 6.367 9.824 
119 1 -4.284 10.573 0.765 
127 1 -2.209 6.086 1.961 
131 1 -2.318 6.148 10.993 
138 1 1.291 8.001 0.79 
142 1 -2.566 8.842 8.653 
145 1 -4.57 9.799 7.479 
151 1 -5.019 10.493 10.993 
154 1 -3.054 9.687 9.849 
155 1 -2.96 6.142 7.479 
161 2 -0.705 7.958 8.603 
12 1 2.53 7.1 17.202 
17 1 0.468 9.427 20.924 
24 1 -3.52 8.357 11.865 
27 1 -0.31 7.31 21.647 
29 1 0.642 5.929 22.068 
31 1 1.292 7.192 17.88 
44 1 -0.148 7.298 20.131 
46 1 0.191 8.638 19.728 
51 1 -0.31 7.31 11.117 
53 1 2.53 7.1 15.561 
56 1 1.292 7.192 14.883 
63 1 -2.318 6.148 21.771 
66 1 -3.309 6.723 20.899 
70 1 -0.148 7.298 12.633 
72 1 0.548 5.882 13.035 
92 1 0.942 8.582 14.209 
95 1 -5.019 10.493 21.771 
98 1 -4.751 9.243 20.899 
104 1 0.468 9.427 11.84 
116 1 -2.66 8.795 21.771 
118 1 -3.52 8.357 20.899 
122 1 0.191 8.638 13.035 
133 1 -3.309 6.723 11.865 
136 1 0.3 8.576 22.068 
147 1 0.548 5.882 19.728 
153 1 -4.751 9.243 11.865 
160 1 0.942 8.582 18.554 
1 1 7.976 4.694 10.572 
4 1 9.274 4.77 10.993 
20 1 8.034 4.861 9.056 
42 1 9.55 5.41 7.479 
67 1 10.043 4.578 0.765 
77 1 7.976 4.694 0.042 
94 1 8.035 4.861 1.558 
96 1 9.278 4.635 1.961 
121 1 4.688 5.417 10.696 
130 1 9.55 5.41 3.135 
134 1 10.043 4.578 9.849 
152 1 9.278 4.635 8.653 
45 1 4.688 5.417 22.068 
55 1 4.788 5.329 13.035 
106 1 9.274 4.77 21.771 
137 1 4.788 5.329 19.728 
2 1 7.294 10.585 9.056 
3 1 9.004 7.624 6.127 
6 1 8.556 6.347 6.805 
16 1 2.314 8.72 0.79 
22 1 7.166 6.156 8.653 
26 1 7.226 8.565 7.479 
35 1 7.191 10.764 10.572 
37 1 6.846 9.307 10.993 
39 1 8.214 8.992 6.805 
41 1 6.677 7.002 9.849 
48 1 3.775 6.213 0.79 
61 1 7.294 10.585 1.558 
62 1 9.004 7.624 4.487 
64 1 6.747 9.395 1.961 
68 1 7.437 6.931 3.135 
71 1 4.29 8.493 10.696 
74 1 3.567 7.818 9.824 
81 1 8.556 6.347 3.808 
83 1 6.47 8.606 0.765 
93 1 7.191 10.764 0.042 
97 1 8.214 8.992 3.808 
101 1 2.261 9.954 10.696 
103 1 2.314 8.72 9.824 
117 1 7.166 6.156 1.961 
120 1 7.226 8.565 3.135 
123 1 3.775 6.213 9.824 
129 1 6.677 7.002 0.765 
132 1 6.747 9.395 8.653 
135 1 7.437 6.931 7.479 
141 1 7.244 6.231 10.993 
144 1 6.47 8.606 9.849 
148 1 3.567 7.818 0.79 
7 1 9.22 6.004 11.865 
10 1 3.558 10.029 21.647 
13 1 2.261 9.954 22.068 
15 1 2.978 8.376 17.88 
28 1 3.5 9.862 20.131 
30 1 4.369 8.568 19.728 
34 1 4.308 6.159 18.554 
40 1 7.76 8.511 11.865 
49 1 4.857 7.722 20.924 
50 1 1.984 9.314 18.554 
58 1 1.491 10.146 11.84 
59 1 4.097 7.793 14.209 
69 1 3.558 10.029 11.117 
73 1 2.978 8.376 14.883 
75 1 5.064 6.118 11.84 
79 1 7.244 6.231 21.771 
82 1 7.967 6.906 20.899 
86 1 3.5 9.862 12.633 
88 1 2.256 10.089 13.035 
108 1 9.22 6.004 20.899 
112 1 4.369 8.568 13.035 
115 1 4.308 6.159 14.209 
124 1 4.857 7.722 11.84 
125 1 1.984 9.314 14.209 
126 1 6.846 9.307 21.771 
128 1 7.76 8.511 20.899 
139 1 1.491 10.146 20.924 
140 1 4.097 7.793 18.554 
143 1 7.967 6.906 11.865 
146 1 4.29 8.493 22.068 
149 1 5.064 6.118 20.924 
157 1 2.256 10.089 19.728 
ITEM: TIMESTEP
10
ITEM: NUMBER OF ATOMS
161
ITEM: BOX BOUNDS xy xz yz pp pp pp
-6.7755000000000001e+00 1.3552000000000000e+01 -6.7755000000000001e+00
0.0000000000000000e+00 1.1735510246683001e+01 0.0000000000000000e+00
0.0000000000000000e+00 2.2149999999999999e+01 0.0000000000000000e+00
ITEM: ATOMS id type x y z 
8 1 -2.4071 5.35625 9.81129 
87 1 2.96437 4.27184 10.6494 
90 1 2.66313 5.45141 9.78272 
109 1 -2.41067 5.36173 0.769649 
158 1 2.65657 5.45826 0.831845 
11 1 4.29314 4.19072 20.1418 
14 1 2.91511 4.12411 19.6959 
18 1 1.33419 5.83808 18.5864 
33 1 2.13892 4.23558 20.9047 
43 1 4.31769 4.121 21.5839 
47 1 3.25106 5.80675 17.8469 
52 1 4.29207 4.19203 12.6207 
76 1 2.43713 4.90768 14.1833 
85 1 4.32021 4.12119 11.1793 
89 1 3.25081 5.80659 14.916 
91 1 0.978987 5.1003 11.856 
102 1 2.91278 4.1238 13.0666 
105 1 1.32302 5.83387 14.1568 
114 1 2.13108 4.24423 11.8584 
150 1 2.43459 4.90764 18.5776 
156 1 2.96631 4.27097 22.1174 
159 1 0.992593 5.06611 20.9115 
5 1 -4.92114 10.597 8.59884 
9 1 -3.3085 8.87165 7.55281 
19 1 -1.77719 7.49242 10.686 
21 1 -2.60228 8.72766 10.9308 
23 1 -3.30573 7.55641 6.87721 
25 1 -4.1577 10.4974 9.83953 
32 1 1.5841 6.33618 0.782007 
36 1 -1.79863 7.55549 8.99153 
38 1 -2.20101 6.07538 8.62277 
54 1 0.304977 8.52154 10.6895 
57 1 1.34937 8.00113 9.78846 
60 1 -1.76765 7.51143 0.0506516 
65 1 -3.30645 7.5286 3.78716 
78 1 -1.90816 7.54097 1.56312 
80 1 -2.57251 8.79047 1.88797 
84 1 -4.45274 9.82334 3.10927 
99 1 -2.99641 9.61966 0.792058 
100 1 -2.92677 6.22922 3.16809 
107 1 -4.9276 10.6012 1.98564 
110 1 -3.35218 8.88606 3.08294 
111 1 0.600415 5.96572 10.7808 
113 1 1.57143 6.33301 9.8387 
119 1 -4.14556 10.4781 0.788418 
127 1 -2.1583 6.20401 1.96904 
131 1 -2.32905 6.21783 11.0035 
138 1 1.35485 7.99452 0.834222 
142 1 -2.6533 8.89923 8.69216 
145 1 -4.4624 9.77763 7.47682 
151 1 -4.98663 10.4501 11.0492 
154 1 -3.01334 9.62981 9.8257 
155 1 -2.93097 6.24168 7.45721 
161 2 -0.59717 7.96382 8.51913 
12 1 2.58787 7.06245 17.1128 
17 1 0.390447 9.36551 20.921 
24 1 -3.53602 8.37976 11.8499 
27 1 -0.266732 7.22791 21.6324 
29 1 0.590663 5.95883 21.9502 
31 1 1.29698 7.19618 17.9025 
44 1 -0.120628 7.21004 20.14 
46 1 0.134173 8.52029 19.7197 
51 1 -0.26394 7.2238 11.1286 
53 1 2.59104 7.06823 15.6451 
56 1 1.29937 7.20132 14.8646 
63 1 -2.31232 6.20555 21.7572 
66 1 -3.36564 6.72739 20.8556 
70 1 -0.0994292 7.1879 12.6338 
72 1 0.552044 5.93647 12.9631 
92 1 0.904936 8.48655 14.2497 
95 1 -4.97823 10.4487 21.7193 
98 1 -4.68585 9.27025 20.8649 
104 1 0.388357 9.36199 11.8432 
116 1 -2.60573 8.76167 21.8523 
118 1 -3.58201 8.39388 20.9018 
122 1 0.135202 8.51146 13.0429 
133 1 -3.37768 6.7603 11.9113 
136 1 0.293898 8.52504 22.0894 
147 1 0.54106 5.92884 19.8384 
153 1 -4.66629 9.206 11.8988 
160 1 0.908012 8.48444 18.5122 
1 1 7.86561 4.95312 10.5366 
4 1 9.19414 4.76564 11.0683 
20 1 7.86469 4.92509 9.06358 
42 1 9.4557 5.43033 7.43601 
67 1 9.98851 4.5475 0.77019 
77 1 7.88429 4.95361 0.0798511 
94 1 7.87302 4.926 1.54799 
96 1 9.21587 4.64829 2.00097 
121 1 4.69222 5.42367 10.7235 
130 1 9.46181 5.42513 3.17481 
134 1 9.98216 4.53486 9.83313 
152 1 9.21026 4.64607 8.60476 
45 1 4.69569 5.42502 22.0433 
55 1 4.81536 5.48784 13.0682 
106 1 9.18482 4.76622 21.7188 
137 1 4.81477 5.48627 19.6984 
2 1 7.22758 10.5315 9.08661 
3 1 8.97847 7.68933 6.07822 
6 1 8.54085 6.39106 6.82942 
16 1 2.33958 8.70816 0.832708 
22 1 7.14334 6.19582 8.70349 
26 1 7.1657 8.4412 7.5348 
35 1 7.2214 10.587 10.509 
37 1 6.8444 9.28506 11.0023 
39 1 8.24359 8.91367 6.75834 
41 1 6.73139 7.01524 9.83991 
48 1 3.73013 6.35967 0.846339 
61 1 7.24408 10.5383 1.54405 
62 1 8.95187 7.65005 4.58557 
64 1 6.71249 9.23759 1.99299 
68 1 7.40398 6.9707 3.06276 
71 1 4.28738 8.55286 10.7897 
74 1 3.64064 7.7909 9.84496 
81 1 8.5547 6.41054 3.77996 
83 1 6.54578 8.44903 0.790923 
93 1 7.21502 10.5974 0.101458 
97 1 8.28114 8.92104 3.83177 
101 1 2.35578 9.95568 10.6478 
103 1 2.34193 8.69965 9.77407 
117 1 7.14724 6.1901 1.90629 
120 1 7.17729 8.43129 3.06461 
123 1 3.72823 6.35785 9.76805 
129 1 6.72955 7.0254 0.771629 
132 1 6.70984 9.25402 8.63897 
135 1 7.40329 6.94522 7.55659 
141 1 7.26138 6.18235 10.9238 
144 1 6.54416 8.43987 9.81548 
148 1 3.6422 7.78841 0.769482 
7 1 9.19254 6.05515 11.9116 
10 1 3.64023 9.77282 21.6135 
13 1 2.35744 9.94256 22.1098 
15 1 2.98453 8.3145 17.9095 
28 1 3.66154 9.79095 20.1444 
30 1 4.38951 8.52427 19.7905 
34 1 4.35997 6.29588 18.6346 
40 1 7.73106 8.38057 11.8738 
49 1 4.79236 7.70265 20.9149 
50 1 2.07129 9.30074 18.5109 
58 1 1.5482 10.1854 11.8361 
59 1 4.12428 7.75314 14.1364 
69 1 3.64788 9.77595 11.1558 
73 1 2.97636 8.30516 14.8526 
75 1 4.98843 6.2859 11.8708 
79 1 7.25584 6.16211 21.8521 
82 1 7.89173 6.93416 20.9183 
86 1 3.66092 9.78775 12.6196 
88 1 2.33084 10.0814 13.0775 
108 1 9.19309 6.02622 20.8506 
112 1 4.3886 8.52725 12.9705 
115 1 4.35735 6.29586 14.129 
124 1 4.79161 7.70271 11.8471 
125 1 2.0777 9.29999 14.2571 
126 1 6.84114 9.29647 21.7955 
128 1 7.78495 8.37024 20.8482 
139 1 1.54955 10.1801 20.9338 
140 1 4.12764 7.75332 18.6306 
143 1 7.88428 6.9734 11.8358 
146 1 4.28481 8.55702 21.9766 
149 1 4.9878 6.28633 20.8901 
157 1 2.32588 10.0799 19.6858 
ITEM: TIMESTEP
20
ITEM: NUMBER OF ATOMS
161
ITEM: BOX BOUNDS xy xz yz pp pp pp
-6.7755000000000001e+00 1.3552000000000000e+01 -6.7755000000000001e+00
0.0000000000000000e+00 1.1735510246683001e+01 0.0000000000000000e+00
0.0000000000000000e+00 2.2149999999999999e+01 0.0000000000000000e+00
ITEM: ATOMS id type x y z 
8 1 -2.43373 5.3694 9.80917 
87 1 2.95341 4.27123 10.6587 
90 1 2.66362 5.44477 9.77557 
109 1 -2.42651 5.39548 0.778158 
158 1 2.64594 5.46136 0.83509 
11 1 4.2826 4.21556 20.1203 
14 1 2.90342 4.14435 19.6893 
18 1 1.29989 5.8596 18.5943 
33 1 2.12177 4.22602 20.9087 
43 1 4.29781 4.18277 21.5744 
47 1 3.26561 5.79577 17.8319 
52 1 4.27966 4.2204 12.639 
76 1 2.45285 4.92878 14.1799 
85 1 4.30281 4.17751 11.19 
89 1 3.26205 5.78464 14.9265 
91 1 0.963689 5.11236 11.8398 
102 1 2.89342 4.14636 13.0665 
105 1 1.29539 5.85246 14.1878 
114 1 2.10369 4.26177 11.8577 
150 1 2.43898 4.93478 18.5827 
156 1 2.96514 4.27114 22.1171 
159 1 0.97789 5.05003 20.9225 
5 1 -4.92155 10.57 8.59931 
9 1 -3.31547 8.88189 7.52039 
19 1 -1.76406 7.50125 10.662 
21 1 -2.59328 8.75134 10.9691 
23 1 -3.3045 7.56404 6.85945 
25 1 -4.13337 10.4847 9.84144 
32 1 1.61125 6.3713 0.747958 
36 1 -1.74701 7.55685 8.98812 
38 1 -2.19308 6.12033 8.62397 
54 1 0.323847 8.50873 10.6794 
57 1 1.36562 7.99028 9.80302 
60 1 -1.77368 7.53017 0.055809 
65 1 -3.30123 7.54071 3.78152 
78 1 -1.88673 7.55455 1.55406 
80 1 -2.5522 8.78738 1.89506 
84 1 -4.46829 9.7917 3.10628 
99 1 -2.97914 9.60775 0.767453 
100 1 -2.93456 6.27666 3.17118 
107 1 -4.91489 10.5784 1.99075 
110 1 -3.311 8.8701 3.10443 
111 1 0.61616 5.97201 10.7393 
113 1 1.60801 6.36185 9.84983 
119 1 -4.11859 10.4612 0.784552 
127 1 -2.1643 6.2249 1.97368 
131 1 -2.35616 6.2271 11.0116 
138 1 1.37252 7.9661 0.815028 
142 1 -2.62442 8.89694 8.70285 
145 1 -4.46862 9.76495 7.48336 
151 1 -4.97811 10.4128 11.0497 
154 1 -3.00202 9.63732 9.85978 
155 1 -2.93516 6.25471 7.46933 
161 2 -0.550292 7.95245 8.48734 
12 1 2.56702 7.06971 17.1601 
17 1 0.408419 9.33599 20.9184 
24 1 -3.52871 8.3498 11.8524 
27 1 -0.273071 7.23257 21.6249 
29 1 0.615918 5.96714 21.9619 
31 1 1.2818 7.17217 17.9105 
44 1 -0.151441 7.19805 20.1509 
46 1 0.140667 8.51274 19.7078 
51 1 -0.257181 7.2006 11.1316 
53 1 2.56049 7.0674 15.6155 
56 1 1.28428 7.18253 14.8583 
63 1 -2.33571 6.22542 21.7483 
66 1 -3.37814 6.73699 20.8728 
70 1 -0.124369 7.16828 12.6349 
72 1 0.529077 5.93552 12.9618 
92 1 0.916489 8.45316 14.2483 
95 1 -4.9744 10.4531 21.7361 
98 1 -4.687 9.27553 20.8485 
104 1 0.408985 9.33327 11.8594 
116 1 -2.63112 8.754 21.8128 
118 1 -3.63057 8.3669 20.9189 
122 1 0.145881 8.50076 13.05 
133 1 -3.39137 6.77337 11.8966 
136 1 0.318042 8.51091 22.0979 
147 1 0.528598 5.93502 19.8575 
153 1 -4.66027 9.21445 11.8985 
160 1 0.919502 8.45072 18.5168 
1 1 7.85916 4.93748 10.5375 
4 1 9.16735 4.81666 11.017 
20 1 7.84793 4.9287 9.06635 
42 1 9.43627 5.43616 7.44677 
67 1 9.96602 4.57049 0.781413 
77 1 7.866 4.93318 0.0866313 
94 1 7.85655 4.93133 1.56287 
96 1 9.1829 4.67773 1.98211 
121 1 4.65941 5.48059 10.6968 
130 1 9.4503 5.44416 3.16949 
134 1 9.94232 4.56561 9.83933 
152 1 9.17791 4.67322 8.62884 
45 1 4.66469 5.48114 22.0719 
55 1 4.81719 5.49786 13.0628 
106 1 9.17024 4.79233 21.7461 
137 1 4.81727 5.5006 19.6996 
2 1 7.26165 10.5002 9.06777 
3 1 8.98947 7.67075 6.10659 
6 1 8.53475 6.40287 6.81493 
16 1 2.3539 8.68787 0.849215 
22 1 7.11433 6.18182 8.70805 
26 1 7.17864 8.41992 7.53829 
35 1 7.24107 10.547 10.5006 
37 1 6.83884 9.25046 11.0181 
39 1 8.2241 8.93203 6.73865 
41 1 6.71771 6.98631 9.8324 
48 1 3.69228 6.34405 0.826872 
61 1 7.26066 10.5092 1.55967 
62 1 8.97667 7.64626 4.55512 
64 1 6.7131 9.22459 1.99234 
68 1 7.39826 6.95946 3.06825 
71 1 4.31329 8.52939 10.7605 
74 1 3.59316 7.79256 9.81264 
81 1 8.52257 6.39645 3.79367 
83 1 6.54257 8.43467 0.781167 
93 1 7.23385 10.5432 0.116546 
97 1 8.26882 8.93257 3.85103 
101 1 2.36865 9.93017 10.6691 
103 1 2.36134 8.69493 9.76301 
117 1 7.11894 6.18593 1.89906 
120 1 7.1961 8.42881 3.07584 
123 1 3.68965 6.34386 9.78963 
129 1 6.71993 6.9996 0.7761 
132 1 6.71175 9.22846 8.61344 
135 1 7.38366 6.95514 7.54787 
141 1 7.23117 6.20092 10.9321 
144 1 6.53296 8.42184 9.8134 
148 1 3.59331 7.79353 0.801126 
7 1 9.16683 6.05771 11.9078 
10 1 3.67213 9.79359 21.5992 
13 1 2.3675 9.92697 22.0973 
15 1 3.01463 8.32813 17.8942 
28 1 3.68705 9.78411 20.1373 
30 1 4.41653 8.54012 19.789 
34 1 4.33875 6.29362 18.6155 
40 1 7.72398 8.39292 11.8867 
49 1 4.81063 7.72993 20.9105 
50 1 2.07661 9.2738 18.5126 
58 1 1.56298 10.1601 11.8452 
59 1 4.13366 7.76494 14.1349 
69 1 3.67357 9.79437 11.1667 
73 1 3.02291 8.33634 14.8607 
75 1 4.99277 6.28975 11.862 
79 1 7.22396 6.1978 21.8287 
82 1 7.94199 6.9331 20.8952 
86 1 3.68883 9.78175 12.6256 
88 1 2.3553 10.0557 13.0693 
108 1 9.1675 6.03467 20.8377 
112 1 4.41308 8.53593 12.9761 
115 1 4.33977 6.30244 14.1462 
124 1 4.81031 7.72843 11.8554 
125 1 2.07522 9.2785 14.2491 
126 1 6.87492 9.24138 21.776 
128 1 7.85009 8.36854 20.8629 
139 1 1.56102 10.1584 20.9184 
140 1 4.13562 7.76697 18.6229 
143 1 7.92303 6.94921 11.8675 
146 1 4.31548 8.52984 22.0059 
149 1 4.99265 6.29058 20.8989 
157 1 2.35316 10.0552 19.6967 
ITEM: TIMESTEP
30
ITEM: NUMBER OF ATOMS
161
ITEM: BOX BOUNDS xy xz yz pp pp pp
-6.7755000000000001e+00 1.3552000000000000e+01 -6.7755000000000001e+00
0.0000000000000000e+00 1.1735510246683001e+01 0.0000000000000000e+00
0.0000000000000000e+00 2.2149999999999999e+01 0.0000000000000000e+00
ITEM: ATOMS id type x y z 
8 1 -2.4354 5.39286 9.80536 
87 1 2.95168 4.28056 10.6558 
90 1 2.65083 5.4387 9.76885 
109 1 -2.43468 5.41407 0.77996 
158 1 2.63691 5.45294 0.836761 
11 1 4.27764 4.22997 20.1164 
14 1 2.89364 4.15072 19.6991 
18 1 1.3069 5.86331 18.6002 
33 1 2.11223 4.22023 20.905 
43 1 4.28942 4.21784 21.5611 
47 1 3.24589 5.79995 17.827 
52 1 4.27111 4.23391 12.6436 
76 1 2.43949 4.92963 14.1819 
85 1 4.29268 4.20489 11.2012 
89 1 3.24755 5.79852 14.9352 
91 1 0.953073 5.12314 11.8383 
102 1 2.88094 4.15548 13.056 
105 1 1.29485 5.84755 14.1929 
114 1 2.08731 4.2723 11.8614 
150 1 2.4229 4.93886 18.5851 
156 1 2.96286 4.27762 22.1227 
159 1 0.963819 5.04717 20.9215 
5 1 -4.90225 10.5472 8.61827 
9 1 -3.29657 8.87429 7.53184 
19 1 -1.75988 7.50905 10.6541 
21 1 -2.57192 8.75361 10.9703 
23 1 -3.2973 7.56715 6.8668 
25 1 -4.13063 10.4726 9.83097 
32 1 1.60374 6.38822 0.751933 
36 1 -1.72755 7.58119 8.98055 
38 1 -2.19113 6.13858 8.62647 
54 1 0.328428 8.49845 10.6835 
57 1 1.37419 7.98524 9.80298 
60 1 -1.77082 7.539 0.0555533 
65 1 -3.30094 7.54531 3.79669 
78 1 -1.87456 7.56767 1.55237 
80 1 -2.53821 8.79454 1.89718 
84 1 -4.45922 9.79033 3.10742 
99 1 -2.97107 9.60008 0.767868 
100 1 -2.93921 6.2816 3.17121 
107 1 -4.89888 10.5672 1.98335 
110 1 -3.31088 8.87692 3.11545 
111 1 0.605043 5.96501 10.7293 
113 1 1.60094 6.37459 9.8373 
119 1 -4.10433 10.4502 0.787326 
127 1 -2.15822 6.24093 1.97302 
131 1 -2.3562 6.24292 11.0018 
138 1 1.37806 7.95497 0.81209 
142 1 -2.62066 8.89464 8.71013 
145 1 -4.47293 9.76449 7.48044 
151 1 -4.97426 10.3915 11.0397 
154 1 -2.98449 9.62598 9.85357 
155 1 -2.93937 6.27025 7.47403 
161 2 -0.51677 7.9451 8.46477 
12 1 2.56566 7.06828 17.1521 
17 1 0.417234 9.32085 20.9153 
24 1 -3.52712 8.34887 11.8638 
27 1 -0.276402 7.22946 21.6271 
29 1 0.602532 5.96434 21.9554 
31 1 1.28166 7.16786 17.9126 
44 1 -0.168096 7.18905 20.1471 
46 1 0.134975 8.5 19.7119 
51 1 -0.257016 7.19256 11.1332 
53 1 2.56447 7.0743 15.6123 
56 1 1.28261 7.18099 14.8673 
63 1 -2.33947 6.23326 21.7502 
66 1 -3.38845 6.74186 20.8702 
70 1 -0.137782 7.1563 12.6327 
72 1 0.520605 5.9275 12.9717 
92 1 0.920368 8.44433 14.2493 
95 1 -4.96931 10.4422 21.732 
98 1 -4.67155 9.28369 20.8423 
104 1 0.418943 9.31703 11.8608 
116 1 -2.6237 8.76327 21.7988 
118 1 -3.61873 8.35337 20.9063 
122 1 0.140795 8.48439 13.052 
133 1 -3.39886 6.7797 11.8994 
136 1 0.322603 8.50148 22.0968 
147 1 0.522732 5.93296 19.858 
153 1 -4.66863 9.19655 11.9072 
160 1 0.920122 8.44322 18.5179 
1 1 7.8286 4.93717 10.535 
4 1 9.1436 4.83224 11.0177 
20 1 7.8163 4.93839 9.07115 
42 1 9.43638 5.45192 7.44208 
67 1 9.96452 4.58319 0.772326 
77 1 7.84207 4.93464 0.0919927 
94 1 7.82621 4.94204 1.55134 
96 1 9.16122 4.68654 1.99844 
121 1 4.64554 5.50192 10.6905 
130 1 9.44753 5.46108 3.17204 
134 1 9.93826 4.57365 9.84542 
152 1 9.148 4.67637 8.61604 
45 1 4.65036 5.50477 22.0771 
55 1 4.81772 5.52222 13.065 
106 1 9.14705 4.80942 21.7579 
137 1 4.81823 5.52407 19.6982 
2 1 7.27277 10.4824 9.05141 
3 1 8.98092 7.68903 6.10365 
6 1 8.51764 6.40518 6.81741 
16 1 2.36398 8.69291 0.85714 
22 1 7.09669 6.17466 8.69779 
26 1 7.18068 8.40949 7.52265 
35 1 7.24674 10.525 10.502 
37 1 6.84808 9.22122 11.0167 
39 1 8.22666 8.92152 6.73619 
41 1 6.70427 6.98957 9.83067 
48 1 3.69979 6.3496 0.832299 
61 1 7.26295 10.4912 1.57032 
62 1 8.97609 7.64596 4.5484 
64 1 6.71737 9.20285 1.9902 
68 1 7.38625 6.9606 3.06188 
71 1 4.31799 8.52042 10.7452 
74 1 3.59467 7.80023 9.80613 
81 1 8.51024 6.3988 3.8072 
83 1 6.54356 8.41452 0.79324 
93 1 7.24408 10.5167 0.128383 
97 1 8.2881 8.91762 3.86157 
101 1 2.38941 9.91663 10.6826 
103 1 2.36763 8.69924 9.75301 
117 1 7.10216 6.18242 1.90945 
120 1 7.19859 8.41431 3.07636 
123 1 3.70151 6.34997 9.7821 
129 1 6.70948 6.9898 0.777482 
132 1 6.70974 9.20227 8.62978 
135 1 7.38137 6.94236 7.54659 
141 1 7.21773 6.20967 10.9383 
144 1 6.53575 8.40911 9.80625 
148 1 3.59355 7.8017 0.809319 
7 1 9.15405 6.06315 11.914 
10 1 3.69422 9.79128 21.5987 
13 1 2.3887 9.90986 22.0859 
15 1 3.01931 8.32655 17.888 
28 1 3.70649 9.78106 20.1398 
30 1 4.43631 8.54288 19.7782 
34 1 4.33573 6.31161 18.6126 
40 1 7.73588 8.38678 11.8914 
49 1 4.82278 7.73543 20.9112 
50 1 2.08416 9.26528 18.5179 
58 1 1.57408 10.1453 11.8484 
59 1 4.14759 7.76402 14.1362 
69 1 3.69631 9.7921 11.1648 
73 1 3.02334 8.32993 14.8758 
75 1 4.99176 6.30956 11.8669 
79 1 7.21504 6.20224 21.8215 
82 1 7.93994 6.92447 20.8823 
86 1 3.70802 9.78146 12.6247 
88 1 2.37493 10.0412 13.0728 
108 1 9.16808 6.02683 20.8278 
112 1 4.43485 8.54247 12.9835 
115 1 4.33513 6.31016 14.1506 
124 1 4.82267 7.73343 11.8511 
125 1 2.08445 9.26748 14.2464 
126 1 6.88925 9.22028 21.7655 
128 1 7.83141 8.37091 20.8551 
139 1 1.57394 10.145 20.9175 
140 1 4.14745 7.76378 18.626 
143 1 7.91443 6.95877 11.8803 
146 1 4.32148 8.52232 22.0192 
149 1 4.99029 6.31168 20.8973 
157 1 2.3739 10.0395 19.6915 
ITEM: TIMESTEP
40
ITEM: NUMBER OF ATOMS
161
ITEM: BOX BOUNDS xy xz yz pp pp pp
-6.7755000000000001e+00 1.3552000000000000e+01 -6.7755000000000001e+00
0.0000000000000000e+00 1.1735510246683001e+01 0.0000000000000000e+00
0.0000000000000000e+00 2.2149999999999999e+01 0.0000000000000000e+00
ITEM: ATOMS id type x y z 
8 1 -2.47518 5.44893 9.79389 
87 1 2.93069 4.31631 10.6472 
90 1 2.62367 5.45014 9.73695 
109 1 -2.46606 5.46847 0.790228 
158 1 2.60915 5.46434 0.853612 
11 1 4.26057 4.28886 20.0925 
14 1 2.8635 4.17403 19.7118 
18 1 1.28528 5.86813 18.6094 
33 1 2.08027 4.21892 20.9154 
43 1 4.26179 4.29799 21.5299 
47 1 3.22666 5.79811 17.8265 
52 1 4.24758 4.28788 12.6676 
76 1 2.40399 4.93404 14.1968 
85 1 4.2534 4.28862 11.2321 
89 1 3.22964 5.80032 14.9376 
91 1 0.914154 5.14225 11.8291 
102 1 2.84437 4.19153 13.0464 
105 1 1.26612 5.84644 14.216 
114 1 2.05796 4.29943 11.8516 
150 1 2.39577 4.94493 18.5868 
156 1 2.94476 4.30826 22.126 
159 1 0.926121 5.03474 20.9311 
5 1 -4.87151 10.4897 8.62882 
9 1 -3.2693 8.87673 7.54122 
19 1 -1.7391 7.54105 10.6264 
21 1 -2.52135 8.76117 10.9963 
23 1 -3.30083 7.57454 6.86928 
25 1 -4.09326 10.4366 9.83948 
32 1 1.5815 6.40036 0.759366 
36 1 -1.634 7.62466 8.94631 
38 1 -2.18361 6.20236 8.63327 
54 1 0.354548 8.46727 10.6923 
57 1 1.39826 7.98134 9.79421 
60 1 -1.77425 7.5771 0.0430353 
65 1 -3.30069 7.5413 3.80835 
78 1 -1.83691 7.60964 1.55825 
80 1 -2.49106 8.81667 1.91879 
84 1 -4.42166 9.78075 3.12325 
99 1 -2.93295 9.58209 0.754473 
100 1 -2.94064 6.30209 3.16454 
107 1 -4.86275 10.5292 1.97551 
110 1 -3.27975 8.87694 3.14061 
111 1 0.577197 5.95794 10.7008 
113 1 1.58247 6.38577 9.80283 
119 1 -4.07804 10.4254 0.780556 
127 1 -2.14678 6.28829 1.97406 
131 1 -2.37419 6.28923 10.9856 
138 1 1.39803 7.94372 0.81195 
142 1 -2.57222 8.89097 8.71593 
145 1 -4.44978 9.74174 7.46997 
151 1 -4.95617 10.3302 11.0268 
154 1 -2.92695 9.61298 9.86739 
155 1 -2.94645 6.29902 7.49494 
161 2 -0.423842 7.91249 8.3996 
12 1 2.56794 7.05548 17.15 
17 1 0.449412 9.27691 20.9095 
24 1 -3.49783 8.34202 11.8898 
27 1 -0.284777 7.20627 21.6254 
29 1 0.567004 5.95209 21.9575 
31 1 1.28155 7.17251 17.9142 
44 1 -0.221329 7.16025 20.1406 
46 1 0.117587 8.46446 19.7145 
51 1 -0.253574 7.15868 11.1278 
53 1 2.57756 7.06209 15.6235 
56 1 1.28402 7.18558 14.8777 
63 1 -2.36448 6.26626 21.755 
66 1 -3.41028 6.746 20.8579 
70 1 -0.176641 7.1163 12.6434 
72 1 0.47601 5.90561 12.9957 
92 1 0.920078 8.4279 14.2451 
95 1 -4.94783 10.4104 21.7246 
98 1 -4.64341 9.28323 20.8068 
104 1 0.451457 9.26521 11.8733 
116 1 -2.60049 8.76958 21.7738 
118 1 -3.61221 8.33449 20.8697 
122 1 0.126497 8.43906 13.0543 
133 1 -3.41527 6.79598 11.9016 
136 1 0.34328 8.47424 22.0913 
147 1 0.477729 5.9162 19.8605 
153 1 -4.64938 9.16648 11.9363 
160 1 0.916915 8.43334 18.5283 
1 1 7.73617 4.93049 10.5385 
4 1 9.08168 4.88835 10.997 
20 1 7.73998 4.94092 9.07019 
42 1 9.41783 5.48397 7.45965 
67 1 9.92377 4.64134 0.792318 
77 1 7.76008 4.93197 0.087223 
94 1 7.75701 4.95051 1.55397 
96 1 9.10037 4.72739 2.00098 
121 1 4.61564 5.55468 10.6821 
130 1 9.42754 5.49215 3.16574 
134 1 9.89404 4.63336 9.83093 
152 1 9.08282 4.71234 8.61967 
45 1 4.61756 5.56503 22.0868 
55 1 4.81092 5.57112 13.0703 
106 1 9.0935 4.85007 21.7808 
137 1 4.81562 5.57674 19.6905 
2 1 7.29461 10.4199 9.03556 
3 1 8.96875 7.71594 6.10507 
6 1 8.50899 6.41684 6.81319 
16 1 2.38623 8.69707 0.875633 
22 1 7.0177 6.1473 8.66889 
26 1 7.16455 8.37926 7.48993 
35 1 7.26331 10.4578 10.4823 
37 1 6.8589 9.16853 11.0185 
39 1 8.22171 8.91917 6.7235 
41 1 6.65474 6.95103 9.82507 
48 1 3.67403 6.36795 0.87098 
61 1 7.28668 10.4353 1.59529 
62 1 8.96359 7.6594 4.56911 
64 1 6.72445 9.15193 1.99836 
68 1 7.36117 6.94203 3.08195 
71 1 4.34381 8.51433 10.7175 
74 1 3.61018 7.81281 9.76835 
81 1 8.4995 6.40693 3.81948 
83 1 6.54461 8.37181 0.794032 
93 1 7.28076 10.4324 0.158773 
97 1 8.30913 8.91067 3.8698 
101 1 2.4434 9.87736 10.7054 
103 1 2.38848 8.7097 9.73052 
117 1 7.02685 6.1604 1.9395 
120 1 7.20252 8.38352 3.10164 
123 1 3.67972 6.36432 9.74157 
129 1 6.6683 6.94776 0.778954 
132 1 6.71526 9.15231 8.61853 
135 1 7.35166 6.91816 7.52626 
141 1 7.17678 6.21685 10.9626 
144 1 6.51737 8.36961 9.8064 
148 1 3.61197 7.81993 0.849912 
7 1 9.12457 6.07537 11.925 
10 1 3.77804 9.79024 21.6038 
13 1 2.44485 9.8677 22.0695 
15 1 3.03271 8.31888 17.88 
28 1 3.77951 9.77578 20.1343 
30 1 4.50938 8.56682 19.7504 
34 1 4.32978 6.33789 18.5857 
40 1 7.73963 8.36657 11.928 
49 1 4.86985 7.77918 20.9106 
50 1 2.10355 9.23909 18.5261 
58 1 1.61442 10.0902 11.8662 
59 1 4.17451 7.78257 14.1541 
69 1 3.77963 9.79827 11.1586 
73 1 3.03581 8.32562 14.8852 
75 1 4.99503 6.35107 11.8672 
79 1 7.18689 6.20718 21.7921 
82 1 7.92701 6.90674 20.8459 
86 1 3.7788 9.77357 12.6276 
88 1 2.4375 10.0028 13.0753 
108 1 9.14987 6.01438 20.8033 
112 1 4.5083 8.56516 13.0125 
115 1 4.33273 6.33911 14.1754 
124 1 4.86453 7.7741 11.851 
125 1 2.10635 9.24199 14.2401 
126 1 6.92335 9.16717 21.7589 
128 1 7.86116 8.35787 20.8171 
139 1 1.6175 10.091 20.9026 
140 1 4.1747 7.78383 18.6083 
143 1 7.8749 6.9448 11.9234 
146 1 4.35317 8.52164 22.0471 
149 1 4.99234 6.35626 20.8967 
157 1 2.43565 9.99976 19.6919 
ITEM: TIMESTEP
50
ITEM: NUMBER OF ATOMS
161
ITEM: BOX BOUNDS xy xz yz pp pp pp
-6.7755000000000001e+00 1.3552000000000000e+01 -6.7755000000000001e+00
0.0000000000000000e+00 1.1735510246683001e+01 0.0000000000000000e+00
0.0000000000000000e+00 2.2149999999999999e+01 0.0000000000000000e+00
ITEM: ATOMS id type x y z 
8 1 -2.48158 5.45751 9.79222 
87 1 2.92605 4.32226 10.6462 
90 1 2.62193 5.45292 9.72809 
109 1 -2.47252 5.47625 0.792235 
158 1 2.60787 5.46764 0.859593 
11 1 4.25503 4.29842 20.0913 
14 1 2.86047 4.17463 19.7122 
18 1 1.28244 5.87194 18.6115 
33 1 2.07828 4.22007 20.918 
43 1 4.25708 4.30382 21.5301 
47 1 3.22492 5.79606 17.8315 
52 1 4.24103 4.29693 12.6698 
76 1 2.39784 4.93247 14.1983 
85 1 4.24763 4.29386 11.2344 
89 1 3.2279 5.79774 14.9333 
91 1 0.906534 5.14189 11.8297 
102 1 2.83996 4.19378 13.0474 
105 1 1.26105 5.84839 14.216 
114 1 2.05516 4.30361 11.849 
150 1 2.3892 4.94342 18.5869 
156 1 2.94227 4.31381 22.1258 
159 1 0.916877 5.03072 20.9312 
5 1 -4.86476 10.4861 8.62938 
9 1 -3.26176 8.87583 7.5444 
19 1 -1.73474 7.54552 10.6218 
21 1 -2.51763 8.76365 10.9982 
23 1 -3.3012 7.57561 6.87056 
25 1 -4.08925 10.4276 9.8389 
32 1 1.5755 6.39876 0.759693 
36 1 -1.62418 7.62786 8.94168 
38 1 -2.18075 6.20758 8.63379 
54 1 0.36206 8.46258 10.6911 
57 1 1.40145 7.98185 9.79086 
60 1 -1.77203 7.57743 0.0494896 
65 1 -3.29969 7.54316 3.81054 
78 1 -1.83058 7.61506 1.55754 
80 1 -2.48757 8.82205 1.92078 
84 1 -4.41565 9.78383 3.12489 
99 1 -2.92664 9.58365 0.757986 
100 1 -2.93894 6.30063 3.16456 
107 1 -4.85852 10.5268 1.97678 
110 1 -3.27524 8.87484 3.14053 
111 1 0.577203 5.95732 10.6994 
113 1 1.57617 6.38577 9.79799 
119 1 -4.07424 10.4212 0.777391 
127 1 -2.14576 6.29295 1.97375 
131 1 -2.37968 6.29558 10.9855 
138 1 1.40009 7.94469 0.814154 
142 1 -2.55896 8.89418 8.71417 
145 1 -4.44744 9.73815 7.46895 
151 1 -4.95272 10.3259 11.0315 
154 1 -2.91599 9.61223 9.86837 
155 1 -2.94653 6.29876 7.49623 
161 2 -0.408269 7.90786 8.38939 
12 1 2.56915 7.05232 17.153 
17 1 0.454914 9.27084 20.9067 
24 1 -3.49093 8.33999 11.8938 
27 1 -0.288791 7.20378 21.621 
29 1 0.564599 5.94964 21.958 
31 1 1.2819 7.17272 17.9167 
44 1 -0.227112 7.15633 20.1398 
46 1 0.114779 8.46233 19.7152 
51 1 -0.254372 7.15523 11.133 
53 1 2.57717 7.06218 15.6205 
56 1 1.28438 7.18458 14.8787 
63 1 -2.37095 6.27237 21.7544 
66 1 -3.41355 6.74566 20.8538 
70 1 -0.183112 7.11076 12.6439 
72 1 0.471398 5.90174 12.9969 
92 1 0.919874 8.4303 14.2446 
95 1 -4.94339 10.4009 21.7219 
98 1 -4.6427 9.27268 20.8006 
104 1 0.457437 9.25737 11.8763 
116 1 -2.59944 8.77188 21.7694 
118 1 -3.59682 8.33973 20.8637 
122 1 0.126248 8.43545 13.0554 
133 1 -3.41654 6.7995 11.9024 
136 1 0.348303 8.46953 22.093 
147 1 0.47142 5.91184 19.8607 
153 1 -4.64917 9.15886 11.939 
160 1 0.914903 8.43655 18.5292 
1 1 7.72092 4.91233 10.5414 
4 1 9.07258 4.89694 10.9936 
20 1 7.73269 4.94451 9.06848 
42 1 9.41475 5.48495 7.46263 
67 1 9.91575 4.65181 0.791262 
77 1 7.74623 4.91464 0.0848988 
94 1 7.7483 4.95269 1.55946 
96 1 9.08785 4.73259 2.00115 
121 1 4.60926 5.56278 10.6826 
130 1 9.4248 5.49375 3.16538 
134 1 9.88408 4.64551 9.83357 
152 1 9.06881 4.71706 8.62048 
45 1 4.61246 5.57271 22.0852 
55 1 4.81086 5.57766 13.0741 
106 1 9.0888 4.85551 21.7822 
137 1 4.81498 5.58346 19.6883 
2 1 7.29604 10.4136 9.035 
3 1 8.9656 7.71972 6.10844 
6 1 8.50707 6.41947 6.81526 
16 1 2.39259 8.69593 0.876424 
22 1 7.0072 6.14217 8.66347 
26 1 7.16059 8.3753 7.48549 
35 1 7.27173 10.4448 10.4806 
37 1 6.8599 9.16332 11.021 
39 1 8.21857 8.92338 6.729 
41 1 6.64655 6.94593 9.8242 
48 1 3.6685 6.37154 0.876554 
61 1 7.2929 10.4265 1.59679 
62 1 8.96582 7.65752 4.56287 
64 1 6.72444 9.14486 2.00171 
68 1 7.35505 6.93537 3.08543 
71 1 4.35295 8.50886 10.7166 
74 1 3.61361 7.81762 9.76302 
81 1 8.49436 6.40736 3.8202 
83 1 6.54487 8.36733 0.794496 
93 1 7.28859 10.4282 0.16126 
97 1 8.31205 8.9146 3.8644 
101 1 2.4497 9.86985 10.7076 
103 1 2.39427 8.71076 9.73012 
117 1 7.01754 6.15469 1.94346 
120 1 7.20422 8.3811 3.10588 
123 1 3.67498 6.36797 9.73461 
129 1 6.66012 6.9439 0.778622 
132 1 6.71168 9.14303 8.6178 
135 1 7.34561 6.91495 7.52292 
141 1 7.1632 6.22107 10.9621 
144 1 6.5143 8.36354 9.80294 
148 1 3.61535 7.82436 0.854811 
7 1 9.11654 6.07852 11.9249 
10 1 3.79052 9.80412 21.6042 
13 1 2.4522 9.86374 22.0684 
15 1 3.03445 8.31693 17.8811 
28 1 3.78968 9.77443 20.1318 
30 1 4.51942 8.57069 19.746 
34 1 4.33037 6.34182 18.5832 
40 1 7.73968 8.36534 11.932 
49 1 4.87816 7.784 20.9103 
50 1 2.10583 9.23754 18.5279 
58 1 1.62219 10.081 11.8644 
59 1 4.18055 7.78783 14.1577 
69 1 3.79452 9.81928 11.1571 
73 1 3.04025 8.32427 14.8861 
75 1 4.99465 6.35408 11.8658 
79 1 7.17741 6.2126 21.7906 
82 1 7.92391 6.90505 20.8416 
86 1 3.78617 9.76932 12.6298 