LAMMPS (3 Mar 2020)
Reading data file ...
  orthogonal box = (0 0 0) to (32.808 17.78 2.473)
  4 by 2 by 1 MPI processor grid
  reading atoms ...
  59 atoms
  read_data CPU = 0.0133922 secs
WARNING: Changed valency_val to valency_boc for X (../reaxc_ffield.cpp:315)
WARNING: Using 'neigh_modify every 1 delay 0 check yes' setting during minimization (../min.cpp:190)
Neighbor list info ...
  update every 1 steps, delay 0 steps, check yes
  max neighbors/atom: 2000, page size: 100000
  master list distance cutoff = 12
  ghost atom cutoff = 12
  binsize = 6, bins = 6 3 1
  2 neighbor lists, perpetual/occasional/extra = 2 0 0
  (1) pair reax/c, perpetual
      attributes: half, newton off, ghost
      pair build: half/bin/newtoff/ghost
      stencil: half/ghost/bin/3d/newtoff
      bin: standard
  (2) fix qeq/reax, perpetual, copy from (1)
      attributes: half, newton off, ghost
      pair build: copy
      stencil: none
      bin: none
Setting up cg style minimization ...
  Unit style    : real
  Current step  : 0
Per MPI rank memory allocation (min/avg/max) = 29.15 | 29.34 | 29.52 Mbytes
Step Temp E_pair E_mol TotEng Press 
       0            0   -10902.503            0   -10902.503    597738.34 
     367            0   -11245.303            0   -11245.303    86765.575 
Loop time of 21.3724 on 8 procs for 367 steps with 59 atoms

98.9% CPU use with 8 MPI tasks x no OpenMP threads

Minimization stats:
  Stopping criterion = energy tolerance
  Energy initial, next-to-last, final = 
         -10902.502695     -11245.3032189     -11245.3032853
  Force two-norm initial, final = 319.561 41.9157
  Force max component initial, final = 140.553 22.0009
  Final line search alpha, max atom move = 0.00115396 0.0253882
  Iterations, force evaluations = 367 2216

MPI task timing breakdown:
Section |  min time  |  avg time  |  max time  |%varavg| %total
---------------------------------------------------------------
Pair    | 18.777     | 19.175     | 19.58      |   6.7 | 89.72
Neigh   | 0.002348   | 0.0024822  | 0.0026343  |   0.2 |  0.01
Comm    | 0.083509   | 0.48838    | 0.88642    |  41.8 |  2.29
Output  | 0.0012834  | 0.0016929  | 0.0028511  |   1.1 |  0.01
Modify  | 1.6776     | 1.6783     | 1.6791     |   0.0 |  7.85
Other   |            | 0.02674    |            |       |  0.13

Nlocal:    7.375 ave 13 max 2 min
Histogram: 1 1 1 1 0 1 1 0 0 2
Nghost:    1161.62 ave 1175 max 1149 min
Histogram: 2 1 1 0 0 0 1 1 0 2
Neighs:    2111.25 ave 3860 max 551 min
Histogram: 1 0 1 2 1 0 1 0 1 1

Total # of neighbors = 16890
Ave neighs/atom = 286.271
Neighbor list builds = 1
Dangerous builds = 0
WARNING: Using 'neigh_modify every 1 delay 0 check yes' setting during minimization (../min.cpp:190)
Setting up cg style minimization ...
  Unit style    : real
  Current step  : 367
Per MPI rank memory allocation (min/avg/max) = 29.15 | 29.34 | 29.52 Mbytes
Step Temp E_pair E_mol TotEng Press 
     367            0   -11245.303            0   -11245.303     86765.59 
     379            0   -11245.394            0   -11245.394     88886.63 
Loop time of 0.884081 on 8 procs for 12 steps with 59 atoms

98.9% CPU use with 8 MPI tasks x no OpenMP threads

Minimization stats:
  Stopping criterion = energy tolerance
  Energy initial, next-to-last, final = 
        -11245.3032814       -11245.39346     -11245.3935467
  Force two-norm initial, final = 41.9157 17.8336
  Force max component initial, final = 22.001 6.41979
  Final line search alpha, max atom move = 0.000481277 0.00308969
  Iterations, force evaluations = 12 92

MPI task timing breakdown:
Section |  min time  |  avg time  |  max time  |%varavg| %total
---------------------------------------------------------------
Pair    | 0.78116    | 0.79777    | 0.81329    |   1.3 | 90.24
Neigh   | 0          | 0          | 0          |   0.0 |  0.00
Comm    | 0.0027842  | 0.018319   | 0.034977   |   8.8 |  2.07
Output  | 3.3012e-05 | 4.0795e-05 | 6.2587e-05 |   0.0 |  0.00
Modify  | 0.066747   | 0.066778   | 0.066799   |   0.0 |  7.55
Other   |            | 0.001173   |            |       |  0.13

Nlocal:    7.375 ave 13 max 3 min
Histogram: 1 1 1 1 0 1 1 0 1 1
Nghost:    1161.62 ave 1175 max 1149 min
Histogram: 2 1 1 0 0 0 1 1 0 2
Neighs:    2118.38 ave 3887 max 832 min
Histogram: 1 1 2 0 1 1 1 0 0 1

Total # of neighbors = 16947
Ave neighs/atom = 287.237
Neighbor list builds = 0
Dangerous builds = 0
WARNING: Using 'neigh_modify every 1 delay 0 check yes' setting during minimization (../min.cpp:190)
Setting up cg style minimization ...
  Unit style    : real
  Current step  : 379
WARNING: Energy due to 3 extra global DOFs will be included in minimizer energies
Per MPI rank memory allocation (min/avg/max) = 29.15 | 29.34 | 29.52 Mbytes
Step Temp E_pair E_mol TotEng Press Volume 
     379            0   -11245.394            0   -11245.394    88886.611    1442.5658 
    1894            0   -11267.274            0   -11267.274   -125.96865    1455.3258 
Loop time of 21.7142 on 8 procs for 1515 steps with 59 atoms

99.0% CPU use with 8 MPI tasks x no OpenMP threads

Minimization stats:
  Stopping criterion = linesearch alpha is zero
  Energy initial, next-to-last, final = 
        -11245.3935512     -11267.2744284     -11267.2744285
  Force two-norm initial, final = 3524.05 29.5501
  Force max component initial, final = 2996.12 19.8821
  Final line search alpha, max atom move = 1.13605e-11 2.2587e-10
  Iterations, force evaluations = 1515 2343

MPI task timing breakdown:
Section |  min time  |  avg time  |  max time  |%varavg| %total
---------------------------------------------------------------
Pair    | 19.733     | 20.14      | 20.553     |   6.6 | 92.75
Neigh   | 0          | 0          | 0          |   0.0 |  0.00
Comm    | 0.064747   | 0.47801    | 0.88635    |  43.0 |  2.20
Output  | 0.0045025  | 0.0056756  | 0.0096633  |   2.1 |  0.03
Modify  | 1.0072     | 1.0078     | 1.0082     |   0.0 |  4.64
Other   |            | 0.08265    |            |       |  0.38

Nlocal:    7.375 ave 13 max 3 min
Histogram: 1 1 1 1 0 1 1 0 1 1
Nghost:    1161.62 ave 1175 max 1149 min
Histogram: 2 1 1 0 0 0 1 1 0 2
Neighs:    2118.38 ave 3887 max 832 min
Histogram: 1 1 2 0 1 1 1 0 0 1

Total # of neighbors = 16947
Ave neighs/atom = 287.237
Neighbor list builds = 0
Dangerous builds = 0
WARNING: Using 'neigh_modify every 1 delay 0 check yes' setting during minimization (../min.cpp:190)
Setting up cg style minimization ...
  Unit style    : real
  Current step  : 1894
Per MPI rank memory allocation (min/avg/max) = 29.15 | 29.34 | 29.53 Mbytes
Step Temp E_pair E_mol TotEng Press 
    1894            0   -11267.274            0   -11267.274   -125.97067 
    1895            0   -11267.274            0   -11267.274   -125.96888 
Loop time of 0.535847 on 8 procs for 1 steps with 59 atoms

99.0% CPU use with 8 MPI tasks x no OpenMP threads

Minimization stats:
  Stopping criterion = linesearch alpha is zero
  Energy initial, next-to-last, final = 
        -11267.2744291     -11267.2744291     -11267.2744283
  Force two-norm initial, final = 14.2645 14.2644
  Force max component initial, final = 5.46622 5.46623
  Final line search alpha, max atom move = 3.40756e-11 1.86265e-10
  Iterations, force evaluations = 1 56

MPI task timing breakdown:
Section |  min time  |  avg time  |  max time  |%varavg| %total
---------------------------------------------------------------
Pair    | 0.47803    | 0.49006    | 0.4988     |   1.0 | 91.45
Neigh   | 0          | 0          | 0          |   0.0 |  0.00
Comm    | 0.0020485  | 0.010781   | 0.022821   |   6.9 |  2.01
Output  | 0          | 0          | 0          |   0.0 |  0.00
Modify  | 0.034333   | 0.034345   | 0.034366   |   0.0 |  6.41
Other   |            | 0.0006632  |            |       |  0.12

Nlocal:    7.375 ave 14 max 3 min
Histogram: 2 2 0 0 0 2 0 1 0 1
Nghost:    1167.12 ave 1177 max 1149 min
Histogram: 1 0 1 0 0 0 1 2 0 3
Neighs:    2106.25 ave 4161 max 813 min
Histogram: 2 1 1 0 1 1 1 0 0 1

Total # of neighbors = 16850
Ave neighs/atom = 285.593
Neighbor list builds = 0
Dangerous builds = 0
WARNING: Using 'neigh_modify every 1 delay 0 check yes' setting during minimization (../min.cpp:190)
Setting up cg style minimization ...
  Unit style    : real
  Current step  : 1895
WARNING: Energy due to 3 extra global DOFs will be included in minimizer energies
Per MPI rank memory allocation (min/avg/max) = 29.15 | 29.34 | 29.53 Mbytes
Step Temp E_pair E_mol TotEng Press Volume 
    1895            0   -11267.274            0   -11267.274   -125.97168    1455.3258 
    1896            0   -11267.274            0   -11267.274   -125.97105    1455.3258 
Loop time of 0.369302 on 8 procs for 1 steps with 59 atoms

99.0% CPU use with 8 MPI tasks x no OpenMP threads

Minimization stats:
  Stopping criterion = linesearch alpha is zero
  Energy initial, next-to-last, final = 
        -11267.2744283     -11267.2744283     -11267.2744281
  Force two-norm initial, final = 29.6327 29.6329
  Force max component initial, final = 20.2132 20.2133
  Final line search alpha, max atom move = 9.43616e-12 1.90736e-10
  Iterations, force evaluations = 1 39

MPI task timing breakdown:
Section |  min time  |  avg time  |  max time  |%varavg| %total
---------------------------------------------------------------
Pair    | 0.33591    | 0.34419    | 0.35083    |   0.9 | 93.20
Neigh   | 0          | 0          | 0          |   0.0 |  0.00
Comm    | 0.0009682  | 0.0076093  | 0.015902   |   5.8 |  2.06
Output  | 0          | 0          | 0          |   0.0 |  0.00
Modify  | 0.016274   | 0.016279   | 0.016286   |   0.0 |  4.41
Other   |            | 0.001222   |            |       |  0.33

Nlocal:    7.375 ave 14 max 3 min
Histogram: 2 2 0 0 0 2 0 1 0 1
Nghost:    1167.12 ave 1177 max 1149 min
Histogram: 1 0 1 0 0 0 1 2 0 3
Neighs:    2106.25 ave 4161 max 813 min
Histogram: 2 1 1 0 1 1 1 0 0 1

Total # of neighbors = 16850
Ave neighs/atom = 285.593
Neighbor list builds = 0
Dangerous builds = 0
WARNING: Using 'neigh_modify every 1 delay 0 check yes' setting during minimization (../min.cpp:190)
Setting up cg style minimization ...
  Unit style    : real
  Current step  : 1896
Per MPI rank memory allocation (min/avg/max) = 29.15 | 29.34 | 29.53 Mbytes
Step Temp E_pair E_mol TotEng Press 
    1896            0   -11267.274            0   -11267.274    -125.9782 
    1897            0   -11267.274            0   -11267.274   -125.96889 
Loop time of 0.537634 on 8 procs for 1 steps with 59 atoms

98.9% CPU use with 8 MPI tasks x no OpenMP threads

Minimization stats:
  Stopping criterion = linesearch alpha is zero
  Energy initial, next-to-last, final = 
        -11267.2744304     -11267.2744304     -11267.2744283
  Force two-norm initial, final = 14.2644 14.2644
  Force max component initial, final = 5.46623 5.46623
  Final line search alpha, max atom move = 3.40755e-11 1.86265e-10
  Iterations, force evaluations = 1 56

MPI task timing breakdown:
Section |  min time  |  avg time  |  max time  |%varavg| %total
---------------------------------------------------------------
Pair    | 0.47868    | 0.49107    | 0.50054    |   1.0 | 91.34
Neigh   | 0          | 0          | 0          |   0.0 |  0.00
Comm    | 0.0017839  | 0.011236   | 0.023642   |   6.9 |  2.09
Output  | 0          | 0          | 0          |   0.0 |  0.00
Modify  | 0.034647   | 0.034669   | 0.034688   |   0.0 |  6.45
Other   |            | 0.0006605  |            |       |  0.12

Nlocal:    7.375 ave 14 max 3 min
Histogram: 2 2 0 0 0 2 0 1 0 1
Nghost:    1167.12 ave 1177 max 1149 min
Histogram: 1 0 1 0 0 0 1 2 0 3
Neighs:    2106.25 ave 4161 max 813 min
Histogram: 2 1 1 0 1 1 1 0 0 1

Total # of neighbors = 16850
Ave neighs/atom = 285.593
Neighbor list builds = 0
Dangerous builds = 0
Setting up Verlet run ...
  Unit style    : real
  Current step  : 0
  Time step     : 0.25
Per MPI rank memory allocation (min/avg/max) = 28.02 | 28.21 | 28.4 Mbytes
Step Temp TotEng KinEng PotEng Press 
       0          300   -11215.408    51.866095   -11267.274      1503.16 
     200    292.92836   -11194.751      50.6435   -11245.394   -18279.596 
     400    283.07569   -11176.204    48.940101   -11225.144   -1287.7101 
     600     260.2667   -11196.339    44.996724   -11241.336    10996.666 
     800    361.42399   -11178.735    62.485504    -11241.22   -7572.2221 
    1000    290.13254   -11181.948    50.160139   -11232.108     17687.84 
    1200    266.97602   -11193.116    46.156679   -11239.273   -2870.4437 
    1400    343.49536   -11175.807    59.385876   -11235.193   -22665.096 
    1600    274.80259   -11179.364    47.509791   -11226.874   -27339.242 
    1800    275.00109   -11186.163    47.544109   -11233.707    37689.795 
    2000    340.57094   -11177.279    58.880283   -11236.159    14016.473 
    2200    236.67777   -11193.627    40.918506   -11234.546    71883.273 
    2400    297.14694   -11183.446    51.372837   -11234.819   -9193.9057 
    2600    254.01164   -11176.186    43.915306   -11220.102    40012.435 
    2800    354.87525   -11163.399    61.353311   -11224.752   -34754.874 
    3000    283.94306   -11180.996     49.09006   -11230.086   -40982.655 
    3200     377.1128   -11176.234    65.197894   -11241.432     6869.742 
    3400    248.02224   -11187.935    42.879817   -11230.815   -15941.845 
    3600    346.17218    -11176.21    59.848665   -11236.058    645.15601 
    3800    285.42277   -11184.677    49.345881   -11234.023    21827.839 
    4000    246.27059    -11190.45     42.57698   -11233.027   -57482.237 
    4200      320.123   -11173.648    55.345099   -11228.994   -14394.561 
    4400    331.14281   -11180.173    57.250281   -11237.423    8461.8599 
    4600    300.96077   -11182.682    52.032199   -11234.714    6041.4702 
    4800    317.84689   -11166.473     54.95159   -11221.425    26857.655 
    5000    266.61747   -11174.142    46.094689   -11220.236    34347.706 
    5200     270.0631   -11189.911    46.690395   -11236.601    14396.817 
    5400    317.55456   -11172.799    54.901049     -11227.7   -15602.951 
    5600    308.47846   -11171.061     53.33191   -11224.393   -11896.307 
    5800    268.67234   -11183.369     46.44995   -11229.819   -18613.608 
    6000    309.19745   -11186.513    53.456215   -11239.969     14146.53 
    6200    276.17367   -11185.747    47.746833   -11233.494    8254.3754 
    6400    284.61974   -11175.702    49.207048   -11224.909   -13686.762 
    6600    315.08483   -11179.895    54.474065   -11234.369   -8025.1718 
    6800    258.85225   -11200.825    44.752185   -11245.577   -14731.913 
    7000    254.65947   -11184.992    44.027308   -11229.019   -99687.765 
    7200    297.83985   -11172.957    51.492634   -11224.449    29508.375 
    7400    257.03533   -11189.211    44.438062   -11233.649   -26533.722 
    7600    298.46229   -11187.802    51.600245   -11239.402    48807.711 
    7800    321.14444   -11178.909    55.521692    -11234.43   -21808.939 
    8000    320.55062   -11173.581    55.419029       -11229   -9049.4994 
    8200    268.74738   -11192.362    46.462924   -11238.825   -21698.829 
    8400     296.3835   -11179.426    51.240849   -11230.667    7590.5226 
    8600    334.71536   -11174.187    57.867929   -11232.055   -12529.188 
    8800    275.27339   -11179.844    47.591187   -11227.435    26414.032 
    9000    314.92806   -11181.829    54.446962   -11236.276    31848.881 
    9200    322.96736   -11165.597    55.836853   -11221.434   -29621.118 
    9400    245.52317   -11181.544    42.447761   -11223.992    23480.575 
    9600    283.52205   -11184.255    49.017271   -11233.272   -26981.011 
    9800     375.0979   -11170.336    64.849544   -11235.186   -26469.708 
   10000    292.30556   -11185.881    50.535826   -11236.416   -8809.6495 
   10200    274.92851   -11184.982    47.531561   -11232.514   -16240.898 
   10400    317.32257   -11180.022    54.860942   -11234.883   -1887.2033 
   10600    258.85241   -11186.034    44.752212   -11230.787   -27948.954 
   10800    321.29188   -11180.736    55.547183   -11236.283   -61145.642 
   11000    331.76417   -11178.931    57.357706   -11236.289   -703.30839 
   11200    245.09258   -11190.091    42.373317   -11232.464   -29745.701 
   11400    232.50934   -11188.854    40.197838   -11229.051    45.497883 
   11600    344.53093   -11175.785    59.564913    -11235.35    19214.527 
   11800    257.47262   -11188.895    44.513664   -11233.408   -3136.2673 
   12000    308.81439   -11175.169    53.389988   -11228.559   -14366.694 
   12200    322.31311   -11179.279    55.723742   -11235.002    6605.0905 
   12400    318.98748   -11187.785    55.148784   -11242.934    5356.6969 
   12600    293.36101   -11183.182      50.7183   -11233.901    836.48521 
   12800    335.30473   -11176.317    57.969823   -11234.287    5764.9494 
   13000    247.02368   -11195.601    42.707178   -11238.308    38900.888 
   13200    320.47638   -11185.116    55.406194   -11240.523   -10781.315 
   13400    283.53081   -11192.721    49.018785    -11241.74    35825.456 
   13600    318.77239   -11183.733    55.111596   -11238.844   -74773.242 
   13800    327.23279   -11175.957    56.574289   -11232.531    2289.0332 
   14000    290.23756    -11193.19    50.178296   -11243.368    37899.776 
   14200    281.32993   -11179.051    48.638283    -11227.69   -23178.291 
   14400    299.66923   -11186.444     51.80891   -11238.253    41805.156 
   14600    283.21005    -11192.48    48.963331   -11241.443    21674.505 
   14800    313.53063   -11179.309    54.205364   -11233.514    13143.566 
   15000    261.24215   -11199.753    45.165367   -11244.918    19115.898 
   15200    277.51082   -11183.576    47.978009   -11231.554    23106.854 
   15400    306.65673   -11177.563    53.016956    -11230.58   -20524.989 
   15600     259.0291   -11200.368     44.78276   -11245.151   -3324.1601 
   15800    279.50716   -11187.033    48.323149   -11235.356    79839.512 
   16000    319.12528   -11177.749    55.172607   -11232.922    7514.3175 
   16200    263.55665   -11188.329    45.565515   -11233.894   -30113.468 
   16400    330.92844   -11172.341     57.21322   -11229.554    -58360.58 
   16600     339.2602   -11183.045    58.653673   -11241.699     20934.97 
   16800    307.27609   -11187.232    53.124036   -11240.356    1212.2139 
   17000    305.74188   -11178.814    52.858791   -11231.673    5061.5914 
   17200     330.1373   -11159.994    57.076442    -11217.07   -5811.4631 
   17400    297.42496   -11176.324    51.420903   -11227.745   -33020.195 
   17600    264.54082    -11184.95    45.735664   -11230.686    36894.583 
   17800     359.8323   -11168.962    62.210321   -11231.172    33218.803 
   18000    281.95336   -11181.858    48.746066   -11230.604   -21028.289 
   18200     313.6326    -11184.14    54.222994   -11238.363   -63549.107 
   18400    341.62216   -11168.664    59.062024   -11227.726    17529.242 
   18600    261.43048   -11189.202    45.197927   -11234.399    2195.2381 
   18800    300.69136   -11184.335    51.985623    -11236.32    635.05005 
   19000    320.73058    -11172.41    55.450142   -11227.861    31157.413 
   19200    319.31787   -11179.557    55.205903   -11234.763    5409.3465 
   19400    279.54111   -11181.112    48.329019   -11229.441   -25266.345 
   19600    343.18485   -11164.553    59.332193   -11223.885   -49924.521 
   19800    273.76856   -11183.512     47.33102   -11230.843     12880.38 
   20000    331.41959   -11184.197    57.298134   -11241.496    24270.621 
   20200    268.51558   -11192.723    46.422848   -11239.146    21478.531 
   20400    331.96839   -11178.208    57.393014   -11235.602   -23291.752 
   20600    279.59827    -11178.02    48.338901   -11226.359   -7938.2971 
   20800     239.6523    -11193.95    41.432763   -11235.383   -34637.365 
   21000    260.70598   -11179.462    45.072671   -11224.534   -21821.265 
   21200    336.06449   -11171.127    58.101175   -11229.228    26398.793 
   21400    274.93007   -11186.028    47.531831   -11233.559    -39592.21 
   21600    321.89336   -11168.889    55.651172   -11224.541    45769.512 
   21800    270.11419   -11178.748    46.699228   -11225.447    21100.978 
   22000    277.10386     -11179.4    47.907651   -11227.308   -27008.697 
   22200    329.67001   -11162.929    56.995653   -11219.924    -14441.56 
   22400    311.06738   -11179.066      53.7795   -11232.846    -38142.34 
   22600    271.72874   -11184.377    46.978361   -11231.355    23890.239 
   22800    342.03216   -11167.022    59.132909   -11226.155    15435.608 
   23000    284.14536   -11174.786    49.125034   -11223.911   -30246.078 
   23200    285.24611   -11180.254     49.31534   -11229.569   -3662.1607 
   23400     293.8268   -11181.324    50.798829   -11232.123   -15256.016 
   23600    304.57789    -11168.19    52.657552   -11220.847    6296.7692 
   23800    311.06107   -11163.152    53.778409    -11216.93     27735.23 
   24000     287.0489   -11182.551    49.627018   -11232.178    67777.977 
   24200    290.72805   -11180.277    50.263096    -11230.54    6552.8219 
   24400    321.36838   -11167.472     55.56041   -11223.033   -4658.5945 
   24600    335.23431   -11182.083    57.957648    -11240.04   -31838.934 
   24800    306.55737   -11185.599    52.999779   -11238.599   -51153.478 
   25000    250.48868     -11192.6    43.306233   -11235.906   -3587.2369 
   25200    330.14619   -11177.187    57.077978   -11234.265   -53992.528 
   25400    301.46291   -11169.057    52.119013   -11221.176   -24595.619 
   25600    284.45725   -11184.672    49.178956   -11233.851   -50845.732 
   25800    307.53416   -11175.413    53.168652   -11228.581   -20958.866 
   26000    335.69138   -11174.697    58.036669   -11232.733    28028.798 
   26200    271.85887   -11184.765     47.00086   -11231.766    14064.273 
   26400    361.69375   -11161.409    62.532141   -11223.941   -59723.783 
   26600    314.46026   -11175.379    54.366086   -11229.745    -9270.162 
   26800    292.59843   -11187.169    50.586459   -11237.756   -33949.317 
   27000    280.78301   -11183.215    48.543728   -11231.759   -918.72084 
   27200    368.98938   -11171.778    63.793461   -11235.571   -20422.481 
   27400    237.43129   -11192.368    41.048779   -11233.417    45439.203 
   27600    296.96277   -11190.319    51.340997    -11241.66    23657.493 
   27800    322.12016   -11175.464    55.690383   -11231.154    -17990.36 
   28000    300.98174   -11182.914    52.035825    -11234.95   -33324.594 
   28200    234.23128    -11190.95    40.495539   -11231.446   -39944.342 
   28400    328.81221   -11174.753    56.847351     -11231.6    57240.266 
   28600    332.20815   -11163.479    57.434464   -11220.913   -28956.584 
   28800    293.00619   -11159.557    50.656955   -11210.214    33380.639 
   29000    288.83459   -11173.481    49.935742   -11223.416   -2148.2935 
   29200    285.87617   -11182.342    49.424268   -11231.767    72943.948 
   29400    273.09311   -11191.062    47.214243   -11238.277   -49596.305 
   29600    361.58872   -11177.703    62.513983   -11240.217    21784.351 
   29800    285.45082   -11183.262    49.350731   -11232.613   -51052.387 
   30000    346.30886   -11168.401    59.872294   -11228.273   -10693.009 
   30200    258.79019   -11177.065    44.741455   -11221.807   -8632.6838 
   30400     302.3773   -11179.474    52.277099   -11231.751   -40978.768 
   30600    345.07327   -11159.355    59.658677   -11219.014   -72520.597 
   30800    329.89917   -11176.099    57.035272   -11233.135    23356.918 
   31000    283.51835   -11183.205    49.016631   -11232.222   -4440.8594 
   31200    326.65498   -11171.849    56.474394   -11228.323    23358.412 
   31400     279.0679    -11178.01    48.247207   -11226.257    36787.767 
   31600      287.593   -11184.918    49.721086   -11234.639    -23375.99 
   31800    293.21127   -11170.142    50.692413   -11220.835   -28732.548 
   32000    324.96925   -11163.952    56.182954   -11220.135    47074.862 
   32200    307.04334   -11170.724    53.083797   -11223.808   -89735.897 
   32400    296.04497   -11170.596    51.182322   -11221.778     78786.62 
   32600    224.06444   -11188.994    38.737826   -11227.732   -26313.052 
   32800    331.24888   -11173.236    57.268619   -11230.505   -48002.731 
   33000    288.28874   -11180.499     49.84137    -11230.34    39050.126 
   33200    318.72076   -11176.683    55.102671   -11231.786   -31047.166 
   33400    330.61146   -11168.631    57.158418    -11225.79    44294.631 
   33600    260.88378   -11183.636    45.103409    -11228.74    42132.581 
   33800     316.8618   -11163.014    54.781281   -11217.795   -42798.525 
   34000    318.38078   -11172.122    55.043892   -11227.166    262.06504 
   34200    325.72866   -11185.608    56.314245   -11241.922    19527.975 
   34400    275.34271   -11186.137     47.60317   -11233.741    13893.123 
   34600     380.5244    -11164.14    65.787716   -11229.928    1427.7285 
   34800     287.3969   -11183.596    49.687183   -11233.284   -25339.251 
   35000    266.84505    -11176.92    46.134036   -11223.054    23949.024 
   35200    351.25791     -11170.2     60.72792   -11230.928    14454.296 
   35400    306.09826   -11180.311    52.920404   -11233.232   -30642.966 
   35600    255.95421   -11194.314    44.251151   -11238.565   -4116.3449 
   35800    318.96675   -11175.948      55.1452   -11231.093   -14092.065 
   36000    298.86304   -11172.878     51.66953   -11224.548    14873.348 
   36200    266.63703    -11191.45    46.098071   -11237.548    10432.205 
   36400    287.77527   -11181.471    49.752599   -11231.224    64284.042 
   36600    274.81206   -11170.357    47.511428   -11217.869   -60423.807 
   36800    277.02424   -11170.722    47.893885   -11218.616    22853.847 
   37000    282.40818   -11181.749    48.824698   -11230.573    30049.261 
   37200    329.60619    -11170.25    56.984619   -11227.235    10800.693 
   37400    281.53997   -11173.609    48.674596   -11222.284    28360.981 
   37600    231.91182   -11187.652    40.094536   -11227.747    -15614.49 
   37800    328.16794    -11166.11    56.735965   -11222.846    -3299.359 
   38000    334.86875   -11168.218    57.894448   -11226.112    72596.796 
   38200    294.42941    -11177.37    50.903012   -11228.273   -9755.9648 
   38400    271.84912   -11178.942    46.999175   -11225.942   -23970.008 
   38600    315.80374   -11166.151    54.598356   -11220.749    16362.398 
   38800    270.75566   -11184.568    46.810129   -11231.378   -5578.6749 
   39000    290.64557   -11177.637    50.248835   -11227.886   -13099.637 
   39200    351.26507   -11174.469    60.729159   -11235.198     -38664.5 
   39400    279.26168   -11186.274    48.280709   -11234.555    50868.983 
   39600    355.32504   -11172.146    61.431074   -11233.577   -6512.5064 
   39800    233.62541   -11182.953    40.390792   -11223.344   -4806.3967 
   40000    327.04519   -11181.204    56.541856   -11237.746   -28216.414 
   40200    315.32164   -11160.994    54.515006   -11215.509   -10185.721 
   40400    350.91797   -11169.174    60.669148   -11229.843    16937.461 
   40600    238.61553   -11188.409    41.253519   -11229.662    20017.479 
   40800    341.94413   -11175.915    59.117688   -11235.033   -55203.209 
   41000    325.48629    -11167.91    56.272343   -11224.182    7154.2786 
   41200    304.38652   -11177.988    52.624467   -11230.612    1228.1115 
   41400    291.41429   -11182.008    50.381737    -11232.39    1921.4648 
   41600    317.69718   -11166.632    54.925708   -11221.558    18014.619 
   41800    283.23739    -11173.74    48.968057   -11222.708   -17838.447 
   42000    344.61609   -11174.852    59.579635   -11234.432    22734.445 
   42200    253.81637    -11188.05    43.881547   -11231.931    44770.259 
   42400    291.13892   -11172.165    50.334129   -11222.499   -32780.918 
   42600    293.52213   -11176.779    50.746155   -11227.525    17221.526 
   42800     332.3004   -11177.805    57.450414   -11235.255   -26892.249 
   43000    300.71351   -11182.116    51.989452   -11234.106     59344.91 
   43200    358.59281   -11161.787    61.996029   -11223.783    25256.616 
   43400     319.6041   -11182.237    55.255389   -11237.492    28117.032 
   43600    297.59492   -11180.577    51.450287   -11232.028   -11619.235 
   43800    322.98096   -11166.789    55.839203   -11222.628   -63390.196 
   44000    307.95756    -11180.15    53.241853   -11233.392   -26010.147 
   44200    270.13678   -11181.894    46.703132   -11228.597     42368.78 
   44400    318.28865   -11170.288    55.027964   -11225.316    56009.208 
   44600    271.47513   -11182.497    46.934517   -11229.432   -34762.681 
   44800    334.42467   -11179.883    57.817673   -11237.701    14373.513 
   45000    294.47153   -11188.657    50.910295   -11239.567    28268.082 
   45200    282.84144   -11184.406    48.899603   -11233.305   -10972.578 
   45400      304.175   -11179.115    52.587899   -11231.703    16348.402 
   45600    316.03408   -11161.507    54.638179   -11216.145    8952.8075 
   45800    279.75993   -11178.921    48.366851   -11227.288   -13023.091 
   46000    355.41563   -11170.086    61.446736   -11231.533    65188.531 
   46200    277.76659   -11182.349    48.022228   -11230.371   -24224.788 
   46400    234.35102   -11184.718     40.51624   -11225.235   -43366.495 
   46600    326.27284   -11166.446    56.408327   -11222.854   -28513.769 
   46800    314.52784   -11178.626     54.37777   -11233.004   -4959.1008 
   47000     251.6633   -11189.119    43.509308   -11232.629    21114.464 
   47200    349.78104   -11169.974    60.472589   -11230.446    15718.278 
   47400    278.60313   -11179.459    48.166854   -11227.626   -2244.9148 
   47600    303.33155   -11175.926    52.442077   -11228.368    2319.7368 
   47800    282.24974   -11180.253    48.797307   -11229.051    74024.464 
   48000    311.98528   -11174.499    53.938193   -11228.437   -25584.815 
   48200    280.30743   -11174.109    48.461506   -11222.571    19232.141 
   48400     301.8401   -11187.024    52.184224   -11239.209   -26139.615 
   48600    364.35059   -11165.814    62.991474   -11228.805    -21534.55 
   48800    313.69341   -11178.038    54.233507   -11232.272    81272.526 
   49000    315.20609   -11183.708    54.495031   -11238.203   -31658.402 
   49200     346.7683   -11165.104    59.951724   -11225.056   -2349.4852 
   49400    267.66415   -11179.239    46.275648   -11225.514    23559.161 
   49600    346.21096   -11177.985    59.855369   -11237.841     20460.67 
   49800    330.90992   -11163.323    57.210018   -11220.533    35597.083 
   50000    312.01112   -11177.411    53.942661   -11231.354    25381.267 
   50200    277.33453   -11186.244    47.947531   -11234.191   -17503.786 
   50400    319.77132   -11167.697    55.284298   -11222.981   -26243.748 
   50600    380.80629   -11149.992     65.83645   -11215.829   -1018.2571 
   50800    260.89774   -11181.337    45.105824   -11226.443    7743.0321 
   51000    270.59976   -11186.261    46.783177   -11233.045   -20452.821 
   51200    327.94341   -11169.735    56.697146   -11226.433    -4640.351 
   51400    296.99032   -11187.304    51.345761    -11238.65   -10310.044 
   51600     297.0539   -11183.684    51.356752   -11235.041    26553.072 
   51800    292.53666   -11171.879    50.575781   -11222.455   -5562.4376 
   52000    337.78792   -11177.361    58.399134    -11235.76    21815.512 
   52200     244.7669     -11185.4    42.317011   -11227.717    40814.878 
   52400    354.87097   -11164.585    61.352572   -11225.938   -14207.824 
   52600    309.76708   -11172.776    53.554697   -11226.331    60915.472 
   52800    255.45389   -11188.959    44.164652   -11233.124    17104.476 
   53000    246.34204    -11185.39    42.589332   -11227.979   -17292.836 
   53200    330.57949   -11171.455    57.152891   -11228.608    2956.8636 
   53400    286.84215   -11179.167    49.591274   -11228.758   -14304.321 
   53600    249.44763   -11191.415    43.126248   -11234.542   -601.41356 
   53800    296.14458   -11173.364    51.199542   -11224.564   -13511.322 
   54000    325.33116   -11172.297    56.245522   -11228.543    8952.4536 
   54200    250.18616   -11190.839     43.25393   -11234.093   -37195.038 
   54400    340.38128   -11180.281    58.847492   -11239.129   -50573.728 
   54600    333.78717   -11174.534    57.707458   -11232.242    18085.406 
   54800    298.66158   -11167.145      51.6347   -11218.779   -30874.178 
   55000    286.22863   -11176.743    49.485205   -11226.228   -62329.696 
   55200    316.34917   -11181.803    54.692654   -11236.495    1953.6835 
   55400    281.40001   -11175.037    48.650399   -11223.687    -66749.86 
   55600     340.6859   -11153.173    58.900157   -11212.073    37467.112 
   55800    289.97908   -11175.799    50.133608   -11225.933   -31165.792 
   56000    273.01798   -11187.443    47.201254   -11234.644     23962.29 
   56200    311.20261   -11173.268     53.80288   -11227.071    33005.189 
   56400    317.82343   -11172.153    54.947534     -11227.1    -6447.294 
   56600    300.29724   -11185.559    51.917484   -11237.476   -23947.285 
   56800    351.04078   -11179.642    60.690382   -11240.333   -63335.829 
   57000    379.97544   -11152.492    65.692807   -11218.185    38832.287 
   57200    296.48522   -11176.528    51.258435   -11227.787    7914.2747 
   57400    295.38202   -11181.608    51.067706   -11232.676    70804.872 
   57600    283.67698   -11166.637    49.044057   -11215.681   -17280.404 
   57800    318.38615   -11174.018    55.044821   -11229.063   -19781.153 
   58000    312.85263   -11180.855    54.088147   -11234.943    23183.873 
   58200    320.87445   -11188.968    55.475016   -11244.443    21958.295 
   58400    295.41454   -11182.347    51.073329    -11233.42    7776.3802 
   58600    323.28285   -11176.192    55.891397   -11232.083   -4327.0796 
   58800    248.29235   -11182.663    42.926514   -11225.589    37356.358 
   59000     249.0383   -11190.803     43.05548   -11233.859   -12405.389 
   59200    345.98959   -11172.575    59.817097   -11232.392    16692.625 
   59400    383.05778   -11171.415    66.225703   -11237.641   -50511.556 
   59600    290.30576   -11187.709    50.190087   -11237.899   -33411.868 
   59800    290.20186   -11178.025    50.172125   -11228.197   -14063.564 
   60000    312.22845   -11163.944    53.980234   -11217.924    -36415.39 
   60200    277.02179   -11180.385    47.893462   -11228.278   -38401.037 
   60400    302.13034    -11173.88    52.234402   -11226.115   -21735.839 
   60600    287.00438   -11169.364    49.619321   -11218.983   -1625.2803 
   60800    297.18322    -11180.76     51.37911   -11232.139   -67573.571 
   61000    351.04382   -11175.313    60.690907   -11236.003    39856.362 
   61200    317.84842   -11187.705    54.951854   -11242.657    47641.985 
   61400    274.97583   -11184.619    47.539741   -11232.159    40859.318 
   61600    339.73508   -11169.944    58.735772    -11228.68    42854.722 
   61800    296.97481   -11182.226    51.343079   -11233.569    4006.8893 
   62000    271.55702   -11182.098    46.948675   -11229.046   -25377.864 
   62200    290.99606   -11172.392    50.309431   -11222.701    31092.145 
   62400    284.41162   -11177.201    49.171067   -11226.372   -31441.526 
   62600     261.6921   -11186.648    45.243158   -11231.891    15722.326 
   62800    304.70485   -11170.647    52.679502   -11223.326    45404.756 
   63000    298.69432   -11180.257     51.64036   -11231.897   -16777.389 
   63200    278.82078   -11189.065    48.204483   -11237.269    26326.218 
   63400    286.08568   -11171.833     49.46049   -11221.294   -17524.162 
   63600    310.66603   -11180.858    53.710112   -11234.568   -33445.099 
   63800     271.0045   -11196.761    46.853151   -11243.614    -5944.036 
   64000    320.35449    -11173.72    55.385122   -11229.105    29488.249 
   64200    318.73675   -11174.018    55.105436   -11229.123   -20490.119 
   64400    271.24012   -11187.953    46.893886   -11234.847    66964.233 
   64600     288.6289   -11173.666    49.900179   -11223.566    42034.393 
   64800    322.01677   -11173.401    55.672508   -11229.074    25060.347 
   65000    250.56485   -11186.581      43.3194     -11229.9    38286.534 
   65200    279.37106   -11184.376     48.29962   -11232.676   -49271.291 
   65400    289.73342   -11170.908    50.091137   -11220.999   -2997.1033 
   65600    248.91336   -11188.356    43.033881    -11231.39   -4502.9159 
   65800    261.96098   -11182.891    45.289643   -11228.181   -40592.639 
   66000    355.42985   -11165.283    61.449194   -11226.732    20084.624 
   66200    308.26241   -11184.211    53.294557   -11237.505   -32885.509 
   66400    297.64527   -11172.934    51.458992   -11224.393    -1061.597 
   66600    291.57184   -11171.941    50.408976    -11222.35   -47109.137 
   66800    292.27992   -11177.394    50.531394   -11227.925     20972.59 
   67000    251.36996   -11192.021    43.458593   -11235.479   -5046.2284 
   67200    336.09325   -11172.495    58.106147   -11230.601   -19873.828 
   67400    315.04637   -11182.388    54.467416   -11236.856   -50850.458 
   67600    296.20137    -11176.81    51.209362    -11228.02    26306.875 
   67800    337.17246   -11171.707     58.29273   -11229.999   -20269.914 
   68000    266.78365   -11179.707     46.12342   -11225.831    12680.155 
   68200     279.8135    -11176.44    48.376112   -11224.816    3378.6457 
   68400    308.07063   -11177.956    53.261401   -11231.217    45379.316 
   68600    260.72337   -11191.183    45.075676   -11236.259   -4945.2506 
   68800    347.55181   -11169.812    60.087183   -11229.899   -22182.799 
   69000    292.15864   -11180.962    50.510427   -11231.473   -2466.5823 
   69200    287.22586   -11185.949    49.657612   -11235.607    45494.154 
   69400    353.30402   -11164.004    61.081667   -11225.085    73663.988 
   69600    316.47744   -11173.136     54.71483   -11227.851    51529.039 
   69800    255.93183   -11185.972    44.247282   -11230.219    32241.551 
   70000    303.12431   -11176.726    52.406247   -11229.132    82492.545 
   70200    293.23479   -11171.692    50.696478   -11222.388   -23828.557 
   70400    344.47406   -11162.987    59.555081   -11222.542   -27574.566 
   70600     261.7417   -11183.733    45.251733   -11228.985    11951.007 
   70800    287.28761     -11178.1    49.668288   -11227.768   -56063.482 
   71000    305.84548   -11162.308    52.876702   -11215.185   -32623.451 
   71200    266.89959   -11178.687    46.143465    -11224.83    32263.411 
   71400    321.20284   -11179.979     55.53179   -11235.511   -25301.634 
   71600    339.29653   -11158.694    58.659953   -11217.354   -25846.882 
   71800    296.19141   -11177.155    51.207639   -11228.362    47529.689 
   72000    296.94913   -11176.447    51.338639   -11227.786    61208.152 
   72200    268.85095   -11187.572    46.480829   -11234.053   -4380.8604 
   72400    246.05968   -11186.173    42.540515   -11228.714    18175.147 
   72600    326.26297    -11175.97     56.40662   -11232.377    32191.279 
   72800    302.53446   -11180.449    52.304269   -11232.754   -2504.2414 
   73000    285.06578   -11189.501    49.284162   -11238.785     17526.33 
   73200    286.55204   -11170.383    49.541118   -11219.925    43759.195 
   73400    260.38753   -11172.628    45.017614   -11217.646   -67903.688 
   73600    330.49452   -11162.531      57.1382   -11219.669   -1264.2571 
   73800    323.64718   -11182.103    55.954384   -11238.057   -13725.797 
   74000    290.99391   -11184.232    50.309059   -11234.541    15252.951 
   74200    298.86643   -11168.004    51.670116   -11219.674   -20683.226 
   74400    251.14973    -11181.91     43.42052   -11225.331    36271.429 
   74600    274.47333   -11185.962    47.452866   -11233.414   -80551.337 
   74800    329.26179    -11164.33    56.925077   -11221.255    63530.086 
   75000    291.70085   -11170.168    50.431279   -11220.599   -9293.6211 
   75200     294.5941   -11184.232    50.931485   -11235.163    18304.085 
   75400    283.88079   -11170.389    49.079294   -11219.468     3360.917 
   75600    352.49416   -11160.546    60.941652   -11221.488    30818.231 
   75800    326.26094   -11180.793     56.40627     -11237.2   -5977.8293 
   76000    340.35525   -11179.764    58.842992   -11238.607    78184.629 
   76200    396.07319   -11156.602    68.475899   -11225.078    18693.914 
   76400    255.17644   -11171.193    44.116686    -11215.31    37053.869 
   76600    268.63511   -11182.811    46.443513   -11229.254   -66676.564 
   76800    348.61381   -11165.481    60.270791   -11225.752   -22681.042 
   77000    262.69823    -11176.54    45.417105   -11221.957    22656.726 
   77200    224.80281   -11188.162     38.86548   -11227.027    61298.893 
   77400    340.19909   -11174.918    58.815994   -11233.734   -3247.9285 
   77600    295.74057   -11181.584    51.129694   -11232.714    43615.383 
   77800    253.04307   -11189.664    43.747853   -11233.412    22690.822 
   78000    316.68266    -11170.46    54.750309    -11225.21    -13379.59 
   78200    314.12793   -11182.164     54.30863   -11236.473    25442.298 
   78400    332.26954   -11173.792    57.445078   -11231.237    2081.2276 
   78600    331.38906    -11163.95    57.292855   -11221.243    80978.237 
   78800    322.43248   -11180.853    55.744378   -11236.597   -16485.498 
   79000    307.20687   -11184.928    53.112068    -11238.04    9351.8035 
   79200    311.60412   -11177.808    53.872296    -11231.68   -72494.327 
   79400     342.0818   -11173.433     59.14149   -11232.575   -20048.885 
   79600    288.26376   -11192.299    49.837053   -11242.136    95105.743 
   79800    313.37637    -11178.27    54.178696   -11232.449    3399.9699 
   80000    301.82697   -11175.962    52.181955   -11228.143   -713.97948 
   80200     328.9886   -11166.989    56.877847   -11223.867    2064.4459 
   80400    297.28643   -11174.058    51.396954   -11225.455    11184.243 
   80600    310.32803   -11183.185    53.651678   -11236.836    2350.8082 
   80800    343.91517   -11166.821    59.458456    -11226.28    12720.777 
   81000    331.71557   -11171.933    57.349304   -11229.282    2383.0762 
   81200    269.16794   -11180.666    46.535633   -11227.202   -28172.344 
   81400     379.9784   -11164.122     65.69332   -11229.815    23074.865 
   81600     299.9225   -11181.594    51.852696   -11233.446   -14052.051 
   81800    300.09575   -11175.387    51.882649    -11227.27   -45031.695 
   82000    309.62474   -11173.189    53.530086   -11226.719    9178.8739 
   82200    354.79115   -11173.981    61.338772    -11235.32   -54675.022 
   82400    318.49926   -11171.553    55.064375   -11226.618   -8172.6553 
   82600    286.94078   -11179.617    49.608325   -11229.226   -437.95866 
   82800    237.61423   -11184.952    41.080407   -11226.032    31203.706 
   83000      330.325   -11171.653    57.108893   -11228.762   -33694.248 
   83200    326.97094   -11182.777     56.52902   -11239.306   -17396.718 
   83400    287.98088   -11183.336    49.788145   -11233.124    6414.6918 
   83600    302.00322   -11170.982    52.212425   -11223.194    4742.5356 
   83800    338.38852   -11163.258    58.502971   -11221.761    57033.146 
   84000    249.45043   -11182.692    43.126732   -11225.819    -50982.63 
   84200    274.72533   -11173.957    47.496433   -11221.453   -7526.9232 
   84400    342.91435   -11161.693    59.285427   -11220.979    538.27427 
   84600    300.44232   -11182.692    51.942566   -11234.635   -9894.1688 
   84800    319.40183   -11176.267    55.220419   -11231.487    20767.569 
   85000    372.54205   -11165.383     64.40767    -11229.79     66798.85 
   85200     307.2961   -11182.346    53.127495   -11235.474    49292.839 
   85400    317.54193   -11170.541    54.898867   -11225.439    9676.9637 
   85600    307.31533   -11180.313    53.130821   -11233.444   -41131.015 
   85800    263.58671   -11181.447     45.57071   -11227.018    23126.531 
   86000    269.63747   -11173.946    46.616808   -11220.563    30098.061 
   86200     310.6003   -11166.873    53.698749   -11220.572    6747.0615 
   86400    292.30965   -11185.124    50.536533   -11235.661    8971.3008 
   86600     296.3886   -11170.645    51.241731   -11221.886   -48851.568 
   86800    354.62595   -11175.646    61.310211   -11236.956   -12451.356 
   87000     302.4796   -11187.485    52.294786    -11239.78   -20182.854 
   87200    332.96348   -11171.939    57.565051   -11229.504    10631.381 
   87400    306.50283   -11173.124     52.99035   -11226.115    50024.214 
   87600    309.84389   -11186.568    53.567975   -11240.136    44241.473 
   87800    356.60607   -11162.085    61.652547   -11223.738   -71507.034 
   88000    315.63762   -11178.476    54.569636   -11233.046    2128.8217 
   88200    316.66489   -11176.388    54.747237   -11231.135   -49596.539 
   88400    356.21871   -11162.366    61.585578   -11223.952   -46878.522 
   88600    281.10639   -11178.023    48.599636   -11226.622    47607.457 
   88800    288.72764   -11180.857    49.917251   -11230.774   -42379.504 
   89000    249.20639   -11194.836    43.084541   -11237.921    57708.284 
   89200    300.56033   -11176.608    51.962968   -11228.571   -9103.2676 
   89400    317.78354   -11168.803    54.940637   -11223.743     10574.34 
   89600    268.76631   -11187.595    46.466197   -11234.061   -33261.883 
   89800    291.25576    -11181.55    50.354329   -11231.905    52619.273 
   90000    322.38312    -11178.93    55.735844   -11234.666   -47915.627 
   90200    309.58697   -11176.386    53.523557   -11229.909    1202.6551 
   90400    274.94603   -11191.669    47.534589   -11239.204    -33140.03 
   90600    283.15799   -11179.137    48.954331   -11228.092    53173.031 
   90800    342.17736   -11178.335    59.158011   -11237.493   -8235.9006 
   91000     268.8252   -11183.922    46.476378   -11230.398   -15717.591 
   91200    295.82704   -11166.649    51.144644   -11217.793   -4654.0914 
   91400    320.83237    -11173.83    55.467741   -11229.298   -18786.128 
   91600    317.32632   -11180.502    54.861591   -11235.363   -30383.462 
   91800    363.40871   -11164.559    62.828635   -11227.388    -55126.23 
   92000    297.21447   -11181.012    51.384513   -11232.397   -11241.254 
   92200    319.64386   -11181.915    55.262262   -11237.177    17496.921 
   92400    299.71159   -11169.203    51.816233   -11221.019     45654.96 
   92600    284.75769   -11179.758    49.230898   -11228.989   -40274.625 
   92800    297.41085    -11182.15    51.418464   -11233.569   -4933.0138 
   93000    300.86726   -11178.934    52.016033    -11230.95    22041.493 
   93200    259.74848   -11178.439    44.907131   -11223.346   -39002.844 
   93400    333.34335    -11161.38    57.630726   -11219.011   -33397.158 
   93600    288.77992   -11181.197     49.92629   -11231.123    14893.093 
   93800    347.25607   -11182.714    60.036054    -11242.75    48093.829 
   94000     288.2265   -11182.908    49.830609   -11232.739    49365.409 
   94200     334.4444   -11168.817    57.821083   -11226.638    5907.8202 
   94400     312.7869   -11183.474    54.076783   -11237.551    48630.656 
   94600    293.46193   -11184.634    50.735748    -11235.37    15992.066 
   94800    311.79716   -11165.292    53.905671   -11219.198    12679.054 
   95000    336.60756   -11180.693    58.195065   -11238.888   -30140.954 
   95200    233.33307   -11186.017    40.340251   -11226.357   -2588.5482 
   95400    310.75122   -11168.094    53.724841   -11221.819   -16064.966 
   95600    332.74701   -11163.842    57.527626    -11221.37    15640.471 
   95800    278.04863   -11181.689    48.070988    -11229.76    18627.064 
   96000    268.83063   -11180.456    46.477316   -11226.933    19653.742 
   96200    331.79581   -11165.586    57.363177    -11222.95     8966.821 
   96400    347.74013   -11184.395    60.119741   -11244.515    13972.675 
   96600    297.82405   -11183.062    51.489901   -11234.552   -12032.809 
   96800    332.15309   -11175.808    57.424946   -11233.233   -28799.418 
   97000      286.984   -11189.498    49.615799   -11239.114   -37011.793 
   97200    322.66751   -11177.933    55.785012   -11233.718     26204.89 
   97400    388.39265   -11178.101    67.148033   -11245.249   -5504.9253 
   97600    288.27108   -11186.203    49.838318   -11236.042   -43221.777 
   97800    293.76561   -11177.974    50.788251   -11228.762    18983.185 
   98000     326.9952   -11170.399    56.533214   -11226.933    -22060.18 
   98200    253.71085   -11193.579    43.863304   -11237.442    4024.1414 
   98400    250.27498    -11179.35    43.269285   -11222.619   -36403.088 
   98600    330.64176   -11169.785    57.163657   -11226.948   -54085.937 
   98800    258.61397    -11192.18     44.71099   -11236.891    14159.484 
   99000    295.79511   -11182.558    51.139123   -11233.697    12600.292 
   99200    294.32864    -11172.05    50.885591   -11222.936   -42967.767 
   99400    327.93333   -11175.955    56.695404   -11232.651    69097.223 
   99600    256.86931   -11194.873    44.409359   -11239.283   -12364.348 
   99800    315.89805   -11175.734    54.614661   -11230.349    14130.214 
  100000    326.04862   -11167.142    56.369561   -11223.512   -50945.065 
  100200    305.07694   -11182.584    52.743831   -11235.328    6244.3573 
  100400    344.12891   -11181.396    59.495409   -11240.891    15560.087 
  100600     363.1357   -11165.561    62.781436   -11228.343    17643.003 
  100800    285.55954   -11179.813    49.369528   -11229.183   -21408.062 
  101000    349.68139   -11174.376     60.45536   -11234.831    16821.253 
  101200    319.40247   -11169.713    55.220529   -11224.933   -16411.416 
  101400    281.15991   -11187.656    48.608888   -11236.264    1769.9947 
  101600    293.82961   -11180.626    50.799315   -11231.425   -24075.814 
  101800    352.53725   -11172.585    60.949101   -11233.534    4769.1111 
  102000    258.31099    -11185.53    44.658607   -11230.188   -36718.884 
  102200    280.27566   -11169.804    48.456013    -11218.26    12125.866 
  102400    322.34663   -11177.735    55.729536   -11233.465   -17468.267 
  102600    289.13474   -11179.691    49.987632   -11229.679    35618.338 
  102800    316.13445   -11177.513    54.655532   -11232.168   -8793.0125 
  103000    291.11198   -11176.758    50.329471   -11227.088   -17505.808 
  103200    284.54573   -11192.825    49.194253   -11242.019    -8721.412 
  103400    337.96139   -11178.926    58.429125   -11237.355    15462.991 
  103600    313.75316   -11177.256    54.243837   -11231.499    67444.808 
  103800    254.80626   -11182.955    44.052686   -11227.008   -9602.3414 
  104000     297.8286     -11184.7    51.490689    -11236.19   -12185.836 
  104200    310.67653   -11165.046    53.711928   -11218.758    20243.497 
  104400    290.70625   -11176.928    50.259326   -11227.188   -14414.517 
  104600    296.40986   -11179.718    51.245406   -11230.963   -10086.245 
  104800    348.56082   -11165.078    60.261629   -11225.339    -50117.15 
  105000    291.21874   -11175.933     50.34793   -11226.281    12549.409 
  105200    301.67175   -11181.272    52.155118   -11233.427    85374.212 
  105400    352.42026   -11167.175    60.928876   -11228.104   -22243.068 
  105600    277.61127   -11187.471    47.995374   -11235.466    17146.045 
  105800    240.45261   -11181.937    41.571126   -11223.509   -31379.063 
  106000    331.27388   -11172.369    57.272941   -11229.642    5948.3168 
  106200    301.35291   -11183.872    52.099996   -11235.972    45684.142 
  106400    268.27473   -11193.588    46.381209   -11239.969   -26659.175 
  106600      298.488   -11173.419     51.60469   -11225.024   -44423.163 
  106800    306.44851   -11177.621    52.980958   -11230.602   -19152.068 
  107000     249.2903   -11194.498    43.099048   -11237.598   -9030.2834 
  107200    309.21069    -11178.95    53.458504   -11232.409   -53394.136 
  107400    247.10113   -11180.034    42.720568   -11222.755    1436.9799 
  107600    266.95611   -11187.136    46.153237   -11233.289   -31075.765 
  107800    341.10741   -11175.841    58.973031   -11234.814   -52876.212 
  108000    336.59159   -11174.176    58.192304   -11232.369    -17459.05 
  108200    245.00207   -11191.997    42.357669   -11234.355   -10201.803 
  108400    286.20991   -11179.558    49.481967    -11229.04   -10907.224 
  108600    290.76962   -11176.916    50.270282   -11227.186    40900.096 
  108800    269.82547   -11193.049    46.649312   -11239.699     31580.45 
  109000    289.45166   -11176.141    50.042424   -11226.183   -45417.445 
  109200    303.60276   -11174.735    52.488965   -11227.224   -2841.5807 
  109400     267.8384   -11189.065    46.305773   -11235.371    9151.3482 
  109600    255.35145   -11189.737    44.146943   -11233.884    10369.268 
  109800    318.15321   -11174.596    55.004549     -11229.6   -3238.3658 
  110000    300.60375   -11187.834    51.970476   -11239.805   -1944.9304 
  110200    297.25491   -11168.621    51.391505   -11220.013    8916.6828 
  110400    310.99308   -11176.521    53.766656   -11230.288   -5964.8174 
  110600    322.89523    -11184.31    55.824382   -11240.134    42255.866 
  110800    296.08185   -11181.842    51.188698    -11233.03   -74706.119 
  111000    383.75428   -11160.509    66.346119   -11226.855    39518.808 
  111200    308.68944   -11183.701    53.368385    -11237.07   -1492.1714 
  111400    286.74768   -11173.504    49.574941   -11223.079    13529.231 
  111600    307.78446    -11173.65    53.211927   -11226.862   -32474.013 
  111800    276.03168   -11191.089    47.722284   -11238.811    14601.181 
  112000    293.10929   -11176.136     50.67478   -11226.811   -37567.168 
  112200    304.55895   -11183.343    52.654278   -11235.998    4179.6303 
  112400    237.01159   -11192.603    40.976218   -11233.579   -14114.877 
  112600    271.48785   -11179.837    46.936715   -11226.773   -5592.9802 
  112800    349.03032   -11165.627      60.3428    -11225.97    15669.364 
  113000    285.86219   -11179.357    49.421852   -11228.779   -56052.595 
  113200    255.43642   -11185.282    44.161633   -11229.443    46567.848 
  113400    294.31324   -11168.034    50.882929   -11218.917    11405.198 
  113600    329.48395   -11175.933    56.963486   -11232.897    10410.484 
  113800    285.89594   -11182.064    49.427687   -11231.492    42609.288 
  114000    276.85282   -11195.435    47.864249   -11243.299    2544.2236 
  114200    353.32802   -11177.058    61.085815   -11238.144   -11673.138 
  114400    297.57967   -11173.567    51.447651   -11225.015    63827.316 
  114600    273.55983   -11186.455    47.294934    -11233.75   -4354.3775 
  114800    335.79592   -11178.232    58.054744   -11236.286    4720.4315 
  115000    307.11308   -11172.338    53.095854   -11225.434   -39419.566 
  115200    298.68366   -11179.781    51.638517    -11231.42   -26502.509 
  115400    283.47427   -11176.643    49.009012   -11225.652   -9065.9563 
  115600    401.14745   -11154.215    69.353173   -11223.568    31620.874 
  115800    361.92527   -11177.814    62.572168   -11240.387    4215.4083 
  116000    292.06933    -11183.27    50.494985   -11233.765   -9834.2475 
  116200    313.21686   -11171.129    54.151118    -11225.28   -25828.818 
  116400    270.79154   -11182.909    46.816332   -11229.725     3350.948 
  116600     291.6029   -11178.942    50.414346   -11229.357   -42495.908 
  116800    323.03697   -11166.094    55.848888   -11221.943   -5114.1132 
  117000    281.63995   -11176.445    48.691881   -11225.137   -15578.571 
  117200    316.30795    -11180.56    54.685527   -11235.246    5348.4481 
  117400    269.53192     -11195.5    46.598561   -11242.099   -56993.768 
  117600    257.61967   -11174.232    44.539087   -11218.771    900.21572 
  117800    351.17614   -11176.825    60.713784   -11237.539   -16765.334 
  118000    270.92416   -11184.045     46.83926   -11230.885    68642.424 
  118200    346.38064    -11167.28    59.884704   -11227.164    29857.876 
  118400    297.68277   -11172.315    51.465476    -11223.78    65215.011 
  118600    298.02549    -11186.73    51.524729   -11238.254     39340.92 
  118800    321.77494   -11171.293    55.630698   -11226.923    45745.718 
  119000    325.12248   -11176.602    56.209444   -11232.812    33147.888 
  119200    256.25909   -11192.664     44.30386   -11236.968     11987.85 
  119400    356.57118   -11175.495    61.646516   -11237.141   -20044.083 
  119600    283.70089   -11174.419    49.048191   -11223.467    32149.682 
  119800    237.35298   -11186.446    41.035241   -11227.481   -31505.119 
  120000    331.81159   -11174.997    57.365905   -11232.363    28624.621 
  120200    348.32605   -11170.393    60.221041   -11230.614    -22901.57 
  120400    277.96249   -11179.367    48.056096   -11227.423   -18831.085 
  120600    308.46445   -11171.452    53.329488   -11224.781   -60379.218 
  120800    290.94932   -11168.685    50.301351   -11218.987    24284.473 
  121000    328.05648   -11178.134    56.716696   -11234.851    11759.716 
  121200    294.45096   -11171.872    50.906738   -11222.779    10937.368 
  121400    352.45804   -11168.864    60.935408     -11229.8    60510.767 
  121600    299.63745   -11179.456    51.803415    -11231.26    44557.528 
  121800    315.12914   -11178.484    54.481726   -11232.966    12346.786 
  122000    321.85379   -11171.436    55.644331    -11227.08    46590.411 
  122200    295.53171   -11183.299    51.093585   -11234.393   -35785.587 
  122400    297.82722   -11184.826    51.490449   -11236.316    4598.5818 
  122600    392.52765   -11159.545    67.862921   -11227.408   -3126.2875 
  122800     294.1333   -11174.777    50.851818   -11225.629   -31986.692 
  123000    317.17766   -11181.442    54.835889   -11236.278   -36395.704 
  123200    307.62719   -11183.247    53.184737   -11236.432    65633.812 
  123400    301.63342   -11168.054    52.148492   -11220.202   -26220.218 
  123600    295.26853   -11189.083    51.048085   -11240.131   -6321.7602 
  123800    307.95597   -11182.669    53.241578   -11235.911   -37066.499 
  124000    379.51127   -11169.876    65.612558   -11235.489    46110.248 
  124200    300.80427    -11174.96    52.005143   -11226.966   -48868.959 
  124400    250.74146   -11181.807    43.349935   -11225.157   -45423.816 
  124600    338.56045   -11179.038    58.532694   -11237.571    19912.335 
  124800    284.99015   -11182.912    49.271087   -11232.183   -25609.227 
  125000    353.40336   -11170.145    61.098842   -11231.244    23087.948 
  125200    267.87241   -11180.885    46.311653   -11227.197     -9919.18 
  125400    263.83666    -11184.65    45.613923   -11230.264   -15636.098 
  125600    305.37033   -11174.578    52.794555   -11227.373   -36588.589 
  125800    319.35514   -11169.467    55.212346   -11224.679   -21932.709 
  126000    286.06264   -11188.928    49.456506   -11238.385    3082.7518 
  126200    288.64213   -11176.293    49.902468   -11226.196    220.71039 
  126400    328.79839   -11175.893    56.844961   -11232.738    24523.857 
  126600    286.71363   -11179.014    49.569055   -11228.583    11074.373 
  126800     240.4876   -11198.381    41.577176   -11239.958    35897.307 
  127000    291.08074   -11189.752    50.324071   -11240.076   -10579.068 
  127200    348.22142   -11176.871    60.202951   -11237.074    19667.392 
  127400    274.86663   -11194.256    47.520862   -11241.776    -12637.38 
  127600     212.7901   -11205.232    36.788638    -11242.02    3567.1661 
  127800    287.82447   -11190.936    49.761104   -11240.697    13344.074 
  128000    298.41811   -11187.867    51.592608   -11239.459   -2963.4296 
  128200    319.16575   -11177.453    55.179604   -11232.632   -3393.6761 
  128400    300.93678   -11173.008    52.028051   -11225.036    42769.374 
  128600    314.35555   -11189.994    54.347982   -11244.342   -33209.837 
  128800    309.15462   -11173.805    53.448809   -11227.254   -1374.3033 
  129000    342.81651   -11169.232    59.268512   -11228.501     1696.013 
  129200    288.19961   -11187.463     49.82596   -11237.289    6898.5793 
  129400    301.05148   -11178.848    52.047882   -11230.896    15150.104 
  129600    336.79701   -11162.687    58.227819   -11220.915   -152.66828 
  129800    311.27882   -11180.024    53.816056    -11233.84     25565.58 
  130000    268.43113   -11189.468    46.408248   -11235.876    29307.827 
  130200    332.92556   -11175.344    57.558495   -11232.902    37130.998 
  130400    316.14703   -11178.729    54.657706   -11233.387    -23037.74 
  130600    296.48589    -11201.04    51.258551   -11252.299     1519.219 
  130800    287.85447    -11191.59    49.766291   -11241.356    43968.977 
  131000    321.47531   -11182.103    55.578896   -11237.682   -1018.6047 
  131200    236.82197   -11197.653    40.943436   -11238.597    6736.8559 
  131400    268.12779   -11196.215    46.355805    -11242.57   -18185.119 
  131600    309.86457   -11181.457    53.571551   -11235.029    5007.0516 
  131800    231.88601   -11196.918    40.090073   -11237.008    21986.305 
  132000     296.7281   -11189.822    51.300426   -11241.122    43347.942 
  132200    306.99702   -11182.519    53.075788   -11235.595    -68707.72 
  132400    255.81624     -11183.2    44.227299   -11227.427   -17612.819 
  132600    283.30236   -11173.047     48.97929   -11222.026   -22337.204 
  132800    261.76822   -11187.385    45.256318   -11232.642    78950.214 
  133000    294.45839   -11181.617    50.908023   -11232.525   -37701.396 
  133200    357.02417   -11178.181    61.724831   -11239.906    52583.834 
  133400     304.6347   -11185.008    52.667374   -11237.676    14387.912 
  133600    301.92957   -11193.926    52.199693   -11246.126   -28798.126 
  133800    288.51292   -11181.857    49.880129   -11231.737    33156.952 
  134000    331.82758   -11176.469    57.368669   -11233.838    23115.278 
  134200    300.31844   -11191.527    51.921148   -11243.448    13931.511 
  134400    293.87044   -11186.199    50.806374   -11237.006   -27917.761 
  134600    313.68044   -11186.218    54.231265   -11240.449    1732.9713 
  134800    272.48826   -11171.712    47.109672   -11218.822    21475.485 
  135000    296.76039   -11175.112    51.306008   -11226.418    22006.697 
  135200    303.65194   -11189.744    52.497468   -11242.241    41391.272 
  135400    268.59444   -11200.815    46.436482   -11247.251     6959.729 
  135600    315.59335   -11184.802    54.561982   -11239.364   -63724.307 
  135800    286.09303    -11180.15    49.461761   -11229.612   -28158.699 
  136000    267.78798   -11196.661    46.297056   -11242.959   -4091.1591 
  136200    260.55261   -11186.932    45.046154   -11231.978   -64925.394 
  136400    301.03757   -11181.455    52.045477     -11233.5     13716.38 
  136600      281.097   -11193.369    48.598013   -11241.967    32647.972 
  136800    319.07977    -11171.16    55.164738   -11226.325   -14399.076 
  137000    296.67554   -11181.172    51.291339   -11232.463   -61476.835 
  137200    308.86028   -11180.099    53.397922   -11233.497    4935.4019 
  137400    345.52231   -11170.105     59.73631   -11229.841   -9542.8737 
  137600    258.57792    -11189.47    44.704756   -11234.174   -61078.019 
  137800    349.06992   -11173.227    60.349646   -11233.576    18970.712 
  138000    291.77508   -11176.491    50.444113   -11226.935   -41391.541 
  138200    262.61539   -11191.555    45.402782   -11236.957    1956.8125 
  138400    309.67241   -11190.861    53.538329   -11244.399    27354.298 
  138600     257.4322   -11200.574    44.506676    -11245.08     13461.47 
  138800    302.89812   -11185.861    52.367143   -11238.228    18205.749 
  139000    261.62376   -11182.137    45.231343   -11227.368    10535.673 
  139200    379.95803   -11165.554    65.689797   -11231.244    20181.796 
  139400    274.89759   -11189.024    47.526215    -11236.55    18718.027 
  139600    243.27896   -11198.714    42.059765   -11240.774   -41823.932 
  139800    284.83964   -11179.249    49.245066   -11228.494   -24756.351 
  140000    269.17126   -11176.817    46.536206   -11223.353     17839.13 
  140200    272.90683   -11195.412    47.182039   -11242.594    22911.919 
  140400    316.73124    -11195.59    54.758708   -11250.349    17263.353 
  140600     311.7792   -11176.927    53.902565   -11230.829   -52432.411 
  140800     282.0488   -11183.755    48.762565   -11232.517   -25602.847 
  141000    245.02795   -11198.252    42.362143   -11240.614   -48387.303 
  141200    311.45782   -11182.224    53.847003   -11236.071    -24105.72 
  141400    300.41911   -11189.852    51.938554    -11241.79    52843.473 
  141600    247.01636   -11197.076    42.705912   -11239.782    16057.115 
  141800    233.12761   -11185.551    40.304729   -11225.856   -7205.5359 
  142000    296.72974   -11177.499     51.30071     -11228.8   -19698.391 
  142200    297.45886    -11197.84    51.426764   -11249.267    5944.5134 
  142400     295.1898   -11199.911    51.034475   -11250.946   -74028.503 
  142600    303.08135   -11191.939     52.39882   -11244.338    20209.083 
  142800    337.89683   -11180.692    58.417963    -11239.11   -5210.3048 
  143000    330.76638   -11177.918    57.185201   -11235.103    47111.058 
  143200     276.6536   -11194.708    47.829807   -11242.538    59638.358 
  143400    272.86944   -11189.491    47.175574   -11236.666   -318.22258 
  143600    316.91704   -11183.921     54.79083   -11238.712     257.5239 
  143800    318.28578   -11176.463    55.027469   -11231.491    19704.294 
  144000    305.75577   -11188.972    52.861193   -11241.833    -9714.512 
  144200    300.27734   -11185.623    51.914044   -11237.537   -2168.6996 
  144400    322.68284   -11177.029    55.787663   -11232.817    57739.167 
  144600    274.14191   -11197.016    47.395568   -11244.412    47985.746 
  144800    297.32511   -11179.044    51.403642   -11230.447   -52846.324 
  145000    325.72053   -11183.279    56.312839   -11239.592    13116.847 
  145200    237.88889   -11198.367    41.127892   -11239.495   -15795.997 
  145400    275.28078   -11182.945    47.592464   -11230.537   -18656.701 
  145600    317.61739   -11183.477    54.911912   -11238.389   -28267.168 
  145800    285.03969   -11196.203    49.279652   -11245.483    17283.529 
  146000    279.68309   -11185.989    48.353565   -11234.342   -37944.913 
  146200    329.88474   -11176.952    57.032778   -11233.985   -34555.035 
  146400    261.44085   -11193.361    45.199719   -11238.561    53147.325 
  146600    312.82797   -11185.904    54.083883   -11239.988    37526.074 
  146800    268.95305   -11187.161    46.498482    -11233.66   -6404.9564 
  147000    325.88793   -11175.469    56.341782   -11231.811   -31036.932 
  147200    277.11213   -11185.586    47.909081   -11233.495    5516.6565 
  147400     316.5521   -11190.473    54.727738     -11245.2   -27292.194 
  147600     364.8269   -11171.782    63.073822   -11234.856    4662.2689 
  147800    312.27913   -11193.011    53.988997       -11247   -29037.241 
  148000    297.97412   -11181.468    51.515847   -11232.983    5006.0127 
  148200    353.52411   -11175.613    61.119717   -11236.733    24741.561 
  148400    226.90198   -11195.631    39.228399    -11234.86   -2845.0846 
  148600    285.33465   -11188.822    49.330646   -11238.152   -23972.328 
  148800    320.39318   -11179.366    55.391811   -11234.757    14511.538 
  149000    342.75477   -11173.341    59.257839   -11232.599    37509.304 
  149200    297.92857   -11192.925    51.507972   -11244.433   -2781.3749 
  149400    273.99952   -11193.677     47.37095   -11241.048     21938.89 
  149600    297.16528   -11188.296    51.376009   -11239.672    16192.455 
  149800      300.251    -11182.06    51.909489    -11233.97     75817.28 
  150000    262.85574   -11193.228    45.444337   -11238.672    28441.344 
  150200    377.17144   -11173.829    65.208033   -11239.037    58830.852 
  150400    252.84694   -11187.376    43.713944    -11231.09   -19386.601 
  150600    278.84559   -11197.654    48.208773   -11245.863   -34095.498 
  150800    303.96362   -11184.845    52.551354   -11237.397   -3978.8586 
  151000    302.40446   -11184.155    52.281795   -11236.437    56490.044 
  151200    237.84442    -11201.96    41.120204    -11243.08     6925.568 
  151400    299.77468   -11187.166     51.82714   -11238.993   -9049.8236 
  151600    335.05982   -11185.922    57.927482   -11243.849   -17022.709 
  151800    274.43949   -11187.403    47.447015    -11234.85    20725.737 
  152000    330.02264   -11173.464    57.056619   -11230.521   -12834.725 
  152200    304.30337   -11189.897    52.610092   -11242.507    24746.645 
  152400    264.36837   -11184.036    45.705851   -11229.742   -46394.008 
  152600    366.64207   -11173.525    63.387641   -11236.913   -8715.4835 
  152800    295.80944   -11183.978    51.141601   -11235.119    84963.792 
  153000    274.52123   -11182.437    47.461146   -11229.898    36330.866 
  153200    331.29251   -11167.125    57.276162   -11224.401   -29305.785 
  153400    287.25495   -11187.844    49.662642   -11237.506    78037.044 
  153600    339.18365   -11182.696    58.640438   -11241.336    10982.265 
  153800    283.77817   -11176.461    49.061552   -11225.523   -2386.5447 
  154000    300.39432   -11177.694    51.934267   -11229.628   -56342.939 
  154200    273.58921    -11187.45    47.300012    -11234.75    86054.403 
  154400    352.35158   -11173.863    60.917002    -11234.78    11229.195 
  154600    247.41729   -11183.892    42.775229   -11226.667    58631.321 
  154800    290.52244   -11193.045    50.227548   -11243.272    8636.3508 
  155000    352.88503   -11178.839    61.009229   -11239.848   -49698.551 
  155200    343.10125   -11181.802     59.31774    -11241.12   -3195.4311 
  155400    278.47925   -11193.613    48.145438   -11241.758    378.51391 
  155600    372.24421   -11177.822    64.356178   -11242.178     12035.42 
  155800    270.37713   -11179.893    46.744686   -11226.638    7825.9421 
  156000    318.74419   -11188.719    55.106722   -11243.826   -10655.559 
  156200    273.85482   -11186.146    47.345933   -11233.492    14792.171 
  156400    352.19322   -11177.724    60.889623   -11238.614   -11003.201 
  156600    288.92201   -11182.682    49.950854   -11232.633    -49074.14 
  156800    269.64539   -11188.989    46.618178   -11235.607   -3827.1298 
  157000    314.41119    -11182.59    54.357602   -11236.948    71768.728 
  157200    299.03195   -11180.746    51.698732   -11232.444    892.80797 
  157400    498.66019   -11200.046    86.211856   -11286.257     -50741.8 
  157600    366.19123   -11251.158    63.309696   -11314.468    23389.747 
  157800    276.00163   -11261.409    47.717088   -11309.127    5523.8525 
  158000    304.93964   -11247.941    52.720094   -11300.661    25136.171 
  158200    335.66748   -11237.607    58.032537    -11295.64    78646.333 
  158400    259.94083   -11257.766    44.940385   -11302.706    5723.3302 
  158600    319.68568   -11251.916    55.269492   -11307.186   -20747.183 
  158800    305.08507   -11241.799    52.745238   -11294.544   -33859.092 
  159000    255.76089   -11258.616    44.217728   -11302.834   -7987.4143 
  159200    294.33414   -11257.679    50.886541   -11308.566     3904.899 
  159400    353.19857   -11241.037    61.063435     -11302.1   -26780.339 
  159600    280.99401   -11255.654    48.580207   -11304.234    39115.674 
  159800    312.34691    -11249.02    54.000715   -11303.021   -35844.413 
  160000    363.98549   -11232.686    62.928353   -11295.614   -75624.819 
  160200    292.36359   -11256.443    50.545859   -11306.989   -31621.203 
  160400    291.12082   -11250.879    50.331001    -11301.21   -3059.8285 
  160600    352.35702   -11238.752    60.917943    -11299.67    31803.152 
  160800    283.66741   -11251.108    49.042403   -11300.151    22527.245 
  161000    313.75923   -11247.657    54.244887   -11301.902    39541.075 
  161200    411.11174   -11237.156    71.075869   -11308.232   -75698.049 
  161400    259.54545   -11255.735     44.87203   -11300.608    1681.0991 
  161600    321.36383   -11249.758    55.559623   -11305.318     -13962.8 
  161800    390.88266   -11227.024    67.578523   -11294.602    6755.3848 
  162000    291.70848   -11252.643      50.4326   -11303.075   -14198.479 
  162200    330.26554   -11254.986    57.098613   -11312.084    66437.352 
  162400    312.54887   -11253.464     54.03563   -11307.499    16734.925 
  162600    281.71395   -11259.445    48.704676    -11308.15   -11808.843 
  162800    312.06404   -11253.485    53.951811   -11307.436   -4699.1386 
  163000    348.82203   -11250.425    60.306788   -11310.732    1541.1298 
  163200    321.04585   -11236.706    55.504648   -11292.211    12234.305 
  163400    281.38086   -11250.535    48.647088   -11299.183     47532.33 
  163600    321.70936   -11243.768    55.619361   -11299.388   -48906.928 
  163800    281.81068   -11262.326    48.721399   -11311.048    35689.018 
  164000    347.97062   -11249.692     60.15959   -11309.851   -16534.907 
  164200    345.28893   -11244.393    59.695961   -11304.089   -27022.986 
  164400    229.35539   -11267.967    39.652561   -11307.619   -35596.457 
  164600    286.18558   -11246.762    49.477761    -11296.24   -4547.9226 
  164800    291.27409   -11249.219    50.357498   -11299.576    19357.023 
  165000    286.32601   -11264.355     49.50204   -11313.857   -25699.042 
  165200     299.8585   -11255.129    51.841632   -11306.971   -24770.358 
  165400    286.33077   -11249.662    49.502864   -11299.165    37462.792 
  165600    373.23954   -11233.796    64.528259   -11298.324     5877.203 
  165800    308.74272   -11251.774    53.377597   -11305.151   -29545.197 
  166000     304.6856   -11248.533    52.676175   -11301.209    55250.582 
  166200    362.55801   -11227.365    62.681561   -11290.046   -83949.511 
  166400    334.81483   -11251.776    57.885126   -11309.661   -31712.284 
  166600     258.3551   -11257.438    44.666234   -11302.104   -31898.364 
  166800    326.28431   -11241.937    56.410309   -11298.348      58787.9 
  167000    231.05911   -11258.465    39.947113   -11298.413     13055.59 
  167200    255.12847   -11264.203    44.108392   -11308.311    14814.741 
  167400    288.90139   -11249.399     49.94729   -11299.346    14803.849 
  167600    377.62903   -11234.271    65.287144   -11299.559    28025.023 
  167800    290.05043   -11258.379    50.145944   -11308.525    45713.099 
  168000    329.75798   -11253.104    57.010863   -11310.115   -16428.281 
  168200    222.61617   -11263.094    38.487438   -11301.581    9802.8991 
  168400    289.43974   -11249.047    50.040364   -11299.088    25518.634 
  168600    281.77149   -11259.996    48.714624   -11308.711   -11884.903 
  168800    260.74047   -11265.466    45.078633   -11310.545   -15969.438 
  169000    295.03342   -11244.597    51.007437   -11295.605   -36097.951 
  169200    362.99862   -11246.808    62.757737   -11309.565    44266.043 
  169400    308.00195   -11259.387    53.249527   -11312.637   -14308.529 
  169600    369.73014   -11254.339    63.921528    -11318.26   -30193.175 
  169800    293.81891    -11265.58    50.797464   -11316.377    31933.671 
  170000    321.57994   -11251.598    55.596986   -11307.195   -7330.9333 
  170200    352.19535    -11245.12    60.889992    -11306.01   -3909.8072 
  170400    277.33967   -11259.838    47.948419   -11307.787   -34914.723 
  170600    292.98758   -11254.392    50.653739   -11305.046   -22791.635 
  170800    315.31274   -11249.666    54.513467   -11304.179    -4727.208 
  171000     279.3949   -11257.193    48.303741   -11305.497    721.40757 
  171200    306.78087   -11256.832     53.03842   -11309.871   -26985.348 
  171400    291.60937   -11258.658    50.415465   -11309.074    21133.873 
  171600    251.76778   -11261.888    43.527371   -11305.415   -11201.856 
  171800    333.97587   -11255.743     57.74008   -11313.483    28726.294 
  172000    286.82547   -11266.602    49.588391    -11316.19    17713.867 
  172200    277.58445   -11261.833    47.990739   -11309.823    28117.563 
  172400     324.7036    -11247.33    56.137026   -11303.467    5582.5954 
  172600    289.19958   -11248.691    49.998842   -11298.689    7809.7284 
  172800    247.62163     -11262.7    42.810557   -11305.511   -3044.0418 
  173000    353.45453   -11245.064    61.107687   -11306.172    22511.977 
  173200    315.52533   -11239.971    54.550222   -11294.522    10035.981 
  173400     268.7209   -11257.101    46.458345   -11303.559    12468.682 
  173600    317.30137   -11252.399    54.857277   -11307.257    19711.128 
  173800    314.68445   -11237.854    54.404846   -11292.259        10322 
  174000    273.50439   -11251.556    47.285349   -11298.841    16090.861 
  174200    301.30005   -11257.595    52.090856   -11309.686   -66837.377 
  174400    294.40236   -11265.507    50.898336   -11316.405    9944.4137 
  174600    304.22839   -11253.868    52.597128   -11306.465    59989.797 
  174800    301.45638    -11245.42    52.117884   -11297.537   -22027.769 
  175000    292.48154   -11267.313     50.56625   -11317.879   -37852.857 
  175200    273.94431   -11255.634    47.361405   -11302.996   -56530.742 
  175400    287.23786    -11244.88    49.659688    -11294.54    36364.864 
  175600    300.06242   -11250.561    51.876887   -11302.438   -32899.698 
  175800    264.87635    -11262.99    45.793673   -11308.784   -52260.932 
  176000    261.48361   -11245.093    45.207113     -11290.3    50467.249 
  176200    293.04761   -11256.228    50.664117   -11306.892   -22435.744 
  176400    307.56535   -11258.648    53.174046   -11311.823    63944.864 
  176600    310.86583   -11238.879    53.744655   -11292.624    34215.276 
  176800    318.12094   -11248.262    54.998969   -11303.261   -20242.177 
  177000    279.13093   -11259.266    48.258104   -11307.524    54920.486 
  177200    224.45199   -11277.886    38.804828   -11316.691   -25127.569 
  177400    267.11984       -11261    46.181544   -11307.182    23662.735 
  177600    333.72549   -11249.684    57.696792   -11307.381   -32081.489 
  177800    225.46231   -11262.986    38.979498   -11301.965   -5671.5565 
  178000    299.17639   -11248.848    51.723703   -11300.572   -8328.9885 
  178200    293.72051   -11250.089    50.780453   -11300.869    29023.754 
  178400    331.40089   -11249.264    57.294901   -11306.559   -18652.912 
  178600    263.41113   -11261.885    45.540356   -11307.426   -91453.071 
  178800    266.41456   -11251.734     46.05961   -11297.794   -2427.0524 
  179000    319.08683   -11247.775    55.165959   -11302.941    -4319.258 
  179200    337.08746   -11257.605    58.278034   -11315.883   -21801.939 
  179400    379.42713   -11237.809    65.598011   -11303.407   -40414.998 
  179600    311.08876   -11253.372    53.783197   -11307.155    68082.047 
  179800    290.29671   -11256.017    50.188522   -11306.205    10090.639 
  180000    302.63777   -11236.995     52.32213   -11289.317   -17796.626 
  180200    306.90625   -11240.511    53.060095   -11293.571    41468.236 
  180400    305.05147   -11246.499    52.739428   -11299.238    12802.465 
  180600    306.06878   -11259.688    52.915309   -11312.603   -60364.896 
  180800    226.15701   -11268.132    39.099603   -11307.232    39645.694 
  181000     285.2697   -11251.189    49.319418   -11300.508    3692.9623 
[...]
  950000    243.60647   -11266.518    42.116388   -11308.634    29816.309 
  950200    312.42111   -11250.924    54.013542   -11304.937    81469.807 
  950400     301.3281   -11252.268    52.095706   -11304.364   -11062.721 
  950600    253.42748   -11242.219    43.814312   -11286.033    -15540.96 
  950800    326.97325   -11248.358    56.529418   -11304.887   -11464.066 
  951000    304.65667   -11255.969    52.671172   -11308.641    44063.463 
  951200    309.29926   -11261.136    53.473816    -11314.61   -8454.6693 
  951400    290.74728   -11243.842     50.26642   -11294.109     -25313.8 
  951600    260.72677   -11261.888    45.076265   -11306.964   -28026.324 
  951800    315.51011   -11255.644     54.54759   -11310.191    36956.889 
  952000    295.57045   -11244.164    51.100284   -11295.264    8166.1387 
  952200    272.34213   -11251.882     47.08441   -11298.967   -16250.531 
  952400    265.60498   -11259.401    45.919643   -11305.321    80822.151 
  952600    328.17041   -11239.947    56.736393   -11296.684    10237.058 
  952800    317.29283   -11248.329      54.8558   -11303.185    64163.808 
  953000    314.17217   -11253.477    54.316278   -11307.794   -18696.473 
  953200    293.43325   -11244.852    50.730789   -11295.583   -34183.211 
  953400    312.02022   -11242.482    53.944235   -11296.427    52318.631 
  953600    257.98114   -11255.298    44.601581     -11299.9   -37534.327 
  953800    361.15848   -11237.172    62.439599   -11299.612   -57818.311 
  954000    258.68186   -11257.997    44.722726    -11302.72   -31126.041 
  954200     247.2403   -11247.464    42.744629   -11290.209   -64067.844 
  954400    322.07943   -11239.681    55.683341   -11295.364    46797.122 
  954600    278.92668   -11253.692    48.222792   -11301.914     46215.35 
  954800    333.80209    -11250.97    57.710036    -11308.68    31208.624 
  955000    342.76991     -11232.5    59.260456    -11291.76    18051.486 
  955200    307.54276   -11253.642    53.170139   -11306.812    3073.8785 
  955400    313.65791   -11254.768     54.22737   -11308.995    37094.088 
  955600    294.71359    -11235.65    50.952143   -11286.603    63687.133 
  955800    324.56868   -11238.831    56.113701   -11294.945   -11818.895 
  956000    299.60736   -11251.134    51.798212   -11302.932    18165.151 
  956200     316.5599   -11249.093    54.729086   -11303.823    17466.944 
  956400    347.54182   -11238.018    60.085456   -11298.104   -25034.617 
  956600    329.93793   -11251.462    57.041973   -11308.504   -16639.588 
  956800    301.48682   -11256.839    52.123146   -11308.962   -5757.6056 
  957000    249.21967   -11260.463    43.086838    -11303.55   -42572.146 
  957200    297.30161    -11244.39    51.399578    -11295.79   -32059.581 
  957400    267.49878   -11257.521    46.247058   -11303.768   -19264.968 
  957600    284.79381    -11256.87    49.237142   -11306.107   -22117.177 
  957800    315.45662   -11247.206    54.538344   -11301.745    25312.683 
  958000     258.8119   -11255.538    44.745208   -11300.284   -52988.332 
  958200    305.31518   -11257.215     52.78502       -11310    13765.351 
  958400      286.839    -11242.54     49.59073   -11292.131   -50702.719 
  958600    298.47355   -11252.192    51.602192   -11303.794   -3501.3194 
  958800    308.65623    -11261.41    53.362644   -11314.772   -26719.846 
  959000    261.66158   -11261.244    45.237881   -11306.482   -26194.995 
  959200    307.52321   -11246.946    53.166759   -11300.112   -14667.388 
  959400     255.7063   -11256.853    44.208291   -11301.062   -43644.824 
  959600    263.03602   -11260.753    45.475504   -11306.229   -9967.5542 
  959800    291.77312   -11251.294    50.443775   -11301.737    3208.0933 
  960000    308.91835   -11247.781    53.407962   -11301.189   -42163.324 
  960200    324.15126   -11235.974    56.041534   -11292.016   -15437.291 
  960400    305.44108   -11256.722    52.806786   -11309.528     28464.02 
  960600    359.46305   -11247.872    62.146483   -11310.019    14059.167 
  960800    326.62313   -11242.428    56.468888   -11298.897    117105.69 
  961000    242.74898   -11263.268    41.968138   -11305.236   -22944.746 
  961200    295.49278   -11247.539    51.086855   -11298.625    60248.258 
  961400     302.1797   -11251.558    52.242937   -11303.801    17963.917 
  961600    334.34874   -11256.757    57.804545   -11314.561     37751.46 
  961800    298.43402   -11258.668    51.595357   -11310.263   -6986.1898 
  962000    319.74093   -11242.973    55.279045   -11298.252   -45193.276 
  962200    323.47239    -11245.58    55.924166   -11301.504   -31238.427 
  962400    266.68946   -11262.115    46.107137   -11308.223    225.48693 
  962600    319.02309   -11247.617     55.15494   -11302.772    6474.1632 
  962800    267.57158   -11245.734    46.259642   -11291.994    -19472.05 
  963000       311.97   -11250.685    53.935553   -11304.621    31971.476 
  963200    322.03031   -11250.948    55.674848   -11306.623   -29124.526 
  963400    362.56034   -11237.028    62.681963    -11299.71   -1706.4515 
  963600    271.11093   -11253.304    46.871551   -11300.176   -23903.891 
  963800     335.5334    -11249.53    58.009358    -11307.54    13163.431 
  964000    257.60903    -11254.88    44.537248   -11299.417    43266.923 
  964200    256.24842   -11264.347    44.302016   -11308.649    -38524.82 
  964400     328.4915   -11250.548    56.791904    -11307.34    52314.467 
  964600    274.74022   -11260.908    47.499008   -11308.407    27130.567 
  964800    329.19711   -11247.836    56.913895    -11304.75   -9712.4059 
  965000    295.47676   -11247.711    51.084086   -11298.795   -8993.9664 
  965200    252.05219   -11262.768    43.576543   -11306.344   -38499.615 
  965400    330.25767   -11251.155    57.097252   -11308.253    2565.1293 
  965600    302.37319   -11247.099    52.276389   -11299.375   -19141.303 
  965800    338.31863   -11241.617    58.490888   -11300.108    20555.096 
  966000    281.91643   -11263.196    48.739681   -11311.936    22777.451 
  966200    297.96232   -11254.745    51.513806   -11306.259    23233.065 
  966400    252.12962   -11252.135     43.58993   -11295.725    32241.175 
  966600    303.24762   -11254.163    52.427565    -11306.59    16058.754 
  966800    243.68235   -11266.004    42.129506   -11308.133   -8641.0055 
  967000    310.14963   -11246.618    53.620834   -11300.239    16842.854 
  967200    358.60371   -11244.683    61.997914   -11306.681    35854.268 
  967400    256.73392    -11266.23    44.385953   -11310.616   -4386.7083 
  967600    267.33069   -11263.246    46.217997   -11309.464    48445.607 
  967800    306.98597   -11249.588    53.073879   -11302.662   -5331.0242 
  968000    302.78061   -11255.124    52.346825    -11307.47    10937.645 
  968200    268.86458   -11265.112    46.483185   -11311.595   -39958.892 
  968400    318.26641   -11248.634    55.024119   -11303.659   -37527.432 
  968600    294.38544   -11263.615    50.895411    -11314.51    41608.278 
  968800    302.87536   -11258.554    52.363207   -11310.917   -41380.766 
  969000    313.56065    -11254.91    54.210555    -11309.12    66467.891 
  969200    322.67328   -11239.142    55.786009   -11294.928   -53452.637 
  969400    350.38353   -11231.772    60.576752   -11292.349    4519.9445 
  969600    312.30329    -11258.23    53.993174   -11312.223   -2384.2862 
  969800    264.86908   -11254.446    45.792416   -11300.238     9527.517 
  970000    336.78748   -11244.847    58.226171   -11303.074   -4126.1161 
  970200    290.80759   -11253.047    50.276847   -11303.324   -44378.783 
  970400    295.64228   -11252.932    51.112702   -11304.045    9880.5714 
  970600    271.54297   -11255.483    46.946245   -11302.429    38911.114 
  970800    380.02917   -11236.528    65.702097    -11302.23   -39481.263 
  971000    330.70206   -11250.844    57.174082   -11308.019    49982.646 
  971200    303.37414    -11257.35    52.449439   -11309.799    53823.699 
  971400    305.09922   -11238.113    52.747683   -11290.861     37053.47 
  971600     352.7476   -11236.567    60.985468   -11297.553   -33446.779 
  971800    263.60067   -11251.734    45.573124   -11297.307    36512.514 
  972000      244.295   -11260.135    42.235426    -11302.37    -32347.46 
  972200    267.83889   -11261.402    46.305858   -11307.708    23783.817 
  972400    335.10967   -11242.293    57.936099   -11300.229    27667.513 
  972600    309.60375   -11258.101    53.526459   -11311.627   -14667.609 
  972800    279.91812   -11252.899      48.3942   -11301.293    15875.342 
  973000      329.458   -11241.668       56.959   -11298.627    16925.583 
  973200    250.66263   -11263.265    43.336306   -11306.601   -4859.8234 
  973400    247.56728   -11253.144     42.80116   -11295.945    5705.5062 
  973600    322.01278   -11242.927    55.671818   -11298.599   -20855.563 
  973800    263.55829    -11261.11    45.565798   -11306.676    43207.419 
  974000    302.06847   -11250.482    52.223706   -11302.706   -51795.398 
  974200    297.54455     -11246.5     51.44158   -11297.942   -61779.364 
  974400    299.82094   -11249.802    51.835138   -11301.637    32622.063 
  974600    244.04249   -11271.212    42.191769   -11313.404    18712.751 
  974800      291.617   -11256.875    50.416784   -11307.292    47635.579 
  975000    314.85966   -11245.984    54.435136    -11300.42   -16767.875 
  975200    287.98795   -11253.994    49.789368   -11303.783    420.58721 
  975400    244.99082   -11264.437    42.355723   -11306.793   -37995.551 
  975600    309.79967   -11248.379     53.56033    -11301.94   -2325.7783 
  975800    350.75556    -11232.02     60.64107   -11292.661    11306.516 
  976000    341.83451   -11248.542    59.098737   -11307.641    15527.152 
  976200    261.33936   -11260.603    45.182173   -11305.786    25454.065 
  976400    319.62027   -11261.663    55.258184   -11316.921   -4419.8731 
  976600    296.32723   -11244.248    51.231122   -11295.479   -6813.0774 
  976800     274.2837   -11257.969    47.420082    -11305.39    49548.551 
  977000    271.24051   -11260.678    46.893954   -11307.572   -339.38007 
  977200    302.79242   -11248.555    52.348868   -11300.904    27839.125 
  977400    284.22006   -11250.885    49.137949   -11300.023    9099.5619 
  977600    284.60119   -11263.709    49.203841   -11312.912   -25458.749 
  977800    276.84175   -11249.892    47.862335   -11297.754   -43757.872 
  978000    322.23011   -11244.837    55.709392   -11300.546    15846.343 
  978200    258.51517   -11262.653    44.693908   -11307.347    31383.225 
  978400    268.74664   -11256.178    46.462796   -11302.641    7722.1397 
  978600     358.0443   -11243.698    61.901198   -11305.599    79436.054 
  978800    303.41143   -11261.377    52.455887   -11313.833   -904.96547 
  979000    288.47436   -11258.023    49.873462   -11307.896    7880.0303 
  979200    286.51239   -11249.512    49.534263   -11299.046    57856.552 
  979400    289.71261   -11239.205    50.087538   -11289.293    46273.135 
  979600    296.00309   -11246.583    51.175082   -11297.758    11175.132 
  979800    224.36265   -11256.885    38.789381   -11295.674    19091.562 
  980000    301.85018   -11240.578    52.185967   -11292.764    29105.258 
  980200    291.13497   -11245.801    50.333447   -11296.135    37374.994 
  980400    275.02774   -11254.788    47.548716   -11302.337    25139.343 
  980600    343.60511    -11245.88    59.404852   -11305.285   -9311.3181 
  980800    253.58424   -11262.916    43.841414   -11306.757   -62380.965 
  981000    258.70909   -11253.268    44.727435   -11297.996    16469.287 
  981200    300.56769   -11250.882    51.964241   -11302.847   -8477.5606 
  981400    269.71796    -11252.57    46.630724     -11299.2   -30517.194 
  981600    323.31269   -11236.484    55.896555    -11292.38   -13001.982 
  981800    302.18219   -11255.006    52.243366   -11307.249   -43198.485 
  982000    261.20218    -11254.15    45.158457   -11299.308    19872.075 
  982200    351.84278   -11234.537    60.829036   -11295.366    16353.388 
  982400    270.05787   -11249.429     46.68949   -11296.119   -29988.268 
  982600    292.19415   -11251.326    50.516565   -11301.843   -30819.787 
  982800    312.82904    -11245.45    54.084069   -11299.534   -58380.916 
  983000    343.71968   -11245.814    59.424658   -11305.238   -36421.748 
  983200    271.73744    -11258.32    46.979867     -11305.3   -20281.595 
  983400    330.05337   -11237.795     57.06193   -11294.856   -48615.473 
  983600    282.80498   -11250.816      48.8933   -11299.709    51688.691 
  983800    277.97306   -11253.138    48.057924   -11301.196    78385.853 
  984000    395.60808    -11230.84    68.395487   -11299.235    7782.4527 
  984200    274.24096   -11250.716    47.412692   -11298.129    30597.335 
  984400    276.36324   -11250.877    47.779607   -11298.656   -10965.947 
  984600    337.63124   -11236.641    58.372046   -11295.013    48963.043 
  984800    343.35153   -11245.186    59.361011   -11304.547   -45980.275 
  985000    253.02758   -11259.278    43.745174   -11303.023   -20653.579 
  985200    283.70223   -11245.881    49.048422    -11294.93    67118.882 
  985400    298.45261   -11243.857    51.598571   -11295.455   -24091.446 
  985600    255.72968   -11256.209    44.212333   -11300.421    8550.4282 
  985800    297.27813   -11247.681    51.395519   -11299.076   -21103.282 
  986000    281.01953   -11268.577    48.584618   -11317.162    -22951.89 
  986200    278.25052    -11255.14    48.105894   -11303.246    22860.885 
  986400    302.93417   -11246.414    52.373375   -11298.788   -16322.314 
  986600    307.83677   -11241.599     53.22097    -11294.82   -42437.745 
  986800    308.61593   -11256.797    53.355678   -11310.153    3723.2289 
  987000    326.43742   -11242.287    56.436781   -11298.724    18801.011 
  987200    324.20797   -11246.013    56.051338   -11302.064    59618.332 
  987400    309.18371   -11252.721    53.453839   -11306.175    76426.642 
  987600    313.36084   -11240.412     54.17601   -11294.588    -27882.82 
  987800    285.70508   -11238.284    49.394689   -11287.679   -61659.323 
  988000    258.04652   -11254.907    44.612884    -11299.52   -43942.936 
  988200    285.51628   -11248.735    49.362047   -11298.097   -7298.0792 
  988400     327.7225   -11233.651    56.658954    -11290.31    41175.376 
  988600    341.48529   -11251.155    59.038361   -11310.194    55892.391 
  988800    294.09103   -11251.639     50.84451   -11302.484   -3700.2592 
  989000    314.52281   -11247.558      54.3769   -11301.935    16760.539 
  989200    284.70385   -11245.545    49.221589   -11294.767    15204.208 
  989400    307.55088   -11261.034    53.171544   -11314.206   -19895.587 
  989600    290.77759   -11260.183    50.271661   -11310.454   -39362.253 
  989800    302.67015   -11243.258     52.32773   -11295.586    -47261.12 
  990000    324.23428   -11250.321    56.055886   -11306.377   -70582.068 
  990200    257.06144   -11262.415    44.442577   -11306.857    16602.502 
  990400    317.11273   -11248.086    54.824663   -11302.911   -62801.342 
  990600    321.73233   -11249.325    55.623331   -11304.948   -36149.842 
  990800    260.37824   -11255.113    45.016009   -11300.129    91693.434 
  991000    350.86446   -11238.391    60.659898   -11299.051    34934.002 
  991200    338.64122   -11248.865    58.546659   -11307.412   -22294.234 
  991400    326.18206    -11261.59    56.392633   -11317.983   -11130.977 
  991600    296.37916   -11249.249    51.240099   -11300.489    405.03668 
  991800     317.0344   -11240.613     54.81112   -11295.425    10889.936 
  992000    245.11474   -11260.062    42.377148    -11302.44    9374.4232 
  992200    281.43984   -11250.737    48.657285   -11299.395   -12468.805 
  992400    350.38331   -11230.802    60.576714   -11291.378   -21590.044 
  992600    290.48099   -11257.727    50.220383   -11307.947   -34277.358 
  992800    266.63717   -11248.938    46.098095   -11295.037    -40812.03 
  993000    355.16811   -11239.803    61.403944   -11301.207   -4045.4294 
  993200    266.06672    -11258.15    45.999472   -11304.149    53673.217 
  993400    279.45972   -11251.076    48.314949   -11299.391    -7926.831 
  993600    271.92802   -11262.516    47.012815   -11309.529   -28194.032 
  993800    309.12384   -11259.278    53.443488   -11312.722   -3349.8796 
  994000    300.49111   -11245.858    51.951001   -11297.809    12927.575 
  994200    285.29352   -11245.935    49.323536   -11295.259   -38599.543 
  994400    291.44636   -11252.105    50.387282   -11302.492    23316.408 
  994600    288.16434   -11252.092    49.819864   -11301.912   -45080.377 
  994800    266.21415   -11245.466    46.024961   -11291.491   -29930.578 
  995000    304.58236   -11254.056    52.658326   -11306.714    49461.409 
  995200    306.80204   -11245.162     53.04208   -11298.204    55709.983 
  995400    322.99961   -11247.736    55.842428   -11303.578   -1936.1129 
  995600    248.64168    -11263.46     42.98691   -11306.447    53008.621 
  995800    338.96548   -11246.512    58.602718   -11305.114     48104.93 
  996000    273.09215   -11251.954    47.214077   -11299.168    67250.441 
  996200    250.11147   -11260.939    43.241017    -11304.18    25999.308 
  996400    313.55302   -11245.198    54.209236   -11299.407    48396.821 
  996600    321.23315   -11245.494    55.537029   -11301.031   -22654.566 
  996800    254.08776    -11259.93    43.928466   -11303.858   -26069.267 
  997000    354.22565   -11246.626    61.241004   -11307.867   -51447.831 
  997200    294.27387   -11256.547    50.876122   -11307.423   -40020.877 
  997400    292.44481   -11264.199      50.5599   -11314.759    4328.1397 
  997600    346.14797   -11246.603    59.844477   -11306.448   -44895.329 
  997800    312.85931   -11245.262    54.089302   -11299.352   -40831.672 
  998000    275.56109   -11257.668    47.640926   -11305.309   -5637.6403 
  998200    315.17751   -11249.262    54.490088   -11303.752   -27948.485 
  998400    316.33795   -11248.741    54.690714   -11303.432    72964.511 
  998600    361.61412   -11239.813    62.518374   -11302.332      31121.9 
  998800    285.88217   -11258.136    49.425306   -11307.561   -53485.492 
  999000    292.86675   -11246.912    50.632849   -11297.545   -12376.857 
  999200    364.80917   -11238.866    63.070756   -11301.937   -9541.6611 
  999400    323.54828   -11247.462    55.937285   -11303.399    17451.967 
  999600    252.43298   -11260.504    43.642376   -11304.147    27961.836 
  999800    346.60468   -11243.394    59.923437   -11303.318    19583.088 
 1000000    327.63804   -11251.695    56.644353   -11308.339    48545.379 
Loop time of 9448.35 on 8 procs for 1000000 steps with 59 atoms

Performance: 2.286 ns/day, 10.498 hours/ns, 105.839 timesteps/s
99.1% CPU use with 8 MPI tasks x no OpenMP threads

MPI task timing breakdown:
Section |  min time  |  avg time  |  max time  |%varavg| %total
---------------------------------------------------------------
Pair    | 8745.3     | 8818.8     | 8879.7     |  48.2 | 93.34
Neigh   | 3.6583     | 3.8826     | 4.0802     |   8.5 |  0.04
Comm    | 150.61     | 211.65     | 285.25     | 311.5 |  2.24
Output  | 0.13462    | 0.15648    | 0.2975     |  13.5 |  0.00
Modify  | 409.64     | 410.08     | 410.49     |   1.4 |  4.34
Other   |            | 3.795      |            |       |  0.04

Nlocal:    7.375 ave 10 max 4 min
Histogram: 2 1 0 0 0 0 1 0 2 2
Nghost:    1195.62 ave 1215 max 1177 min
Histogram: 3 1 0 0 0 0 0 0 2 2
Neighs:    2096 ave 2803 max 1098 min
Histogram: 2 0 1 0 0 0 0 1 0 4

Total # of neighbors = 16768
Ave neighs/atom = 284.203
Neighbor list builds = 1674
Dangerous builds = 0

Please see the log.cite file for references relevant to this simulation

Total wall time: 2:38:13
