ITEM: TIMESTEP
0
ITEM: NUMBER OF ATOMS
161
ITEM: BOX BOUNDS xy xz yz pp pp pp
-6.7755000000000001e+00 1.3552000000000000e+01 -6.7755000000000001e+00
0.0000000000000000e+00 1.1735510246683001e+01 0.0000000000000000e+00
0.0000000000000000e+00 2.2149999999999999e+01 0.0000000000000000e+00
ITEM: ATOMS id type x y z 
8 1 -2.486 5.297 9.849 
87 1 3.001 4.231 10.696 
90 1 2.733 5.481 9.824 
109 1 -2.486 5.297 0.765 
158 1 2.733 5.481 0.79 
11 1 4.24 4.139 20.131 
14 1 3.031 4.094 19.728 
18 1 1.299 5.827 18.554 
33 1 2.266 4.151 20.924 
43 1 4.343 3.96 21.647 
47 1 3.32 5.732 17.88 
52 1 4.24 4.139 12.633 
76 1 2.552 4.924 14.209 
85 1 4.343 3.96 11.117 
89 1 3.32 5.732 14.883 
91 1 1.036 5.037 11.84 
102 1 3.031 4.094 13.035 
105 1 1.299 5.827 14.209 
114 1 2.266 4.151 11.84 
150 1 2.552 4.924 18.554 
156 1 3.001 4.231 22.068 
159 1 1.036 5.037 20.924 
5 1 -5.049 10.63 8.653 
9 1 -3.317 8.897 7.479 
19 1 -1.707 7.414 10.572 
21 1 -2.66 8.795 10.993 
23 1 -3.31 7.532 6.805 
25 1 -4.284 10.573 9.849 
32 1 1.503 6.367 0.79 
36 1 -1.869 7.426 9.056 
38 1 -2.209 6.086 8.653 
54 1 0.3 8.576 10.696 
57 1 1.291 8.001 9.824 
60 1 -1.707 7.414 0.042 
65 1 -3.31 7.532 3.808 
78 1 -1.869 7.426 1.558 
80 1 -2.566 8.842 1.961 
84 1 -4.57 9.799 3.135 
99 1 -3.054 9.687 0.765 
100 1 -2.96 6.142 3.135 
107 1 -5.049 10.63 1.961 
110 1 -3.317 8.897 3.135 
111 1 0.642 5.929 10.696 
113 1 1.503 6.367 9.824 
119 1 -4.284 10.573 0.765 
127 1 -2.209 6.086 1.961 
131 1 -2.318 6.148 10.993 
138 1 1.291 8.001 0.79 
142 1 -2.566 8.842 8.653 
145 1 -4.57 9.799 7.479 
151 1 -5.019 10.493 10.993 
154 1 -3.054 9.687 9.849 
155 1 -2.96 6.142 7.479 
12 1 2.53 7.1 17.202 
17 1 0.468 9.427 20.924 
24 1 -3.52 8.357 11.865 
27 1 -0.31 7.31 21.647 
29 1 0.642 5.929 22.068 
31 1 1.292 7.192 17.88 
44 1 -0.148 7.298 20.131 
46 1 0.191 8.638 19.728 
51 1 -0.31 7.31 11.117 
53 1 2.53 7.1 15.561 
56 1 1.292 7.192 14.883 
63 1 -2.318 6.148 21.771 
66 1 -3.309 6.723 20.899 
70 1 -0.148 7.298 12.633 
72 1 0.548 5.882 13.035 
92 1 0.942 8.582 14.209 
95 1 -5.019 10.493 21.771 
98 1 -4.751 9.243 20.899 
104 1 0.468 9.427 11.84 
116 1 -2.66 8.795 21.771 
118 1 -3.52 8.357 20.899 
122 1 0.191 8.638 13.035 
133 1 -3.309 6.723 11.865 
136 1 0.3 8.576 22.068 
147 1 0.548 5.882 19.728 
153 1 -4.751 9.243 11.865 
160 1 0.942 8.582 18.554 
1 1 7.976 4.694 10.572 
4 1 9.274 4.77 10.993 
20 1 8.034 4.861 9.056 
42 1 9.55 5.41 7.479 
67 1 10.043 4.578 0.765 
77 1 7.976 4.694 0.042 
94 1 8.035 4.861 1.558 
96 1 9.278 4.635 1.961 
121 1 4.688 5.417 10.696 
130 1 9.55 5.41 3.135 
134 1 10.043 4.578 9.849 
152 1 9.278 4.635 8.653 
45 1 4.688 5.417 22.068 
55 1 4.788 5.329 13.035 
106 1 9.274 4.77 21.771 
137 1 4.788 5.329 19.728 
2 1 7.294 10.585 9.056 
3 1 9.004 7.624 6.127 
6 1 8.556 6.347 6.805 
16 1 2.314 8.72 0.79 
22 1 7.166 6.156 8.653 
26 1 7.226 8.565 7.479 
35 1 7.191 10.764 10.572 
37 1 6.846 9.307 10.993 
39 1 8.214 8.992 6.805 
41 1 6.677 7.002 9.849 
48 1 3.775 6.213 0.79 
61 1 7.294 10.585 1.558 
62 1 9.004 7.624 4.487 
64 1 6.747 9.395 1.961 
68 1 7.437 6.931 3.135 
71 1 4.29 8.493 10.696 
74 1 3.567 7.818 9.824 
81 1 8.556 6.347 3.808 
83 1 6.47 8.606 0.765 
93 1 7.191 10.764 0.042 
97 1 8.214 8.992 3.808 
101 1 2.261 9.954 10.696 
103 1 2.314 8.72 9.824 
117 1 7.166 6.156 1.961 
120 1 7.226 8.565 3.135 
123 1 3.775 6.213 9.824 
129 1 6.677 7.002 0.765 
132 1 6.747 9.395 8.653 
135 1 7.437 6.931 7.479 
141 1 7.244 6.231 10.993 
144 1 6.47 8.606 9.849 
148 1 3.567 7.818 0.79 
7 1 9.22 6.004 11.865 
10 1 3.558 10.029 21.647 
13 1 2.261 9.954 22.068 
15 1 2.978 8.376 17.88 
28 1 3.5 9.862 20.131 
30 1 4.369 8.568 19.728 
34 1 4.308 6.159 18.554 
40 1 7.76 8.511 11.865 
49 1 4.857 7.722 20.924 
50 1 1.984 9.314 18.554 
58 1 1.491 10.146 11.84 
59 1 4.097 7.793 14.209 
69 1 3.558 10.029 11.117 
73 1 2.978 8.376 14.883 
75 1 5.064 6.118 11.84 
79 1 7.244 6.231 21.771 
82 1 7.967 6.906 20.899 
86 1 3.5 9.862 12.633 
88 1 2.256 10.089 13.035 
108 1 9.22 6.004 20.899 
112 1 4.369 8.568 13.035 
115 1 4.308 6.159 14.209 
124 1 4.857 7.722 11.84 
125 1 1.984 9.314 14.209 
126 1 6.846 9.307 21.771 
128 1 7.76 8.511 20.899 
139 1 1.491 10.146 20.924 
140 1 4.097 7.793 18.554 
143 1 7.967 6.906 11.865 
146 1 4.29 8.493 22.068 
149 1 5.064 6.118 20.924 
157 1 2.256 10.089 19.728 
161 2 6.606 9.618 12.016 
ITEM: TIMESTEP
10
ITEM: NUMBER OF ATOMS
161
ITEM: BOX BOUNDS xy xz yz pp pp pp
-6.7755000000000001e+00 1.3552000000000000e+01 -6.7755000000000001e+00
0.0000000000000000e+00 1.1735510246683001e+01 0.0000000000000000e+00
0.0000000000000000e+00 2.2149999999999999e+01 0.0000000000000000e+00
ITEM: ATOMS id type x y z 
8 1 -2.40603 5.35762 9.85484 
87 1 2.9874 4.25245 10.6397 
90 1 2.65537 5.47739 9.78391 
109 1 -2.40732 5.3601 0.766122 
158 1 2.65423 5.47799 0.83044 
11 1 4.29707 4.16709 20.154 
14 1 2.91536 4.12753 19.6914 
18 1 1.3333 5.85621 18.5864 
33 1 2.15124 4.2152 20.8916 
43 1 4.33462 4.11792 21.5858 
47 1 3.25654 5.79525 17.8394 
52 1 4.29608 4.16989 12.6088 
76 1 2.44652 4.92343 14.184 
85 1 4.33499 4.11764 11.1784 
89 1 3.25603 5.79672 14.9226 
91 1 1.00408 5.06855 11.8549 
102 1 2.91732 4.12619 13.0726 
105 1 1.33358 5.85454 14.1772 
114 1 2.15184 4.21433 11.8711 
150 1 2.44534 4.9221 18.5803 
156 1 2.98888 4.25283 22.1242 
159 1 1.00442 5.06949 20.9084 
5 1 -4.93815 10.5942 8.60057 
9 1 -3.345 8.86402 7.52689 
19 1 -1.73918 7.45186 10.5492 
21 1 -2.60606 8.76435 10.8757 
23 1 -3.31565 7.56338 6.85235 
25 1 -4.16475 10.5187 9.83365 
32 1 1.58577 6.33856 0.770127 
36 1 -1.89991 7.51076 9.06077 
38 1 -2.15955 6.19014 8.63943 
54 1 0.29005 8.54168 10.6696 
57 1 1.35348 7.99026 9.79003 
60 1 -1.75622 7.48516 0.0603981 
65 1 -3.31691 7.53768 3.77077 
78 1 -1.90682 7.516 1.5567 
80 1 -2.55146 8.78726 1.84727 
84 1 -4.46655 9.80645 3.11022 
99 1 -3.02079 9.64854 0.785381 
100 1 -2.92684 6.25875 3.17669 
107 1 -4.93514 10.6006 1.9961 
110 1 -3.34862 8.87143 3.10372 
111 1 0.598951 5.95797 10.822 
113 1 1.58595 6.33877 9.84288 
119 1 -4.16667 10.5043 0.792507 
127 1 -2.16467 6.19003 1.9714 
131 1 -2.30319 6.18329 11.0125 
138 1 1.35253 7.99055 0.822502 
142 1 -2.56813 8.78105 8.78164 
145 1 -4.47075 9.80207 7.5059 
151 1 -5.04764 10.4669 11.0143 
154 1 -3.02268 9.69303 9.81266 
155 1 -2.92537 6.2578 7.4319 
12 1 2.56726 7.07286 17.1444 
17 1 0.389892 9.36353 20.9252 
24 1 -3.52421 8.31588 11.836 
27 1 -0.26357 7.24322 21.6256 
29 1 0.598354 5.95945 21.9428 
31 1 1.2987 7.17568 17.9201 
44 1 -0.111258 7.208 20.1396 
46 1 0.144375 8.53398 19.7188 
51 1 -0.263949 7.24013 11.1368 
53 1 2.56871 7.07352 15.6178 
56 1 1.29793 7.17741 14.8435 
63 1 -2.30805 6.18858 21.7475 
66 1 -3.36923 6.73078 20.8661 
70 1 -0.111997 7.20897 12.6283 
72 1 0.532267 5.93741 12.922 
92 1 0.906579 8.46194 14.252 
95 1 -5.002 10.4684 21.7197 
98 1 -4.6824 9.24969 20.863 
104 1 0.390659 9.36483 11.8409 
116 1 -2.61086 8.76698 21.8933 
118 1 -3.59585 8.38607 20.9107 
122 1 0.144945 8.53301 13.0461 
133 1 -3.36545 6.77704 11.9065 
136 1 0.290354 8.53695 22.0922 
147 1 0.532135 5.93821 19.8404 
153 1 -4.71171 9.15753 11.925 
160 1 0.909785 8.46408 18.5099 
1 1 7.89191 4.90216 10.5304 
4 1 9.1967 4.78168 11.0516 
20 1 7.89758 4.94026 9.05951 
42 1 9.47102 5.42538 7.43214 
67 1 9.98778 4.53653 0.758794 
77 1 7.89294 4.91066 0.0756803 
94 1 7.89828 4.94563 1.5487 
96 1 9.20717 4.64209 2.00729 
121 1 4.68184 5.41237 10.7331 
130 1 9.47047 5.42793 3.18123 
134 1 9.99063 4.5338 9.84917 
152 1 9.2073 4.64076 8.60587 
45 1 4.68195 5.41211 22.0301 
55 1 4.81214 5.48788 13.0527 
106 1 9.18971 4.78376 21.7252 
137 1 4.81357 5.48763 19.7112 
2 1 7.23648 10.5817 9.06285 
3 1 8.96669 7.65647 6.06915 
6 1 8.52545 6.38842 6.82639 
16 1 2.33792 8.69549 0.830705 
22 1 7.17431 6.18337 8.71346 
26 1 7.17875 8.4304 7.55071 
35 1 7.27713 10.713 10.4555 
37 1 6.79349 9.34163 11.0629 
39 1 8.2745 8.9236 6.76137 
41 1 6.72431 7.04067 9.80011 
48 1 3.7274 6.35733 0.834157 
61 1 7.23857 10.5528 1.52732 
62 1 8.96568 7.65282 4.54172 
64 1 6.71934 9.24624 1.97971 
68 1 7.40984 6.95985 3.05404 
71 1 4.28336 8.53294 10.7904 
74 1 3.62659 7.7932 9.85248 
81 1 8.53256 6.3934 3.78485 
83 1 6.54508 8.45419 0.789885 
93 1 7.2027 10.6036 0.107006 
97 1 8.27853 8.92614 3.84918 
101 1 2.34507 9.94016 10.6485 
103 1 2.33806 8.6954 9.78212 
117 1 7.1689 6.19505 1.87943 
120 1 7.17645 8.43327 3.05795 
123 1 3.72724 6.35618 9.78004 
129 1 6.74608 7.02658 0.789132 
132 1 6.71581 9.21416 8.63711 
135 1 7.41137 6.958 7.55944 
141 1 7.23219 6.19036 10.9191 
144 1 6.53733 8.42854 9.76852 
148 1 3.6271 7.79407 0.760452 
7 1 9.21681 6.02056 11.9104 
10 1 3.64339 9.81249 21.6141 
13 1 2.34522 9.93889 22.1148 
15 1 3.00535 8.33457 17.9034 
28 1 3.63758 9.77558 20.1409 
30 1 4.36517 8.52861 19.8105 
34 1 4.35432 6.28912 18.6348 
40 1 7.9058 8.36441 11.8818 
49 1 4.788 7.69498 20.8997 
50 1 2.0638 9.29556 18.5071 
58 1 1.54371 10.1881 11.8334 
59 1 4.12477 7.75936 14.1275 
69 1 3.64215 9.81284 11.1497 
73 1 3.00397 8.33497 14.8592 
75 1 4.98267 6.26826 11.8731 
79 1 7.24814 6.18867 21.8655 
82 1 7.90846 6.9296 20.927 
86 1 3.63692 9.77651 12.6221 
88 1 2.3283 10.0827 13.0835 
108 1 9.19461 6.02938 20.8572 
112 1 4.36372 8.52661 12.9541 
115 1 4.35334 6.28777 14.1281 
124 1 4.78463 7.69327 11.8638 
125 1 2.06747 9.29595 14.257 
126 1 6.84876 9.31542 21.811 
128 1 7.80361 8.36708 20.8541 
139 1 1.54463 10.1885 20.9307 
140 1 4.12583 7.76151 18.6381 
143 1 7.94384 6.91335 11.8612 
146 1 4.28423 8.5346 21.9724 
149 1 4.98588 6.26942 20.8935 
157 1 2.32807 10.0813 19.6806 
161 2 6.45831 9.68035 12.0721 
ITEM: TIMESTEP
20
ITEM: NUMBER OF ATOMS
161
ITEM: BOX BOUNDS xy xz yz pp pp pp
-6.7755000000000001e+00 1.3552000000000000e+01 -6.7755000000000001e+00
0.0000000000000000e+00 1.1735510246683001e+01 0.0000000000000000e+00
0.0000000000000000e+00 2.2149999999999999e+01 0.0000000000000000e+00
ITEM: ATOMS id type x y z 
8 1 -2.41927 5.36949 9.84474 
87 1 2.97119 4.26219 10.644 
90 1 2.65052 5.45874 9.78924 
109 1 -2.42041 5.37537 0.768146 
158 1 2.65067 5.46054 0.825341 
11 1 4.2848 4.20015 20.1268 
14 1 2.91911 4.13724 19.6887 
18 1 1.31413 5.85708 18.5971 
33 1 2.13493 4.2187 20.9101 
43 1 4.31377 4.15802 21.5759 
47 1 3.26326 5.80077 17.83 
52 1 4.28735 4.19569 12.6407 
76 1 2.44041 4.93746 14.1775 
85 1 4.31195 4.15712 11.1826 
89 1 3.26297 5.80087 14.9344 
91 1 0.993028 5.05758 11.8507 
102 1 2.91531 4.13732 13.075 
105 1 1.31368 5.85727 14.1672 
114 1 2.13629 4.21745 11.8536 
150 1 2.44021 4.93859 18.5851 
156 1 2.97125 4.26171 22.1205 
159 1 0.992745 5.05963 20.9124 
5 1 -4.9263 10.5943 8.607 
9 1 -3.33822 8.86887 7.52339 
19 1 -1.73434 7.46484 10.5402 
21 1 -2.60449 8.78443 10.8806 
23 1 -3.30485 7.55334 6.84541 
25 1 -4.15129 10.4989 9.84573 
32 1 1.60578 6.36879 0.750228 
36 1 -1.88045 7.52013 9.07188 
38 1 -2.16028 6.20884 8.63335 
54 1 0.308743 8.52261 10.6645 
57 1 1.35924 7.96994 9.80419 
60 1 -1.75106 7.4862 0.0632546 
65 1 -3.30424 7.5561 3.77095 
78 1 -1.87825 7.51807 1.54438 
80 1 -2.54909 8.78904 1.83546 
84 1 -4.45873 9.78825 3.09896 
99 1 -3.00999 9.66703 0.77585 
100 1 -2.93698 6.27302 3.17571 
107 1 -4.92514 10.5839 2.00423 
110 1 -3.33172 8.86874 3.09392 
111 1 0.614617 5.96612 10.8131 
113 1 1.60621 6.36847 9.8634 
119 1 -4.15197 10.5056 0.782376 
127 1 -2.16135 6.2047 1.97742 
131 1 -2.31539 6.19764 11.0193 
138 1 1.36111 7.96847 0.810542 
142 1 -2.55773 8.79599 8.77761 
145 1 -4.46259 9.79114 7.50241 
151 1 -5.01327 10.4377 10.997 
154 1 -3.0102 9.66699 9.84036 
155 1 -2.93624 6.27543 7.4374 
12 1 2.56463 7.07842 17.1507 
17 1 0.402649 9.34999 20.9193 
24 1 -3.50956 8.30349 11.8343 
27 1 -0.266492 7.23693 21.6266 
29 1 0.612458 5.96768 21.951 
31 1 1.28752 7.16623 17.9186 
44 1 -0.138511 7.20411 20.1447 
46 1 0.144248 8.51724 19.7116 
51 1 -0.264751 7.23804 11.1359 
53 1 2.56416 7.07842 15.6128 
56 1 1.28689 7.1661 14.8448 
63 1 -2.32675 6.20351 21.7403 
66 1 -3.37806 6.75584 20.8787 
70 1 -0.137768 7.2044 12.62 
72 1 0.530731 5.93337 12.9109 
92 1 0.919699 8.4499 14.2498 
95 1 -4.98896 10.4627 21.7194 
98 1 -4.66796 9.26082 20.8637 
104 1 0.40243 9.349 11.8431 
116 1 -2.62876 8.75577 21.8877 
118 1 -3.62142 8.35766 20.9361 
122 1 0.143447 8.51656 13.0521 
133 1 -3.36336 6.78098 11.8958 
136 1 0.307313 8.52172 22.1004 
147 1 0.531556 5.93286 19.8525 
153 1 -4.70782 9.14677 11.9116 
160 1 0.919103 8.44982 18.5139 
1 1 7.86635 4.92416 10.5246 
4 1 9.17337 4.80155 11.0264 
20 1 7.86979 4.93758 9.07324 
42 1 9.4633 5.44479 7.43551 
67 1 9.97715 4.55552 0.767326 
77 1 7.86367 4.91043 0.0805094 
94 1 7.87025 4.93936 1.54595 
96 1 9.19612 4.66245 1.9984 
121 1 4.66862 5.46482 10.7011 
130 1 9.46228 5.4429 3.17926 
134 1 9.9743 4.55511 9.84306 
152 1 9.19877 4.66084 8.61449 
45 1 4.66977 5.46578 22.06 
55 1 4.81153 5.48602 13.0676 
106 1 9.17264 4.79866 21.7469 
137 1 4.81098 5.48457 19.6984 
2 1 7.25327 10.5364 9.03987 
3 1 8.97178 7.64583 6.07243 
6 1 8.5228 6.38664 6.81191 
16 1 2.35028 8.68831 0.842421 
22 1 7.14193 6.18772 8.71163 
26 1 7.19539 8.41659 7.54481 
35 1 7.27155 10.6688 10.4531 
37 1 6.76292 9.32792 11.0659 
39 1 8.26977 8.91772 6.75296 
41 1 6.72571 7.03277 9.8167 
48 1 3.69959 6.35461 0.818984 
61 1 7.24275 10.5355 1.57294 
62 1 8.97146 7.64595 4.5369 
64 1 6.72042 9.22732 1.99312 
68 1 7.39573 6.96612 3.05734 
71 1 4.29667 8.52637 10.7703 
74 1 3.59733 7.78781 9.82807 
81 1 8.5207 6.39069 3.79746 
83 1 6.54099 8.44949 0.784176 
93 1 7.22183 10.5647 0.100976 
97 1 8.26633 8.92719 3.85871 
101 1 2.36073 9.92599 10.6714 
103 1 2.34912 8.68869 9.77095 
117 1 7.14675 6.18928 1.89446 
120 1 7.19499 8.42645 3.06295 
123 1 3.69938 6.35337 9.79441 
129 1 6.7286 7.00729 0.777474 
132 1 6.72074 9.20681 8.6492 
135 1 7.39719 6.96312 7.55439 
141 1 7.22187 6.20536 10.9224 
144 1 6.55657 8.41839 9.78218 
148 1 3.59815 7.78853 0.783875 
7 1 9.20329 6.028 11.9188 
10 1 3.67179 9.814 21.6098 
13 1 2.36149 9.92521 22.0918 
15 1 3.01466 8.33287 17.8917 
28 1 3.66569 9.78474 20.1428 
30 1 4.38936 8.53098 19.7973 
34 1 4.33503 6.29807 18.6222 
40 1 7.90727 8.36556 11.888 
49 1 4.80363 7.71797 20.911 
50 1 2.07213 9.27987 18.5093 
58 1 1.55769 10.169 11.8428 
59 1 4.13663 7.75934 14.1331 
69 1 3.67055 9.81377 11.1549 
73 1 3.01469 8.33415 14.8725 
75 1 4.98597 6.27726 11.8593 
79 1 7.23668 6.1935 21.846 
82 1 7.93532 6.93521 20.9039 
86 1 3.66344 9.78366 12.6197 
88 1 2.33792 10.0616 13.0729 
108 1 9.18536 6.03565 20.846 
112 1 4.38535 8.53127 12.9676 
115 1 4.33584 6.2967 14.1425 
124 1 4.79963 7.71761 11.8527 
125 1 2.07123 9.27949 14.2538 
126 1 6.86254 9.25904 21.7795 
128 1 7.83245 8.3675 20.8688 
139 1 1.55736 10.1689 20.9212 
140 1 4.13668 7.75898 18.6321 
143 1 7.96477 6.90708 11.87 
146 1 4.29785 8.52664 21.9909 
149 1 4.9905 6.27789 20.9066 
157 1 2.33697 10.0607 19.6907 
161 2 6.44101 9.67461 12.0736 
ITEM: TIMESTEP
30
ITEM: NUMBER OF ATOMS
161
ITEM: BOX BOUNDS xy xz yz pp pp pp
-6.7755000000000001e+00 1.3552000000000000e+01 -6.7755000000000001e+00
0.0000000000000000e+00 1.1735510246683001e+01 0.0000000000000000e+00
0.0000000000000000e+00 2.2149999999999999e+01 0.0000000000000000e+00
ITEM: ATOMS id type x y z 
8 1 -2.43758 5.40676 9.83605 
87 1 2.95998 4.2744 10.634 
90 1 2.62646 5.44155 9.79075 
109 1 -2.43971 5.41278 0.774498 
158 1 2.62649 5.44267 0.824166 
11 1 4.27527 4.24068 20.1328 
14 1 2.88705 4.1512 19.7018 
18 1 1.30004 5.86136 18.6061 
33 1 2.10092 4.20789 20.8965 
43 1 4.28408 4.24571 21.5536 
47 1 3.23487 5.80794 17.8141 
52 1 4.27541 4.24094 12.6361 
76 1 2.42058 4.94496 14.178 
85 1 4.2803 4.24632 11.2118 
89 1 3.23409 5.80664 14.9478 
91 1 0.957717 5.04018 11.8378 
102 1 2.88779 4.15419 13.0604 
105 1 1.30087 5.8607 14.157 
114 1 2.10427 4.20668 11.8666 
150 1 2.41902 4.94523 18.5832 
156 1 2.96058 4.27262 22.1312 
159 1 0.957316 5.04061 20.9277 
5 1 -4.89398 10.5802 8.60104 
9 1 -3.32112 8.85985 7.52709 
19 1 -1.71431 7.47496 10.5375 
21 1 -2.5618 8.7863 10.8907 
23 1 -3.2978 7.5605 6.83501 
25 1 -4.12835 10.4929 9.83918 
32 1 1.60754 6.41192 0.751672 
36 1 -1.83605 7.5456 9.058 
38 1 -2.14671 6.23803 8.63384 
54 1 0.326034 8.508 10.6668 
57 1 1.38316 7.94276 9.80748 
60 1 -1.74241 7.49943 0.060528 
65 1 -3.2972 7.5573 3.77597 
78 1 -1.83296 7.54241 1.54807 
80 1 -2.52881 8.79195 1.83025 
84 1 -4.43852 9.7808 3.09962 
99 1 -2.97428 9.6796 0.763016 
100 1 -2.93904 6.29159 3.16866 
107 1 -4.90393 10.5674 1.98663 
110 1 -3.32162 8.86431 3.08177 
111 1 0.601465 5.95294 10.8158 
113 1 1.60705 6.41041 9.86238 
119 1 -4.12209 10.5157 0.792919 
127 1 -2.14853 6.23605 1.97793 
131 1 -2.32029 6.21106 11.0074 
138 1 1.38162 7.94357 0.804571 
142 1 -2.53394 8.80077 8.79232 
145 1 -4.43907 9.78192 7.49651 
151 1 -5.01583 10.3808 10.9905 
154 1 -2.97626 9.68879 9.84065 
155 1 -2.93936 6.28888 7.44275 
12 1 2.56757 7.06886 17.1492 
17 1 0.421256 9.30936 20.9165 
24 1 -3.47495 8.28268 11.8378 
27 1 -0.274917 7.22745 21.6284 
29 1 0.596532 5.95636 21.9464 
31 1 1.27956 7.16556 17.9127 
44 1 -0.18613 7.1828 20.1435 
46 1 0.130902 8.48794 19.7118 
51 1 -0.271378 7.2231 11.135 
53 1 2.56718 7.06857 15.615 
56 1 1.28007 7.16561 14.8511 
63 1 -2.34177 6.22221 21.7437 
66 1 -3.40142 6.78241 20.8829 
70 1 -0.18288 7.18131 12.6229 
72 1 0.508898 5.9318 12.9052 
92 1 0.92048 8.4318 14.2434 
95 1 -4.97679 10.4457 21.7054 
98 1 -4.64346 9.28296 20.8654 
104 1 0.421502 9.31186 11.8496 
116 1 -2.61662 8.76834 21.8904 
118 1 -3.6251 8.3111 20.9381 
122 1 0.130449 8.48724 13.0531 
133 1 -3.3627 6.78435 11.8994 
136 1 0.325319 8.50164 22.0939 
147 1 0.508556 5.93179 19.8595 
153 1 -4.68734 9.1169 11.9144 
160 1 0.921425 8.43251 18.5202 
1 1 7.81508 4.95681 10.5183 
4 1 9.1299 4.83695 11.0218 
20 1 7.80619 4.94762 9.05774 
42 1 9.44323 5.46418 7.44144 
67 1 9.95308 4.5914 0.776357 
77 1 7.79332 4.90869 0.0780702 
94 1 7.81491 4.94655 1.55475 
96 1 9.14393 4.6993 1.99974 
121 1 4.64087 5.52233 10.6675 
130 1 9.43999 5.46542 3.17291 
134 1 9.94608 4.59422 9.83352 
152 1 9.14286 4.69791 8.61856 
45 1 4.64248 5.52233 22.097 
55 1 4.81629 5.53965 13.0714 
106 1 9.1295 4.84077 21.7641 
137 1 4.82222 5.53855 19.6917 
2 1 7.27929 10.4881 9.01481 
3 1 8.96914 7.64938 6.07313 
6 1 8.5147 6.38894 6.79585 
16 1 2.36393 8.69178 0.855295 
22 1 7.08214 6.17606 8.69491 
26 1 7.20139 8.3964 7.53498 
35 1 7.26996 10.6032 10.4315 
37 1 6.73979 9.31271 11.0944 
39 1 8.29194 8.90943 6.74539 
41 1 6.70672 7.02334 9.81903 
48 1 3.703 6.33787 0.822893 
61 1 7.25721 10.4832 1.56827 
62 1 8.96732 7.65414 4.53751 
64 1 6.71675 9.18064 1.99675 
68 1 7.37692 6.95615 3.06745 
71 1 4.31807 8.51306 10.7287 
74 1 3.59155 7.81399 9.79318 
81 1 8.51085 6.39781 3.80886 
83 1 6.53541 8.40142 0.804739 
93 1 7.25372 10.4783 0.144302 
97 1 8.29935 8.91681 3.86991 
101 1 2.4052 9.88498 10.6892 
103 1 2.3643 8.69198 9.7566 
117 1 7.09419 6.1705 1.91622 
120 1 7.20316 8.4071 3.07813 
123 1 3.70255 6.33679 9.78869 
129 1 6.69284 6.98229 0.773042 
132 1 6.72715 9.15926 8.64062 
135 1 7.37994 6.94464 7.53825 
141 1 7.19097 6.21356 10.9572 
144 1 6.57374 8.40337 9.80291 
148 1 3.59315 7.81571 0.81825 
7 1 9.19151 6.02827 11.9284 
10 1 3.74151 9.81785 21.6115 
13 1 2.40561 9.88361 22.074 
15 1 3.02387 8.32708 17.8796 
28 1 3.71859 9.77837 20.1349 
30 1 4.44243 8.5514 19.7753 
34 1 4.33044 6.31998 18.6028 
40 1 7.90253 8.3542 11.9108 
49 1 4.83878 7.74293 20.9173 
50 1 2.09427 9.25846 18.5159 
58 1 1.58031 10.1338 11.8504 
59 1 4.15562 7.76848 14.1445 
69 1 3.73834 9.81552 11.1525 
73 1 3.02296 8.32723 14.8851 
75 1 4.98468 6.32691 11.8821 
79 1 7.21852 6.20648 21.8041 
82 1 7.94244 6.90473 20.8712 
86 1 3.71537 9.77762 12.6277 
88 1 2.39038 10.0254 13.0761 
108 1 9.16907 6.03246 20.8336 
112 1 4.4353 8.54837 12.9886 
115 1 4.33129 6.31661 14.1579 
124 1 4.82778 7.73786 11.8472 
125 1 2.09456 9.25899 14.248 
126 1 6.88878 9.19828 21.7389 
128 1 7.83599 8.3845 20.8649 
139 1 1.58038 10.1324 20.9132 
140 1 4.15581 7.77147 18.6212 
143 1 7.9667 6.90769 11.9112 
146 1 4.31815 8.51601 22.0306 
149 1 4.99904 6.3309 20.8887 
157 1 2.39125 10.0243 19.6886 
161 2 6.39776 9.6653 12.0906 
ITEM: TIMESTEP
40
ITEM: NUMBER OF ATOMS
161
ITEM: BOX BOUNDS xy xz yz pp pp pp
-6.7755000000000001e+00 1.3552000000000000e+01 -6.7755000000000001e+00
0.0000000000000000e+00 1.1735510246683001e+01 0.0000000000000000e+00
0.0000000000000000e+00 2.2149999999999999e+01 0.0000000000000000e+00
ITEM: ATOMS id type x y z 
8 1 -2.44476 5.41165 9.83092 
87 1 2.95697 4.28387 10.6397 
90 1 2.62374 5.45028 9.77909 
109 1 -2.44519 5.42057 0.776427 
158 1 2.6242 5.45111 0.834437 
11 1 4.2718 4.25745 20.1094 
14 1 2.8832 4.15861 19.7042 
18 1 1.29776 5.86358 18.6057 
33 1 2.09871 4.21422 20.9061 
43 1 4.28307 4.24842 21.5528 
47 1 3.23737 5.80026 17.8229 
52 1 4.27253 4.25337 12.6555 
76 1 2.41503 4.94388 14.177 
85 1 4.28122 4.24832 11.2122 
89 1 3.23686 5.79924 14.9424 
91 1 0.952699 5.03686 11.841 
102 1 2.88346 4.15778 13.0602 
105 1 1.29762 5.86321 14.1585 
114 1 2.09908 4.21151 11.8573 
150 1 2.41535 4.94368 18.5866 
156 1 2.95815 4.28595 22.123 
159 1 0.952712 5.0396 20.9235 
5 1 -4.88844 10.5769 8.60233 
9 1 -3.31865 8.85719 7.52857 
19 1 -1.71372 7.48239 10.533 
21 1 -2.55607 8.78773 10.8884 
23 1 -3.29907 7.55411 6.8375 
25 1 -4.12743 10.4935 9.84023 
32 1 1.59741 6.39666 0.751292 
36 1 -1.82656 7.55093 9.05803 
38 1 -2.14391 6.2403 8.63144 
54 1 0.330468 8.50235 10.6661 
57 1 1.38251 7.95159 9.80666 
60 1 -1.74288 7.50662 0.0644388 
65 1 -3.29968 7.55394 3.77433 
78 1 -1.82567 7.54814 1.54852 
80 1 -2.51956 8.79826 1.83166 
84 1 -4.43337 9.78036 3.10206 
99 1 -2.97051 9.68442 0.765118 
100 1 -2.93785 6.28786 3.16642 
107 1 -4.90115 10.5658 1.98498 
110 1 -3.31569 8.86057 3.08342 
111 1 0.596096 5.95112 10.8098 
113 1 1.59799 6.39591 9.86135 
119 1 -4.11723 10.5097 0.781647 
127 1 -2.1444 6.24039 1.97688 
131 1 -2.32237 6.2135 11.0102 
138 1 1.38268 7.95078 0.8065 
142 1 -2.52688 8.80251 8.78639 
145 1 -4.42953 9.78398 7.4947 
151 1 -5.0139 10.3697 10.9888 
154 1 -2.96072 9.68618 9.85076 
155 1 -2.93731 6.28646 7.44478 
12 1 2.56695 7.06345 17.149 
17 1 0.427215 9.30381 20.9119 
24 1 -3.4705 8.28563 11.8371 
27 1 -0.275081 7.21725 21.6246 
29 1 0.592253 5.95502 21.9544 
31 1 1.28245 7.16968 17.9144 
44 1 -0.192067 7.17528 20.1409 
46 1 0.127022 8.48273 19.7123 
51 1 -0.268872 7.21696 11.1382 
53 1 2.56633 7.06305 15.6154 
56 1 1.28215 7.16927 14.8497 
63 1 -2.34638 6.22718 21.7427 
66 1 -3.39964 6.7733 20.8826 
70 1 -0.189537 7.1756 12.6247 
72 1 0.500649 5.92511 12.9065 
92 1 0.920153 8.43553 14.2413 
95 1 -4.97664 10.4378 21.7154 
98 1 -4.64166 9.27213 20.8533 
104 1 0.427273 9.30496 11.8519 
116 1 -2.60974 8.7691 21.8849 
118 1 -3.61454 8.32626 20.9366 
122 1 0.126557 8.48246 13.0522 
133 1 -3.3604 6.78202 11.9001 
136 1 0.328106 8.49764 22.0969 
147 1 0.500972 5.92517 19.8573 
153 1 -4.68219 9.10945 11.9136 
160 1 0.920278 8.43572 18.5228 
1 1 7.81146 4.96001 10.5139 
4 1 9.12019 4.84369 11.0154 
20 1 7.78986 4.94936 9.06234 
42 1 9.44314 5.46579 7.44335 
67 1 9.94535 4.60185 0.778161 
77 1 7.77676 4.89303 0.0781907 
94 1 7.80569 4.95017 1.5491 
96 1 9.13224 4.70322 1.99938 
121 1 4.63659 5.52812 10.6777 
130 1 9.44026 5.46861 3.17077 
134 1 9.93481 4.60574 9.83523 
152 1 9.13296 4.70296 8.61987 
45 1 4.63782 5.5298 22.0842 
55 1 4.81526 5.54362 13.072 
106 1 9.11851 4.84641 21.7705 
137 1 4.81652 5.5475 19.6957 
2 1 7.28317 10.4812 9.01239 
3 1 8.96691 7.6553 6.07156 
6 1 8.51494 6.39043 6.79884 
16 1 2.3733 8.69355 0.859079 
22 1 7.06866 6.17753 8.68872 
26 1 7.2049 8.38547 7.52578 
35 1 7.27191 10.5937 10.4285 
37 1 6.7403 9.30491 11.0987 
39 1 8.2908 8.91391 6.74946 
41 1 6.70109 7.02383 9.81973 
48 1 3.68912 6.35346 0.84032 
61 1 7.26076 10.4684 1.58358 
62 1 8.9674 7.66124 4.53804 
64 1 6.7163 9.17695 1.99254 
68 1 7.37568 6.9516 3.07155 
71 1 4.33022 8.51157 10.7273 
74 1 3.5982 7.80918 9.78373 
81 1 8.50743 6.3992 3.80663 
83 1 6.53714 8.39424 0.793657 
93 1 7.25378 10.4713 0.142138 
97 1 8.29603 8.92448 3.86492 
101 1 2.41527 9.87875 10.6949 
103 1 2.37223 8.69426 9.7527 
117 1 7.07726 6.17126 1.91861 
120 1 7.20436 8.39926 3.08743 
123 1 3.68943 6.35157 9.7705 
129 1 6.69089 6.97424 0.772763 
132 1 6.72585 9.15074 8.64417 
135 1 7.37477 6.93928 7.53587 
141 1 7.18149 6.21671 10.9634 
144 1 6.57335 8.39983 9.80411 
148 1 3.59928 7.81041 0.825864 
7 1 9.18709 6.03083 11.9314 
10 1 3.75806 9.83156 21.6112 
13 1 2.41668 9.87758 22.068 
15 1 3.02679 8.32482 17.8815 
28 1 3.72891 9.77337 20.1407 
30 1 4.45719 8.55305 19.7704 
34 1 4.32963 6.32471 18.6008 
40 1 7.90369 8.35257 11.919 
49 1 4.84283 7.75094 20.9158 
50 1 2.09422 9.25495 18.5181 
58 1 1.58874 10.1236 11.8532 
59 1 4.1574 7.77151 14.1492 
69 1 3.75532 9.82911 11.1515 
73 1 3.02599 8.32545 14.8844 
75 1 4.9814 6.32814 11.873 
79 1 7.20298 6.21179 21.8087 
82 1 7.93539 6.91292 20.8623 
86 1 3.72545 9.77341 12.6226 
88 1 2.40008 10.0222 13.075 
108 1 9.16155 6.02981 20.8294 
112 1 4.44894 8.5511 12.9951 
115 1 4.32991 6.32339 14.166 
124 1 4.83125 7.74797 11.8479 
125 1 2.09332 9.25494 14.2463 
126 1 6.89588 9.19398 21.7542 
128 1 7.84596 8.36938 20.8486 
139 1 1.5891 10.1221 20.9104 
140 1 4.15771 7.77231 18.6177 
143 1 7.96359 6.90241 11.9182 
146 1 4.33047 8.51303 22.03 
149 1 4.99686 6.33038 20.8942 
157 1 2.40205 10.0204 19.6896 
161 2 6.38763 9.66363 12.0938 
ITEM: TIMESTEP
50
ITEM: NUMBER OF ATOMS
161
ITEM: BOX BOUNDS xy xz yz pp pp pp
-6.7755000000000001e+00 1.3552000000000000e+01 -6.7755000000000001e+00
0.0000000000000000e+00 1.1735510246683001e+01 0.0000000000000000e+00
0.0000000000000000e+00 2.2149999999999999e+01 0.0000000000000000e+00
ITEM: ATOMS id type x y z 
8 1 -2.4764 5.44851 9.81843 
87 1 2.93997 4.31919 10.6432 
90 1 2.60918 5.47862 9.7469 
109 1 -2.47487 5.46179 0.782745 
158 1 2.60874 5.48193 0.865981 
11 1 4.25461 4.30685 20.0861 
14 1 2.85886 4.17693 19.71 
18 1 1.28022 5.87574 18.6113 
33 1 2.08071 4.21734 20.9242 
43 1 4.25448 4.3069 21.5243 
47 1 3.22467 5.79317 17.8382 
52 1 4.25266 4.30148 12.6771 
76 1 2.38312 4.93937 14.1768 
85 1 4.25242 4.30376 11.2371 
89 1 3.2232 5.79117 14.9297 
91 1 0.909683 5.01608 11.8391 
102 1 2.85781 4.17361 13.0554 
105 1 1.28026 5.87498 14.1536 
114 1 2.08001 4.2127 11.8407 
150 1 2.38293 4.94 18.587 
156 1 2.9423 4.32294 22.1202 
159 1 0.909569 5.02029 20.9266 
5 1 -4.85767 10.5555 8.60832 
9 1 -3.29988 8.84557 7.53796 
19 1 -1.70207 7.49615 10.5161 
21 1 -2.518 8.79569 10.8897 
23 1 -3.30221 7.54868 6.83733 
25 1 -4.09774 10.4762 9.84405 
32 1 1.56591 6.38969 0.75977 
36 1 -1.78247 7.56912 9.04317 
38 1 -2.12538 6.25968 8.62683 
54 1 0.356094 8.47664 10.6693 
57 1 1.40376 7.95116 9.79791 
60 1 -1.7361 7.5247 0.0768463 
65 1 -3.3024 7.54968 3.7709 
78 1 -1.78706 7.57329 1.55651 
80 1 -2.47964 8.82215 1.83033 
84 1 -4.40051 9.78479 3.1021 
99 1 -2.92764 9.70269 0.762397 
100 1 -2.93262 6.28139 3.15874 
107 1 -4.87612 10.5484 1.97967 
110 1 -3.29863 8.848 3.07824 
111 1 0.571437 5.93073 10.8089 
113 1 1.56813 6.3873 9.85269 
119 1 -4.09804 10.5067 0.765904 
127 1 -2.12593 6.26528 1.97526 
131 1 -2.33192 6.23215 11.0035 
138 1 1.4028 7.94951 0.81407 
142 1 -2.48712 8.81624 8.78797 
145 1 -4.39446 9.78784 7.48865 
151 1 -4.9992 10.3239 10.976 
154 1 -2.91126 9.703 9.85846 
155 1 -2.93276 6.27893 7.44665 
12 1 2.56974 7.04494 17.1521 
17 1 0.457518 9.26262 20.9057 
24 1 -3.43954 8.27777 11.8344 
27 1 -0.281409 7.1988 21.6123 
29 1 0.564892 5.93621 21.9549 
31 1 1.28504 7.17396 17.9178 
44 1 -0.23149 7.1512 20.1325 
46 1 0.108525 8.45842 19.7136 
51 1 -0.268018 7.19984 11.1511 
53 1 2.56798 7.04456 15.6138 
56 1 1.2842 7.17329 14.8474 
63 1 -2.36994 6.25427 21.7462 
66 1 -3.41952 6.77308 20.8746 
70 1 -0.226611 7.15171 12.6326 
72 1 0.462301 5.90084 12.9058 
92 1 0.915341 8.44159 14.2347 
95 1 -4.95986 10.4007 21.7195 
98 1 -4.62688 9.2425 20.8222 
104 1 0.457568 9.26541 11.859 
116 1 -2.58275 8.78772 21.8834 
118 1 -3.58409 8.3359 20.9288 
122 1 0.108637 8.45901 13.0511 
133 1 -3.35717 6.78272 11.9058 
136 1 0.351932 8.47001 22.0934 
147 1 0.462116 5.90203 19.8583 
153 1 -4.66256 9.07071 11.9204 
160 1 0.915542 8.44241 18.5303 
1 1 7.76577 4.9974 10.5067 
4 1 9.07727 4.87667 11.0157 
20 1 7.7123 4.95814 9.05714 
42 1 9.42806 5.48118 7.45352 
67 1 9.89852 4.65698 0.791325 
77 1 7.70068 4.87943 0.0661984 
94 1 7.73773 4.95589 1.54148 
96 1 9.07672 4.73254 1.99819 
121 1 4.61103 5.57171 10.6849 
130 1 9.4253 5.48921 3.16025 
134 1 9.88594 4.65882 9.82666 
152 1 9.06795 4.73448 8.62226 
45 1 4.61313 5.57429 22.0749 
55 1 4.81142 5.58795 13.0864 
106 1 9.05169 4.86838 21.7874 
137 1 4.81346 5.59551 19.6877 
2 1 7.30345 10.4346 8.99994 
3 1 8.96618 7.66609 6.07451 
6 1 8.50422 6.39553 6.79666 
16 1 2.40313 8.68794 0.868873 
22 1 6.99782 6.16938 8.66989 
26 1 7.20988 8.3588 7.5049 
35 1 7.28392 10.5338 10.4144 
37 1 6.75288 9.27722 11.1321 
39 1 8.30698 8.91881 6.76251 
41 1 6.66877 7.00344 9.82715 
48 1 3.6607 6.37782 0.888298 
61 1 7.28114 10.4156 1.60167 
62 1 8.96385 7.67877 4.53535 
64 1 6.71907 9.12805 2.00277 
68 1 7.35266 6.9287 3.08709 
71 1 4.365 8.5291 10.709 
74 1 3.63039 7.82105 9.75192 
81 1 8.49624 6.40982 3.81211 
83 1 6.53262 8.36358 0.783426 
93 1 7.27953 10.4173 0.163239 
97 1 8.30884 8.93123 3.85053 
101 1 2.47987 9.85606 10.7109 
103 1 2.40277 8.68892 9.74073 
117 1 7.00712 6.15139 1.94187 
120 1 7.20033 8.37844 3.10898 
123 1 3.66135 6.37502 9.72077 
129 1 6.65437 6.93488 0.772879 
132 1 6.73595 9.11268 8.63257 
135 1 7.3445 6.91346 7.51428 
141 1 7.14339 6.22201 10.987 
144 1 6.56323 8.38738 9.81294 
148 1 3.63057 7.82303 0.852834 
7 1 9.17044 6.04207 11.9436 
10 1 3.83364 9.84463 21.6219 
13 1 2.48185 9.85542 22.0517 
15 1 3.03865 8.31429 17.8753 
28 1 3.79619 9.76656 20.149 
30 1 4.52747 8.57299 19.7446 
34 1 4.33348 6.34641 18.5801 
40 1 7.90326 8.33714 11.9623 
49 1 4.87855 7.79113 20.9153 
50 1 2.10945 9.23386 18.5289 
58 1 1.63522 10.0706 11.8655 
59 1 4.17927 7.79396 14.1686 
69 1 3.82985 9.83955 11.1392 
73 1 3.03645 8.31541 14.8923 
75 1 4.9622 6.35478 11.8658 
79 1 7.16958 6.19209 21.7963 
82 1 7.90343 6.90115 20.8359 
86 1 3.78972 9.76679 12.6143 
88 1 2.45444 9.99416 13.0753 