ITEM: TIMESTEP
0
ITEM: NUMBER OF ATOMS
201
ITEM: BOX BOUNDS pp pp pp
0.0000000000000000e+00 1.6114000000000001e+01
0.0000000000000000e+00 1.6113000000000000e+01
0.0000000000000000e+00 1.6111999999999998e+01
ITEM: ATOMS id type x y z 
5 1 5.384 5.384 5.384 
65 1 5.66 6.662 2.461 
66 1 5.336 7.323 3.711 
68 1 4.865 6.606 4.866 
79 1 5.364 7.322 1.219 
89 1 6.662 2.461 5.66 
90 1 7.323 3.711 5.336 
92 1 6.606 4.866 4.866 
101 1 7.322 1.219 5.364 
109 1 2.461 5.66 6.662 
110 1 3.71 5.336 7.323 
112 1 4.865 4.866 6.606 
121 1 1.218 5.364 7.322 
129 1 6.662 5.66 2.461 
130 1 7.323 5.336 3.711 
137 1 7.322 5.364 1.219 
141 1 2.461 6.662 5.66 
142 1 3.71 7.323 5.336 
149 1 1.218 7.322 5.364 
153 1 5.66 2.461 6.662 
154 1 5.336 3.711 7.323 
161 1 5.364 1.219 7.322 
7 1 6.662 5.66 13.616 
8 1 7.323 5.336 12.366 
10 1 6.606 4.866 11.211 
21 1 7.322 5.364 14.858 
32 1 1.218 7.322 10.713 
40 1 2.461 6.662 10.417 
41 1 3.71 7.323 10.741 
43 1 4.865 6.606 11.211 
47 1 5.364 1.219 8.755 
55 1 5.66 2.461 9.415 
56 1 5.336 3.711 8.754 
58 1 4.865 4.866 9.471 
64 1 5.629 6.643 16.094 
75 1 5.384 5.384 10.693 
118 1 6.643 5.629 16.094 
168 1 5.66 6.662 13.616 
169 1 5.336 7.323 12.366 
176 1 5.364 7.322 14.858 
182 1 7.322 1.219 10.713 
186 1 6.662 2.461 10.417 
187 1 7.323 3.711 10.741 
191 1 1.218 5.364 8.755 
195 1 2.461 5.66 9.415 
196 1 3.71 5.336 8.754 
9 1 7.322 10.713 1.219 
19 1 6.662 10.417 2.461 
20 1 7.323 10.741 3.711 
22 1 6.606 11.211 4.866 
27 1 1.218 8.755 5.364 
35 1 2.461 9.415 5.66 
36 1 3.71 8.754 5.336 
38 1 4.865 9.471 4.866 
44 1 6.643 16.095 5.63 
50 1 5.66 13.616 6.662 
51 1 5.336 12.366 7.323 
53 1 4.865 11.211 6.606 
62 1 5.364 14.858 7.322 
76 1 5.629 16.095 6.643 
81 1 5.384 10.693 5.384 
167 1 5.364 8.755 1.219 
171 1 5.66 9.415 2.461 
172 1 5.336 8.754 3.711 
180 1 6.662 13.616 5.66 
181 1 7.323 12.366 5.336 
188 1 7.322 14.858 5.364 
194 1 1.218 10.713 7.322 
198 1 2.461 10.417 6.662 
199 1 3.71 10.741 7.323 
17 1 5.384 10.693 10.693 
39 1 6.643 16.095 10.448 
49 1 5.629 9.434 16.095 
73 1 5.364 8.755 14.858 
82 1 5.629 16.095 9.434 
83 1 5.66 9.415 13.616 
84 1 5.336 8.754 12.366 
86 1 4.865 9.471 11.211 
91 1 7.322 14.858 10.713 
99 1 6.662 13.616 10.417 
100 1 7.323 12.366 10.741 
102 1 6.606 11.211 11.211 
113 1 6.643 10.448 16.094 
114 1 2.461 10.417 9.415 
115 1 3.71 10.741 8.754 
117 1 4.865 11.211 9.471 
126 1 1.218 10.713 8.755 
131 1 7.322 10.713 14.858 
135 1 6.662 10.417 13.616 
136 1 7.323 10.741 12.366 
144 1 2.461 9.415 10.417 
145 1 3.71 8.754 10.741 
152 1 1.218 8.755 10.713 
158 1 5.364 14.858 8.755 
162 1 5.66 13.616 9.415 
163 1 5.336 12.366 8.754 
3 1 8.755 5.364 1.219 
13 1 9.415 5.66 2.461 
14 1 8.754 5.336 3.711 
16 1 9.471 4.866 4.866 
24 1 16.095 5.629 6.643 
30 1 13.616 6.662 5.66 
31 1 12.367 7.323 5.336 
33 1 11.212 6.606 4.866 
42 1 14.859 7.322 5.364 
52 1 10.713 1.219 7.322 
60 1 10.417 2.461 6.662 
61 1 10.741 3.711 7.323 
63 1 11.212 4.866 6.606 
87 1 10.693 5.384 5.384 
98 1 16.095 6.643 5.63 
170 1 10.713 7.322 1.219 
174 1 10.417 6.662 2.461 
175 1 10.741 7.323 3.711 
179 1 8.755 1.219 5.364 
183 1 9.415 2.461 5.66 
184 1 8.754 3.711 5.336 
192 1 13.616 5.66 6.662 
193 1 12.367 5.336 7.323 
200 1 14.859 5.364 7.322 
201 2 8.755 4.014 1.219 
6 1 16.096 5.629 9.434 
23 1 10.693 5.384 10.693 
59 1 10.448 6.643 16.095 
67 1 10.713 7.322 14.858 
77 1 10.417 6.662 13.616 
78 1 10.741 7.323 12.366 
80 1 11.212 6.606 11.211 
93 1 16.096 6.643 10.448 
94 1 9.415 2.461 10.417 
95 1 8.754 3.711 10.741 
97 1 9.471 4.866 11.211 
106 1 8.755 1.219 10.713 
116 1 14.859 5.364 8.755 
123 1 9.434 5.629 16.094 
124 1 13.616 5.66 9.415 
125 1 12.367 5.336 8.754 
127 1 11.212 4.866 9.471 
134 1 8.755 5.364 14.858 
138 1 9.415 5.66 13.616 
139 1 8.754 5.336 12.366 
143 1 14.859 7.322 10.713 
147 1 13.616 6.662 10.417 
148 1 12.367 7.323 10.741 
156 1 10.417 2.461 9.415 
157 1 10.741 3.711 8.754 
164 1 10.713 1.219 8.755 
11 1 10.693 10.693 5.384 
18 1 16.096 10.448 6.643 
29 1 9.434 16.095 5.63 
70 1 10.448 16.095 6.643 
71 1 10.417 9.415 2.461 
72 1 10.741 8.754 3.711 
74 1 11.212 9.471 4.866 
85 1 10.713 8.755 1.219 
96 1 8.755 14.858 5.364 
103 1 16.095 9.434 5.63 
104 1 9.415 13.616 5.66 
105 1 8.754 12.366 5.336 
107 1 9.471 11.211 4.866 
111 1 14.859 10.713 7.322 
119 1 13.616 10.417 6.662 
120 1 12.367 10.741 7.323 
122 1 11.212 11.211 6.606 
132 1 9.415 10.417 2.461 
133 1 8.754 10.741 3.711 
140 1 8.755 10.713 1.219 
146 1 14.859 8.755 5.364 
150 1 13.616 9.415 5.66 
151 1 12.367 8.754 5.336 
155 1 10.713 14.858 7.322 
159 1 10.417 13.616 6.662 
160 1 10.741 12.366 7.323 
1 1 9.415 10.417 13.616 
2 1 8.754 10.741 12.366 
4 1 9.471 11.211 11.211 
12 1 16.096 10.448 9.434 
15 1 8.755 10.713 14.858 
25 1 13.616 9.415 10.417 
26 1 12.367 8.754 10.741 
28 1 11.212 9.471 11.211 
34 1 9.434 16.095 10.448 
37 1 14.859 8.755 10.713 
45 1 10.417 13.616 9.415 
46 1 10.741 12.366 8.754 
48 1 11.212 11.211 9.471 
54 1 10.448 9.434 16.094 
57 1 10.713 14.858 8.755 
69 1 10.693 10.693 10.693 
88 1 10.448 16.095 9.434 
108 1 16.096 9.434 10.448 
128 1 9.434 10.448 16.094 
165 1 10.417 9.415 13.616 
166 1 10.741 8.754 12.366 
173 1 10.713 8.755 14.858 
177 1 9.415 13.616 10.417 
178 1 8.754 12.366 10.741 
185 1 8.755 14.858 10.713 
189 1 13.616 10.417 9.415 
190 1 12.367 10.741 8.754 
197 1 14.859 10.713 8.755 
ITEM: TIMESTEP
10
ITEM: NUMBER OF ATOMS
201
ITEM: BOX BOUNDS pp pp pp
0.0000000000000000e+00 1.6114000000000001e+01
0.0000000000000000e+00 1.6113000000000000e+01
0.0000000000000000e+00 1.6111999999999998e+01
ITEM: ATOMS id type x y z 
5 1 5.35438 5.35098 5.34921 
65 1 5.58216 6.60886 2.43783 
66 1 5.37231 7.32784 3.70074 
68 1 4.88161 6.60267 4.88013 
79 1 5.26036 7.30677 1.20874 
89 1 6.60878 2.44423 5.58859 
90 1 7.33682 3.71004 5.37008 
92 1 6.61012 4.88152 4.86999 
101 1 7.31124 1.21206 5.25918 
109 1 2.44076 5.58886 6.60508 
110 1 3.70728 5.37242 7.3294 
112 1 4.88132 4.88069 6.60192 
121 1 1.20952 5.25754 7.30941 
129 1 6.62362 5.60483 2.42997 
130 1 7.34277 5.35983 3.7037 
137 1 7.3167 5.40346 1.20405 
141 1 2.44106 6.60546 5.58855 
142 1 3.70648 7.33037 5.37218 
149 1 1.20966 7.30948 5.25776 
153 1 5.59143 2.44138 6.60377 
154 1 5.37319 3.70724 7.32949 
161 1 5.25862 1.21084 7.30901 
7 1 6.61757 5.59222 13.6512 
8 1 7.3312 5.3712 12.3787 
10 1 6.60908 4.88202 11.2035 
21 1 7.32768 5.26903 14.868 
32 1 1.20988 7.30957 10.8193 
40 1 2.44117 6.60531 10.4886 
41 1 3.70574 7.33124 10.7049 
43 1 4.8808 6.60471 11.1995 
47 1 5.25797 1.21051 8.76667 
55 1 5.58878 2.44133 9.47173 
56 1 5.37262 3.7067 8.74591 
58 1 4.88013 4.88034 9.47319 
64 1 5.53974 6.58115 16.0945 
75 1 5.35397 5.3516 10.7265 
118 1 6.59623 5.56489 16.0981 
168 1 5.59888 6.60113 13.6394 
169 1 5.37472 7.32708 12.3776 
176 1 5.26318 7.30471 14.868 
182 1 7.30986 1.2104 10.8191 
186 1 6.60561 2.44167 10.4884 
187 1 7.33046 3.70888 10.7056 
191 1 1.20968 5.25774 8.76713 
195 1 2.44069 5.5886 9.47196 
196 1 3.70608 5.37245 8.74576 
9 1 7.31277 10.8188 1.2107 
19 1 6.60575 10.4882 2.44148 
20 1 7.33235 10.7042 3.7059 
22 1 6.60276 11.1949 4.88104 
27 1 1.2095 8.76717 5.25764 
35 1 2.44106 9.47121 5.58829 
36 1 3.70576 8.74532 5.37186 
38 1 4.88186 9.47366 4.88026 
44 1 6.57772 16.0969 5.54622 
50 1 5.58842 13.6357 6.60525 
51 1 5.37311 12.3707 7.33118 
53 1 4.88104 11.1955 6.60229 
62 1 5.2577 14.8674 7.30942 
76 1 5.54618 16.0957 6.57563 
81 1 5.35128 10.7256 5.35046 
167 1 5.25871 8.766 1.21037 
171 1 5.58803 9.46965 2.44173 
172 1 5.37217 8.74393 3.70614 
180 1 6.60557 13.6364 5.58814 
181 1 7.33028 12.3705 5.37283 
188 1 7.30982 14.8683 5.25813 
194 1 1.20979 10.8195 7.30961 
198 1 2.44092 10.4884 6.605 
199 1 3.70546 10.7041 7.33109 
17 1 5.35065 10.7249 10.7264 
39 1 6.57595 16.0954 10.5318 
49 1 5.54441 9.49814 16.0937 
73 1 5.25893 8.76288 14.8661 
82 1 5.54517 16.0954 9.50091 
83 1 5.58807 9.4691 13.6364 
84 1 5.37252 8.74243 12.3718 
86 1 4.88173 9.47325 11.1972 
91 1 7.30965 14.867 10.8194 
99 1 6.60523 13.6357 10.4887 
100 1 7.33084 12.3705 10.7039 
102 1 6.60275 11.1951 11.1956 
113 1 6.57632 10.5316 16.0949 
114 1 2.44082 10.4886 9.47188 
115 1 3.70568 10.7042 8.74599 
117 1 4.88089 11.1956 9.4745 
126 1 1.20963 10.8194 8.76727 
131 1 7.31194 10.819 14.8669 
135 1 6.60509 10.4881 13.6353 
136 1 7.33165 10.7038 12.3709 
144 1 2.44093 9.47171 10.4886 
145 1 3.70584 8.74609 10.7044 
152 1 1.20977 8.76725 10.8194 
158 1 5.25763 14.8671 8.76723 
162 1 5.58832 13.6356 9.47168 
163 1 5.37304 12.3706 8.74595 
3 1 8.75812 5.22684 1.20915 
13 1 9.42081 5.67894 2.40753 
14 1 8.76017 5.37909 3.67862 
16 1 9.47343 4.88135 4.86753 
24 1 16.0949 5.5453 6.57636 
30 1 13.6375 6.60391 5.5895 
31 1 12.3686 7.32629 5.37828 
33 1 11.199 6.60077 4.87657 
42 1 14.867 7.30979 5.25796 
52 1 10.8186 1.20933 7.3097 
60 1 10.4877 2.43981 6.6057 
61 1 10.7037 3.70653 7.33086 
63 1 11.1938 4.87948 6.60001 
87 1 10.7116 5.34769 5.3491 
98 1 16.0951 6.57663 5.54606 
170 1 10.8151 7.31254 1.20741 
174 1 10.4666 6.60951 2.43632 
175 1 10.7035 7.3323 3.71441 
179 1 8.76657 1.21128 5.25901 
183 1 9.47119 2.44296 5.58826 
184 1 8.75089 3.711 5.3863 
192 1 13.6351 5.5886 6.60608 
193 1 12.367 5.37171 7.32758 
200 1 14.8665 5.25801 7.30971 
201 2 8.80946 3.71243 1.22506 
6 1 16.0954 5.54515 9.50085 
23 1 10.723 5.35074 10.7259 
59 1 10.5092 6.58047 16.0907 
67 1 10.8187 7.31264 14.8562 
77 1 10.4787 6.60438 13.6381 
78 1 10.7035 7.33082 12.373 
80 1 11.1952 6.60287 11.1992 
93 1 16.0956 6.57593 10.5318 
94 1 9.47132 2.44256 10.4882 
95 1 8.74641 3.70771 10.7062 
97 1 9.47182 4.88357 11.201 
106 1 8.76755 1.21086 10.819 
116 1 14.8671 5.2577 8.76722 
123 1 9.44147 5.64358 16.1119 
124 1 13.6351 5.58848 9.47073 
125 1 12.3706 5.37209 8.74423 
127 1 11.197 4.88158 9.47434 
134 1 8.77645 5.26606 14.89 
138 1 9.46422 5.5938 13.6485 
139 1 8.74825 5.37046 12.3811 
143 1 14.8672 7.30943 10.8193 
147 1 13.6355 6.60531 10.4882 
148 1 12.3714 7.33096 10.7051 
156 1 10.4877 2.44102 9.47175 
157 1 10.7047 3.70649 8.74703 
164 1 10.8188 1.21055 8.76694 
11 1 10.7259 10.7271 5.35053 
18 1 16.0953 10.5317 6.57611 
29 1 9.49936 16.0972 5.54649 
70 1 10.5306 16.095 6.57556 
71 1 10.4853 9.46937 2.43649 
72 1 10.705 8.74384 3.70391 
74 1 11.1984 9.47081 4.8766 
85 1 10.8154 8.75754 1.20928 
96 1 8.76765 14.8688 5.25827 
103 1 16.0952 9.50035 5.54589 
104 1 9.47148 13.637 5.58806 
105 1 8.74589 12.3709 5.37337 
107 1 9.47068 11.1965 4.87921 
111 1 14.8671 10.8193 7.30956 
119 1 13.6368 10.4874 6.60417 
120 1 12.3715 10.7037 7.33061 
122 1 11.1971 11.1969 6.60521 
132 1 9.47438 10.4834 2.43869 
133 1 8.74764 10.7032 3.70445 
140 1 8.76953 10.8163 1.21009 
146 1 14.8668 8.76719 5.25797 
150 1 13.6356 9.47039 5.58851 
151 1 12.3698 8.74373 5.37047 
155 1 10.8192 14.8676 7.30937 
159 1 10.4885 13.6367 6.60494 
160 1 10.7035 12.371 7.331 
1 1 9.47287 10.4861 13.6371 
2 1 8.74695 10.7037 12.3719 
4 1 9.47337 11.1954 11.1964 
12 1 16.0956 10.5318 9.50107 
15 1 8.76997 10.8169 14.8681 
25 1 13.6364 9.47185 10.4887 
26 1 12.3705 8.74635 10.7041 
28 1 11.1967 9.47217 11.1977 
34 1 9.50114 16.0954 10.5316 
37 1 14.8676 8.76714 10.8195 
45 1 10.4886 13.6362 9.47197 
46 1 10.7039 12.3706 8.74668 
48 1 11.1963 11.1956 9.47439 
54 1 10.5274 9.49439 16.0943 
57 1 10.8193 14.8673 8.76715 
69 1 10.7263 10.7244 10.7263 
88 1 10.5318 16.0956 9.50071 
108 1 16.0957 9.50108 10.5318 
128 1 9.50372 10.526 16.096 
165 1 10.487 9.46881 13.6398 
166 1 10.7041 8.74563 12.3742 
173 1 10.8149 8.75944 14.8685 
177 1 9.47176 13.6358 10.4888 
178 1 8.74603 12.3704 10.7039 
185 1 8.76742 14.8671 10.8193 
189 1 13.6367 10.4887 9.47185 
190 1 12.3713 10.7042 8.74628 
197 1 14.8675 10.8195 8.76704 
ITEM: TIMESTEP
20
ITEM: NUMBER OF ATOMS
201
ITEM: BOX BOUNDS pp pp pp
0.0000000000000000e+00 1.6114000000000001e+01
0.0000000000000000e+00 1.6113000000000000e+01
0.0000000000000000e+00 1.6111999999999998e+01
ITEM: ATOMS id type x y z 
5 1 5.35756 5.35369 5.35209 
65 1 5.57147 6.61256 2.42901 
66 1 5.36756 7.32753 3.69977 
68 1 4.87352 6.61155 4.87531 
79 1 5.2499 7.31747 1.20472 
89 1 6.6071 2.43627 5.59142 
90 1 7.33311 3.70099 5.37063 
92 1 6.61219 4.87278 4.87225 
101 1 7.31057 1.20739 5.25454 
109 1 2.43206 5.59126 6.60447 
110 1 3.70189 5.369 7.3283 
112 1 4.87461 4.87435 6.61183 
121 1 1.20497 5.25395 7.3109 
129 1 6.60539 5.62018 2.44433 
130 1 7.33827 5.35611 3.7033 
137 1 7.29378 5.41775 1.19782 
141 1 2.43102 6.6039 5.59138 
142 1 3.70174 7.32793 5.36926 
149 1 1.20516 7.31122 5.25407 
153 1 5.5936 2.43293 6.6038 
154 1 5.37008 3.70123 7.32822 
161 1 5.25502 1.20692 7.31035 
7 1 6.61143 5.59586 13.6515 
8 1 7.33187 5.36758 12.3824 
10 1 6.61389 4.87669 11.2081 
21 1 7.32298 5.25748 14.8662 
32 1 1.20527 7.31116 10.8231 
40 1 2.43172 6.60372 10.4858 
41 1 3.7036 7.3278 10.7093 
43 1 4.8743 6.6139 11.2068 
47 1 5.25416 1.2059 8.76506 
55 1 5.59186 2.4325 9.47313 
56 1 5.36881 3.70301 8.74784 
58 1 4.87402 4.8744 9.46463 
64 1 5.52855 6.58265 16.0919 
75 1 5.35803 5.35569 10.7233 
118 1 6.57726 5.57782 16.0753 
168 1 5.60089 6.6019 13.6482 
169 1 5.37111 7.32282 12.3816 
176 1 5.25618 7.3105 14.8671 
182 1 7.31148 1.20622 10.8229 
186 1 6.60494 2.43409 10.4857 
187 1 7.32902 3.70206 10.7087 
191 1 1.20512 5.25397 8.76555 
195 1 2.43194 5.59122 9.47274 
196 1 3.70251 5.36856 8.74788 
9 1 7.31069 10.8213 1.20526 
19 1 6.60435 10.4841 2.43117 
20 1 7.32908 10.7074 3.69955 
22 1 6.6156 11.2028 4.87305 
27 1 1.20502 8.76565 5.25405 
35 1 2.43139 9.47252 5.59119 
36 1 3.70037 8.74737 5.36866 
38 1 4.87375 9.46119 4.8732 
44 1 6.57463 16.0955 5.5463 
50 1 5.59176 13.6458 6.60387 
51 1 5.36979 12.3762 7.32881 
53 1 4.87349 11.2033 6.61457 
62 1 5.25429 14.8713 7.3109 
76 1 5.54584 16.0952 6.57394 
81 1 5.35444 10.7234 5.35402 
167 1 5.25557 8.76873 1.20513 
171 1 5.59265 9.47239 2.43002 
172 1 5.36917 8.74944 3.69944 
180 1 6.60409 13.6463 5.59152 
181 1 7.32862 12.3761 5.36951 
188 1 7.31147 14.8717 5.25448 
194 1 1.20521 10.823 7.31098 
198 1 2.43087 10.4854 6.60361 
199 1 3.7006 10.7074 7.32893 
17 1 5.35439 10.7223 10.723 
39 1 6.57363 16.095 10.5315 
49 1 5.54748 9.50132 16.094 
73 1 5.25585 8.76424 14.8717 
82 1 5.54542 16.0951 9.5031 
83 1 5.59249 9.4707 13.6459 
84 1 5.36868 8.74424 12.3773 
86 1 4.87434 9.45998 11.206 
91 1 7.31124 14.8716 10.823 
99 1 6.60375 13.6454 10.4856 
100 1 7.32885 12.375 10.7075 
102 1 6.61502 11.2025 11.2037 
113 1 6.57428 10.5292 16.0943 
114 1 2.4309 10.4857 9.47318 
115 1 3.70096 10.7076 8.74824 
117 1 4.87366 11.203 9.46298 
126 1 1.20529 10.8232 8.76558 
131 1 7.3119 10.8212 14.8718 
135 1 6.60452 10.4844 13.6463 
136 1 7.3294 10.7073 12.3768 
144 1 2.43162 9.473 10.4858 
145 1 3.70135 8.74795 10.7082 
152 1 1.20512 8.76576 10.8232 
158 1 5.25404 14.8714 8.76545 
162 1 5.59132 13.6456 9.473 
163 1 5.36959 12.3753 8.7483 
3 1 8.77346 5.14432 1.20373 
13 1 9.43122 5.69495 2.42245 
14 1 8.75799 5.37487 3.69125 
16 1 9.45779 4.86829 4.86303 
24 1 16.0952 5.5456 6.57412 
30 1 13.6444 6.60415 5.59175 
31 1 12.3795 7.32913 5.37561 
33 1 11.2055 6.60571 4.87818 
42 1 14.8724 7.31128 5.25392 
52 1 10.8226 1.20632 7.31086 
60 1 10.4847 2.43219 6.60489 
61 1 10.7062 3.69806 7.32975 
63 1 11.1992 4.87297 6.61065 
87 1 10.7223 5.35378 5.35667 
98 1 16.0954 6.57393 5.54632 
170 1 10.834 7.32695 1.19772 
174 1 10.4787 6.62886 2.43013 
175 1 10.709 7.33887 3.71554 
179 1 8.76688 1.20907 5.25431 
183 1 9.47649 2.42965 5.59379 
184 1 8.75192 3.70615 5.38214 
192 1 13.6438 5.59012 6.6059 
193 1 12.3747 5.36922 7.328 
200 1 14.8713 5.25411 7.31133 
201 2 8.81798 3.63399 1.22643 
6 1 16.0954 5.54546 9.50317 
23 1 10.7199 5.35497 10.723 
59 1 10.5223 6.60046 16.0887 
67 1 10.8253 7.31671 14.8522 
77 1 10.4778 6.60507 13.6429 
78 1 10.7065 7.32836 12.3765 
80 1 11.2035 6.61396 11.2053 
93 1 16.0952 6.57355 10.5314 
94 1 9.47225 2.43301 10.486 
95 1 8.74828 3.70451 10.71 
97 1 9.46201 4.87491 11.2072 
106 1 8.76612 1.20606 10.8226 
116 1 14.8713 5.25407 8.76606 
123 1 9.45869 5.65244 16.0887 
124 1 13.6444 5.59163 9.47193 
125 1 12.3747 5.36845 8.74566 
127 1 11.2034 4.87403 9.4633 
134 1 8.7741 5.26126 14.8764 
138 1 9.46984 5.59759 13.6508 
139 1 8.74996 5.36665 12.3845 
143 1 14.8715 7.31073 10.8228 
147 1 13.6455 6.60357 10.485 
148 1 12.374 7.32886 10.7092 
156 1 10.4852 2.43256 9.47301 
157 1 10.7086 3.70285 8.7488 
164 1 10.8229 1.20569 8.76574 
11 1 10.7243 10.7187 5.35245 
18 1 16.0959 10.5313 6.57368 
29 1 9.5029 16.0956 5.54596 
70 1 10.5315 16.095 6.5737 
71 1 10.4834 9.46839 2.42994 
72 1 10.7067 8.75249 3.69703 
74 1 11.2045 9.46932 4.87568 
85 1 10.821 8.76306 1.20313 
96 1 8.76492 14.8715 5.25421 
103 1 16.0956 9.50301 5.5462 
104 1 9.47287 13.6458 5.5914 
105 1 8.7483 12.3761 5.36991 
107 1 9.46306 11.2033 4.87382 
111 1 14.8718 10.8232 7.31096 
119 1 13.6458 10.4848 6.60312 
120 1 12.3758 10.7072 7.32832 
122 1 11.2032 11.2033 6.61362 
132 1 9.47572 10.4813 2.43065 
133 1 8.74928 10.7063 3.70039 
140 1 8.76577 10.821 1.2049 
146 1 14.8719 8.76553 5.25389 
150 1 13.6443 9.47191 5.5911 
151 1 12.3755 8.74453 5.369 
155 1 10.8231 14.8711 7.31162 
159 1 10.4851 13.6454 6.60327 
160 1 10.707 12.3756 7.3286 
1 1 9.47452 10.4825 13.6467 
2 1 8.7485 10.707 12.3772 
4 1 9.46259 11.2023 11.2039 
12 1 16.0955 10.5316 9.50335 
15 1 8.76631 10.8203 14.8717 
25 1 13.645 9.4724 10.4859 
26 1 12.3768 8.74763 10.7074 
28 1 11.2032 9.46216 11.2051 
34 1 9.50312 16.0956 10.5315 
37 1 14.8716 8.76572 10.8232 
45 1 10.4858 13.6457 9.47306 
46 1 10.7073 12.3757 8.7484 
48 1 11.2034 11.2029 9.46307 
54 1 10.5273 9.49663 16.0934 
57 1 10.823 14.8717 8.76568 
69 1 10.7227 10.7203 10.724 
88 1 10.5314 16.0948 9.50327 
108 1 16.0957 9.50336 10.5316 
128 1 9.50668 10.5256 16.0936 
165 1 10.4823 9.47164 13.6469 
166 1 10.7079 8.74759 12.3789 
173 1 10.8201 8.76312 14.8715 
177 1 9.47287 13.6452 10.4859 
178 1 8.7481 12.3756 10.7074 
185 1 8.76591 14.8717 10.823 
189 1 13.646 10.4855 9.47352 
190 1 12.3763 10.7075 8.74812 
197 1 14.8722 10.8233 8.76576 
ITEM: TIMESTEP
30
ITEM: NUMBER OF ATOMS
201
ITEM: BOX BOUNDS pp pp pp
0.0000000000000000e+00 1.6114000000000001e+01
0.0000000000000000e+00 1.6113000000000000e+01
0.0000000000000000e+00 1.6111999999999998e+01
ITEM: ATOMS id type x y z 
5 1 5.35755 5.3537 5.35211 
65 1 5.57148 6.61254 2.42901 
66 1 5.36756 7.32754 3.69977 
68 1 4.87352 6.61154 4.87531 
79 1 5.2499 7.31747 1.2047 
89 1 6.60709 2.43626 5.59142 
90 1 7.33312 3.70099 5.37063 
92 1 6.61218 4.87279 4.87224 
101 1 7.31057 1.20738 5.25453 
109 1 2.43206 5.59126 6.60447 
110 1 3.70188 5.369 7.3283 
112 1 4.87461 4.87435 6.61182 
121 1 1.20497 5.25395 7.3109 
129 1 6.60542 5.62019 2.44433 
130 1 7.33824 5.35611 3.70327 
137 1 7.29377 5.41776 1.19784 
141 1 2.43102 6.6039 5.59137 
142 1 3.70173 7.32793 5.36926 
149 1 1.20516 7.31122 5.25406 
153 1 5.5936 2.43293 6.6038 
154 1 5.37008 3.70122 7.32822 
161 1 5.25502 1.20692 7.31035 
7 1 6.61144 5.59585 13.6515 
8 1 7.33187 5.36757 12.3824 
10 1 6.61388 4.87668 11.2081 
21 1 7.32299 5.25748 14.8662 
32 1 1.20527 7.31115 10.8231 
40 1 2.43172 6.60373 10.4858 
41 1 3.70358 7.3278 10.7093 
43 1 4.87431 6.61388 11.2068 
47 1 5.25416 1.2059 8.76506 
55 1 5.59186 2.4325 9.47313 
56 1 5.36881 3.70299 8.74785 
58 1 4.87403 4.8744 9.46464 
64 1 5.52854 6.58265 16.0919 
75 1 5.35803 5.35569 10.7233 
118 1 6.57727 5.57783 16.0753 
168 1 5.60089 6.6019 13.6482 
169 1 5.37111 7.32283 12.3817 
176 1 5.25618 7.31051 14.8671 
182 1 7.31148 1.20621 10.8229 
186 1 6.60495 2.43408 10.4857 
187 1 7.32902 3.70206 10.7087 
191 1 1.20511 5.25396 8.76555 
195 1 2.43194 5.59122 9.47274 
196 1 3.70249 5.36857 8.74788 
9 1 7.31069 10.8213 1.20526 
19 1 6.60435 10.4841 2.43116 
20 1 7.32909 10.7074 3.69954 
22 1 6.61558 11.2028 4.87306 
27 1 1.20502 8.76565 5.25405 
35 1 2.43139 9.47252 5.59119 
36 1 3.70036 8.74737 5.36866 
38 1 4.87376 9.46121 4.8732 
44 1 6.57463 16.0955 5.5463 
50 1 5.59176 13.6458 6.60387 
51 1 5.36979 12.3762 7.32881 
53 1 4.8735 11.2033 6.61455 
62 1 5.25429 14.8713 7.31089 
76 1 5.54584 16.0953 6.57394 
81 1 5.35444 10.7234 5.35402 
167 1 5.25557 8.76873 1.20513 
171 1 5.59265 9.47239 2.43002 
172 1 5.36917 8.74945 3.69943 
180 1 6.60409 13.6463 5.59152 
181 1 7.32862 12.3761 5.36951 
188 1 7.31147 14.8717 5.25448 
194 1 1.2052 10.823 7.31098 
198 1 2.43087 10.4854 6.60362 
199 1 3.70059 10.7074 7.32893 
17 1 5.35439 10.7223 10.723 
39 1 6.57363 16.0951 10.5315 
49 1 5.54748 9.50132 16.094 
73 1 5.25585 8.76424 14.8717 
82 1 5.54542 16.0951 9.5031 
83 1 5.59249 9.47069 13.6459 
84 1 5.36868 8.74424 12.3773 
86 1 4.87435 9.46 11.206 
91 1 7.31124 14.8716 10.823 
99 1 6.60376 13.6454 10.4856 
100 1 7.32885 12.3751 10.7075 
102 1 6.615 11.2025 11.2037 
113 1 6.57428 10.5292 16.0943 
114 1 2.43089 10.4857 9.47317 
115 1 3.70095 10.7076 8.74824 
117 1 4.87366 11.203 9.463 
126 1 1.20528 10.8232 8.76558 
131 1 7.31191 10.8212 14.8718 
135 1 6.60452 10.4844 13.6463 
136 1 7.32941 10.7073 12.3768 
144 1 2.43162 9.47299 10.4858 
145 1 3.70134 8.74794 10.7082 
152 1 1.20512 8.76576 10.8232 
158 1 5.25403 14.8715 8.76545 
162 1 5.59132 13.6456 9.473 
163 1 5.36959 12.3753 8.7483 
3 1 8.77352 5.14428 1.20375 
13 1 9.43122 5.69496 2.4224 
14 1 8.75799 5.37489 3.6912 
16 1 9.45782 4.8683 4.86305 
24 1 16.0952 5.54559 6.57412 
30 1 13.6444 6.60415 5.59175 
31 1 12.3795 7.32912 5.37561 
33 1 11.2055 6.60572 4.87817 
42 1 14.8724 7.31128 5.25392 
52 1 10.8226 1.20631 7.31086 
60 1 10.4847 2.43218 6.60489 
61 1 10.7062 3.69807 7.32975 
63 1 11.1992 4.87297 6.61065 
87 1 10.7223 5.35378 5.35667 
98 1 16.0954 6.57393 5.54631 
170 1 10.834 7.32693 1.19776 
174 1 10.4787 6.62886 2.43013 
175 1 10.709 7.33884 3.71552 
179 1 8.76688 1.20906 5.25431 
183 1 9.47647 2.42966 5.59378 
184 1 8.75193 3.70613 5.38214 
192 1 13.6438 5.59012 6.60591 
193 1 12.3747 5.36922 7.328 
200 1 14.8713 5.25411 7.31132 
201 2 8.81799 3.63399 1.22643 
6 1 16.0954 5.54546 9.50317 
23 1 10.7199 5.35498 10.723 
59 1 10.5223 6.60045 16.0887 
67 1 10.8253 7.31674 14.8522 
77 1 10.4778 6.60507 13.6429 
78 1 10.7065 7.32838 12.3765 
80 1 11.2035 6.61394 11.2053 
93 1 16.0953 6.57355 10.5314 
94 1 9.47224 2.43301 10.486 
95 1 8.74828 3.70449 10.71 
97 1 9.46203 4.87492 11.2072 
106 1 8.76612 1.20606 10.8226 
116 1 14.8713 5.25407 8.76606 
123 1 9.45867 5.65241 16.0887 
124 1 13.6444 5.59163 9.47193 
125 1 12.3747 5.36845 8.74566 
127 1 11.2034 4.87404 9.46332 
134 1 8.77408 5.26126 14.8764 
138 1 9.46983 5.59758 13.6508 
139 1 8.74996 5.36665 12.3845 
143 1 14.8715 7.31073 10.8228 
147 1 13.6455 6.60358 10.485 
148 1 12.374 7.32886 10.7092 
156 1 10.4852 2.43256 9.473 
157 1 10.7086 3.70284 8.7488 
164 1 10.8229 1.20569 8.76574 
11 1 10.7243 10.7187 5.35246 
18 1 16.0959 10.5313 6.57368 
29 1 9.5029 16.0956 5.54596 
70 1 10.5315 16.095 6.5737 
71 1 10.4834 9.46841 2.42993 
72 1 10.7067 8.75248 3.69703 
74 1 11.2045 9.46932 4.87568 
85 1 10.821 8.76307 1.20312 
96 1 8.76493 14.8715 5.2542 
103 1 16.0956 9.50301 5.5462 
104 1 9.47287 13.6458 5.5914 
105 1 8.7483 12.3761 5.36991 
107 1 9.46307 11.2033 4.87382 
111 1 14.8718 10.8232 7.31095 
119 1 13.6458 10.4848 6.60312 
120 1 12.3758 10.7072 7.32832 
122 1 11.2032 11.2033 6.61361 
132 1 9.47571 10.4813 2.43064 
133 1 8.74929 10.7063 3.70038 
140 1 8.76577 10.821 1.2049 
146 1 14.8719 8.76553 5.25389 
150 1 13.6443 9.4719 5.5911 
151 1 12.3755 8.74454 5.369 
155 1 10.8231 14.8711 7.31162 
159 1 10.4851 13.6454 6.60327 
160 1 10.707 12.3756 7.3286 
1 1 9.47451 10.4825 13.6467 
2 1 8.74851 10.7071 12.3772 
4 1 9.4626 11.2023 11.2039 
12 1 16.0955 10.5316 9.50335 
15 1 8.76631 10.8203 14.8717 
25 1 13.645 9.4724 10.4859 
26 1 12.3768 8.74763 10.7074 
28 1 11.2032 9.46217 11.2051 
34 1 9.50312 16.0956 10.5315 
37 1 14.8717 8.76572 10.8232 
45 1 10.4858 13.6457 9.47305 
46 1 10.7073 12.3757 8.74841 
48 1 11.2034 11.2029 9.46309 
54 1 10.5273 9.49664 16.0934 
57 1 10.823 14.8717 8.76568 
69 1 10.7227 10.7203 10.724 
88 1 10.5314 16.0948 9.50327 
108 1 16.0957 9.50335 10.5316 
128 1 9.50668 10.5257 16.0936 
165 1 10.4823 9.47163 13.6469 
166 1 10.7079 8.7476 12.3789 
173 1 10.8201 8.76312 14.8715 
177 1 9.47287 13.6452 10.4859 
178 1 8.7481 12.3756 10.7074 
185 1 8.76591 14.8717 10.823 
189 1 13.646 10.4855 9.47351 
190 1 12.3764 10.7075 8.74812 
197 1 14.8722 10.8233 8.76576 
ITEM: TIMESTEP
39
ITEM: NUMBER OF ATOMS
201
ITEM: BOX BOUNDS pp pp pp
0.0000000000000000e+00 1.6114000000000001e+01
0.0000000000000000e+00 1.6113000000000000e+01
0.0000000000000000e+00 1.6111999999999998e+01
ITEM: ATOMS id type x y z 
5 1 5.35755 5.3537 5.35211 
65 1 5.57148 6.61254 2.42901 
66 1 5.36756 7.32754 3.69977 
68 1 4.87352 6.61154 4.87531 
79 1 5.2499 7.31747 1.2047 
89 1 6.60709 2.43625 5.59142 
90 1 7.33312 3.70099 5.37063 
92 1 6.61218 4.87279 4.87224 
101 1 7.31057 1.20738 5.25453 
109 1 2.43206 5.59126 6.60447 
110 1 3.70188 5.369 7.3283 
112 1 4.87461 4.87435 6.61182 
121 1 1.20497 5.25395 7.3109 
129 1 6.60542 5.6202 2.44433 
130 1 7.33824 5.35611 3.70326 
137 1 7.29377 5.41776 1.19785 
141 1 2.43102 6.6039 5.59137 
142 1 3.70173 7.32793 5.36926 
149 1 1.20516 7.31122 5.25406 
153 1 5.5936 2.43292 6.60381 
154 1 5.37008 3.70122 7.32822 
161 1 5.25502 1.20692 7.31035 
7 1 6.61145 5.59585 13.6515 
8 1 7.33187 5.36757 12.3824 
10 1 6.61388 4.87668 11.2081 
21 1 7.32299 5.25748 14.8662 
32 1 1.20527 7.31115 10.8231 
40 1 2.43172 6.60373 10.4858 
41 1 3.70357 7.3278 10.7093 
43 1 4.87431 6.61387 11.2068 
47 1 5.25416 1.2059 8.76506 
55 1 5.59186 2.4325 9.47312 
56 1 5.36881 3.70299 8.74785 
58 1 4.87403 4.8744 9.46464 
64 1 5.52854 6.58266 16.0919 
75 1 5.35804 5.35569 10.7233 
118 1 6.57727 5.57783 16.0753 
168 1 5.60089 6.6019 13.6482 
169 1 5.37111 7.32283 12.3817 
176 1 5.25618 7.31051 14.8671 
182 1 7.31148 1.20621 10.8229 
186 1 6.60495 2.43408 10.4857 
187 1 7.32902 3.70206 10.7087 
191 1 1.20511 5.25396 8.76555 
195 1 2.43194 5.59122 9.47274 
196 1 3.70249 5.36857 8.74788 
9 1 7.3107 10.8213 1.20526 
19 1 6.60435 10.4841 2.43116 
20 1 7.32909 10.7074 3.69954 
22 1 6.61558 11.2028 4.87306 
27 1 1.20502 8.76565 5.25405 
35 1 2.43138 9.47252 5.59119 
36 1 3.70036 8.74737 5.36866 
38 1 4.87376 9.46121 4.8732 
44 1 6.57463 16.0955 5.5463 
50 1 5.59176 13.6458 6.60387 
51 1 5.36979 12.3762 7.32881 
53 1 4.8735 11.2033 6.61455 
62 1 5.25429 14.8713 7.31089 
76 1 5.54584 16.0953 6.57394 
81 1 5.35444 10.7234 5.35402 
167 1 5.25557 8.76873 1.20513 
171 1 5.59265 9.47239 2.43002 
172 1 5.36917 8.74945 3.69943 
180 1 6.60409 13.6463 5.59152 
181 1 7.32861 12.3761 5.36951 
188 1 7.31147 14.8717 5.25448 
194 1 1.2052 10.823 7.31098 
198 1 2.43087 10.4854 6.60362 
199 1 3.70059 10.7074 7.32893 
17 1 5.35439 10.7223 10.723 
39 1 6.57363 16.0951 10.5315 
49 1 5.54748 9.50132 16.094 
73 1 5.25585 8.76424 14.8717 
82 1 5.54542 16.0951 9.5031 
83 1 5.59249 9.47069 13.6459 
84 1 5.36868 8.74424 12.3773 
86 1 4.87435 9.46 11.206 
91 1 7.31124 14.8716 10.823 
99 1 6.60376 13.6454 10.4856 
100 1 7.32885 12.3751 10.7075 
102 1 6.615 11.2025 11.2037 
113 1 6.57428 10.5292 16.0943 
114 1 2.43089 10.4857 9.47317 
115 1 3.70095 10.7076 8.74824 
117 1 4.87366 11.203 9.463 
126 1 1.20528 10.8232 8.76558 
131 1 7.31191 10.8212 14.8718 
135 1 6.60452 10.4844 13.6463 
136 1 7.32941 10.7073 12.3768 
144 1 2.43162 9.47299 10.4858 
145 1 3.70133 8.74794 10.7082 
152 1 1.20512 8.76576 10.8232 
158 1 5.25403 14.8715 8.76545 
162 1 5.59132 13.6456 9.473 
163 1 5.36959 12.3753 8.7483 
3 1 8.77353 5.14428 1.20375 
13 1 9.43122 5.69497 2.42239 
14 1 8.75799 5.37489 3.6912 
16 1 9.45783 4.8683 4.86306 
24 1 16.0952 5.54559 6.57412 
30 1 13.6444 6.60415 5.59175 
31 1 12.3795 7.32912 5.3756 
33 1 11.2055 6.60572 4.87817 
42 1 14.8724 7.31128 5.25392 
52 1 10.8226 1.20631 7.31086 
60 1 10.4847 2.43218 6.6049 
61 1 10.7062 3.69807 7.32975 
63 1 11.1992 4.87297 6.61065 
87 1 10.7223 5.35378 5.35667 
98 1 16.0954 6.57393 5.54631 
170 1 10.834 7.32692 1.19776 
174 1 10.4787 6.62886 2.43013 
175 1 10.709 7.33884 3.71552 
179 1 8.76688 1.20906 5.25431 
183 1 9.47647 2.42966 5.59378 
184 1 8.75193 3.70612 5.38214 
192 1 13.6438 5.59012 6.60591 
193 1 12.3747 5.36922 7.32799 
200 1 14.8713 5.25411 7.31132 
201 2 8.81799 3.63399 1.22643 
6 1 16.0954 5.54546 9.50317 
23 1 10.7199 5.35498 10.723 
59 1 10.5222 6.60045 16.0887 
67 1 10.8253 7.31674 14.8522 
77 1 10.4778 6.60507 13.6429 
78 1 10.7065 7.32838 12.3765 
80 1 11.2035 6.61394 11.2053 
93 1 16.0953 6.57355 10.5314 
94 1 9.47224 2.43301 10.486 
95 1 8.74828 3.70448 10.71 
97 1 9.46203 4.87492 11.2072 
106 1 8.76612 1.20606 10.8226 
116 1 14.8713 5.25407 8.76606 
123 1 9.45866 5.65241 16.0887 
124 1 13.6444 5.59164 9.47193 
125 1 12.3747 5.36845 8.74566 
127 1 11.2034 4.87404 9.46332 
134 1 8.77408 5.26126 14.8764 
138 1 9.46983 5.59758 13.6508 
139 1 8.74996 5.36665 12.3845 
143 1 14.8715 7.31073 10.8228 
147 1 13.6455 6.60358 10.485 
148 1 12.374 7.32886 10.7092 
156 1 10.4852 2.43256 9.473 
157 1 10.7086 3.70283 8.7488 
164 1 10.8229 1.20569 8.76574 
11 1 10.7243 10.7187 5.35246 
18 1 16.0959 10.5313 6.57368 
29 1 9.5029 16.0956 5.54596 
70 1 10.5315 16.095 6.5737 
71 1 10.4834 9.46841 2.42993 
72 1 10.7067 8.75248 3.69703 
74 1 11.2045 9.46932 4.87568 
85 1 10.821 8.76307 1.20312 
96 1 8.76493 14.8715 5.2542 
103 1 16.0956 9.50301 5.5462 
104 1 9.47287 13.6458 5.5914 
105 1 8.7483 12.3761 5.3699 
107 1 9.46307 11.2033 4.87382 
111 1 14.8718 10.8232 7.31095 
119 1 13.6458 10.4848 6.60312 
120 1 12.3758 10.7072 7.32832 
122 1 11.2032 11.2033 6.61361 
132 1 9.47571 10.4813 2.43064 
133 1 8.74929 10.7063 3.70037 
140 1 8.76577 10.821 1.2049 
146 1 14.8719 8.76553 5.25389 
150 1 13.6443 9.4719 5.5911 
151 1 12.3755 8.74454 5.369 
155 1 10.8231 14.8711 7.31162 
159 1 10.4851 13.6454 6.60327 
160 1 10.707 12.3756 7.3286 
1 1 9.47451 10.4825 13.6467 
2 1 8.74851 10.7071 12.3772 
4 1 9.4626 11.2023 11.2039 
12 1 16.0955 10.5316 9.50335 
15 1 8.76631 10.8203 14.8717 
25 1 13.645 9.4724 10.4859 
26 1 12.3768 8.74763 10.7074 
28 1 11.2032 9.46217 11.2051 
34 1 9.50312 16.0956 10.5315 
37 1 14.8717 8.76572 10.8232 
45 1 10.4858 13.6457 9.47305 
46 1 10.7073 12.3757 8.74841 