ITEM: TIMESTEP
0
ITEM: NUMBER OF ATOMS
161
ITEM: BOX BOUNDS xy xz yz pp pp pp
-6.7755000000000001e+00 1.3552000000000000e+01 -6.7755000000000001e+00
0.0000000000000000e+00 1.1735510246683001e+01 0.0000000000000000e+00
0.0000000000000000e+00 2.2149999999999999e+01 0.0000000000000000e+00
ITEM: ATOMS id type x y z 
8 1 -2.486 5.297 9.849 
87 1 3.001 4.231 10.696 
90 1 2.733 5.481 9.824 
109 1 -2.486 5.297 0.765 
158 1 2.733 5.481 0.79 
11 1 4.24 4.139 20.131 
14 1 3.031 4.094 19.728 
18 1 1.299 5.827 18.554 
33 1 2.266 4.151 20.924 
43 1 4.343 3.96 21.647 
47 1 3.32 5.732 17.88 
52 1 4.24 4.139 12.633 
76 1 2.552 4.924 14.209 
85 1 4.343 3.96 11.117 
89 1 3.32 5.732 14.883 
91 1 1.036 5.037 11.84 
102 1 3.031 4.094 13.035 
105 1 1.299 5.827 14.209 
114 1 2.266 4.151 11.84 
150 1 2.552 4.924 18.554 
156 1 3.001 4.231 22.068 
159 1 1.036 5.037 20.924 
5 1 -5.049 10.63 8.653 
9 1 -3.317 8.897 7.479 
19 1 -1.707 7.414 10.572 
21 1 -2.66 8.795 10.993 
23 1 -3.31 7.532 6.805 
25 1 -4.284 10.573 9.849 
32 1 1.503 6.367 0.79 
36 1 -1.869 7.426 9.056 
38 1 -2.209 6.086 8.653 
54 1 0.3 8.576 10.696 
57 1 1.291 8.001 9.824 
60 1 -1.707 7.414 0.042 
65 1 -3.31 7.532 3.808 
78 1 -1.869 7.426 1.558 
80 1 -2.566 8.842 1.961 
84 1 -4.57 9.799 3.135 
99 1 -3.054 9.687 0.765 
100 1 -2.96 6.142 3.135 
107 1 -5.049 10.63 1.961 
110 1 -3.317 8.897 3.135 
111 1 0.642 5.929 10.696 
113 1 1.503 6.367 9.824 
119 1 -4.284 10.573 0.765 
127 1 -2.209 6.086 1.961 
131 1 -2.318 6.148 10.993 
138 1 1.291 8.001 0.79 
142 1 -2.566 8.842 8.653 
145 1 -4.57 9.799 7.479 
151 1 -5.019 10.493 10.993 
154 1 -3.054 9.687 9.849 
155 1 -2.96 6.142 7.479 
12 1 2.53 7.1 17.202 
17 1 0.468 9.427 20.924 
24 1 -3.52 8.357 11.865 
27 1 -0.31 7.31 21.647 
29 1 0.642 5.929 22.068 
31 1 1.292 7.192 17.88 
44 1 -0.148 7.298 20.131 
46 1 0.191 8.638 19.728 
51 1 -0.31 7.31 11.117 
53 1 2.53 7.1 15.561 
56 1 1.292 7.192 14.883 
63 1 -2.318 6.148 21.771 
66 1 -3.309 6.723 20.899 
70 1 -0.148 7.298 12.633 
72 1 0.548 5.882 13.035 
92 1 0.942 8.582 14.209 
95 1 -5.019 10.493 21.771 
98 1 -4.751 9.243 20.899 
104 1 0.468 9.427 11.84 
116 1 -2.66 8.795 21.771 
118 1 -3.52 8.357 20.899 
122 1 0.191 8.638 13.035 
133 1 -3.309 6.723 11.865 
136 1 0.3 8.576 22.068 
147 1 0.548 5.882 19.728 
153 1 -4.751 9.243 11.865 
160 1 0.942 8.582 18.554 
1 1 7.976 4.694 10.572 
4 1 9.274 4.77 10.993 
20 1 8.034 4.861 9.056 
42 1 9.55 5.41 7.479 
67 1 10.043 4.578 0.765 
77 1 7.976 4.694 0.042 
94 1 8.035 4.861 1.558 
96 1 9.278 4.635 1.961 
121 1 4.688 5.417 10.696 
130 1 9.55 5.41 3.135 
134 1 10.043 4.578 9.849 
152 1 9.278 4.635 8.653 
45 1 4.688 5.417 22.068 
55 1 4.788 5.329 13.035 
106 1 9.274 4.77 21.771 
137 1 4.788 5.329 19.728 
2 1 7.294 10.585 9.056 
3 1 9.004 7.624 6.127 
6 1 8.556 6.347 6.805 
16 1 2.314 8.72 0.79 
22 1 7.166 6.156 8.653 
26 1 7.226 8.565 7.479 
35 1 7.191 10.764 10.572 
37 1 6.846 9.307 10.993 
39 1 8.214 8.992 6.805 
41 1 6.677 7.002 9.849 
48 1 3.775 6.213 0.79 
61 1 7.294 10.585 1.558 
62 1 9.004 7.624 4.487 
64 1 6.747 9.395 1.961 
68 1 7.437 6.931 3.135 
71 1 4.29 8.493 10.696 
74 1 3.567 7.818 9.824 
81 1 8.556 6.347 3.808 
83 1 6.47 8.606 0.765 
93 1 7.191 10.764 0.042 
97 1 8.214 8.992 3.808 
101 1 2.261 9.954 10.696 
103 1 2.314 8.72 9.824 
117 1 7.166 6.156 1.961 
120 1 7.226 8.565 3.135 
123 1 3.775 6.213 9.824 
129 1 6.677 7.002 0.765 
132 1 6.747 9.395 8.653 
135 1 7.437 6.931 7.479 
141 1 7.244 6.231 10.993 
144 1 6.47 8.606 9.849 
148 1 3.567 7.818 0.79 
7 1 9.22 6.004 11.865 
10 1 3.558 10.029 21.647 
13 1 2.261 9.954 22.068 
15 1 2.978 8.376 17.88 
28 1 3.5 9.862 20.131 
30 1 4.369 8.568 19.728 
34 1 4.308 6.159 18.554 
40 1 7.76 8.511 11.865 
49 1 4.857 7.722 20.924 
50 1 1.984 9.314 18.554 
58 1 1.491 10.146 11.84 
59 1 4.097 7.793 14.209 
69 1 3.558 10.029 11.117 
73 1 2.978 8.376 14.883 
75 1 5.064 6.118 11.84 
79 1 7.244 6.231 21.771 
82 1 7.967 6.906 20.899 
86 1 3.5 9.862 12.633 
88 1 2.256 10.089 13.035 
108 1 9.22 6.004 20.899 
112 1 4.369 8.568 13.035 
115 1 4.308 6.159 14.209 
124 1 4.857 7.722 11.84 
125 1 1.984 9.314 14.209 
126 1 6.846 9.307 21.771 
128 1 7.76 8.511 20.899 
139 1 1.491 10.146 20.924 
140 1 4.097 7.793 18.554 
143 1 7.967 6.906 11.865 
146 1 4.29 8.493 22.068 
149 1 5.064 6.118 20.924 
157 1 2.256 10.089 19.728 
161 2 5.197 7.793 14.209 
ITEM: TIMESTEP
10
ITEM: NUMBER OF ATOMS
161
ITEM: BOX BOUNDS xy xz yz pp pp pp
-6.7755000000000001e+00 1.3552000000000000e+01 -6.7755000000000001e+00
0.0000000000000000e+00 1.1735510246683001e+01 0.0000000000000000e+00
0.0000000000000000e+00 2.2149999999999999e+01 0.0000000000000000e+00
ITEM: ATOMS id type x y z 
8 1 -2.42377 5.34453 9.85758 
87 1 2.96082 4.24004 10.628 
90 1 2.65232 5.47977 9.78246 
109 1 -2.42224 5.34878 0.769571 
158 1 2.65376 5.47997 0.835788 
11 1 4.28547 4.18342 20.1512 
14 1 2.9307 4.1223 19.6982 
18 1 1.33628 5.86644 18.586 
33 1 2.13948 4.21032 20.8865 
43 1 4.33938 4.13332 21.5802 
47 1 3.24717 5.79851 17.8397 
52 1 4.28071 4.14317 12.6036 
76 1 2.42399 4.89802 14.1781 
85 1 4.33707 4.12291 11.1737 
89 1 3.24097 5.78946 14.9178 
91 1 0.997101 5.07416 11.8553 
102 1 2.91162 4.11396 13.0687 
105 1 1.33449 5.84948 14.1942 
114 1 2.13737 4.21575 11.8784 
150 1 2.43814 4.91329 18.5793 
156 1 2.97036 4.2381 22.1347 
159 1 0.997295 5.06781 20.9014 
5 1 -4.94903 10.6095 8.63278 
9 1 -3.34843 8.87227 7.51423 
19 1 -1.74093 7.4725 10.5552 
21 1 -2.57009 8.78144 10.8574 
23 1 -3.31544 7.53338 6.82911 
25 1 -4.17323 10.5099 9.8279 
32 1 1.5775 6.351 0.772834 
36 1 -1.89446 7.53427 9.05618 
38 1 -2.15348 6.18237 8.63625 
54 1 0.30767 8.51745 10.6669 
57 1 1.34032 7.98608 9.80226 
60 1 -1.74153 7.47903 0.0735811 
65 1 -3.31429 7.52879 3.78212 
78 1 -1.90683 7.52013 1.55122 
80 1 -2.54209 8.78084 1.84269 
84 1 -4.47065 9.82903 3.11099 
99 1 -3.0186 9.66382 0.803065 
100 1 -2.91616 6.25767 3.17805 
107 1 -4.94475 10.6092 1.97993 
110 1 -3.34719 8.87132 3.10546 
111 1 0.591428 5.95977 10.8169 
113 1 1.57742 6.34726 9.84358 
119 1 -4.17446 10.508 0.783595 
127 1 -2.15699 6.20119 1.97012 
131 1 -2.32303 6.20405 11.026 
138 1 1.29992 7.95622 0.818573 
142 1 -2.55196 8.79405 8.77042 
145 1 -4.46336 9.82713 7.50261 
151 1 -4.99578 10.4719 11.036 
154 1 -3.01818 9.6641 9.80731 
155 1 -2.92607 6.25255 7.42578 
12 1 2.56656 7.07259 17.1431 
17 1 0.401668 9.3862 20.9381 
24 1 -3.61435 8.35846 11.8917 
27 1 -0.271084 7.24372 21.6293 
29 1 0.592449 5.95716 21.9526 
31 1 1.30613 7.17621 17.9173 
44 1 -0.120784 7.19121 20.142 
46 1 0.13112 8.53488 19.7041 
51 1 -0.263854 7.24802 11.129 
53 1 2.54478 7.07272 15.6284 
56 1 1.29347 7.17043 14.8465 
63 1 -2.31822 6.20179 21.7393 
66 1 -3.32971 6.74227 20.87 
70 1 -0.118393 7.21001 12.6246 
72 1 0.528479 5.93412 12.9086 
92 1 0.897264 8.45873 14.2492 
95 1 -5.00814 10.4606 21.7322 
98 1 -4.70354 9.27713 20.8574 
104 1 0.401677 9.3767 11.8344 
116 1 -2.57527 8.77524 21.8992 
118 1 -3.61044 8.36158 20.8787 
122 1 0.13991 8.51109 13.0529 
133 1 -3.32145 6.73738 11.8893 
136 1 0.301333 8.51918 22.1008 
147 1 0.53318 5.93 19.8354 
153 1 -4.71503 9.27489 11.9091 
160 1 0.914115 8.46082 18.4969 
1 1 7.8825 4.907 10.5232 
4 1 9.17817 4.80072 11.0416 
20 1 7.898 4.95492 9.07335 
42 1 9.4601 5.42593 7.43161 
67 1 9.9931 4.54888 0.764846 
77 1 7.88344 4.90715 0.0919849 
94 1 7.89889 4.95509 1.53956 
96 1 9.202 4.64408 1.9881 
121 1 4.70466 5.42274 10.7235 
130 1 9.46636 5.41912 3.18032 
134 1 9.99443 4.54892 9.84937 
152 1 9.20239 4.64509 8.62211 
45 1 4.69375 5.43256 22.0293 
55 1 4.84167 5.45237 13.0755 
106 1 9.1785 4.80179 21.7227 
137 1 4.81452 5.47621 19.7133 
2 1 7.25207 10.5345 9.08991 
3 1 8.96133 7.6429 6.06707 
6 1 8.52004 6.39425 6.83311 
16 1 2.39604 8.7275 0.829648 
22 1 7.17377 6.18179 8.72242 
26 1 7.18006 8.42093 7.55184 
35 1 7.21764 10.587 10.5036 
37 1 6.84339 9.30675 10.96 
39 1 8.29149 8.9241 6.76058 
41 1 6.73985 7.01592 9.82877 
48 1 3.73586 6.35486 0.829124 
61 1 7.24795 10.5418 1.52933 
62 1 8.96114 7.65224 4.55267 
64 1 6.71781 9.25083 1.98644 
68 1 7.40492 6.96705 3.05244 
71 1 4.32178 8.55144 10.7723 
74 1 3.59855 7.78109 9.82646 
81 1 8.51505 6.3898 3.78357 
83 1 6.53623 8.45567 0.796763 
93 1 7.22427 10.5952 0.110318 
97 1 8.29107 8.92308 3.84447 
101 1 2.35414 9.93266 10.6369 
103 1 2.34624 8.69151 9.77352 
117 1 7.1739 6.1803 1.89254 
120 1 7.18157 8.42017 3.06389 
123 1 3.72622 6.36708 9.77329 
129 1 6.73935 7.01726 0.783348 
132 1 6.71731 9.25539 8.63236 
135 1 7.40946 6.96069 7.55972 
141 1 7.24993 6.18188 10.901 
144 1 6.53988 8.46183 9.82549 
148 1 3.618 7.80066 0.771931 
7 1 9.14717 6.00131 11.9064 
10 1 3.65364 9.81609 21.6116 
13 1 2.3596 9.92437 22.1227 
15 1 3.0124 8.32622 17.9096 
28 1 3.64692 9.78032 20.1408 
30 1 4.36654 8.53167 19.7896 
34 1 4.35113 6.30062 18.6268 
40 1 7.81567 8.36578 11.9023 
49 1 4.79946 7.70129 20.9035 
50 1 2.0694 9.2947 18.5024 
58 1 1.51622 10.1829 11.8281 
59 1 4.22482 7.74255 14.1509 
69 1 3.60885 9.85991 11.1527 
73 1 2.98432 8.39269 14.9336 
75 1 5.00447 6.27368 11.8486 
79 1 7.24841 6.18134 21.8604 
82 1 7.91448 6.92142 20.9165 
86 1 3.62525 9.83177 12.5873 
88 1 2.32008 10.0926 13.0836 
108 1 9.1485 6.00323 20.8575 
112 1 4.35408 8.56462 12.8541 
115 1 4.338 6.22926 14.1517 
124 1 4.81241 7.68039 11.8516 
125 1 2.01622 9.32433 14.2539 
126 1 6.84879 9.31508 21.794 
128 1 7.8133 8.36249 20.8562 
139 1 1.53611 10.1794 20.9253 
140 1 4.12107 7.76281 18.6322 
143 1 7.91469 6.92768 11.8491 
146 1 4.28424 8.54292 21.9844 
149 1 4.99313 6.2543 20.9021 
157 1 2.32118 10.0837 19.6905 
161 2 5.32306 7.78993 14.3354 
ITEM: TIMESTEP
20
ITEM: NUMBER OF ATOMS
161
ITEM: BOX BOUNDS xy xz yz pp pp pp
-6.7755000000000001e+00 1.3552000000000000e+01 -6.7755000000000001e+00
0.0000000000000000e+00 1.1735510246683001e+01 0.0000000000000000e+00
0.0000000000000000e+00 2.2149999999999999e+01 0.0000000000000000e+00
ITEM: ATOMS id type x y z 
8 1 -2.425 5.38222 9.84618 
87 1 2.96909 4.26636 10.6398 
90 1 2.65188 5.46642 9.78927 
109 1 -2.42476 5.38207 0.769193 
158 1 2.65876 5.46618 0.826287 
11 1 4.28788 4.20638 20.132 
14 1 2.90871 4.13661 19.6853 
18 1 1.31375 5.85645 18.598 
33 1 2.12878 4.2166 20.9118 
43 1 4.3133 4.16896 21.5821 
47 1 3.26244 5.79459 17.8296 
52 1 4.27839 4.17775 12.6282 
76 1 2.4174 4.91957 14.1767 
85 1 4.30718 4.16797 11.1782 
89 1 3.24873 5.79045 14.9216 
91 1 0.989458 5.05469 11.847 
102 1 2.9073 4.12936 13.0697 
105 1 1.30327 5.84822 14.1665 
114 1 2.12919 4.21606 11.8576 
150 1 2.43885 4.93543 18.5864 
156 1 2.96966 4.26691 22.1184 
159 1 0.990032 5.05583 20.917 
5 1 -4.9267 10.5876 8.61612 
9 1 -3.33133 8.86261 7.52337 
19 1 -1.73785 7.49339 10.5407 
21 1 -2.62225 8.7642 10.874 
23 1 -3.30809 7.55453 6.84478 
25 1 -4.15029 10.5067 9.83355 
32 1 1.5916 6.38117 0.758319 
36 1 -1.87336 7.52241 9.06503 
38 1 -2.16369 6.20259 8.63791 
54 1 0.313671 8.52091 10.6691 
57 1 1.36815 7.96035 9.80057 
60 1 -1.72983 7.49612 0.0732873 
65 1 -3.30804 7.5556 3.7688 
78 1 -1.87479 7.51984 1.54961 
80 1 -2.55212 8.78982 1.8382 
84 1 -4.45066 9.79077 3.10076 
99 1 -3.00554 9.67257 0.779861 
100 1 -2.93723 6.27136 3.17574 
107 1 -4.92955 10.5903 2.00073 
110 1 -3.33182 8.86419 3.09156 
111 1 0.602469 5.96392 10.8143 
113 1 1.59958 6.36886 9.85894 
119 1 -4.15253 10.5086 0.775644 
127 1 -2.16418 6.20445 1.97561 
131 1 -2.33095 6.21725 11.0268 
138 1 1.30274 7.92365 0.816428 
142 1 -2.55333 8.79243 8.77659 
145 1 -4.45397 9.79256 7.5123 
151 1 -4.99063 10.4534 11.0433 
154 1 -3.00858 9.67094 9.83379 
155 1 -2.93797 6.27154 7.43683 
12 1 2.56502 7.07853 17.1568 
17 1 0.408527 9.34508 20.9243 
24 1 -3.60478 8.35122 11.8327 
27 1 -0.284117 7.22416 21.6147 
29 1 0.600439 5.95579 21.9475 
31 1 1.28853 7.17434 17.9164 
44 1 -0.144106 7.20091 20.1468 
46 1 0.142245 8.52045 19.7126 
51 1 -0.275618 7.23509 11.1343 
53 1 2.57804 7.12787 15.5997 
56 1 1.28241 7.1664 14.8394 
63 1 -2.33064 6.21633 21.7373 
66 1 -3.31972 6.80458 20.8745 
70 1 -0.14511 7.19971 12.6163 
72 1 0.530985 5.93305 12.9131 
92 1 0.912824 8.44665 14.2504 
95 1 -4.98949 10.4529 21.7201 
98 1 -4.67293 9.2499 20.8594 
104 1 0.399032 9.34196 11.8413 
116 1 -2.61789 8.76441 21.893 
118 1 -3.60389 8.34976 20.9274 
122 1 0.138726 8.5136 13.0505 
133 1 -3.31997 6.80578 11.8881 
136 1 0.31071 8.50822 22.1008 
147 1 0.526188 5.92979 19.8459 
153 1 -4.66696 9.25223 11.904 
160 1 0.92291 8.45104 18.5103 
1 1 7.8356 4.91102 10.5228 
4 1 9.16049 4.81183 11.0388 
20 1 7.87227 4.94099 9.06801 
42 1 9.45907 5.44537 7.44079 
67 1 9.97313 4.56783 0.773933 
77 1 7.83661 4.91195 0.0942955 
94 1 7.87792 4.94459 1.54323 
96 1 9.19307 4.67154 1.9911 
121 1 4.66605 5.46215 10.7036 
130 1 9.46013 5.44346 3.16965 
134 1 9.97541 4.56763 9.84182 
152 1 9.19735 4.6696 8.62168 
45 1 4.6606 5.4759 22.0647 
55 1 4.82541 5.45816 13.0632 
106 1 9.16008 4.81273 21.7256 
137 1 4.81278 5.4942 19.6972 
2 1 7.24864 10.5182 9.04878 
3 1 8.97025 7.64065 6.07793 
6 1 8.51849 6.39049 6.82071 
16 1 2.42983 8.72344 0.827009 
22 1 7.14133 6.19198 8.72044 
26 1 7.20318 8.429 7.54838 
35 1 7.22856 10.5559 10.5104 
37 1 6.87345 9.25276 10.9881 
39 1 8.26968 8.92493 6.76246 
41 1 6.73141 7.00111 9.83632 
48 1 3.69098 6.34734 0.811132 
61 1 7.24626 10.5211 1.56407 
62 1 8.97082 7.64061 4.53656 
64 1 6.71973 9.2277 1.99053 
68 1 7.39486 6.96301 3.05692 
71 1 4.36043 8.54872 10.7545 
74 1 3.56072 7.77788 9.81753 
81 1 8.51775 6.3896 3.79402 
83 1 6.5414 8.44127 0.784251 
93 1 7.22839 10.555 0.110482 
97 1 8.27111 8.92775 3.853 
101 1 2.35033 9.9396 10.6567 
103 1 2.35855 8.67189 9.75435 
117 1 7.14237 6.1903 1.89344 
120 1 7.19974 8.42443 3.06725 
123 1 3.69388 6.36998 9.78852 
129 1 6.73187 7.00262 0.777558 
132 1 6.72377 9.22441 8.62048 
135 1 7.39519 6.96606 7.55588 
141 1 7.23219 6.18716 10.9038 
144 1 6.55182 8.44107 9.82064 
148 1 3.59598 7.81211 0.79826 
7 1 9.10632 6.00084 11.9043 
10 1 3.69886 9.80998 21.6012 
13 1 2.37373 9.91107 22.1127 
15 1 3.01626 8.3329 17.893 
28 1 3.66716 9.78501 20.1411 
30 1 4.39377 8.52913 19.792 
34 1 4.33564 6.29993 18.6223 
40 1 7.83433 8.37394 11.888 
49 1 4.80525 7.72326 20.9115 
50 1 2.07231 9.27848 18.516 
58 1 1.55998 10.1687 11.8419 
59 1 4.20462 7.78335 14.1813 
69 1 3.61269 9.85523 11.1649 
73 1 2.97248 8.34657 14.882 
75 1 5.0071 6.27142 11.8544 
79 1 7.22999 6.18647 21.8593 
82 1 7.939 6.91309 20.8906 
86 1 3.64413 9.84336 12.5962 
88 1 2.3203 10.0721 13.066 
108 1 9.10462 6.0002 20.8598 
112 1 4.36576 8.54706 12.8646 
115 1 4.32803 6.22595 14.1466 
124 1 4.8173 7.68142 11.8639 
125 1 2.0801 9.27304 14.2748 
126 1 6.8695 9.24907 21.7763 
128 1 7.83546 8.37328 20.8758 
139 1 1.55842 10.1563 20.9192 
140 1 4.13863 7.7605 18.6321 
143 1 7.93998 6.90984 11.8737 
146 1 4.30336 8.53775 21.9808 
149 1 4.99412 6.28145 20.9056 
157 1 2.33193 10.0549 19.6969 
161 2 5.33132 7.8028 14.3631 
ITEM: TIMESTEP
30
ITEM: NUMBER OF ATOMS
161
ITEM: BOX BOUNDS xy xz yz pp pp pp
-6.7755000000000001e+00 1.3552000000000000e+01 -6.7755000000000001e+00
0.0000000000000000e+00 1.1735510246683001e+01 0.0000000000000000e+00
0.0000000000000000e+00 2.2149999999999999e+01 0.0000000000000000e+00
ITEM: ATOMS id type x y z 
8 1 -2.4548 5.43526 9.85701 
87 1 2.9492 4.28423 10.6249 
90 1 2.63131 5.44187 9.78703 
109 1 -2.45393 5.44018 0.756665 
158 1 2.59594 5.45175 0.815852 
11 1 4.27235 4.25478 20.123 
14 1 2.88085 4.15544 19.708 
18 1 1.30515 5.86165 18.6033 
33 1 2.10137 4.20186 20.9014 
43 1 4.27597 4.26437 21.5573 
47 1 3.22096 5.8171 17.8119 
52 1 4.26154 4.20495 12.6375 
76 1 2.39852 4.9484 14.1744 
85 1 4.26016 4.25058 11.2199 
89 1 3.22553 5.81015 14.9371 
91 1 0.944811 5.03545 11.8315 
102 1 2.86534 4.15999 13.0636 
105 1 1.27253 5.83517 14.1538 
114 1 2.09673 4.20772 11.8554 
150 1 2.41229 4.95135 18.5829 
156 1 2.95133 4.28752 22.1351 
159 1 0.944554 5.02388 20.9213 
5 1 -4.90034 10.56 8.6293 
9 1 -3.31168 8.86766 7.52915 
19 1 -1.7125 7.53619 10.5238 
21 1 -2.59751 8.804 10.8685 
23 1 -3.29624 7.55883 6.83334 
25 1 -4.11658 10.5216 9.82341 
32 1 1.58827 6.41172 0.752581 
36 1 -1.81603 7.54397 9.04556 
38 1 -2.14649 6.24556 8.6393 
54 1 0.340964 8.48295 10.6645 
57 1 1.38255 7.9289 9.81142 
60 1 -1.70455 7.54203 0.0857153 
65 1 -3.29953 7.55705 3.77939 
78 1 -1.81352 7.54652 1.56812 
80 1 -2.51811 8.79854 1.83948 
84 1 -4.44045 9.77315 3.10321 
99 1 -2.9645 9.68466 0.754907 
100 1 -2.94125 6.29512 3.16601 
107 1 -4.89651 10.5599 1.97933 
110 1 -3.31026 8.86602 3.08481 
111 1 0.586942 5.94456 10.811 
113 1 1.58918 6.41642 9.85267 
119 1 -4.1175 10.5158 0.792224 
127 1 -2.14877 6.24199 1.97465 
131 1 -2.33465 6.26415 11.0153 
138 1 1.31817 7.90375 0.841263 
142 1 -2.51626 8.79627 8.77475 
145 1 -4.43723 9.77288 7.51126 
151 1 -4.97179 10.4367 11.0625 
154 1 -2.95917 9.68521 9.85932 
155 1 -2.93937 6.29344 7.44854 
12 1 2.56615 7.07067 17.1439 
17 1 0.437956 9.28615 20.929 
24 1 -3.60099 8.30431 11.8295 
27 1 -0.318193 7.18696 21.6043 
29 1 0.574026 5.92943 21.9347 
31 1 1.28126 7.15906 17.9075 
44 1 -0.207368 7.1768 20.117 
46 1 0.133512 8.4837 19.715 
51 1 -0.285243 7.21038 11.1363 
53 1 2.57682 7.09277 15.5999 
56 1 1.28055 7.16111 14.8602 
63 1 -2.33624 6.26962 21.75 
66 1 -3.33543 6.81638 20.8446 
70 1 -0.200605 7.17931 12.6224 
72 1 0.487875 5.92486 12.9001 
92 1 0.919545 8.42767 14.233 
95 1 -4.96998 10.4389 21.7055 
98 1 -4.62563 9.28988 20.8705 
104 1 0.433816 9.30825 11.852 
116 1 -2.5971 8.80276 21.8936 
118 1 -3.60196 8.30272 20.935 
122 1 0.124515 8.47583 13.054 
133 1 -3.33344 6.81821 11.9238 
136 1 0.322889 8.4547 22.0948 
147 1 0.502918 5.92805 19.8682 
153 1 -4.62608 9.28464 11.8965 
160 1 0.920557 8.43346 18.5263 
1 1 7.75063 4.90646 10.5168 
4 1 9.0807 4.83391 11.0133 
20 1 7.79061 4.93591 9.05145 
42 1 9.43735 5.46611 7.44745 
67 1 9.94307 4.62385 0.765632 
77 1 7.74843 4.91071 0.100564 
94 1 7.79003 4.94393 1.55878 
96 1 9.13995 4.71646 1.98342 
121 1 4.63601 5.53606 10.6441 
130 1 9.43427 5.46992 3.16794 
134 1 9.94161 4.62637 9.84904 
152 1 9.14339 4.71476 8.63203 
45 1 4.63153 5.55397 22.1118 
55 1 4.82772 5.50329 13.0782 
106 1 9.07871 4.8361 21.7485 
137 1 4.81957 5.55778 19.6898 
2 1 7.26641 10.4729 9.04948 
3 1 8.96677 7.65936 6.07256 
6 1 8.50546 6.3942 6.79776 
16 1 2.45772 8.72189 0.837546 
22 1 7.07701 6.16681 8.69121 
26 1 7.19793 8.39895 7.52568 
35 1 7.25945 10.4581 10.4657 
37 1 6.91622 9.17384 11.0401 
39 1 8.31147 8.91654 6.73254 
41 1 6.68285 6.97037 9.83679 
48 1 3.67015 6.36949 0.811158 
61 1 7.26297 10.4677 1.56559 
62 1 8.96518 7.65856 4.53681 
64 1 6.71768 9.17314 1.99064 
68 1 7.37486 6.95255 3.07288 
71 1 4.3806 8.57095 10.7628 
74 1 3.55322 7.82862 9.81693 
81 1 8.50565 6.39711 3.81071 
83 1 6.53428 8.38742 0.803551 
93 1 7.26445 10.4435 0.145653 
97 1 8.31106 8.91304 3.87702 
101 1 2.38015 9.91578 10.653 
103 1 2.37575 8.68629 9.73823 
117 1 7.08033 6.16865 1.9237 
120 1 7.19825 8.39719 3.0812 
123 1 3.67913 6.36957 9.78405 
129 1 6.68193 6.97432 0.777229 
132 1 6.7194 9.18044 8.61477 
135 1 7.36946 6.9517 7.53982 
141 1 7.20215 6.18287 10.9453 
144 1 6.56985 8.38281 9.80328 
148 1 3.62561 7.8518 0.841818 
7 1 9.07752 5.99807 11.9123 
10 1 3.78261 9.81284 21.5909 
13 1 2.45689 9.88863 22.09 
15 1 3.02526 8.32576 17.8737 
28 1 3.74167 9.78575 20.1266 
30 1 4.45821 8.55226 19.7714 
34 1 4.32692 6.32548 18.6038 
40 1 7.87313 8.35807 11.8876 
49 1 4.85274 7.74955 20.9136 
50 1 2.09761 9.25448 18.5237 
58 1 1.573 10.1138 11.8489 
59 1 4.29717 7.79499 14.1993 
69 1 3.64672 9.81288 11.1586 
73 1 3.02674 8.33616 14.8808 
75 1 5.03161 6.28694 11.8753 
79 1 7.19904 6.18527 21.8154 
82 1 7.90808 6.86886 20.8455 
86 1 3.72138 9.86576 12.6216 
88 1 2.37437 10.0355 13.0816 
108 1 9.07709 6.00286 20.8514 
112 1 4.3883 8.57631 12.8387 
115 1 4.32311 6.24206 14.1539 
124 1 4.86663 7.68926 11.8567 
125 1 2.07953 9.26773 14.229 
126 1 6.90654 9.17363 21.7266 
128 1 7.86876 8.35487 20.881 
139 1 1.58883 10.0978 20.9245 
140 1 4.16747 7.76515 18.6161 
143 1 7.90616 6.87332 11.9211 
146 1 4.33679 8.53594 22.0205 
149 1 5.00039 6.3446 20.8862 
157 1 2.39515 10.0067 19.703 
161 2 5.35045 7.83588 14.4446 
ITEM: TIMESTEP
40
ITEM: NUMBER OF ATOMS
161
ITEM: BOX BOUNDS xy xz yz pp pp pp
-6.7755000000000001e+00 1.3552000000000000e+01 -6.7755000000000001e+00
0.0000000000000000e+00 1.1735510246683001e+01 0.0000000000000000e+00
0.0000000000000000e+00 2.2149999999999999e+01 0.0000000000000000e+00
ITEM: ATOMS id type x y z 
8 1 -2.46341 5.45131 9.85177 
87 1 2.94588 4.29166 10.6276 
90 1 2.62316 5.4588 9.77395 
109 1 -2.46537 5.45254 0.763408 
158 1 2.60476 5.46414 0.826755 
11 1 4.26606 4.27679 20.1123 
14 1 2.87515 4.16655 19.7075 
18 1 1.29016 5.86272 18.6073 
33 1 2.09133 4.21007 20.9062 
43 1 4.27226 4.28138 21.5501 
47 1 3.22962 5.80545 17.8166 
52 1 4.25439 4.22827 12.6526 
76 1 2.38572 4.94155 14.1745 
85 1 4.26287 4.26896 11.2177 
89 1 3.22408 5.80492 14.9243 
91 1 0.934983 5.03197 11.835 
102 1 2.86393 4.15607 13.0518 
105 1 1.27691 5.85459 14.159 
114 1 2.08698 4.21252 11.8489 
150 1 2.41361 4.94968 18.5873 
156 1 2.95149 4.29796 22.128 
159 1 0.938496 5.02292 20.924 
5 1 -4.89185 10.5589 8.63339 
9 1 -3.30875 8.8616 7.52871 
19 1 -1.71703 7.54702 10.5216 
21 1 -2.5831 8.79474 10.873 
23 1 -3.29922 7.55131 6.83727 
25 1 -4.11157 10.515 9.83455 
32 1 1.56304 6.40382 0.75279 
36 1 -1.80237 7.5593 9.04245 
38 1 -2.14654 6.24599 8.64062 
54 1 0.342591 8.47772 10.6688 
57 1 1.38895 7.93425 9.80581 
60 1 -1.70825 7.55392 0.0921798 
65 1 -3.2984 7.55262 3.77661 
78 1 -1.80103 7.55893 1.57045 
80 1 -2.50895 8.80289 1.8355 
84 1 -4.42745 9.77387 3.10267 
99 1 -2.95655 9.69886 0.766111 
100 1 -2.94074 6.29234 3.16084 
107 1 -4.89337 10.5584 1.97958 
110 1 -3.30907 8.86158 3.08533 
111 1 0.577448 5.94463 10.8073 
113 1 1.58079 6.39727 9.8505 
119 1 -4.11156 10.5142 0.780846 
127 1 -2.14666 6.2466 1.97341 
131 1 -2.34756 6.27809 11.0237 
138 1 1.32342 7.91604 0.838871 
142 1 -2.50897 8.80346 8.77771 
145 1 -4.42741 9.77386 7.51074 
151 1 -4.96472 10.4288 11.0535 
154 1 -2.95479 9.69889 9.84744 
155 1 -2.94049 6.2923 7.45282 
12 1 2.5652 7.06661 17.145 
17 1 0.448194 9.27182 20.9259 
24 1 -3.58016 8.31666 11.8302 
27 1 -0.31031 7.17066 21.5951 
29 1 0.564058 5.92739 21.9472 
31 1 1.28158 7.17223 17.9096 
44 1 -0.218776 7.16719 20.1207 
46 1 0.129103 8.47624 19.7163 
51 1 -0.285331 7.19923 11.1395 
53 1 2.58348 7.10432 15.5978 
56 1 1.27858 7.16413 14.8468 
63 1 -2.34888 6.27957 21.7409 
66 1 -3.33993 6.81069 20.8479 
70 1 -0.211 7.16557 12.6252 
72 1 0.481229 5.91831 12.9053 
92 1 0.919833 8.42213 14.2334 
95 1 -4.96926 10.4252 21.709 
98 1 -4.62125 9.26165 20.8588 
104 1 0.433163 9.29138 11.8541 
116 1 -2.58213 8.79481 21.8905 
118 1 -3.58168 8.31627 20.9338 
122 1 0.120416 8.47156 13.053 
133 1 -3.33829 6.80937 11.917 
136 1 0.333148 8.44586 22.0999 
147 1 0.492869 5.91969 19.8508 
153 1 -4.6209 9.26164 11.9053 
160 1 0.922857 8.43033 18.527 
1 1 7.72919 4.89815 10.514 
4 1 9.0703 4.84426 11.0134 
20 1 7.7731 4.93674 9.05157 
42 1 9.43522 5.47552 7.44934 
67 1 9.92781 4.64183 0.765719 
77 1 7.72638 4.90289 0.0998301 
94 1 7.77213 4.94033 1.56097 
96 1 9.12796 4.72433 1.98089 
121 1 4.62292 5.54024 10.6645 
130 1 9.435 5.47575 3.16462 
134 1 9.92744 4.64239 9.84948 
152 1 9.12822 4.72342 8.63223 
45 1 4.61857 5.5603 22.1008 
55 1 4.82257 5.50884 13.0796 
106 1 9.07034 4.84466 21.7506 
137 1 4.81678 5.56377 19.6968 
2 1 7.26729 10.4566 9.0346 
3 1 8.96773 7.66001 6.07162 
6 1 8.5079 6.39888 6.80343 
16 1 2.463 8.72317 0.842236 
22 1 7.05767 6.16398 8.68005 
26 1 7.20581 8.39276 7.51503 
35 1 7.26602 10.4421 10.4696 
37 1 6.92244 9.16257 11.0265 
39 1 8.3051 8.92217 6.74311 
41 1 6.67567 6.95643 9.83616 
48 1 3.65826 6.37574 0.825189 
61 1 7.26686 10.4509 1.5815 
62 1 8.96662 7.66032 4.53997 
64 1 6.71593 9.16065 1.99203 
68 1 7.36722 6.94807 3.07816 
71 1 4.39694 8.56091 10.7539 
74 1 3.56344 7.82812 9.81472 
81 1 8.50782 6.39837 3.81133 
83 1 6.53565 8.38025 0.794632 
93 1 7.26489 10.4372 0.147215 
97 1 8.30229 8.92123 3.86903 
101 1 2.38416 9.91237 10.6538 
103 1 2.38007 8.69299 9.73355 
117 1 7.05661 6.1675 1.93098 
120 1 7.20583 8.39338 3.09253 
123 1 3.6714 6.38228 9.77446 
129 1 6.67281 6.96238 0.77594 
132 1 6.72129 9.16649 8.61324 
135 1 7.36761 6.94661 7.53455 
141 1 7.18576 6.18283 10.9474 
144 1 6.57581 8.37914 9.81011 
148 1 3.62703 7.85107 0.852514 
7 1 9.07214 6.00032 11.9161 
10 1 3.80621 9.82011 21.5879 
13 1 2.46381 9.8796 22.089 
15 1 3.02907 8.32354 17.8775 
28 1 3.76158 9.78399 20.1266 
30 1 4.47673 8.5555 19.7583 
34 1 4.3246 6.32893 18.5939 
40 1 7.87787 8.34987 11.9039 
49 1 4.86338 7.76364 20.9131 
50 1 2.09804 9.24624 18.5252 
58 1 1.59285 10.1068 11.8518 
59 1 4.29326 7.79667 14.201 
69 1 3.65962 9.81881 11.1744 
73 1 3.01767 8.32727 14.8628 
75 1 5.02751 6.29408 11.8658 
79 1 7.17969 6.18457 21.8154 
82 1 7.90697 6.87152 20.8352 
86 1 3.73135 9.8653 12.6095 
88 1 2.3883 10.0412 13.0691 
108 1 9.07141 6.00096 20.8466 
112 1 4.40857 8.56787 12.853 
115 1 4.31942 6.26028 14.1563 
124 1 4.87157 7.69956 11.858 
125 1 2.10131 9.2408 14.2451 
126 1 6.91665 9.16189 21.7354 
128 1 7.87598 8.34891 20.8644 
139 1 1.6068 10.0814 20.9228 
140 1 4.16833 7.778 18.6116 
143 1 7.90859 6.87191 11.9285 
146 1 4.35413 8.53966 22.0226 
149 1 4.99936 6.34299 20.8921 
157 1 2.40656 9.99941 19.7067 
161 2 5.36507 7.84398 14.4691 
ITEM: TIMESTEP
50
ITEM: NUMBER OF ATOMS
161
ITEM: BOX BOUNDS xy xz yz pp pp pp
-6.7755000000000001e+00 1.3552000000000000e+01 -6.7755000000000001e+00
0.0000000000000000e+00 1.1735510246683001e+01 0.0000000000000000e+00
0.0000000000000000e+00 2.2149999999999999e+01 0.0000000000000000e+00
ITEM: ATOMS id type x y z 
8 1 -2.48416 5.4751 9.85037 
87 1 2.93474 4.31657 10.6301 
90 1 2.61431 5.48639 9.75491 
109 1 -2.48666 5.4759 0.766274 
158 1 2.60423 5.49198 0.850512 
11 1 4.25759 4.29993 20.0966 
14 1 2.86775 4.17473 19.7103 
18 1 1.2864 5.87159 18.5998 
33 1 2.08542 4.21429 20.9201 
43 1 4.25976 4.29792 21.5398 
47 1 3.22777 5.79999 17.8272 
52 1 4.23667 4.25262 12.6571 
76 1 2.37465 4.93358 14.1679 
85 1 4.24663 4.27502 11.2178 
89 1 3.22788 5.79294 14.9067 
91 1 0.91196 5.01802 11.8355 
102 1 2.84855 4.1596 13.0542 
105 1 1.26644 5.86208 14.1547 
114 1 2.07632 4.2127 11.8339 
150 1 2.39562 4.94263 18.5859 
156 1 2.9404 4.31921 22.1219 
159 1 0.914156 5.01891 20.9174 
5 1 -4.88429 10.5529 8.63218 
9 1 -3.30273 8.85263 7.52619 
19 1 -1.72208 7.55712 10.5117 
21 1 -2.56005 8.80482 10.8701 
23 1 -3.30138 7.54931 6.83822 
25 1 -4.09984 10.5126 9.84706 
32 1 1.54197 6.39398 0.767933 
36 1 -1.78525 7.57145 9.04047 
38 1 -2.13317 6.2606 8.64394 
54 1 0.355246 8.46385 10.6753 
57 1 1.40047 7.93563 9.79474 
60 1 -1.71755 7.56196 0.101509 
65 1 -3.30185 7.54921 3.77538 
78 1 -1.78347 7.57202 1.5704 
80 1 -2.4903 8.82526 1.84215 
84 1 -4.41288 9.78688 3.10111 
99 1 -2.93298 9.70618 0.77079 
100 1 -2.93482 6.2819 3.1572 
107 1 -4.88563 10.5519 1.9801 
110 1 -3.30304 8.85115 3.08694 
111 1 0.55825 5.93348 10.8092 
113 1 1.55699 6.38139 9.84329 
119 1 -4.10355 10.5101 0.766643 
127 1 -2.13338 6.2614 1.97025 
131 1 -2.36418 6.28335 11.0301 
138 1 1.33543 7.9046 0.834895 
142 1 -2.4884 8.82532 8.77191 
145 1 -4.41235 9.78518 7.513 
151 1 -4.95305 10.4059 11.0498 
154 1 -2.9313 9.70709 9.84355 
155 1 -2.93459 6.28161 7.45637 
12 1 2.56751 7.0566 17.1503 
17 1 0.4689 9.24811 20.9219 
24 1 -3.55938 8.33472 11.8441 
27 1 -0.297841 7.16167 21.5897 
29 1 0.538894 5.91932 21.9464 
31 1 1.28536 7.17179 17.9084 
44 1 -0.23321 7.14998 20.1168 
46 1 0.116806 8.46248 19.7182 
51 1 -0.287103 7.19128 11.1508 
53 1 2.58885 7.10063 15.5892 
56 1 1.27238 7.1616 14.8432 
63 1 -2.3672 6.28742 21.7365 
66 1 -3.35265 6.81749 20.8543 
70 1 -0.231051 7.15533 12.6309 
72 1 0.461739 5.90181 12.9063 
92 1 0.919452 8.42517 14.2312 
95 1 -4.95848 10.4031 21.7165 
98 1 -4.62103 9.22816 20.837 
104 1 0.445957 9.26988 11.8564 
116 1 -2.55774 8.80402 21.894 
118 1 -3.55961 8.33386 20.9197 
122 1 0.11092 8.45867 13.0543 
133 1 -3.34887 6.81615 11.9104 
136 1 0.347066 8.43609 22.1006 
147 1 0.468973 5.89949 19.8482 
153 1 -4.6187 9.23179 11.9239 
160 1 0.91683 8.44165 18.5319 
1 1 7.68676 4.86031 10.5187 
4 1 9.05052 4.86107 11.0123 
20 1 7.74789 4.9457 9.05315 
42 1 9.43254 5.48097 7.45676 
67 1 9.89795 4.66998 0.764702 
77 1 7.69068 4.8716 0.096533 
94 1 7.74631 4.94868 1.55585 
96 1 9.09085 4.73309 1.98503 
121 1 4.62194 5.55279 10.6865 
130 1 9.43198 5.48183 3.15771 
134 1 9.90038 4.66999 9.84836 
152 1 9.09275 4.73216 8.62842 
45 1 4.60912 5.57686 22.0817 
55 1 4.82722 5.5272 13.0859 
106 1 9.04568 4.86238 21.7535 
137 1 4.81186 5.58267 19.6901 
2 1 7.2786 10.4301 9.02157 
3 1 8.96781 7.67005 6.07486 
6 1 8.50101 6.40402 6.80232 
16 1 2.47332 8.73273 0.858348 
22 1 7.02022 6.14729 8.66005 
26 1 7.20314 8.38495 7.50071 
35 1 7.28413 10.4239 10.4694 
37 1 6.92871 9.14556 11.0043 
39 1 8.30479 8.93132 6.75581 
41 1 6.66148 6.93314 9.83087 
48 1 3.63997 6.39328 0.858705 
61 1 7.27693 10.4223 1.5932 
62 1 8.96642 7.6705 4.53875 
64 1 6.71906 9.14203 1.99984 
68 1 7.35784 6.93182 3.08974 
71 1 4.40267 8.56577 10.7613 
74 1 3.58365 7.82686 9.80775 
81 1 8.50134 6.40416 3.80952 
83 1 6.53495 8.37118 0.782773 
93 1 7.27782 10.4233 0.148476 
97 1 8.30336 8.93072 3.85339 
101 1 2.40642 9.91046 10.6574 
103 1 2.38546 8.69428 9.72614 
117 1 7.0188 6.15321 1.94803 
120 1 7.20306 8.38605 3.10503 
123 1 3.65565 6.40583 9.75389 
129 1 6.65424 6.93585 0.778359 
132 1 6.72618 9.14686 8.60611 
135 1 7.35773 6.93209 7.52317 
141 1 7.15412 6.18231 10.9515 
144 1 6.58023 8.36805 9.81957 
148 1 3.6354 7.85304 0.855862 
7 1 9.06573 5.99297 11.9334 
10 1 3.84245 9.8495 21.5916 
13 1 2.48807 9.86284 22.0852 
15 1 3.03379 8.31791 17.8749 
28 1 3.78879 9.77528 20.1316 
30 1 4.5155 8.57032 19.7404 
34 1 4.33157 6.33961 18.584 
40 1 7.896 8.33223 11.9387 
49 1 4.88134 7.78665 20.9096 
50 1 2.10261 9.2389 18.5321 
58 1 1.61449 10.0879 11.8548 
59 1 4.31046 7.81575 14.205 
69 1 3.68166 9.83293 11.1723 
73 1 3.02218 8.31932 14.8552 
75 1 5.02587 6.29145 11.8632 
79 1 7.14767 6.18127 21.8125 
82 1 7.89986 6.87268 20.8326 
86 1 3.76033 9.86505 12.6099 
88 1 2.4079 10.0393 13.0693 