ITEM: TIMESTEP
0
ITEM: NUMBER OF ATOMS
49
ITEM: BOX BOUNDS pp pp pp
0.0000000000000000e+00 1.1000000000000000e+01
0.0000000000000000e+00 1.1002000000000001e+01
0.0000000000000000e+00 1.1000000000000000e+01
ITEM: ATOMS id type x y z 
10 1 4.603 4.603 4.603 
11 1 3.085 3.085 3.085 
12 1 3.796 3.796 3.796 
46 1 0.726 0.725 0.725 
47 1 2.26 2.259 2.26 
48 1 1.551 1.55 1.55 
19 1 4.546 4.545 6.226 
20 1 3.013 3.013 7.764 
21 1 3.721 3.721 7.053 
31 1 0.668 0.667 10.103 
32 1 2.187 2.187 8.589 
33 1 1.476 1.475 9.298 
16 1 4.546 6.225 4.546 
17 1 3.013 7.765 3.013 
18 1 3.721 7.053 3.722 
25 1 0.668 10.103 0.668 
26 1 2.188 8.589 2.188 
27 1 1.476 9.298 1.476 
4 1 4.608 6.169 6.169 
5 1 3.086 7.684 7.684 
6 1 3.799 6.974 6.974 
37 1 0.729 10.046 10.046 
38 1 2.259 8.509 8.508 
39 1 1.552 9.219 9.219 
13 1 6.225 4.546 4.546 
14 1 7.764 3.013 3.013 
15 1 7.053 3.721 3.722 
28 1 10.102 0.667 0.668 
29 1 8.589 2.187 2.188 
30 1 9.298 1.475 1.476 
1 1 6.168 4.608 6.169 
2 1 7.684 3.086 7.684 
3 1 6.974 3.799 6.974 
40 1 10.045 0.728 10.046 
41 1 8.508 2.259 8.508 
42 1 9.218 1.551 9.218 
49 2 7.496 3.486 8.967 
7 1 6.169 6.169 4.608 
8 1 7.684 7.684 3.086 
9 1 6.974 6.974 3.799 
43 1 10.046 10.047 0.729 
44 1 8.508 8.509 2.259 
45 1 9.219 9.219 1.552 
22 1 6.229 6.229 6.229 
23 1 7.764 7.765 7.765 
24 1 7.055 7.056 7.055 
34 1 10.108 10.108 10.107 
35 1 8.59 8.59 8.59 
36 1 9.301 9.301 9.3 
ITEM: TIMESTEP
10
ITEM: NUMBER OF ATOMS
49
ITEM: BOX BOUNDS pp pp pp
0.0000000000000000e+00 1.1000000000000000e+01
0.0000000000000000e+00 1.1002000000000001e+01
0.0000000000000000e+00 1.1000000000000000e+01
ITEM: ATOMS id type x y z 
10 1 4.59217 4.5944 4.59616 
11 1 3.0816 3.08147 3.08087 
12 1 3.78807 3.78818 3.78949 
46 1 0.732797 0.732584 0.733505 
47 1 2.2727 2.27223 2.27298 
48 1 1.56824 1.56633 1.56669 
19 1 4.54314 4.54393 6.2302 
20 1 3.00206 2.99591 7.78034 
21 1 3.69653 3.70859 7.0668 
31 1 0.706128 0.671738 10.0983 
32 1 2.18682 2.19741 8.57869 
33 1 1.49994 1.47661 9.29592 
16 1 4.53829 6.23385 4.53807 
17 1 3.00089 7.77663 3.00107 
18 1 3.7066 7.06816 3.70718 
25 1 0.676937 10.0938 0.677863 
26 1 2.19206 8.58488 2.19174 
27 1 1.48336 9.29068 1.48415 
4 1 4.60035 6.17574 6.17764 
5 1 3.08137 7.68835 7.68782 
6 1 3.79124 6.98186 6.98291 
37 1 0.736011 10.0383 10.038 
38 1 2.27143 8.49609 8.49541 
39 1 1.56878 9.20356 9.20312 
13 1 6.22917 4.54253 4.5413 
14 1 7.78192 2.9949 3.00133 
15 1 7.06798 3.70641 3.69424 
28 1 10.0974 0.670288 0.705588 
29 1 8.57864 2.196 2.18685 
30 1 9.29753 1.47759 1.49976 
1 1 6.18705 4.58294 6.17036 
2 1 7.60549 3.14915 7.53024 
3 1 6.91566 3.86149 6.85988 
40 1 10.0438 0.73076 10.0306 
41 1 8.47715 2.30541 8.61834 
42 1 9.24077 1.52285 9.22533 
49 2 7.56464 3.42222 9.0735 
7 1 6.1771 6.17923 4.60152 
8 1 7.68824 7.68822 3.08153 
9 1 6.9821 6.98224 3.79106 
43 1 10.0379 10.0402 0.735799 
44 1 8.49574 8.49696 2.27098 
45 1 9.20399 9.20338 1.56799 
22 1 6.23075 6.23211 6.23306 
23 1 7.77972 7.77465 7.77985 
24 1 7.06656 7.0796 7.06817 
34 1 10.1029 10.0696 10.1019 
35 1 8.58035 8.59057 8.57877 
36 1 9.2979 9.2763 9.30001 
ITEM: TIMESTEP
20
ITEM: NUMBER OF ATOMS
49
ITEM: BOX BOUNDS pp pp pp
0.0000000000000000e+00 1.1000000000000000e+01
0.0000000000000000e+00 1.1002000000000001e+01
0.0000000000000000e+00 1.1000000000000000e+01
ITEM: ATOMS id type x y z 
10 1 4.59547 4.59781 4.6008 
11 1 3.08452 3.0843 3.08396 
12 1 3.79109 3.79171 3.79278 
46 1 0.737758 0.734772 0.739305 
47 1 2.27401 2.27317 2.27315 
48 1 1.56625 1.5647 1.56663 
19 1 4.51942 4.54204 6.23085 
20 1 3.00258 3.00296 7.77376 
21 1 3.70838 3.71173 7.06296 
31 1 0.714824 0.666119 10.1033 
32 1 2.19011 2.19572 8.58047 
33 1 1.49671 1.47838 9.29394 
16 1 4.53723 6.23598 4.53544 
17 1 3.00297 7.77566 3.00146 
18 1 3.707 7.06559 3.71056 
25 1 0.677454 10.0943 0.678187 
26 1 2.1916 8.58527 2.19155 
27 1 1.48238 9.29171 1.48299 
4 1 4.6033 6.17233 6.17641 
5 1 3.08456 7.68569 7.68531 
6 1 3.79375 6.97814 6.97902 
37 1 0.742911 10.032 10.0363 
38 1 2.27168 8.49608 8.49398 
39 1 1.56878 9.2034 9.2059 
13 1 6.22927 4.54253 4.51187 
14 1 7.77517 3.00148 3.00167 
15 1 7.06501 3.70944 3.70463 
28 1 10.1041 0.666101 0.709591 
29 1 8.58199 2.19355 2.18864 
30 1 9.29629 1.47706 1.4946 
1 1 6.17749 4.59714 6.16158 
2 1 7.60771 3.15123 7.52395 
3 1 6.90255 3.86512 6.85553 
40 1 10.0563 0.714661 10.0368 
41 1 8.4679 2.32587 8.6936 
42 1 9.25571 1.50499 9.20823 
49 2 7.55481 3.42748 9.03446 
7 1 6.17446 6.17735 4.60605 
8 1 7.68594 7.68682 3.08553 
9 1 6.9784 6.97737 3.79148 
43 1 10.0351 10.0357 0.741888 
44 1 8.49512 8.49706 2.27084 
45 1 9.20575 9.2033 1.56822 
22 1 6.23271 6.25505 6.23383 
23 1 7.77313 7.7746 7.77389 
24 1 7.06328 7.06749 7.06394 
34 1 10.1078 10.0613 10.1057 
35 1 8.58089 8.58742 8.57977 
36 1 9.29641 9.27737 9.29768 
ITEM: TIMESTEP
30
ITEM: NUMBER OF ATOMS
49
ITEM: BOX BOUNDS pp pp pp
0.0000000000000000e+00 1.1000000000000000e+01
0.0000000000000000e+00 1.1002000000000001e+01
0.0000000000000000e+00 1.1000000000000000e+01
ITEM: ATOMS id type x y z 
10 1 4.59618 4.59938 4.59865 
11 1 3.08634 3.08562 3.08497 
12 1 3.79128 3.79395 3.79531 
46 1 0.741629 0.7343 0.744496 
47 1 2.27556 2.27527 2.27438 
48 1 1.56926 1.56569 1.57017 
19 1 4.51443 4.54214 6.22983 
20 1 3.00545 3.00285 7.77375 
21 1 3.70093 3.71452 7.06036 
31 1 0.719404 0.661485 10.107 
32 1 2.18991 2.19535 8.58063 
33 1 1.5005 1.47637 9.29623 
16 1 4.53147 6.24048 4.53348 
17 1 3.00064 7.77584 3.00135 
18 1 3.70824 7.06797 3.70763 
25 1 0.677615 10.0943 0.680345 
26 1 2.19087 8.58564 2.19151 
27 1 1.48254 9.29234 1.48213 
4 1 4.60213 6.17319 6.17402 
5 1 3.08525 7.68453 7.68259 
6 1 3.79679 6.97579 6.97898 
37 1 0.750987 10.0247 10.0393 
38 1 2.27382 8.49412 8.49109 
39 1 1.57281 9.19935 9.205 
13 1 6.22742 4.54491 4.5037 
14 1 7.77672 2.99954 3.00309 
15 1 7.06137 3.713 3.69601 
28 1 10.108 0.662862 0.708303 
29 1 8.58391 2.19194 2.18806 
30 1 9.29805 1.47526 1.49439 
1 1 6.17202 4.60292 6.16098 
2 1 7.60704 3.15236 7.52135 
3 1 6.89909 3.86742 6.84603 
40 1 10.0703 0.697974 10.0403 
41 1 8.46078 2.34376 8.75985 
42 1 9.26216 1.49566 9.19461 
49 2 7.53242 3.44702 8.99559 
7 1 6.17274 6.17503 4.60184 
8 1 7.68446 7.68344 3.08387 
9 1 6.97734 6.98103 3.79736 
43 1 10.0378 10.0308 0.747689 
44 1 8.49481 8.49439 2.27291 
45 1 9.20235 9.20345 1.57021 
22 1 6.23223 6.25907 6.23216 
23 1 7.77243 7.77105 7.77314 
24 1 7.0602 7.07443 7.061 
34 1 10.1118 10.0545 10.1097 
35 1 8.57997 8.58611 8.58011 
36 1 9.29856 9.27388 9.29753 
ITEM: TIMESTEP
40
ITEM: NUMBER OF ATOMS
49
ITEM: BOX BOUNDS pp pp pp
0.0000000000000000e+00 1.1000000000000000e+01
0.0000000000000000e+00 1.1002000000000001e+01
0.0000000000000000e+00 1.1000000000000000e+01
ITEM: ATOMS id type x y z 
10 1 4.59626 4.59989 4.59856 
11 1 3.08606 3.08593 3.08595 
12 1 3.79231 3.79417 3.79406 
46 1 0.741886 0.734075 0.745147 
47 1 2.27586 2.27561 2.27491 
48 1 1.56971 1.56583 1.57028 
19 1 4.51327 4.5424 6.22923 
20 1 3.00406 3.00269 7.774 
21 1 3.70172 3.71415 7.06056 
31 1 0.720159 0.660611 10.1073 
32 1 2.18982 2.19504 8.58092 
33 1 1.50107 1.47592 9.29676 
16 1 4.53143 6.24097 4.5329 
17 1 3.00087 7.77613 3.00103 
18 1 3.70744 7.06778 3.70789 
25 1 0.67837 10.0943 0.680399 
26 1 2.19122 8.58598 2.19112 
27 1 1.48157 9.29201 1.48266 
4 1 4.60164 6.17319 6.17407 
5 1 3.08603 7.68382 7.68291 
6 1 3.796 6.97646 6.97748 
37 1 0.752093 10.0238 10.0403 
38 1 2.2746 8.49359 8.49071 
39 1 1.5727 9.19905 9.20487 
13 1 6.22694 4.5453 4.50297 
14 1 7.77661 2.99963 3.00306 
15 1 7.06096 3.71343 3.69515 
28 1 10.1081 0.662624 0.70778 
29 1 8.58417 2.19141 2.1878 
30 1 9.29881 1.47499 1.4945 
1 1 6.17169 4.6027 6.1593 
2 1 7.60689 3.15256 7.52087 
3 1 6.8995 3.86693 6.84627 
40 1 10.0713 0.696504 10.0396 
41 1 8.45948 2.3463 8.76614 
42 1 9.26195 1.49594 9.19558 
49 2 7.5297 3.44941 8.99117 
7 1 6.17244 6.17592 4.60202 
8 1 7.68434 7.68469 3.08576 
9 1 6.97682 6.97816 3.79436 
43 1 10.0372 10.0312 0.748001 
44 1 8.49331 8.49466 2.27314 
45 1 9.20441 9.20204 1.57087 
22 1 6.23205 6.26027 6.23183 
23 1 7.77236 7.77223 7.77334 
24 1 7.06092 7.0739 7.06122 
34 1 10.1128 10.0532 10.1101 
35 1 8.58026 8.58579 8.5806 
36 1 9.29885 9.27385 9.2975 
ITEM: TIMESTEP
50
ITEM: NUMBER OF ATOMS
49
ITEM: BOX BOUNDS pp pp pp
0.0000000000000000e+00 1.1000000000000000e+01
0.0000000000000000e+00 1.1002000000000001e+01
0.0000000000000000e+00 1.1000000000000000e+01
ITEM: ATOMS id type x y z 
10 1 4.59625 4.60043 4.59847 
11 1 3.0862 3.08621 3.08638 
12 1 3.79272 3.79482 3.79405 
46 1 0.742442 0.733873 0.745927 
47 1 2.2764 2.27603 2.27527 
48 1 1.56988 1.56581 1.57101 
19 1 4.51273 4.54269 6.22868 
20 1 3.00374 3.00302 7.77382 
21 1 3.70095 3.71429 7.06016 
31 1 0.721189 0.659589 10.1083 
32 1 2.19003 2.19483 8.58169 
33 1 1.50169 1.47468 9.29694 
16 1 4.53082 6.24177 4.53238 
17 1 3.00052 7.77659 3.00049 
18 1 3.70698 7.06803 3.70776 
25 1 0.67847 10.0941 0.681137 
26 1 2.19107 8.5859 2.19103 
27 1 1.48156 9.29244 1.4828 
4 1 4.60208 6.17278 6.17378 
5 1 3.08668 7.68343 7.68286 
6 1 3.79579 6.97624 6.97608 
37 1 0.753808 10.0222 10.0415 
38 1 2.27506 8.49317 8.49 
39 1 1.5739 9.19784 9.20512 
13 1 6.2264 4.54574 4.50143 
14 1 7.77655 2.99952 3.00209 
15 1 7.06122 3.71349 3.69403 
28 1 10.1087 0.662084 0.70666 
29 1 8.58494 2.19061 2.18775 
30 1 9.29942 1.47439 1.49404 
1 1 6.17153 4.60254 6.15841 
2 1 7.60654 3.15284 7.51893 
3 1 6.89895 3.86737 6.84523 
40 1 10.0731 0.694048 10.0383 
41 1 8.4582 2.34954 8.77672 
42 1 9.26109 1.49714 9.19818 
49 2 7.52465 3.45418 8.98508 
7 1 6.17193 6.17592 4.60127 
8 1 7.68394 7.68442 3.0857 
9 1 6.97656 6.97823 3.79502 
43 1 10.0376 10.0306 0.748981 
44 1 8.49306 8.49441 2.27345 
45 1 9.20447 9.20166 1.57147 
22 1 6.23172 6.26072 6.23107 
23 1 7.77186 7.77243 7.77287 
24 1 7.06053 7.07418 7.0608 
34 1 10.1141 10.0517 10.1108 
35 1 8.58058 8.58548 8.5809 
36 1 9.29943 9.2729 9.29818 
ITEM: TIMESTEP
60
ITEM: NUMBER OF ATOMS
49
ITEM: BOX BOUNDS pp pp pp
0.0000000000000000e+00 1.1000000000000000e+01
0.0000000000000000e+00 1.1002000000000001e+01
0.0000000000000000e+00 1.1000000000000000e+01
ITEM: ATOMS id type x y z 
10 1 4.59636 4.60062 4.59842 
11 1 3.08622 3.08641 3.08657 
12 1 3.79298 3.79504 3.79404 
46 1 0.742647 0.733836 0.746309 
47 1 2.27654 2.27612 2.27541 
48 1 1.57009 1.5659 1.57136 
19 1 4.51246 4.54273 6.22842 
20 1 3.0035 3.00323 7.77368 
21 1 3.70061 3.71429 7.06003 
31 1 0.72169 0.658728 10.1085 
32 1 2.19025 2.19443 8.58185 
33 1 1.50191 1.47463 9.29744 
16 1 4.53043 6.24219 4.53209 
17 1 3.00028 7.77679 3.0003 
18 1 3.70679 7.06829 3.70747 
25 1 0.678481 10.094 0.681421 
26 1 2.19093 8.58575 2.19092 
27 1 1.48167 9.29287 1.48305 
4 1 4.60212 6.1726 6.17348 
5 1 3.08675 7.68322 7.68242 
6 1 3.79622 6.97607 6.97603 
37 1 0.75467 10.0213 10.0421 
38 1 2.27535 8.49288 8.4897 
39 1 1.5744 9.1974 9.20526 
13 1 6.22628 4.54601 4.50068 
14 1 7.77663 2.99955 3.00154 
15 1 7.06102 3.71345 3.69356 
28 1 10.1092 0.661854 0.706063 
29 1 8.58553 2.19019 2.18787 
30 1 9.2994 1.47404 1.4935 
1 1 6.17147 4.60251 6.15787 
2 1 7.60644 3.15291 7.51805 
3 1 6.89868 3.86752 6.84454 
40 1 10.074 0.692792 10.0377 
41 1 8.45735 2.35138 8.78179 
42 1 9.26059 1.49791 9.20011 
49 2 7.5221 3.4566 8.98211 
7 1 6.17188 6.17573 4.60112 
8 1 7.68386 7.6843 3.0858 
9 1 6.97624 6.97831 3.79503 
43 1 10.0377 10.0304 0.749436 
44 1 8.49296 8.49423 2.27364 
45 1 9.20446 9.20155 1.57177 
22 1 6.2316 6.26085 6.2307 
23 1 7.7716 7.77259 7.7727 
24 1 7.06034 7.07433 7.06045 
34 1 10.1148 10.051 10.1112 
35 1 8.58062 8.58524 8.58113 
36 1 9.29987 9.27235 9.29828 
ITEM: TIMESTEP
70
ITEM: NUMBER OF ATOMS
49
ITEM: BOX BOUNDS pp pp pp
0.0000000000000000e+00 1.1000000000000000e+01
0.0000000000000000e+00 1.1002000000000001e+01
0.0000000000000000e+00 1.1000000000000000e+01
ITEM: ATOMS id type x y z 
10 1 4.59793 4.60348 4.59811 
11 1 3.08725 3.0889 3.08764 
12 1 3.79435 3.79676 3.79553 
46 1 0.745036 0.7336 0.749089 
47 1 2.2794 2.27653 2.27657 
48 1 1.56919 1.56732 1.57579 
19 1 4.51357 4.54181 6.22692 
20 1 3.00433 3.00374 7.77451 
21 1 3.68997 3.718 7.05372 
31 1 0.726602 0.651458 10.1127 
32 1 2.19288 2.19203 8.58535 
33 1 1.50558 1.47034 9.29959 
16 1 4.52583 6.24495 4.53017 
17 1 2.99622 7.77774 2.99954 
18 1 3.70908 7.07181 3.70343 
25 1 0.67898 10.0943 0.685476 
26 1 2.19028 8.58545 2.19062 
27 1 1.48139 9.29483 1.48461 
4 1 4.60507 6.17201 6.16987 
5 1 3.09144 7.68487 7.67811 
6 1 3.79302 6.9669 6.97484 
37 1 0.763783 10.0126 10.0486 
38 1 2.27873 8.49015 8.48634 
39 1 1.58003 9.19181 9.20725 
13 1 6.22474 4.54786 4.49269 
14 1 7.77665 2.99947 2.99563 
15 1 7.06101 3.71342 3.68702 
28 1 10.1126 0.659031 0.697568 
29 1 8.59033 2.18521 2.18743 
30 1 9.30262 1.47086 1.49009 
1 1 6.17049 4.60063 6.15275 
2 1 7.60559 3.15354 7.50895 
3 1 6.89685 3.86779 6.83577 
40 1 10.0832 0.680103 10.0308 
41 1 8.44784 2.37131 8.83398 
42 1 9.25171 1.51108 9.22604 
49 2 7.49529 3.48211 8.95164 
7 1 6.16962 6.17435 4.59875 
8 1 7.68236 7.68412 3.08693 
9 1 6.97421 6.97728 3.79454 
43 1 10.0399 10.0279 0.753742 
44 1 8.49323 8.49194 2.27598 
45 1 9.20256 9.20186 1.57418 
22 1 6.23145 6.26218 6.22718 
23 1 7.76908 7.77501 7.77116 
24 1 7.0593 7.07657 7.05753 
34 1 10.1221 10.0432 10.1145 
35 1 8.58191 8.58191 8.58336 
36 1 9.30343 9.26683 9.30042 
ITEM: TIMESTEP
80
ITEM: NUMBER OF ATOMS
49
ITEM: BOX BOUNDS pp pp pp
0.0000000000000000e+00 1.1000000000000000e+01
0.0000000000000000e+00 1.1002000000000001e+01
0.0000000000000000e+00 1.1000000000000000e+01
ITEM: ATOMS id type x y z 
10 1 4.59843 4.60301 4.59772 
11 1 3.08718 3.08866 3.088 
12 1 3.79448 3.79745 3.7946 
46 1 0.743754 0.734609 0.749455 
47 1 2.27822 2.27698 2.27794 
48 1 1.57154 1.56665 1.57417 
19 1 4.51074 4.54211 6.22535 
20 1 3.00008 3.00469 7.77295 
21 1 3.6948 3.71561 7.05702 
31 1 0.726577 0.650688 10.1117 
32 1 2.19347 2.19145 8.5857 
33 1 1.50636 1.46988 9.30043 
16 1 4.52817 6.24557 4.52899 
17 1 2.99851 7.77846 2.99842 
18 1 3.70541 7.07002 3.70579 
25 1 0.67905 10.0952 0.686061 
26 1 2.19043 8.58623 2.19117 
27 1 1.48059 9.2937 1.48413 
4 1 4.60388 6.16877 6.1709 
5 1 3.08889 7.68085 7.67853 
6 1 3.79832 6.97326 6.97263 
37 1 0.76395 10.012 10.0494 
38 1 2.27902 8.48992 8.4869 
39 1 1.58052 9.1921 9.20719 
13 1 6.22528 4.54734 4.49229 
14 1 7.77683 2.99923 2.99479 
15 1 7.06096 3.71351 3.68572 
28 1 10.1119 0.659098 0.696053 
29 1 8.59066 2.18464 2.18684 
30 1 9.30342 1.47046 1.48978 
1 1 6.17182 4.60058 6.15238 
2 1 7.60589 3.15295 7.50866 
3 1 6.89808 3.8667 6.83361 
40 1 10.0827 0.680485 10.0297 
41 1 8.4458 2.37401 8.83557 
42 1 9.24877 1.51568 9.23442 
49 2 7.49363 3.48389 8.95112 
7 1 6.16966 6.17381 4.59939 
8 1 7.68215 7.68419 3.08673 
9 1 6.97432 6.97732 3.79461 
43 1 10.0385 10.0288 0.753014 
44 1 8.49258 8.49315 2.27585 
45 1 9.20466 9.20038 1.57451 
22 1 6.23195 6.26165 6.22656 
23 1 7.76843 7.77528 7.77031 
24 1 7.05889 7.07628 7.0574 
34 1 10.1229 10.0428 10.1143 
35 1 8.58212 8.58116 8.5836 
36 1 9.30371 9.26576 9.30056 
ITEM: TIMESTEP
90
ITEM: NUMBER OF ATOMS
49
ITEM: BOX BOUNDS pp pp pp
0.0000000000000000e+00 1.1000000000000000e+01
0.0000000000000000e+00 1.1002000000000001e+01
0.0000000000000000e+00 1.1000000000000000e+01
ITEM: ATOMS id type x y z 
10 1 4.59845 4.60303 4.59771 
11 1 3.08715 3.08869 3.08802 
12 1 3.79449 3.79747 3.79453 
46 1 0.743736 0.734658 0.749325 
47 1 2.27809 2.27682 2.27795 
48 1 1.57152 1.56666 1.57404 
19 1 4.51025 4.54217 6.22506 
20 1 2.99932 3.00514 7.77241 
21 1 3.69607 3.7151 7.05764 
31 1 0.726713 0.650641 10.1117 
32 1 2.19355 2.19137 8.58585 
33 1 1.50654 1.46964 9.30053 
16 1 4.52813 6.24549 4.52906 
17 1 2.9986 7.77837 2.99851 
18 1 3.70548 7.06995 3.70585 
25 1 0.678809 10.0952 0.686045 
26 1 2.19031 8.58592 2.191 
27 1 1.4808 9.29435 1.48463 
4 1 4.60412 6.16886 6.17086 
5 1 3.08911 7.68089 7.6783 
6 1 3.79821 6.97286 6.97255 
37 1 0.764085 10.012 10.0495 
38 1 2.27923 8.48988 8.4868 
39 1 1.5806 9.19177 9.20739 
13 1 6.22538 4.54716 4.49217 
14 1 7.7769 2.99917 2.99444 
15 1 7.06103 3.71341 3.68549 
28 1 10.1122 0.659038 0.696084 
29 1 8.59097 2.1845 2.18703 
30 1 9.30307 1.47046 1.48914 
1 1 6.17189 4.60049 6.15229 
2 1 7.60599 3.15283 7.50854 
3 1 6.89829 3.86636 6.83306 
40 1 10.0826 0.680535 10.0295 
41 1 8.44517 2.37483 8.83607 
42 1 9.24792 1.51696 9.23647 
49 2 7.49309 3.48446 8.95092 
7 1 6.16973 6.17382 4.59929 
8 1 7.6821 7.68418 3.0867 
9 1 6.97429 6.97734 3.79466 
43 1 10.0386 10.0287 0.752903 
44 1 8.49274 8.49321 2.2759 
45 1 9.20464 9.20051 1.57439 
22 1 6.23197 6.26143 6.22658 
23 1 7.76837 7.77542 7.77021 
24 1 7.05881 7.07621 7.05732 
34 1 10.1229 10.0425 10.1143 
35 1 8.58215 8.58095 8.58373 
36 1 9.30389 9.2656 9.30055 
ITEM: TIMESTEP
100
ITEM: NUMBER OF ATOMS
49
ITEM: BOX BOUNDS pp pp pp
0.0000000000000000e+00 1.1000000000000000e+01
0.0000000000000000e+00 1.1002000000000001e+01
0.0000000000000000e+00 1.1000000000000000e+01
ITEM: ATOMS id type x y z 
10 1 4.59852 4.60304 4.59765 
11 1 3.08714 3.08874 3.08798 
12 1 3.7945 3.79741 3.79458 
46 1 0.743743 0.734705 0.749264 
47 1 2.27808 2.27681 2.27798 
48 1 1.57152 1.56666 1.57403 
19 1 4.51007 4.54218 6.22497 
20 1 2.99897 3.00531 7.77222 
21 1 3.69661 3.71488 7.05786 
31 1 0.726717 0.650547 10.1117 
32 1 2.19363 2.1913 8.5859 
33 1 1.50655 1.46963 9.30056 
16 1 4.52813 6.24547 4.52907 
17 1 2.99862 7.77836 2.99853 
18 1 3.70548 7.06993 3.70587 
25 1 0.678794 10.0952 0.686091 
26 1 2.19031 8.58593 2.19102 
27 1 1.48079 9.29436 1.48467 
4 1 4.60411 6.1688 6.17087 
5 1 3.08908 7.6808 7.67822 
6 1 3.79838 6.97292 6.97252 
37 1 0.76412 10.012 10.0496 
38 1 2.27928 8.48985 8.48683 
39 1 1.58065 9.19169 9.2074 
13 1 6.2254 4.54712 4.49214 
14 1 7.77689 2.99919 2.99434 
15 1 7.06105 3.71338 3.68541 
28 1 10.1122 0.659061 0.695933 
29 1 8.59103 2.18445 2.18701 
30 1 9.30308 1.47043 1.48905 
1 1 6.17192 4.60042 6.1522 
2 1 7.60603 3.15278 7.50847 
3 1 6.89838 3.86623 6.83281 
40 1 10.0826 0.680518 10.0294 
41 1 8.44494 2.37515 8.83631 
42 1 9.24761 1.51745 9.23741 
49 2 7.49285 3.48472 8.95084 
7 1 6.16978 6.17379 4.59926 
8 1 7.68208 7.68421 3.08671 
9 1 6.97429 6.97729 3.79462 
43 1 10.0385 10.0287 0.752828 
44 1 8.49273 8.49325 2.27591 
45 1 9.20471 9.20048 1.5744 
22 1 6.232 6.26133 6.22659 
23 1 7.76832 7.77548 7.77017 
24 1 7.05882 7.07621 7.05729 
34 1 10.1229 10.0425 10.1142 
35 1 8.58221 8.58086 8.58374 
36 1 9.30387 9.26552 9.30063 
ITEM: TIMESTEP
110
ITEM: NUMBER OF ATOMS
49
ITEM: BOX BOUNDS pp pp pp
0.0000000000000000e+00 1.1000000000000000e+01
0.0000000000000000e+00 1.1002000000000001e+01
0.0000000000000000e+00 1.1000000000000000e+01
ITEM: ATOMS id type x y z 
10 1 4.59853 4.60302 4.59766 
11 1 3.08714 3.08872 3.088 
12 1 3.7945 3.79744 3.79455 
46 1 0.743745 0.734709 0.749255 
47 1 2.27808 2.2768 2.27799 
48 1 1.57152 1.56667 1.57402 
19 1 4.51007 4.54217 6.22497 
20 1 2.99896 3.00532 7.77221 
21 1 3.69663 3.71487 7.05786 
31 1 0.726725 0.650536 10.1117 
32 1 2.19364 2.19129 8.58591 
33 1 1.50655 1.46962 9.30056 
16 1 4.52813 6.24546 4.52907 
17 1 2.99862 7.77835 2.99853 
18 1 3.70548 7.06993 3.70587 
25 1 0.678781 10.0952 0.686113 
26 1 2.1903 8.58593 2.19103 
27 1 1.48081 9.29436 1.48465 
4 1 4.60412 6.16879 6.17087 
5 1 3.08909 7.68079 7.67821 
6 1 3.79839 6.97291 6.97251 
37 1 0.764127 10.012 10.0496 
38 1 2.27929 8.48984 8.48684 
39 1 1.58066 9.19168 9.20741 
13 1 6.22541 4.5471 4.49213 
14 1 7.77689 2.99919 2.99431 
15 1 7.06105 3.71338 3.68539 
28 1 10.1122 0.659066 0.695912 
29 1 8.59104 2.18445 2.18701 
30 1 9.30306 1.47042 1.48903 
1 1 6.17192 4.60041 6.15219 
2 1 7.60604 3.15277 7.50845 
3 1 6.8984 3.8662 6.83277 
40 1 10.0826 0.680518 10.0294 
41 1 8.44489 2.37521 8.83636 
42 1 9.24755 1.51755 9.23759 
49 2 7.4928 3.48477 8.95082 
7 1 6.16979 6.17378 4.59925 
8 1 7.68208 7.68421 3.08671 
9 1 6.97429 6.97729 3.79462 
43 1 10.0385 10.0287 0.752818 
44 1 8.49274 8.49326 2.27592 
45 1 9.20471 9.20047 1.5744 
22 1 6.232 6.26131 6.22659 
23 1 7.76831 7.77549 7.77016 
24 1 7.05881 7.0762 7.05729 
34 1 10.1229 10.0425 10.1142 
35 1 8.5822 8.58085 8.58376 
36 1 9.3039 9.26549 9.30061 
ITEM: TIMESTEP
113
ITEM: NUMBER OF ATOMS
49
ITEM: BOX BOUNDS pp pp pp
0.0000000000000000e+00 1.1000000000000000e+01
0.0000000000000000e+00 1.1002000000000001e+01
0.0000000000000000e+00 1.1000000000000000e+01
ITEM: ATOMS id type x y z 
10 1 4.59853 4.60302 4.59766 
11 1 3.08714 3.08872 3.088 
12 1 3.7945 3.79744 3.79454 
46 1 0.743745 0.734709 0.749256 
47 1 2.27807 2.2768 2.27799 
48 1 1.57152 1.56667 1.57402 
19 1 4.51007 4.54217 6.22497 
20 1 2.99896 3.00532 7.77221 
21 1 3.69663 3.71487 7.05786 
31 1 0.726725 0.650536 10.1117 
32 1 2.19364 2.19129 8.58591 
33 1 1.50655 1.46961 9.30056 
16 1 4.52813 6.24546 4.52907 
17 1 2.99862 7.77835 2.99853 
18 1 3.70548 7.06993 3.70587 
25 1 0.678779 10.0952 0.686116 
26 1 2.19029 8.58593 2.19104 
27 1 1.48081 9.29436 1.48465 
4 1 4.60412 6.16879 6.17087 
5 1 3.08909 7.68079 7.67821 
6 1 3.79838 6.97291 6.97251 
37 1 0.764127 10.012 10.0496 
38 1 2.27928 8.48984 8.48684 
39 1 1.58066 9.19168 9.20741 
13 1 6.22541 4.5471 4.49213 
14 1 7.77689 2.99919 2.99431 
15 1 7.06105 3.71338 3.68539 
28 1 10.1122 0.659065 0.69591 
29 1 8.59104 2.18445 2.18701 
30 1 9.30307 1.47042 1.48903 
1 1 6.17193 4.60041 6.15219 
2 1 7.60604 3.15277 7.50845 
3 1 6.8984 3.8662 6.83276 
40 1 10.0826 0.680518 10.0294 
41 1 8.44489 2.37521 8.83636 
42 1 9.24755 1.51756 9.23759 
49 2 7.4928 3.48477 8.95082 
7 1 6.16979 6.17378 4.59925 
8 1 7.68208 7.68421 3.08671 
9 1 6.97429 6.97729 3.79462 
43 1 10.0385 10.0287 0.752818 
44 1 8.49274 8.49326 2.27592 
45 1 9.20472 9.20047 1.5744 
22 1 6.232 6.26131 6.22659 
23 1 7.76831 7.77549 7.77016 
24 1 7.05881 7.0762 7.0573 
34 1 10.1229 10.0425 10.1142 
35 1 8.5822 8.58085 8.58376 
36 1 9.3039 9.26549 9.30062 
ITEM: TIMESTEP
120
ITEM: NUMBER OF ATOMS
49
ITEM: BOX BOUNDS pp pp pp
-3.8281235720720804e-03 1.1003828123572074e+01
-3.8403056368475851e-03 1.1005840305636848e+01
-3.8019995444163119e-03 1.1003801999544416e+01
ITEM: ATOMS id type x y z 
10 1 4.59793 4.60242 4.59706 
11 1 3.08547 3.08705 3.08634 
12 1 3.79331 3.79624 3.79336 
46 1 0.740412 0.731361 0.74595 
47 1 2.27582 2.27454 2.27576 
48 1 1.56877 1.56391 1.57128 
19 1 4.5094 4.54152 6.22545 
20 1 2.99722 3.00359 7.77377 
21 1 3.69539 3.71364 7.05892 
31 1 0.723378 0.647118 10.1149 
32 1 2.19134 2.18897 8.58805 
33 1 1.50378 1.46681 9.30318 
16 1 4.52747 6.24596 4.52842 
17 1 2.99688 7.77993 2.99681 
18 1 3.70425 7.07101 3.70465 
25 1 0.675397 10.0984 0.682759 
26 1 2.18798 8.58809 2.18874 
27 1 1.47802 9.297 1.48189 
4 1 4.60353 6.16923 6.17131 
5 1 3.08742 7.6823 7.6797 
6 1 3.79719 6.97395 6.97353 
37 1 0.760806 10.0151 10.0528 
38 1 2.27703 8.49194 8.48891 
39 1 1.57792 9.19427 9.21 
13 1 6.22589 4.54646 4.49145 
14 1 7.77846 2.99745 2.99259 
15 1 7.06212 3.71215 3.68415 
28 1 10.1154 0.655658 0.692563 
29 1 8.5932 2.18213 2.18471 
30 1 9.30571 1.46761 1.48627 
1 1 6.17237 4.5998 6.15262 
2 1 7.6075 3.15114 7.50984 
3 1 6.89937 3.86506 6.83368 
40 1 10.0858 0.67713 10.0325 
41 1 8.44695 2.37302 8.83868 
42 1 9.25016 1.51478 9.24021 
49 2 7.49419 3.48336 8.9532 
7 1 6.17023 6.17422 4.59865 
8 1 7.68359 7.68573 3.08505 
9 1 6.97533 6.97833 3.79343 
43 1 10.0417 10.0319 0.749513 
44 1 8.49483 8.49535 2.27368 
45 1 9.20731 9.20307 1.57167 
22 1 6.23249 6.26182 6.22707 
23 1 7.76988 7.77707 7.77172 
24 1 7.05988 7.07729 7.05835 
34 1 10.1262 10.0457 10.1174 
35 1 8.58435 8.583 8.5859 
36 1 9.30654 9.26811 9.30323 
ITEM: TIMESTEP
130
ITEM: NUMBER OF ATOMS
49
ITEM: BOX BOUNDS pp pp pp
-6.2379261533011881e-03 1.1006237926153302e+01
-5.6848935900008580e-03 1.1007684893590001e+01
-8.5870473914391541e-03 1.1008587047391444e+01
ITEM: ATOMS id type x y z 
10 1 4.59882 4.60322 4.59747 
11 1 3.08477 3.08654 3.08456 
12 1 3.79209 3.79532 3.79146 
46 1 0.737345 0.728862 0.740773 
47 1 2.27372 2.27277 2.27227 
48 1 1.56654 1.56207 1.56741 
19 1 4.50982 4.54209 6.22515 
20 1 2.99677 3.00344 7.77505 
21 1 3.69507 3.71359 7.05973 
31 1 0.720049 0.644262 10.1201 
32 1 2.18961 2.18752 8.59112 
33 1 1.50244 1.46578 9.30608 
16 1 4.52804 6.24522 4.52855 
17 1 2.99648 7.78003 2.99533 
18 1 3.70394 7.07102 3.70357 
25 1 0.672094 10.1012 0.677415 
26 1 2.18619 8.58948 2.18557 
27 1 1.47667 9.29785 1.47877 
4 1 4.60435 6.16823 6.17072 
5 1 3.08669 7.68269 7.68119 
6 1 3.7961 6.97482 6.97527 
37 1 0.757722 10.0177 10.0577 
38 1 2.27499 8.49359 8.49223 
39 1 1.57574 9.19597 9.21371 
13 1 6.22532 4.54702 4.49145 
14 1 7.77881 2.99727 2.99099 
15 1 7.06226 3.71208 3.68298 
28 1 10.1186 0.652741 0.687249 
29 1 8.59488 2.18062 2.1815 
30 1 9.30707 1.46669 1.4831 
1 1 6.17182 4.60032 6.15224 
2 1 7.60823 3.15057 7.51158 
3 1 6.89986 3.8646 6.83447 
40 1 10.0888 0.674487 10.0374 
41 1 8.44896 2.37127 8.84227 
42 1 9.25174 1.5137 9.24477 
49 2 7.49528 3.48241 8.95602 
7 1 6.16943 6.1732 4.59908 
8 1 7.68423 7.68612 3.0833 
9 1 6.97633 6.97924 3.79149 
43 1 10.0446 10.0344 0.744354 
44 1 8.49686 8.49705 2.27022 
45 1 9.20941 9.20483 1.56776 
22 1 6.23188 6.26123 6.22673 
23 1 7.7702 7.77721 7.77298 
24 1 7.06003 7.0773 7.05921 
34 1 10.1294 10.0484 10.1225 
35 1 8.58608 8.58431 8.58891 
36 1 9.30779 9.26893 9.30622 
ITEM: TIMESTEP
140
ITEM: NUMBER OF ATOMS
49
ITEM: BOX BOUNDS pp pp pp
-8.6633751853408686e-03 1.1008663375185343e+01
-7.4895855896749157e-03 1.1009489585589677e+01
-1.2963292644343562e-02 1.1012963292644352e+01
ITEM: ATOMS id type x y z 
10 1 4.59945 4.60395 4.5978 
11 1 3.08387 3.08608 3.08286 
12 1 3.79113 3.79426 3.7898 
46 1 0.734382 0.726467 0.736096 
47 1 2.27148 2.27085 2.26893 
48 1 1.56462 1.56065 1.56405 
19 1 4.5102 4.54261 6.22485 
20 1 2.99647 3.00347 7.77599 
21 1 3.69448 3.71327 7.06068 
31 1 0.71692 0.641646 10.1247 
32 1 2.18798 2.18617 8.59387 
33 1 1.501 1.46473 9.30876 
16 1 4.52852 6.24455 4.52869 
17 1 2.9962 7.77996 2.99417 
18 1 3.70336 7.0713 3.70235 
25 1 0.668987 10.1037 0.672619 
26 1 2.18449 8.59073 2.18273 
27 1 1.47522 9.29877 1.47589 
4 1 4.60506 6.16736 6.17025 
5 1 3.08588 7.68316 7.68262 
6 1 3.79506 6.97558 6.97678 
37 1 0.754747 10.02 10.0621 
38 1 2.27281 8.49532 8.49548 
39 1 1.57386 9.19737 9.21683 
13 1 6.22479 4.54755 4.49142 
14 1 7.77895 2.9973 2.98968 
15 1 7.06276 3.71168 3.68179 
28 1 10.1217 0.650166 0.68242 
29 1 8.59653 2.17932 2.17855 
30 1 9.30844 1.46553 1.48029 
1 1 6.17156 4.60057 6.15208 
2 1 7.60875 3.15026 7.51307 
3 1 6.90027 3.86423 6.83504 
40 1 10.0917 0.672028 10.0419 
41 1 8.45091 2.36962 8.84565 
42 1 9.25327 1.51273 9.24905 
49 2 7.49649 3.48133 8.95852 
7 1 6.16874 6.17235 4.5994 
8 1 7.68491 7.68662 3.08159 
9 1 6.97739 6.98002 3.78984 
43 1 10.0475 10.0367 0.739656 
44 1 8.49904 8.49885 2.26687 
45 1 9.21121 9.20624 1.56444 
22 1 6.23132 6.26062 6.22644 
23 1 7.77035 7.77712 7.77396 
24 1 7.06043 7.07767 7.06011 
34 1 10.1325 10.0509 10.1272 
35 1 8.5877 8.58541 8.59172 
36 1 9.30919 9.26994 9.30878 
ITEM: TIMESTEP
150
ITEM: NUMBER OF ATOMS
49
ITEM: BOX BOUNDS pp pp pp
-1.2062526284640411e-02 1.1012062526284641e+01
-1.0298364471057215e-02 1.1012298364471061e+01
-1.7690399300477937e-02 1.1017690399300491e+01
ITEM: ATOMS id type x y z 
10 1 4.59998 4.60436 4.59806 
11 1 3.08262 3.08508 3.081 
12 1 3.78971 3.79308 3.78802 
46 1 0.730555 0.723205 0.731111 
47 1 2.26864 2.26835 2.26541 
48 1 1.56206 1.55851 1.56043 
19 1 4.51039 4.54303 6.22455 
20 1 2.99568 3.00314 7.77704 
21 1 3.69367 3.71252 7.06175 
31 1 0.71311 0.638096 10.1295 
32 1 2.18584 2.18409 8.59674 
33 1 1.49876 1.46317 9.31183 
16 1 4.52882 6.24394 4.52877 
17 1 2.99544 7.78022 2.99282 
18 1 3.70251 7.07202 3.70106 
25 1 0.665096 10.107 0.667556 
26 1 2.18223 8.59253 2.17968 
27 1 1.47304 9.3004 1.47279 
4 1 4.60567 6.16658 6.17001 
5 1 3.0847 7.68397 7.68432 
6 1 3.79359 6.97672 6.97814 
37 1 0.750984 10.0232 10.0669 
38 1 2.27012 8.49764 8.49895 
39 1 1.5712 9.19935 9.22014 
13 1 6.22438 4.5479 4.49142 
14 1 7.7795 2.99688 2.98826 
15 1 7.0635 3.71099 3.68036 
28 1 10.1255 0.646731 0.6774 
29 1 8.59868 2.17739 2.1754 
30 1 9.31054 1.46371 1.47719 
1 1 6.17154 4.60051 6.15206 
2 1 7.60943 3.14975 7.51466 
3 1 6.90085 3.86363 6.83556 
40 1 10.0954 0.668748 10.0466 
41 1 8.45335 2.36745 8.84932 
42 1 9.25544 1.51108 9.25373 
49 2 7.49818 3.47971 8.96114 
7 1 6.16824 6.17165 4.59965 
8 1 7.68596 7.68753 3.0797 
9 1 6.97873 6.98108 3.78811 
43 1 10.0511 10.04 0.734648 
44 1 8.5017 8.50126 2.26334 
45 1 9.21373 9.20821 1.56085 
22 1 6.23082 6.26021 6.22609 
23 1 7.77082 7.77752 7.77498 
24 1 7.0612 7.07814 7.06122 
34 1 10.1363 10.0541 10.132 
35 1 8.58988 8.58711 8.59463 
36 1 9.31123 9.27149 9.31175 
ITEM: TIMESTEP
160
ITEM: NUMBER OF ATOMS
49
ITEM: BOX BOUNDS pp pp pp
-1.5315846006587778e-02 1.1015315846006587e+01
-1.2885310194499682e-02 1.1014885310194503e+01
-2.1740752865482292e-02 1.1021740752865499e+01
ITEM: ATOMS id type x y z 
10 1 4.60067 4.60488 4.59871 
11 1 3.08141 3.0842 3.07954 
12 1 3.78837 3.7919 3.78624 
46 1 0.726676 0.719982 0.726395 
47 1 2.26574 2.26586 2.26204 
48 1 1.5595 1.5564 1.5574 
19 1 4.5109 4.54364 6.2239 
20 1 2.99522 3.00304 7.77759 
21 1 3.69284 3.71207 7.06254 
31 1 0.709282 0.634716 10.134 
32 1 2.1837 2.18226 8.59936 
33 1 1.4969 1.46153 9.31422 
16 1 4.52942 6.24315 4.52923 
17 1 2.99499 7.7803 2.99201 
18 1 3.70165 7.07248 3.69995 
25 1 0.661191 10.1101 0.662877 
26 1 2.18001 8.59416 2.17694 
27 1 1.47107 9.30195 1.47038 
4 1 4.60643 6.16563 6.16943 
5 1 3.08353 7.68473 7.68553 
6 1 3.79229 6.97774 6.97971 
37 1 0.747062 10.0264 10.0713 
38 1 2.26728 8.49995 8.50218 
39 1 1.56876 9.20129 9.22318 
13 1 6.22373 4.54847 4.4918 
14 1 7.77978 2.99673 2.98735 
15 1 7.06413 3.71049 3.6791 
28 1 10.1294 0.643253 0.673061 
29 1 8.60088 2.17543 2.17279 
30 1 9.31236 1.46229 1.47433 
1 1 6.17152 4.60045 6.15188 
2 1 7.60968 3.14976 7.51596 
3 1 6.90126 3.86321 6.83562 
40 1 10.099 0.665541 10.0509 
41 1 8.45584 2.36532 8.8529 
42 1 9.25744 1.50975 9.25853 
49 2 7.5001 3.47783 8.96312 
7 1 6.16775 6.17071 4.60028 
8 1 7.68704 7.68828 3.07823 
9 1 6.97989 6.98221 3.78635 
43 1 10.0548 10.0431 0.729944 
44 1 8.50452 8.50365 2.26001 
45 1 9.21613 9.21023 1.55777 