LAMMPS (3 Mar 2020)
# Alpha
clear
units		real
dimension 3
boundary        p p p
atom_style	charge
newton on
read_data       OH_3.lmp
  orthogonal box = (0 0 0) to (21.884 21.886 21.885)
  2 by 2 by 2 MPI processor grid
  reading atoms ...
  146 atoms
  read_data CPU = 0.00307672 secs

timestep 0.25

# ---------- Define Interatomic Potential ---------------------
pair_style      reax/c NULL checkqeq no
pair_coeff      * * ffield.reax C H O
WARNING: Changed valency_val to valency_boc for X (../reaxc_ffield.cpp:315)
fix             2 all qeq/reax 1 0.0 10.0 1.0e-6 reax/c

#------------ Equilibration of the system -------------------------
reset_timestep 0

dump 1 all custom 10 min.lammpstrj id type x y z

minimize 1.0e-8 1.0e-8 100000 100000
WARNING: Using 'neigh_modify every 1 delay 0 check yes' setting during minimization (../min.cpp:190)
Neighbor list info ...
  update every 1 steps, delay 0 steps, check yes
  max neighbors/atom: 2000, page size: 100000
  master list distance cutoff = 12
  ghost atom cutoff = 12
  binsize = 6, bins = 4 4 4
  2 neighbor lists, perpetual/occasional/extra = 2 0 0
  (1) pair reax/c, perpetual
      attributes: half, newton off, ghost
      pair build: half/bin/newtoff/ghost
      stencil: half/ghost/bin/3d/newtoff
      bin: standard
  (2) fix qeq/reax, perpetual, copy from (1)
      attributes: half, newton off, ghost
      pair build: copy
      stencil: none
      bin: none
Per MPI rank memory allocation (min/avg/max) = 16.96 | 18.12 | 21.09 Mbytes
Step Temp E_pair E_mol TotEng Press 
       0            0   -25605.009            0   -25605.009    -32295.24 
      86            0   -25815.222            0   -25815.222   -3662.5083 
Loop time of 2.41382 on 8 procs for 86 steps with 146 atoms

99.4% CPU use with 8 MPI tasks x no OpenMP threads

Minimization stats:
  Stopping criterion = energy tolerance
  Energy initial, next-to-last, final = 
        -25605.0093061     -25815.2223206     -25815.2223219
  Force two-norm initial, final = 2056.2 29.1383
  Force max component initial, final = 300.487 8.99918
  Final line search alpha, max atom move = 2.06989e-11 1.86273e-10
  Iterations, force evaluations = 86 693

MPI task timing breakdown:
Section |  min time  |  avg time  |  max time  |%varavg| %total
---------------------------------------------------------------
Pair    | 0.85621    | 1.1027     | 1.8396     |  39.2 | 45.68
Neigh   | 0          | 0          | 0          |   0.0 |  0.00
Comm    | 0.016346   | 0.74642    | 0.99878    |  47.2 | 30.92
Output  | 0.00054275 | 0.00058939 | 0.000708   |   0.0 |  0.02
Modify  | 0.5526     | 0.55328    | 0.55397    |   0.1 | 22.92
Other   |            | 0.01081    |            |       |  0.45

Nlocal:    18.25 ave 72 max 0 min
Histogram: 6 0 0 0 0 0 0 0 0 2
Nghost:    581.375 ave 663 max 549 min
Histogram: 5 1 0 0 0 0 0 0 0 2
Neighs:    1158.62 ave 4573 max 0 min
Histogram: 6 0 0 0 0 0 0 0 0 2

Total # of neighbors = 9269
Ave neighs/atom = 63.4863
Neighbor list builds = 0
Dangerous builds = 0

###
min_style cg
minimize 1.0e-8 1.0e-8 100000 100000
WARNING: Using 'neigh_modify every 1 delay 0 check yes' setting during minimization (../min.cpp:190)
Per MPI rank memory allocation (min/avg/max) = 16.96 | 18.12 | 21.09 Mbytes
Step Temp E_pair E_mol TotEng Press 
      86            0   -25815.222            0   -25815.222   -3662.5091 
      87            0   -25815.222            0   -25815.222   -3662.5098 
Loop time of 0.191582 on 8 procs for 1 steps with 146 atoms

99.4% CPU use with 8 MPI tasks x no OpenMP threads

Minimization stats:
  Stopping criterion = linesearch alpha is zero
  Energy initial, next-to-last, final = 
        -25815.2223234     -25815.2223234     -25815.2223242
  Force two-norm initial, final = 29.1383 29.1383
  Force max component initial, final = 8.99953 8.99973
  Final line search alpha, max atom move = 1.03486e-11 9.31344e-11
  Iterations, force evaluations = 1 58

MPI task timing breakdown:
Section |  min time  |  avg time  |  max time  |%varavg| %total
---------------------------------------------------------------
Pair    | 0.068923   | 0.090166   | 0.15391    |  11.8 | 47.06
Neigh   | 0          | 0          | 0          |   0.0 |  0.00
Comm    | 0.0013066  | 0.064446   | 0.086206   |  13.9 | 33.64
Output  | 0          | 0          | 0          |   0.0 |  0.00
Modify  | 0.035949   | 0.036      | 0.036059   |   0.0 | 18.79
Other   |            | 0.00097    |            |       |  0.51

Nlocal:    18.25 ave 72 max 0 min
Histogram: 6 0 0 0 0 0 0 0 0 2
Nghost:    581.375 ave 663 max 549 min
Histogram: 5 1 0 0 0 0 0 0 0 2
Neighs:    1159.12 ave 4570 max 0 min
Histogram: 6 0 0 0 0 0 0 0 0 2

Total # of neighbors = 9273
Ave neighs/atom = 63.5137
Neighbor list builds = 0
Dangerous builds = 0

###
fix 1 all box/relax aniso 0.0
min_style cg
minimize 1.0e-8 1.0e-8 100000 100000
WARNING: Using 'neigh_modify every 1 delay 0 check yes' setting during minimization (../min.cpp:190)
Per MPI rank memory allocation (min/avg/max) = 16.96 | 18.12 | 21.09 Mbytes
Step Temp E_pair E_mol TotEng Press Volume 
      87            0   -25815.222            0   -25815.222   -3662.5074    10481.891 
      94            0   -25815.254            0   -25815.254   -3180.4203    10481.257 
Loop time of 0.29646 on 8 procs for 7 steps with 146 atoms

99.4% CPU use with 8 MPI tasks x no OpenMP threads

Minimization stats:
  Stopping criterion = energy tolerance
  Energy initial, next-to-last, final = 
        -25815.2223199     -25815.2540573     -25815.2541209
  Force two-norm initial, final = 970.496 843.188
  Force max component initial, final = 575.103 503.462
  Final line search alpha, max atom move = 9.6949e-11 4.88101e-08
  Iterations, force evaluations = 7 96

MPI task timing breakdown:
Section |  min time  |  avg time  |  max time  |%varavg| %total
---------------------------------------------------------------
Pair    | 0.11371    | 0.14835    | 0.25148    |  15.0 | 50.04
Neigh   | 0          | 0          | 0          |   0.0 |  0.00
Comm    | 0.0022196  | 0.10445    | 0.13987    |  17.7 | 35.23
Output  | 6.1435e-05 | 6.7172e-05 | 7.8366e-05 |   0.0 |  0.02
Modify  | 0.040969   | 0.041052   | 0.041137   |   0.0 | 13.85
Other   |            | 0.002546   |            |       |  0.86

Nlocal:    18.25 ave 72 max 0 min
Histogram: 6 0 0 0 0 0 0 0 0 2
Nghost:    581.375 ave 663 max 549 min
Histogram: 5 1 0 0 0 0 0 0 0 2
Neighs:    1159.12 ave 4570 max 0 min
Histogram: 6 0 0 0 0 0 0 0 0 2

Total # of neighbors = 9273
Ave neighs/atom = 63.5137
Neighbor list builds = 0
Dangerous builds = 0

unfix 1
###
min_style cg
minimize 1.0e-8 1.0e-8 100000 100000
WARNING: Using 'neigh_modify every 1 delay 0 check yes' setting during minimization (../min.cpp:190)
Per MPI rank memory allocation (min/avg/max) = 16.96 | 18.12 | 21.09 Mbytes
Step Temp E_pair E_mol TotEng Press 
      94            0   -25815.254            0   -25815.254   -3180.4205 
      96            0    -25815.27            0    -25815.27    -4056.238 
Loop time of 0.212858 on 8 procs for 2 steps with 146 atoms

99.4% CPU use with 8 MPI tasks x no OpenMP threads

Minimization stats:
  Stopping criterion = linesearch alpha is zero
  Energy initial, next-to-last, final = 
        -25815.2541216     -25815.2697276     -25815.2697249
  Force two-norm initial, final = 35.3274 36.8247
  Force max component initial, final = 9.06772 9.48693
  Final line search alpha, max atom move = 5.30131e-12 5.02932e-11
  Iterations, force evaluations = 2 64

MPI task timing breakdown:
Section |  min time  |  avg time  |  max time  |%varavg| %total
---------------------------------------------------------------
Pair    | 0.075909   | 0.09922    | 0.16875    |  12.4 | 46.61
Neigh   | 0          | 0          | 0          |   0.0 |  0.00
Comm    | 0.0014368  | 0.070412   | 0.094179   |  14.6 | 33.08
Output  | 0          | 0          | 0          |   0.0 |  0.00
Modify  | 0.042223   | 0.042285   | 0.042354   |   0.0 | 19.87
Other   |            | 0.0009403  |            |       |  0.44

Nlocal:    18.25 ave 72 max 0 min
Histogram: 6 0 0 0 0 0 0 0 0 2
Nghost:    581.375 ave 663 max 549 min
Histogram: 5 1 0 0 0 0 0 0 0 2
Neighs:    1159.12 ave 4570 max 0 min
Histogram: 6 0 0 0 0 0 0 0 0 2

Total # of neighbors = 9273
Ave neighs/atom = 63.5137
Neighbor list builds = 0
Dangerous builds = 0

###
fix 1 all box/relax aniso 0.0
min_style cg
minimize 1.0e-8 1.0e-8 100000 100000
WARNING: Using 'neigh_modify every 1 delay 0 check yes' setting during minimization (../min.cpp:190)
Per MPI rank memory allocation (min/avg/max) = 16.96 | 18.12 | 21.09 Mbytes
Step Temp E_pair E_mol TotEng Press Volume 
      96            0    -25815.27            0    -25815.27   -4056.2395    10481.257 
     101            0    -25815.36            0    -25815.36   -2749.5694    10479.451 
Loop time of 0.191605 on 8 procs for 5 steps with 146 atoms

98.9% CPU use with 8 MPI tasks x no OpenMP threads

Minimization stats:
  Stopping criterion = energy tolerance
  Energy initial, next-to-last, final = 
        -25815.2697278     -25815.3603277     -25815.3603912
  Force two-norm initial, final = 1074.8 729.328
  Force max component initial, final = 631.513 435.896
  Final line search alpha, max atom move = 1.11966e-10 4.88056e-08
  Iterations, force evaluations = 5 62

MPI task timing breakdown:
Section |  min time  |  avg time  |  max time  |%varavg| %total
---------------------------------------------------------------
Pair    | 0.074261   | 0.096614   | 0.16268    |  12.0 | 50.42
Neigh   | 0          | 0          | 0          |   0.0 |  0.00
Comm    | 0.0013347  | 0.066948   | 0.089682   |  14.3 | 34.94
Output  | 6.5172e-05 | 7.0533e-05 | 8.1883e-05 |   0.0 |  0.04
Modify  | 0.026366   | 0.026416   | 0.026478   |   0.0 | 13.79
Other   |            | 0.001557   |            |       |  0.81

Nlocal:    18.25 ave 72 max 0 min
Histogram: 6 0 0 0 0 0 0 0 0 2
Nghost:    581.375 ave 663 max 549 min
Histogram: 5 1 0 0 0 0 0 0 0 2
Neighs:    1159.12 ave 4570 max 0 min
Histogram: 6 0 0 0 0 0 0 0 0 2

Total # of neighbors = 9273
Ave neighs/atom = 63.5137
Neighbor list builds = 0
Dangerous builds = 0

unfix 1
###
min_style cg
minimize 1.0e-8 1.0e-8 100000 100000
WARNING: Using 'neigh_modify every 1 delay 0 check yes' setting during minimization (../min.cpp:190)
Per MPI rank memory allocation (min/avg/max) = 16.96 | 18.12 | 21.09 Mbytes
Step Temp E_pair E_mol TotEng Press 
     101            0    -25815.36            0    -25815.36   -2749.5682 
     103            0   -25815.373            0   -25815.373   -3650.8341 
Loop time of 0.227172 on 8 procs for 2 steps with 146 atoms

99.3% CPU use with 8 MPI tasks x no OpenMP threads

Minimization stats:
  Stopping criterion = linesearch alpha is zero
  Energy initial, next-to-last, final = 
        -25815.3603887     -25815.3731367     -25815.3731362
  Force two-norm initial, final = 39.418 29.37
  Force max component initial, final = 9.07927 8.934
  Final line search alpha, max atom move = 7.13122e-12 6.37103e-11
  Iterations, force evaluations = 2 69

MPI task timing breakdown:
Section |  min time  |  avg time  |  max time  |%varavg| %total
---------------------------------------------------------------
Pair    | 0.081896   | 0.10716    | 0.18223    |  12.9 | 47.17
Neigh   | 0          | 0          | 0          |   0.0 |  0.00
Comm    | 0.0015751  | 0.076105   | 0.1018     |  15.2 | 33.50
Output  | 0          | 0          | 0          |   0.0 |  0.00
Modify  | 0.042897   | 0.042956   | 0.043034   |   0.0 | 18.91
Other   |            | 0.0009554  |            |       |  0.42

Nlocal:    18.25 ave 72 max 0 min
Histogram: 6 0 0 0 0 0 0 0 0 2
Nghost:    581.375 ave 663 max 549 min
Histogram: 5 1 0 0 0 0 0 0 0 2
Neighs:    1159.12 ave 4570 max 0 min
Histogram: 6 0 0 0 0 0 0 0 0 2

Total # of neighbors = 9273
Ave neighs/atom = 63.5137
Neighbor list builds = 0
Dangerous builds = 0

undump 1
#############
#----------- Thermo ------------
reset_timestep 0
thermo  200

thermo_style    custom step temp etotal ke pe press
velocity all create 300 12345 mom yes rot yes
fix 1 all npt temp 300 300 25.0 iso 0.0 0.0 250.0

variable vpe equal pe
variable vtemp equal temp
variable vstep equal step

fix output all print 2500 "${vstep} ${vtemp} ${vpe}" file temp-tpdh-Pt.dat screen no

dump 1 all custom 2500 thermo-tpdh-Pt.lammpstrj id type x y z

run 1000000
Per MPI rank memory allocation (min/avg/max) = 15.84 | 17 | 19.96 Mbytes
Step Temp TotEng KinEng PotEng Press 
       0          300   -25685.708    129.66524   -25815.373   -3085.2238 
     200    209.86299   -25641.448    90.706447   -25732.154    5093.5119 
     400    276.54934   -25573.028    119.52945   -25692.558    1898.5938 
     600    282.82501    -25550.56    122.24191   -25672.802    894.34995 
     800    290.42871   -25568.931    125.52836    -25694.46    333.55424 
    1000    300.70734   -25557.151    129.97096   -25687.122    3452.0341 
    1200    320.51782   -25527.921     138.5334   -25666.454    -189.8519 
    1400    308.23849   -25559.045    133.22606   -25692.271   -131.77152 
    1600    276.98682   -25561.901    119.71854   -25681.619    3161.1828 
    1800    321.99021   -25546.244    139.16979   -25685.413    168.74551 
    2000    284.05278    -25569.71    122.77257   -25692.483   -5326.9599 
    2200    288.85865    -25563.56    124.84975    -25688.41    4588.2077 
    2400    326.99767   -25544.374     141.3341   -25685.708   -7434.6551 
    2600    282.68633   -25570.051    122.18197   -25692.233   -3067.3864 
    2800    327.39712   -25546.239    141.50675   -25687.746     2474.736 
    3000    299.24024   -25542.893    129.33685    -25672.23    2084.3501 
    3200    270.93484   -25555.271    117.10277   -25672.373    2953.6875 
    3400    302.62623   -25542.532    130.80034   -25673.332   -7045.8238 
    3600    307.36323   -25541.974    132.84775   -25674.822   -6017.0111 
    3800    278.10213   -25567.909     120.2006    -25688.11    8805.1198 
    4000    314.67309   -25543.435     136.0072   -25679.442     544.5781 
    4200    310.47627   -25544.697    134.19326    -25678.89    2634.1151 
    4400    272.83566   -25556.896    117.92434   -25674.821   -3793.5086 
    4600    284.53968   -25570.123    122.98302   -25693.106   -6926.6471 
    4800    289.51475   -25577.141    125.13333   -25702.274    1563.1498 
    5000    303.80858   -25555.919    131.31137    -25687.23    4567.3384 
    5200     285.4607   -25566.214     123.3811   -25689.595    -5196.966 
    5400    294.87855   -25573.293    127.45166   -25700.744    -1642.585 
    5600    302.44912   -25545.957    130.72379   -25676.681    4114.3593 
    5800    308.74169   -25545.249    133.44355   -25678.693    963.47522 
    6000    302.29113   -25539.851    130.65551   -25670.506    5238.6799 
    6200    273.36713   -25562.253    118.15405   -25680.407    2559.7356 
    6400    309.25703   -25551.693    133.66629    -25685.36   -6404.9492 
    6600     270.7866   -25559.886    117.03869   -25676.925    576.69571 
    6800    328.55282   -25538.421    142.00626   -25680.427   -4929.3978 
    7000    288.87516   -25570.399    124.85689   -25695.256    1150.1008 
    7200    324.74032   -25562.619    140.35844   -25702.977   -1513.9501 
    7400    294.77301   -25583.778    127.40604   -25711.184   -504.89346 
    7600    340.51355    -25553.15     147.1759   -25700.326    2956.0818 
    7800    295.59941   -25561.747    127.76323   -25689.511   -1070.1181 
    8000    328.83863   -25530.195     142.1298   -25672.325    -1157.474 
    8200    301.92161   -25548.144    130.49579    -25678.64    4358.2754 
    8400    294.62624   -25556.478    127.34261    -25683.82   -5384.7788 
    8600     266.2206   -25578.834    115.06519   -25693.899   -2620.2327 
    8800    300.34158    -25554.27    129.81287   -25684.083    -4072.489 
    9000     302.6488   -25553.404    130.81009   -25684.214    6390.1442 
    9200    281.04639   -25579.036    121.47315   -25700.509   -2353.8786 
    9400    286.62533   -25563.701    123.88447   -25687.585    2863.5056 
    9600    317.38565   -25546.077    137.17962   -25683.257    1624.7519 
    9800    306.36053   -25550.517    132.41437   -25682.931    2965.9673 
   10000    275.75339   -25560.538    119.18543   -25679.724    2811.6189 
   10200    310.16237   -25538.128    134.05759   -25672.186   -2485.8522 
   10400    283.69041   -25547.506    122.61595   -25670.122    -9068.457 
   10600    301.90966       -25547    130.49063    -25677.49   -2408.9379 
   10800    288.60974   -25563.654    124.74217   -25688.396      -273.37 
   11000    300.81266   -25548.827    130.01648   -25678.843    4569.8176 
   11200     305.6769    -25537.94    132.11889   -25670.059   -3354.5714 
   11400    307.50072   -25555.931    132.90718   -25688.838   -314.80911 
   11600    257.65126   -25572.184    111.36137   -25683.546   -2265.5502 
   11800    321.80885   -25537.249     139.0914   -25676.341    5623.0415 
   12000    269.53878   -25551.715    116.49937   -25668.214    1056.6258 
   12200    312.00389   -25549.586    134.85353   -25684.439     1854.551 
   12400     321.5615   -25529.825     138.9845   -25668.809    2491.0694 
   12600    250.15411   -25562.151    108.12097   -25670.272   -1320.8766 
   12800    316.38737   -25554.923    136.74815   -25691.671    2412.7708 
   13000    327.41735    -25532.62    141.51549   -25674.135   -179.79451 
   13200    266.57075   -25556.651    115.21653   -25671.867    -1884.782 
   13400    300.41666   -25553.075    129.84533    -25682.92    3030.5759 
   13600    348.24485   -25535.412    150.51751    -25685.93   -3099.9575 
   13800    291.83714   -25563.943    126.13711   -25690.081    2242.9759 
   14000    327.32342   -25548.492     141.4749   -25689.967   -1880.6756 
   14200    293.24274   -25572.817    126.74463   -25699.561   -5665.7119 
   14400    350.74771   -25541.161    151.59929   -25692.761    1414.7084 
   14600    309.59626   -25565.607    133.81291    -25699.42   -2473.0697 
   14800    334.38683   -25559.633    144.52782   -25704.161   -6438.1019 
   15000     329.9341   -25528.147    142.60328    -25670.75    4985.6804 
   15200    323.97507   -25548.724    140.02768   -25688.751    4103.9887 
   15400    299.03446   -25558.901    129.24791   -25688.149   -5202.5731 
   15600    260.01235   -25568.076    112.38188   -25680.458    5468.3606 
   15800    332.66369   -25544.397    143.78305    -25688.18   -3824.2042 
   16000    302.10512   -25574.928    130.57511   -25705.503   -1929.6763 
   16200    306.96873   -25561.634    132.67724   -25694.311    1422.5079 
   16400    322.94111   -25554.224    139.58078   -25693.805   -1556.2261 
   16600    286.09112    -25582.47    123.65357   -25706.124   -7583.6452 
   16800    302.60478   -25556.921    130.79107   -25687.712   -3696.0649 
   17000    293.58617   -25554.212    126.89307   -25681.105   -8135.8131 
   17200    316.36086   -25547.369    136.73669   -25684.106   -3697.0599 
   17400    316.21813   -25550.032      136.675   -25686.707   -1090.5183 
   17600    311.98304   -25547.563    134.84452   -25682.407    3994.5783 
   17800    314.33042   -25525.865    135.85909   -25661.724   -5368.8133 
   18000    304.93247   -25557.573    131.79714    -25689.37    996.43529 
   18200    276.98565   -25575.206    119.71803   -25694.924    1182.5681 
   18400    325.38566   -25542.148    140.63736   -25682.785    2581.8406 
   18600    316.22646   -25555.427     136.6786   -25692.106     4209.309 
   18800    275.83488    -25560.55    119.22065    -25679.77   -1565.8546 
   19000    311.39017   -25537.793    134.58827   -25672.381    4381.1853 
   19200    302.58823    -25556.18    130.78391   -25686.964   -5129.2679 
   19400    297.32949   -25549.825      128.511   -25678.336    4367.4889 
   19600    308.42541   -25529.039    133.30685   -25662.346     1624.499 
   19800    266.07091   -25551.715    115.00049   -25666.716    769.31035 
   20000    326.48134   -25543.061    141.11094   -25684.172   -4867.2026 
   20200    332.83088   -25527.377    143.85532   -25671.232    395.98472 
   20400     301.6518   -25558.484    130.37917   -25688.863    4099.8481 
   20600    314.86841   -25561.563    136.09162   -25697.654   -5963.6118 
   20800    327.53057   -25534.261    141.56443   -25675.826   -8430.7179 
   21000    279.76537   -25560.619    120.91948   -25681.538     6277.617 
   21200    295.44973   -25549.969    127.69853   -25677.668   -555.49095 
   21400    306.39823   -25548.041    132.43066   -25680.472    -769.0948 
   21600    238.66542   -25575.929    103.15536   -25679.084   -681.54174 
   21800    311.46924   -25557.319    134.62244   -25691.941   -5093.2887 
   22000    317.12409   -25545.708    137.06657   -25682.775   -1929.7514 
   22200    311.92032   -25535.949    134.81741   -25670.766   -1928.4427 
   22400    261.65319   -25560.788    113.09107   -25673.879     3104.195 
   22600     315.4335   -25553.251    136.33586   -25689.587   -870.54472 
   22800    249.45116   -25586.019    107.81715   -25693.836     1224.258 
   23000    302.36692   -25561.329    130.68826   -25692.017    1517.0958 
   23200    289.69006   -25553.936     125.2091   -25679.145    1975.6109 
   23400    278.77678   -25575.685    120.49219   -25696.177   -4271.4477 
   23600    316.33208   -25552.116    136.72425    -25688.84    -3726.205 
   23800     310.0045   -25562.823    133.98935   -25696.812   -2251.4785 
   24000    286.72803   -25573.819    123.92886   -25697.748    1661.9698 
   24200      279.085   -25550.987    120.62541   -25671.613    4522.8629 
   24400    332.80902   -25535.501    143.84587   -25679.347    1654.3227 
   24600    303.19668   -25526.534     131.0469   -25657.581    2862.6294 
   24800    290.96398   -25552.354    125.75971   -25678.114    464.39504 
   25000    281.70089   -25560.155    121.75604   -25681.911   -3549.0704 
   25200    250.15127   -25585.882    108.11974   -25694.002    2239.6494 
   25400    287.33762   -25559.035    124.19234   -25683.227    1617.5648 
   25600    324.15533   -25547.455    140.10559   -25687.561   -541.51166 
   25800    280.30463   -25575.102    121.15255   -25696.254     1951.724 
   26000    310.99534   -25568.873    134.41761   -25703.291   -5552.8796 
   26200    325.56081   -25542.283    140.71307   -25682.996   -8079.6472 
   26400    270.84795   -25562.691    117.06521   -25679.756   -3703.6509 
   26600    280.79723   -25554.787    121.36547   -25676.153   -7433.3683 
   26800    311.87553   -25540.145    134.79805   -25674.944   -339.35801 
   27000    315.54992   -25547.191    136.38618   -25683.577    -8251.753 
   27200    272.84136   -25572.374     117.9268   -25690.301   -4445.2457 
   27400    305.85155   -25552.707    132.19438   -25684.902   -2614.3668 
   27600    301.93698   -25547.548    130.50243    -25678.05   -2351.1698 
   27800     300.1301   -25559.219    129.72147   -25688.941   -1870.1761 
   28000    276.60622   -25559.641    119.55404   -25679.195   -2487.9278 
   28200    313.72793   -25538.558    135.59869   -25674.157    -542.6805 
   28400    255.99695     -25572.6    110.64635   -25683.246   -7517.0415 
   28600    312.45859   -25542.772    135.05006   -25677.822   -7978.7813 
   28800    288.74388   -25546.566    124.80015   -25671.366    6634.8947 
   29000    303.35705   -25555.156    131.11621   -25686.272   -2210.4185 
   29200    317.89605     -25533.5    137.40022     -25670.9    82.784762 
   29400    298.12432    -25560.16    128.85453   -25689.015    -31.81724 
   29600    298.88082   -25558.805    129.18151   -25687.986   -3853.5633 
   29800    317.18925   -25533.261    137.09473   -25670.356     1546.423 
   30000    299.29501    -25555.22    129.36053    -25684.58   -2496.7089 
   30200    283.04582   -25551.741    122.33735   -25674.078     1305.966 
   30400    361.71706   -25520.729    156.34043   -25677.069    1858.7269 
   30600    300.13186   -25547.399    129.72223   -25677.121   -182.47358 
   30800    276.70862   -25566.437     119.5983   -25686.035    9409.8411 
   31000    311.47071   -25554.518    134.62308   -25689.141   -5919.1216 
   31200    300.33054   -25548.447     129.8081   -25678.255    3926.9468 
   31400    279.13873   -25563.022    120.64863    -25683.67    4326.6428 
   31600    313.44274   -25553.952    135.47543   -25689.427    2817.4863 
   31800    334.26063   -25543.276    144.47328   -25687.749   -5295.6091 
   32000    277.70107   -25573.618    120.02725   -25693.645   -556.60469 
   32200    304.61725   -25560.593    131.66089   -25692.254    2432.8852 
   32400    264.70326   -25554.045    114.40937   -25668.454   -5834.4918 
   32600    264.53565   -25584.965    114.33693   -25699.302   -1512.3464 
   32800     283.7973   -25570.011    122.66215   -25692.673   -232.86125 
   33000    308.21569   -25547.998     133.2162   -25681.214   -2265.4346 
   33200    305.42397   -25556.863    132.00957   -25688.873   -5099.4068 
   33400    299.88927   -25564.351    129.61738   -25693.969   -2718.4436 
   33600    264.02755   -25552.868    114.11732   -25666.985    3999.2439 
   33800    279.50352     -25545.3     120.8063   -25666.106   -769.37167 
   34000    300.27622   -25542.448    129.78463   -25672.232    -626.7318 
   34200    284.06363   -25572.968    122.77726   -25695.746   -753.51264 
   34400    306.01523   -25543.634    132.26512   -25675.899     1278.118 
   34600    278.99487   -25561.731    120.58645   -25682.317    1165.9794 
   34800    299.68844   -25560.172    129.53057   -25689.702      103.531 
   35000    315.96653   -25537.286    136.56625   -25673.852    -4153.329 
   35200    295.85542    -25558.31    127.87388   -25686.184    1499.1674 
   35400    269.28994   -25576.368    116.39181    -25692.76   -1819.7441 
   35600    303.21485   -25543.683    131.05475   -25674.738   -6365.8738 
   35800     274.1849   -25557.447     118.5075   -25675.955      3416.84 
   36000    304.20879   -25551.818    131.48435   -25683.303   -4109.5001 
   36200    354.08902   -25536.035    153.04346   -25689.079    1462.7564 
   36400    279.76152   -25562.287    120.91781   -25683.205   -732.30862 
   36600    325.48132   -25552.435    140.67871   -25693.114    1522.6194 
   36800     323.1419    -25553.31    139.66757   -25692.978   -2185.5142 
   37000    271.15098    -25571.48    117.19619   -25688.676    4397.8377 
   37200    307.38999   -25547.151    132.85932    -25680.01   -3682.2036 
   37400    296.25769    -25551.29    128.04774   -25679.338     3598.745 
   37600    263.97066   -25580.555    114.09273   -25694.647   -6911.8158 
   37800    290.29164    -25558.49    125.46911   -25683.959   -2496.6119 
   38000    295.47839   -25547.979    127.71092    -25675.69   -3372.1432 
   38200     280.5496   -25557.367    121.25844   -25678.626    -239.7076 
   38400    291.92928   -25565.002    126.17693   -25691.179    589.82227 
   38600    307.12031   -25535.754    132.74276   -25668.496    5525.9192 
   38800    300.62431   -25552.621    129.93507   -25682.556   -3719.5801 
   39000    293.02907   -25553.934    126.65228   -25680.586    7932.7537 
   39200     305.2844   -25552.958    131.94925   -25684.907    3203.9585 
   39400    293.45137   -25573.168     126.8348   -25700.003   -284.00989 
   39600     308.5776   -25543.585    133.37263   -25676.957   -425.63583 
   39800    298.80449   -25559.416    129.14852   -25688.565   -2466.1924 
   40000     280.7954   -25555.698    121.36467   -25677.063    1036.1729 
   40200    278.05336   -25556.786    120.17952   -25676.966    3232.0376 
   40400    282.37831   -25565.268    122.04884   -25687.316    2074.1265 
   40600     325.4787     -25529.6    140.67758   -25670.278    1695.7545 
   40800    285.14226   -25557.261    123.24346   -25680.504    2310.0452 
   41000     302.4332   -25541.637    130.71691   -25672.354   -2910.6492 
   41200    312.19372   -25540.087    134.93558   -25675.023   -8043.1646 
   41400    320.84672   -25555.917    138.67555   -25694.592    374.66467 
   41600    300.82396    -25568.65    130.02137   -25698.672    2498.0827 
   41800    266.29875   -25578.378    115.09897   -25693.477   -846.62819 
   42000    296.59366    -25544.79    128.19296   -25672.983   -1921.0789 
   42200    317.21661   -25548.283    137.10656   -25685.389    11781.857 
   42400    280.18674   -25561.974     121.1016   -25683.076     1534.634 
   42600    308.26825   -25552.762    133.23892   -25686.001    822.24724 
   42800    294.11134   -25553.397    127.12006   -25680.517   -2107.3419 
   43000    289.98169   -25533.779    125.33515   -25659.114   -2545.6309 
   43200    290.91297   -25551.116    125.73766   -25676.854   -2408.7414 
   43400    263.95349   -25566.541     114.0853   -25680.627    20.634857 
   43600     273.5782   -25552.703    118.24527   -25670.949   -950.93889 
   43800    270.88479    -25547.27    117.08113   -25664.351   -4559.9949 
   44000    281.82601   -25565.584    121.81012   -25687.394   -3099.8833 
   44200    274.26473   -25567.944      118.542   -25686.486   -6649.2118 
   44400    319.17739    -25543.83    137.95404   -25681.784     2323.768 
   44600    278.92965   -25566.625    120.55826   -25687.183   -4147.6854 
   44800    254.86193   -25577.724    110.15578    -25687.88    2034.5461 
   45000    309.43836   -25544.522    133.74466   -25678.267    2569.8938 
   45200    321.85465   -25553.389     139.1112     -25692.5    210.85015 
   45400    280.38445   -25560.519    121.18705   -25681.706    330.79494 
   45600    309.95898   -25550.764    133.96968   -25684.734   -682.50438 
   45800    301.97173   -25563.776    130.51745   -25694.294    856.38479 
   46000      301.757   -25539.873    130.42464   -25670.298    5341.7394 
   46200    311.26044   -25541.017     134.5322    -25675.55   -3131.7604 
   46400    301.75008   -25560.962    130.42165   -25691.384    -2818.358 
   46600    340.42066   -25538.581    147.13575   -25685.717    2206.6881 
   46800    273.97309   -25567.088    118.41595   -25685.504    5251.3622 
   47000    293.26579   -25558.825    126.75459    -25685.58   -572.71818 
   47200    290.48574    -25551.21    125.55301   -25676.763   -593.59471 
   47400    287.14597   -25571.412     124.1095   -25695.521    3417.0422 
   47600     336.2843   -25553.202    145.34795    -25698.55    3273.2034 
   47800    284.03395   -25557.828    122.76443   -25680.593   -563.30899 
   48000    281.80568   -25588.565    121.80133   -25710.366   -2822.1204 
   48200    303.77688   -25563.947    131.29767   -25695.245    835.48728 
   48400     303.8548   -25540.722    131.33135   -25672.053   -1630.3762 
   48600    296.89422   -25555.938    128.32286   -25684.261   -1522.9142 
   48800    288.43438   -25562.367    124.66637   -25687.033    1467.1238 
   49000    288.79267    -25570.52    124.82123   -25695.341    2299.7412 
   49200    302.64049   -25552.839     130.8065   -25683.646    3243.2059 
   49400     280.0675   -25555.254    121.05006   -25676.304    726.41054 
   49600    331.37818   -25553.009    143.22744   -25696.237    2626.8206 
   49800    292.67891    -25546.58    126.50093   -25673.081    3994.2584 
   50000    332.41167   -25543.197    143.67413   -25686.871     2743.252 
   50200    348.38477    -25525.82    150.57798   -25676.398   -2736.9845 
   50400    321.83391   -25547.433    139.10224   -25686.535   -74.704655 
   50600    301.29608   -25555.449    130.22543   -25685.674    1796.3384 
   50800    285.55244   -25560.852    123.42075   -25684.273   -863.92183 
   51000    305.47948   -25564.545    132.03356   -25696.578   -543.79085 
   51200    292.95539   -25543.141    126.62043   -25669.761    795.15787 
   51400    326.21999   -25535.574    140.99797   -25676.572   -4117.8132 
   51600    281.72368   -25566.285    121.76589   -25688.051    1132.0437 
   51800    316.61447   -25543.022     136.8463   -25679.869    5152.3369 
   52000    291.51708   -25562.007    125.99877   -25688.005   -4322.4764 
   52200    288.69845   -25577.028    124.78051   -25701.808    1774.5824 
   52400    294.36133   -25553.527     127.2281   -25680.755    5656.6575 
   52600    327.14032   -25537.879    141.39576   -25679.275   -2226.4178 
   52800    293.14796   -25561.415    126.70367   -25688.118   -2290.5559 
   53000    318.14109     -25551.5    137.50613   -25689.006    -3153.857 
   53200    291.52168   -25540.867    126.00076   -25666.868   -4959.2028 
   53400    292.70664   -25556.944    126.51292   -25683.457   -4545.9706 
   53600    274.47558   -25569.933    118.63314   -25688.566    2661.1819 
   53800    330.31422   -25543.542    142.76757    -25686.31    4979.2775 
   54000    277.57455   -25559.087    119.97257   -25679.059   -3722.2282 
   54200     333.1812   -25548.948    144.00673   -25692.955    4199.2678 
   54400    284.80935   -25557.637    123.09957   -25680.737   -7426.0434 
   54600    288.59306   -25550.181    124.73496   -25674.916    1472.0486 
   54800    367.90959   -25520.272    159.01695   -25679.289   -3539.9621 
   55000    278.13046    -25552.18    120.21284   -25672.393   -949.22922 
   55200    286.62631   -25565.305     123.8849   -25689.189    4151.8201 
   55400    263.83376   -25586.357    114.03356    -25700.39   -1551.9522 
   55600    295.43386   -25557.376    127.69167   -25685.068   -8479.1848 
   55800    310.12636   -25543.552    134.04202   -25677.594    4317.6864 
   56000    298.80124    -25575.58    129.14711   -25704.727   -3435.8348 
   56200    290.12147   -25562.435    125.39556    -25687.83    9690.9499 
   56400    322.63353   -25554.352    139.44784     -25693.8   -1991.6763 
   56600     295.4576   -25569.324    127.70193   -25697.026    2629.6695 
   56800     345.8497   -25556.387    149.48228    -25705.87    1384.8742 
   57000    293.02775   -25554.271    126.65171   -25680.923   -2220.7933 
   57200     324.3892   -25528.238    140.20668   -25668.445    -4574.416 
   57400    294.18185   -25546.605    127.15053   -25673.755    683.29135 
   57600    273.81181   -25564.833    118.34624   -25683.179   -3046.9959 
   57800    295.60992   -25560.015    127.76777   -25687.783    1300.8801 
   58000    323.24732   -25547.689    139.71313   -25687.403    5363.9847 
   58200    279.56068   -25560.212      120.831   -25681.043   -4828.7415 
   58400    305.56758   -25528.751    132.07164   -25660.823    6929.6165 
   58600    295.13189   -25541.864    127.56116   -25669.425   -546.15684 
   58800    285.45578   -25556.371    123.37897    -25679.75   -6249.4405 
   59000    264.62296   -25575.501    114.37466   -25689.876    9267.4641 
   59200    310.34879    -25540.74    134.13816   -25674.878      5136.07 
   59400     279.4456   -25553.002    120.78127   -25673.784   -2104.8296 
   59600    297.62192   -25551.786    128.63739   -25680.423    1727.8736 
   59800    334.62405   -25535.607    144.63036   -25680.237   -736.05609 
   60000    289.81998   -25568.765    125.26525    -25694.03   -1886.1164 
   60200     319.7871   -25558.477    138.21757   -25696.695   -6025.8488 
   60400    327.46064   -25539.886     141.5342   -25681.421    7369.9381 
   60600    284.26028   -25557.128    122.86225    -25679.99    10012.607 
   60800    293.13049   -25546.374    126.69611    -25673.07    4128.0908 
   61000    265.66044   -25578.967    114.82308    -25693.79   -1966.1653 
   61200     288.5097   -25560.078    124.69893   -25684.777    3097.3869 
   61400    290.27669   -25548.352    125.46265   -25673.815    2128.4277 
   61600    317.80659   -25548.858    137.36156   -25686.219    4983.4604 
   61800     280.7988   -25567.898    121.36614   -25689.264    928.56474 
   62000    312.04188   -25545.221    134.86995   -25680.091    -6478.062 
   62200    286.05372   -25559.042    123.63741    -25682.68    6290.0246 
   62400    259.37803   -25588.904    112.10771   -25701.011   -3992.4612 
   62600    275.31562       -25561    118.99622   -25679.996    2694.9702 
   62800    298.84426   -25551.875    129.16571   -25681.041    2578.5544 
   63000    270.85222   -25581.148    117.06706   -25698.215   -3459.6367 
   63200    293.80846   -25557.435    126.98914   -25684.424   -4321.2073 
   63400    304.97966    -25558.27    131.81753   -25690.088    855.34147 
   63600    313.29691    -25558.59    135.41239   -25694.003   -7646.7939 
   63800    302.39982   -25536.573    130.70248   -25667.276   -2955.2266 
   64000    306.54679   -25560.183    132.49487   -25692.678   -981.43628 
   64200    304.63016   -25553.696    131.66648   -25685.363   -2231.3252 
   64400    305.99241   -25550.806    132.25526   -25683.061    3730.2359 
   64600     273.1541   -25581.709    118.06197   -25699.771    4815.8658 
   64800    308.52823   -25549.309    133.35129    -25682.66   -1194.0385 
   65000    279.81664   -25562.435    120.94164   -25683.377   -807.43076 
   65200    334.02442   -25535.411    144.37119   -25679.782   -2422.9187 
   65400     278.4688   -25553.853    120.35908   -25674.212    764.11836 
   65600    313.55161    -25558.17    135.52248   -25693.692     3079.569 
   65800    288.82604   -25560.233    124.83566   -25685.069   -3963.1139 
   66000    327.16285   -25535.894     141.4055     -25677.3   -2040.6917 
   66200     283.7883   -25559.755    122.65826   -25682.413    4252.1792 
   66400    310.53379   -25556.611    134.21813   -25690.829   -254.37841 
   66600    331.56088   -25544.012     143.3064   -25687.319   -2248.5127 
   66800    311.17311   -25537.697    134.49445   -25672.191    4551.9255 
   67000    299.27398    -25567.88    129.35144   -25697.231    1041.2938 
   67200     306.6474   -25554.547    132.53836   -25687.085   -385.74029 
   67400    247.34715   -25571.146    106.90776   -25678.054   -1411.7475 
   67600    291.86705   -25553.104    126.15003   -25679.254   -1760.8982 
   67800     305.0805    -25543.09    131.86112   -25674.951    3842.6275 
   68000    259.72215   -25563.643    112.25645   -25675.899   -116.85874 
   68200    290.95913   -25563.557    125.75761   -25689.314    -2333.257 
   68400    308.11213   -25539.875    133.17144   -25673.047   -3628.4539 
   68600    316.76096   -25555.584    136.90962   -25692.493    6374.2058 
   68800    298.52194   -25561.766    129.02639   -25690.792    476.34605 
   69000    284.37021   -25546.416    122.90977   -25669.325   -1015.5457 
   69200    295.33999   -25562.164     127.6511   -25689.816    -4513.675 
   69400    306.91957   -25564.081    132.65599   -25696.737   -2468.5921 
   69600    333.27163   -25528.211    144.04581   -25672.257   -7832.3697 
   69800    272.29541   -25550.777    117.69083   -25668.468    6859.3504 
   70000    299.36692   -25541.764    129.39161   -25671.156   -4324.4817 
   70200     338.2629   -25529.989    146.20313   -25676.192    710.62643 
   70400    279.27641   -25558.358    120.70814   -25679.066    615.92667 
   70600    325.41118   -25546.168    140.64839   -25686.816    4089.8634 
   70800    323.59979   -25543.569    139.86548   -25683.435    8219.1895 
   71000    277.68089   -25572.013    120.01853   -25692.032   -2405.2114 
   71200    325.28539   -25543.251    140.59402   -25683.845    820.19477 
   71400    293.02017   -25547.829    126.64843   -25674.478    370.46576 
   71600    281.14353   -25573.781    121.51514   -25695.296    3235.0081 
   71800    296.33154   -25573.777    128.07966   -25701.857   -995.23138 
   72000    313.84812   -25562.568    135.65064   -25698.219    8611.9848 
   72200    309.01851   -25550.932     133.5632   -25684.495    4428.5416 
   72400    296.11571   -25529.622    127.98638   -25657.608    2669.5742 
   72600    270.72119   -25563.466    117.01042   -25680.476    1210.4962 
   72800    321.60683   -25551.061    139.00409   -25690.065    5843.7243 
   73000    331.27959   -25546.488    143.18482   -25689.673    3274.6338 
   73200    294.54398    -25566.62    127.30705   -25693.927     1370.335 
   73400    319.73138   -25542.295    138.19348   -25680.489     3812.199 
   73600    306.60049   -25546.381    132.51808   -25678.899    3385.9441 
   73800    319.79118   -25545.943    138.21933   -25684.162   -7789.2123 
   74000    280.87394   -25564.299    121.39862   -25685.698    8830.3885 
   74200    279.00601   -25543.048    120.59127   -25663.639   -496.58176 
   74400    338.01198   -25517.979    146.09468   -25664.074    3944.7565 
   74600    291.75598   -25549.874    126.10203   -25675.976   -1936.1832 
   74800    322.78713   -25548.202    139.51423   -25687.716    7063.3064 
   75000    328.22015   -25522.501    141.86248   -25664.363   -6244.0556 
   75200    296.88243   -25552.012    128.31777    -25680.33    4362.4534 
   75400    303.73659   -25544.245    131.28026   -25675.525   -1058.9116 
   75600    278.65132   -25547.982    120.43796    -25668.42    356.16361 
   75800    281.00107   -25556.386    121.45357    -25677.84   -1183.3305 
   76000    320.93951   -25533.108    138.71566   -25671.824    -3619.696 
   76200     304.3817    -25548.85    131.55909   -25680.409    -1327.702 
   76400    281.65798    -25566.99    121.73749   -25688.728   -1442.8399 
   76600    292.40518   -25572.972    126.38262   -25699.355    3250.7261 
   76800    314.47856   -25542.672    135.92312   -25678.595    169.01741 
   77000    278.07837   -25556.516    120.19032   -25676.706    1199.7333 
   77200    294.35034   -25547.766    127.22336   -25674.989    6149.7089 
   77400    323.36309   -25544.291    139.76317   -25684.054    3320.4169 
   77600    250.33137   -25575.386    108.19759   -25683.583   -1426.6411 
   77800    299.28123    -25551.27    129.35457   -25680.625    7878.7249 
   78000    299.46447   -25545.196    129.43377    -25674.63   -1684.1576 
   78200    284.18123   -25576.911    122.82809    -25699.74    4744.1147 
   78400    311.11899   -25553.544    134.47106   -25688.015    432.40934 
   78600    279.87188   -25561.997    120.96551   -25682.963    3218.0984 
   78800    254.58773   -25587.298    110.03726   -25697.335   -3659.3432 
   79000     281.5627   -25557.061    121.69631   -25678.758   -2208.4227 
   79200    317.48048   -25551.302    137.22061   -25688.523    3451.5205 
   79400    294.65789   -25562.201    127.35628   -25689.557   -2709.1016 
   79600    298.26221   -25554.409    128.91413   -25683.323   -6905.2538 
   79800    286.85911   -25557.065    123.98551    -25681.05    289.46935 
   80000     305.1377   -25541.164    131.88584    -25673.05   -1843.5943 
   80200     279.6678   -25564.856    120.87731   -25685.733   -3061.8902 
   80400    308.06927    -25549.88    133.15292   -25683.033    6081.8423 
   80600    335.35355   -25515.876    144.94566   -25660.821   -1766.8405 
   80800    302.73314   -25548.782    130.84655   -25679.629     7206.123 
   81000    294.28863    -25548.82    127.19669   -25676.017   -4207.2644 
   81200     263.2067   -25575.071    113.76253   -25688.834    3335.8997 
   81400    303.29265   -25560.535    131.08838   -25691.623    3908.9662 
   81600    288.30044   -25550.567    124.60848   -25675.176   -5265.5917 
   81800    297.90535   -25537.464    128.75989   -25666.224   -7140.6338 
   82000    334.52007   -25540.101    144.58542   -25684.687   -506.35545 
   82200     266.7901    -25559.47    115.31134   -25674.781   -11.159743 
   82400    323.64026   -25528.492    139.88297   -25668.375     7215.237 
   82600    313.33594   -25539.017    135.42926   -25674.446    5288.2394 
   82800    307.69522   -25561.559    132.99125    -25694.55    220.80744 
   83000    328.27259   -25554.335    141.88515    -25696.22   -1354.1848 
   83200    295.35449   -25543.539    127.65737   -25671.197    2246.1517 
   83400    308.91855   -25554.829    133.51999   -25688.349    2964.7227 
   83600    296.25369   -25544.534    128.04602    -25672.58    6723.6327 
   83800    284.31566   -25559.784    122.88619    -25682.67    500.90686 
   84000      299.033   -25542.738    129.24728   -25671.985   -3698.1033 
   84200    289.18648   -25560.316    124.99144   -25685.308   -1350.1537 
   84400    297.50758     -25560.4    128.58797   -25688.988   -1397.4279 
   84600    264.01483   -25549.437    114.11182   -25663.549    644.31954 
   84800     320.0548   -25530.038    138.33327   -25668.371   -6492.6769 
   85000    294.85562   -25559.976    127.44175   -25687.418    7989.9875 
   85200    309.38295   -25549.646    133.72071   -25683.367    2418.7791 
   85400    317.42248   -25535.302    137.19554   -25672.497    3954.0978 
   85600    310.82884   -25562.751    134.34565   -25697.097    706.02413 
   85800    284.60951   -25564.412     123.0132   -25687.426    6284.8215 
   86000    313.34218   -25542.625    135.43196   -25678.057    2296.9221 
   86200    277.92485    -25562.44    120.12397   -25682.564   -7549.9152 
   86400    298.44799   -25557.415    128.99443   -25686.409     763.3547 
   86600    305.66338   -25545.287    132.11305     -25677.4    980.20019 
   86800    332.59369   -25550.194     143.7528   -25693.947    1256.4964 
   87000    281.18747   -25556.599    121.53413   -25678.133   -3013.0728 
   87200    321.53899   -25548.044    138.97477   -25687.018   -4792.3257 
   87400    274.25199   -25570.435     118.5365   -25688.972   -4757.4727 
   87600    321.70849   -25548.522    139.04803    -25687.57    -3893.963 
   87800    317.12286   -25556.525    137.06604   -25693.591    -3621.849 
   88000     295.0048   -25553.337    127.50622   -25680.843   -13.105883 
   88200    324.34159   -25538.149     140.1861   -25678.335   -2319.2874 
   88400     265.7171   -25565.331    114.84757   -25680.179    80.737242 
   88600    318.39734   -25547.269    137.61689   -25684.886    218.12024 
   88800    311.80928   -25544.016    134.76941   -25678.785    1551.9127 
   89000    274.53024   -25566.361    118.65676   -25685.018   -1598.0702 
   89200     301.8563    -25535.97    130.46756   -25666.438   -4665.2636 
   89400    299.60872   -25543.248    129.49612   -25672.744   -2229.9993 
   89600    309.11067   -25548.715    133.60303   -25682.318    825.97572 
   89800    275.52713    -25574.93    119.08764   -25694.017   -2523.1937 
   90000    281.02419   -25563.189    121.46356   -25684.652   -2597.2826 
   90200    309.91633   -25544.975    133.95125   -25678.926    2020.0759 
   90400    301.13844   -25563.129    130.15729   -25693.286   -845.92203 
   90600    262.94479   -25579.381    113.64933    -25693.03    1615.4933 
   90800    273.54364   -25550.602    118.23033   -25668.832   -6455.8112 
   91000    293.06561   -25535.932    126.66807     -25662.6    1650.7629 
   91200    292.89743   -25564.195    126.59538    -25690.79     978.2993 
   91400    285.33403   -25556.261    123.32635   -25679.588    -6995.002 
   91600    320.11672   -25534.979    138.36003   -25673.339   -978.91729 
   91800    315.26856   -25546.081    136.26457   -25682.345    3683.7724 
   92000    295.65093   -25566.302    127.78549   -25694.088     1199.021 
   92200    309.21307   -25541.683    133.64729    -25675.33   -5155.4044 
   92400    309.57541   -25541.053     133.8039   -25674.857    -681.2937 
   92600    278.73435   -25561.564    120.47385   -25682.037     -1426.84 
   92800    312.22006   -25549.804    134.94696   -25684.751   -4620.4238 
   93000    328.52253   -25543.011    141.99317   -25685.004    5730.2351 
   93200     302.9523   -25569.719    130.94127    -25700.66   -1862.8413 
   93400    295.22281   -25564.259    127.60045    -25691.86    2056.2775 
   93600    318.50551   -25546.762    137.66364   -25684.425    4353.8067 
   93800    275.38732   -25561.563    119.02721    -25680.59    1360.6746 
   94000    276.34209   -25581.946    119.43988   -25701.386   -310.84018 
   94200    299.71244   -25553.761    129.54095   -25683.302   -933.58401 
   94400    307.53774   -25545.829    132.92318   -25678.752   -7295.2841 
   94600    303.04801   -25560.569    130.98264   -25691.552    489.75972 
   94800    276.89365   -25566.734    119.67827   -25686.413    -63.35936 
   95000    329.54965   -25536.836    142.43711   -25679.273   -66.499106 
   95200    326.04148   -25542.306    140.92082   -25683.227    6907.8436 
   95400    322.79293   -25551.324    139.51674   -25690.841   -6114.8432 
   95600    270.73753   -25583.473    117.01749    -25700.49    3960.3672 
   95800    295.20474   -25556.717    127.59264    -25684.31    2079.7575 
   96000    301.85938   -25546.334    130.46889   -25676.803   -3599.4702 
   96200     311.8307   -25556.596    134.77867   -25691.374    348.98809 
   96400    287.68187   -25567.963    124.34112   -25692.304    2383.2902 
   96600    333.01342   -25539.633    143.93421   -25683.567     4194.683 
   96800     310.5667   -25560.928    134.23235    -25695.16    807.78265 
   97000    300.86033   -25561.817    130.03709   -25691.854   -513.34782 
   97200    293.69004   -25537.363    126.93796   -25664.301    8198.8757 
   97400    342.31302   -25529.138    147.95366   -25677.092     -462.517 
   97600    301.60938   -25556.897    130.36084   -25687.258      697.314 
   97800    287.84616   -25559.543    124.41213   -25683.956   -316.32566 
   98000    276.72773   -25555.381    119.60656   -25674.988    -7480.493 
   98200    321.82913    -25532.46    139.10017    -25671.56    -88.56307 
   98400    292.94138   -25558.953    126.61438   -25685.567    1718.7515 
   98600    301.48739   -25555.254    130.30811   -25685.562   -523.70861 
   98800    307.10232   -25543.283    132.73498   -25676.018   -3114.4451 
   99000    298.96424   -25555.197    129.21756   -25684.415   -2649.7688 
   99200    269.14941    -25570.83    116.33107   -25687.161   -452.78572 
   99400    298.18555   -25555.953      128.881   -25684.834    1644.4319 
   99600    282.18319   -25542.704     121.9645   -25664.669    3577.4631 
   99800    339.54343   -25520.343     146.7566   -25667.099   -1486.5651 
  100000    314.34986   -25549.734     135.8675   -25685.601   -7790.4431 
  100200     274.8477    -25560.07    118.79397   -25678.864   -838.11379 
  100400    280.92133   -25546.702     121.4191   -25668.121    2232.7146 
  100600    300.93641   -25553.944    130.06997   -25684.014   -1423.8707 
  100800    303.59706   -25546.555    131.21995   -25677.775   -1499.4207 
  101000     331.4301   -25537.514    143.24988   -25680.764    3767.7837 
  101200    294.22277   -25563.802    127.16822    -25690.97    1010.1813 
  101400    285.88245   -25576.577    123.56338    -25700.14    6444.9536 
  101600     316.1149   -25546.946    136.63038   -25683.577   -526.54575 
  101800    275.68254   -25554.669    119.15481   -25673.824   -3420.6522 
  102000     331.2027   -25536.486    143.15159   -25679.638    4502.8255 
  102200    303.43539   -25559.666    131.15007   -25690.816   -1780.2808 
  102400    308.00015   -25556.321    133.12304   -25689.444    4404.1062 
  102600    296.37804   -25569.421    128.09976    -25697.52   -2550.7976 
  102800    299.78301   -25560.622    129.57145   -25690.194    3593.0854 
  103000    340.04758   -25539.135     146.9745    -25686.11    3093.0633 
  103200    314.83472   -25552.636    136.07706   -25688.713    3166.0598 
  103400    291.84469   -25581.496    126.14037   -25707.636   -2702.9619 
  103600    320.77495   -25551.243    138.64453   -25689.888    2952.0578 
  103800    302.43789   -25561.338    130.71894   -25692.057    -4074.974 
  104000    311.10332   -25550.776    134.46429    -25685.24    5371.1424 
  104200     315.7728   -25536.937    136.48252   -25673.419    6043.0625 
  104400    290.49029   -25564.655    125.55497    -25690.21    3281.3488 
  104600    342.30184   -25540.484    147.94883   -25688.433    -2434.272 
  104800     314.4088   -25566.273    135.89297   -25702.166   -2350.0522 
  105000    273.83947   -25556.149     118.3582   -25674.508   -2397.8456 
  105200    315.31619   -25539.901    136.28516   -25676.187   -2686.7784 
  105400    283.40584   -25573.079    122.49295   -25695.572   -3425.4524 
  105600     339.0587   -25537.604    146.54709   -25684.151    1015.4126 
  105800    280.05269   -25551.531    121.04366   -25672.574    6365.3868 
  106000    278.06475    -25572.21    120.18444   -25692.394    2480.5379 
  106200    264.46463   -25578.037    114.30623   -25692.343    9580.2213 
  106400    297.30817    -25547.94    128.50178   -25676.442   -2540.8419 
  106600    333.34056   -25522.504    144.07561    -25666.58    1520.1276 
  106800    297.29809   -25554.371    128.49743   -25682.869    1008.0678 
  107000    325.23948   -25551.857    140.57418   -25692.431   -2930.0052 
  107200    301.74523   -25539.093    130.41956   -25669.513   -5350.9636 
  107400     291.6686   -25551.203    126.06426   -25677.268   -6422.5036 
  107600    280.26919   -25565.212    121.13724   -25686.349    3058.9355 
  107800    315.48193   -25537.343     136.3568     -25673.7   -1450.5128 
  108000     290.3182   -25558.566     125.4806   -25684.046   -2698.3077 
  108200     299.9404   -25564.925    129.63948   -25694.564   -2943.7056 
  108400    313.37554   -25549.963    135.44638   -25685.409   -120.69287 
  108600    325.11514   -25541.264    140.52044   -25681.784   -3001.6843 
  108800    304.14487   -25551.922    131.45672   -25683.379   -2136.4369 
  109000    296.93916   -25562.325    128.34229   -25690.668   -328.43366 
  109200    299.06207   -25544.469    129.25985   -25673.729    -5307.199 
  109400    282.47309   -25551.181     122.0898   -25673.271    1820.1577 
  109600    304.34997   -25562.845    131.54537   -25694.391    2145.4815 
  109800    290.37827   -25539.103    125.50656    -25664.61    1774.8108 
  110000    283.51867   -25565.587    122.54172   -25688.129    5256.7447 
  110200    300.40078   -25561.355    129.83846   -25691.193    890.30255 
  110400    332.69462   -25550.856    143.79642   -25694.653    4021.7403 
  110600    273.71564   -25574.691    118.30468   -25692.996   -550.61719 
  110800    297.20457   -25548.945      128.457   -25677.402    979.83004 
  111000    266.17256   -25559.294    115.04443   -25674.339    7506.9629 
  111200    280.99378   -25581.984    121.45042   -25703.435   -3765.3676 
  111400    274.37145   -25554.888    118.58813   -25673.476    2203.2368 
  111600    314.18833   -25545.447    135.79768   -25681.245    778.04274 
  111800    267.12043   -25564.588    115.45411   -25680.042   -4092.3018 
  112000    300.49021    -25550.96    129.87711   -25680.837    724.75195 
  112200    305.17646   -25552.746    131.90259   -25684.649    2703.4148 
  112400    307.42432   -25544.147    132.87416   -25677.021   -1543.2363 
  112600    304.23147   -25546.821    131.49415   -25678.315   -2197.4947 
  112800    291.07191   -25564.252    125.80636   -25690.058   -5774.8898 
  113000    279.41538   -25570.636     120.7682   -25691.404    3656.5192 
  113200    312.22906   -25546.761    134.95085   -25681.712    11939.811 
  113400    310.52186   -25546.923    134.21297   -25681.136   -5603.6047 
  113600    290.28705   -25553.356    125.46713   -25678.823    4698.1712 
  113800    294.70926   -25534.341    127.37849    -25661.72   -6493.0702 
  114000    307.13139   -25538.992    132.74755   -25671.739   -4245.5173 
  114200    298.89969   -25562.079    129.18966   -25691.269   -2477.2885 
  114400    296.04252   -25546.885    127.95475   -25674.839   -215.86756 
  114600    316.81509   -25531.955    136.93301   -25668.888    3826.0354 
  114800     300.2229   -25556.643    129.76158   -25686.404   -1739.0335 
  115000    296.87627   -25559.995    128.31511    -25688.31     3722.382 
  115200    278.55092   -25551.928    120.39457   -25672.323   -1077.1204 
  115400    321.83603   -25550.672    139.10315   -25689.775   -247.30942 
  115600    313.13488   -25550.031    135.34236   -25685.373     2914.013 
  115800    326.97149   -25524.833    141.32278   -25666.155   -1314.9511 
  116000    294.85755   -25539.139    127.44258   -25666.581   -472.94094 
  116200     293.8058   -25551.439    126.98799   -25678.427   -215.55865 
  116400    282.91823   -25560.662     122.2822   -25682.944   -3287.5365 
  116600    327.26819   -25523.734    141.45103   -25665.185    7417.0222 
  116800    331.77433   -25546.003    143.39866   -25689.402   -2230.6017 
  117000    295.09137   -25554.135    127.54364   -25681.679   -1932.4625 
  117200    318.31122   -25539.065    137.57966   -25676.645    6074.0823 
  117400    311.24539   -25554.804    134.52569    -25689.33   -2508.4423 
  117600    299.35492   -25566.138    129.38642   -25695.525    5537.9089 
  117800    291.16251   -25535.609    125.84552   -25661.454   -3233.7229 
  118000    303.73374   -25543.208    131.27903   -25674.487    180.58982 
  118200    271.36689   -25560.278    117.28951   -25677.568    6034.6165 
  118400    312.90404    -25546.54    135.24259   -25681.782   -4045.1332 
  118600    291.89657   -25575.495    126.16279   -25701.658    3971.3221 
  118800    319.95089   -25555.111    138.28836   -25693.399   -257.13049 
  119000    305.71189   -25546.592    132.13402   -25678.726    -4682.201 
  119200    293.22335   -25568.141    126.73625   -25694.878    1187.8426 
  119400    317.45566   -25543.139    137.20988   -25680.349   -3762.0348 
  119600    289.50362   -25562.652    125.12852   -25687.781   -748.37909 
  119800    295.84317   -25558.951    127.86858   -25686.819    8193.9323 
  120000    301.97427   -25541.464    130.51855   -25671.983    2919.7726 
  120200     310.0735   -25560.791    134.01918    -25694.81   -2036.4332 
  120400    268.38024   -25565.061    115.99862   -25681.059    1530.4921 
  120600    307.72494   -25544.551    133.00409   -25677.555    1734.9798 
  120800     287.6138   -25562.117    124.31171   -25686.428    1476.7564 
  121000    271.31038   -25565.833    117.26508   -25683.098    1601.8484 
  121200     286.8998   -25539.746     124.0031   -25663.749   -770.46042 
  121400    300.29919   -25545.096    129.79455    -25674.89    4300.0228 
  121600    259.89407    -25578.24    112.33075   -25690.571   -3887.1747 
  121800    300.21608   -25551.488    129.75863   -25681.247    2075.4937 
  122000    319.43565   -25539.316    138.06566   -25677.381   -2747.4025 
  122200    295.12361   -25575.008    127.55757   -25702.565    3490.0537 
  122400    317.03246   -25567.836    137.02696   -25704.863   -577.09226 
  122600    278.98289   -25547.504    120.58127   -25668.086    5101.9927 
  122800    304.32172   -25544.096    131.53316   -25675.629    -11059.89 
  123000     293.6538   -25550.394     126.9223   -25677.316   -8803.9967 
  123200     319.9908   -25546.506    138.30561   -25684.812    4821.8927 
  123400    262.11171   -25567.434    113.28926   -25680.723   -620.37258 
  123600    307.73945    -25540.17    133.01036   -25673.181   -5286.3789 
  123800    301.98699   -25547.253    130.52405   -25677.778   -5700.7768 
  124000    300.97506   -25551.186    130.08668   -25681.272    2893.2786 
  124200    280.94105   -25556.116    121.42762   -25677.544   -5661.3858 
  124400    317.61207   -25559.342    137.27748   -25696.619    432.31879 
  124600    287.60315   -25549.063     124.3071    -25673.37    3472.5874 
  124800     319.9029   -25527.347    138.26762   -25665.615    3898.6298 
  125000    293.67451   -25556.801    126.93125   -25683.733   -4309.5846 
  125200    310.45334   -25550.783    134.18335   -25684.967   -356.94924 
  125400    275.55005   -25573.222    119.09754    -25692.32   -379.71762 
  125600     315.0901   -25558.934    136.18744   -25695.121   -4369.7131 
  125800    271.84265   -25561.529    117.49514   -25679.024    5430.9642 
  126000    329.62974    -25531.25    142.47173   -25673.722    3703.7341 
  126200    310.49388     -25546.5    134.20088   -25680.701   -5097.6107 
  126400    313.34854   -25555.108    135.43471   -25690.542    6363.8672 
  126600    279.80243   -25547.267    120.93549   -25668.202    702.85005 
  126800    332.43949   -25555.928    143.68615   -25699.614    1592.6409 
  127000    291.86765   -25562.138    126.15029   -25688.289    3850.0992 
  127200    307.92798   -25530.522    133.09185   -25663.614   -684.06437 
  127400    283.39919   -25551.689    122.49008   -25674.179    4648.3876 
  127600    274.25323   -25560.528    118.53703   -25679.065    1891.6981 
  127800    291.13507   -25548.696    125.83366    -25674.53    7068.8083 
  128000    299.20438   -25546.001    129.32135   -25675.322    528.67233 
  128200    256.93719   -25564.386    111.05274   -25675.439   -1054.5423 
  128400    304.08581   -25545.574    131.43119   -25677.005    4630.0366 
  128600    322.58047   -25544.006    139.42491   -25683.431   -1897.6734 
  128800    294.58441   -25551.455    127.32453    -25678.78    104.47451 
  129000    319.93777   -25550.869    138.28269   -25689.152    -4670.435 
  129200    273.84511   -25571.081    118.36064   -25689.441    -2004.155 
  129400    310.24253   -25544.804    134.09224   -25678.896    1612.7538 
  129600    281.75926    -25562.24    121.78127   -25684.021    1829.9563 
  129800    259.06793   -25564.113    111.97368   -25676.087   -5191.3681 
  130000     283.6596   -25553.498    122.60263   -25676.101    -1553.929 
  130200    307.17672   -25537.129    132.76714   -25669.897    9067.7187 
  130400    297.37983   -25559.749    128.53275   -25688.281     4099.631 
  130600    303.23807   -25550.841    131.06479   -25681.906    976.59122 
  130800    288.44417    -25543.78     124.6706   -25668.451    -4675.028 
  131000    267.42645   -25572.858    115.58638   -25688.445    1497.0645 
  131200    304.68864   -25551.918    131.69175    -25683.61   -5531.7544 
  131400    326.69378   -25535.155    141.20275   -25676.358   -2091.0513 
  131600    289.97743   -25565.672    125.33331   -25691.005    6929.6752 
  131800    299.10019   -25546.914    129.27632    -25676.19     1549.901 
  132000    325.40337   -25542.625    140.64502    -25683.27   -6679.2461 
  132200     272.7666   -25570.444    117.89449   -25688.339   -1917.9738 
  132400    301.56885   -25549.002    130.34332   -25679.346    -388.7553 
  132600    285.81865   -25563.807    123.53581   -25687.343    2512.2894 
  132800    304.04983   -25563.748    131.41565   -25695.164   -4008.9544 
  133000    289.02513   -25556.208    124.92171    -25681.13   -2821.7951 
  133200    314.89285   -25550.612    136.10219   -25686.714   -11866.025 
  133400    272.64394    -25572.52    117.84147   -25690.361   -4949.0351 
  133600    307.43524   -25555.917    132.87888   -25688.796   -6019.4206 
  133800    303.20892   -25549.641    131.05219   -25680.693   -2278.2181 
  134000    305.36029   -25560.275    131.98205   -25692.257    929.79981 
  134200    266.37561   -25581.682    115.13219   -25696.814    3906.8985 
  134400    300.45139   -25550.925    129.86034   -25680.786    5389.4428 
  134600    298.10451   -25558.969    128.84597   -25687.815   -6157.8118 
  134800    306.39463   -25565.863    132.42911   -25698.292    6696.7859 
  135000     312.7795   -25558.378    135.18876   -25693.567   -9942.0318 
  135200     264.5176   -25577.139    114.32912   -25691.468    -686.4668 
  135400    323.66644   -25542.188    139.89428   -25682.083    3226.4132 
  135600    279.67468   -25559.488    120.88028   -25680.369   -7269.9701 
  135800    319.68746   -25559.694     138.1745   -25697.868    5005.4242 
  136000    321.01699   -25535.181    138.74915    -25673.93   -1123.7736 
  136200    301.20717   -25550.844      130.187   -25681.031    359.83972 
  136400    263.56121   -25587.436    113.91576   -25701.352   -2327.7708 
  136600    288.93161   -25570.014    124.88128   -25694.895   -4731.8224 
  136800    286.64515   -25546.062    123.89304   -25669.955   -6211.3382 
  137000    320.87493   -25520.398    138.68775   -25659.086    2097.9844 
  137200    308.34582   -25558.816    133.27244   -25692.088   -5022.8214 
  137400    311.19194   -25553.057    134.50259   -25687.559    5486.6679 
  137600    319.42387   -25531.088    138.06057   -25669.148    3357.8445 
  137800    282.07693   -25562.898    121.91858   -25684.817   -4551.8851 
  138000     288.3997   -25558.249    124.65138     -25682.9   -963.50439 
  138200    304.02975   -25537.083    131.40697    -25668.49    544.55722 
  138400    325.01138   -25522.263    140.47559   -25662.738   -1628.3619 
  138600    293.89348   -25551.548    127.02589   -25678.574   -4088.7962 
  138800    269.79288   -25562.566    116.60919   -25679.175   -219.70378 
  139000    329.21465   -25535.762    142.29232   -25678.054    -823.9132 
  139200     315.2534   -25539.651    136.25802   -25675.909   -3226.0188 
  139400    302.37802   -25560.583    130.69306   -25691.276    3563.2586 
  139600    284.18773   -25547.279     122.8309    -25670.11   -6333.8937 
  139800    316.77751     -25528.2    136.91677   -25665.116    -3000.757 
  140000    283.38267   -25557.364    122.48294   -25679.847    1647.4072 
  140200    315.06072   -25562.491    136.17474   -25698.666    4040.1249 
  140400    312.50218   -25531.044     135.0689   -25666.113    2716.8319 
  140600    304.71226   -25545.919    131.70196   -25677.621    6854.9567 
  140800    265.96009   -25567.392     114.9526   -25682.344   -3042.0119 
  141000    321.27719   -25552.778    138.86161   -25691.639    -4167.111 
  141200    347.68638   -25526.427    150.27612   -25676.703   -414.70956 
  141400    284.55005   -25556.534     122.9875   -25679.522   -5157.0414 
  141600    319.90083   -25547.686    138.26672   -25685.953   -794.86412 
  141800    305.48895   -25552.528    132.03766   -25684.566    1839.3408 
  142000    277.34689   -25574.863    119.87417   -25694.737    236.26385 
  142200    299.05076   -25548.771    129.25496   -25678.026   -4065.3948 
  142400    285.10985   -25561.326    123.22945   -25684.556    4040.7704 
  142600    309.83483   -25532.571    133.91602   -25666.487   -1435.4166 
  142800    314.45318   -25544.295    135.91215   -25680.207    257.40827 
  143000    304.83785   -25560.432    131.75624   -25692.188    2069.0582 
  143200    320.89952    -25553.72    138.69838   -25692.418    1877.3932 
  143400    315.08249   -25537.694    136.18415   -25673.878   -3320.1005 
  143600    272.45886   -25566.616    117.76147   -25684.378     7435.115 
  143800    269.40036   -25555.699    116.43954   -25672.139   -3805.0412 
  144000    345.81073   -25530.954    149.46544    -25680.42    3642.6359 
  144200    299.31537    -25561.94    129.36933    -25691.31   -4366.5363 
  144400    258.11698   -25561.825    111.56266   -25673.388    6228.9279 
  144600    329.93666   -25537.872    142.60438   -25680.477   -221.42397 
  144800    286.34735   -25554.971    123.76432   -25678.735    4033.2729 
  145000    318.03162   -25553.549    137.45882   -25691.008    62.697309 
  145200    298.36272   -25533.253    128.95758   -25662.211   -2129.5334 
  145400    282.69191    -25558.09    122.18438   -25680.275    3631.9303 
  145600     304.7483   -25557.666    131.71753   -25689.383   -3734.0232 
  145800    307.97894   -25531.212    133.11387   -25664.326    2169.3308 
  146000    274.99863   -25540.477    118.85921   -25659.336   -3350.0355 
  146200    269.03768   -25559.034    116.28278   -25675.316    2874.5788 
  146400    365.68713   -25534.821    158.05636   -25692.878   -2276.5312 
  146600    306.70937   -25558.828    132.56515   -25691.393   -714.68987 
  146800    291.86769   -25557.884    126.15031   -25684.034   -920.19943 
  147000    293.65177   -25546.734    126.92142   -25673.655   -3409.5041 
  147200    283.56791   -25571.572      122.563   -25694.135    3241.3964 
  147400    295.66521   -25550.866    127.79167   -25678.658    849.40762 
  147600     299.5568   -25551.073    129.47368   -25680.547   -659.59122 
  147800     268.8466   -25581.094    116.20019   -25697.294    3539.7973 
  148000    291.80845   -25560.611    126.12471   -25686.736    2303.4232 
  148200    303.93889   -25550.424    131.36769   -25681.791    674.04007 
  148400    279.10802   -25570.928    120.63536   -25691.563   -148.85916 
  148600     274.1154   -25551.385    118.47746   -25669.862   -2349.8437 
  148800    323.23686   -25545.136    139.70861   -25684.844   -6045.6776 
  149000    294.47563   -25569.896    127.27751   -25697.173    1355.0097 
  149200      308.534    -25548.52    133.35378   -25681.873   -1459.4222 
  149400    278.73456   -25555.509    120.47394   -25675.983    1145.7893 
  149600    309.55631   -25556.851    133.79564   -25690.647   -8929.4325 
  149800    336.30099   -25532.434    145.35516   -25677.789    744.01423 
  150000    303.16914   -25550.165      131.035     -25681.2    -561.4568 
  150200    300.33818   -25571.445    129.81141   -25701.256     8735.974 
  150400    247.69994   -25589.756    107.06024   -25696.816    -8855.818 
  150600     264.3159   -25563.409    114.24195   -25677.651   -3727.4056 
  150800    321.70931   -25540.959    139.04838   -25680.007    1005.4148 
  151000    280.24259   -25562.557    121.12574   -25683.683   -8813.0816 
  151200    334.82313   -25528.693     144.7164    -25673.41    2894.7697 
  151400    295.05943   -25547.283    127.52984   -25674.813    4504.7968 
  151600    311.22469   -25562.532    134.51674   -25697.049   -1582.6915 
  151800    270.36073   -25577.745    116.85463   -25694.599    4383.2585 
  152000    309.71604   -25563.592    133.86468   -25697.456    6437.9348 
  152200    303.87838   -25541.945    131.34154   -25673.287    6721.6055 
  152400    297.87163    -25567.48    128.74532   -25696.226    5536.2171 
  152600    271.74818   -25562.196    117.45431   -25679.651   -537.01107 
  152800    302.36802   -25557.191    130.68874    -25687.88   -1817.9727 
  153000    281.56946    -25563.93    121.69924    -25685.63   -5978.5041 
  153200    330.56396   -25536.878    142.87551   -25679.754    2290.6529 
  153400    314.24754   -25557.673    135.82327   -25693.497     2214.421 
  153600    311.40032   -25558.337    134.59265    -25692.93    3190.4326 
  153800    304.85058   -25542.193    131.76174   -25673.954    5262.6679 
  154000    333.98003   -25544.636      144.352   -25688.988    -5007.026 
  154200    276.93181   -25561.985    119.69476    -25681.68   -111.30522 
  154400    305.90803    -25538.18    132.21879   -25670.399    2990.3945 
  154600     313.0909   -25557.074    135.32335   -25692.398   -110.76292 
  154800    295.73424   -25561.223     127.8215   -25689.045    7376.9029 
  155000     312.6023   -25539.729    135.11217   -25674.841    5935.2003 
  155200    286.16649   -25560.071    123.68615   -25683.757   -2498.9387 
  155400    294.15599   -25554.849    127.13936   -25681.988   -6978.1062 
  155600    299.93089    -25539.17    129.63537   -25668.805    -57.35607 
  155800    306.45308    -25569.22    132.45437   -25701.674    2489.8528 
  156000    338.18979    -25548.75    146.17153   -25694.921    7769.2056 
  156200    277.21371   -25559.787    119.81661   -25679.604   -3462.2447 
  156400    274.31963   -25574.457    118.56573   -25693.023    5135.0888 
  156600     314.2801   -25540.039    135.83734   -25675.877   -2082.8241 
  156800    300.09967   -25553.702    129.70832    -25683.41    -4225.416 
  157000    308.82735   -25559.005    133.48057   -25692.486    1219.2996 
  157200    329.26335   -25549.231    142.31337   -25691.544    1651.6609 
  157400    283.35637   -25560.585    122.47157   -25683.057    -441.3208 
  157600    312.42414   -25558.569    135.03517   -25693.604    640.18832 
  157800    318.66174   -25538.594    137.73117   -25676.325    7928.3651 
  158000    284.11948   -25562.554     122.8014   -25685.355    4299.2802 
  158200    274.97259   -25553.537    118.84795   -25672.385    4902.5378 
  158400     309.9262   -25552.717    133.95551   -25686.672    811.99842 
  158600    233.91085   -25584.059    101.10035    -25685.16    3942.5696 
  158800    295.83877   -25557.856    127.86668   -25685.723    11857.114 
  159000    314.52752   -25539.917    135.94428   -25675.861   -2908.2164 
  159200    273.39019   -25568.076    118.16401    -25686.24   -2146.0684 
  159400    289.98774   -25565.003    125.33776   -25690.341    3207.1088 
  159600    315.22727   -25556.245    136.24673   -25692.492    386.33042 
  159800    287.14004   -25561.134    124.10694   -25685.241    3584.1117 
  160000     306.6569   -25531.659    132.54247   -25664.201   -3966.7613 
  160200    290.20059   -25556.386    125.42976   -25681.816   -2212.5847 
  160400    293.79757       -25556    126.98444   -25682.984    -2560.746 
  160600    269.39764   -25562.993    116.43836   -25679.432    1288.7189 
  160800    287.89851   -25561.525    124.43476   -25685.959   -1059.7698 
  161000    323.37228   -25540.372    139.76714   -25680.139    4607.1443 
  161200    273.01268    -25571.27    118.00085   -25689.271    4895.5793 
  161400    278.07186   -25567.951    120.18751   -25688.139   -1569.5534 
  161600    325.80784    -25552.96    140.81983    -25693.78    3455.0266 
  161800    304.35085   -25558.026    131.54575   -25689.572    3601.3836 
  162000    303.54639   -25563.227    131.19805   -25694.425   -1101.4668 
  162200    334.88615   -25545.397    144.74364   -25690.141   -3970.8466 
  162400    302.10233   -25553.434     130.5739   -25684.008    1774.5154 
  162600    299.57447    -25566.75    129.48132   -25696.231    5545.2694 
  162800    300.73896   -25547.661    129.98463   -25677.645   -270.76478 
  163000    287.96857   -25560.331    124.46504   -25684.797    7253.5772 
  163200    277.91667   -25565.385    120.12043   -25685.505    -2550.906 
  163400    313.10708   -25545.069    135.33035   -25680.399     5926.772 
  163600    298.78193   -25557.525    129.13877   -25686.664   -5767.9207 
  163800    305.26638   -25566.405    131.94146   -25698.346   -4219.8394 
  164000    314.46115   -25558.669     135.9156   -25694.584    859.43404 
  164200    298.10346    -25542.61    128.84552   -25671.456    3300.5248 
  164400    266.16906   -25566.717    115.04291    -25681.76   -3625.5772 
  164600     298.5646   -25549.042    129.04483   -25678.087    59.362535 
  164800    258.66427   -25569.731    111.79921    -25681.53   -705.14271 
  165000    297.98038   -25565.261    128.79232   -25694.054   -4222.6523 
  165200    289.10929    -25538.79    124.95808   -25663.748    -3425.267 
  165400    282.92683   -25543.328    122.28592   -25665.614   -4513.7415 
  165600    286.91522   -25560.813    124.00977   -25684.823    3480.1912 
  165800    328.50114   -25540.047    141.98393   -25682.031   -5157.3858 
  166000    282.77713   -25565.811    122.22121   -25688.032    616.15471 
  166200    289.98928   -25549.778    125.33843   -25675.116     6855.233 
  166400    310.12925    -25539.25    134.04327   -25673.294   -8940.4859 
  166600    321.54126   -25553.389    138.97575   -25692.365    8641.7247 
  166800    277.69982    -25558.35    120.02671   -25678.377   -10457.447 
  167000    289.83357   -25563.054    125.27113   -25688.325   -1988.3608 
  167200    310.06906   -25550.227    134.01726   -25684.244   -2267.3087 
  167400    312.41335   -25547.896    135.03051   -25682.926   -1645.3243 
  167600    309.19188   -25568.541    133.63813   -25702.179   -3552.7494 
  167800    312.19478   -25555.883    134.93603   -25690.819    2592.9182 
  168000     290.3224   -25549.904    125.48241   -25675.387   -371.98303 
  168200    339.28672   -25517.659    146.64564   -25664.304     5329.733 
  168400    329.90577    -25550.79    142.59103   -25693.381   -5359.3422 
  168600    272.08227    -25562.45    117.59871   -25680.049   -5527.2131 
  168800    331.82862   -25534.589    143.42212   -25678.011    8506.4185 
  169000    288.78688   -25555.262    124.81873   -25680.081   -6664.4197 
  169200    289.81008    -25559.92    125.26098   -25685.181    850.66208 
  169400    304.60837   -25554.924    131.65705   -25686.581   -803.38458 
  169600     315.0378   -25542.346    136.16484   -25678.511    6348.4679 
  169800    280.84334   -25554.534     121.3854    -25675.92   -3875.5612 
  170000    309.87413   -25560.694    133.93301   -25694.627    7264.2036 
  170200    288.73465   -25547.885    124.79616   -25672.681    593.37979 
  170400    335.57969   -25533.688     145.0434   -25678.732   -4507.7984 
  170600    266.98285    -25562.36    115.39465   -25677.755   -437.02662 
  170800    336.14154   -25540.098    145.28624   -25685.385    2232.8535 
  171000    305.38059   -25567.139    131.99082    -25699.13    1024.8643 
  171200    297.39693   -25564.714    128.54015   -25693.254   -6684.2259 
  171400    312.95191   -25542.098    135.26328   -25677.361    1171.1894 
  171600    275.46042   -25567.634     119.0588   -25686.692   -1583.3021 
  171800    290.55034    -25565.78    125.58093   -25691.361    2711.4846 
  172000    316.27755   -25559.629    136.70068    -25696.33    2606.0894 
  172200    254.89493   -25584.311    110.17004   -25694.481    3980.5376 
  172400    301.58659   -25553.189    130.35099    -25683.54    1301.4916 
  172600    283.74252   -25548.082    122.63847   -25670.721   -1124.9986 
  172800    296.47351    -25528.38    128.14103   -25656.521   -3153.8222 
  173000    313.49312   -25557.963     135.4972    -25693.46   -2786.7581 
  173200    316.92847   -25560.311    136.98202   -25697.293   -3190.5678 
  173400    302.73747    -25539.18    130.84842   -25670.029    2155.9548 
  173600    314.41483   -25542.498    135.89558   -25678.394    -4838.946 
  173800    284.36223   -25559.686    122.90632   -25682.592   -2027.2617 
  174000    291.26552   -25556.529    125.89004   -25682.419    4413.0796 
  174200    314.12868   -25525.758     135.7719    -25661.53   -448.06498 
  174400     311.2251   -25551.425    134.51692   -25685.942   -2870.5735 
  174600    279.15314    -25566.59    120.65486   -25687.245   -5363.9577 
  174800    300.50398   -25539.021    129.88306   -25668.904    914.38701 
  175000    301.43486   -25550.224    130.28541    -25680.51    3821.6609 
  175200    306.48581   -25558.438    132.46852   -25690.906    3220.4232 
  175400      326.528   -25538.864     141.1311   -25679.995   -6696.3322 
  175600    309.16982   -25544.766    133.62859   -25678.395   -4330.3065 
  175800    297.88623   -25554.854    128.75163   -25683.605    5371.2323 
  176000     293.6779   -25549.001    126.93271   -25675.933    -2266.684 
  176200    310.27403   -25549.186    134.10585   -25683.292   -3206.7454 
  176400    270.03602   -25564.911    116.71428   -25681.625    1234.4838 
  176600    326.03118   -25532.518    140.91637   -25673.435    6351.7585 
  176800    296.87012   -25548.547    128.31245   -25676.859   -35.546009 
  177000    253.85002   -25575.581    109.71841   -25685.299    1696.6313 
  177200    292.95321   -25561.899    126.61949   -25688.518   -2950.2653 
  177400    278.60294   -25556.261    120.41705   -25676.678    5.8741408 
  177600    313.03228   -25554.576    135.29801   -25689.874    1109.9943 
  177800    312.09419   -25531.434    134.89256   -25666.326   -5132.2364 
  178000    283.89263    -25551.54    122.70335   -25674.243    9210.9736 
  178200    330.70456   -25541.127    142.93628   -25684.063   -2055.4516 
  178400     319.7949   -25546.075    138.22094   -25684.296    4099.4518 
  178600    267.38528   -25566.778    115.56859   -25682.346   -4638.5383 
  178800    325.10834   -25540.684     140.5175   -25681.202    -1147.054 
  179000    272.09252   -25556.535    117.60314   -25674.138     2770.665 
  179200    274.45501   -25548.954    118.62425   -25667.578   -385.73068 
  179400    302.52839   -25538.992    130.75805    -25669.75     1155.676 
  179600    306.16798   -25559.352    132.33115   -25691.683    3372.2895 
  179800    305.27114   -25557.068    131.94352   -25689.011   -1089.4059 
[...]
  950000     301.3648   -25597.609    130.25513   -25727.865    2375.0482 
  950200    286.90798   -25594.986    124.00664   -25718.992    -2073.482 
  950400     301.1428   -25578.261    130.15918   -25708.421   -4355.8283 
  950600    301.21456   -25595.608    130.19019   -25725.799    3982.2401 
  950800     291.9006   -25575.903    126.16454   -25702.068   -2413.0402 
  951000    282.70589   -25584.382    122.19042   -25706.573    5356.3987 
  951200    295.51989   -25588.564    127.72885   -25716.293    2258.7899 
  951400    334.41251   -25567.697    144.53892   -25712.236   -2676.0243 
  951600    289.84054   -25597.429    125.27414   -25722.704   -5861.9377 
  951800    283.12452     -25587.1    122.37136   -25709.472    5618.3355 
  952000    316.51499   -25570.353     136.8033   -25707.156   -4878.1031 
  952200     291.8742   -25586.497    126.15312    -25712.65    5029.9143 
  952400     322.0962   -25578.412     139.2156   -25717.628     -499.896 
  952600    320.29389   -25582.984    138.43661   -25721.421   -2979.5498 
  952800    266.12873   -25600.399    115.02548   -25715.425    3900.8294 
  953000     344.6897    -25572.92     148.9809   -25721.901    2535.2953 
  953200    290.00673   -25595.687    125.34597   -25721.033     2847.577 
  953400    306.39132   -25585.356    132.42768   -25717.784   -1942.4096 
  953600    322.65295   -25584.027    139.45624   -25723.483    530.15661 
  953800    282.28091   -25603.051    122.00674   -25725.057    4724.2372 
  954000    285.48421   -25582.131    123.39126   -25705.523    2320.9163 
  954200    295.53979   -25583.183    127.73746   -25710.921    349.97698 
  954400    275.69969    -25601.27    119.16222   -25720.432    3846.6895 
  954600    290.58741   -25591.419    125.59695   -25717.016    4436.4978 
  954800    310.43984   -25585.135    134.17752   -25719.313    644.91118 
  955000    301.42901   -25592.454    130.28288   -25722.737   -6264.0696 
  955200    300.53753   -25567.714    129.89757   -25697.612   -6117.8392 
  955400    317.51947   -25586.398    137.23746   -25723.635    845.52224 
  955600    252.30119    -25613.87    109.04898   -25722.919     337.2943 
  955800    286.72448   -25592.584    123.92733   -25716.511     2061.351 
  956000    308.96679   -25579.763    133.54084   -25713.304    1271.6206 
  956200    278.67456   -25603.956    120.44801   -25724.404    4278.0252 
  956400    316.28067   -25585.906    136.70203   -25722.608   -2998.7809 
  956600    314.56982   -25580.261    135.96257   -25716.223   -3583.1824 
  956800    272.42486   -25605.989    117.74678   -25723.736    3156.7291 
  957000    272.54387   -25586.813    117.79822   -25704.611   -4752.0921 
  957200    300.68336   -25589.611     129.9606   -25719.572   -5501.8643 
  957400    291.71536   -25591.863    126.08447   -25717.947   -4439.7876 
  957600     313.5569   -25582.875    135.52477     -25718.4   -2016.4359 
  957800    292.10852   -25586.481     126.2544   -25712.735   -2705.7127 
  958000    285.27272   -25591.348    123.29985   -25714.648   -3319.2641 
  958200    323.48729   -25581.419    139.81685   -25721.236   -1260.3055 
  958400    313.86946   -25574.422    135.65986   -25710.082   -338.72929 
  958600    313.65261   -25589.865    135.56613   -25725.431    1562.3419 
  958800    287.14901   -25593.601    124.11082   -25717.712     6340.776 
  959000     336.8413   -25561.984    145.58869   -25707.573   -6190.1524 
  959200    297.05206   -25586.805    128.39109   -25715.196   -436.86175 
  959400     280.0948   -25591.764    121.06186   -25712.825   -3773.4399 
  959600    338.72347   -25561.979     146.4022   -25708.381    -3841.309 
  959800    282.34467   -25588.952    122.03429   -25710.986    1743.0967 
  960000     284.8297   -25585.134    123.10837   -25708.242   -3643.0364 
  960200    297.50205   -25566.416    128.58558   -25695.001   -1692.8676 
  960400    277.72559   -25597.848    120.03785   -25717.885    -1473.656 
  960600    299.47185    -25579.34    129.43696   -25708.777   -6086.0397 
  960800     311.6497   -25577.466    134.70044   -25712.166    7258.1937 
  961000     285.8602   -25599.877    123.55377   -25723.431   -31.040619 
  961200    328.69555   -25570.152    142.06795    -25712.22     982.5065 
  961400    323.30081   -25582.396    139.73626   -25722.132    1980.4754 
  961600    302.34731    -25595.77    130.67979    -25726.45    456.22828 
  961800    298.20549   -25574.523    128.88962   -25703.413   -590.75043 
  962000    301.83434   -25584.058    130.45807   -25714.516    1233.6721 
  962200    267.93502   -25595.856    115.80619   -25711.662   -2445.3725 
  962400     321.6567   -25579.493    139.02564   -25718.519    2173.4955 
  962600    287.30724   -25584.839     124.1792   -25709.019   -4155.1281 
  962800    292.63224   -25590.394    126.48076   -25716.875    3864.3538 
  963000    285.08464   -25568.404    123.21856   -25691.623   -3031.4079 
  963200     340.9253    -25567.33    147.35386   -25714.684    518.40975 
  963400    301.98108   -25583.253    130.52149   -25713.775   -4948.7888 
  963600    315.34149    -25597.83     136.2961   -25734.127   -5758.3897 
  963800    293.07483   -25606.741    126.67206   -25733.413   -10373.739 
  964000    299.86918   -25578.906    129.60869   -25708.515   -137.11178 
  964200    307.54522   -25592.418    132.92641   -25725.344    259.89823 
  964400    255.00082     -25619.1    110.21581   -25729.315   -2550.9913 
  964600    304.63372   -25595.878    131.66801   -25727.546    2865.8002 
  964800     307.2922   -25579.349    132.81705   -25712.166   -2623.6336 
  965000    304.96678   -25600.425    131.81197   -25732.237   -108.17644 
  965200    289.50524   -25598.542    125.12922   -25723.672    974.08216 
  965400    286.96627   -25587.285    124.03183   -25711.317    5057.4307 
  965600    292.30531   -25588.231    126.33946   -25714.571    2869.5041 
  965800    330.38158     -25564.6    142.79669   -25707.397   -4244.4565 
  966000    297.28506   -25593.077    128.49179   -25721.569   -889.02096 
  966200    279.31245   -25589.955    120.72372   -25710.679    885.37099 
  966400    314.22955   -25567.957     135.8155   -25703.772    5142.4247 
  966600    323.78427   -25580.792    139.94522   -25720.737    1818.0155 
  966800    299.38011   -25599.569    129.39731   -25728.966   -4816.4516 
  967000    276.36652   -25592.214    119.45044   -25711.664   -322.97473 
  967200    294.28644    -25580.11    127.19574   -25707.306    5547.9752 
  967400    269.74844   -25601.214    116.58998   -25717.804    2222.0976 
  967600    315.09035   -25602.618    136.18755   -25738.806    3122.2907 
  967800    298.66694   -25585.673    129.08907   -25714.763   -1477.9443 
  968000    311.75063   -25583.763    134.74407   -25718.507    2159.7573 
  968200    326.30385    -25567.92    141.03422   -25708.954    1592.7212 
  968400    302.40966   -25593.843    130.70674    -25724.55    1635.5294 
  968600    329.05519   -25576.306     142.2234    -25718.53    4688.6479 
  968800    294.63387   -25588.751     127.3459   -25716.097    2567.7172 
  969000    317.04224   -25589.817    137.03119   -25726.849   -2037.2262 
  969200    288.37051   -25598.095    124.63877   -25722.733    1060.6862 
  969400    324.68567   -25563.881    140.33481   -25704.216   -7217.6245 
  969600    303.86681   -25582.583    131.33654   -25713.919     352.5776 
  969800    309.14196   -25592.685    133.61655   -25726.302    3279.4171 
  970000    313.89875   -25573.435    135.67252   -25709.108    4973.0865 
  970200    324.15826   -25579.009    140.10686   -25719.115   -3593.5923 
  970400    299.74515   -25601.958    129.55509   -25731.513    1145.0652 
  970600    284.07179   -25593.481    122.78079   -25716.262   -5239.7617 
  970800    322.58224   -25566.774    139.42568     -25706.2    4062.9143 
  971000    328.11478   -25579.331    141.81693   -25721.148   -2998.4865 
  971200    289.17196    -25600.51    124.98517   -25725.495    -4175.246 
  971400    257.04872   -25603.157    111.10095   -25714.258    7207.8136 
  971600     309.3406   -25572.052    133.70241   -25705.754    2190.1518 
  971800    272.58767   -25597.503    117.81715    -25715.32    -3676.168 
  972000    288.31181   -25589.481     124.6134   -25714.095    1862.9661 
  972200    274.32599   -25577.828    118.56848   -25696.397    6454.5945 
  972400    316.07118   -25567.629    136.61148   -25704.241   -6864.3307 
  972600    318.21694   -25590.695    137.53891   -25728.234   -173.91375 
  972800    284.37873   -25603.703    122.91345   -25726.616     7053.546 
  973000    304.60762   -25588.466    131.65673   -25720.123    611.87227 
  973200    291.11177   -25588.157    125.82359   -25713.981   -398.84374 
  973400    280.73595   -25591.919    121.33898   -25713.258    2856.1284 
  973600    283.32717    -25597.06    122.45895   -25719.519    117.99543 
  973800    316.20661   -25572.269    136.67002   -25708.939    2950.9727 
  974000    339.25614   -25567.607    146.63243    -25714.24    -2994.551 
  974200    293.56842   -25599.618     126.8854   -25726.504   -4896.9689 
  974400    300.07513   -25596.259    129.69771   -25725.957   -2639.6995 
  974600     309.8456   -25571.443    133.92068   -25705.364    2385.0972 
  974800    269.77409   -25604.739    116.60107    -25721.34    1241.0348 
  975000     317.2585   -25579.984    137.12466   -25717.109     1919.506 
  975200    309.23267   -25581.212    133.65576   -25714.867    -4200.441 
  975400    277.17847   -25602.551    119.80137   -25722.352    7015.9802 
  975600    324.00783   -25579.577    140.04184   -25719.619   -4079.1966 
  975800    301.23754    -25601.99    130.20012    -25732.19   -1619.4243 
  976000    303.37941   -25594.023    131.12588   -25725.149   -110.39827 
  976200    296.09154   -25578.205    127.97593   -25706.181   -969.69938 
  976400    254.10265    -25610.49     109.8276   -25720.317   -8013.6843 
  976600    301.83344   -25591.317    130.45768   -25721.775   -8964.7623 
  976800    295.72111   -25584.024    127.81583   -25711.839    7341.1696 
  977000    298.06897   -25584.831    128.83061   -25713.662    1744.5915 
  977200     278.4334   -25586.545    120.34378   -25706.888    322.37372 
  977400    373.13926   -25556.322     161.2773   -25717.599   -1901.2771 
  977600    320.99224   -25576.209    138.73845   -25714.948   -1774.9501 
  977800    284.74215   -25593.764    123.07053   -25716.835    6669.9813 
  978000    282.36798   -25603.274    122.04437   -25725.318   -5573.4284 
  978200    322.10059    -25590.08     139.2175   -25729.298   -2175.0819 
  978400    348.82056   -25572.101    150.76633   -25722.868    2118.4155 
  978600    281.03131   -25585.125    121.46664   -25706.592   -593.49057 
  978800    324.27231   -25579.251    140.15615   -25719.407    2516.8575 
  979000    309.06158   -25586.537    133.58181   -25720.119    10381.557 
  979200    278.43987   -25595.175    120.34657   -25715.522    6810.0934 
  979400    329.03107   -25568.094    142.21297   -25710.307    2244.4352 
  979600    271.49415   -25589.942    117.34451   -25707.286   -1543.5219 
  979800    320.95522   -25593.153    138.72245   -25731.876   -3702.4193 
  980000    302.36368   -25587.163    130.68686   -25717.849      120.285 
  980200    310.88804    -25580.57    134.37124   -25714.942   -5071.7527 
  980400    270.08462   -25601.727    116.73529   -25718.462   -5254.3284 
  980600    294.56993   -25590.256    127.31826   -25717.575    3371.3632 
  980800    287.89999   -25581.435     124.4354    -25705.87    5648.1669 
  981000    348.53713    -25563.15    150.64383   -25713.794    2911.9656 
  981200    279.38982   -25591.688    120.75716   -25712.445    4508.0009 
  981400     304.3201   -25571.827    131.53246   -25703.359    17.624731 
  981600    307.26485   -25596.968    132.80523   -25729.773   -4156.8948 
  981800    311.03523   -25583.725    134.43485    -25718.16    3343.9834 
  982000    314.56224   -25572.789    135.95929   -25708.748   -5056.2599 
  982200    276.24691   -25593.456    119.39873   -25712.855    1023.6104 
  982400    307.08195   -25589.046    132.72618   -25721.773    -4753.727 
  982600    277.10179   -25602.204    119.76823   -25721.972    264.20517 
  982800    295.18292   -25584.686    127.58321   -25712.269    1094.7966 
  983000    299.75452   -25590.536    129.55914   -25720.095    2270.7367 
  983200    285.56695   -25581.837    123.42702   -25705.264     11671.25 
  983400    332.76205   -25571.537    143.82557   -25715.362    1234.6843 
  983600    262.98101   -25597.513    113.66498   -25711.178   -5003.4217 
  983800    315.38609   -25587.322    136.31538   -25723.637   -3781.3752 
  984000    303.06901    -25567.79    130.99172   -25698.781   -5505.8264 
  984200    307.00206    -25576.95    132.69165   -25709.642   -2088.5988 
  984400    298.55818   -25595.215    129.04206   -25724.257   -8840.6965 
  984600    338.84082   -25565.635    146.45292   -25712.088    1212.8405 
  984800    288.48604   -25585.987     124.6887   -25710.676    1549.8101 
  985000    269.87647   -25592.302    116.64532   -25708.947    6089.0917 
  985200    318.57343   -25566.399      137.693   -25704.092   -9380.8473 
  985400    291.92043   -25598.317    126.17311    -25724.49    274.50164 
  985600    295.94849   -25584.283     127.9141   -25712.197   -8415.1344 
  985800    322.20098   -25569.282    139.26089   -25708.543   -1258.4725 
  986000    317.67099   -25586.078    137.30295   -25723.381    3530.4869 
  986200     298.3724   -25591.772    128.96176   -25720.734    543.17634 
  986400    319.48067    -25565.65    138.08512   -25703.735   -2250.7138 
  986600    298.11355   -25580.237    128.84988   -25709.087   -6219.3778 
  986800    297.51287   -25597.222    128.59025   -25725.812   -1406.7162 
  987000    324.43548   -25585.836    140.22668   -25726.062    -4421.937 
  987200    303.53317   -25578.695    131.19233   -25709.887    1493.2841 
  987400    267.98886   -25606.913    115.82946   -25722.742      2475.69 
  987600    265.86692   -25586.281    114.91232   -25701.193    265.41245 
  987800    321.40592   -25572.829    138.91725   -25711.747   -661.83541 
  988000     303.4846   -25596.469    131.17134   -25727.641    560.27818 
  988200     267.4486   -25597.647    115.59595   -25713.243    2319.7459 
  988400    302.04784   -25580.988    130.55035   -25711.538    6292.0511 
  988600    284.72264   -25591.737     123.0621   -25714.799   -3075.4107 
  988800     299.6548   -25596.392    129.51603   -25725.908    2064.2706 
  989000    306.96205   -25575.564    132.67435   -25708.239   -1250.9031 
  989200    297.84469   -25588.497    128.73367   -25717.231    4459.4737 
  989400    277.74452   -25610.819    120.04603   -25730.865    2391.1777 
  989600    269.60622   -25592.115    116.52852   -25708.643    1332.2441 
  989800    309.77178   -25575.329    133.88877   -25709.218    1199.6426 
  990000    275.19758   -25590.166     118.9452   -25709.111    5046.4329 
  990200    283.03348   -25597.809    122.33201   -25720.141    6140.8967 
  990400    281.12427   -25583.995    121.50682   -25705.502   -767.27359 
  990600    295.06929   -25575.595     127.5341   -25703.129   -982.99382 
  990800    301.73586   -25600.638    130.41551   -25731.054   -3347.7044 
  991000    323.60212   -25577.704    139.86649    -25717.57   -2508.1678 
  991200    266.41389   -25589.948    115.14874   -25705.097    3440.2521 
  991400    278.24622   -25597.575    120.26287   -25717.838   -6733.9786 
  991600    327.88774   -25576.706     141.7188   -25718.424   -1735.8408 
  991800    304.88458   -25589.983    131.77644    -25721.76   -73.879863 
  992000    317.00396   -25565.168    137.01464   -25702.182    6425.6598 
  992200    304.31538    -25590.46    131.53042    -25721.99     4360.276 
  992400    303.71885   -25595.867    131.27259   -25727.139    -4863.539 
  992600    305.84999   -25567.592     132.1937   -25699.785   -3584.7198 
  992800    312.86994    -25565.06    135.22785   -25700.288    3054.4582 
  993000    305.13834   -25589.723    131.88612   -25721.609   -4389.7919 
  993200    274.91004   -25604.346    118.82092   -25723.167    2442.0007 
  993400    288.44313   -25586.744    124.67016   -25711.414   -1478.7612 
  993600    309.13673   -25574.094    133.61429   -25707.708   -2782.3774 
  993800    250.71921   -25605.253    108.36522   -25713.618   -1204.3397 
  994000    295.36871   -25587.669    127.66351   -25715.332   -8049.1892 
  994200    291.97927   -25585.422    126.19854   -25711.621    -2479.741 
  994400    278.79009   -25587.921    120.49794   -25708.419   -7552.9963 
  994600    295.51647    -25583.63    127.72738   -25711.358   -10708.575 
  994800     289.4267   -25598.306    125.09527   -25723.401    9186.8636 
  995000    282.07955   -25572.333    121.91971   -25694.252    2359.0239 
  995200    314.29472   -25582.922    135.84367   -25718.766    1415.0973 
  995400    311.58626   -25592.412    134.67302   -25727.085    1201.1447 
  995600    296.04281   -25586.249    127.95487   -25714.203   -4625.3644 
  995800    338.50734   -25563.635    146.30878   -25709.944   -3872.0528 
  996000    305.77992   -25591.465    132.16342   -25723.628    4039.7976 
  996200    306.84402   -25592.923    132.62334   -25725.547    9524.0147 
  996400    308.58626   -25585.428    133.37637   -25718.805    2407.6192 
  996600    301.37628   -25593.386    130.26009   -25723.646    6536.5861 
  996800    270.10424    -25606.38    116.74377   -25723.124   -1403.9197 
  997000    316.58316   -25581.132    136.83277   -25717.965    1189.6706 
  997200    286.51068   -25596.123    123.83492   -25719.958   -1732.9742 
  997400    320.21297   -25565.678    138.40164   -25704.079    1357.9597 
  997600    296.29829   -25589.044    128.06529   -25717.109    5634.1064 
  997800    293.64493   -25599.057    126.91846   -25725.975   -5331.6057 
  998000    261.41499   -25613.324    112.98812   -25726.313    4125.8172 
  998200    306.93732   -25585.983    132.66367   -25718.647    6027.8227 
  998400    279.81615   -25593.145    120.94143   -25714.086    1507.9739 
  998600    290.81592   -25603.418    125.69572   -25729.114   -2579.5253 
  998800    317.21899   -25570.034    137.10759   -25707.141    1762.9703 
  999000     294.6592   -25586.039    127.35685   -25713.396   -8468.0082 
  999200     288.7397   -25599.884    124.79834   -25724.682    3679.3315 
  999400    306.24292   -25581.493    132.36354   -25713.857   -1396.8368 
  999600    293.43322    -25599.53    126.82696   -25726.357   -6594.6609 
  999800    309.99327   -25597.879     133.9845   -25731.863    -361.5294 
 1000000    306.52029   -25583.123    132.48342   -25715.606    3578.9382 
Loop time of 3161.6 on 8 procs for 1000000 steps with 146 atoms

Performance: 6.832 ns/day, 3.513 hours/ns, 316.296 timesteps/s
99.4% CPU use with 8 MPI tasks x no OpenMP threads

MPI task timing breakdown:
Section |  min time  |  avg time  |  max time  |%varavg| %total
---------------------------------------------------------------
Pair    | 1402.3     | 1746.2     | 2707.1     |1303.2 | 55.23
Neigh   | 2.0785     | 2.1969     | 2.5013     |  11.5 |  0.07
Comm    | 26.765     | 986.62     | 1328.5     |1731.1 | 31.21
Output  | 0.11944    | 0.12722    | 0.17538    |   5.1 |  0.00
Modify  | 421.63     | 423.5      | 426.98     |   8.0 | 13.40
Other   |            | 2.906      |            |       |  0.09

Nlocal:    18.25 ave 68 max 0 min
Histogram: 6 0 0 0 0 0 0 0 0 2
Nghost:    618.75 ave 682 max 580 min
Histogram: 1 2 2 1 0 0 0 0 1 1
Neighs:    1229.62 ave 4398 max 0 min
Histogram: 6 0 0 0 0 0 0 0 0 2

Total # of neighbors = 9837
Ave neighs/atom = 67.3767
Neighbor list builds = 3192
Dangerous builds = 0

unfix 1
unfix output
undump 1

Please see the log.cite file for references relevant to this simulation

Total wall time: 0:52:45
