ITEM: TIMESTEP
0
ITEM: NUMBER OF ATOMS
146
ITEM: BOX BOUNDS pp pp pp
0.0000000000000000e+00 2.1884000000000000e+01
0.0000000000000000e+00 2.1885999999999999e+01
0.0000000000000000e+00 2.1885000000000002e+01
ITEM: ATOMS id type x y z 
145 2 5.811 10.86 12.218 
146 3 5.811 9.884 12.218 
9 1 8.524 12.547 12.547 
10 1 1.604 19.466 19.466 
11 1 1.605 19.466 12.547 
12 1 8.524 12.547 19.466 
13 1 1.605 12.547 19.466 
14 1 8.524 19.467 12.547 
15 1 8.524 19.467 19.466 
16 1 1.605 12.547 12.547 
25 1 10.105 10.965 10.965 
26 1 0.023 21.047 21.049 
27 1 0.023 21.047 10.964 
28 1 10.106 10.965 21.047 
29 1 0.023 10.966 21.048 
30 1 10.106 21.049 10.966 
31 1 10.106 21.048 21.049 
32 1 0.024 10.965 10.965 
57 1 5.811 12.218 12.218 
58 1 4.317 19.796 19.795 
59 1 4.318 19.795 12.218 
60 1 5.811 12.219 19.795 
61 1 4.318 12.218 19.795 
62 1 5.811 19.795 12.218 
63 1 5.811 19.796 19.795 
64 1 4.318 12.218 12.218 
65 1 8.853 15.26 12.218 
66 1 1.276 16.754 19.795 
67 1 8.853 16.754 19.795 
68 1 1.276 15.26 12.218 
69 1 1.276 16.754 12.218 
70 1 8.853 15.26 19.796 
71 1 1.276 15.26 19.795 
72 1 8.853 16.753 12.218 
73 1 8.853 12.219 15.26 
74 1 1.276 19.795 16.753 
75 1 1.276 12.218 16.754 
76 1 8.853 19.796 15.26 
77 1 8.853 19.796 16.753 
78 1 1.276 12.218 15.26 
79 1 1.276 19.795 15.26 
80 1 8.853 12.219 16.754 
105 1 7.01 12.317 12.317 
106 1 3.118 19.696 19.696 
107 1 3.119 19.696 12.317 
108 1 7.011 12.317 19.696 
109 1 3.119 12.317 19.696 
110 1 7.01 19.696 12.317 
111 1 7.01 19.697 19.696 
112 1 3.118 12.317 12.317 
113 1 8.754 14.061 12.317 
114 1 1.375 17.953 19.696 
115 1 8.754 17.953 19.696 
116 1 1.375 14.061 12.317 
117 1 1.375 17.953 12.317 
118 1 8.754 14.061 19.696 
119 1 1.375 14.061 19.696 
120 1 8.754 17.953 12.317 
121 1 8.754 12.317 14.061 
122 1 1.375 19.696 17.952 
123 1 1.375 12.317 17.953 
124 1 8.754 19.697 14.061 
125 1 8.754 19.697 17.952 
126 1 1.375 12.317 14.061 
127 1 1.375 19.696 14.061 
128 1 8.754 12.318 17.953 
137 1 9.407 11.664 11.664 
138 1 0.721 20.349 20.35 
139 1 0.721 20.349 11.663 
140 1 9.408 11.664 20.349 
141 1 0.721 11.664 20.35 
142 1 9.407 20.35 11.664 
143 1 9.407 20.35 20.35 
144 1 0.722 11.664 11.663 
1 1 19.466 1.604 1.604 
2 1 12.547 8.524 8.524 
3 1 12.546 8.524 1.604 
4 1 19.466 1.605 8.524 
5 1 12.547 1.604 8.524 
6 1 19.466 8.524 1.605 
7 1 19.466 8.524 8.524 
8 1 12.547 1.604 1.605 
17 1 21.048 0.023 0.022 
18 1 10.965 10.106 10.106 
19 1 10.965 10.106 0.024 
20 1 21.048 0.024 10.107 
21 1 10.965 0.022 10.105 
22 1 21.048 10.105 0.023 
23 1 21.047 10.106 10.106 
24 1 10.965 0.023 0.022 
33 1 16.753 1.275 1.276 
34 1 15.26 8.853 8.853 
35 1 15.26 8.852 1.276 
36 1 16.753 1.275 8.853 
37 1 15.26 1.275 8.853 
38 1 16.753 8.852 1.276 
39 1 16.753 8.853 8.853 
40 1 15.26 1.275 1.276 
41 1 19.795 4.317 1.276 
42 1 12.218 5.811 8.853 
43 1 19.795 5.811 8.853 
44 1 12.218 4.317 1.276 
45 1 12.218 5.811 1.275 
46 1 19.795 4.317 8.853 
47 1 12.218 4.317 8.853 
48 1 19.795 5.811 1.276 
49 1 19.795 1.275 4.317 
50 1 12.218 8.852 5.811 
51 1 12.218 1.276 5.811 
52 1 19.795 8.853 4.318 
53 1 19.795 8.853 5.811 
54 1 12.218 1.275 4.318 
55 1 12.218 8.852 4.317 
56 1 19.795 1.275 5.811 
81 1 17.952 1.374 1.375 
82 1 14.061 8.754 8.754 
83 1 14.06 8.753 1.375 
84 1 17.952 1.374 8.754 
85 1 14.06 1.374 8.754 
86 1 17.952 8.754 1.375 
87 1 17.952 8.754 8.754 
88 1 14.061 1.374 1.375 
89 1 19.696 3.118 1.375 
90 1 12.317 7.01 8.754 
91 1 19.696 7.01 8.754 
92 1 12.317 3.118 1.375 
93 1 12.317 7.01 1.374 
94 1 19.695 3.118 8.754 
95 1 12.317 3.118 8.754 
96 1 19.696 7.01 1.375 
97 1 19.696 1.374 3.118 
98 1 12.317 8.754 7.01 
99 1 12.317 1.375 7.01 
100 1 19.696 8.754 3.118 
101 1 19.696 8.754 7.01 
102 1 12.317 1.374 3.119 
103 1 12.317 8.753 3.118 
104 1 19.696 1.374 7.01 
129 1 20.35 0.722 0.721 
130 1 11.664 9.407 9.407 
131 1 11.663 9.407 0.722 
132 1 20.35 0.722 9.408 
133 1 11.663 0.72 9.407 
134 1 20.35 9.407 0.721 
135 1 20.349 9.407 9.407 
136 1 11.664 0.721 0.721 
ITEM: TIMESTEP
10
ITEM: NUMBER OF ATOMS
146
ITEM: BOX BOUNDS pp pp pp
0.0000000000000000e+00 2.1884000000000000e+01
0.0000000000000000e+00 2.1885999999999999e+01
0.0000000000000000e+00 2.1885000000000002e+01
ITEM: ATOMS id type x y z 
145 2 5.80967 10.8363 12.2159 
146 3 5.81052 9.86866 12.2183 
9 1 8.49146 12.5501 12.5439 
10 1 1.61138 19.459 19.4588 
11 1 1.61213 19.4589 12.5543 
12 1 8.51701 12.5547 19.4596 
13 1 1.61222 12.5545 19.459 
14 1 8.51648 19.4598 12.5544 
15 1 8.51657 19.4597 19.4588 
16 1 1.6018 12.555 12.5546 
25 1 10.1075 10.9631 10.9633 
26 1 0.0216591 21.0483 21.0502 
27 1 0.0216295 21.0483 10.9631 
28 1 10.1076 10.9638 21.0485 
29 1 0.0216048 10.9647 21.0494 
30 1 10.1069 21.0498 10.9646 
31 1 10.1067 21.0492 21.0499 
32 1 0.0223337 10.9635 10.9631 
57 1 5.84777 12.2285 12.1921 
58 1 4.30903 19.7947 19.7939 
59 1 4.30961 19.7938 12.2191 
60 1 5.81909 12.22 19.7938 
61 1 4.30965 12.2193 19.7938 
62 1 5.81941 19.7938 12.2192 
63 1 5.81915 19.7948 19.7938 
64 1 4.28533 12.2282 12.2245 
65 1 8.85238 15.2546 12.219 
66 1 1.27721 16.7617 19.7938 
67 1 8.85174 16.7622 19.7939 
68 1 1.27715 15.2544 12.2189 
69 1 1.27711 16.7616 12.2192 
70 1 8.85192 15.2524 19.7946 
71 1 1.2772 15.2519 19.7938 
72 1 8.85184 16.762 12.2191 
73 1 8.85212 12.22 15.2526 
74 1 1.27718 19.7939 16.7613 
75 1 1.27712 12.2192 16.7618 
76 1 8.85182 19.7949 15.2516 
77 1 8.85183 19.7948 16.7616 
78 1 1.27716 12.2188 15.2544 
79 1 1.27715 19.7938 15.2516 
80 1 8.85194 12.2201 16.7623 
105 1 7.06058 12.3368 12.3492 
106 1 3.12082 19.6965 19.6964 
107 1 3.12113 19.6963 12.3167 
108 1 7.00803 12.3166 19.6966 
109 1 3.12147 12.3166 19.6964 
110 1 7.00803 19.6965 12.3168 
111 1 7.00748 19.6973 19.6963 
112 1 3.10025 12.3174 12.3169 
113 1 8.75383 14.0653 12.3155 
114 1 1.37449 17.9501 19.6964 
115 1 8.75432 17.9505 19.6963 
116 1 1.37417 14.0645 12.3161 
117 1 1.37461 17.9506 12.3166 
118 1 8.7544 14.0636 19.6966 
119 1 1.37462 14.0637 19.6964 
120 1 8.75447 17.9506 12.3165 
121 1 8.75436 12.3159 14.0647 
122 1 1.37454 19.6963 17.9498 
123 1 1.37459 12.3166 17.9506 
124 1 8.75423 19.6974 14.063 
125 1 8.75429 19.6973 17.95 
126 1 1.37416 12.3161 14.0645 
127 1 1.37465 19.6963 14.0631 
128 1 8.75459 12.3174 17.9507 
137 1 9.41135 11.6582 11.6582 
138 1 0.716923 20.3533 20.3542 
139 1 0.717293 20.3532 11.6587 
140 1 9.41203 11.6593 20.3533 
141 1 0.717261 11.6598 20.3538 
142 1 9.4115 20.3546 11.6601 
143 1 9.41156 20.354 20.3541 
144 1 0.71733 11.6591 11.6589 
1 1 19.4589 1.61145 1.61146 
2 1 12.5544 8.51668 8.51672 
3 1 12.5533 8.5164 1.61164 
4 1 19.4586 1.61191 8.51662 
5 1 12.5539 1.61138 8.51649 
6 1 19.4586 8.5165 1.6119 
7 1 19.4587 8.51652 8.51657 
8 1 12.5545 1.61127 1.61222 
17 1 21.0493 0.0220018 0.0211691 
18 1 10.9646 10.1063 10.1064 
19 1 10.9633 10.1073 0.0224267 
20 1 21.0493 0.0227977 10.1078 
21 1 10.9637 0.0206177 10.1063 
22 1 21.0493 10.1062 0.021733 
23 1 21.0483 10.1068 10.1068 
24 1 10.9643 0.0218007 0.0210833 
33 1 16.7615 1.27615 1.2772 
34 1 15.2515 8.85183 8.85182 
35 1 15.2514 8.85077 1.2772 
36 1 16.7613 1.27616 8.85179 
37 1 15.2515 1.2762 8.85181 
38 1 16.7613 8.85094 1.27721 
39 1 16.7616 8.85182 8.85183 
40 1 15.2515 1.27618 1.27717 
41 1 19.7938 4.30893 1.27724 
42 1 12.2192 5.81916 8.85178 
43 1 19.7938 5.81915 8.85177 
44 1 12.2192 4.30881 1.27715 
45 1 12.2192 5.81873 1.27623 
46 1 19.7937 4.30915 8.85187 
47 1 12.2192 4.30903 8.8518 
48 1 19.7938 5.81892 1.27719 
49 1 19.7938 1.27621 4.30893 
50 1 12.2193 8.85091 5.81916 
51 1 12.2191 1.27713 5.81926 
52 1 19.7938 8.85181 4.30958 
53 1 19.7938 8.8518 5.81946 
54 1 12.2192 1.27624 4.30943 
55 1 12.2192 8.85077 4.3092 
56 1 19.7938 1.27618 5.81908 
81 1 17.9498 1.37369 1.37458 
82 1 14.0631 8.75432 8.7543 
83 1 14.0631 8.75359 1.37442 
84 1 17.9497 1.37374 8.75436 
85 1 14.0631 1.37349 8.7545 
86 1 17.95 8.75414 1.37454 
87 1 17.9499 8.75428 8.75431 
88 1 14.0631 1.37372 1.3747 
89 1 19.6963 3.12068 1.37457 
90 1 12.3166 7.0074 8.75434 
91 1 19.6963 7.00731 8.75436 
92 1 12.3167 3.12052 1.37471 
93 1 12.3164 7.00744 1.3736 
94 1 19.6956 3.1208 8.75431 
95 1 12.3166 3.12044 8.75431 
96 1 19.6963 7.00763 1.37458 
97 1 19.6964 1.37363 3.12063 
98 1 12.3166 8.75421 7.00748 
99 1 12.3166 1.3747 7.00808 
100 1 19.6965 8.75449 3.12102 
101 1 19.6964 8.75435 7.0075 
102 1 12.3167 1.37366 3.12106 
103 1 12.3164 8.75341 3.12057 
104 1 19.6964 1.37373 7.00747 
129 1 20.3538 0.71733 0.716515 
130 1 11.6599 9.41108 9.41085 
131 1 11.659 9.41157 0.717499 
132 1 20.3537 0.717796 9.41229 
133 1 11.6591 0.716234 9.41122 
134 1 20.3537 9.41123 0.71708 
135 1 20.3528 9.41145 9.41143 
136 1 11.6594 0.716971 0.716918 
ITEM: TIMESTEP
20
ITEM: NUMBER OF ATOMS
146
ITEM: BOX BOUNDS pp pp pp
0.0000000000000000e+00 2.1884000000000000e+01
0.0000000000000000e+00 2.1885999999999999e+01
0.0000000000000000e+00 2.1885000000000002e+01
ITEM: ATOMS id type x y z 
145 2 5.8087 10.7817 12.2113 
146 3 5.80623 9.83255 12.2209 
9 1 8.49143 12.5496 12.5573 
10 1 1.61633 19.4542 19.4542 
11 1 1.61676 19.4537 12.5589 
12 1 8.51238 12.5594 19.4562 
13 1 1.61688 12.559 19.4541 
14 1 8.51195 19.4564 12.5592 
15 1 8.51179 19.4548 19.4541 
16 1 1.58064 12.5617 12.5611 
25 1 10.1099 10.9618 10.9618 
26 1 0.0223028 21.0479 21.0493 
27 1 0.0222125 21.0479 10.9639 
28 1 10.1066 10.9648 21.0475 
29 1 0.0225369 10.9654 21.0487 
30 1 10.106 21.0492 10.9654 
31 1 10.1061 21.0487 21.0491 
32 1 0.0216892 10.9619 10.9616 
57 1 5.86195 12.2666 12.1737 
58 1 4.3111 19.7934 19.7928 
59 1 4.31107 19.7927 12.2203 
60 1 5.81717 12.2208 19.7926 
61 1 4.31171 12.2204 19.7928 
62 1 5.81723 19.7928 12.2202 
63 1 5.81718 19.7937 19.7926 
64 1 4.28919 12.2436 12.2328 
65 1 8.85357 15.2596 12.2196 
66 1 1.2783 16.7599 19.7927 
67 1 8.85062 16.7604 19.7928 
68 1 1.27903 15.2594 12.2184 
69 1 1.2779 16.7618 12.2202 
70 1 8.85091 15.2546 19.7933 
71 1 1.27824 15.2546 19.7928 
72 1 8.85144 16.7652 12.2196 
73 1 8.85338 12.2206 15.2592 
74 1 1.27826 19.7927 16.7594 
75 1 1.27791 12.2203 16.7618 
76 1 8.85073 19.7938 15.2538 
77 1 8.85072 19.7937 16.7599 
78 1 1.27909 12.2184 15.2593 
79 1 1.27829 19.7927 15.2533 
80 1 8.85137 12.2207 16.764 
105 1 7.06357 12.3769 12.349 
106 1 3.12211 19.6957 19.6953 
107 1 3.12259 19.6954 12.3176 
108 1 7.00646 12.3178 19.696 
109 1 3.12247 12.3176 19.6955 
110 1 7.00634 19.6958 12.3176 
111 1 7.00624 19.6963 19.6953 
112 1 3.10616 12.3149 12.3169 
113 1 8.7522 14.0714 12.3121 
114 1 1.37546 17.9489 19.6954 
115 1 8.75326 17.9493 19.6953 
116 1 1.3715 14.0694 12.3162 
117 1 1.37569 17.9511 12.3179 
118 1 8.75347 14.0653 19.6961 
119 1 1.37561 14.0644 19.6954 
120 1 8.75314 17.9543 12.3177 
121 1 8.75273 12.3125 14.0707 
122 1 1.37547 19.6954 17.9486 
123 1 1.37563 12.3179 17.9509 
124 1 8.75344 19.6966 14.0649 
125 1 8.75328 19.6963 17.949 
126 1 1.3715 12.3162 14.0695 
127 1 1.37555 19.6955 14.0648 
128 1 8.75351 12.3183 17.953 
137 1 9.41039 11.6542 11.6546 
138 1 0.717221 20.3532 20.354 
139 1 0.717523 20.3533 11.6587 
140 1 9.41169 11.6596 20.3536 
141 1 0.71729 11.6599 20.3537 
142 1 9.41158 20.3543 11.6599 
143 1 9.41139 20.3538 20.3538 
144 1 0.714275 11.6589 11.6585 
1 1 19.4542 1.61633 1.61642 
2 1 12.5594 8.51143 8.51159 
3 1 12.5584 8.51158 1.61643 
4 1 19.454 1.61663 8.51183 
5 1 12.5587 1.61612 8.51191 
6 1 19.4541 8.51172 1.61667 
7 1 19.454 8.51181 8.512 
8 1 12.5591 1.61614 1.61688 
17 1 21.0488 0.0225999 0.0220042 
18 1 10.9679 10.1031 10.1034 
19 1 10.9645 10.1061 0.023367 
20 1 21.0486 0.0233742 10.1069 
21 1 10.9648 0.021824 10.1052 
22 1 21.0482 10.1053 0.0226114 
23 1 21.0471 10.1055 10.1056 
24 1 10.9649 0.02228 0.0218242 
33 1 16.7596 1.27726 1.27834 
34 1 15.2536 8.85075 8.85075 
35 1 15.2532 8.84964 1.27835 
36 1 16.7595 1.2773 8.85066 
37 1 15.2534 1.27729 8.85069 
38 1 16.7594 8.8499 1.27837 
39 1 16.7593 8.85076 8.85076 
40 1 15.2534 1.27729 1.2783 
41 1 19.7927 4.31096 1.27837 
42 1 12.2203 5.81693 8.8507 
43 1 19.7927 5.81724 8.85066 
44 1 12.2204 4.31079 1.2782 
45 1 12.2203 5.81698 1.27744 
46 1 19.7924 4.31106 8.85079 
47 1 12.2203 4.31082 8.85066 
48 1 19.7926 5.81718 1.27833 
49 1 19.7926 1.27731 4.31097 
50 1 12.2204 8.84994 5.81695 
51 1 12.2203 1.27821 5.81752 
52 1 19.7927 8.85071 4.31112 
53 1 19.7927 8.85074 5.81718 
54 1 12.2203 1.27742 4.31137 
55 1 12.2203 8.84962 4.31087 
56 1 19.7926 1.27734 5.81723 
81 1 17.9486 1.37473 1.37552 
82 1 14.0647 8.75337 8.75334 
83 1 14.0643 8.75262 1.3754 
84 1 17.9484 1.37478 8.75335 
85 1 14.0644 1.37453 8.75349 
86 1 17.9484 8.7531 1.37545 
87 1 17.9488 8.7533 8.75333 
88 1 14.0644 1.37473 1.37567 
89 1 19.6953 3.12193 1.37553 
90 1 12.3176 7.00582 8.75337 
91 1 19.6954 7.00554 8.75343 
92 1 12.3177 3.12174 1.37574 
93 1 12.3173 7.00594 1.37454 
94 1 19.6947 3.12198 8.75323 
95 1 12.3175 3.12175 8.75338 
96 1 19.6953 7.00616 1.37553 
97 1 19.6954 1.37466 3.12193 
98 1 12.3176 8.75313 7.00594 
99 1 12.3176 1.37557 7.00659 
100 1 19.6955 8.75348 3.12223 
101 1 19.6954 8.75337 7.00646 
102 1 12.3177 1.37465 3.12224 
103 1 12.3174 8.75248 3.12198 
104 1 19.6954 1.37477 7.00615 
129 1 20.3533 0.71731 0.716655 
130 1 11.6626 9.40832 9.40794 
131 1 11.6594 9.41131 0.717675 
132 1 20.3532 0.717868 9.41199 
133 1 11.6595 0.716568 9.41093 
134 1 20.3535 9.41099 0.717436 
135 1 20.352 9.41047 9.41008 
136 1 11.6596 0.717127 0.717153 
ITEM: TIMESTEP
30
ITEM: NUMBER OF ATOMS
146
ITEM: BOX BOUNDS pp pp pp
0.0000000000000000e+00 2.1884000000000000e+01
0.0000000000000000e+00 2.1885999999999999e+01
0.0000000000000000e+00 2.1885000000000002e+01
ITEM: ATOMS id type x y z 
145 2 5.80874 10.6536 12.2103 
146 3 5.80086 9.77396 12.2242 
9 1 8.50203 12.5525 12.565 
10 1 1.61886 19.4518 19.4516 
11 1 1.61873 19.4529 12.5605 
12 1 8.50977 12.5621 19.4564 
13 1 1.62079 12.5635 19.4519 
14 1 8.50879 19.4571 12.5622 
15 1 8.50927 19.4525 19.452 
16 1 1.58582 12.566 12.5658 
25 1 10.1099 10.9618 10.961 
26 1 0.0223722 21.0479 21.049 
27 1 0.0222822 21.0483 10.9637 
28 1 10.1078 10.9635 21.0487 
29 1 0.0215399 10.9644 21.0496 
30 1 10.1075 21.0502 10.9638 
31 1 10.106 21.0487 21.049 
32 1 0.021766 10.961 10.9608 
57 1 5.85897 12.4148 12.1578 
58 1 4.31162 19.7925 19.7919 
59 1 4.3156 19.7924 12.2206 
60 1 5.81503 12.2212 19.7919 
61 1 4.3031 12.222 19.7912 
62 1 5.81925 19.7917 12.221 
63 1 5.81639 19.7928 19.7918 
64 1 4.28298 12.2589 12.2363 
65 1 8.85265 15.2594 12.2184 
66 1 1.27904 16.7592 19.792 
67 1 8.84986 16.7596 19.792 
68 1 1.28079 15.2564 12.2185 
69 1 1.27853 16.7606 12.2204 
70 1 8.85025 15.2564 19.7924 
71 1 1.27987 15.2455 19.7912 
72 1 8.85185 16.7656 12.22 
73 1 8.85336 12.2193 15.2621 
74 1 1.27912 19.7919 16.76 
75 1 1.27957 12.2214 16.7727 
76 1 8.84999 19.7927 15.2532 
77 1 8.84996 19.793 16.7587 
78 1 1.28087 12.2185 15.2554 
79 1 1.2787 19.7923 15.2583 
80 1 8.85192 12.2209 16.7652 
105 1 7.05333 12.4047 12.3419 
106 1 3.12277 19.6943 19.6939 
107 1 3.11917 19.694 12.319 
108 1 7.00628 12.3191 19.695 
109 1 3.13014 12.3185 19.6947 
110 1 7.00336 19.6951 12.3185 
111 1 7.00572 19.6949 19.6939 
112 1 3.11609 12.3139 12.3242 
113 1 8.75269 14.0749 12.3124 
114 1 1.377 17.9492 19.6939 
115 1 8.75169 17.9497 19.6938 
116 1 1.36918 14.0693 12.3179 
117 1 1.37681 17.9535 12.3194 
118 1 8.75228 14.0662 19.6952 
119 1 1.37648 14.0727 19.6948 
120 1 8.75197 17.9577 12.319 
121 1 8.75226 12.3106 14.0741 
122 1 1.3769 19.694 17.9481 
123 1 1.37611 12.3187 17.9435 
124 1 8.75249 19.6959 14.0678 
125 1 8.75173 19.6947 17.9499 
126 1 1.36908 12.3181 14.0691 
127 1 1.37686 19.6941 14.0621 
128 1 8.75199 12.3198 17.9587 
137 1 9.40889 11.6511 11.6541 
138 1 0.718176 20.3525 20.3533 
139 1 0.718036 20.3527 11.6599 
140 1 9.40991 11.6614 20.3525 
141 1 0.719268 11.6614 20.3521 
142 1 9.40948 20.3533 11.6618 
143 1 9.41066 20.3531 20.3529 
144 1 0.712494 11.6611 11.6607 
1 1 19.4515 1.61845 1.61881 
2 1 12.5627 8.50853 8.50876 
3 1 12.5617 8.5088 1.61908 
4 1 19.4514 1.61913 8.50925 
5 1 12.5624 1.61992 8.50836 
6 1 19.4502 8.50787 1.62011 
7 1 19.452 8.50893 8.51015 
8 1 12.5616 1.61885 1.61889 
17 1 21.0483 0.0225496 0.0219626 
18 1 10.9695 10.1018 10.1018 
19 1 10.964 10.1065 0.0226186 
20 1 21.0482 0.0233709 10.1067 
21 1 10.964 0.0211226 10.1061 
22 1 21.0489 10.1061 0.0219034 
23 1 21.0469 10.1049 10.1051 
24 1 10.965 0.0222855 0.0219943 
33 1 16.7585 1.27813 1.27918 
34 1 15.255 8.8501 8.85009 
35 1 15.2504 8.84847 1.2795 
36 1 16.759 1.27821 8.84977 
37 1 15.2469 1.27877 8.8492 
38 1 16.7663 8.84842 1.2799 
39 1 16.7563 8.85021 8.8502 
40 1 15.2542 1.27816 1.2792 
41 1 19.792 4.3137 1.27907 
42 1 12.2208 5.81293 8.85021 
43 1 19.792 5.81508 8.85001 
44 1 12.2213 4.31068 1.27909 
45 1 12.2211 5.81673 1.27837 
46 1 19.7915 4.31045 8.84985 
47 1 12.2218 4.30352 8.84919 
48 1 19.7911 5.82441 1.27988 
49 1 19.7918 1.27816 4.31215 
50 1 12.2208 8.84959 5.81204 
51 1 12.2217 1.27966 5.82388 
52 1 19.7912 8.84924 4.30421 
53 1 19.7922 8.85022 5.81276 
54 1 12.221 1.27819 4.31379 
55 1 12.2213 8.8485 4.30803 
56 1 19.7917 1.27831 5.81747 
81 1 17.9484 1.37622 1.37697 
82 1 14.0652 8.75189 8.75188 
83 1 14.0681 8.75142 1.37635 
84 1 17.9477 1.3763 8.75185 
85 1 14.0708 1.37563 8.75244 
86 1 17.942 8.75194 1.37649 
87 1 17.9505 8.75185 8.75178 
88 1 14.0648 1.37622 1.37712 
89 1 19.6938 3.12083 1.37705 
90 1 12.3191 7.00676 8.7518 
91 1 19.694 7.00644 8.75192 
92 1 12.3192 3.1226 1.37716 
93 1 12.3188 7.00527 1.376 
94 1 19.6933 3.12282 8.75177 
95 1 12.3186 3.12789 8.75235 
96 1 19.6943 6.99925 1.37651 
97 1 19.6939 1.37617 3.12205 
98 1 12.3191 8.75147 7.00767 
99 1 12.3186 1.37653 7.00016 
100 1 19.6945 8.75246 3.1288 
101 1 19.6938 8.75187 7.00835 
102 1 12.3192 1.37618 3.12128 
103 1 12.3184 8.7513 3.12525 
104 1 19.6939 1.37625 7.00496 
129 1 20.3529 0.718127 0.718014 
130 1 11.6644 9.40666 9.40696 
131 1 11.6616 9.40934 0.719713 
132 1 20.3524 0.718613 9.41068 
133 1 11.662 0.718926 9.40865 
134 1 20.3513 9.40898 0.719448 
135 1 20.3504 9.40875 9.40815 
136 1 11.6604 0.717924 0.718186 
ITEM: TIMESTEP
40
ITEM: NUMBER OF ATOMS
146
ITEM: BOX BOUNDS pp pp pp
0.0000000000000000e+00 2.1884000000000000e+01
0.0000000000000000e+00 2.1885999999999999e+01
0.0000000000000000e+00 2.1885000000000002e+01
ITEM: ATOMS id type x y z 
145 2 5.80808 10.598 12.211 
146 3 5.79929 9.71799 12.226 
9 1 8.53607 12.5547 12.5656 
10 1 1.61878 19.4526 19.4523 
11 1 1.61832 19.4539 12.5616 
12 1 8.50986 12.5625 19.4583 
13 1 1.61769 12.5603 19.4556 
14 1 8.50937 19.4586 12.5622 
15 1 8.50984 19.4528 19.4524 
16 1 1.59328 12.5637 12.5619 
25 1 10.1095 10.9609 10.9605 
26 1 0.0230022 21.0475 21.0486 
27 1 0.0226739 21.0478 10.9643 
28 1 10.1069 10.9641 21.048 
29 1 0.0228894 10.9654 21.0482 
30 1 10.1066 21.0491 10.9645 
31 1 10.1056 21.0482 21.0483 
32 1 0.0223573 10.9615 10.9614 
57 1 5.82448 12.4978 12.1665 
58 1 4.31433 19.792 19.7915 
59 1 4.31412 19.7916 12.2213 
60 1 5.81323 12.2216 19.7914 
61 1 4.31677 12.2214 19.7916 
62 1 5.81389 19.7914 12.221 
63 1 5.81412 19.7923 19.7913 
64 1 4.30775 12.2763 12.2258 
65 1 8.85164 15.2639 12.2175 
66 1 1.27966 16.7574 19.7914 
67 1 8.8494 16.7586 19.7915 
68 1 1.28065 15.2626 12.2189 
69 1 1.27955 16.7595 12.2209 
70 1 8.84984 15.2579 19.7919 
71 1 1.27944 15.259 19.7915 
72 1 8.85164 16.7647 12.2204 
73 1 8.85241 12.218 15.2681 
74 1 1.27954 19.7914 16.7576 
75 1 1.27945 12.2207 16.7567 
76 1 8.84984 19.7923 15.2572 
77 1 8.84941 19.7924 16.7582 
78 1 1.28069 12.2189 15.2628 
79 1 1.27947 19.7914 15.2558 
80 1 8.85182 12.2213 16.7643 
105 1 7.00993 12.4187 12.3324 
106 1 3.12414 19.6937 19.6934 
107 1 3.12512 19.6941 12.319 
108 1 7.00255 12.3195 19.695 
109 1 3.12492 12.3193 19.6943 
110 1 7.00279 19.695 12.3191 
111 1 7.00393 19.6943 19.6933 
112 1 3.12937 12.3125 12.3299 
113 1 8.75472 14.0763 12.3134 
114 1 1.37728 17.9449 19.6936 
115 1 8.7511 17.9475 19.6933 
116 1 1.36869 14.0703 12.3182 
117 1 1.37674 17.948 12.3195 
118 1 8.75187 14.0691 19.6951 
119 1 1.37706 14.0693 19.6944 
120 1 8.75209 17.9538 12.3192 
121 1 8.75359 12.3103 14.0772 
122 1 1.37739 19.6935 17.9461 
123 1 1.37655 12.3193 17.9476 
124 1 8.7519 19.6957 14.069 
125 1 8.75125 19.6943 17.9467 
126 1 1.368 12.3182 14.0707 
127 1 1.37707 19.694 14.0681 
128 1 8.75211 12.32 17.955 
137 1 9.40893 11.6505 11.6547 
138 1 0.717593 20.3531 20.3535 
139 1 0.717829 20.3533 11.6594 
140 1 9.41155 11.6602 20.3543 
141 1 0.717671 11.6602 20.354 
142 1 9.41096 20.3554 11.6602 
143 1 9.41079 20.3537 20.3535 
144 1 0.71054 11.6613 11.6611 
1 1 19.452 1.61845 1.6187 
2 1 12.5632 8.50796 8.50781 
3 1 12.5612 8.50991 1.61876 
4 1 19.4522 1.61854 8.50991 
5 1 12.5614 1.61721 8.5107 
6 1 19.4528 8.51019 1.61826 
7 1 19.4517 8.5087 8.50945 
8 1 12.561 1.61846 1.61875 
17 1 21.0477 0.0231772 0.0228062 
18 1 10.9698 10.1017 10.1017 
19 1 10.9654 10.1054 0.0237448 
20 1 21.0477 0.0235423 10.1063 
21 1 10.9655 0.0224152 10.1048 
22 1 21.0475 10.1051 0.0232406 
23 1 21.0465 10.1043 10.1041 
24 1 10.9655 0.0229473 0.0228666 
33 1 16.7566 1.27866 1.27967 
34 1 15.2566 8.84966 8.84969 
35 1 15.2551 8.84816 1.27976 
36 1 16.7553 1.27861 8.84939 
37 1 15.2557 1.27869 8.8493 
38 1 16.7542 8.84877 1.27958 
39 1 16.7561 8.84969 8.84962 
40 1 15.2566 1.27862 1.27969 
41 1 19.7912 4.31266 1.27988 
42 1 12.2214 5.81231 8.84963 
43 1 19.7913 5.8149 8.84936 
44 1 12.2217 4.31346 1.27953 
45 1 12.2214 5.81205 1.27865 
46 1 19.791 4.31388 8.84947 
47 1 12.2214 4.31538 8.84958 
48 1 19.7913 5.81305 1.27963 
49 1 19.7913 1.27868 4.31403 
50 1 12.2214 8.84896 5.81348 
51 1 12.2214 1.27933 5.81217 
52 1 19.7914 8.8495 4.31455 
53 1 19.7914 8.84948 5.81397 
54 1 12.2217 1.27891 4.31391 
55 1 12.2214 8.8484 4.31292 
56 1 19.7914 1.2786 5.81296 
81 1 17.9463 1.37672 1.37756 
82 1 14.0679 8.75124 8.75127 
83 1 14.0688 8.75086 1.37691 
84 1 17.9461 1.37664 8.7515 
85 1 14.0684 1.37637 8.75171 
86 1 17.9464 8.75121 1.37717 
87 1 17.9473 8.75129 8.75139 
88 1 14.0667 1.37679 1.37762 
89 1 19.6935 3.12642 1.37732 
90 1 12.3197 7.00236 8.75139 
91 1 19.6935 7.00239 8.75149 
92 1 12.3198 3.12404 1.3777 
93 1 12.3193 7.00454 1.37648 
94 1 19.693 3.12425 8.75134 
95 1 12.3194 3.12321 8.75168 
96 1 19.6936 7.00295 1.37717 
97 1 19.6933 1.3767 3.12408 
98 1 12.3197 8.75101 7.00301 
99 1 12.3193 1.37715 7.0042 
100 1 19.6938 8.75173 3.12506 
101 1 19.6935 8.75144 7.00314 
102 1 12.3196 1.37654 3.12567 
103 1 12.3191 8.75057 3.12371 
104 1 19.6934 1.37676 7.00457 
129 1 20.353 0.717514 0.717391 
130 1 11.6644 9.40693 9.40682 
131 1 11.6603 9.41007 0.718469 
132 1 20.3526 0.718811 9.41044 
133 1 11.6606 0.718082 9.40958 
134 1 20.3525 9.40979 0.718172 
135 1 20.3511 9.40914 9.40914 
136 1 11.6602 0.717415 0.717544 
ITEM: TIMESTEP
50
ITEM: NUMBER OF ATOMS
146
ITEM: BOX BOUNDS pp pp pp
0.0000000000000000e+00 2.1884000000000000e+01
0.0000000000000000e+00 2.1885999999999999e+01
0.0000000000000000e+00 2.1885000000000002e+01
ITEM: ATOMS id type x y z 
145 2 5.80805 10.6145 12.2103 
146 3 5.79914 9.68715 12.2267 
9 1 8.5256 12.5619 12.5638 
10 1 1.61968 19.451 19.4513 
11 1 1.61991 19.4523 12.5621 
12 1 8.50839 12.5632 19.4564 
13 1 1.62021 12.5631 19.4522 
14 1 8.50826 19.4576 12.5631 
15 1 8.50867 19.4522 19.4515 
16 1 1.60362 12.5643 12.5661 
25 1 10.1081 10.9604 10.9609 
26 1 0.0227461 21.0477 21.0485 
27 1 0.0228325 21.0479 10.9642 
28 1 10.107 10.9642 21.048 
29 1 0.0225439 10.9651 21.0484 
30 1 10.1066 21.049 10.9644 
31 1 10.1058 21.0484 21.0484 
32 1 0.0237504 10.9633 10.9633 
57 1 5.82382 12.4872 12.1753 
58 1 4.31246 19.7917 19.7911 
59 1 4.31205 19.7913 12.2215 
60 1 5.81595 12.2216 19.7912 
61 1 4.3115 12.2217 19.7913 
62 1 5.81531 19.7912 12.2212 
63 1 5.81567 19.792 19.791 
64 1 4.30931 12.2891 12.2202 
65 1 8.84992 15.2579 12.2174 
66 1 1.27974 16.7597 19.7912 
67 1 8.84915 16.7596 19.7913 
68 1 1.28044 15.2563 12.2199 
69 1 1.28003 16.7613 12.2209 
70 1 8.84965 15.2572 19.7916 
71 1 1.27973 15.2547 19.7912 
72 1 8.85135 16.7661 12.2205 
73 1 8.85032 12.2172 15.2637 
74 1 1.27982 19.7911 16.7586 
75 1 1.28002 12.2208 16.7622 
76 1 8.84968 19.7921 15.2566 
77 1 8.84919 19.7922 16.7593 
78 1 1.2803 12.2199 15.2546 
79 1 1.2797 19.7911 15.2554 
80 1 8.85168 12.2216 16.7667 
105 1 7.01233 12.4345 12.3339 
106 1 3.12285 19.6929 19.6925 
107 1 3.12217 19.6932 12.3202 
108 1 7.00602 12.3206 19.6942 
109 1 3.12111 12.3206 19.6931 
110 1 7.00533 19.6943 12.3201 
111 1 7.00522 19.6935 19.6925 
112 1 3.12239 12.3148 12.3328 
113 1 8.75725 14.0688 12.3162 
114 1 1.37848 17.9497 19.6925 
115 1 8.75027 17.9494 19.6925 
116 1 1.37044 14.0651 12.3197 
117 1 1.37785 17.9513 12.3205 
118 1 8.75101 14.0672 19.6946 
119 1 1.37839 14.0643 19.6931 
120 1 8.75154 17.9553 12.3202 
121 1 8.75448 12.3127 14.0727 
122 1 1.37833 19.6927 17.9483 
123 1 1.37802 12.3206 17.9526 
124 1 8.75096 19.6951 14.0666 
125 1 8.75036 19.6934 17.949 
126 1 1.36979 12.3201 14.0629 
127 1 1.37799 19.6932 14.0657 
128 1 8.75142 12.3211 17.9567 
137 1 9.40922 11.6523 11.6555 
138 1 0.717922 20.3531 20.3536 
139 1 0.717276 20.3538 11.6594 
140 1 9.4116 11.66 20.355 
141 1 0.717744 11.6601 20.3544 
142 1 9.41122 20.3561 11.6601 
143 1 9.41079 20.3536 20.3536 
144 1 0.710625 11.662 11.6616 
1 1 19.4506 1.61991 1.61905 
2 1 12.5642 8.50624 8.50664 
3 1 12.5623 8.50785 1.61934 
4 1 19.4506 1.61977 8.50841 
5 1 12.5625 1.6196 8.5083 
6 1 19.4505 8.50803 1.62001 
7 1 19.4504 8.50795 8.50806 
8 1 12.5622 1.61928 1.6201 
17 1 21.0478 0.0229448 0.0225817 
18 1 10.9688 10.1031 10.1024 
19 1 10.9656 10.105 0.0238834 
20 1 21.0475 0.0238462 10.1058 
21 1 10.9657 0.0228092 10.1045 
22 1 21.0475 10.105 0.0230734 
23 1 21.0467 10.1044 10.1042 
24 1 10.9655 0.0226752 0.0227626 
33 1 16.7584 1.27903 1.28003 
34 1 15.2557 8.84945 8.84945 
35 1 15.2542 8.84808 1.27985 
36 1 16.7586 1.27898 8.84905 
37 1 15.2544 1.2789 8.8491 
38 1 16.7588 8.84834 1.27997 
39 1 16.7585 8.84933 8.84929 
40 1 15.2548 1.279 1.28006 
41 1 19.791 4.31174 1.27999 
42 1 12.2216 5.81511 8.84941 
43 1 19.7911 5.81522 8.84917 
44 1 12.2221 4.3118 1.27983 
45 1 12.2219 5.81539 1.27912 
46 1 19.7907 4.31193 8.84912 
47 1 12.2218 4.31087 8.84922 
48 1 19.791 5.81631 1.27995 
49 1 19.791 1.27901 4.31281 
50 1 12.2217 8.84868 5.81453 
51 1 12.2218 1.27972 5.81635 
52 1 19.7911 8.84919 4.31179 
53 1 19.7912 8.84924 5.81588 
54 1 12.2219 1.27914 4.31199 
55 1 12.2217 8.84812 4.31178 
56 1 19.791 1.27906 5.81542 
81 1 17.9478 1.37763 1.37833 
82 1 14.0663 8.75026 8.75026 
83 1 14.0645 8.74977 1.37809 
84 1 17.9482 1.37766 8.7505 
85 1 14.0647 1.37746 8.75058 
86 1 17.9487 8.75012 1.37828 
87 1 17.9482 8.7504 8.75052 
88 1 14.0652 1.37769 1.37849 
89 1 19.6924 3.12197 1.37836 
90 1 12.3208 7.00458 8.75028 
91 1 19.6926 7.00488 8.75051 
92 1 12.3207 3.12221 1.37858 
93 1 12.3201 7.0051 1.37737 
94 1 19.6921 3.12237 8.75039 
95 1 12.3205 3.12092 8.75065 
96 1 19.6925 7.00616 1.37833 
97 1 19.6927 1.37734 3.12294 
98 1 12.3207 8.75005 7.004 
99 1 12.3204 1.37813 7.00627 
100 1 19.6927 8.7506 3.12201 
101 1 19.6925 8.75041 7.00556 
102 1 12.3206 1.37763 3.12224 
103 1 12.32 8.74976 3.12225 
104 1 19.6926 1.37764 7.00551 
129 1 20.353 0.717664 0.717937 
130 1 11.6637 9.40737 9.40756 
131 1 11.6605 9.41037 0.718475 
132 1 20.3528 0.718159 9.41112 
133 1 11.6606 0.717425 9.41015 
134 1 20.3528 9.41041 0.717949 
135 1 20.352 9.40952 9.40969 
136 1 11.6601 0.717719 0.71767 
ITEM: TIMESTEP
60
ITEM: NUMBER OF ATOMS
146
ITEM: BOX BOUNDS pp pp pp
0.0000000000000000e+00 2.1884000000000000e+01
0.0000000000000000e+00 2.1885999999999999e+01
0.0000000000000000e+00 2.1885000000000002e+01
ITEM: ATOMS id type x y z 
145 2 5.80773 10.6045 12.2103 
146 3 5.79924 9.67708 12.2268 
9 1 8.52276 12.5627 12.5613 
10 1 1.6195 19.4522 19.4516 
11 1 1.61924 19.4532 12.562 
12 1 8.50896 12.5632 19.4573 
13 1 1.6191 12.5621 19.4534 
14 1 8.50862 19.4578 12.563 
15 1 8.50898 19.4526 19.452 
16 1 1.60456 12.5633 12.5648 
25 1 10.1073 10.9602 10.9612 
26 1 0.0229936 21.0476 21.0484 
27 1 0.0228916 21.0478 10.9645 
28 1 10.1069 10.9643 21.048 
29 1 0.022979 10.9653 21.0482 
30 1 10.1065 21.0488 10.9645 
31 1 10.1057 21.0483 21.0483 
32 1 0.0232701 10.9637 10.9637 
57 1 5.82144 12.4886 12.1796 
58 1 4.31331 19.7913 19.7907 
59 1 4.31312 19.7909 12.2218 
60 1 5.81408 12.222 19.7909 
61 1 4.31332 12.2221 19.7909 
62 1 5.81424 19.7908 12.2215 
63 1 5.81474 19.7916 19.7906 
64 1 4.31185 12.2972 12.2184 
65 1 8.85005 15.2604 12.2183 
66 1 1.28013 16.7574 19.7908 
67 1 8.84885 16.759 19.7909 
68 1 1.28024 15.2577 12.2207 
69 1 1.28057 16.759 12.2213 
70 1 8.84933 15.2579 19.7913 
71 1 1.28014 15.2567 19.7908 
72 1 8.85051 16.7635 12.2207 
73 1 8.84968 12.2172 15.2652 
74 1 1.28017 19.7907 16.7577 
75 1 1.28067 12.2213 16.7586 
76 1 8.84934 19.7918 15.2573 
77 1 8.84888 19.7918 16.7584 
78 1 1.27993 12.2209 15.2581 
79 1 1.28003 19.7908 15.2563 
80 1 8.85114 12.2217 16.7646 
105 1 7.01033 12.4451 12.3357 
106 1 3.12411 19.6927 19.6922 
107 1 3.12373 19.693 12.3205 
108 1 7.00366 12.3208 19.6942 
109 1 3.12387 12.3206 19.6932 
110 1 7.00379 19.6943 12.3204 
111 1 7.00408 19.6932 19.6922 
112 1 3.12372 12.3169 12.3311 
113 1 8.759 14.0711 12.3164 
114 1 1.3785 17.9473 19.6925 
115 1 8.74993 17.9484 19.6922 
116 1 1.37121 14.0678 12.3198 
117 1 1.37805 17.9482 12.3205 
118 1 8.7507 14.0684 19.6945 
119 1 1.37835 14.0674 19.6932 
120 1 8.75161 17.9522 12.3203 
121 1 8.75484 12.3135 14.0745 
122 1 1.37861 19.6925 17.947 
123 1 1.378 12.3203 17.948 
124 1 8.75057 19.6949 14.0677 
125 1 8.75005 19.6932 17.9477 
126 1 1.36996 12.3196 14.0675 
127 1 1.37836 19.6929 14.0668 
128 1 8.75159 12.3214 17.9545 
137 1 9.40928 11.653 11.6553 
138 1 0.717796 20.353 20.3535 
139 1 0.717596 20.3537 11.6595 
140 1 9.41139 11.6602 20.3551 
141 1 0.717751 11.6604 20.3541 
142 1 9.41092 20.3562 11.6604 
143 1 9.41074 20.3537 20.3535 
144 1 0.711553 11.6617 11.662 
1 1 19.4512 1.6191 1.61923 
2 1 12.564 8.50657 8.50675 
3 1 12.5618 8.50827 1.61919 
4 1 19.4511 1.61922 8.50898 
5 1 12.562 1.61878 8.50888 
6 1 19.4513 8.50881 1.61938 
7 1 19.4508 8.50809 8.50844 
8 1 12.5618 1.61895 1.6194 
17 1 21.0477 0.0229828 0.0228654 
18 1 10.9689 10.1029 10.1024 