LAMMPS (3 Mar 2020)
# Alpha
clear
units		real
dimension 3
boundary        p p p
atom_style	charge
newton on
read_data       OOH_6.lmp
  triclinic box = (0 0 0) to (15.77 13.6581 25.747) with tilt (7.8845 0 0)
  2 by 2 by 2 MPI processor grid
  reading atoms ...
  131 atoms
  read_data CPU = 0.00971254 secs

timestep 0.25

# ---------- Define Interatomic Potential ---------------------
pair_style      reax/c NULL checkqeq no
pair_coeff      * * ffield.reax C H O
fix             2 all qeq/reax 1 0.0 10.0 1.0e-6 reax/c

#------------ Equilibration of the system -------------------------
reset_timestep 0

dump 1 all custom 10 min.lammpstrj id type x y z

minimize 1.0e-8 1.0e-8 100000 100000
WARNING: Using 'neigh_modify every 1 delay 0 check yes' setting during minimization (../min.cpp:190)
WARNING: Total cutoff < 2*bond cutoff. May need to use an increased neighbor list skin. (../pair_reaxc.cpp:413)
Neighbor list info ...
  update every 1 steps, delay 0 steps, check yes
  max neighbors/atom: 2000, page size: 100000
  master list distance cutoff = 9.5
  ghost atom cutoff = 9.5
  binsize = 4.75, bins = 5 3 6
  2 neighbor lists, perpetual/occasional/extra = 2 0 0
  (1) pair reax/c, perpetual
      attributes: half, newton off, ghost
      pair build: half/bin/newtoff/ghost
      stencil: half/ghost/bin/3d/newtoff
      bin: standard
  (2) fix qeq/reax, perpetual, copy from (1)
      attributes: half, newton off, ghost
      pair build: copy
      stencil: none
      bin: none
Per MPI rank memory allocation (min/avg/max) = 16.37 | 16.94 | 17.51 Mbytes
Step Temp E_pair E_mol TotEng Press 
       0            0   -19592.801            0   -19592.801    59381.531 
     317            0   -22270.462            0   -22270.462    6659.5671 
Loop time of 7.44105 on 8 procs for 317 steps with 131 atoms

99.4% CPU use with 8 MPI tasks x no OpenMP threads

Minimization stats:
  Stopping criterion = linesearch alpha is zero
  Energy initial, next-to-last, final = 
        -19592.8012797      -22270.462087      -22270.462087
  Force two-norm initial, final = 4880.03 104.149
  Force max component initial, final = 1201.25 28.1712
  Final line search alpha, max atom move = 2.44691e-12 6.89324e-11
  Iterations, force evaluations = 317 1950

MPI task timing breakdown:
Section |  min time  |  avg time  |  max time  |%varavg| %total
---------------------------------------------------------------
Pair    | 4.6695     | 5.2764     | 5.6732     |  16.6 | 70.91
Neigh   | 0          | 0          | 0          |   0.0 |  0.00
Comm    | 0.030629   | 0.4285     | 1.0359     |  58.4 |  5.76
Output  | 0.0011634  | 0.0014052  | 0.0020691  |   0.7 |  0.02
Modify  | 1.721      | 1.7218     | 1.7225     |   0.0 | 23.14
Other   |            | 0.01301    |            |       |  0.17

Nlocal:    16.375 ave 37 max 2 min
Histogram: 2 1 1 0 2 0 0 0 0 2
Nghost:    472.25 ave 514 max 421 min
Histogram: 2 1 1 0 0 0 0 0 0 4
Neighs:    1194.75 ave 2493 max 175 min
Histogram: 2 0 2 0 1 1 0 0 0 2

Total # of neighbors = 9558
Ave neighs/atom = 72.9618
Neighbor list builds = 0
Dangerous builds = 0

###
min_style cg
minimize 1.0e-8 1.0e-8 100000 100000
WARNING: Using 'neigh_modify every 1 delay 0 check yes' setting during minimization (../min.cpp:190)
WARNING: Total cutoff < 2*bond cutoff. May need to use an increased neighbor list skin. (../pair_reaxc.cpp:413)
Per MPI rank memory allocation (min/avg/max) = 16.37 | 16.94 | 17.52 Mbytes
Step Temp E_pair E_mol TotEng Press 
     317            0   -22270.462            0   -22270.462    6659.5671 
     372            0   -22277.843            0   -22277.843    4975.5164 
Loop time of 1.58607 on 8 procs for 55 steps with 131 atoms

99.4% CPU use with 8 MPI tasks x no OpenMP threads

Minimization stats:
  Stopping criterion = energy tolerance
  Energy initial, next-to-last, final = 
         -22270.462087        -22277.8425     -22277.8426393
  Force two-norm initial, final = 104.149 62.0303
  Force max component initial, final = 28.1712 22.8004
  Final line search alpha, max atom move = 6.83361e-05 0.00155809
  Iterations, force evaluations = 55 408

MPI task timing breakdown:
Section |  min time  |  avg time  |  max time  |%varavg| %total
---------------------------------------------------------------
Pair    | 1.0226     | 1.1368     | 1.2222     |   6.4 | 71.67
Neigh   | 0          | 0          | 0          |   0.0 |  0.00
Comm    | 0.0069772  | 0.092372   | 0.20722    |  22.6 |  5.82
Output  | 0.00023042 | 0.000275   | 0.00040712 |   0.0 |  0.02
Modify  | 0.35329    | 0.35343    | 0.35359    |   0.0 | 22.28
Other   |            | 0.003219   |            |       |  0.20

Nlocal:    16.375 ave 38 max 0 min
Histogram: 1 2 1 0 1 1 0 0 0 2
Nghost:    477.125 ave 522 max 426 min
Histogram: 2 1 1 0 0 0 0 0 1 3
Neighs:    1166.5 ave 2533 max 0 min
Histogram: 1 2 1 0 1 0 1 0 0 2

Total # of neighbors = 9332
Ave neighs/atom = 71.2366
Neighbor list builds = 0
Dangerous builds = 0

###
fix 1 all box/relax aniso 0.0
min_style cg
minimize 1.0e-8 1.0e-8 100000 100000
WARNING: Using 'neigh_modify every 1 delay 0 check yes' setting during minimization (../min.cpp:190)
WARNING: Total cutoff < 2*bond cutoff. May need to use an increased neighbor list skin. (../pair_reaxc.cpp:413)
Per MPI rank memory allocation (min/avg/max) = 16.37 | 16.94 | 17.52 Mbytes
Step Temp E_pair E_mol TotEng Press Volume 
     372            0   -22277.843            0   -22277.843    4975.5164    5545.5955 
     384            0   -22278.072            0   -22278.072    77.430877    5546.7997 
Loop time of 0.126701 on 8 procs for 12 steps with 131 atoms

99.5% CPU use with 8 MPI tasks x no OpenMP threads

Minimization stats:
  Stopping criterion = energy tolerance
  Energy initial, next-to-last, final = 
        -22277.8426393      -22278.071578     -22278.0716831
  Force two-norm initial, final = 832.402 217.16
  Force max component initial, final = 612.072 140.271
  Final line search alpha, max atom move = 5.55911e-09 7.79782e-07
  Iterations, force evaluations = 12 35

MPI task timing breakdown:
Section |  min time  |  avg time  |  max time  |%varavg| %total
---------------------------------------------------------------
Pair    | 0.09005    | 0.10004    | 0.10763    |   2.0 | 78.96
Neigh   | 0          | 0          | 0          |   0.0 |  0.00
Comm    | 0.0005468  | 0.0081346  | 0.018184   |   6.9 |  6.42
Output  | 3.8533e-05 | 4.4923e-05 | 6.3259e-05 |   0.0 |  0.04
Modify  | 0.01779    | 0.017802   | 0.017822   |   0.0 | 14.05
Other   |            | 0.0006815  |            |       |  0.54

Nlocal:    16.375 ave 39 max 0 min
Histogram: 1 2 1 1 0 1 0 0 0 2
Nghost:    477.125 ave 522 max 425 min
Histogram: 2 1 0 1 0 0 0 0 1 3
Neighs:    1166.75 ave 2601 max 0 min
Histogram: 1 2 1 0 1 0 1 0 0 2

Total # of neighbors = 9334
Ave neighs/atom = 71.2519
Neighbor list builds = 0
Dangerous builds = 0

unfix 1
###
min_style cg
minimize 1.0e-8 1.0e-8 100000 100000
WARNING: Using 'neigh_modify every 1 delay 0 check yes' setting during minimization (../min.cpp:190)
WARNING: Total cutoff < 2*bond cutoff. May need to use an increased neighbor list skin. (../pair_reaxc.cpp:413)
Per MPI rank memory allocation (min/avg/max) = 16.37 | 16.94 | 17.52 Mbytes
Step Temp E_pair E_mol TotEng Press 
     384            0   -22278.072            0   -22278.072    77.430877 
     399            0   -22278.627            0   -22278.627    4220.1465 
Loop time of 0.400977 on 8 procs for 15 steps with 131 atoms

99.5% CPU use with 8 MPI tasks x no OpenMP threads

Minimization stats:
  Stopping criterion = energy tolerance
  Energy initial, next-to-last, final = 
        -22278.0716831     -22278.6265938     -22278.6266782
  Force two-norm initial, final = 121.623 74.2059
  Force max component initial, final = 25.3998 25.7222
  Final line search alpha, max atom move = 0.00135465 0.0348447
  Iterations, force evaluations = 15 101

MPI task timing breakdown:
Section |  min time  |  avg time  |  max time  |%varavg| %total
---------------------------------------------------------------
Pair    | 0.2558     | 0.28416    | 0.30587    |   3.3 | 70.87
Neigh   | 0          | 0          | 0          |   0.0 |  0.00
Comm    | 0.0016067  | 0.023293   | 0.051836   |  11.6 |  5.81
Output  | 3.8443e-05 | 4.5669e-05 | 6.7337e-05 |   0.0 |  0.01
Modify  | 0.092632   | 0.092681   | 0.092721   |   0.0 | 23.11
Other   |            | 0.0007958  |            |       |  0.20

Nlocal:    16.375 ave 39 max 0 min
Histogram: 1 2 1 1 0 1 0 0 0 2
Nghost:    477.125 ave 522 max 425 min
Histogram: 2 1 0 1 0 0 0 0 1 3
Neighs:    1165.5 ave 2599 max 0 min
Histogram: 1 2 1 0 1 0 1 0 0 2

Total # of neighbors = 9324
Ave neighs/atom = 71.1756
Neighbor list builds = 0
Dangerous builds = 0

###
fix 1 all box/relax aniso 0.0
min_style cg
minimize 1.0e-8 1.0e-8 100000 100000
WARNING: Using 'neigh_modify every 1 delay 0 check yes' setting during minimization (../min.cpp:190)
WARNING: Total cutoff < 2*bond cutoff. May need to use an increased neighbor list skin. (../pair_reaxc.cpp:413)
Per MPI rank memory allocation (min/avg/max) = 16.37 | 16.94 | 17.52 Mbytes
Step Temp E_pair E_mol TotEng Press Volume 
     399            0   -22278.627            0   -22278.627    4220.1465    5546.7997 
     411            0   -22278.907            0   -22278.907    86.709345    5547.9258 
Loop time of 0.116023 on 8 procs for 12 steps with 131 atoms

99.3% CPU use with 8 MPI tasks x no OpenMP threads

Minimization stats:
  Stopping criterion = energy tolerance
  Energy initial, next-to-last, final = 
        -22278.6266782     -22278.9070627     -22278.9071152
  Force two-norm initial, final = 786.721 222.07
  Force max component initial, final = 584.373 146.884
  Final line search alpha, max atom move = 2.6569e-09 3.90255e-07
  Iterations, force evaluations = 12 32

MPI task timing breakdown:
Section |  min time  |  avg time  |  max time  |%varavg| %total
---------------------------------------------------------------
Pair    | 0.082462   | 0.091637   | 0.098522   |   1.9 | 78.98
Neigh   | 0          | 0          | 0          |   0.0 |  0.00
Comm    | 0.0005058  | 0.0073766  | 0.016605   |   6.6 |  6.36
Output  | 7.0081e-05 | 8.1003e-05 | 0.00011146 |   0.0 |  0.07
Modify  | 0.016269   | 0.016277   | 0.016285   |   0.0 | 14.03
Other   |            | 0.0006513  |            |       |  0.56

Nlocal:    16.375 ave 39 max 0 min
Histogram: 1 2 1 1 0 1 0 0 0 2
Nghost:    477.125 ave 522 max 425 min
Histogram: 2 1 0 1 0 0 0 0 1 3
Neighs:    1165.75 ave 2600 max 0 min
Histogram: 1 2 1 0 1 0 1 0 0 2

Total # of neighbors = 9326
Ave neighs/atom = 71.1908
Neighbor list builds = 0
Dangerous builds = 0

unfix 1
###
min_style cg
minimize 1.0e-8 1.0e-8 100000 100000
WARNING: Using 'neigh_modify every 1 delay 0 check yes' setting during minimization (../min.cpp:190)
WARNING: Total cutoff < 2*bond cutoff. May need to use an increased neighbor list skin. (../pair_reaxc.cpp:413)
Per MPI rank memory allocation (min/avg/max) = 16.37 | 16.94 | 17.52 Mbytes
Step Temp E_pair E_mol TotEng Press 
     411            0   -22278.907            0   -22278.907    86.709345 
     435            0   -22280.174            0   -22280.174     4189.718 
Loop time of 0.826493 on 8 procs for 24 steps with 131 atoms

99.4% CPU use with 8 MPI tasks x no OpenMP threads

Minimization stats:
  Stopping criterion = linesearch alpha is zero
  Energy initial, next-to-last, final = 
        -22278.9071152     -22280.1739818     -22280.1739818
  Force two-norm initial, final = 116.416 24.6324
  Force max component initial, final = 19.3163 5.19376
  Final line search alpha, max atom move = 1.25483e-11 6.51728e-11
  Iterations, force evaluations = 24 214

MPI task timing breakdown:
Section |  min time  |  avg time  |  max time  |%varavg| %total
---------------------------------------------------------------
Pair    | 0.53801    | 0.59724    | 0.64276    |   4.8 | 72.26
Neigh   | 0          | 0          | 0          |   0.0 |  0.00
Comm    | 0.0035249  | 0.048973   | 0.1086     |  16.7 |  5.93
Output  | 7.6263e-05 | 8.8973e-05 | 0.00012967 |   0.0 |  0.01
Modify  | 0.17858    | 0.17865    | 0.17871    |   0.0 | 21.61
Other   |            | 0.001543   |            |       |  0.19

Nlocal:    16.375 ave 39 max 0 min
Histogram: 1 2 1 1 0 1 0 0 0 2
Nghost:    477.125 ave 522 max 425 min
Histogram: 2 1 0 1 0 0 0 0 1 3
Neighs:    1165.25 ave 2599 max 0 min
Histogram: 1 2 1 0 1 0 1 0 0 2

Total # of neighbors = 9322
Ave neighs/atom = 71.1603
Neighbor list builds = 0
Dangerous builds = 0

undump 1
#############
#----------- Thermo ------------
reset_timestep 0
thermo  200

thermo_style    custom step temp etotal ke pe press
velocity all create 300 12345 mom yes rot yes
fix 1 all npt temp 300 300 25.0 iso 0.0 0.0 250.0

variable vpe equal pe
variable vtemp equal temp
variable vstep equal step

fix output all print 2500 "${vstep} ${vtemp} ${vpe}" file temp-tpdh-Pt.dat screen no

dump 1 all custom 2500 thermo-tpdh-Pt.lammpstrj id type x y z

run 1000000
WARNING: Total cutoff < 2*bond cutoff. May need to use an increased neighbor list skin. (../pair_reaxc.cpp:413)
Per MPI rank memory allocation (min/avg/max) = 15.27 | 15.7 | 16.41 Mbytes
Step Temp TotEng KinEng PotEng Press 
       0          300   -22163.922    116.25159   -22280.174     5147.576 
     200    233.86879   -22121.917    90.625398   -22212.542    16562.345 
     400    407.44521   -22065.862    157.88718   -22223.749   -1429.4081 
     600    294.63205   -22128.343    114.17148   -22242.514    11638.454 
     800    276.95091   -22134.558    107.31995   -22241.878   -10279.243 
    1000    292.00587   -22107.632    113.15382   -22220.786   -19244.319 
    1200    298.28411    -22123.59    115.58668   -22239.176    24413.786 
    1400    270.72166   -22131.137    104.90608   -22236.043    23160.521 
    1600    329.24772   -22105.774    127.58524    -22233.36    7508.3868 
    1800    275.20633   -22116.231    106.64391   -22222.875   -6146.0034 
    2000    287.39907   -22111.047    111.36866   -22222.415   -17813.059 
    2200    333.31896   -22096.669    129.16287   -22225.832    14070.073 
    2400    301.09294   -22124.725    116.67511   -22241.401   -12162.284 
    2600    317.19012   -22105.848    122.91286   -22228.761    2262.9253 
    2800    252.70406   -22105.983    97.924164   -22203.908    8464.0048 
    3000    314.59405   -22110.117    121.90686   -22232.023   -1797.9744 
    3200    301.52899   -22126.252    116.84408   -22243.096    -7520.585 
    3400    284.06428   -22129.701    110.07642   -22239.777   -3767.4592 
    3600    266.18175   -22114.585    103.14684   -22217.732   -3830.6803 
    3800    262.07127   -22108.251    101.55401   -22209.805   -2791.2124 
    4000    285.40099   -22119.493     110.5944   -22230.087   -2623.6076 
    4200     291.4955   -22126.935    112.95605   -22239.891   -15582.134 
    4400    351.96882   -22105.194    136.38979   -22241.584     6412.198 
    4600    298.72659   -22120.871    115.75814   -22236.629    4570.6344 
    4800    303.10528   -22120.181     117.4549   -22237.636   -10176.742 
    5000    314.27887    -22097.83    121.78473   -22219.615   -2039.9637 
    5200    277.38685   -22127.555    107.48888   -22235.044   -4659.8269 
    5400    300.74353   -22130.427    116.53971   -22246.967   -6934.4262 
    5600    335.14214   -22101.714    129.86936   -22231.583    13391.061 
    5800    298.35594   -22134.435    115.61451    -22250.05     21118.71 
    6000    274.40618   -22120.662    106.33385   -22226.996   -1346.6872 
    6200    283.93379   -22111.011    110.02585   -22221.037     13910.35 
    6400    284.36402   -22140.029    110.19257   -22250.221    -4977.749 
    6600    292.29764   -22116.885    113.26689   -22230.152   -11425.575 
    6800    300.37465   -22118.741    116.39677   -22235.138   -3283.4376 
    7000    261.50345   -22144.321    101.33397   -22245.655    5225.2073 
    7200    299.77903   -22122.565    116.16596   -22238.731    18103.979 
    7400    315.43852   -22115.633     122.2341   -22237.867    13523.377 
    7600    277.11029   -22136.932    107.38171   -22244.314   -21086.691 
    7800    310.80456   -22119.778    120.43841   -22240.217    6469.9428 
    8000    298.68279   -22111.241    115.74117   -22226.982   -19863.149 
    8200    290.70327   -22128.599    112.64906   -22241.248    17762.865 
    8400    293.49892   -22126.864    113.73239   -22240.596    19876.086 
    8600    290.62156   -22120.129     112.6174   -22232.747   -27863.911 
    8800    254.33803   -22129.522    98.557336   -22228.079   -6450.8177 
    9000    297.52235   -22130.168    115.29149    -22245.46    8183.5782 
    9200    327.39326   -22116.047    126.86663   -22242.913    1368.9568 
    9400    305.96112   -22129.568    118.56156    -22248.13   -24014.308 
    9600    291.16686   -22126.069     112.8287   -22238.898   -14012.493 
    9800    307.61894   -22112.182    119.20397   -22231.386   -14536.947 
   10000    339.84755   -22102.775    131.69273   -22234.467   -8688.6962 
   10200    267.78929   -22131.811    103.76977    -22235.58    20403.045 
   10400    295.96083   -22117.323    114.68639   -22232.009    16888.853 
   10600    304.34088   -22109.408     117.9337   -22227.342   -612.64177 
   10800     285.9326   -22118.475     110.8004   -22229.275   -7518.1031 
   11000    300.13766   -22125.166    116.30493   -22241.471    3097.6584 
   11200    281.40924   -22136.503    109.04757   -22245.551   -106.59604 
   11400    321.00716   -22109.091    124.39198   -22233.483   -4856.5923 
   11600    302.33178    -22112.73    117.15517   -22229.885   -7026.2766 
   11800    265.90795   -22135.277    103.04074   -22238.317    4683.2591 
   12000    311.99835    -22117.99    120.90102   -22238.891    25095.906 
   12200    293.71562   -22124.709    113.81636   -22238.526    8620.7387 
   12400    282.95248   -22137.726    109.64559   -22247.372    6016.9451 
   12600    285.04978    -22114.95     110.4583   -22225.408    13502.044 
   12800    293.08901   -22115.296    113.57355   -22228.869   -8077.1533 
   13000    272.75007   -22137.486     105.6921   -22243.178   -13650.717 
   13200    281.14834   -22118.279    108.94648   -22227.226    5212.0259 
   13400    305.02907   -22106.697    118.20038   -22224.897    766.77217 
   13600    282.01531   -22134.156    109.28243   -22243.439   -14794.442 
   13800    241.37797    -22132.98    93.535245   -22226.516    476.49967 
   14000    288.57727    -22116.32    111.82522   -22228.145   -4685.2598 
   14200    330.86837   -22092.058    128.21325   -22220.271   -13593.069 
   14400    316.24082   -22104.692      122.545   -22227.237    12310.556 
   14600    291.64285   -22122.754    113.01315   -22235.768    5134.8692 
   14800    287.43803    -22123.75    111.38376   -22235.134    1764.3089 
   15000    334.47845    -22105.67    129.61217   -22235.282    7900.0649 
   15200    300.41607   -22133.973    116.41282   -22250.386    12074.289 
   15400    296.24875   -22121.475    114.79796   -22236.273    23464.946 
   15600     297.7324   -22112.922    115.37288   -22228.295    -6115.948 
   15800     311.5691   -22117.622    120.73468   -22238.356    28939.753 
   16000    268.42499   -22120.302    104.01611   -22224.318   -6780.8313 
   16200    325.40415    -22102.24    126.09583   -22228.336    7786.8376 
   16400    304.74434    -22123.25    118.09005    -22241.34   -23079.253 
   16600    286.78446   -22134.727     111.1305   -22245.857   -14487.568 
   16800    316.88579   -22106.718    122.79493   -22229.513   -5977.9841 
   17000    296.36155    -22125.98    114.84167   -22240.822    -5610.854 
   17200    251.71765   -22146.037    97.541927   -22243.579   -2338.7983 
   17400    308.68565   -22114.915    119.61733   -22234.532   -14947.791 
   17600     290.8426   -22134.632    112.70305   -22247.335    7328.7735 
   17800    300.68738   -22134.442    116.51795    -22250.96   -5799.4563 
   18000    288.01513   -22118.634    111.60739   -22230.242    3802.5922 
   18200    293.24201   -22133.779    113.63283   -22247.412     5305.613 
   18400    260.98011   -22151.728    101.13118   -22252.859   -18645.892 
   18600    323.85408   -22119.886    125.49518   -22245.381    11451.945 
   18800     268.4936    -22141.04    104.04269   -22245.083    2802.9343 
   19000    305.15893   -22126.683     118.2507   -22244.933    21514.238 
   19200    330.99682   -22114.691    128.26302   -22242.954    1684.8285 
   19400     303.9316   -22138.553    117.77511   -22256.328    1811.3334 
   19600    309.30142   -22128.866    119.85594   -22248.722   -683.09085 
   19800    311.57756    -22116.79    120.73796   -22237.528   -19593.525 
   20000    293.57692   -22139.669    113.76261   -22253.432   -28529.588 
   20200    298.67919   -22128.831    115.73977   -22244.571   -9400.1882 
   20400    326.47722   -22094.432    126.51166   -22220.944    23094.766 
   20600    307.10108   -22123.404     119.0033   -22242.407    2893.8338 
   20800    271.03268   -22130.849     105.0266   -22235.876    2932.9886 
   21000    344.00766   -22109.357    133.30479   -22242.662    11899.958 
   21200    285.74001   -22134.812    110.72577   -22245.538   -21897.238 
   21400    287.28029   -22129.658    111.32264   -22240.981   -29639.014 
   21600    335.24047   -22116.351    129.90746   -22246.259   -9560.8581 
   21800    306.46818   -22141.318    118.75804   -22260.076   -136.98852 
   22000    312.20873   -22109.312    120.98254   -22230.295    3855.7284 
   22200    328.49638   -22126.217    127.29409   -22253.511    4576.9287 
   22400    303.91611   -22132.337    117.76911   -22250.106   -10248.977 
   22600    314.14671   -22101.939    121.73352   -22223.672   -15575.001 
   22800    282.99939   -22125.479    109.66377   -22235.143   -4572.7741 
   23000    298.62526   -22133.766    115.71887   -22249.485   -4970.4536 
   23200    278.73283   -22145.065    108.01045   -22253.075    970.04319 
   23400    282.95001   -22117.005    109.64463    -22226.65    4585.7875 
   23600    296.18138   -22136.705    114.77186   -22251.477   -6610.4245 
   23800    294.00303   -22137.519    113.92773   -22251.446    10841.481 
   24000    291.84277   -22124.003    113.09062   -22237.094   -1749.2493 
   24200    320.09962   -22117.097     124.0403   -22241.137    9901.6319 
   24400    327.98295   -22141.196    127.09513   -22268.291    -418.5482 
   24600    298.41967   -22115.851     115.6392    -22231.49    6187.9681 
   24800     284.8574    -22120.42    110.38375   -22230.804     685.6087 
   25000    284.78483   -22129.124    110.35563   -22239.479    9757.7939 
   25200    324.77461   -22098.433    125.85189   -22224.285   -4375.8128 
   25400    335.90142   -22124.922    130.16358   -22255.085    88.075027 
   25600    304.59783   -22126.109    118.03327   -22244.142    8708.3939 
   25800    310.63227    -22100.06    120.37165   -22220.431   -7683.1026 
   26000    296.71201    -22123.51    114.97748   -22238.487    10124.791 
   26200    280.33425   -22135.401    108.63101   -22244.032    10830.691 
   26400    301.18973   -22140.706    116.71262   -22257.419    12941.206 
   26600    307.60482   -22113.312     119.1985   -22232.511   -10457.548 
   26800    268.37822   -22137.889    103.99799   -22241.887    2997.2421 
   27000    272.19481   -22132.162    105.47693   -22237.639    4584.8423 
   27200    326.16056   -22121.611    126.38895       -22248   -1416.4851 
   27400    265.05004   -22148.817     102.7083   -22251.525   -2220.3308 
   27600    308.33239   -22127.175    119.48044   -22246.655    4753.1518 
   27800     318.7002   -22121.561    123.49802   -22245.059    18983.047 
   28000    259.88747    -22137.91    100.70777   -22238.618    10801.173 
   28200    282.48626   -22131.113    109.46492   -22240.578    2004.8653 
   28400    314.68401   -22116.076    121.94172   -22238.018    13035.872 
   28600    296.65912   -22133.104    114.95698   -22248.061   -3105.6909 
   28800    296.20468   -22125.452    114.78089   -22240.233     4320.055 
   29000    304.07958   -22123.688    117.83245    -22241.52   -1554.6535 
   29200    309.12903   -22138.048    119.78914   -22257.837    13208.798 
   29400    272.07785   -22135.472    105.43161   -22240.904   -15422.812 
   29600     308.9557   -22112.973    119.72197   -22232.695   -23476.534 
   29800    293.80552   -22138.124     113.8512   -22251.975    14228.206 
   30000    294.00938   -22133.687    113.93019   -22247.617    7568.2959 
   30200    287.64344   -22119.299    111.46336   -22230.762   -1726.3456 
   30400    324.99996   -22111.864    125.93921   -22237.803   -10973.513 
   30600    273.67609   -22139.884    106.05094   -22245.935   -1115.8999 
   30800     308.2593   -22121.149    119.45212   -22240.601    33868.328 
   31000    330.43215   -22115.016    128.04421   -22243.061    8701.6061 
   31200    280.23212   -22130.418    108.59143   -22239.009   -7342.8466 
   31400    318.11205    -22132.03    123.27011     -22255.3   -4752.3508 
   31600    360.84042   -22106.267    139.82758   -22246.095    7763.2075 
   31800     285.0619   -22131.304      110.463   -22241.767   -18802.462 
   32000    289.36221   -22129.344    112.12939   -22241.474    4011.4697 
   32200    324.83002   -22119.451    125.87336   -22245.325    135.19492 
   32400    285.86862   -22141.341    110.77561   -22252.116    2191.6563 
   32600    291.37906   -22131.945    112.91093   -22244.855    1492.2796 
   32800    330.42738   -22119.577    128.04236   -22247.619    10676.389 
   33000    299.70245   -22135.978    116.13629   -22252.114    8619.2644 
   33200    324.02665   -22118.448    125.56205    -22244.01    1374.4914 
   33400    323.40188   -22119.465    125.31994   -22244.785   -11712.344 
   33600    290.50075   -22132.379    112.57058    -22244.95    15980.561 
   33800    300.70699   -22123.316    116.52555   -22239.842    3219.5011 
   34000    287.47639    -22122.96    111.39863   -22234.358    14944.586 
   34200    311.41991   -22129.219    120.67687   -22249.896    18097.943 
   34400    304.64945   -22127.249    118.05328   -22245.302   -27154.052 
   34600    324.53954   -22108.864    125.76079   -22234.625   -10434.516 
   34800    297.38959   -22139.341    115.24005   -22254.581   -19.933072 
   35000    301.92331     -22122.9    116.99688   -22239.897   -11785.306 
   35200    294.60293   -22131.617     114.1602   -22245.777    19086.516 
   35400    251.84191   -22147.503    97.590076   -22245.093   -9210.5988 
   35600    317.06948   -22124.692    122.86611   -22247.558    -5850.363 
   35800     286.1256   -22137.161    110.87519   -22248.036   -27870.853 
   36000    268.79895   -22144.964    104.16102   -22249.125    31576.695 
   36200    314.32753   -22132.477    121.80359    -22254.28   -7859.7375 
   36400    310.57874   -22114.107    120.35091   -22234.457   -1264.8131 
   36600    257.95794   -22142.893    99.960071   -22242.853    16496.647 
   36800    293.36872   -22132.187    113.68194   -22245.869   -2340.8999 
   37000    328.18082   -22115.096    127.17181   -22242.267     9700.094 
   37200    310.12523    -22129.97    120.17517   -22250.146    11551.352 
   37400    272.15172   -22143.402    105.46024   -22248.862   -5232.4216 
   37600    311.46607    -22116.42    120.69476   -22237.114    11901.804 
   37800    323.78524   -22118.945     125.4685   -22244.413   -11599.332 
   38000    265.29759   -22142.819    102.80422   -22245.623    7402.0797 
   38200    299.09078   -22125.046    115.89927   -22240.946    3080.0836 
   38400    283.85535   -22111.021    109.99545   -22221.017   -2983.2763 
   38600    311.21834   -22103.342    120.59876    -22223.94   -13706.712 
   38800    278.15996   -22130.904    107.78846   -22238.693   -3847.5466 
   39000    293.99024   -22114.773    113.92278   -22228.695   -13971.258 
   39200    314.46184   -22113.931    121.85563   -22235.787   -6772.2487 
   39400    287.40239   -22134.254    111.36995   -22245.624   -11263.163 
   39600    296.60257   -22109.443    114.93507   -22224.378    13433.218 
   39800    308.08976   -22128.383    119.38642   -22247.769    647.98033 
   40000    274.25635   -22133.509    106.27579   -22239.785     10643.94 
   40200    296.92136   -22123.529     115.0586   -22238.588   -7964.4505 
   40400    302.88614    -22119.87    117.36999    -22237.24   -212.87909 
   40600    292.11925   -22134.197    113.19776   -22247.395    6484.6543 
   40800    314.70388    -22116.37    121.94942   -22238.319   -28206.722 
   41000    294.63747   -22115.176    114.17358    -22229.35    5850.9016 
   41200    273.41509   -22131.271     105.9498    -22237.22   -2930.6862 
   41400    319.38575   -22093.736    123.76367   -22217.499    809.01279 
   41600    314.59701   -22117.597    121.90801   -22239.505    11566.137 
   41800    290.02615   -22127.239    112.38667   -22239.625    24842.804 
   42000     332.6628   -22100.987     128.9086   -22229.895    12505.944 
   42200    325.17488   -22126.219    126.00699   -22252.226   -2482.7527 
   42400    284.75145   -22142.504     110.3427   -22252.846   -14917.941 
   42600    319.40459   -22122.267    123.77097   -22246.038    4874.2417 
   42800    314.79832   -22125.946    121.98602   -22247.932   -2623.6526 
   43000    296.44692   -22142.819    114.87475   -22257.694    3479.8131 
   43200    295.85741   -22162.042    114.64632   -22276.688   -2281.3748 
   43400    331.63501   -22142.181    128.51033   -22270.692    5523.3483 
   43600    310.30889   -22144.196    120.24634   -22264.442   -18221.407 
   43800    310.80996   -22159.749    120.44051   -22280.189    37664.552 
   44000    313.55859   -22150.878    121.50562   -22272.384    160.14543 
   44200    304.30724   -22149.768    117.92067   -22267.688    2462.9085 
   44400    285.45778   -22168.712     110.6164   -22279.329    22998.294 
   44600    289.95677   -22159.387    112.35979   -22271.747    2000.1584 
   44800     293.2492   -22144.379    113.63562   -22258.015    17283.368 
   45000    304.25873   -22161.312    117.90187   -22279.214   -10949.348 
   45200    292.47325   -22156.658    113.33494   -22269.993    14331.224 
   45400    327.04707   -22135.652    126.73248   -22262.384   -18325.527 
   45600      317.838   -22135.513    123.16391   -22258.677    7936.3295 
   45800    307.66866   -22152.214    119.22324   -22271.438    9262.9258 
   46000    321.39579   -22141.384    124.54257   -22265.927     8224.432 
   46200    306.85155   -22138.223    118.90661    -22257.13    1138.0386 
   46400    300.70509   -22162.933    116.52482   -22279.458    -6014.488 
   46600    288.41411   -22152.673      111.762   -22264.435   -27312.893 
   46800    302.91442   -22138.682    117.38095   -22256.063   -11441.156 
   47000    290.40255   -22158.641    112.53253   -22271.174   -5210.3861 
   47200    301.75334     -22153.4    116.93102   -22270.331    4982.9467 
   47400    300.30193   -22127.678    116.36859   -22244.047    9041.3356 
   47600    304.29109   -22156.593    117.91441   -22274.507   -28538.952 
   47800    298.78573   -22163.441    115.78106   -22279.222    14630.767 
   48000    317.15914   -22144.492    122.90085   -22267.393    5320.2823 
   48200    293.17329   -22150.442    113.60621   -22264.049   -20605.562 
   48400    267.33366   -22165.047    103.59321    -22268.64   -11878.641 
   48600    324.76348   -22139.347    125.84757   -22265.194    11975.072 
   48800     264.8455   -22166.224    102.62904   -22268.853    10449.946 
   49000    300.66249   -22158.792    116.50831     -22275.3    3246.2681 
   49200    334.34643   -22135.935    129.56101   -22265.496    2433.0678 
   49400    298.19865   -22151.265    115.55356   -22266.819    2105.5999 
   49600    317.52667    -22159.46    123.04327   -22282.504     23971.84 
   49800    325.71914   -22132.509     126.2179   -22258.727    22890.195 
   50000    324.12394    -22141.82    125.59975    -22267.42   -12657.881 
   50200    283.43053   -22157.323    109.83083   -22267.154    259.66592 
   50400    301.94931   -22141.613    117.00696    -22258.62   -7888.2208 
   50600    310.23264   -22137.938    120.21679   -22258.155    13732.727 
   50800    280.33925   -22157.625    108.63295   -22266.258     8372.677 
   51000    289.08213   -22152.154    112.02086   -22264.175     32179.92 
   51200    274.32085   -22172.488    106.30079   -22278.788   -815.11625 
   51400    306.74761   -22149.501    118.86633   -22268.367   -1827.9982 
   51600    291.95615   -22147.495    113.13456   -22260.629    7109.6886 
   51800    288.74175   -22169.293    111.88896   -22281.182   -5579.6535 
   52000    273.41866   -22190.278    105.95118   -22296.229    14871.316 
   52200    291.84686   -22158.854    113.09221   -22271.947   -1903.4631 
   52400    322.41121    -22148.01    124.93605   -22272.946     2879.523 
   52600    288.15942   -22172.045     111.6633   -22283.709    8370.0865 
   52800    261.34257   -22154.652    101.27163   -22255.924   -3446.9089 
   53000    314.01556   -22144.826    121.68269   -22266.509    11898.049 
   53200    300.94953   -22164.041    116.61954    -22280.66    11974.758 
   53400    306.50016   -22150.019    118.77044   -22268.789    20570.132 
   53600    327.10503   -22132.773    126.75493   -22259.528    4995.5406 
   53800    289.15091   -22159.595    112.04751   -22271.642    14604.812 
   54000    314.34392   -22152.181    121.80994   -22273.991    8451.7586 
   54200    279.25232   -22142.971    108.21175   -22251.183    21292.234 
   54400    298.51414   -22153.967    115.67581   -22269.643     23170.52 
   54600    267.04343   -22162.591    103.48075   -22266.072   -16188.254 
   54800    307.29974   -22145.728    119.08028   -22264.808    21515.181 
   55000    277.88149   -22155.802    107.68055   -22263.483   -14342.741 
   55200    294.93887   -22155.599    114.29038    -22269.89    20883.917 
   55400    301.11687   -22154.483    116.68439   -22271.168    17241.827 
   55600    304.65638    -22160.41    118.05596   -22278.466   -14937.462 
   55800    273.80986   -22161.887    106.10277   -22267.989   -23721.748 
   56000    300.58963    -22141.02    116.48008     -22257.5   -7028.6193 
   56200    265.56782   -22173.359    102.90894   -22276.268   -2938.1364 
   56400    313.83772   -22156.643    121.61378   -22278.256    6397.3133 
   56600     306.6494   -22147.277    118.82827   -22266.105    11586.293 
   56800    296.97233   -22173.984    115.07835   -22289.062    8019.3253 
   57000    270.36454     -22163.4    104.76769   -22268.168    3982.5349 
   57200    302.24844   -22146.771    117.12287   -22263.893    24704.288 
   57400    338.97994   -22141.994    131.35653   -22273.351    8937.7119 
   57600    294.01915   -22165.327    113.93398   -22279.261    2776.7641 
   57800    308.61554   -22141.261    119.59016   -22260.852   -3998.7805 
   58000    299.94921   -22155.364    116.23191   -22271.596    13346.707 
   58200    307.13989    -22146.53    119.01834   -22265.549   -9289.3224 
   58400    324.60321    -22137.57    125.78547   -22263.355    -2400.474 
   58600    303.41467   -22158.057     117.5748   -22275.632   -770.98274 
   58800    300.15615   -22146.874     116.3121   -22263.186    9465.3802 
   59000    277.84702   -22165.945    107.66719   -22273.612    10582.459 
   59200    273.50733   -22162.944    105.98554   -22268.929    4017.2048 
   59400    325.67535    -22147.26    126.20093   -22273.461   -20046.404 
   59600    304.31483   -22166.944    117.92361   -22284.868   -7851.2461 
   59800    280.68966   -22187.907    108.76873   -22296.676   -8636.9724 
   60000    286.64604    -22157.47    111.07686   -22268.547   -18711.054 
   60200    309.07026   -22145.033    119.76636   -22264.799   -19988.285 
   60400    264.46109   -22170.854    102.48008   -22273.334     9480.851 
   60600    298.99449   -22148.269    115.86195   -22264.131    11462.719 
   60800     289.4742   -22148.623    112.17279   -22260.796    971.55759 
   61000    255.01924   -22161.068    98.821308   -22259.889    4811.0072 
   61200     318.7762   -22131.061    123.52747   -22254.589    6500.6156 
   61400    298.55684   -22149.773    115.69236   -22265.465   -14741.314 
   61600    299.07017   -22150.137    115.89128   -22266.028    6437.8693 
   61800    279.05563   -22146.392    108.13554   -22254.528     2976.942 
   62000     257.0885   -22171.819     99.62316   -22271.443    23952.519 
   62200    280.21458   -22159.335    108.58464    -22267.92    4579.7499 
   62400    314.59055   -22142.869    121.90551   -22264.774    3272.4448 
   62600    286.00109   -22165.343    110.82694    -22276.17    422.85146 
   62800     276.0178   -22167.471    106.95836    -22274.43   -175.22947 
   63000     301.1928   -22144.047    116.71381   -22260.761    9171.2119 
   63200    259.25805   -22168.123    100.46387   -22268.587    15057.594 
   63400    283.17314   -22154.327    109.73109   -22264.058   -26581.396 
   63600    308.18693   -22149.612    119.42407   -22269.036   -12868.282 
   63800    292.70257   -22169.392     113.4238   -22282.816   -2921.4144 
   64000    285.26818   -22159.885    110.54293   -22270.428    12525.908 
   64200    300.38357   -22160.072    116.40023   -22276.472   -10497.956 
   64400    290.92988   -22142.429    112.73687   -22255.166   -14540.585 
   64600    316.85012   -22146.646     122.7811   -22269.428    -23292.93 
   64800     280.4063   -22165.059    108.65893   -22273.718   -10148.949 
   65000    316.12318    -22144.04    122.49941   -22266.539    6179.0375 
   65200    267.44113    -22148.64    103.63486   -22252.274   -299.10509 
   65400    273.35941   -22152.748    105.92822   -22258.676   -2399.5281 
   65600    287.33965    -22148.72    111.34564   -22260.066   -22198.069 
   65800     347.6245   -22136.844    134.70634   -22271.551   -23844.415 
   66000    293.57546   -22163.288    113.76205    -22277.05   -18751.567 
   66200    295.99242   -22142.763    114.69863   -22257.461   -252.39136 
   66400    331.96787   -22137.482    128.63931   -22266.122   -527.66725 
   66600    280.67509   -22158.118    108.76309   -22266.881    6700.7741 
   66800    333.80258   -22144.595    129.35027   -22273.945   -12544.688 
   67000    366.09511   -22139.407     141.8638   -22281.271   -8785.0011 
   67200    285.13758   -22162.107    110.49233   -22272.599   -2792.9842 
   67400    283.01989    -22160.13    109.67171   -22269.802   -20401.686 
   67600    310.06585   -22159.865    120.15216   -22280.017    2065.3304 
   67800    276.45553   -22174.035    107.12798   -22281.163   -13566.078 
   68000    325.33522   -22147.361    126.06913   -22273.431    10666.614 
   68200    314.24385   -22161.964    121.77116   -22283.735    10948.722 
   68400    308.84264   -22168.407    119.67816   -22288.085   -1727.3662 
   68600    307.46026   -22149.095    119.14248   -22268.238    5846.6274 
   68800    321.05158   -22128.064    124.40919   -22252.473    14764.971 
   69000    308.86866   -22149.264    119.68824   -22268.952    10262.184 
   69200    306.91615   -22155.146    118.93164   -22274.078   -14699.398 
   69400    333.13493   -22126.032    129.09156   -22255.123   -8788.9458 
   69600    271.23193   -22160.593    105.10381   -22265.697    5428.7099 
   69800    286.52995   -22153.188    111.03188    -22264.22   -23552.324 
   70000    335.21483   -22132.665    129.89752   -22262.563    12438.409 
   70200     281.7778   -22160.579    109.19039    -22269.77    10440.462 
   70400    298.97933   -22153.666    115.85608   -22269.522    19027.389 
   70600    332.40362   -22144.142    128.80817    -22272.95   -1175.2732 
   70800    277.83307   -22173.001    107.66179   -22280.663   -20244.271 
   71000    328.46391   -22151.956    127.28151   -22279.237   -8941.7803 
   71200    285.64696   -22154.251    110.68971   -22264.941    10348.087 
   71400    315.13643   -22157.557    122.11704   -22279.674   -81.791106 
   71600    286.67539   -22157.702    111.08824    -22268.79   -474.83783 
   71800    345.79136   -22142.509    133.99599   -22276.505    -684.0889 
   72000    289.43923    -22163.26    112.15924   -22275.419    817.88439 
   72200    289.92684   -22161.383    112.34819   -22273.731    -10841.17 
   72400    312.54446     -22148.6    121.11264   -22269.713    10130.145 
   72600    295.63622    -22150.07    114.56061   -22264.631    21753.116 
   72800    337.74073   -22122.444    130.87632    -22253.32   -12251.552 
   73000    295.51206    -22133.78    114.51249   -22248.293   -19586.542 
   73200    291.76927   -22155.131    113.06214   -22268.193   -8391.1145 
   73400    320.63277   -22152.172     124.2469   -22276.419    10340.527 
   73600    333.23776   -22127.504     129.1314   -22256.636    2278.1467 
   73800    288.51563   -22154.994    111.80134   -22266.795    85.822237 
   74000    302.33815   -22153.069    117.15764   -22270.227   -12776.723 
   74200    315.87037   -22149.149    122.40145   -22271.551    14389.274 
   74400    318.16381   -22161.754    123.29016   -22285.044    202.34848 
   74600    345.48337   -22138.615    133.87664   -22272.491   -3764.1167 
   74800    296.42971   -22153.723    114.86808   -22268.591    -1041.721 
   75000    283.48318   -22158.439    109.85124   -22268.291   -17088.599 
   75200    318.73643   -22142.603    123.51206   -22266.116     1269.619 
   75400    300.40833   -22151.359    116.40982   -22267.769    5899.4794 
   75600    284.69401   -22162.241    110.32044   -22272.561   -5043.9605 
   75800    313.07484   -22135.212    121.31816    -22256.53   -4341.1668 
   76000    290.59227   -22144.328    112.60605   -22256.934   -19920.117 
   76200    275.73571   -22149.255    106.84905   -22256.104   -3561.8663 
   76400    303.05431   -22149.265    117.43516     -22266.7    2638.6549 
   76600    278.75079   -22173.664    108.01741   -22281.681    12517.538 
   76800    302.76315   -22155.975    117.32233   -22273.297   -1927.6547 
   77000    305.29099   -22144.354    118.30188   -22262.656    14895.907 
   77200    279.87702   -22156.978    108.45383   -22265.432   -6280.9551 
   77400    289.07495   -22165.064    112.01808   -22277.082   -2303.6631 
   77600    322.20978   -22135.254      124.858   -22260.112    11567.827 
   77800    266.38192   -22158.214    103.22441   -22261.439    1245.2385 
   78000    292.19715   -22153.461    113.22795   -22266.689    6378.6674 
   78200    289.01111   -22149.633    111.99334   -22261.627    23557.762 
   78400    304.05113   -22145.579    117.82143   -22263.401    9608.3265 
   78600    299.58329    -22143.29    116.09011   -22259.381    17459.014 
   78800    306.44712   -22154.647    118.74989   -22273.397    21921.921 
   79000     298.4278   -22163.039    115.64236   -22278.681   -1696.0306 
   79200    318.11477   -22137.833    123.27116   -22261.104    5209.6457 
   79400    264.64866   -22168.011    102.55276   -22270.564   -21535.664 
   79600    299.82012   -22156.075    116.18189   -22272.257   -8294.0029 
   79800    309.28087   -22152.363    119.84798   -22272.211    1581.3557 
   80000     278.9163   -22171.567    108.08155   -22279.649    18804.348 
   80200    287.31275   -22144.012    111.33522   -22255.347    769.46814 
   80400    318.59289   -22149.384    123.45643   -22272.841    32.349718 
   80600    262.91687   -22178.049    101.88168   -22279.931    -3963.806 
   80800     286.9569   -22161.338    111.19732   -22272.535   -15003.661 
   81000    299.16384   -22140.353    115.92757   -22256.281    12068.964 
   81200    296.83605   -22136.607    115.02555   -22251.632    3966.9103 
   81400    268.75841   -22163.216    104.14531   -22267.362   -15355.252 
   81600    270.39971   -22150.171    104.78132   -22254.952    17272.826 
   81800    289.80121    -22135.08    112.29951    -22247.38    6250.5319 
   82000    306.92491   -22150.014    118.93503   -22268.949    27757.759 
   82200    267.89453   -22162.075    103.81055   -22265.885    1478.0986 
   82400    339.88498   -22136.704    131.70723   -22268.411   -2002.8633 
   82600    281.56854   -22148.761     109.1093    -22257.87   -12464.307 
   82800    265.60584   -22177.971    102.92367   -22280.894    3402.6787 
   83000     271.1696   -22154.796    105.07966   -22259.876   -7117.3048 
   83200    280.52865   -22147.333    108.70634   -22256.039    4570.3893 
   83400    292.78421   -22140.038    113.45543   -22253.494    24987.424 
   83600    276.75366   -22158.133    107.24351   -22265.376      10974.2 
   83800    326.50289   -22149.211     126.5216   -22275.732     -2905.14 
   84000    298.24701   -22135.551     115.5723   -22251.124    19789.201 
   84200    277.29149   -22152.557    107.45192   -22260.009    5614.2614 
   84400    276.61152   -22150.516    107.18843   -22257.704    14064.107 
   84600    338.86677   -22140.611    131.31267   -22271.924   -4764.8627 
   84800    291.79258   -22134.513    113.07117   -22247.585   -9643.0518 
   85000    246.46126   -22156.324    95.505045   -22251.829   -19447.469 
   85200    319.67558    -22143.85    123.87598   -22267.726   -6587.2321 
   85400    304.60484   -22131.484    118.03599    -22249.52    2057.8027 
   85600    280.28426   -22150.502    108.61164   -22259.113    4378.5828 
   85800    298.94706   -22147.062    115.84357   -22262.906    1002.2759 
   86000    330.98589   -22128.589    128.25879   -22256.847    18164.066 
   86200    276.29216    -22155.01    107.06468   -22262.075   -512.75755 
   86400    299.63855   -22152.541    116.11153   -22268.653    16168.424 
   86600    325.06548   -22121.384     125.9646   -22247.349    32847.472 
   86800    283.29528   -22147.458    109.77842   -22257.236     13710.12 
   87000    289.71277   -22156.504    112.26524   -22268.769   -4004.6094 
   87200    352.97985   -22141.468    136.78157   -22278.249    2524.7564 
   87400    312.17459   -22146.806    120.96931   -22267.775    5918.4417 
   87600    292.28886   -22162.165    113.26349   -22275.428   -6579.0629 
   87800    305.69921   -22145.912    118.46006   -22264.372    5577.0927 
   88000     279.6668   -22151.683    108.37237   -22260.056   -9972.6252 
   88200    289.13587   -22163.178    112.04168    -22275.22    2211.2247 
   88400    325.04542   -22137.603    125.95683    -22263.56   -2888.5863 
   88600    281.37558   -22169.842    109.03453   -22278.876    11277.149 
   88800    279.17969    -22153.12    108.18361   -22261.304    2042.6114 
   89000    290.80309   -22148.266    112.68774   -22260.954    2705.0659 
   89200    300.22763   -22157.604     116.3398   -22273.944    24507.062 
   89400    249.46292   -22181.405    96.668206   -22278.074   -4663.0844 
   89600    284.67421   -22153.129    110.31277   -22263.442    14957.495 
   89800    301.35494   -22136.813    116.77664   -22253.589    -11415.09 
   90000    260.27228   -22160.233    100.85689    -22261.09    7487.3711 
   90200    315.81191   -22150.064    122.37879   -22272.443    7904.8775 
   90400    337.95581   -22125.669    130.95967   -22256.629   -12220.271 
   90600    287.11626   -22165.097    111.25908   -22276.356    21823.993 
   90800    291.97619   -22160.804    113.14232   -22273.947   -17972.437 
   91000    316.45709   -22144.982     122.6288   -22267.611   -5977.0077 
   91200    243.89412   -22178.481    94.510264   -22272.991   -19539.724 
   91400    286.14402   -22153.099    110.88233   -22263.982   -8186.3386 
   91600    313.68631   -22147.154    121.55511   -22268.709   -7494.7395 
   91800    265.12765   -22174.563    102.73837   -22277.302    10597.497 
   92000    291.29254    -22155.14     112.8774   -22268.018     17318.99 
   92200    318.68427   -22142.028    123.49185   -22265.519    5213.4416 
   92400    298.08271   -22167.482    115.50863    -22282.99    201.46282 
   92600    317.30026   -22145.814    122.95553    -22268.77   -14427.876 
   92800    284.70492    -22137.67    110.32467   -22247.995   -2335.1885 
   93000    289.82343   -22158.206    112.30812   -22270.515    4016.9802 
   93200     308.0291   -22158.026    119.36291   -22277.389   -8592.2751 
   93400    302.93343   -22137.055    117.38831   -22254.443   -3820.0257 
   93600    260.45845   -22159.599    100.92903   -22260.528    17351.766 
   93800    293.08967   -22153.814     113.5738   -22267.388     7646.484 
   94000    336.36985    -22126.69     130.3451   -22257.036   -1896.9151 
   94200    303.70131   -22160.323    117.68587   -22278.009    794.74402 
   94400    295.27817   -22161.672    114.42186   -22276.094     19494.81 
   94600    333.56891   -22145.139    129.25972   -22274.399   -16261.767 
   94800    265.66274   -22174.291    102.94572   -22277.237   -9711.0564 
   95000    329.34301   -22157.008    127.62216    -22284.63    -17305.24 
   95200    333.88282   -22153.728    129.38136    -22283.11    14483.131 
   95400    261.58427   -22176.357    101.36529   -22277.722   -8347.3128 
   95600    316.76175   -22156.478    122.74686   -22279.225    18876.172 
   95800    296.96289   -22154.377     115.0747   -22269.452   -29643.341 
   96000    300.16284   -22157.697    116.31469   -22274.012   -5458.5212 
   96200    293.51841   -22152.258    113.73994   -22265.998    12991.131 
   96400    318.76405   -22151.705    123.52276   -22275.228   -15850.015 
   96600    336.55536   -22153.915    130.41699   -22284.332    22610.725 
   96800    288.50507   -22167.118    111.79724   -22278.915     11462.11 
   97000    329.14521   -22138.829    127.54551   -22266.374   -17408.216 
   97200    299.29621   -22150.297    115.97887   -22266.276     2789.253 
   97400    292.04394   -22170.182    113.16857    -22283.35   -6311.0684 
   97600     303.4532    -22156.39    117.58973   -22273.979    9239.1482 
   97800    306.60475    -22149.84    118.81097   -22268.651   -9931.3208 
   98000    259.42177   -22175.596    100.52731   -22276.123   -6821.8639 
   98200    313.58238   -22153.442    121.51483   -22274.956   -10189.056 
   98400    318.67675   -22145.506    123.48893   -22268.995    1522.2129 
   98600    286.53957   -22143.308     111.0356   -22254.344   -17228.246 
   98800    235.18782   -22168.742    91.136527   -22259.879   -19271.553 
   99000    299.95546   -22145.438    116.23433   -22261.672    2950.9319 
   99200    298.30653   -22146.933    115.59537   -22262.528   -4221.3515 
   99400    278.00034   -22152.738    107.72661   -22260.465    3176.8717 
   99600    309.15946   -22123.791    119.80093   -22243.592    21571.627 
   99800    317.78142    -22149.15    123.14198   -22272.292   -19117.709 
  100000     290.8294   -22155.384    112.69794   -22268.082   -16398.633 
  100200     310.7949   -22141.991    120.43467   -22262.425   -7578.6841 
  100400     297.8572   -22142.955    115.42124   -22258.376   -1203.9717 
  100600    284.50081   -22166.405    110.24557   -22276.651    14504.611 
  100800    327.15216   -22145.961     126.7732   -22272.734   -1478.9534 
  101000    352.05529   -22117.575    136.42329   -22253.998   -7785.8686 
  101200    316.55597   -22153.228    122.66712   -22275.895   -19378.946 
  101400    302.88574   -22157.788    117.36983   -22275.158    18523.774 
  101600    322.20347   -22134.899    124.85556   -22259.755   -3746.1668 
  101800    321.43551    -22160.82    124.55797   -22285.378    -20914.01 
  102000    287.00886   -22159.822    111.21746   -22271.039   -773.22678 
  102200    325.22387   -22143.153    126.02597   -22269.179   -8520.1037 
  102400    315.33226    -22149.83    122.19292   -22272.023    3281.5771 
  102600    269.34542   -22161.409    104.37278   -22265.782    -8338.084 
  102800    256.44503   -22182.991    99.373811   -22282.364     4648.941 
  103000    336.45205   -22154.658    130.37696   -22285.035    10548.543 
  103200    298.03767   -22161.889    115.49118    -22277.38    -1764.082 
  103400    254.82088   -22181.212    98.744444   -22279.956     3384.554 
  103600    274.79014   -22145.509    106.48264   -22251.991    9659.2958 
  103800    333.16503   -22144.688    129.10322   -22273.791    4014.9966 
  104000    307.77787   -22167.016    119.26556   -22286.281     3429.776 
  104200    355.57052   -22135.444    137.78546   -22273.229    6406.2773 
  104400    298.77623   -22155.083    115.77738    -22270.86   -8719.8767 
  104600    303.10939    -22158.39     117.4565   -22275.847   -16657.578 
  104800    322.80073   -22130.275      125.087   -22255.362    4557.2703 
  105000    261.44124   -22168.774    101.30987   -22270.084   -12083.129 
  105200    299.42902   -22146.266    116.03034   -22262.296   -1019.7182 
  105400    305.76709   -22149.491    118.48637   -22267.978   -2057.5224 
  105600    268.11248   -22162.788    103.89501   -22266.683    925.23116 
  105800    319.63583   -22151.233    123.86058   -22275.093    497.38683 
  106000    322.06122   -22150.465    124.80043   -22275.265   -2091.6637 
  106200    280.69309   -22172.263    108.77006   -22281.033    -699.1066 
  106400    321.14973   -22149.899    124.44722   -22274.346    6014.4482 
  106600    289.63359   -22151.153    112.23455   -22263.388   -20298.147 
  106800    278.58678   -22167.031    107.95385   -22274.985    7558.0333 
  107000    312.88243   -22143.802     121.2436   -22265.046   -18133.412 
  107200    296.36653   -22152.337     114.8436   -22267.181   -9673.8503 
  107400    274.84807   -22170.512    106.50508   -22277.017    1418.7897 
  107600    293.94388   -22137.864    113.90481   -22251.769    34439.669 
  107800    311.53383   -22151.958    120.72101   -22272.679    23.404453 
  108000    281.18536   -22162.014    108.96082   -22270.975   -15438.448 
  108200    293.94391   -22147.877    113.90482   -22261.782   -27833.663 
  108400    302.89696   -22151.216    117.37418    -22268.59    2433.8594 
  108600    277.25886   -22160.702    107.43928   -22268.142    -1701.945 
  108800     279.0073   -22176.699    108.11681   -22284.816   -27180.862 
  109000    304.14683   -22152.198    117.85851   -22270.057   -8443.2889 
  109200    305.63097   -22146.224    118.43362   -22264.657   -10950.649 
  109400     274.6025   -22172.575    106.40993   -22278.985     10608.93 
  109600    270.51182   -22152.519    104.82476   -22257.343    7501.7753 
  109800    282.83769   -22149.284    109.60111   -22258.886    7536.2299 
  110000    274.08821   -22168.926    106.21064   -22275.137    16319.275 
  110200    302.66707   -22156.311     117.2851   -22273.596    13902.004 
  110400    308.85465    -22142.97    119.68281   -22262.653    9724.5991 
  110600    283.86661   -22165.631    109.99982   -22275.631    17720.034 
  110800    347.73395   -22136.971    134.74875    -22271.72   -14505.665 
  111000    292.93135   -22149.173    113.51245   -22262.685    15783.849 
  111200     313.9642    -22158.65    121.66279   -22280.312   -24030.164 
  111400    332.57031   -22140.812    128.87276   -22269.684   -2473.3552 
  111600    315.23301   -22150.801    122.15446   -22272.956    21303.522 
  111800    308.75617   -22164.677    119.64465   -22284.321    920.38364 
  112000    303.66846   -22140.901    117.67314   -22258.574    -58.40274 
  112200    302.86102   -22142.711    117.36025   -22260.072    656.98535 
  112400    268.82663   -22162.471    104.17174   -22266.643   -13122.251 
  112600    329.14615   -22144.198    127.54588   -22271.744   -9120.2762 
  112800    320.86434    -22145.71    124.33663   -22270.047    24095.164 
  113000    295.99819   -22163.681    114.70087   -22278.382   -2197.4172 
  113200    320.22609   -22139.699    124.08931   -22263.788    10379.665 
  113400    304.90182    -22150.52    118.15107   -22268.671   -5366.6456 
  113600    339.65981   -22152.675    131.61998   -22284.295   -5189.2388 
  113800    290.23177   -22147.541    112.46635   -22260.007   -1153.9332 
  114000    322.23942   -22129.861    124.86949    -22254.73     13700.09 
  114200    295.64091    -22162.17    114.56242   -22276.732    4115.4751 
  114400    258.72705   -22151.371     100.2581   -22251.629   -6682.7266 
  114600    318.79254    -22139.62     123.5338   -22263.154   -28921.886 
  114800    289.73658   -22154.798    112.27446   -22267.073    -12889.29 
  115000    294.70657   -22156.895    114.20036   -22271.096    -17811.74 
  115200    276.89223    -22175.92    107.29721   -22283.217   -676.17118 
  115400    307.07532   -22147.815    118.99332   -22266.808   -9731.9956 
  115600    296.45592   -22150.604    114.87824   -22265.483     30591.06 
  115800    321.34972   -22154.875    124.52472     -22279.4   -6720.4275 
  116000    328.25538   -22117.796     127.2007   -22244.997   -4065.8138 
  116200    297.46656   -22151.123    115.26987   -22266.393    481.65505 
  116400    280.69437   -22159.442    108.77056   -22268.213   -10971.574 
  116600    307.67048   -22131.885    119.22394   -22251.109   -6900.5879 
  116800    262.29509    -22163.26    101.64074   -22264.901   -9373.8735 
  117000    277.98041    -22157.28    107.71889   -22264.999    12942.387 
  117200    306.79392   -22136.818    118.88427   -22255.702    1349.9593 
  117400    304.93688   -22166.699    118.16466   -22284.864    16128.945 
  117600    309.55861   -22156.889     119.9556   -22276.845     3562.397 
  117800    313.19727   -22136.749     121.3656   -22258.115    -8423.505 
  118000    272.93072   -22166.829     105.7621   -22272.591   -2352.2125 
  118200    290.44449   -22152.847    112.54878   -22265.395   -5519.9166 
  118400    315.65318   -22141.349    122.31728   -22263.666    -4939.715 
  118600    296.44925   -22171.042    114.87566   -22285.918    -7632.164 
  118800    280.27213   -22156.863    108.60694    -22265.47    -7498.698 
  119000    289.52756    -22151.73    112.19347   -22263.923    15292.402 
  119200    356.85582   -22123.244    138.28352   -22261.528   -1866.9436 
  119400    297.98497   -22153.506    115.47076   -22268.977   -12639.066 
  119600     316.4391   -22154.428    122.62183    -22277.05   -19368.889 
  119800    329.05815    -22139.88    127.51178   -22267.392   -14487.344 
  120000    272.68791   -22155.124    105.66801   -22260.792    4592.6387 
  120200    272.25221   -22162.478    105.49918   -22267.977    18887.453 
  120400    345.42962   -22125.267    133.85581   -22259.123   -10708.213 
  120600    295.34094   -22147.536    114.44618   -22261.983   -17895.456 
  120800    278.89252   -22165.211    108.07233   -22273.283    5246.3192 
  121000    298.00115    -22154.61    115.47703   -22270.087   -31584.883 
  121200    319.68269   -22138.386    123.87874   -22262.264    -1700.004 
  121400    282.57756    -22165.36     109.5003    -22274.86    2615.9334 
  121600    309.65752   -22154.768    119.99393   -22274.762    13813.246 
  121800    413.30087    -22123.26    160.15628   -22283.416   -13707.987 
  122000    312.25017   -22175.516     120.9986   -22296.514    13889.977 
  122200    296.96995   -22190.118    115.07743   -22305.195   -9614.3446 
  122400    283.06239    -22236.14    109.68818   -22345.828    9191.9353 
  122600    290.14502   -22250.346    112.43273   -22362.778   -7877.6097 
  122800    336.55351   -22230.537    130.41627   -22360.953    10375.407 
  123000    260.59922   -22248.825    100.98358   -22349.808    19249.155 
  123200    293.53558   -22250.691     113.7466   -22364.438   -5991.5837 
  123400    322.70809    -22236.63     125.0511   -22361.681     899.0954 
  123600    315.88234    -22244.99    122.40608   -22367.396     2312.454 
  123800    281.49811   -22262.306    109.08201   -22371.388   -15371.701 
  124000    300.65758   -22236.986    116.50641   -22353.493    26840.246 
  124200    297.01108    -22238.43    115.09337   -22353.523   -15915.106 
  124400    265.75785   -22262.536    102.98258   -22365.518   -831.76967 
  124600    303.44295   -22234.986    117.58575   -22352.571   -12009.621 
  124800    284.51163   -22243.116    110.24976   -22353.366   -3134.7639 
  125000    292.21227   -22258.401     113.2338   -22371.635    9929.2963 
  125200    334.17444   -22227.879    129.49437   -22357.374   -316.70571 
  125400    297.04355   -22247.135    115.10595   -22362.241     3933.796 
  125600     289.1856   -22247.766    112.06095   -22359.827   -13331.919 
  125800    347.15813   -22204.892    134.52562   -22339.417    20920.496 
  126000     300.1122   -22236.663    116.29507   -22352.958   -3204.4102 
  126200    300.16017     -22253.3    116.31366   -22369.613    8835.5918 
  126400    301.51734   -22228.671    116.83957    -22345.51    2525.3511 
  126600    314.38668   -22246.961    121.82651   -22368.787    -3950.567 
  126800    300.96137   -22243.683    116.62413   -22360.307    17913.511 
  127000    297.28246   -22228.897    115.19853   -22344.095    11333.854 
  127200    270.11746   -22248.735    104.67195   -22353.406   -13320.008 
  127400    274.47612   -22254.661    106.36095   -22361.022    8148.2585 
  127600    328.05786    -22225.22    127.12416   -22352.345   -187.72615 
  127800     301.7088   -22241.119    116.91376   -22358.033    11924.953 
  128000    282.23731   -22240.516    109.36846   -22349.885    13293.252 
  128200      326.403   -22222.755     126.4829   -22349.238    27417.594 
  128400    310.59479   -22245.929    120.35713   -22366.286   -6730.0959 
  128600    324.52813    -22234.73    125.75637   -22360.487   -24563.434 
  128800    362.97153   -22221.163    140.65339   -22361.817    5574.4323 
  129000    284.24084   -22244.897    110.14483   -22355.042   -10576.041 
  129200    298.83898   -22233.141    115.80169   -22348.943   -7648.8774 
  129400     317.6664   -22217.064    123.09741   -22340.162   -17063.907 
  129600    281.17343   -22251.158     108.9562   -22360.114   -7171.2394 
  129800    301.16226   -22233.175    116.70198   -22349.877    18532.966 
  130000    320.89627   -22226.944    124.34901   -22351.293     4368.258 
  130200    294.09325   -22236.918     113.9627   -22350.881    -15025.48 
  130400    308.78715   -22246.073    119.65666   -22365.729   -8332.2085 
  130600    272.36982   -22241.332    105.54475   -22346.877     4746.417 
  130800    329.41204   -22220.874    127.64891   -22348.523    26504.333 
  131000    276.61659   -22251.463    107.19039   -22358.653    10530.383 
  131200     287.6468   -22237.851    111.46466   -22349.316     4283.522 
  131400    341.06486   -22211.035    132.16444   -22343.199    13451.909 
  131600    313.12866   -22234.686    121.33902   -22356.025    12596.819 
  131800    294.74181   -22246.143    114.21402   -22360.357    27759.419 
  132000    313.12789   -22220.987    121.33872   -22342.326   -3016.0536 
  132200    299.60522    -22246.04    116.09861   -22362.139   -5202.8173 
  132400    309.42677   -22241.796    119.90452   -22361.701    30664.802 
  132600    330.24101   -22219.404    127.97014   -22347.374   -22928.822 
  132800    289.93483   -22232.611    112.35128   -22344.962     9431.835 
  133000    291.02652   -22252.289    112.77432   -22365.063    6388.6354 
  133200    302.72133   -22230.674    117.30612    -22347.98   -9384.5764 
  133400    298.20301   -22235.125    115.55525    -22350.68   -7352.1691 
  133600    288.03613   -22242.519    111.61553   -22354.135    -7313.179 
  133800    315.89859   -22241.789    122.41238   -22364.201    527.39504 
  134000    276.47349   -22262.021    107.13494   -22369.156    3198.9492 
  134200    322.81616   -22237.986    125.09298   -22363.079   -4084.2993 
  134400    308.83318   -22239.527    119.67449   -22359.201    2409.3265 
  134600      284.172   -22252.126    110.11816   -22362.244    2418.0759 
  134800    273.15104   -22268.023    105.84748   -22373.871    4522.8931 
  135000    332.20311   -22241.559    128.73047    -22370.29   -29935.187 
  135200    303.58842    -22245.11    117.64212   -22362.752    7376.5203 
  135400    273.24502   -22265.132     105.8839   -22371.015   -18577.464 
  135600    307.35384   -22240.921    119.10125   -22360.022    7007.1465 
  135800    295.30784   -22243.127    114.43336   -22357.561   -19151.563 
  136000    259.52575   -22257.756    100.56761   -22358.324   -26051.991 
  136200    304.99544   -22231.434    118.18735   -22349.622    10302.688 
  136400    334.46653   -22234.397    129.60756   -22364.004    21666.702 
  136600    315.96198   -22258.286    122.43694   -22380.723   -5564.7058 
  136800    310.13895   -22241.003    120.18049   -22361.183    1004.0414 
  137000     308.4026   -22242.918    119.50765   -22362.426    905.92347 
  137200    253.02929   -22260.705    98.050193   -22358.755   -4736.0122 
  137400    298.40671   -22236.265    115.63419   -22351.899   -18742.952 
  137600    289.87802    -22248.21    112.32927   -22360.539    4609.3576 
  137800    256.50551   -22265.449    99.397248   -22364.847   -9384.8923 
  138000    297.59814   -22233.434    115.32086   -22348.755   -2630.1977 
  138200    291.62483   -22245.222    113.00617   -22358.228    19994.766 
  138400    276.29145   -22249.933     107.0644   -22356.998    23128.691 
  138600    332.02362   -22226.297    128.66091   -22354.958    17578.128 
  138800    285.15986   -22252.993    110.50096   -22363.494    4253.7199 
  139000    303.17224   -22245.752    117.48085   -22363.233    11051.809 
  139200    329.05574   -22223.662    127.51085   -22351.173   -2093.0916 
  139400    309.87478   -22236.805    120.07812   -22356.883    5916.0661 
  139600    312.00829   -22249.187    120.90487   -22370.092    178.79574 
  139800    330.11208   -22228.683    127.92018   -22356.604   -2673.7842 
  140000    307.69018   -22245.121    119.23158   -22364.352    25659.709 
  140200      288.287   -22249.175    111.71274   -22360.888    -17593.99 
  140400    292.91272    -22229.49    113.50523   -22342.996    -1858.386 
  140600    315.01692   -22238.587    122.07073   -22360.658   -12087.353 
  140800    301.14505   -22243.972    116.69531   -22360.668   -11512.149 
  141000    297.47278   -22252.258    115.27228   -22367.531   -10673.431 
  141200    333.18382   -22226.918     129.1105   -22356.028   -21771.374 
  141400    294.70962   -22240.833    114.20154   -22355.035    1028.4951 
  141600    280.12059   -22251.828    108.54822   -22360.376    26543.792 
  141800     296.1666   -22233.393    114.76613   -22348.159   -16110.688 
  142000    270.86553   -22246.184    104.96183   -22351.146    6822.2231 
  142200    277.69629   -22255.343    107.60879   -22362.952   -6724.8085 
  142400    333.77319   -22231.039    129.33888   -22360.378    -6839.468 
  142600    292.89389   -22248.462    113.49794    -22361.96     5652.162 
  142800    280.92017   -22247.718    108.85806   -22356.576    18875.868 
  143000    291.94824   -22222.713    113.13149   -22335.845   -33624.825 
  143200    317.17314   -22248.854    122.90627    -22371.76    14029.722 
  143400    293.33279    -22243.77    113.66801   -22357.438   -8614.0064 
  143600    352.83326   -22212.367    136.72476   -22349.092    23424.909 
  143800    334.13582   -22239.551     129.4794    -22369.03    15929.316 
  144000    293.15511   -22247.757    113.59916   -22361.356    18739.766 
  144200    333.06798   -22218.958    129.06561   -22348.024   -4568.9129 
  144400     288.3298   -22247.887    111.72933   -22359.616    6554.5902 
  144600    308.10168   -22240.129    119.39104    -22359.52    9029.4411 
  144800    292.13179   -22232.726    113.20262   -22345.928   -4874.1635 
  145000    268.63326    -22255.25    104.09681   -22359.347    11321.332 
  145200     317.8846   -22236.218    123.18197     -22359.4   -1538.5383 
  145400    340.23156   -22233.667    131.84153   -22365.509    8147.2527 
  145600    290.41376   -22254.477    112.53687   -22367.013     12021.19 
  145800    280.68493   -22261.406     108.7669   -22370.173    6155.3899 
  146000     299.4241   -22235.353    116.02843   -22351.381    1089.1742 
  146200    302.19229   -22241.711    117.10112   -22358.813     1547.064 
  146400    286.39391   -22260.047    110.97916   -22371.026   -13009.631 
  146600    309.87353   -22228.109    120.07764   -22348.187   -609.55048 
  146800    286.57396   -22239.285    111.04893   -22350.334   -504.45551 
  147000    278.11602   -22256.822    107.77143   -22364.593    -24334.52 
  147200     335.3083   -22224.203    129.93375   -22354.137    19060.805 
  147400    323.34762     -22242.1    125.29892   -22367.399    -22491.65 
  147600     301.5867   -22241.803    116.86644   -22358.669     14098.82 
  147800    312.65388   -22218.767    121.15504   -22339.922   -17918.603 
  148000    271.71073   -22246.148    105.28935   -22351.437   -17003.328 
  148200    315.48386   -22239.923    122.25167   -22362.175   -4099.3238 
  148400    325.16343   -22211.437    126.00256   -22337.439   -11476.964 
  148600    297.80207   -22237.869    115.39988   -22353.269   -1904.2215 
  148800    287.26418   -22240.185    111.31639   -22351.501     10929.45 
  149000    319.29126   -22227.399    123.72706   -22351.127   -3627.6018 
  149200    305.12956   -22243.764    118.23932   -22362.003    2387.9758 
  149400    279.50492   -22250.027    108.30964   -22358.337    14403.132 
  149600    308.82096   -22230.629    119.66976   -22350.299   -21679.172 
  149800    306.92962    -22238.33    118.93685   -22357.266      7802.03 
  150000    282.15365   -22257.152    109.33604   -22366.488    17075.898 
  150200    326.83182    -22231.17    126.64906   -22357.819   -565.68764 
  150400    310.77432   -22244.443     120.4267    -22364.87    4570.1507 
  150600    273.18662   -22251.819    105.86127    -22357.68   -3660.4887 
  150800    322.88755   -22228.803    125.12064   -22353.924   -21838.204 
  151000    287.04934   -22239.145    111.23314   -22350.378    22812.038 
  151200    274.24008   -22236.565    106.26949   -22342.834   -8417.7499 
  151400    260.80866   -22246.366    101.06474   -22347.431   -3935.0045 
  151600    274.51853   -22265.678    106.37739   -22372.055   -7726.1249 
  151800    324.97557   -22232.227    125.92976   -22358.157    -10879.57 
  152000    319.17707   -22245.331    123.68281   -22369.014    5688.1579 
  152200    274.96336   -22253.244    106.54976   -22359.793    13601.963 
  152400    303.03195    -22224.94    117.42649   -22342.366   -10082.755 
  152600    273.64242   -22251.029    106.03789   -22357.067    4657.7493 
  152800    307.72957   -22243.712    119.24684   -22362.958   -18050.906 
  153000    307.70174   -22239.175    119.23606   -22358.411    21940.874 
  153200    301.04475   -22234.304    116.65644    -22350.96   -443.25264 
  153400    278.16495   -22244.085    107.79039   -22351.876    16327.186 
  153600    304.62276    -22232.92    118.04293   -22350.963    -9496.822 
  153800    305.92906   -22226.009    118.54913   -22344.558    904.94571 
  154000    308.59325   -22248.051    119.58152   -22367.633    13930.697 
  154200    324.90181   -22228.429    125.90117    -22354.33   -4146.0668 
  154400    299.79445   -22240.223    116.17194   -22356.395   -8418.9109 
  154600    282.35972   -22250.965    109.41589    -22360.38   -12839.656 
  154800    323.23083   -22226.942    125.25366   -22352.196    8211.7025 
  155000    310.20607   -22236.674     120.2065    -22356.88    7952.2505 
  155200    295.22878   -22234.152    114.40272   -22348.555   -12718.106 
  155400    305.79017   -22230.001    118.49531   -22348.496   -19760.906 
  155600    252.46864    -22246.41    97.832938   -22344.243      2722.16 
  155800    308.13354   -22248.208    119.40338   -22367.612    4283.1585 
  156000    327.01216    -22223.37    126.71895   -22350.089    5882.7745 
  156200    295.96511   -22246.045    114.68805   -22360.733    12379.094 
  156400     275.2385   -22242.873    106.65638   -22349.529   -27795.235 
  156600    325.94607   -22225.321    126.30583   -22351.627   -17350.048 
  156800    308.96017   -22251.356    119.72371    -22371.08   -13893.582 
  157000    313.04023   -22239.532    121.30475   -22360.836   -18334.668 
  157200     312.8449   -22231.522    121.22906   -22352.751    6889.0808 
  157400      289.686   -22244.842    112.25486   -22357.097    -16652.89 
  157600    299.49477   -22245.996    116.05581   -22362.052    23654.506 
  157800     299.5576   -22230.223    116.08016   -22346.303   -20271.386 
  158000    294.89971   -22231.258     114.2752   -22345.533    4344.0356 
  158200    293.16142   -22243.354     113.6016   -22356.955   -6732.4546 
  158400     298.9922   -22240.065    115.86107   -22355.926    333.49907 
  158600    334.85328   -22223.252    129.75742   -22353.009   -9285.2242 
  158800    294.33665   -22244.573    114.05701    -22358.63    9756.6376 
  159000    289.83146   -22243.015    112.31123   -22355.327    11885.393 
  159200    361.30741   -22213.531    140.00854    -22353.54     9432.328 
  159400     313.2785   -22238.212    121.39708   -22359.609    3563.3868 
  159600    316.12273   -22237.128    122.49924   -22359.627    21646.878 
  159800    255.95098   -22257.223    99.182361   -22356.406   -27087.684 
  160000    336.71286   -22227.222    130.47802     -22357.7   -3684.9349 
  160200    315.12465   -22237.052    122.11247   -22359.165    10918.049 
  160400    310.27826   -22244.262    120.23447   -22364.497   -25007.499 
  160600      280.679   -22249.096     108.7646    -22357.86   -26526.371 
  160800    331.79993   -22221.551    128.57423   -22350.126   -8169.8168 
  161000      302.777   -22249.289    117.32769   -22366.617    11147.769 
  161200    275.49489   -22240.974    106.75573    -22347.73    2222.8042 
  161400    285.98809   -22237.958     110.8219    -22348.78    -3604.562 
  161600    269.02202   -22266.432    104.24746   -22370.679    10360.113 
  161800    297.28115   -22239.418    115.19802   -22354.616   -10016.346 
  162000    314.11249   -22234.791    121.72026   -22356.512   -11977.449 
  162200    300.70806   -22240.219    116.52597   -22356.745   -12239.241 
  162400    270.37313   -22233.002    104.77102   -22337.773    15802.072 
  162600    306.74684   -22224.064    118.86603    -22342.93    3704.2685 
  162800    260.75791   -22250.918    101.04508   -22351.963    19872.093 
  163000    343.35832   -22233.592    133.05317   -22366.645    16769.734 
  163200    255.42598   -22261.162    98.978922   -22360.141   -14946.114 
  163400    281.23931   -22246.068    108.98172    -22355.05   -3028.6609 
  163600    292.81769   -22232.056    113.46841   -22345.525    25777.729 
  163800    268.33558   -22256.982    103.98146   -22360.964   -9602.2198 
  164000     296.1114   -22248.484    114.74474   -22363.228   -6939.2673 
  164200    319.97712    -22234.41    123.99283   -22358.403   -3564.6747 
  164400    284.36577   -22238.076    110.19324   -22348.269    15729.721 
  164600    283.16049    -22251.61    109.72619   -22361.336    6060.7274 
  164800    340.35574   -22225.041    131.88965   -22356.931    4712.2115 
  165000    290.91382   -22237.467    112.73065   -22350.197    5382.3904 
  165200    293.65116   -22241.425    113.79138   -22355.217    -20234.15 
  165400    302.11042   -22215.988    117.06939   -22333.057    12862.953 
  165600    277.35613   -22242.565    107.47697   -22350.042    6924.6059 
  165800    305.38176   -22243.693    118.33705    -22362.03    14501.391 
  166000    311.43444   -22232.979     120.6825   -22353.661     824.8344 
  166200    273.00682   -22243.616    105.79159   -22349.407   -11659.485 
  166400    312.47787   -22234.357    121.08683   -22355.443   -10381.302 
  166600    315.31859   -22229.236    122.18763   -22351.424   -22234.839 
  166800    302.58579   -22251.136     117.2536    -22368.39    6099.3035 
  167000    267.41932   -22241.369    103.62641   -22344.995   -13638.437 
  167200    335.12871   -22211.334    129.86415   -22341.198    26865.646 
  167400    316.36475   -22240.639    122.59302   -22363.232    7126.3304 
  167600    299.39449   -22246.372    116.01696   -22362.389   -4177.8247 
  167800     338.7233   -22225.018    131.25707   -22356.275   -24194.874 
  168000    324.36682   -22242.994    125.69386   -22368.688   -26241.679 
  168200    286.20464   -22241.347    110.90582   -22352.252   -6210.6991 
  168400    302.55772   -22238.503    117.24272   -22355.746    2387.0668 
  168600    290.05237   -22266.393    112.39683    -22378.79   -6793.1595 
  168800    295.35088   -22240.515    114.45003   -22354.965   -16912.594 
  169000    327.27467   -22232.035    126.82067   -22358.856   -627.58724 
  169200    280.80522   -22248.917    108.81351   -22357.731    7964.9533 
  169400    258.23963   -22253.145    100.06923   -22353.214   -4222.6417 
  169600    296.34327   -22233.898    114.83459   -22348.732   -11381.813 
  169800    280.08502   -22249.124    108.53443   -22357.659    5346.3009 
  170000     260.7359   -22243.395    101.03654   -22344.432    6769.2535 
  170200    349.84478   -22221.404    135.56671   -22356.971   -8188.4742 
  170400    261.97847   -22251.498    101.51805   -22353.016    7102.9858 
  170600    277.94435   -22239.004    107.70491   -22346.709    1523.4757 
  170800    306.17432   -22223.633    118.64417   -22342.277    3523.6724 
  171000    342.99812   -22207.555    132.91359   -22340.468   -16374.309 
  171200    303.63319   -22236.178    117.65947   -22353.838    2909.4451 
  171400    316.54449   -22249.596    122.66267   -22372.258    -1706.073 
  171600    265.19881   -22245.349    102.76595   -22348.115   -6371.2009 
  171800    334.54619   -22224.454    129.63842   -22354.092   -11367.966 
  172000    309.43264   -22252.495    119.90679   -22372.402   -710.40008 
  172200    282.46633   -22239.979     109.4572   -22349.436    6081.8139 
  172400    281.81646   -22232.225    109.20537    -22341.43   -12462.622 
  172600    305.89418   -22233.766    118.53562   -22352.301   -5453.1507 
  172800    281.76654   -22246.937    109.18603   -22356.123      1929.72 
  173000    323.14516    -22225.29    125.22047    -22350.51    4172.8465 
  173200    338.36834   -22230.924    131.11953   -22362.044   -20947.356 
  173400    258.79544   -22248.144    100.28461   -22348.428   -1220.5127 
  173600    319.56746   -22233.805    123.83409   -22357.639   -8171.7936 
  173800     292.6415   -22235.029    113.40014    -22348.43    370.61055 
  174000    289.74451   -22241.036    112.27754   -22353.313   -23609.448 
  174200     281.1987   -22254.837    108.96599   -22363.803    19077.765 
  174400    330.47177   -22228.614    128.05956   -22356.674    24280.658 
  174600    299.52061   -22238.046    116.06583   -22354.112    4634.0324 
  174800    270.80763   -22267.577    104.93939   -22372.517    1267.1473 
  175000    306.14895   -22247.436    118.63434   -22366.071    1349.1138 
  175200    321.60898   -22238.064    124.62519    -22362.69     12974.82 
  175400    282.37039   -22240.608    109.42003   -22350.028    5482.4777 
  175600    272.88484   -22253.125    105.74432   -22358.869   -24914.237 
  175800    301.00479   -22235.546    116.64095   -22352.187    18729.685 
  176000     297.4521   -22250.407    115.26427   -22365.671     5101.927 
  176200    301.52229   -22248.771    116.84149   -22365.612   -5743.5368 
  176400    346.79112   -22212.794     134.3834   -22347.178   -1517.9006 
  176600     300.8138    -22238.43    116.56695   -22354.997   -9698.3854 
  176800     291.9942   -22234.007     113.1493   -22347.156   -12937.218 
  177000     367.2034   -22205.227    142.29327    -22347.52   -3548.7721 
  177200    320.64479   -22236.227    124.25156   -22360.478   -9542.4436 
  177400    311.15347   -22250.292    120.57362   -22370.866    16252.186 
  177600    345.74765    -22222.28    133.97905   -22356.259   -8986.6451 
  177800    272.60965   -22228.973    105.63769    -22334.61    5555.0861 
[...]
  950000    289.67707   -22417.178     112.2514    -22529.43     21935.72 
  950200    283.52929   -22422.967     109.8691   -22532.836   -10502.742 
  950400    284.42288   -22426.434    110.21537   -22536.649   -5856.7545 
  950600    341.49774    -22401.14    132.33219   -22533.472   -14884.177 
  950800     311.6938   -22420.373      120.783   -22541.156    10050.014 
  951000    281.48038    -22428.73    109.07514   -22537.805    8929.1824 
  951200    302.10007   -22413.569    117.06538   -22530.634    5611.5111 
  951400    299.84299   -22411.965    116.19075   -22528.156    205.40779 
  951600    292.68584   -22434.701    113.41731   -22548.118   -13916.174 
  951800    285.48692   -22413.494     110.6277   -22524.122    6113.5122 
  952000    307.69942   -22413.892    119.23516   -22533.128   -6447.8032 
  952200    295.58638   -22414.753    114.54129   -22529.294    -2756.215 
  952400    313.64228   -22418.888    121.53805   -22540.427    110.96908 
  952600    310.60052    -22400.06    120.35935   -22520.419    10562.341 
  952800    281.02568   -22413.779    108.89894   -22522.678    7318.6877 
  953000     298.6414   -22422.064    115.72513   -22537.789   -6149.0793 
  953200    310.22505   -22401.228    120.21385   -22521.442    16870.708 
  953400    311.03371   -22409.498    120.52721   -22530.025    10564.845 
  953600    302.83361    -22419.17    117.34963   -22536.519    5120.1088 
  953800    325.08433    -22390.64     125.9719   -22516.612    2579.6071 
  954000    297.57976   -22416.034    115.31374   -22531.348   -10041.008 
  954200    286.41957   -22418.649     110.9891   -22529.638    15570.827 
  954400    316.88454   -22398.845    122.79444   -22521.639   -19031.056 
  954600    330.97361   -22391.057    128.25403   -22519.311   -5799.4302 
  954800    289.93254     -22413.4     112.3504    -22525.75   -953.49051 
  955000    310.09352   -22403.951    120.16288   -22524.114    14684.182 
  955200    303.32953   -22414.534     117.5418   -22532.075   -1204.0566 
  955400    293.66431   -22426.189    113.79648   -22539.985    21364.214 
  955600    315.34323   -22395.463    122.19717    -22517.66   -1778.2768 
  955800    280.40624   -22413.855    108.65891   -22522.514   -9337.0829 
  956000    281.74088   -22421.384    109.17609    -22530.56    7139.7043 
  956200    333.79172   -22385.414    129.34606    -22514.76    11655.846 
  956400    314.18002   -22415.131    121.74642   -22536.878    14820.196 
  956600    267.23688   -22424.328    103.55571   -22527.884    1410.2024 
  956800    304.92967   -22393.246    118.16187   -22511.408     1353.864 
  957000    303.68505   -22409.136    117.67957   -22526.815    8034.6184 
  957200    299.64989   -22412.961    116.11592   -22529.077    5377.8854 
  957400    292.84646   -22406.391    113.47956    -22519.87    7193.6509 
  957600     339.0709   -22380.285    131.39177   -22511.677    27292.208 
  957800     297.0341   -22411.812    115.10229   -22526.914   -2511.9645 
  958000    296.03131   -22419.697    114.71371   -22534.411    261.37285 
  958200    300.61677   -22414.923    116.49059   -22531.413    18097.152 
  958400     309.8976       -22410    120.08696   -22530.087   -12042.978 
  958600    282.67288   -22427.117    109.53724   -22536.655   -3051.1236 
  958800    323.62079   -22418.628    125.40477   -22544.033      12044.8 
  959000    305.75476   -22406.453    118.48159   -22524.935    29951.271 
  959200    267.30594   -22428.149    103.58247   -22531.731    7725.8163 
  959400    289.01799   -22415.453    111.99601   -22527.449    9609.0677 
  959600    305.03703   -22405.004    118.20347   -22523.207    13771.505 
  959800    299.88586   -22426.435    116.20736   -22542.642   -17417.173 
  960000    325.64504   -22420.273    126.18918   -22546.462     4269.036 
  960200    279.25029   -22411.977    108.21097   -22520.188    12220.969 
  960400    305.45055   -22416.581    118.36371   -22534.945    3623.0951 
  960600    288.85066   -22434.913    111.93116   -22546.844    4290.7641 
  960800    304.79298   -22404.618     118.1089   -22522.727    1196.0165 
  961000    306.49503     -22414.8    118.76845   -22533.568    2295.3072 
  961200    249.88964   -22437.564    96.833562   -22534.397     11217.74 
  961400    289.22853   -22408.149    112.07759   -22520.227   -208.19676 
  961600      334.703   -22406.158    129.69919   -22535.857    4130.3137 
  961800    310.69781   -22425.536    120.39705   -22545.934    15692.822 
  962000    310.64636   -22394.669    120.37711   -22515.046    -27608.73 
  962200    297.14815   -22412.488    115.14649   -22527.634    -5605.235 
  962400    320.16138   -22418.869    124.06423   -22542.934   -4578.4688 
  962600    304.33202   -22402.676    117.93027   -22520.606    24014.565 
  962800    306.82425   -22411.722    118.89602   -22530.618   -8533.0371 
  963000    298.90779   -22411.565    115.82836   -22527.394   -3028.4795 
  963200    329.63213   -22393.651     127.7342   -22521.385    43080.019 
  963400    308.49145   -22419.683    119.54207   -22539.225    17879.693 
  963600    304.81293   -22413.186    118.11663   -22531.303    16269.103 
  963800    316.75985   -22388.005    122.74612   -22510.751   -717.00236 
  964000    310.02133   -22417.956    120.13491   -22538.091   -24146.402 
  964200    322.71692   -22411.313    125.05452   -22536.368    8505.4501 
  964400    348.40449   -22386.227    135.00859   -22521.236   -9993.5487 
  964600    315.90284   -22420.204    122.41403   -22542.618   -1789.9251 
  964800    329.20569   -22413.605    127.56895   -22541.174   -7223.7668 
  965000    306.00873   -22391.565    118.58001   -22510.145    21025.681 
  965200    292.40848   -22404.037    113.30984   -22517.347    12109.148 
  965400     270.4905   -22418.003    104.81651   -22522.819    31937.034 
  965600    299.77968   -22412.881    116.16622   -22529.048   -11718.941 
  965800     322.3826   -22396.653    124.92497   -22521.578    7707.9336 
  966000    285.55274   -22426.122     110.6532   -22536.775   -4332.4675 
  966200     282.8626   -22416.487    109.61076   -22526.098    6621.2942 
  966400    277.60388   -22407.191    107.57298   -22514.764   -7671.1745 
  966600    295.78749   -22411.788    114.61922   -22526.407   -2737.3723 
  966800    257.05182   -22426.715    99.608944   -22526.324   -23891.616 
  967000     297.9554   -22404.242     115.4593   -22519.701    3890.8078 
  967200     279.3056    -22414.46     108.2324   -22522.692   -7706.6915 
  967400    292.84244   -22418.813      113.478   -22532.291    11585.948 
  967600    292.83946   -22407.287    113.47684   -22520.764    3589.3606 
  967800    323.68767   -22402.368    125.43069   -22527.799   -8181.4803 
  968000    270.46001   -22425.351    104.80469   -22530.155    2947.5536 
  968200    281.84289   -22407.516    109.21562   -22516.731    6249.2648 
  968400     270.5618   -22405.777    104.84413   -22510.621    4332.9255 
  968600    315.29888   -22407.354    122.17999   -22529.534    17065.229 
  968800    293.39251   -22420.808    113.69116   -22534.499    10159.594 
  969000    293.32401   -22407.548    113.66461   -22521.213    18612.839 
  969200    315.74689   -22401.081     122.3536   -22523.435    -12753.06 
  969400    289.84708   -22417.858    112.31728   -22530.175    5886.0575 
  969600    296.56384   -22408.842    114.92006   -22523.762   -5951.3425 
  969800    313.04468   -22388.117    121.30648   -22509.424   -7705.9209 
  970000    267.67722   -22418.365    103.72634   -22522.091   -5008.6657 
  970200    301.65496   -22409.949     116.8929   -22526.842   -16035.319 
  970400    346.19265    -22390.22    134.15149   -22524.371   -11223.032 
  970600    310.10381   -22414.041    120.16687   -22534.208   -18643.288 
  970800    312.24271   -22418.438    120.99571   -22539.434   -3947.0382 
  971000    331.84614   -22392.768    128.59214    -22521.36    15048.293 
  971200    309.68915   -22423.216    120.00619   -22543.222   -6941.9589 
  971400    281.77445   -22415.705    109.18909   -22524.894   -19301.539 
  971600    312.77383   -22395.693    121.20152   -22516.894   -22014.731 
  971800    298.92367   -22428.336    115.83451    -22544.17     10576.93 
  972000     293.5263   -22410.965      113.743   -22524.708      14822.4 
  972200    290.41228   -22402.951     112.5363   -22515.488   -19576.196 
  972400    244.88115    -22430.85    94.892745   -22525.743    13857.618 
  972600    314.18254   -22405.079     121.7474   -22526.826   -8889.3007 
  972800    294.81259    -22405.97    114.24144   -22520.212    -11997.23 
  973000    276.04695   -22415.658    106.96966   -22522.628    4461.7207 
  973200    280.63548   -22407.454    108.74774   -22516.201    5066.6554 
  973400    334.86629    -22400.24    129.76247   -22530.002    31064.327 
  973600    275.20946   -22428.593    106.64513   -22535.238   -6886.9976 
  973800     313.7357    -22405.26    121.57425   -22526.834   -3144.6304 
  974000    337.44502   -22405.712    130.76173   -22536.474    4509.3668 
  974200    274.38569   -22426.582    106.32591   -22532.908   -5242.4058 
  974400    272.69521   -22433.479    105.67084    -22539.15   -577.43654 
  974600    301.21954   -22406.439    116.72417   -22523.163   -5503.1633 
  974800    295.37074    -22411.33    114.45773   -22525.788   -1109.8523 
  975000    271.18823   -22427.402    105.08688   -22532.489    10121.765 
  975200     333.6147    -22396.62    129.27747   -22525.897   -21580.617 
  975400    278.54455   -22415.018    107.93749   -22522.956    11334.537 
  975600    285.19027   -22421.268    110.51274   -22531.781    10663.012 
  975800    321.19281   -22395.186    124.46392    -22519.65   -23781.664 
  976000    303.39649   -22404.623    117.56775   -22522.191    19713.733 
  976200    286.41396   -22419.424    110.98693    -22530.41   -328.43117 
  976400    320.63637   -22401.463    124.24829   -22525.711   -1383.7892 
  976600    268.83672   -22427.827    104.17566   -22532.003    20160.012 
  976800    310.52793   -22420.549    120.33122   -22540.881   -19396.672 
  977000    330.61304   -22410.148    128.11431   -22538.262     1957.901 
  977200    246.18156   -22434.259    95.396661   -22529.656    -7486.425 
  977400     256.5807   -22425.273    99.426381   -22524.699    17805.709 
  977600    300.47193    -22408.94    116.43447   -22525.375   -6048.5317 
  977800    306.97019    -22409.53    118.95258   -22528.482   -1057.8858 
  978000    259.73468    -22430.66    100.64857   -22531.309    22627.483 
  978200    311.15558   -22398.667    120.57444   -22519.242     4698.828 
  978400     293.3731   -22408.241    113.68363   -22521.925   -3524.7396 
  978600    290.28311   -22416.724    112.48625    -22529.21    2704.5859 
  978800    341.07537   -22388.221    132.16852   -22520.389    5149.7491 
  979000    285.78369   -22417.051     110.7427   -22527.794   -15515.002 
  979200    306.42615   -22414.369    118.74176   -22533.111    5251.2017 
  979400    333.42973   -22387.099    129.20579   -22516.305    7395.6224 
  979600    299.04229   -22414.216    115.88047   -22530.096    8396.5297 
  979800    243.43682   -22418.564     94.33306   -22512.897    8631.0134 
  980000    322.74992   -22400.993    125.06731   -22526.061   -32456.227 
  980200    316.64422   -22399.089    122.70131    -22521.79    14992.182 
  980400    295.85033    -22420.58    114.64357   -22535.224    11174.509 
  980600    328.97705   -22398.838    127.48035   -22526.319    -33798.39 
  980800    290.98753   -22415.666    112.75921   -22528.425   -26100.698 
  981000    288.59965    -22417.85     111.8339   -22529.684     3722.642 
  981200    323.59124    -22398.73    125.39332   -22524.123   -3039.0234 
  981400    289.71829   -22430.475    112.26738   -22542.742    29666.593 
  981600    298.36269   -22416.581    115.61713   -22532.198    9829.4094 
  981800    300.26651   -22403.458    116.35487   -22519.813    7499.8501 
  982000    266.43203   -22426.392    103.24383   -22529.636   -7627.1911 
  982200    265.86979   -22419.469    103.02596   -22522.495     3145.754 
  982400    306.88084   -22401.801    118.91795   -22520.719    25075.535 
  982600    265.57625   -22429.383    102.91221   -22532.295     3409.637 
  982800    268.04036   -22420.285    103.86706   -22524.152    28472.715 
  983000     332.3914   -22401.963    128.80343   -22530.767     10209.13 
  983200    275.75989   -22427.841    106.85842   -22534.699   -432.32335 
  983400    295.02554   -22420.911    114.32396   -22535.235    16513.113 
  983600    341.94933   -22408.121    132.50718   -22540.629    8181.9302 
  983800    294.11705   -22409.637    113.97192   -22523.609   -12143.866 
  984000    274.43255   -22432.732    106.34407   -22539.076    -4891.806 
  984200    327.84573   -22405.308    127.04196    -22532.35   -24304.114 
  984400    294.35572   -22413.104     114.0644   -22527.168    543.69981 
  984600    263.00309   -22438.386    101.91509   -22540.301   -2028.5953 
  984800    291.16478   -22413.632     112.8279    -22526.46    -6566.591 
  985000    317.21337   -22403.593    122.92186   -22526.515    8200.2107 
  985200    282.75157   -22428.948    109.56774   -22538.516    13169.802 
  985400    271.54592   -22413.139    105.22549   -22518.365    39054.456 
  985600    286.72217   -22404.781    111.10636   -22515.888    4974.8709 
  985800    284.77778   -22425.564     110.3529   -22535.917   -9960.0001 
  986000    313.60883   -22403.676    121.52508   -22525.201   -2028.7631 
  986200    302.79683   -22410.677    117.33538   -22528.012    16072.315 
  986400    275.99818   -22419.241    106.95076   -22526.192   -12613.799 
  986600    306.35787   -22404.991     118.7153   -22523.707    14481.702 
  986800    280.97111   -22406.649    108.87779   -22515.527    9743.4849 
  987000     270.6825   -22427.696    104.89091   -22532.587   -16137.558 
  987200    291.68501   -22404.556    113.02949   -22517.585   -15911.797 
  987400    292.84519   -22407.945    113.47907   -22521.424    2421.7055 
  987600    306.78536   -22409.403    118.88096   -22528.284   -8105.7412 
  987800     293.8682   -22420.608    113.87549   -22534.483    5141.6836 
  988000     332.5866   -22408.564    128.87907   -22537.443   -4924.8758 
  988200    290.16299    -22400.22     112.4397    -22512.66    1448.2447 
  988400    266.87678   -22427.691    103.41617   -22531.107    23576.856 
  988600    290.34754   -22417.233    112.51121   -22529.744    22315.076 
  988800     275.7477    -22409.36     106.8537   -22516.214   -13653.322 
  989000    296.27251     -22422.4    114.80717   -22537.207   -6259.4859 
  989200    301.91494   -22420.275    116.99364   -22537.269    15335.295 
  989400    306.08809   -22407.646    118.61076   -22526.257    10686.068 
  989600    312.25483   -22416.318     121.0004   -22537.318    -5527.366 
  989800    310.85681   -22405.258    120.45866   -22525.716    9888.9774 
  990000    349.30559   -22399.182    135.35777    -22534.54    8655.9263 
  990200    263.00565   -22425.122    101.91609   -22527.038   -577.50123 
  990400    314.39177   -22408.832    121.82848    -22530.66   -1957.7209 
  990600    274.36231   -22403.571    106.31685   -22509.888    16209.703 
  990800    301.84954   -22416.689     116.9683   -22533.657    12198.797 
  991000    302.02802   -22433.747    117.03746   -22550.785    10624.187 
  991200    304.30044   -22402.768    117.91804   -22520.686   -14344.688 
  991400    289.98766    -22417.33    112.37176   -22529.702    2052.1487 
  991600     323.2313   -22418.295    125.25384   -22543.549    13015.987 
  991800    314.85909   -22397.764    122.00957   -22519.774    5686.5698 
  992000    300.11939   -22416.532    116.29786    -22532.83    11254.341 
  992200    303.72367   -22408.261    117.69453   -22525.955   -11894.808 
  992400    313.81871   -22409.615    121.60642   -22531.221   -6501.9995 
  992600    292.91694   -22430.696    113.50687   -22544.203    15275.251 
  992800    307.73079   -22402.218    119.24731   -22521.465   -1214.0743 
  993000    306.39412   -22406.266    118.72935   -22524.996    9421.5087 
  993200    294.68215    -22427.82     114.1909   -22542.011   -5338.8885 
  993400    291.10127   -22429.131    112.80329   -22541.935   -19302.463 
  993600    299.19229   -22407.889     115.9386   -22523.827   -11339.654 
  993800    296.91245   -22396.493    115.05515   -22511.548     -11522.8 
  994000    305.51617    -22417.56    118.38914   -22535.949   -10115.513 
  994200    290.16101   -22417.363    112.43893   -22529.801   -12105.829 
  994400    305.63166    -22395.85    118.43389   -22514.284    30859.182 
  994600    290.63543   -22410.921    112.62277   -22523.544    -13464.38 
  994800     300.1328   -22423.456    116.30305   -22539.759     12152.53 
  995000    291.47331   -22396.827    112.94745   -22509.775   -16025.903 
  995200    281.65209   -22413.833    109.14168   -22522.975    2299.4583 
  995400    283.46196   -22416.343    109.84301   -22526.186    24244.967 
  995600    324.23096   -22401.741    125.64122   -22527.382   -10683.801 
  995800    307.33908   -22409.582    119.09552   -22528.677     24409.88 
  996000    294.38388   -22412.733    114.07531   -22526.808   -27996.005 
  996200    343.18174   -22385.089    132.98474   -22518.074    19242.996 
  996400    289.86584   -22413.099    112.32455   -22525.423     25777.66 
  996600    291.65195   -22406.742    113.01668   -22519.758    1.6873515 
  996800    309.06256   -22380.794    119.76338   -22500.557    5641.6858 
  997000    331.59234   -22399.708    128.49379   -22528.201    13102.217 
  997200    299.98298   -22422.817      116.245   -22539.062    6537.5173 
  997400    287.64831   -22422.747    111.46525   -22534.212    4244.5287 
  997600    349.74117   -22398.364    135.52656    -22533.89    1581.4193 
  997800    284.30485   -22426.416    110.16964   -22536.585   -6095.2732 
  998000      307.727   -22414.169    119.24585   -22533.415    5889.4661 
  998200    327.28466   -22406.248    126.82454   -22533.073    30831.867 
  998400    274.67334   -22419.866    106.43738   -22526.304   -512.13353 
  998600     329.4875   -22400.653    127.67816   -22528.332     9296.437 
  998800    303.79388   -22406.722    117.72174   -22524.444    4674.2484 
  999000    260.59218   -22422.538    100.98085   -22523.519   -7502.4983 
  999200    299.21932   -22400.702    115.94907   -22516.651   -1163.0364 
  999400    296.70512   -22418.703    114.97481   -22533.678    27037.864 
  999600    296.52017   -22429.861    114.90314   -22544.764   -6239.5538 
  999800    316.18304   -22412.299     122.5226   -22534.821    7540.0688 
 1000000    328.73538   -22401.642    127.38671   -22529.029    1067.4254 
Loop time of 3573.45 on 8 procs for 1000000 steps with 131 atoms

Performance: 6.045 ns/day, 3.970 hours/ns, 279.842 timesteps/s
99.4% CPU use with 8 MPI tasks x no OpenMP threads

MPI task timing breakdown:
Section |  min time  |  avg time  |  max time  |%varavg| %total
---------------------------------------------------------------
Pair    | 2447.4     | 2763.8     | 2982.6     | 355.0 | 77.34
Neigh   | 1.504      | 1.6551     | 1.7869     |   9.2 |  0.05
Comm    | 25.139     | 243.5      | 559.94     |1195.5 |  6.81
Output  | 0.093037   | 0.10197    | 0.15254    |   6.0 |  0.00
Modify  | 561.09     | 562.08     | 563.5      |   2.9 | 15.73
Other   |            | 2.313      |            |       |  0.06

Nlocal:    16.375 ave 46 max 1 min
Histogram: 1 3 1 1 0 0 0 1 0 1
Nghost:    492.625 ave 543 max 430 min
Histogram: 1 1 0 1 1 0 0 2 0 2
Neighs:    1130.38 ave 2943 max 83 min
Histogram: 1 3 1 1 0 0 0 1 0 1

Total # of neighbors = 9043
Ave neighs/atom = 69.0305
Neighbor list builds = 3352
Dangerous builds = 0

unfix 1
unfix output
undump 1

Please see the log.cite file for references relevant to this simulation

Total wall time: 0:59:44
