ITEM: TIMESTEP
0
ITEM: NUMBER OF ATOMS
131
ITEM: BOX BOUNDS xy xz yz pp pp pp
0.0000000000000000e+00 2.3654499999999999e+01 7.8845000000000001e+00
0.0000000000000000e+00 1.3658086643083999e+01 0.0000000000000000e+00
0.0000000000000000e+00 2.5747000000000000e+01 0.0000000000000000e+00
ITEM: ATOMS id type x y z 
18 1 10.522 6.683 2.644 
28 1 5.247 4.273 12.803 
31 1 9.65 6.514 0.446 
62 1 9.171 5.15 12.405 
91 1 9.65 6.514 11.889 
92 1 10.81 6.18 11.007 
106 1 10.522 6.683 9.691 
127 1 10.81 6.18 1.328 
4 1 4.402 5.735 13.319 
5 1 3.307 5.568 14.201 
43 1 4.549 6.796 15.517 
52 1 9.172 5.15 25.677 
66 1 4.402 5.735 24.762 
67 1 5.003 6.76 23.881 
88 1 5.247 4.273 25.278 
107 1 3.307 5.568 23.881 
116 1 4.549 6.796 22.565 
117 1 5.003 6.76 14.201 
11 1 11.272 7.494 3.321 
12 1 10.477 8.871 4.018 
14 1 9.018 11.397 0.446 
15 1 10.114 11.565 1.328 
16 1 8.412 9.024 0.654 
19 1 10.477 8.871 5.569 
29 1 10.927 10.156 3.321 
32 1 8.77 7.648 1.328 
35 1 12.036 9.594 2.644 
45 1 9.231 8.963 3.321 
47 1 12.762 8.702 0.446 
49 1 11.224 11 0.654 
51 1 8.872 10.337 2.644 
53 1 11.272 7.494 9.014 
54 1 10.477 8.871 8.317 
56 1 9.018 11.397 11.889 
57 1 8.418 10.372 11.007 
58 1 11.224 11 11.681 
60 1 12.255 7.901 9.691 
61 1 10.477 8.871 6.766 
73 1 9.231 8.963 9.014 
75 1 12.762 8.702 11.889 
76 1 12.202 10.061 11.007 
79 1 9.224 7.617 9.691 
80 1 8.174 12.859 12.405 
89 1 10.927 10.156 9.014 
93 1 8.412 9.024 11.681 
95 1 9.951 11.095 9.691 
105 1 10.114 11.565 11.007 
109 1 8.77 7.648 11.007 
110 1 12.036 9.594 9.691 
114 1 8.872 10.337 9.691 
119 1 8.418 10.372 1.328 
120 1 12.255 7.901 2.644 
123 1 12.202 10.061 1.328 
124 1 9.224 7.617 2.644 
128 1 9.951 11.095 2.644 
6 1 5.009 8.108 13.527 
13 1 9.663 10.28 25.128 
17 1 9.204 8.965 25.162 
30 1 10.016 7.556 25.128 
34 1 11.289 7.464 25.162 
36 1 8.174 12.859 25.677 
46 1 11.752 8.777 25.128 
50 1 10.937 10.184 25.162 
55 1 9.663 10.28 12.954 
59 1 10.937 10.184 12.919 
74 1 11.752 8.777 12.954 
78 1 11.289 7.464 12.919 
90 1 10.016 7.556 12.954 
94 1 9.204 8.965 12.919 
101 1 5.009 8.108 24.555 
129 2 6.359 8.108 13.527 
130 2 7.241 7.613 14.68 
131 3 8.04 7.675 14.084 
33 1 11.795 6.589 0.654 
77 1 11.795 6.589 11.681 
41 1 17.967 6.132 13.527 
68 1 17.967 6.132 24.554 
103 1 19.24 6.037 22.565 
126 1 19.24 6.037 15.517 
3 1 19.528 6.852 12.254 
7 1 19.987 8.167 12.289 
10 1 15.106 8.528 12.804 
22 1 19.175 9.576 12.254 
26 1 17.902 9.668 12.289 
38 1 17.439 8.356 12.254 
42 1 18.254 6.949 12.289 
44 1 20.019 11.982 12.804 
48 1 12.546 7.4 1.328 
65 1 19.528 6.852 0.081 
69 1 18.254 6.949 0.046 
82 1 17.439 8.356 0.081 
86 1 17.902 9.668 0.046 
96 1 14.084 8.604 12.405 
98 1 19.175 9.576 0.081 
102 1 19.987 8.167 0.046 
113 1 12.546 7.4 11.007 
1 1 17.919 9.638 16.194 
2 1 18.714 8.261 16.892 
8 1 18.669 10.449 15.517 
9 1 18.714 8.261 18.442 
20 1 14.084 8.604 25.677 
21 1 18.264 6.977 16.194 
23 1 19.541 10.618 13.32 
24 1 20.421 9.484 14.201 
25 1 17.396 10.544 13.527 
27 1 17.155 7.538 15.517 
37 1 19.96 8.169 16.194 
39 1 16.429 8.43 13.319 
40 1 16.644 9.732 14.201 
63 1 17.919 9.638 21.888 
64 1 18.714 8.261 21.19 
70 1 16.936 9.231 22.565 
71 1 18.714 8.261 19.64 
72 1 20.019 11.982 25.278 
81 1 19.96 8.169 21.888 
83 1 16.429 8.43 24.762 
84 1 16.989 7.071 23.881 
85 1 17.396 10.544 24.555 
87 1 19.967 9.515 22.565 
97 1 18.263 6.977 21.888 
99 1 19.541 10.618 24.762 
100 1 18.38 10.953 23.881 
104 1 15.106 8.528 25.278 
108 1 18.669 10.449 22.565 
111 1 20.421 9.484 23.881 
112 1 17.155 7.538 22.565 
115 1 16.644 9.732 23.881 
118 1 16.936 9.231 15.517 
121 1 16.989 7.071 14.201 
122 1 19.967 9.515 15.517 
125 1 18.38 10.953 14.201 
ITEM: TIMESTEP
10
ITEM: NUMBER OF ATOMS
131
ITEM: BOX BOUNDS xy xz yz pp pp pp
0.0000000000000000e+00 2.3654499999999999e+01 7.8845000000000001e+00
0.0000000000000000e+00 1.3658086643083999e+01 0.0000000000000000e+00
0.0000000000000000e+00 2.5747000000000000e+01 0.0000000000000000e+00
ITEM: ATOMS id type x y z 
18 1 10.4161 6.59732 2.60703 
28 1 5.12112 4.52862 12.8798 
31 1 9.41956 6.51538 0.430098 
62 1 9.19033 5.28784 12.3243 
91 1 9.41719 6.53142 11.8985 
92 1 10.6405 6.11975 10.9541 
106 1 10.3761 6.74168 9.67793 
127 1 10.6808 6.10534 1.34042 
4 1 4.45842 5.74764 13.2591 
5 1 3.17447 5.60716 14.2125 
43 1 4.56949 6.91255 15.5026 
52 1 9.1839 5.24106 25.7319 
66 1 4.44048 5.75621 24.8209 
67 1 5.10056 6.90856 23.897 
88 1 5.10072 4.57634 25.1916 
107 1 3.16285 5.63183 23.8685 
116 1 4.57639 6.90975 22.6169 
117 1 5.06069 6.87499 14.2009 
11 1 11.1282 7.58615 3.38106 
12 1 10.4874 8.87339 4.10373 
14 1 8.98227 11.3509 0.395798 
15 1 10.2599 11.4903 1.34131 
16 1 8.38152 8.95504 0.668473 
19 1 10.4751 8.87065 5.57528 
29 1 10.9503 10.1526 3.31881 
32 1 8.76616 7.67939 1.30709 
35 1 12.0494 9.55772 2.62193 
45 1 9.24499 8.96779 3.30822 
47 1 12.7286 8.82295 0.517087 
49 1 11.3224 10.9466 0.666655 
51 1 8.83143 10.2101 2.60914 
53 1 11.2212 7.56452 8.91409 
54 1 10.5206 8.79782 8.26155 
56 1 8.97319 11.3755 11.9423 
57 1 8.3338 10.211 11.0324 
58 1 11.3209 10.9572 11.6707 
60 1 12.3219 8.07493 9.665 
61 1 10.4749 8.86498 6.78369 
73 1 9.22448 8.93738 9.08273 
75 1 12.7256 8.81312 11.7997 
76 1 12.2852 10.0558 11.0295 
79 1 9.20086 7.68955 9.75001 
80 1 8.31795 12.5561 12.3165 
89 1 10.9351 10.1355 9.00254 
93 1 8.37671 8.91754 11.6292 
95 1 10.0525 11.0642 9.7186 
105 1 10.2624 11.4892 10.9827 
109 1 8.71755 7.66402 11.0352 
110 1 12.0384 9.56632 9.72402 
114 1 8.85083 10.1941 9.72088 
119 1 8.32875 10.2101 1.28012 
120 1 12.2838 8.09283 2.63823 
123 1 12.2811 10.0568 1.29649 
124 1 9.24834 7.68834 2.60204 
128 1 10.0679 11.0589 2.61704 
6 1 5.20528 8.1906 13.5576 
13 1 9.60642 10.2389 25.0924 
17 1 9.15969 8.95334 25.1707 
30 1 9.90245 7.7228 25.1016 
34 1 11.3114 7.48406 25.1997 
36 1 8.31914 12.5567 25.7631 
46 1 11.6925 8.84234 25.0844 
50 1 10.9817 10.1431 25.2007 
55 1 9.59739 10.2733 13.0117 
59 1 10.9978 10.1248 12.8893 
74 1 11.6847 8.85454 13.0209 
78 1 11.3458 7.4767 12.8865 
90 1 9.9422 7.68952 13.0295 
94 1 9.17473 8.97919 12.8778 
101 1 5.03964 8.17149 24.5367 
129 2 6.29397 8.16891 13.4752 
130 2 7.24404 7.60755 14.7243 
131 3 7.97094 7.64578 14.1204 
33 1 11.8009 6.70233 0.595404 
77 1 11.8222 6.70967 11.7424 
41 1 17.8753 6.22988 13.5252 
68 1 17.8629 6.20115 24.551 
103 1 19.1493 6.08054 22.5898 
126 1 19.1321 6.06731 15.5598 
3 1 19.6332 6.8266 12.1971 
7 1 19.964 8.15975 12.2782 
10 1 15.1164 8.46674 12.8478 
22 1 19.1349 9.42407 12.2265 
26 1 17.9689 9.6481 12.2858 
38 1 17.5067 8.33147 12.2261 
42 1 18.2175 7.05256 12.2788 
44 1 20.0084 11.8631 12.8673 
48 1 12.6159 7.54949 1.37655 
65 1 19.5674 6.85037 0.139091 
69 1 18.1983 6.96553 0.00732944 
82 1 17.529 8.30535 0.135934 
86 1 17.9134 9.65598 0.0221286 
96 1 14.0641 8.66971 12.3511 
98 1 19.2929 9.41711 0.0208017 
102 1 20.089 8.14285 0.0569679 
113 1 12.6134 7.53658 10.9642 
1 1 17.8641 9.55586 16.2412 
2 1 18.7099 8.30287 16.9836 
8 1 18.8117 10.3886 15.5031 
9 1 18.7216 8.2689 18.4336 
20 1 14.0177 8.68383 25.7377 
21 1 18.2259 6.99786 16.2128 
23 1 19.7763 10.6078 13.3043 
24 1 20.437 9.47612 14.1854 
25 1 17.3685 10.4797 13.4992 
27 1 17.1647 7.53016 15.4809 
37 1 19.944 8.22574 16.1317 
39 1 16.4744 8.31729 13.3976 
40 1 16.5892 9.6085 14.2366 
63 1 17.8525 9.53779 21.8118 
64 1 18.6819 8.2814 21.0803 
70 1 16.9426 9.0973 22.4475 
71 1 18.7175 8.26298 19.6466 
72 1 20.0349 11.9283 25.2528 
81 1 19.9594 8.19956 21.9191 
83 1 16.4363 8.28379 24.6727 
84 1 16.9106 7.08009 23.9001 
85 1 17.3838 10.4752 24.6824 
87 1 19.9793 9.46914 22.6852 
97 1 18.2662 6.99407 21.8689 
99 1 19.769 10.6844 24.7767 
100 1 18.4229 10.9466 23.7938 
104 1 15.1481 8.43616 25.2322 
108 1 18.7985 10.3982 22.5653 
111 1 20.4213 9.45456 24.0011 
112 1 17.1533 7.53399 22.5982 
115 1 16.6591 9.68815 23.8375 
118 1 16.926 9.10356 15.5932 
121 1 16.9281 7.05989 14.1866 
122 1 19.9667 9.4311 15.4137 
125 1 18.5441 10.9958 14.2439 
ITEM: TIMESTEP
20
ITEM: NUMBER OF ATOMS
131
ITEM: BOX BOUNDS xy xz yz pp pp pp
0.0000000000000000e+00 2.3654499999999999e+01 7.8845000000000001e+00
0.0000000000000000e+00 1.3658086643083999e+01 0.0000000000000000e+00
0.0000000000000000e+00 2.5747000000000000e+01 0.0000000000000000e+00
ITEM: ATOMS id type x y z 
18 1 10.3812 6.66543 2.59676 
28 1 5.104 4.57594 12.8919 
31 1 9.41082 6.57686 0.427494 
62 1 9.21918 5.26735 12.2865 
91 1 9.41949 6.58955 11.9126 
92 1 10.6288 6.1718 10.9889 
106 1 10.3686 6.7545 9.69612 
127 1 10.6439 6.12148 1.31129 
4 1 4.44442 5.80596 13.2852 
5 1 3.14936 5.64377 14.2125 
43 1 4.55359 6.93643 15.4835 
52 1 9.21589 5.24887 25.7757 
66 1 4.4142 5.81711 24.8094 
67 1 5.08659 6.93097 23.8963 
88 1 5.08721 4.6159 25.1842 
107 1 3.15622 5.65169 23.8874 
116 1 4.5704 6.95671 22.6098 
117 1 5.04178 6.8738 14.2098 
11 1 11.156 7.5371 3.36749 
12 1 10.4868 8.86421 4.08983 
14 1 8.99813 11.301 0.404757 
15 1 10.2675 11.4826 1.31876 
16 1 8.34643 8.91218 0.684567 
19 1 10.4738 8.87383 5.58056 
29 1 10.9573 10.1378 3.33408 
32 1 8.72848 7.68632 1.29672 
35 1 12.075 9.58567 2.60701 
45 1 9.2263 8.9841 3.28508 
47 1 12.7123 8.84798 0.505031 
49 1 11.3763 10.9353 0.661096 
51 1 8.83526 10.1961 2.59595 
53 1 11.2303 7.55118 8.93198 
54 1 10.5198 8.79854 8.28052 
56 1 8.99857 11.3089 11.9305 
57 1 8.34596 10.1884 11.0287 
58 1 11.3687 10.9336 11.6799 
60 1 12.3056 8.07591 9.66324 
61 1 10.4761 8.85898 6.79065 
73 1 9.2137 8.94951 9.07198 
75 1 12.7007 8.83792 11.8137 
76 1 12.2947 10.0813 11.0076 
79 1 9.18457 7.66684 9.74845 
80 1 8.33153 12.5132 12.3076 
89 1 10.9481 10.1209 9.00637 
93 1 8.34529 8.91895 11.653 
95 1 10.0534 11.036 9.69633 
105 1 10.2656 11.4745 11.0064 
109 1 8.65587 7.66575 11.0272 
110 1 12.0603 9.58977 9.73249 
114 1 8.84783 10.1831 9.73516 
119 1 8.34115 10.1911 1.30089 
120 1 12.2629 8.09294 2.64138 
123 1 12.3048 10.0739 1.31768 
124 1 9.24124 7.66355 2.59874 
128 1 10.0434 11.04 2.62764 
6 1 5.22416 8.20989 13.5544 
13 1 9.61931 10.2463 25.0689 
17 1 9.14627 8.93509 25.1643 
30 1 9.92687 7.73047 25.0874 
34 1 11.2778 7.50627 25.2037 
36 1 8.33474 12.5098 25.7719 
46 1 11.6718 8.85276 25.0825 
50 1 10.979 10.1324 25.1931 
55 1 9.61743 10.2617 13.0117 
59 1 10.9826 10.1231 12.8947 
74 1 11.6865 8.85962 13.0106 
78 1 11.3029 7.51622 12.886 
90 1 9.95306 7.72893 13.019 
94 1 9.1837 8.94755 12.8826 
101 1 5.08203 8.17893 24.5471 
129 2 6.31868 8.19049 13.4504 
130 2 7.24248 7.60522 14.7441 
131 3 7.95841 7.63868 14.1281 
33 1 11.7657 6.71465 0.633688 
77 1 11.756 6.71538 11.6878 
41 1 17.8568 6.23298 13.5271 
68 1 17.8234 6.20368 24.5543 
103 1 19.157 6.09443 22.5777 
126 1 19.1341 6.07567 15.5385 
3 1 19.6133 6.84319 12.2021 
7 1 19.9949 8.15156 12.2751 
10 1 15.133 8.44946 12.8512 
22 1 19.1976 9.34766 12.1793 
26 1 17.8654 9.69049 12.3106 
38 1 17.5444 8.34098 12.2099 
42 1 18.2353 7.02021 12.2782 
44 1 19.9637 11.8629 12.9234 
48 1 12.5868 7.56873 1.38169 
65 1 19.5646 6.86055 0.145298 
69 1 18.1966 6.98552 0.0238488 
82 1 17.5371 8.28667 0.10302 
86 1 17.94 9.60566 0.0522005 
96 1 14.0516 8.68569 12.351 
98 1 19.3176 9.39805 0.0234778 
102 1 20.0945 8.14444 0.0605553 
113 1 12.5929 7.55954 10.9488 
1 1 17.8654 9.5664 16.2244 
2 1 18.705 8.30149 16.9672 
8 1 18.8135 10.3613 15.4911 
9 1 18.7245 8.27223 18.4219 
20 1 14.0471 8.68683 25.7213 
21 1 18.2303 7.00411 16.2222 
23 1 19.8208 10.5449 13.3119 
24 1 20.4814 9.48326 14.1626 
25 1 17.4202 10.4446 13.5262 
27 1 17.1396 7.51798 15.4747 
37 1 19.9553 8.1859 16.1364 
39 1 16.4844 8.30732 13.4064 
40 1 16.6204 9.5876 14.2498 
63 1 17.8601 9.53942 21.8056 
64 1 18.7041 8.28464 21.1042 
70 1 16.9478 9.09903 22.4657 
71 1 18.72 8.26368 19.6467 
72 1 20.0586 11.9147 25.2515 
81 1 19.9605 8.20035 21.9544 
83 1 16.4726 8.3007 24.6827 
84 1 16.8922 7.07468 23.8776 
85 1 17.391 10.4851 24.6777 
87 1 19.9787 9.4503 22.6814 
97 1 18.2433 7.0037 21.8748 
99 1 19.7458 10.6807 24.7695 
100 1 18.4029 10.8868 23.8004 
104 1 15.1353 8.43823 25.2354 
108 1 18.7982 10.3486 22.5554 
111 1 20.4569 9.46414 24.0054 
112 1 17.1413 7.51692 22.6006 
115 1 16.7067 9.65067 23.807 
118 1 16.932 9.1014 15.5911 
121 1 16.9158 7.05295 14.2018 
122 1 19.9658 9.4558 15.4127 
125 1 18.5711 11.0068 14.2179 
ITEM: TIMESTEP
30
ITEM: NUMBER OF ATOMS
131
ITEM: BOX BOUNDS xy xz yz pp pp pp
0.0000000000000000e+00 2.3654499999999999e+01 7.8845000000000001e+00
0.0000000000000000e+00 1.3658086643083999e+01 0.0000000000000000e+00
0.0000000000000000e+00 2.5747000000000000e+01 0.0000000000000000e+00
ITEM: ATOMS id type x y z 
18 1 10.3577 6.69832 2.6102 
28 1 5.11158 4.58334 12.8917 
31 1 9.39079 6.65004 0.411737 
62 1 9.23796 5.2456 12.25 
91 1 9.39578 6.65668 11.9195 
92 1 10.5922 6.21318 11.0013 
106 1 10.3252 6.76011 9.69161 
127 1 10.6148 6.16888 1.31109 
4 1 4.40792 5.85339 13.2999 
5 1 3.13343 5.67676 14.2101 
43 1 4.53336 6.95629 15.4845 
52 1 9.22985 5.23193 25.81 
66 1 4.38704 5.88425 24.8039 
67 1 5.08048 6.965 23.8969 
88 1 5.09397 4.62044 25.188 
107 1 3.15216 5.69345 23.888 
116 1 4.56292 6.97153 22.6082 
117 1 5.05265 6.90515 14.2149 
11 1 11.1564 7.55498 3.36802 
12 1 10.4965 8.84578 4.06042 
14 1 9.03264 11.2338 0.408675 
15 1 10.2666 11.4351 1.3167 
16 1 8.30732 8.89049 0.671169 
19 1 10.47 8.87448 5.5665 
29 1 10.962 10.128 3.33701 
32 1 8.66702 7.66565 1.27598 
35 1 12.0955 9.60149 2.61594 
45 1 9.20243 8.96722 3.28111 
47 1 12.6927 8.87363 0.51029 
49 1 11.4042 10.9278 0.631752 
51 1 8.85753 10.1769 2.60236 
53 1 11.2254 7.56176 8.94893 
54 1 10.5222 8.77674 8.28364 
56 1 9.03212 11.2426 11.9208 
57 1 8.34293 10.1572 11.0275 
58 1 11.4011 10.9265 11.6975 
60 1 12.3135 8.09643 9.65106 
61 1 10.4781 8.85276 6.77051 
73 1 9.20277 8.9346 9.07729 
75 1 12.6947 8.86984 11.8146 
76 1 12.3336 10.0864 11.0087 
79 1 9.15999 7.66497 9.75539 
80 1 8.32403 12.5077 12.3105 
89 1 10.9522 10.1009 9.01113 
93 1 8.2995 8.9016 11.6726 
95 1 10.0538 11.0332 9.67923 
105 1 10.2671 11.4386 11.0209 
109 1 8.61915 7.6496 11.0333 
110 1 12.0982 9.59732 9.71701 
114 1 8.85617 10.1765 9.73242 
119 1 8.3478 10.1543 1.30942 
120 1 12.2613 8.10121 2.67342 
123 1 12.3429 10.0969 1.33245 
124 1 9.19549 7.64446 2.61868 
128 1 10.0644 11.0332 2.64709 
6 1 5.25742 8.21819 13.5394 
13 1 9.62002 10.2283 25.0627 
17 1 9.1254 8.929 25.1616 
30 1 9.91044 7.7251 25.0575 
34 1 11.261 7.52936 25.2082 
36 1 8.32648 12.505 25.768 
46 1 11.6802 8.86001 25.0846 
50 1 10.9973 10.1494 25.1917 
55 1 9.63141 10.2369 13.0277 
59 1 10.9975 10.1499 12.8894 
74 1 11.7038 8.86863 12.9995 
78 1 11.2927 7.52438 12.8682 
90 1 9.9291 7.72707 13.0138 
94 1 9.16098 8.94487 12.8849 
101 1 5.1326 8.21063 24.5681 
129 2 6.35916 8.21556 13.4139 
130 2 7.24398 7.60209 14.7703 
131 3 7.94842 7.62756 14.1379 
33 1 11.7324 6.71027 0.630719 
77 1 11.7301 6.73041 11.689 
41 1 17.8204 6.23212 13.5134 
68 1 17.7823 6.19473 24.5649 
103 1 19.1452 6.10036 22.5572 
126 1 19.1194 6.06978 15.5494 
3 1 19.6124 6.85938 12.1979 
7 1 19.9869 8.16303 12.261 
10 1 15.1412 8.44556 12.8382 
22 1 19.2566 9.39579 12.1916 
26 1 17.9027 9.65451 12.3465 
38 1 17.496 8.31173 12.2166 
42 1 18.2269 7.03078 12.2815 
44 1 19.9531 11.8933 12.9562 
48 1 12.5563 7.61675 1.37162 
65 1 19.5648 6.87151 0.145565 
69 1 18.1866 6.97464 0.0282977 
82 1 17.5686 8.27754 0.107215 
86 1 17.9437 9.6065 0.0609361 
96 1 14.0511 8.68778 12.3674 
98 1 19.3351 9.41354 0.0331516 
102 1 20.1146 8.15676 0.0685841 
113 1 12.5663 7.61445 10.956 
1 1 17.8669 9.55928 16.2008 
2 1 18.698 8.30281 16.9568 
8 1 18.8256 10.3632 15.51 
9 1 18.7248 8.27365 18.4309 
20 1 14.0478 8.68847 25.7097 
21 1 18.2179 7.01666 16.2286 
23 1 19.8076 10.454 13.2704 
24 1 20.5334 9.49411 14.1543 
25 1 17.4537 10.438 13.5002 
27 1 17.1023 7.50147 15.4853 
37 1 19.9702 8.1986 16.1349 
39 1 16.5084 8.31012 13.4012 
40 1 16.6495 9.52623 14.2478 
63 1 17.8388 9.51802 21.7821 
64 1 18.7144 8.27052 21.1057 
70 1 16.9584 9.06956 22.4659 
71 1 18.7283 8.2661 19.6385 
72 1 20.0912 11.8625 25.2432 
81 1 19.976 8.20431 21.9613 
83 1 16.5089 8.30578 24.657 
84 1 16.8816 7.04851 23.8666 
85 1 17.3958 10.4802 24.7031 
87 1 19.9928 9.46404 22.6889 
97 1 18.2408 7.01026 21.8703 
99 1 19.7271 10.6393 24.7491 
100 1 18.4219 10.8274 23.8364 
104 1 15.1368 8.45265 25.2374 
108 1 18.8309 10.3299 22.5401 
111 1 20.4897 9.50752 24.0269 
112 1 17.0975 7.52177 22.5867 
115 1 16.7292 9.62274 23.7998 
118 1 16.9361 9.08673 15.6131 
121 1 16.8923 7.06035 14.207 
122 1 19.9916 9.45968 15.4117 
125 1 18.5981 10.9454 14.2152 
ITEM: TIMESTEP
40
ITEM: NUMBER OF ATOMS
131
ITEM: BOX BOUNDS xy xz yz pp pp pp
0.0000000000000000e+00 2.3654499999999999e+01 7.8845000000000001e+00
0.0000000000000000e+00 1.3658086643083999e+01 0.0000000000000000e+00
0.0000000000000000e+00 2.5747000000000000e+01 0.0000000000000000e+00
ITEM: ATOMS id type x y z 
18 1 10.3431 6.69384 2.60523 
28 1 5.10173 4.61504 12.9008 
31 1 9.37031 6.65151 0.392166 
62 1 9.23658 5.25479 12.2335 
91 1 9.37235 6.65165 11.9304 
92 1 10.5794 6.23456 10.9955 
106 1 10.3216 6.77487 9.6881 
127 1 10.5996 6.18344 1.30862 
4 1 4.41397 5.85667 13.3083 
5 1 3.12243 5.68898 14.2115 
43 1 4.53629 6.95637 15.4739 
52 1 9.23042 5.24421 25.8306 
66 1 4.39632 5.88419 24.8036 
67 1 5.08724 6.97719 23.9027 
88 1 5.08185 4.65509 25.1816 
107 1 3.13509 5.7006 23.8878 
116 1 4.57057 6.9667 22.6159 
117 1 5.04475 6.91749 14.2112 
11 1 11.1307 7.56472 3.36284 
12 1 10.492 8.83851 4.07363 
14 1 9.0207 11.228 0.404315 
15 1 10.2877 11.4249 1.31395 
16 1 8.29387 8.8774 0.668449 
19 1 10.4705 8.87006 5.56902 
29 1 10.9684 10.1176 3.33172 
32 1 8.64956 7.65801 1.29203 
35 1 12.1041 9.61199 2.62206 
45 1 9.21694 8.96771 3.28814 
47 1 12.709 8.89124 0.500934 
49 1 11.4155 10.9285 0.648717 
51 1 8.85471 10.1752 2.59682 
53 1 11.2208 7.55855 8.94925 
54 1 10.5133 8.77762 8.2766 
56 1 9.02259 11.2379 11.9287 
57 1 8.3406 10.1484 11.0255 
58 1 11.4117 10.9294 11.6834 
60 1 12.3036 8.10637 9.64832 
61 1 10.478 8.84877 6.7768 
73 1 9.20338 8.93095 9.07269 
75 1 12.6997 8.88845 11.8219 
76 1 12.3535 10.1011 10.9976 
79 1 9.12968 7.6637 9.7677 
80 1 8.33706 12.4709 12.3033 
89 1 10.9571 10.0892 9.01403 
93 1 8.28326 8.88909 11.6727 
95 1 10.0646 11.0153 9.69004 
105 1 10.2843 11.4254 11.014 
109 1 8.59183 7.64937 11.0358 
110 1 12.1107 9.61857 9.7107 
114 1 8.85398 10.1628 9.73822 
119 1 8.34371 10.1403 1.30663 
120 1 12.2538 8.11556 2.66465 
123 1 12.3588 10.0992 1.32859 
124 1 9.17598 7.64326 2.61103 
128 1 10.0642 11.0249 2.63842 
6 1 5.27596 8.22047 13.5339 
13 1 9.62521 10.2219 25.0649 
17 1 9.11052 8.92594 25.1566 
30 1 9.90986 7.73881 25.0464 
34 1 11.259 7.52247 25.2013 
36 1 8.33904 12.4679 25.7745 
46 1 11.6686 8.86132 25.0872 
50 1 10.9964 10.1481 25.1754 
55 1 9.63086 10.2382 13.0246 
59 1 11.0047 10.1488 12.9037 
74 1 11.6896 8.86874 13.0034 
78 1 11.2828 7.5234 12.8771 
90 1 9.93252 7.74062 13.017 
94 1 9.14867 8.93827 12.889 
101 1 5.16472 8.21397 24.5811 
129 2 6.3732 8.23015 13.3883 
130 2 7.2458 7.6 14.7887 
131 3 7.94288 7.61686 14.1489 
33 1 11.7302 6.73629 0.639473 
77 1 11.7271 6.74563 11.6759 
41 1 17.8161 6.23787 13.5203 
68 1 17.7801 6.1987 24.5604 
103 1 19.1455 6.1095 22.5702 
126 1 19.1114 6.08371 15.5342 
3 1 19.6056 6.86179 12.1895 
7 1 19.9932 8.16463 12.2665 
10 1 15.1421 8.43719 12.8377 
22 1 19.2661 9.39746 12.1785 
26 1 17.9231 9.63775 12.328 
38 1 17.493 8.31461 12.2187 
42 1 18.2346 7.03289 12.2755 
44 1 19.9477 11.8833 12.9787 
48 1 12.5401 7.62215 1.37898 
65 1 19.5648 6.88053 0.151836 
69 1 18.1885 6.9721 0.0293077 
82 1 17.5682 8.2826 0.101387 
86 1 17.9524 9.60522 0.06825 
96 1 14.0546 8.69436 12.3702 
98 1 19.3483 9.39474 0.0258748 
102 1 20.1239 8.15184 0.0727348 
113 1 12.5599 7.6157 10.9507 
1 1 17.8699 9.55413 16.2144 
2 1 18.695 8.31687 16.9606 
8 1 18.8445 10.3562 15.5008 
9 1 18.7265 8.27763 18.4198 
20 1 14.0504 8.69356 25.7056 
21 1 18.2186 7.02276 16.2225 
23 1 19.835 10.4666 13.2637 
24 1 20.555 9.48844 14.1578 
25 1 17.4618 10.4172 13.5232 
27 1 17.098 7.49396 15.4974 
37 1 19.9533 8.19685 16.1298 
39 1 16.5024 8.28091 13.3941 
40 1 16.6561 9.53958 14.248 
63 1 17.8518 9.52096 21.7836 
64 1 18.7128 8.28609 21.0975 
70 1 16.9543 9.06447 22.4621 
71 1 18.7332 8.26566 19.6421 
72 1 20.126 11.8955 25.2624 
81 1 19.9665 8.21323 21.9675 
83 1 16.5021 8.29533 24.6653 
84 1 16.8635 7.04913 23.8622 
85 1 17.3956 10.46 24.6918 
87 1 20.0068 9.45559 22.6972 
97 1 18.2363 7.02037 21.8726 
99 1 19.7396 10.6473 24.7559 
100 1 18.423 10.8217 23.8107 
104 1 15.1434 8.45821 25.2332 
108 1 18.8182 10.3134 22.5487 
111 1 20.5024 9.4871 24.0261 
112 1 17.0971 7.4967 22.5801 
115 1 16.7208 9.60543 23.8122 
118 1 16.9357 9.07334 15.615 
121 1 16.867 7.0565 14.2112 
122 1 20.0081 9.46362 15.4081 
125 1 18.6131 10.9208 14.21 
ITEM: TIMESTEP
50
ITEM: NUMBER OF ATOMS
131
ITEM: BOX BOUNDS xy xz yz pp pp pp
0.0000000000000000e+00 2.3654499999999999e+01 7.8845000000000001e+00
0.0000000000000000e+00 1.3658086643083999e+01 0.0000000000000000e+00
0.0000000000000000e+00 2.5747000000000000e+01 0.0000000000000000e+00
ITEM: ATOMS id type x y z 
18 1 10.3231 6.70004 2.60636 
28 1 5.09925 4.63153 12.9055 
31 1 9.35236 6.66079 0.382164 
62 1 9.23314 5.25514 12.2227 
91 1 9.35611 6.65532 11.9341 
92 1 10.5706 6.25007 10.9956 
106 1 10.3106 6.78314 9.68631 
127 1 10.5917 6.19157 1.30467 
4 1 4.41272 5.86694 13.3064 
5 1 3.10756 5.695 14.2054 
43 1 4.53171 6.95629 15.4716 
52 1 9.22642 5.25084 25.8432 
66 1 4.39352 5.8939 24.8016 
67 1 5.09204 6.98833 23.9066 
88 1 5.07994 4.66948 25.1805 
107 1 3.12998 5.70715 23.8896 
116 1 4.57289 6.97343 22.6212 
117 1 5.04468 6.92159 14.208 
11 1 11.1157 7.57266 3.36758 
12 1 10.4873 8.84439 4.07421 
14 1 9.02305 11.2168 0.405248 
15 1 10.2929 11.417 1.31421 
16 1 8.28402 8.86827 0.665981 
19 1 10.4713 8.86592 5.5579 
29 1 10.963 10.1043 3.34288 
32 1 8.63578 7.64803 1.28655 
35 1 12.1189 9.61643 2.6225 
45 1 9.22114 8.96656 3.30146 
47 1 12.7101 8.89963 0.5007 
49 1 11.4234 10.9234 0.643893 
51 1 8.85499 10.1732 2.59308 
53 1 11.2178 7.56204 8.94828 
54 1 10.5129 8.77085 8.27307 
56 1 9.02633 11.2273 11.9273 
57 1 8.3365 10.1397 11.0275 
58 1 11.4204 10.9271 11.6869 
60 1 12.3006 8.11457 9.64633 
61 1 10.4776 8.84566 6.76814 
73 1 9.20261 8.93031 9.07381 
75 1 12.7021 8.89771 11.8219 
76 1 12.3693 10.1087 10.9949 
79 1 9.11281 7.66181 9.7681 
80 1 8.33969 12.4552 12.302 
89 1 10.9553 10.0799 9.01474 
93 1 8.26868 8.88458 11.6783 
95 1 10.0653 11.006 9.69271 
105 1 10.2896 11.4158 11.0148 
109 1 8.57163 7.64305 11.0424 
110 1 12.1233 9.62596 9.70449 
114 1 8.85395 10.1583 9.74019 
119 1 8.34007 10.1297 1.30591 
120 1 12.2461 8.12638 2.66212 
123 1 12.3726 10.1059 1.32998 
124 1 9.1689 7.63555 2.61364 
128 1 10.0672 11.0176 2.63359 
6 1 5.29297 8.22616 13.5283 
13 1 9.62482 10.2146 25.067 
17 1 9.09903 8.92421 25.1527 
30 1 9.90507 7.738 25.0418 
34 1 11.2555 7.52576 25.1977 
36 1 8.34202 12.4501 25.7761 
46 1 11.6655 8.86079 25.0863 
50 1 11.0016 10.1531 25.1722 
55 1 9.63498 10.2313 13.022 
59 1 11.0086 10.1523 12.9062 
74 1 11.686 8.86823 13.0026 
78 1 11.2791 7.52931 12.8775 
90 1 9.92943 7.74275 13.0194 
94 1 9.13912 8.93941 12.8904 
101 1 5.18032 8.21988 24.5905 
129 2 6.38636 8.24174 13.3665 
130 2 7.24727 7.59826 14.8048 
131 3 7.93804 7.60731 14.1582 
33 1 11.7222 6.75097 0.63823 
77 1 11.7188 6.75749 11.6747 
41 1 17.8111 6.25192 13.5225 
68 1 17.7738 6.20256 24.5617 
103 1 19.145 6.11749 22.5726 
126 1 19.1101 6.09488 15.5334 
3 1 19.6129 6.86233 12.1907 
7 1 19.9929 8.16377 12.2634 
10 1 15.142 8.4324 12.8386 
22 1 19.2765 9.39475 12.1732 
26 1 17.9293 9.63481 12.3235 
38 1 17.4953 8.31572 12.2181 
42 1 18.2313 7.02922 12.2761 
44 1 19.9485 11.8872 12.9923 
48 1 12.5354 7.63423 1.38038 
65 1 19.566 6.88712 0.154118 
69 1 18.1895 6.97433 0.0300311 
82 1 17.5705 8.27974 0.102758 
86 1 17.9604 9.60402 0.0710774 
96 1 14.0547 8.69805 12.3708 
98 1 19.3504 9.39617 0.0326679 
102 1 20.1335 8.15398 0.0654703 
113 1 12.5558 7.63023 10.9514 
1 1 17.8719 9.55195 16.2198 
2 1 18.6923 8.32221 16.9616 
8 1 18.8553 10.3513 15.5005 
9 1 18.7281 8.28077 18.4197 
20 1 14.0539 8.6986 25.7018 
21 1 18.2149 7.02431 16.2228 
23 1 19.8589 10.4594 13.257 
24 1 20.5693 9.49271 14.1561 
25 1 17.4721 10.4038 13.5242 
27 1 17.0881 7.49619 15.5015 
37 1 19.952 8.19901 16.1293 
39 1 16.4979 8.27973 13.3946 
40 1 16.6595 9.52198 14.2526 
63 1 17.8522 9.51777 21.7842 
64 1 18.7138 8.28873 21.0983 
70 1 16.952 9.05506 22.463 
71 1 18.7369 8.26639 19.6381 
72 1 20.1428 11.8799 25.2611 
81 1 19.9676 8.20712 21.9693 
83 1 16.4992 8.28579 24.6663 
84 1 16.8537 7.04257 23.8572 
85 1 17.3983 10.4491 24.6917 
87 1 20.0126 9.45838 22.7027 
97 1 18.2361 7.02437 21.8713 
99 1 19.753 10.6515 24.7566 
100 1 18.4317 10.8113 23.8177 
104 1 15.1477 8.46038 25.2308 
108 1 18.8215 10.3012 22.5473 
111 1 20.5158 9.49412 24.0323 
112 1 17.0896 7.49307 22.5757 
115 1 16.7268 9.59833 23.8077 
118 1 16.9332 9.06437 15.6085 
121 1 16.8569 7.04047 14.2147 
122 1 20.025 9.46523 15.4043 
125 1 18.6209 10.9074 14.2119 
ITEM: TIMESTEP
60
ITEM: NUMBER OF ATOMS
131
ITEM: BOX BOUNDS xy xz yz pp pp pp
0.0000000000000000e+00 2.3654499999999999e+01 7.8845000000000001e+00
0.0000000000000000e+00 1.3658086643083999e+01 0.0000000000000000e+00
0.0000000000000000e+00 2.5747000000000000e+01 0.0000000000000000e+00
ITEM: ATOMS id type x y z 
18 1 10.3172 6.70635 2.60487 
28 1 5.10424 4.63019 12.9047 
31 1 9.3455 6.66611 0.378103 
62 1 9.23001 5.25311 12.2166 
91 1 9.34835 6.6603 11.9357 
92 1 10.5644 6.25778 10.9967 
106 1 10.3032 6.78844 9.6865 
127 1 10.5856 6.20047 1.30449 
4 1 4.40631 5.8733 13.3077 
5 1 3.1074 5.70113 14.209 
43 1 4.53067 6.95974 15.4688 
52 1 9.22444 5.24856 25.8506 
66 1 4.3903 5.90268 24.8005 
67 1 5.09596 6.99355 23.91 
88 1 5.08251 4.67192 25.1817 
107 1 3.12783 5.71209 23.8895 
116 1 4.57436 6.97461 22.6245 
117 1 5.04758 6.93221 14.2084 
11 1 11.1076 7.58753 3.37857 
12 1 10.4785 8.84957 4.05749 
14 1 9.02773 11.2081 0.406966 
15 1 10.2953 11.4112 1.31634 
16 1 8.27825 8.86532 0.664399 
19 1 10.4716 8.86344 5.54561 
29 1 10.9705 10.0954 3.3594 
32 1 8.62542 7.64523 1.28704 
35 1 12.1252 9.62038 2.62343 
45 1 9.21679 8.95966 3.32164 
47 1 12.7113 8.90183 0.501145 
49 1 11.428 10.9216 0.641374 
51 1 8.85922 10.1717 2.59106 
53 1 11.2133 7.5684 8.94708 
54 1 10.5109 8.7692 8.26813 
56 1 9.03135 11.2191 11.9235 
57 1 8.33345 10.1337 11.0283 
58 1 11.4265 10.9266 11.6889 
60 1 12.2997 8.11936 9.64447 
61 1 10.4779 8.8425 6.75327 
73 1 9.20252 8.92611 9.07335 
75 1 12.7028 8.90354 11.821 
76 1 12.3757 10.1119 10.9941 
79 1 9.10456 7.66077 9.76829 
80 1 8.33732 12.4525 12.3035 
89 1 10.9555 10.0741 9.01436 
93 1 8.25992 8.88212 11.6813 
95 1 10.0652 11.0005 9.69211 
105 1 10.2913 11.4099 11.016 
109 1 8.56147 7.64022 11.044 
110 1 12.1288 9.62814 9.70122 
114 1 8.85411 10.1567 9.74121 
119 1 8.3388 10.1236 1.30891 
120 1 12.2406 8.13137 2.66253 
123 1 12.3782 10.1087 1.33106 
124 1 9.1606 7.631 2.61279 
128 1 10.0658 11.0055 2.63077 
6 1 5.29884 8.22751 13.5276 
13 1 9.62483 10.2108 25.0682 
17 1 9.09292 8.92207 25.1497 
30 1 9.90214 7.73936 25.0371 
34 1 11.2526 7.5281 25.194 
36 1 8.33977 12.4461 25.7748 
46 1 11.6648 8.86249 25.0855 
50 1 11.0041 10.1546 25.1706 
55 1 9.63677 10.2269 13.0225 
59 1 11.0114 10.1541 12.9069 
74 1 11.685 8.87025 13.0019 
78 1 11.277 7.53058 12.879 
90 1 9.92591 7.74408 13.0197 
94 1 9.13423 8.93859 12.8914 
101 1 5.19069 8.22501 24.5926 
129 2 6.39481 8.24836 13.3524 
130 2 7.24824 7.59717 14.8158 
131 3 7.93472 7.60076 14.1642 
33 1 11.7157 6.75434 0.641798 
77 1 11.7141 6.76359 11.6727 
41 1 17.8042 6.25042 13.5201 
68 1 17.7704 6.20361 24.5636 
103 1 19.144 6.12105 22.5728 
126 1 19.1067 6.09461 15.5322 
3 1 19.6113 6.86479 12.1875 
7 1 19.9978 8.16305 12.2621 
10 1 15.1408 8.4296 12.8385 
22 1 19.2802 9.39372 12.1732 
26 1 17.9309 9.63729 12.3206 
38 1 17.501 8.31323 12.2185 
42 1 18.2327 7.03251 12.2724 
44 1 19.9499 11.8879 13.001 
48 1 12.5318 7.64151 1.37785 
65 1 19.569 6.89064 0.155805 
69 1 18.1905 6.97406 0.0298477 
82 1 17.574 8.2815 0.103617 
86 1 17.9593 9.60426 0.0749366 
96 1 14.055 8.70003 12.3711 
98 1 19.3547 9.39397 0.0359264 
102 1 20.1347 8.15718 0.0629375 
113 1 12.5529 7.63756 10.9515 
1 1 17.8752 9.55366 16.2209 
2 1 18.6911 8.32157 16.9593 
8 1 18.8606 10.3465 15.5016 
9 1 18.7291 8.28249 18.4219 
20 1 14.0535 8.70239 25.7009 
21 1 18.2133 7.02845 16.223 
23 1 19.8688 10.4549 13.2518 
24 1 20.58 9.49332 14.1527 
25 1 17.4782 10.3986 13.5238 
27 1 17.0804 7.48994 15.5036 
37 1 19.9549 8.20064 16.128 
39 1 16.4988 8.27371 13.3966 
40 1 16.6596 9.51517 14.2499 
63 1 17.8518 9.51433 21.7839 
64 1 18.7161 8.28724 21.0997 
70 1 16.9519 9.04979 22.461 
71 1 18.7391 8.26753 19.6391 
72 1 20.1544 11.8734 25.2615 
81 1 19.9695 8.21064 21.9684 
83 1 16.5024 8.28179 24.6637 
84 1 16.8489 7.03925 23.8558 
85 1 17.4003 10.4467 24.693 
87 1 20.0154 9.45782 22.7033 
97 1 18.2361 7.02561 21.8706 
99 1 19.7588 10.648 24.7569 
100 1 18.436 10.8041 23.8203 
104 1 15.1463 8.46117 25.2307 
108 1 18.8242 10.2966 22.5489 
111 1 20.5247 9.49853 24.0371 
112 1 17.084 7.49203 22.5728 
115 1 16.7314 9.59379 23.8075 
118 1 16.9322 9.06225 15.6117 
121 1 16.848 7.04326 14.2168 
122 1 20.0329 9.46535 15.4038 
125 1 18.6283 10.901 14.2116 
ITEM: TIMESTEP
70
ITEM: NUMBER OF ATOMS
131
ITEM: BOX BOUNDS xy xz yz pp pp pp
0.0000000000000000e+00 2.3654499999999999e+01 7.8845000000000001e+00
0.0000000000000000e+00 1.3658086643083999e+01 0.0000000000000000e+00
0.0000000000000000e+00 2.5747000000000000e+01 0.0000000000000000e+00
ITEM: ATOMS id type x y z 
18 1 10.2711 6.72773 2.60872 
28 1 5.10256 4.68394 12.921 
31 1 9.29435 6.68884 0.350411 
62 1 9.20619 5.25652 12.1764 
91 1 9.29779 6.67582 11.9507 
92 1 10.5265 6.30215 10.999 
106 1 10.2688 6.82442 9.68452 
127 1 10.5445 6.23423 1.29347 
4 1 4.40231 5.89747 13.3127 
5 1 3.09019 5.72456 14.194 
43 1 4.52568 6.96718 15.456 
52 1 9.20544 5.2581 25.8983 
66 1 4.38791 5.93281 24.8004 
67 1 5.12288 7.01978 23.9255 
88 1 5.08779 4.70951 25.1837 
107 1 3.11492 5.7369 23.8963 
116 1 4.58677 6.98551 22.6458 
117 1 5.05284 6.95197 14.1867 
11 1 11.0845 7.57069 3.35783 