ITEM: TIMESTEP
0
ITEM: NUMBER OF ATOMS
59
ITEM: BOX BOUNDS pp pp pp
0.0000000000000000e+00 3.2808000000000000e+01
0.0000000000000000e+00 1.7780000000000001e+01
0.0000000000000000e+00 2.4729999999999999e+00
ITEM: ATOMS id type x y z 
13 1 7.043 0.849 2.464 
29 1 7.397 1.432 1.228 
37 1 8.035 2.733 1.228 
1 1 6.173 17.398 2.464 
5 1 5.371 17.398 1.228 
9 1 3.973 17.398 1.228 
16 1 7.043 16.167 2.464 
32 1 7.397 15.584 1.228 
40 1 8.035 14.283 1.228 
45 1 3.236 17.398 2.464 
49 1 1.81 17.398 2.464 
53 1 1.083 17.398 1.228 
57 2 7.224 17.339 1.616 
4 1 10.968 8.508 2.464 
8 1 11.771 8.508 1.228 
12 1 13.168 8.508 1.228 
18 1 10.098 7.277 2.464 
21 1 8.308 3.392 2.464 
26 1 8.833 4.734 2.464 
34 1 9.745 6.694 1.228 
42 1 9.106 5.393 1.228 
48 1 13.906 8.508 2.464 
52 1 15.331 8.508 2.464 
56 1 16.058 8.508 1.228 
19 1 10.098 9.739 2.464 
24 1 8.308 13.624 2.464 
27 1 8.833 12.282 2.464 
35 1 9.745 10.322 1.228 
43 1 9.106 11.623 1.228 
58 2 8.505 17.206 0.831 
59 3 9.305 17.357 1.404 
3 1 22.577 8.508 2.464 
7 1 21.775 8.508 1.228 
11 1 20.377 8.508 1.228 
20 1 23.447 7.277 2.464 
36 1 23.801 6.694 1.228 
44 1 24.439 5.393 1.228 
47 1 19.64 8.508 2.464 
51 1 18.214 8.508 2.464 
55 1 17.487 8.508 1.228 
17 1 23.447 9.739 2.464 
33 1 23.801 10.322 1.228 
41 1 24.439 11.623 1.228 
15 1 26.502 0.849 2.464 
23 1 25.237 3.392 2.464 
28 1 24.712 4.734 2.464 
31 1 26.149 1.432 1.228 
39 1 25.511 2.733 1.228 
2 1 27.373 17.398 2.464 
6 1 28.175 17.398 1.228 
10 1 29.572 17.398 1.228 
14 1 26.502 16.167 2.464 
22 1 25.237 13.624 2.464 
25 1 24.712 12.282 2.464 
30 1 26.149 15.584 1.228 
38 1 25.511 14.283 1.228 
46 1 30.31 17.398 2.464 
50 1 31.735 17.398 2.464 
54 1 32.462 17.398 1.228 
ITEM: TIMESTEP
10
ITEM: NUMBER OF ATOMS
59
ITEM: BOX BOUNDS pp pp pp
0.0000000000000000e+00 3.2808000000000000e+01
0.0000000000000000e+00 1.7780000000000001e+01
0.0000000000000000e+00 2.4729999999999999e+00
ITEM: ATOMS id type x y z 
13 1 7.00102 0.82567 2.47405 
29 1 7.36712 1.42743 1.24222 
37 1 8.07096 2.74739 1.22846 
1 1 6.20024 17.4306 2.4842 
5 1 5.33918 17.389 1.25063 
9 1 3.95019 17.395 1.22795 
16 1 6.95277 15.9824 2.56074 
32 1 7.36473 15.5705 1.27603 
40 1 8.07429 14.2505 1.23269 
45 1 3.21918 17.3982 2.46448 
49 1 1.81314 17.3981 2.46423 
53 1 1.11254 17.398 1.22778 
57 2 7.4094 17.4596 1.39224 
4 1 10.9614 8.48948 2.46418 
8 1 11.7883 8.50543 1.22774 
12 1 13.1853 8.50786 1.22778 
18 1 10.0719 7.30031 2.46422 
21 1 8.32774 3.41644 2.46514 
26 1 8.82077 4.72245 2.46428 
34 1 9.73502 6.7315 1.22782 
42 1 9.07943 5.3996 1.22779 
48 1 13.9017 8.50797 2.46423 
52 1 15.3266 8.508 2.46423 
56 1 16.0561 8.508 1.22777 
19 1 10.0658 9.71605 2.46423 
24 1 8.31002 13.642 2.46481 
27 1 8.82067 12.2942 2.46427 
35 1 9.71186 10.3286 1.22782 
43 1 9.08182 11.615 1.22778 
58 2 8.59347 17.2526 0.827663 
59 3 9.28692 17.3484 1.41157 
3 1 22.6013 8.508 2.46418 
7 1 21.7637 8.508 1.22774 
11 1 20.3637 8.508 1.22778 
20 1 23.4795 7.29011 2.46422 
36 1 23.8243 6.70189 1.22783 
44 1 24.4471 5.43142 1.22777 
47 1 19.6474 8.508 2.46423 
51 1 18.2201 8.508 2.46423 
55 1 17.4846 8.508 1.22777 
17 1 23.4795 9.72589 2.46422 
33 1 23.8243 10.3141 1.22783 
41 1 24.4471 11.5846 1.22777 
15 1 26.4704 0.835575 2.46422 
23 1 25.2366 3.37027 2.46421 
28 1 24.7144 4.7505 2.46421 
31 1 26.1262 1.42363 1.22783 
39 1 25.5016 2.69821 1.22778 
2 1 27.3481 17.398 2.46418 
6 1 28.186 17.398 1.22774 
10 1 29.5863 17.398 1.22778 
14 1 26.4704 16.1804 2.46422 
22 1 25.2366 13.6457 2.46421 
25 1 24.7144 12.2655 2.46421 
30 1 26.1262 15.5924 1.22783 
38 1 25.5016 14.3178 1.22778 
46 1 30.2984 17.398 2.46423 
50 1 31.7237 17.398 2.46423 
54 1 32.4818 17.398 1.22777 
ITEM: TIMESTEP
20
ITEM: NUMBER OF ATOMS
59
ITEM: BOX BOUNDS pp pp pp
0.0000000000000000e+00 3.2808000000000000e+01
0.0000000000000000e+00 1.7780000000000001e+01
0.0000000000000000e+00 2.4729999999999999e+00
ITEM: ATOMS id type x y z 
13 1 7.01568 0.792899 2.44023 
29 1 7.34743 1.51632 1.21204 
37 1 8.08808 2.73802 1.22803 
1 1 6.18222 17.3855 2.47879 
5 1 5.34904 17.4134 1.25233 
9 1 3.9328 17.3927 1.22863 
16 1 6.85634 15.9936 2.54169 
32 1 7.39032 15.4903 1.29623 
40 1 8.08769 14.3097 1.23969 
45 1 3.19047 17.3981 2.46649 
49 1 1.81106 17.3984 2.46431 
53 1 1.11174 17.398 1.22785 
57 2 7.47129 17.4752 1.46186 
4 1 10.9578 8.48314 2.46422 
8 1 11.7872 8.49857 1.22772 
12 1 13.2 8.50919 1.22775 
18 1 10.0764 7.32985 2.46427 
21 1 8.35699 3.46482 2.4649 
26 1 8.81129 4.71038 2.46437 
34 1 9.70881 6.73814 1.22777 
42 1 9.05118 5.38731 1.22787 
48 1 13.9021 8.50854 2.46425 
52 1 15.2983 8.50808 2.46425 
56 1 16.0375 8.50799 1.22775 
19 1 10.0434 9.71155 2.46427 
24 1 8.32273 13.6527 2.47474 
27 1 8.82744 12.2568 2.46473 
35 1 9.69244 10.323 1.22778 
43 1 9.07702 11.5776 1.22813 
58 2 8.6617 17.2499 0.780111 
59 3 9.30506 17.3464 1.43591 
3 1 22.5943 8.508 2.46422 
7 1 21.7626 8.508 1.22772 
11 1 20.3515 8.508 1.22775 
20 1 23.5041 7.29069 2.46427 
36 1 23.8632 6.66841 1.22777 
44 1 24.4676 5.41526 1.22774 
47 1 19.6594 8.508 2.46425 
51 1 18.2456 8.508 2.46425 
55 1 17.4886 8.508 1.22775 
17 1 23.5041 9.72531 2.46427 
33 1 23.8632 10.3476 1.22777 
41 1 24.4676 11.6007 1.22774 
15 1 26.4484 0.834575 2.46427 
23 1 25.2267 3.3763 2.46424 
28 1 24.7138 4.77141 2.46424 
31 1 26.0889 1.45355 1.22777 
39 1 25.4842 2.70078 1.22775 
2 1 27.3691 17.398 2.46422 
6 1 28.1942 17.398 1.22772 
10 1 29.6012 17.398 1.22775 
14 1 26.4484 16.1814 2.46427 
22 1 25.2267 13.6397 2.46424 
25 1 24.7138 12.2446 2.46424 
30 1 26.0889 15.5625 1.22777 
38 1 25.4842 14.3152 1.22775 
46 1 30.2907 17.398 2.46425 
50 1 31.7252 17.398 2.46425 
54 1 32.4773 17.398 1.22775 
ITEM: TIMESTEP
30
ITEM: NUMBER OF ATOMS
59
ITEM: BOX BOUNDS pp pp pp
0.0000000000000000e+00 3.2808000000000000e+01
0.0000000000000000e+00 1.7780000000000001e+01
0.0000000000000000e+00 2.4729999999999999e+00
ITEM: ATOMS id type x y z 
13 1 7.03039 0.770491 2.4303 
29 1 7.32982 1.53161 1.20309 
37 1 8.10404 2.74443 1.22797 
1 1 6.17329 17.3692 2.4842 
5 1 5.35557 17.4316 1.24888 
9 1 3.92302 17.392 1.22924 
16 1 6.84071 15.9749 2.54193 
32 1 7.38714 15.4911 1.29942 
40 1 8.09616 14.3289 1.24358 
45 1 3.15756 17.3972 2.4663 
49 1 1.80884 17.3985 2.46443 
53 1 1.11837 17.3981 1.22793 
57 2 7.50021 17.4786 1.47584 
4 1 10.9619 8.48494 2.46423 
8 1 11.7845 8.49791 1.22773 
12 1 13.2009 8.50983 1.22775 
18 1 10.0789 7.33791 2.46427 
21 1 8.36437 3.46247 2.46448 
26 1 8.81117 4.71663 2.46439 
34 1 9.69728 6.74495 1.22777 
42 1 9.04405 5.40164 1.22788 
48 1 13.9106 8.50905 2.46425 
52 1 15.2926 8.50814 2.46425 
56 1 16.04 8.50797 1.22775 
19 1 10.0371 9.71274 2.4643 
24 1 8.33788 13.644 2.47854 
27 1 8.82896 12.2413 2.46493 
35 1 9.68172 10.3225 1.22781 
43 1 9.07512 11.5642 1.2284 
58 2 8.6871 17.2477 0.760719 
59 3 9.30657 17.3455 1.44643 
3 1 22.5892 8.508 2.46422 
7 1 21.7688 8.508 1.22773 
11 1 20.3603 8.508 1.22775 
20 1 23.5105 7.29062 2.46427 
36 1 23.8682 6.67875 1.22777 
44 1 24.4657 5.43865 1.22775 
47 1 19.6511 8.508 2.46425 
51 1 18.238 8.508 2.46425 
55 1 17.4954 8.50799 1.22775 
17 1 23.5105 9.72538 2.46427 
33 1 23.8682 10.3372 1.22777 
41 1 24.4657 11.5774 1.22775 
15 1 26.4426 0.8347 2.46426 
23 1 25.2266 3.36581 2.46425 
28 1 24.7219 4.76214 2.46424 
31 1 26.083 1.44605 1.22777 
39 1 25.481 2.6904 1.22775 
2 1 27.3627 17.398 2.46422 
6 1 28.1889 17.398 1.22773 
10 1 29.5936 17.398 1.22775 
14 1 26.4426 16.1813 2.46426 
22 1 25.2266 13.6502 2.46425 
25 1 24.7219 12.2539 2.46424 
30 1 26.083 15.5699 1.22777 
38 1 25.481 14.3256 1.22775 
46 1 30.2862 17.398 2.46425 
50 1 31.7255 17.398 2.46425 
54 1 32.4804 17.398 1.22775 
ITEM: TIMESTEP
40
ITEM: NUMBER OF ATOMS
59
ITEM: BOX BOUNDS pp pp pp
0.0000000000000000e+00 3.2808000000000000e+01
0.0000000000000000e+00 1.7780000000000001e+01
0.0000000000000000e+00 2.4729999999999999e+00
ITEM: ATOMS id type x y z 
13 1 7.20949 0.729364 2.34416 
29 1 7.25264 1.54818 1.12299 
37 1 8.12161 2.68814 1.22036 
1 1 6.08647 17.2566 2.4768 
5 1 5.35734 17.5269 1.23958 
9 1 3.88753 17.3977 1.23193 
16 1 6.72737 15.9276 2.54632 
32 1 7.33743 15.4931 1.31038 
40 1 8.20506 14.3589 1.26858 
45 1 3.13681 17.3855 2.46766 
49 1 1.76856 17.3969 2.46521 
53 1 1.13324 17.3991 1.22867 
57 2 7.61767 17.5715 1.66738 
4 1 10.9737 8.5028 2.46428 
8 1 11.7649 8.5019 1.22778 
12 1 13.2076 8.51528 1.22775 
18 1 10.0708 7.35298 2.46427 
21 1 8.4085 3.38629 2.46112 
26 1 8.8047 4.75871 2.46432 
34 1 9.60329 6.79655 1.22777 
42 1 8.97243 5.46613 1.22786 
48 1 13.9737 8.51313 2.46425 
52 1 15.2925 8.50866 2.46425 
56 1 16.0334 8.50753 1.22775 
19 1 10.0097 9.701 2.46463 
24 1 8.42804 13.6547 2.50322 
27 1 8.7989 12.236 2.46826 
35 1 9.60921 10.2893 1.22817 
43 1 9.01789 11.5319 1.23078 
58 2 8.89803 17.2286 0.617728 
59 3 9.3143 17.3352 1.51466 
3 1 22.5882 8.508 2.46426 
7 1 21.7936 8.508 1.22776 
11 1 20.371 8.508 1.22775 
20 1 23.5436 7.31015 2.46424 
36 1 23.9289 6.71938 1.22774 
44 1 24.5268 5.45606 1.22775 
47 1 19.6038 8.50801 2.46425 
51 1 18.2336 8.508 2.46425 
55 1 17.5079 8.50785 1.22775 
17 1 23.5436 9.70585 2.46424 
33 1 23.9289 10.2966 1.22774 
41 1 24.5268 11.5599 1.22775 
15 1 26.404 0.821527 2.46424 
23 1 25.1976 3.35313 2.46425 
28 1 24.7545 4.76351 2.46425 
31 1 26.0171 1.41614 1.22774 
39 1 25.4249 2.66525 1.22775 
2 1 27.3457 17.398 2.46426 
6 1 28.162 17.398 1.22776 
10 1 29.5534 17.398 1.22775 
14 1 26.404 16.1945 2.46424 
22 1 25.1976 13.6629 2.46425 
25 1 24.7545 12.2525 2.46425 
30 1 26.0171 15.5999 1.22774 
38 1 25.4249 14.3508 1.22775 
46 1 30.3003 17.398 2.46425 
50 1 31.7349 17.398 2.4643 
54 1 32.4927 17.398 1.22781 
ITEM: TIMESTEP
50
ITEM: NUMBER OF ATOMS
59
ITEM: BOX BOUNDS pp pp pp
0.0000000000000000e+00 3.2808000000000000e+01
0.0000000000000000e+00 1.7780000000000001e+01
0.0000000000000000e+00 2.4729999999999999e+00
ITEM: ATOMS id type x y z 
13 1 7.21175 0.693314 2.34547 
29 1 7.26395 1.53852 1.10912 
37 1 8.09902 2.67784 1.21677 
1 1 6.09783 17.2871 2.47763 
5 1 5.35308 17.5387 1.23806 
9 1 3.91115 17.4063 1.23166 
16 1 6.71536 15.9443 2.5416 
32 1 7.31692 15.5023 1.30578 
40 1 8.22845 14.3681 1.26826 
45 1 3.15387 17.3811 2.46827 
49 1 1.7959 17.3942 2.46539 
53 1 1.13946 17.3998 1.22888 
57 2 7.61789 17.5886 1.70231 
4 1 10.9681 8.50231 2.4643 
8 1 11.7616 8.50616 1.22781 
12 1 13.197 8.5164 1.22775 
18 1 10.057 7.33361 2.46427 
21 1 8.41991 3.37009 2.45493 
26 1 8.79839 4.75457 2.46406 
34 1 9.58149 6.79676 1.22777 
42 1 8.95518 5.45848 1.22761 
48 1 13.9631 8.51372 2.46425 
52 1 15.3029 8.50865 2.46425 
56 1 16.0405 8.50717 1.22775 
19 1 10.0071 9.70186 2.46486 
24 1 8.44758 13.6645 2.50466 
27 1 8.7904 12.2453 2.46929 
35 1 9.5971 10.2801 1.22844 
43 1 8.99728 11.5292 1.23211 
58 2 8.91743 17.2259 0.621227 
59 3 9.33127 17.3311 1.50426 
3 1 22.5928 8.508 2.46426 
7 1 21.8016 8.508 1.22776 
11 1 20.3731 8.508 1.22775 
20 1 23.5464 7.30657 2.46425 
36 1 23.9418 6.72315 1.22775 
44 1 24.5393 5.46276 1.22775 
47 1 19.6071 8.50803 2.46425 
51 1 18.2463 8.50801 2.46425 
55 1 17.5134 8.50774 1.22775 
17 1 23.5464 9.70943 2.46425 
33 1 23.9418 10.2929 1.22775 
41 1 24.5393 11.5532 1.22775 
15 1 26.3969 0.824441 2.46425 
23 1 25.1885 3.35579 2.46425 
28 1 24.7595 4.77219 2.46425 
31 1 26.0028 1.41207 1.22775 
39 1 25.409 2.66336 1.22775 
2 1 27.3305 17.398 2.46426 
6 1 28.1587 17.398 1.22776 
10 1 29.5489 17.398 1.22775 
14 1 26.3969 16.1916 2.46425 
22 1 25.1885 13.6602 2.46425 
25 1 24.7595 12.2438 2.46425 
30 1 26.0028 15.6039 1.22775 
38 1 25.409 14.3526 1.22775 
46 1 30.3004 17.398 2.46425 
50 1 31.7427 17.3979 2.46434 
54 1 32.4832 17.3984 1.22785 
ITEM: TIMESTEP
60
ITEM: NUMBER OF ATOMS
59
ITEM: BOX BOUNDS pp pp pp
0.0000000000000000e+00 3.2808000000000000e+01
0.0000000000000000e+00 1.7780000000000001e+01
0.0000000000000000e+00 2.4729999999999999e+00
ITEM: ATOMS id type x y z 
13 1 7.25199 0.672165 2.3455 
29 1 7.26959 1.51897 1.11036 
37 1 8.06735 2.67579 1.20409 
1 1 6.10665 17.3043 2.48279 
5 1 5.37945 17.5881 1.24222 
9 1 3.93256 17.4215 1.23231 
16 1 6.72429 15.95 2.53156 
32 1 7.29732 15.4825 1.29491 
40 1 8.24748 14.4139 1.26977 
45 1 3.18356 17.3663 2.4682 
49 1 1.82768 17.3844 2.46598 
53 1 1.12799 17.4017 1.22943 
57 2 7.67337 17.5672 1.74623 
4 1 10.9524 8.50452 2.4644 
8 1 11.7487 8.51483 1.22791 
12 1 13.1759 8.51891 1.22776 
18 1 10.0175 7.2992 2.46422 
21 1 8.44891 3.33991 2.44292 
26 1 8.78348 4.73447 2.46246 
34 1 9.53056 6.78836 1.22769 
42 1 8.9137 5.46542 1.22626 
48 1 13.9455 8.51509 2.46425 
52 1 15.3144 8.50849 2.46425 
56 1 16.0504 8.50614 1.22775 
19 1 9.99704 9.69902 2.46567 
24 1 8.49658 13.6967 2.50441 
27 1 8.76677 12.2868 2.47316 
35 1 9.56879 10.2546 1.22924 
43 1 8.927 11.5558 1.23561 
58 2 8.96152 17.2172 0.61753 
59 3 9.38079 17.3126 1.4897 
3 1 22.6064 8.508 2.46425 
7 1 21.8136 8.50799 1.22775 
11 1 20.384 8.50801 1.22775 
20 1 23.5547 7.30431 2.46425 
36 1 23.9768 6.73622 1.22775 
44 1 24.5792 5.48276 1.22775 
47 1 19.6167 8.50812 2.46425 
51 1 18.2568 8.50805 2.46425 
55 1 17.5204 8.50737 1.22775 
17 1 23.5547 9.71169 2.46425 
33 1 23.9768 10.2798 1.22775 
41 1 24.5792 11.5332 1.22775 
15 1 26.3824 0.823501 2.46425 
23 1 25.1637 3.35515 2.46425 
28 1 24.7809 4.78223 2.46425 
31 1 25.9665 1.39731 1.22775 
39 1 25.3635 2.65644 1.22775 
2 1 27.3194 17.398 2.46425 
6 1 28.1439 17.398 1.22775 
10 1 29.5338 17.398 1.22776 
14 1 26.3824 16.1925 2.46425 
22 1 25.1637 13.6608 2.46425 
25 1 24.7809 12.2338 2.46425 
30 1 25.9665 15.6187 1.22775 
38 1 25.3635 14.3596 1.22775 
46 1 30.3012 17.3978 2.46427 
50 1 31.735 17.3978 2.46445 
54 1 32.4691 17.4 1.22796 
ITEM: TIMESTEP
70
ITEM: NUMBER OF ATOMS
59
ITEM: BOX BOUNDS pp pp pp
0.0000000000000000e+00 3.2808000000000000e+01
0.0000000000000000e+00 1.7780000000000001e+01
0.0000000000000000e+00 2.4729999999999999e+00
ITEM: ATOMS id type x y z 
13 1 7.27774 0.673216 2.34915 
29 1 7.28491 1.52191 1.11291 
37 1 8.0603 2.68047 1.20056 
1 1 6.12246 17.3019 2.47948 
5 1 5.38796 17.6032 1.24061 
9 1 3.95386 17.4294 1.23226 
16 1 6.70985 15.9605 2.52919 
32 1 7.28801 15.4782 1.29317 
40 1 8.27054 14.4088 1.26874 
45 1 3.19375 17.357 2.46908 
49 1 1.84346 17.3764 2.46621 
53 1 1.12264 17.403 1.2297 
57 2 7.69518 17.5513 1.76529 
4 1 10.9383 8.50103 2.4645 
8 1 11.7368 8.51361 1.228 
12 1 13.1625 8.51993 1.22776 
18 1 10.0027 7.30609 2.46407 
21 1 8.45165 3.32418 2.43733 
26 1 8.78254 4.73695 2.46131 
34 1 9.52344 6.78108 1.22758 
42 1 8.89404 5.47258 1.2249 
48 1 13.9313 8.51563 2.46426 
52 1 15.312 8.50826 2.46425 
56 1 16.0498 8.5056 1.22775 
19 1 9.98532 9.70083 2.46607 
24 1 8.51727 13.7239 2.50488 
27 1 8.76392 12.282 2.4744 
35 1 9.5529 10.2582 1.22978 
43 1 8.90474 11.5526 1.23764 
58 2 8.98232 17.2125 0.611143 
59 3 9.40908 17.303 1.48645 
3 1 22.6108 8.508 2.46425 
7 1 21.8171 8.50799 1.22775 
11 1 20.3893 8.50802 1.22775 
20 1 23.5609 7.30506 2.46425 
36 1 23.9915 6.74591 1.22775 
44 1 24.6046 5.48701 1.22775 
47 1 19.6228 8.50821 2.46425 
51 1 18.2524 8.50807 2.46425 
55 1 17.5158 8.50712 1.22775 
17 1 23.5609 9.71094 2.46425 
33 1 23.9915 10.2701 1.22775 
41 1 24.6046 11.529 1.22775 
15 1 26.3769 0.820759 2.46425 
23 1 25.1504 3.35076 2.46425 
28 1 24.7956 4.78258 2.46425 
31 1 25.9532 1.38691 1.22775 
39 1 25.3412 2.64987 1.22775 
2 1 27.3148 17.398 2.46425 
6 1 28.1429 17.398 1.22775 
10 1 29.522 17.398 1.22777 
14 1 26.3769 16.1952 2.46425 
22 1 25.1504 13.6652 2.46425 
25 1 24.7956 12.2334 2.46425 
30 1 25.9532 15.6291 1.22775 
38 1 25.3412 14.3661 1.22775 
46 1 30.2844 17.3976 2.46428 
50 1 31.7311 17.3979 2.46453 
54 1 32.4417 17.4018 1.228 
ITEM: TIMESTEP
80
ITEM: NUMBER OF ATOMS
59
ITEM: BOX BOUNDS pp pp pp
0.0000000000000000e+00 3.2808000000000000e+01
0.0000000000000000e+00 1.7780000000000001e+01
0.0000000000000000e+00 2.4729999999999999e+00
ITEM: ATOMS id type x y z 
13 1 7.30242 0.667019 2.34639 
29 1 7.29855 1.50468 1.11608 
37 1 8.05315 2.68486 1.19418 
1 1 6.12437 17.3179 2.47976 
5 1 5.41053 17.617 1.23786 
9 1 3.95534 17.4383 1.23321 
16 1 6.71581 15.9424 2.52711 
32 1 7.28332 15.4647 1.29001 
40 1 8.27244 14.4274 1.26912 
45 1 3.22192 17.3471 2.46874 
49 1 1.84002 17.3658 2.46656 
53 1 1.10359 17.404 1.22993 
57 2 7.72588 17.5365 1.79128 
4 1 10.917 8.51515 2.46462 
8 1 11.7248 8.51518 1.22812 
12 1 13.142 8.52103 1.22778 
18 1 9.97851 7.3038 2.46387 
21 1 8.46499 3.33529 2.43447 
26 1 8.7763 4.73188 2.45921 
34 1 9.51359 6.78133 1.22725 
42 1 8.8722 5.47175 1.22332 
48 1 13.9156 8.51651 2.46428 
52 1 15.3118 8.50793 2.46425 
56 1 16.0433 8.50489 1.22775 
19 1 9.96761 9.7111 2.46675 
24 1 8.54959 13.7098 2.50366 
27 1 8.75663 12.3012 2.47703 
35 1 9.53311 10.2661 1.23047 
43 1 8.88695 11.5524 1.23885 
58 2 9.01081 17.2072 0.607571 
59 3 9.44008 17.2908 1.47871 
3 1 22.619 8.508 2.46425 
7 1 21.8224 8.50797 1.22775 
11 1 20.3981 8.50805 1.22775 
20 1 23.5677 7.30738 2.46425 
36 1 24.0101 6.75505 1.22775 
44 1 24.6354 5.49673 1.22775 
47 1 19.6263 8.50836 2.46425 
51 1 18.2509 8.5081 2.46425 
55 1 17.5123 8.50676 1.22775 
17 1 23.5676 9.70862 2.46425 
33 1 24.0101 10.261 1.22775 
41 1 24.6354 11.5193 1.22775 
15 1 26.3656 0.823387 2.46425 
23 1 25.1308 3.34942 2.46425 
28 1 24.8142 4.78847 2.46425 
31 1 25.93 1.3824 1.22775 
39 1 25.3122 2.6379 1.22775 
2 1 27.2966 17.398 2.46425 
6 1 28.1287 17.3981 1.22776 
10 1 29.5291 17.3979 1.22779 
14 1 26.3656 16.1926 2.46425 
22 1 25.1308 13.6666 2.46425 
25 1 24.8142 12.2275 2.46425 
30 1 25.93 15.6336 1.22775 
38 1 25.3122 14.3781 1.22775 
46 1 30.2872 17.397 2.4643 
50 1 31.721 17.3982 2.46459 
54 1 32.469 17.4046 1.22813 
ITEM: TIMESTEP
90
ITEM: NUMBER OF ATOMS
59
ITEM: BOX BOUNDS pp pp pp
0.0000000000000000e+00 3.2808000000000000e+01
0.0000000000000000e+00 1.7780000000000001e+01
0.0000000000000000e+00 2.4729999999999999e+00
ITEM: ATOMS id type x y z 
13 1 7.31311 0.661653 2.34822 
29 1 7.31126 1.50615 1.11507 
37 1 8.05291 2.68808 1.19352 
1 1 6.13246 17.3112 2.47764 
5 1 5.41016 17.62 1.23813 
9 1 3.97202 17.4435 1.23293 
16 1 6.71112 15.95 2.52557 
32 1 7.27844 15.4617 1.28893 
40 1 8.28026 14.425 1.26845 
45 1 3.22039 17.3429 2.46925 
49 1 1.84523 17.36 2.46664 
53 1 1.10601 17.404 1.23006 
57 2 7.7386 17.5285 1.80322 
4 1 10.9046 8.51375 2.46468 
8 1 11.724 8.51561 1.22818 
12 1 13.1233 8.52119 1.22779 
18 1 9.97163 7.30844 2.46366 
21 1 8.46244 3.32705 2.43144 
26 1 8.77409 4.7351 2.45855 
34 1 9.50801 6.77862 1.2271 
42 1 8.86477 5.47494 1.22238 
48 1 13.895 8.51706 2.46429 
52 1 15.3202 8.50769 2.46425 
56 1 16.0471 8.50448 1.22775 
19 1 9.96082 9.71223 2.46709 
24 1 8.55714 13.7274 2.50402 
27 1 8.75547 12.2987 2.4772 
35 1 9.52639 10.264 1.23078 
43 1 8.87323 11.5602 1.23994 
58 2 9.02328 17.2047 0.605146 
59 3 9.45447 17.2853 1.47615 
3 1 22.6217 8.508 2.46425 
7 1 21.8248 8.50796 1.22775 
11 1 20.4002 8.50808 1.22775 
20 1 23.5716 7.30712 2.46425 
36 1 24.0179 6.75938 1.22775 
44 1 24.6504 5.49983 1.22775 
47 1 19.6306 8.50845 2.46425 
51 1 18.2515 8.50811 2.46425 
55 1 17.515 8.50657 1.22775 
17 1 23.5715 9.70888 2.46425 
33 1 24.0179 10.2566 1.22775 
41 1 24.6504 11.5162 1.22775 
15 1 26.3633 0.820359 2.46425 
23 1 25.1219 3.34767 2.46425 
28 1 24.824 4.78808 2.46425 
31 1 25.9241 1.37559 1.22775 
39 1 25.2971 2.63705 1.22775 
2 1 27.305 17.398 2.46426 
6 1 28.1295 17.3981 1.22776 
10 1 29.5198 17.3978 1.2278 
14 1 26.3634 16.1956 2.46425 
22 1 25.1219 13.6683 2.46425 
25 1 24.824 12.2279 2.46425 
30 1 25.9241 15.6404 1.22775 
38 1 25.2972 14.3789 1.22775 
46 1 30.2775 17.3967 2.46431 
50 1 31.7231 17.3986 2.46465 
54 1 32.4477 17.4062 1.22816 
ITEM: TIMESTEP
100
ITEM: NUMBER OF ATOMS
59
ITEM: BOX BOUNDS pp pp pp
0.0000000000000000e+00 3.2808000000000000e+01
0.0000000000000000e+00 1.7780000000000001e+01
0.0000000000000000e+00 2.4729999999999999e+00
ITEM: ATOMS id type x y z 
13 1 7.33447 0.651945 2.34688 
29 1 7.33855 1.49517 1.11549 
37 1 8.05035 2.69045 1.18918 
1 1 6.14031 17.3124 2.47545 
5 1 5.41631 17.629 1.23614 
9 1 3.98189 17.4531 1.2331 
16 1 6.70803 15.9469 2.52259 
32 1 7.27095 15.452 1.2862 
40 1 8.29045 14.4329 1.26805 
45 1 3.23319 17.3355 2.46947 
49 1 1.8407 17.3478 2.46687 
53 1 1.10162 17.4018 1.23029 
57 2 7.77138 17.5085 1.83424 
4 1 10.8905 8.52042 2.46485 
8 1 11.7189 8.51865 1.2283 
12 1 13.111 8.52092 1.22784 
18 1 9.9534 7.31801 2.46321 
21 1 8.46414 3.3275 2.42739 
26 1 8.76625 4.73872 2.45638 
34 1 9.49799 6.78106 1.22657 
42 1 8.84763 5.47864 1.22038 
48 1 13.8605 8.5183 2.46433 
52 1 15.3115 8.50735 2.46426 
56 1 16.0424 8.50378 1.22776 
19 1 9.94467 9.71528 2.46786 
24 1 8.58084 13.7409 2.50351 
27 1 8.75075 12.3034 2.47873 
35 1 9.50767 10.2676 1.23168 
43 1 8.85247 11.5669 1.24141 
58 2 9.05437 17.1988 0.599811 
59 3 9.48902 17.2719 1.46952 
3 1 22.6306 8.50799 2.46425 
7 1 21.8282 8.50793 1.22775 
11 1 20.4109 8.50816 1.22775 
20 1 23.5804 7.30828 2.46425 
36 1 24.0363 6.77015 1.22775 
44 1 24.6883 5.50853 1.22775 
47 1 19.6403 8.5087 2.46425 
51 1 18.2426 8.50811 2.46425 
55 1 17.496 8.50602 1.22775 
17 1 23.5804 9.70772 2.46425 
33 1 24.0363 10.2458 1.22775 
41 1 24.6883 11.5075 1.22775 
15 1 26.3557 0.816678 2.46425 
23 1 25.0981 3.34661 2.46425 
28 1 24.8485 4.78888 2.46425 
31 1 25.9072 1.36234 1.22775 
39 1 25.2608 2.62798 1.22775 
2 1 27.3007 17.398 2.46426 
6 1 28.1255 17.3982 1.22776 
10 1 29.5181 17.3974 1.22783 
14 1 26.3557 16.1993 2.46425 
22 1 25.0981 13.6694 2.46425 
25 1 24.8485 12.2271 2.46425 
30 1 25.9073 15.6537 1.22775 
38 1 25.2608 14.388 1.22775 
46 1 30.2719 17.3959 2.46434 
50 1 31.719 17.3999 2.46478 
54 1 32.4482 17.4104 1.22829 
ITEM: TIMESTEP
110
ITEM: NUMBER OF ATOMS
59
ITEM: BOX BOUNDS pp pp pp
0.0000000000000000e+00 3.2808000000000000e+01
0.0000000000000000e+00 1.7780000000000001e+01
0.0000000000000000e+00 2.4729999999999999e+00
ITEM: ATOMS id type x y z 
13 1 7.36314 0.632223 2.34104 
29 1 7.39732 1.47256 1.11253 
37 1 8.05121 2.69233 1.18258 
1 1 6.15486 17.3092 2.47012 
5 1 5.42921 17.6394 1.23133 
9 1 4.00147 17.4697 1.23314 
16 1 6.70948 15.9356 2.51831 
32 1 7.26082 15.4334 1.28125 
40 1 8.30537 14.4344 1.26663 
45 1 3.26459 17.3241 2.46954 
49 1 1.82906 17.326 2.46716 
53 1 1.08663 17.3948 1.23059 
57 2 7.82858 17.4733 1.89803 
4 1 10.8637 8.53869 2.46507 
8 1 11.679 8.52727 1.22856 
12 1 13.0851 8.52087 1.22793 
18 1 9.92248 7.3301 2.46212 
21 1 8.45779 3.33518 2.42034 
26 1 8.74878 4.74751 2.45264 
34 1 9.4801 6.78887 1.22551 
42 1 8.8295 5.49016 1.21653 
48 1 13.8491 8.51911 2.46442 
52 1 15.2833 8.5069 2.46427 
56 1 16.0267 8.50272 1.22777 
19 1 9.91202 9.73114 2.46941 
24 1 8.60934 13.7416 2.50264 
27 1 8.74345 12.3296 2.48122 
35 1 9.47506 10.2812 1.23314 
43 1 8.83217 11.5811 1.24378 
58 2 9.11009 17.1886 0.591297 
59 3 9.54776 17.2483 1.45816 
3 1 22.6402 8.508 2.46425 
7 1 21.8172 8.50788 1.22775 
11 1 20.4187 8.50841 1.22775 
20 1 23.5942 7.31368 2.46425 
36 1 24.0662 6.79209 1.22775 
44 1 24.7658 5.51944 1.22775 
47 1 19.664 8.50916 2.46425 
51 1 18.2176 8.50798 2.46425 
55 1 17.4773 8.50502 1.22775 
17 1 23.5941 9.70234 2.46425 
33 1 24.0662 10.2239 1.22775 
41 1 24.7658 11.4966 1.22775 
15 1 26.3444 0.811533 2.46425 
23 1 25.0533 3.35102 2.46425 
28 1 24.8954 4.78229 2.46425 
31 1 25.8782 1.33798 1.22775 
39 1 25.1875 2.61425 1.22775 
2 1 27.2963 17.3981 2.46427 
6 1 28.1205 17.3983 1.22777 
10 1 29.5163 17.3963 1.22789 
14 1 26.3446 16.2045 2.46425 
22 1 25.0533 13.6651 2.46425 
25 1 24.8954 12.2337 2.46425 
30 1 25.8784 15.678 1.22775 
38 1 25.1875 14.4018 1.22775 
46 1 30.2629 17.3944 2.4644 
50 1 31.716 17.404 2.46502 
54 1 32.4503 17.4186 1.22855 
ITEM: TIMESTEP
120
ITEM: NUMBER OF ATOMS
59
ITEM: BOX BOUNDS pp pp pp
0.0000000000000000e+00 3.2808000000000000e+01
0.0000000000000000e+00 1.7780000000000001e+01
0.0000000000000000e+00 2.4729999999999999e+00
ITEM: ATOMS id type x y z 
13 1 7.36906 0.627274 2.33802 
29 1 7.41329 1.46645 1.11042 
37 1 8.05343 2.69175 1.1807 
1 1 6.15534 17.3108 2.46847 
5 1 5.43051 17.6419 1.22965 
9 1 4.00486 17.4725 1.23295 
16 1 6.69972 15.9364 2.51695 
32 1 7.25703 15.4335 1.28059 
40 1 8.31014 14.4455 1.2666 
45 1 3.26948 17.3224 2.46938 
49 1 1.82728 17.3207 2.46718 
53 1 1.08772 17.392 1.2306 
57 2 7.84448 17.4644 1.91704 
4 1 10.8663 8.53781 2.46513 
8 1 11.689 8.52994 1.22857 
12 1 13.0872 8.52109 1.22796 
18 1 9.92014 7.33643 2.46185 
21 1 8.45343 3.33751 2.41905 
26 1 8.74414 4.75141 2.45159 
34 1 9.4765 6.79292 1.22512 
42 1 8.82516 5.49126 1.21573 
48 1 13.8432 8.51856 2.46444 
52 1 15.2871 8.50682 2.46428 
56 1 16.0294 8.50273 1.22777 
19 1 9.91042 9.72759 2.46969 
24 1 8.61957 13.7592 2.50237 
27 1 8.74376 12.3204 2.48141 
35 1 9.4706 10.276 1.23355 
43 1 8.82197 11.5782 1.24414 
58 2 9.12324 17.1862 0.589521 
59 3 9.56071 17.243 1.45618 
3 1 22.6389 8.50801 2.46425 
7 1 21.818 8.5079 1.22775 
11 1 20.4193 8.50852 1.22775 
20 1 23.5979 7.31726 2.46425 
36 1 24.0664 6.79251 1.22775 
44 1 24.7729 5.52191 1.22775 
47 1 19.6628 8.50919 2.46425 
51 1 18.2199 8.5078 2.46425 
55 1 17.4765 8.5049 1.22775 
17 1 23.5978 9.69878 2.46425 
33 1 24.0664 10.2235 1.22775 
41 1 24.7729 11.4941 1.22775 
15 1 26.3383 0.812396 2.46426 
23 1 25.0458 3.35088 2.46425 
28 1 24.9024 4.78764 2.46425 
31 1 25.8729 1.34043 1.22775 
39 1 25.1755 2.61631 1.22775 
2 1 27.2884 17.3981 2.46427 
6 1 28.1129 17.3982 1.22778 
10 1 29.5086 17.3958 1.2279 
14 1 26.3385 16.2036 2.46426 
22 1 25.0459 13.6652 2.46425 
25 1 24.9023 12.2284 2.46425 
30 1 25.8731 15.6756 1.22775 
38 1 25.1756 14.3997 1.22775 
46 1 30.2636 17.3942 2.46442 
50 1 31.7082 17.4057 2.46507 
54 1 32.4492 17.4207 1.22862 
ITEM: TIMESTEP
130
ITEM: NUMBER OF ATOMS
59
ITEM: BOX BOUNDS pp pp pp
0.0000000000000000e+00 3.2808000000000000e+01
0.0000000000000000e+00 1.7780000000000001e+01
0.0000000000000000e+00 2.4729999999999999e+00
ITEM: ATOMS id type x y z 
13 1 7.41403 0.587842 2.30485 
29 1 7.58919 1.39872 1.08026 
37 1 8.082 2.68485 1.16208 
1 1 6.12918 17.304 2.4492 
5 1 5.41732 17.6262 1.21265 
9 1 3.98393 17.4812 1.23012 
16 1 6.68306 15.9246 0.0304712 
32 1 7.23588 15.4154 1.26772 
57 2 7.98217 17.3695 2.13086 
45 1 3.24536 17.3395 2.46689 
49 1 1.80285 17.2894 2.46723 
53 1 1.05571 17.3464 1.2306 
4 1 10.8672 8.57156 2.46553 
8 1 11.6807 8.55929 1.22893 
12 1 13.0861 8.52398 1.22823 
18 1 9.89262 7.38721 2.45851 
21 1 8.39344 3.38097 2.40311 
26 1 8.68912 4.79307 2.44148 
34 1 9.45619 6.83561 1.22142 
42 1 8.81707 5.52421 1.20648 
48 1 13.8489 8.51266 2.46469 
52 1 15.2848 8.50546 2.46436 
56 1 16.0342 8.50298 1.22784 
19 1 9.87267 9.73437 1.84414e-05 
24 1 8.66711 13.7847 0.0274052 
27 1 8.73612 12.3408 0.0113816 
35 1 9.42536 10.2813 1.23699 
43 1 8.80289 11.595 1.24744 
58 2 9.25864 17.1622 0.575232 
59 3 9.69108 17.1897 1.43732 
40 1 8.32591 14.4644 1.26375 
3 1 22.6499 8.50798 2.46425 
7 1 21.8337 8.50815 1.22775 
11 1 20.4276 8.50955 1.22775 
20 1 23.6337 7.3304 2.46425 
36 1 24.0813 6.78818 1.22775 
55 1 17.4774 8.50369 1.22777 
47 1 19.6655 8.50946 2.46425 
51 1 18.2262 8.50609 2.46426 
17 1 23.6336 9.6857 2.46425 
33 1 24.0811 10.228 1.22775 
15 1 26.2786 0.807081 2.46427 
23 1 24.983 3.34766 2.46425 
28 1 24.9668 4.80294 2.46425 
31 1 25.8459 1.35532 1.22776 
39 1 25.1054 2.6185 1.22775 
44 1 24.8315 5.53108 1.22775 
2 1 27.2509 17.3984 2.46432 
6 1 28.0623 17.3969 1.22784 
10 1 29.4729 17.3909 1.22812 
14 1 26.2789 16.2089 2.46427 
22 1 24.9832 13.6685 2.46425 
25 1 24.9666 12.2131 2.46425 
30 1 25.8465 15.6607 1.22776 
38 1 25.1058 14.3976 1.22775 
46 1 30.2372 17.3956 2.46468 
50 1 31.672 17.4268 2.46562 
54 1 32.4251 17.4306 1.22927 
41 1 24.8313 11.4851 1.22775 
ITEM: TIMESTEP
140
ITEM: NUMBER OF ATOMS
59
ITEM: BOX BOUNDS pp pp pp
0.0000000000000000e+00 3.2808000000000000e+01
0.0000000000000000e+00 1.7780000000000001e+01
0.0000000000000000e+00 2.4729999999999999e+00
ITEM: ATOMS id type x y z 
13 1 7.43564 0.574404 2.30638 
29 1 7.60718 1.38774 1.08086 
37 1 8.08904 2.67886 1.15775 
1 1 6.12371 17.3055 2.44699 
5 1 5.4095 17.6121 1.21068 
9 1 3.97068 17.478 1.22847 
16 1 6.68096 15.9291 0.0271146 
32 1 7.23429 15.4177 1.2644 
57 2 7.9792 17.3841 2.15258 
45 1 3.23367 17.3534 2.4653 
49 1 1.78955 17.2939 2.46698 
53 1 1.04459 17.3405 1.23048 
4 1 10.8734 8.5723 2.46546 
8 1 11.6859 8.56327 1.22891 
12 1 13.0913 8.52517 1.22827 
18 1 9.89715 7.39051 2.45774 
21 1 8.36922 3.38705 2.39877 
26 1 8.67736 4.79851 2.43937 
34 1 9.46152 6.83706 1.2205 
42 1 8.82358 5.52207 1.20453 
48 1 13.8544 8.51269 2.46472 
52 1 15.2888 8.50449 2.46439 
56 1 16.0372 8.50311 1.22786 
19 1 9.87608 9.73467 0.000364626 
24 1 8.65835 13.7853 0.0267405 
27 1 8.74059 12.3421 0.0115592 
35 1 9.4291 10.2798 1.23735 
43 1 8.80908 11.5997 1.24765 
58 2 9.28604 17.1579 0.576437 
59 3 9.7041 17.1843 1.44138 
40 1 8.3193 14.465 1.26278 
3 1 22.6507 8.50792 2.46425 
7 1 21.8355 8.5083 1.22775 
11 1 20.4289 8.50949 1.22775 
20 1 23.631 7.32763 2.46425 
36 1 24.0822 6.78946 1.22775 
55 1 17.4815 8.50387 1.22777 
47 1 19.6701 8.50923 2.46425 
51 1 18.2282 8.50593 2.46427 
17 1 23.6308 9.68843 2.46425 
33 1 24.082 10.2266 1.22775 
15 1 26.2822 0.806404 2.46427 
23 1 24.9922 3.35142 2.46425 
28 1 24.9561 4.79874 2.46425 
31 1 25.8429 1.35225 1.22777 
39 1 25.1234 2.61985 1.22775 
44 1 24.8155 5.53181 1.22775 
2 1 27.2459 17.3984 2.46434 
6 1 28.065 17.3959 1.22786 
10 1 29.4659 17.3918 1.22819 
14 1 26.2823 16.2097 2.46427 
22 1 24.9923 13.6646 2.46425 
25 1 24.9559 12.2173 2.46425 
30 1 25.8433 15.6637 1.22777 
38 1 25.1236 14.3962 1.22775 
46 1 30.2262 17.3994 2.46474 
50 1 31.6632 17.4278 2.46569 
54 1 32.4123 17.423 1.22927 
41 1 24.8153 11.4843 1.22775 
ITEM: TIMESTEP
150
ITEM: NUMBER OF ATOMS
59
ITEM: BOX BOUNDS pp pp pp
0.0000000000000000e+00 3.2808000000000000e+01
0.0000000000000000e+00 1.7780000000000001e+01
0.0000000000000000e+00 2.4729999999999999e+00
ITEM: ATOMS id type x y z 
13 1 7.44732 0.559546 2.31856 
29 1 7.65766 1.37069 1.08294 
37 1 8.09205 2.67389 1.14689 
1 1 6.12446 17.3127 2.4424 
5 1 5.40112 17.6102 1.20619 
9 1 3.96682 17.4836 1.2237 
16 1 6.67021 15.9276 0.0171172 
32 1 7.22701 15.4261 1.25545 
57 2 8.00358 17.3683 2.20724 
45 1 3.2243 17.3798 2.46082 
49 1 1.78363 17.2975 2.46607 
53 1 1.03731 17.3252 1.22972 