ITEM: TIMESTEP
0
ITEM: NUMBER OF ATOMS
129
ITEM: BOX BOUNDS xy xz yz pp pp pp
0.0000000000000000e+00 2.3654499999999999e+01 7.8845000000000001e+00
0.0000000000000000e+00 1.3658086643083999e+01 0.0000000000000000e+00
0.0000000000000000e+00 2.5747000000000000e+01 0.0000000000000000e+00
ITEM: ATOMS id type x y z 
18 1 10.522 6.683 2.644 
28 1 5.247 4.273 12.803 
31 1 9.65 6.514 0.446 
62 1 9.171 5.15 12.405 
91 1 9.65 6.514 11.889 
92 1 10.81 6.18 11.007 
106 1 10.522 6.683 9.691 
127 1 10.81 6.18 1.328 
4 1 4.402 5.735 13.319 
5 1 3.307 5.568 14.201 
43 1 4.549 6.796 15.517 
52 1 9.172 5.15 25.677 
66 1 4.402 5.735 24.762 
67 1 5.003 6.76 23.881 
88 1 5.247 4.273 25.278 
107 1 3.307 5.568 23.881 
116 1 4.549 6.796 22.565 
117 1 5.003 6.76 14.201 
11 1 11.272 7.494 3.321 
12 1 10.477 8.871 4.018 
14 1 9.018 11.397 0.446 
15 1 10.114 11.565 1.328 
16 1 8.412 9.024 0.654 
19 1 10.477 8.871 5.569 
29 1 10.927 10.156 3.321 
32 1 8.77 7.648 1.328 
35 1 12.036 9.594 2.644 
45 1 9.231 8.963 3.321 
47 1 12.762 8.702 0.446 
49 1 11.224 11 0.654 
51 1 8.872 10.337 2.644 
53 1 11.272 7.494 9.014 
54 1 10.477 8.871 8.317 
56 1 9.018 11.397 11.889 
57 1 8.418 10.372 11.007 
58 1 11.224 11 11.681 
60 1 12.255 7.901 9.691 
61 1 10.477 8.871 6.766 
73 1 9.231 8.963 9.014 
75 1 12.762 8.702 11.889 
76 1 12.202 10.061 11.007 
79 1 9.224 7.617 9.691 
80 1 8.174 12.859 12.405 
89 1 10.927 10.156 9.014 
93 1 8.412 9.024 11.681 
95 1 9.951 11.095 9.691 
105 1 10.114 11.565 11.007 
109 1 8.77 7.648 11.007 
110 1 12.036 9.594 9.691 
114 1 8.872 10.337 9.691 
119 1 8.418 10.372 1.328 
120 1 12.255 7.901 2.644 
123 1 12.202 10.061 1.328 
124 1 9.224 7.617 2.644 
128 1 9.951 11.095 2.644 
6 1 5.009 8.108 13.527 
13 1 9.663 10.28 25.128 
17 1 9.204 8.965 25.162 
30 1 10.016 7.556 25.128 
34 1 11.289 7.464 25.162 
36 1 8.174 12.859 25.677 
46 1 11.752 8.777 25.128 
50 1 10.937 10.184 25.162 
55 1 9.663 10.28 12.954 
59 1 10.937 10.184 12.919 
74 1 11.752 8.777 12.954 
78 1 11.289 7.464 12.919 
90 1 10.016 7.556 12.954 
94 1 9.204 8.965 12.919 
101 1 5.009 8.108 24.555 
33 1 11.795 6.589 0.654 
77 1 11.795 6.589 11.681 
129 2 10.81 4.83 11.007 
41 1 17.967 6.132 13.527 
68 1 17.967 6.132 24.554 
103 1 19.24 6.037 22.565 
126 1 19.24 6.037 15.517 
3 1 19.528 6.852 12.254 
7 1 19.987 8.167 12.289 
10 1 15.106 8.528 12.804 
22 1 19.175 9.576 12.254 
26 1 17.902 9.668 12.289 
38 1 17.439 8.356 12.254 
42 1 18.254 6.949 12.289 
44 1 20.019 11.982 12.804 
48 1 12.546 7.4 1.328 
65 1 19.528 6.852 0.081 
69 1 18.254 6.949 0.046 
82 1 17.439 8.356 0.081 
86 1 17.902 9.668 0.046 
96 1 14.084 8.604 12.405 
98 1 19.175 9.576 0.081 
102 1 19.987 8.167 0.046 
113 1 12.546 7.4 11.007 
1 1 17.919 9.638 16.194 
2 1 18.714 8.261 16.892 
8 1 18.669 10.449 15.517 
9 1 18.714 8.261 18.442 
20 1 14.084 8.604 25.677 
21 1 18.264 6.977 16.194 
23 1 19.541 10.618 13.32 
24 1 20.421 9.484 14.201 
25 1 17.396 10.544 13.527 
27 1 17.155 7.538 15.517 
37 1 19.96 8.169 16.194 
39 1 16.429 8.43 13.319 
40 1 16.644 9.732 14.201 
63 1 17.919 9.638 21.888 
64 1 18.714 8.261 21.19 
70 1 16.936 9.231 22.565 
71 1 18.714 8.261 19.64 
72 1 20.019 11.982 25.278 
81 1 19.96 8.169 21.888 
83 1 16.429 8.43 24.762 
84 1 16.989 7.071 23.881 
85 1 17.396 10.544 24.555 
87 1 19.967 9.515 22.565 
97 1 18.263 6.977 21.888 
99 1 19.541 10.618 24.762 
100 1 18.38 10.953 23.881 
104 1 15.106 8.528 25.278 
108 1 18.669 10.449 22.565 
111 1 20.421 9.484 23.881 
112 1 17.155 7.538 22.565 
115 1 16.644 9.732 23.881 
118 1 16.936 9.231 15.517 
121 1 16.989 7.071 14.201 
122 1 19.967 9.515 15.517 
125 1 18.38 10.953 14.201 
ITEM: TIMESTEP
10
ITEM: NUMBER OF ATOMS
129
ITEM: BOX BOUNDS xy xz yz pp pp pp
0.0000000000000000e+00 2.3654499999999999e+01 7.8845000000000001e+00
0.0000000000000000e+00 1.3658086643083999e+01 0.0000000000000000e+00
0.0000000000000000e+00 2.5747000000000000e+01 0.0000000000000000e+00
ITEM: ATOMS id type x y z 
18 1 10.4127 6.73401 2.64022 
28 1 5.19015 4.38629 12.8376 
31 1 9.51316 6.46862 0.425179 
62 1 9.14424 5.21484 12.4062 
91 1 9.47961 6.52927 11.9346 
92 1 10.7483 6.09589 10.9383 
106 1 10.3879 6.75617 9.65481 
127 1 10.8172 6.16751 1.35201 
4 1 4.42377 5.74489 13.2683 
5 1 3.22433 5.57893 14.1932 
43 1 4.56181 6.90552 15.5276 
52 1 9.16315 5.2107 25.6943 
66 1 4.42356 5.75522 24.8112 
67 1 5.06668 6.85835 23.903 
88 1 5.19017 4.38608 25.2433 
107 1 3.22473 5.57911 23.8891 
116 1 4.56394 6.90423 22.561 
117 1 5.07701 6.8562 14.1817 
11 1 11.3145 7.53997 3.33448 
12 1 10.4841 8.86332 4.06977 
14 1 8.99833 11.383 0.396369 
15 1 10.1959 11.5539 1.31908 
16 1 8.43546 8.97106 0.687767 
19 1 10.475 8.87006 5.55521 
29 1 10.9381 10.1486 3.31953 
32 1 8.75141 7.69516 1.29586 
35 1 12.0339 9.58556 2.58643 
45 1 9.22784 8.95711 3.2757 
47 1 12.7493 8.77056 0.527808 
49 1 11.2878 10.9252 0.683263 
51 1 8.85845 10.2271 2.65441 
53 1 11.3144 7.53436 8.99303 
54 1 10.4785 8.8733 8.26381 
56 1 8.99321 11.3698 11.9333 
57 1 8.37296 10.27 11.0388 
58 1 11.2781 10.9359 11.6605 
60 1 12.2579 7.99575 9.64579 
61 1 10.4749 8.87196 6.77944 
73 1 9.22729 8.95618 9.06144 
75 1 12.7629 8.78937 11.826 
76 1 12.2036 10.0589 11.0141 
79 1 9.24771 7.64221 9.74492 
80 1 8.23048 12.7466 12.3707 
89 1 10.9392 10.1528 9.01177 
93 1 8.44868 8.96594 11.644 
95 1 10.0159 11.0766 9.67555 
105 1 10.1909 11.551 11.0151 
109 1 8.76786 7.71168 11.0498 
110 1 12.0325 9.57283 9.73622 
114 1 8.85165 10.2247 9.69376 
119 1 8.34733 10.2789 1.30677 
120 1 12.2545 7.98395 2.68375 
123 1 12.191 10.0545 1.31895 
124 1 9.25762 7.64105 2.61359 
128 1 10.0164 11.0762 2.66127 
6 1 4.98737 8.14885 13.5612 
13 1 9.59152 10.3571 25.1294 
17 1 9.22398 8.98356 25.1557 
30 1 9.98103 7.63959 25.1111 
34 1 11.318 7.44723 25.1174 
36 1 8.23067 12.7462 25.7116 
46 1 11.6833 8.80344 25.0957 
50 1 10.9431 10.1236 25.1727 
55 1 9.59361 10.3274 12.9416 
59 1 10.9411 10.1401 12.9083 
74 1 11.6573 8.78222 12.9957 
78 1 11.3236 7.42246 12.9171 
90 1 9.98624 7.66132 12.9444 
94 1 9.22111 8.97144 12.901 
101 1 4.97909 8.12891 24.5398 
33 1 11.7706 6.55062 0.665787 
77 1 11.8741 6.66219 11.7649 
129 2 10.828 4.76415 10.9817 
41 1 17.9043 6.20562 13.555 
68 1 17.9072 6.20186 24.521 
103 1 19.178 6.05896 22.5494 
126 1 19.1752 6.05615 15.5343 
3 1 19.5987 6.76619 12.2526 
7 1 19.9491 8.13664 12.2727 
10 1 15.1506 8.49058 12.8313 
22 1 19.1907 9.4987 12.2443 
26 1 17.8797 9.67391 12.2579 
38 1 17.5166 8.3446 12.221 
42 1 18.2656 7.02436 12.2998 
44 1 20.0277 11.9224 12.8206 
48 1 12.5915 7.48973 1.37731 
65 1 19.6171 6.77809 0.0750575 
69 1 18.2568 6.98421 0.0415527 
82 1 17.5195 8.35928 0.141894 
86 1 17.8799 9.69935 0.0839777 
96 1 14.0409 8.64406 12.3786 
98 1 19.196 9.48029 0.0860922 
102 1 19.9738 8.13564 0.0420396 
113 1 12.5933 7.44867 10.9799 
1 1 17.8723 9.59127 16.206 
2 1 18.7067 8.26909 16.9444 
8 1 18.7794 10.3987 15.5152 
9 1 18.7161 8.26123 18.4287 
20 1 14.0344 8.64165 25.7081 
21 1 18.2546 6.98235 16.194 
23 1 19.6733 10.6659 13.2931 
24 1 20.4451 9.44334 14.1619 
25 1 17.4221 10.5774 13.5301 
27 1 17.1545 7.54775 15.4622 
37 1 19.9642 8.17368 16.1503 
39 1 16.4399 8.36461 13.3961 
40 1 16.5998 9.64379 14.2501 
63 1 17.8732 9.5914 21.875 
64 1 18.7069 8.27032 21.1372 
70 1 16.9386 9.14885 22.5237 
71 1 18.7161 8.26128 19.6531 
72 1 20.0278 11.9226 25.2613 
81 1 19.963 8.17268 21.931 
83 1 16.4231 8.36591 24.6642 
84 1 16.9985 7.06824 23.887 
85 1 17.4195 10.581 24.5498 
87 1 19.9241 9.49275 22.5724 
97 1 18.2548 6.98084 21.8874 
99 1 19.6727 10.6772 24.7868 
100 1 18.3733 10.9663 23.8574 
104 1 15.1489 8.49108 25.2476 
108 1 18.7789 10.3991 22.5654 
111 1 20.4465 9.44778 23.9363 
112 1 17.1541 7.54821 22.619 
115 1 16.5995 9.64626 23.8294 
118 1 16.9396 9.14926 15.5586 
121 1 16.9985 7.07529 14.1903 
122 1 19.928 9.49272 15.4977 
125 1 18.3723 10.9653 14.2231 
ITEM: TIMESTEP
20
ITEM: NUMBER OF ATOMS
129
ITEM: BOX BOUNDS xy xz yz pp pp pp
0.0000000000000000e+00 2.3654499999999999e+01 7.8845000000000001e+00
0.0000000000000000e+00 1.3658086643083999e+01 0.0000000000000000e+00
0.0000000000000000e+00 2.5747000000000000e+01 0.0000000000000000e+00
ITEM: ATOMS id type x y z 
18 1 10.4041 6.74114 2.6389 
28 1 5.1764 4.41308 12.8453 
31 1 9.49315 6.48218 0.425768 
62 1 9.13763 5.23689 12.4053 
91 1 9.46582 6.54346 11.9391 
92 1 10.7366 6.08535 10.9361 
106 1 10.3748 6.76031 9.64888 
127 1 10.8234 6.17095 1.35853 
4 1 4.42769 5.76446 13.2807 
5 1 3.23012 5.58717 14.1875 
43 1 4.57148 6.91501 15.5017 
52 1 9.15669 5.21071 25.6928 
66 1 4.43504 5.76784 24.8006 
67 1 5.04282 6.87114 23.9033 
88 1 5.18061 4.40579 25.2379 
107 1 3.22244 5.58437 23.8917 
116 1 4.5769 6.9173 22.586 
117 1 5.04998 6.87227 14.1757 
11 1 11.3186 7.54633 3.33628 
12 1 10.4837 8.86328 4.07519 
14 1 8.99256 11.3609 0.405966 
15 1 10.1924 11.5483 1.3166 
16 1 8.44938 8.96915 0.690906 
19 1 10.4746 8.86987 5.56466 
29 1 10.9489 10.1461 3.31961 
32 1 8.75461 7.71629 1.29995 
35 1 12.031 9.58558 2.58358 
45 1 9.22628 8.9514 3.27253 
47 1 12.7316 8.76968 0.53253 
49 1 11.2949 10.9243 0.682728 
51 1 8.84889 10.2183 2.6278 
53 1 11.328 7.54742 8.99691 
54 1 10.4778 8.87386 8.25927 
56 1 8.98629 11.3614 11.9345 
57 1 8.37378 10.2644 11.0346 
58 1 11.2986 10.9244 11.6584 
60 1 12.256 7.99799 9.65569 
61 1 10.4742 8.87235 6.76995 
73 1 9.22633 8.9541 9.06577 
75 1 12.7344 8.79159 11.8218 
76 1 12.2033 10.0488 11.0101 
79 1 9.24137 7.64842 9.75879 
80 1 8.24079 12.7251 12.3647 
89 1 10.9474 10.1496 9.01308 
93 1 8.43806 8.95412 11.6255 
95 1 10.0167 11.0698 9.67278 
105 1 10.1958 11.5538 11.012 
109 1 8.7711 7.70437 11.0487 
110 1 12.0309 9.57408 9.74997 
114 1 8.85147 10.2155 9.70128 
119 1 8.37422 10.2605 1.30121 
120 1 12.2564 7.99316 2.68216 
123 1 12.1963 10.0521 1.32529 
124 1 9.24787 7.64366 2.58617 
128 1 10.0162 11.0731 2.659 
6 1 4.96797 8.16061 13.5612 
13 1 9.5737 10.3419 25.1387 
17 1 9.22378 8.97978 25.1771 
30 1 9.96892 7.66663 25.1086 
34 1 11.3171 7.46757 25.1207 
36 1 8.24344 12.721 25.7188 
46 1 11.678 8.79964 25.1036 
50 1 10.9547 10.1122 25.167 
55 1 9.58728 10.3409 12.942 
59 1 10.9598 10.12 12.9128 
74 1 11.6592 8.79436 12.9762 
78 1 11.3309 7.44362 12.9241 
90 1 9.97389 7.65517 12.9423 
94 1 9.21842 8.96279 12.9199 
101 1 4.97591 8.15023 24.5167 
33 1 11.7721 6.56056 0.671185 
77 1 11.8897 6.66124 11.7595 
129 2 10.832 4.75648 10.9745 
41 1 17.8944 6.20531 13.5635 
68 1 17.9013 6.21623 24.5366 
103 1 19.1743 6.05749 22.5482 
126 1 19.1745 6.05769 15.532 
3 1 19.6281 6.77864 12.2606 
7 1 19.956 8.14801 12.2998 
10 1 15.1617 8.48637 12.838 
22 1 19.2126 9.46588 12.2416 
26 1 17.8761 9.66649 12.254 
38 1 17.5135 8.34332 12.2303 
42 1 18.2442 7.02957 12.2875 
44 1 20.0345 11.9238 12.8184 
48 1 12.5808 7.49903 1.37641 
65 1 19.6086 6.77953 0.0728547 
69 1 18.2441 7.00938 0.0281676 
82 1 17.528 8.32859 0.124989 
86 1 17.8739 9.68481 0.0941238 
96 1 14.0272 8.64782 12.3701 
98 1 19.2157 9.46191 0.0885383 
102 1 19.9695 8.15074 0.0419358 
113 1 12.5866 7.48339 10.9739 
1 1 17.8729 9.58627 16.2103 
2 1 18.7062 8.26706 16.9483 
8 1 18.7884 10.3906 15.5114 
9 1 18.7166 8.26131 18.4381 
20 1 14.0331 8.64481 25.711 
21 1 18.2371 6.9898 16.1903 
23 1 19.6958 10.6492 13.2958 
24 1 20.438 9.41559 14.1722 
25 1 17.4213 10.5702 13.5466 
27 1 17.1637 7.54708 15.4542 
37 1 19.9651 8.18136 16.1469 
39 1 16.4572 8.36521 13.4047 
40 1 16.6129 9.63163 14.247 
63 1 17.86 9.5732 21.8609 
64 1 18.7056 8.26646 21.1338 
70 1 16.9298 9.13143 22.5253 
71 1 18.7165 8.2614 19.6437 
72 1 20.0349 11.9254 25.2641 
81 1 19.9649 8.18328 21.9354 
83 1 16.4467 8.36184 24.6612 
84 1 16.9977 7.07739 23.881 
85 1 17.419 10.5798 24.535 
87 1 19.9542 9.47606 22.622 
97 1 18.2379 6.99163 21.8898 
99 1 19.6978 10.6573 24.7843 
100 1 18.3582 10.9696 23.8694 
104 1 15.1517 8.48756 25.2442 
108 1 18.7966 10.4122 22.554 
111 1 20.4351 9.42102 23.9138 
112 1 17.1635 7.54493 22.6259 
115 1 16.6061 9.63419 23.8317 
118 1 16.9329 9.1345 15.5511 
121 1 16.9954 7.08242 14.2033 
122 1 19.9401 9.49011 15.4608 
125 1 18.3618 10.959 14.229 
ITEM: TIMESTEP
30
ITEM: NUMBER OF ATOMS
129
ITEM: BOX BOUNDS xy xz yz pp pp pp
0.0000000000000000e+00 2.3654499999999999e+01 7.8845000000000001e+00
0.0000000000000000e+00 1.3658086643083999e+01 0.0000000000000000e+00
0.0000000000000000e+00 2.5747000000000000e+01 0.0000000000000000e+00
ITEM: ATOMS id type x y z 
18 1 10.3718 6.77481 2.63516 
28 1 5.11497 4.54881 12.8833 
31 1 9.4248 6.54197 0.417152 
62 1 9.05699 5.30947 12.4343 
91 1 9.37121 6.62188 11.9803 
92 1 10.7401 6.02451 10.9163 
106 1 10.3459 6.79814 9.64213 
127 1 10.7987 6.19343 1.3592 
4 1 4.44443 5.80936 13.268 
5 1 3.17804 5.64482 14.2145 
43 1 4.56418 6.96826 15.4777 
52 1 9.12415 5.30714 25.717 
66 1 4.43876 5.80746 24.8153 
67 1 5.06083 6.95747 23.9032 
88 1 5.11619 4.5472 25.1987 
107 1 3.17466 5.64833 23.8749 
116 1 4.56073 6.96843 22.6023 
117 1 5.05894 6.94391 14.1836 
11 1 11.3229 7.58109 3.35825 
12 1 10.48 8.86026 4.10173 
14 1 8.97737 11.3212 0.39361 
15 1 10.2479 11.488 1.33573 
16 1 8.40904 8.89098 0.74238 
19 1 10.4698 8.86926 5.55677 
29 1 10.947 10.1369 3.34134 
32 1 8.74817 7.69687 1.27194 
35 1 12.0504 9.61303 2.6109 
45 1 9.22299 8.93382 3.25822 
47 1 12.6543 8.79812 0.546331 
49 1 11.3271 10.9272 0.667526 
51 1 8.85949 10.1667 2.60356 
53 1 11.3182 7.57228 8.98699 
54 1 10.4727 8.87674 8.228 
56 1 8.98178 11.3317 11.9442 
57 1 8.34602 10.1847 11.0159 
58 1 11.3264 10.927 11.6618 
60 1 12.2586 8.02934 9.62226 
61 1 10.4693 8.87606 6.7786 
73 1 9.22257 8.94713 9.06317 
75 1 12.6462 8.83469 11.8229 
76 1 12.2599 10.074 11.0112 
79 1 9.24154 7.6514 9.75545 
80 1 8.30597 12.5822 12.3262 
89 1 10.9537 10.1348 8.99204 
93 1 8.39772 8.92955 11.6271 
95 1 10.0411 11.0551 9.68572 
105 1 10.2532 11.4891 11.0031 
109 1 8.70863 7.66265 11.0685 
110 1 12.0508 9.59867 9.72557 
114 1 8.85959 10.1775 9.72872 
119 1 8.35962 10.1861 1.31171 
120 1 12.2634 8.03389 2.73257 
123 1 12.2595 10.0637 1.32085 
124 1 9.20897 7.65998 2.51736 
128 1 10.0415 11.0531 2.64744 
6 1 5.01007 8.24421 13.6198 
13 1 9.59303 10.3066 25.1172 
17 1 9.20805 8.94993 25.1356 
30 1 9.93293 7.68906 25.1083 
34 1 11.2605 7.49136 25.1247 
36 1 8.30634 12.5826 25.7563 
46 1 11.6997 8.82367 25.1324 
50 1 10.9537 10.1269 25.1494 
55 1 9.58109 10.3117 12.9676 
59 1 10.9483 10.1252 12.9322 
74 1 11.6897 8.83386 12.9745 
78 1 11.3339 7.44984 12.8706 
90 1 9.94546 7.68503 12.9737 
94 1 9.21359 8.95595 12.9432 
101 1 5.00312 8.24973 24.4586 
33 1 11.7257 6.59742 0.682421 
77 1 11.8325 6.70876 11.7721 
129 2 10.8657 4.74715 10.9165 
41 1 17.8659 6.2031 13.5397 
68 1 17.8689 6.19798 24.5341 
103 1 19.1522 6.07914 22.5652 
126 1 19.1446 6.07629 15.5188 
3 1 19.6007 6.81898 12.2351 
7 1 19.9895 8.17778 12.2583 
10 1 15.1446 8.46554 12.8368 
22 1 19.252 9.43862 12.2372 
26 1 17.9201 9.64201 12.2387 
38 1 17.5038 8.31869 12.258 
42 1 18.2338 7.00349 12.272 
44 1 20.0653 11.8223 12.8436 
48 1 12.5691 7.55956 1.37418 
65 1 19.6055 6.82318 0.085425 
69 1 18.2244 7.03407 0.0660096 
82 1 17.5086 8.2997 0.0810458 
86 1 17.9165 9.62268 0.0858477 
96 1 14.0571 8.66882 12.3721 
98 1 19.2733 9.44025 0.0940544 
102 1 19.9866 8.17642 0.0706987 
113 1 12.5897 7.55148 10.9738 
1 1 17.8648 9.54926 16.2326 
2 1 18.7096 8.27055 16.9728 
8 1 18.8149 10.3665 15.5121 
9 1 18.7215 8.26162 18.4315 
20 1 14.0421 8.66718 25.716 
21 1 18.2436 6.99485 16.2135 
23 1 19.7685 10.593 13.2938 
24 1 20.4412 9.43312 14.143 
25 1 17.4554 10.5387 13.5642 
27 1 17.1402 7.51495 15.4836 
37 1 19.9701 8.20059 16.1308 
39 1 16.5294 8.3372 13.4219 
40 1 16.625 9.5676 14.2482 
63 1 17.8634 9.55012 21.8512 
64 1 18.715 8.27302 21.1082 
70 1 16.9275 9.09903 22.4845 
71 1 18.7213 8.26175 19.6507 
72 1 20.0666 11.8258 25.2395 
81 1 19.9688 8.19337 21.9514 
83 1 16.5412 8.33929 24.6636 
84 1 16.9396 7.06033 23.8856 
85 1 17.4596 10.5355 24.5161 
87 1 19.9919 9.46831 22.6953 
97 1 18.2372 6.99232 21.8692 
99 1 19.7638 10.5901 24.7884 
100 1 18.389 10.9377 23.8482 
104 1 15.1257 8.46906 25.2454 
108 1 18.8087 10.368 22.5746 
111 1 20.4444 9.4158 23.9509 
112 1 17.1412 7.51962 22.5963 
115 1 16.6315 9.58578 23.8232 
118 1 16.9239 9.10222 15.5992 
121 1 16.9275 7.07339 14.1952 
122 1 19.9916 9.46602 15.3879 
125 1 18.394 10.941 14.2319 
ITEM: TIMESTEP
40
ITEM: NUMBER OF ATOMS
129
ITEM: BOX BOUNDS xy xz yz pp pp pp
0.0000000000000000e+00 2.3654499999999999e+01 7.8845000000000001e+00
0.0000000000000000e+00 1.3658086643083999e+01 0.0000000000000000e+00
0.0000000000000000e+00 2.5747000000000000e+01 0.0000000000000000e+00
ITEM: ATOMS id type x y z 
18 1 10.383 6.77665 2.64554 
28 1 5.10669 4.57735 12.8902 
31 1 9.40826 6.53947 0.407776 
62 1 9.03004 5.34109 12.4371 
91 1 9.3416 6.63445 12.0049 
92 1 10.7387 6.03334 10.9103 
106 1 10.3461 6.8099 9.63463 
127 1 10.7967 6.20055 1.36742 
4 1 4.44038 5.81587 13.2851 
5 1 3.16795 5.6665 14.1999 
43 1 4.55832 6.96004 15.4794 
52 1 9.09145 5.28137 25.7044 
66 1 4.44001 5.81537 24.7981 
67 1 5.07174 6.9641 23.8922 
88 1 5.10824 4.57492 25.1925 
107 1 3.16627 5.66356 23.8812 
116 1 4.55956 6.96092 22.6045 
117 1 5.06736 6.96044 14.1874 
11 1 11.3249 7.58625 3.36496 
12 1 10.4845 8.84872 4.0999 
14 1 8.98058 11.3157 0.410518 
15 1 10.2543 11.4671 1.32781 
16 1 8.38318 8.91024 0.697844 
19 1 10.4682 8.8696 5.55572 
29 1 10.9499 10.1311 3.34307 
32 1 8.68921 7.68332 1.27659 
35 1 12.0606 9.62414 2.61626 
45 1 9.22582 8.93494 3.26597 
47 1 12.6797 8.81469 0.544777 
49 1 11.3425 10.9149 0.660456 
51 1 8.86369 10.1717 2.60634 
53 1 11.3175 7.57616 8.97852 
54 1 10.477 8.86873 8.23004 
56 1 8.98057 11.3181 11.9257 
57 1 8.34793 10.1669 11.0205 
58 1 11.3426 10.9146 11.6702 
60 1 12.2546 8.04471 9.61371 
61 1 10.4668 8.87499 6.77604 
73 1 9.22434 8.94423 9.06238 
75 1 12.6734 8.84875 11.8323 
76 1 12.277 10.0787 11.0061 
79 1 9.2229 7.65318 9.7653 
80 1 8.31308 12.5567 12.3204 
89 1 10.9536 10.1328 8.99232 
93 1 8.38744 8.91364 11.6409 
95 1 10.0423 11.0485 9.6833 
105 1 10.2573 11.4695 11.0072 
109 1 8.68258 7.65474 11.063 
110 1 12.0617 9.60593 9.72213 
114 1 8.86126 10.1753 9.73013 
119 1 8.3498 10.1671 1.31366 
120 1 12.2674 8.04619 2.73593 
123 1 12.2736 10.0761 1.33227 
124 1 9.20421 7.65481 2.55454 
128 1 10.0408 11.0492 2.65107 
6 1 5.04164 8.22126 13.5727 
13 1 9.58367 10.3131 25.082 
17 1 9.1991 8.96526 25.1384 
30 1 9.93548 7.69789 25.0682 
34 1 11.2744 7.49182 25.1228 
36 1 8.31339 12.5565 25.7622 
46 1 11.6889 8.82136 25.1225 
50 1 10.9565 10.1109 25.155 
55 1 9.57579 10.3132 13.0007 
59 1 10.9479 10.1211 12.926 
74 1 11.683 8.83033 12.9815 
78 1 11.3234 7.46289 12.884 
90 1 9.95067 7.68753 12.9876 
94 1 9.20581 8.9608 12.9359 
101 1 5.03684 8.22061 24.5119 
33 1 11.722 6.61737 0.687276 
77 1 11.8351 6.73105 11.7466 
129 2 10.8769 4.70577 10.8974 
41 1 17.8507 6.22286 13.5323 
68 1 17.8496 6.21683 24.5464 
103 1 19.1508 6.08419 22.5574 
126 1 19.149 6.08296 15.5249 
3 1 19.6052 6.8144 12.1983 
7 1 19.9892 8.16886 12.2632 
10 1 15.1421 8.4582 12.8347 
22 1 19.2569 9.43675 12.1976 
26 1 17.9188 9.63972 12.254 
38 1 17.4993 8.30639 12.2465 
42 1 18.2325 7.0204 12.2864 
44 1 20.0991 11.8535 12.8289 
48 1 12.555 7.57504 1.39028 
65 1 19.6093 6.81832 0.12326 
69 1 18.2329 7.02561 0.0547823 
82 1 17.5119 8.30927 0.0939386 
86 1 17.9129 9.63604 0.0828119 
96 1 14.0483 8.68087 12.371 
98 1 19.2578 9.42897 0.137632 
102 1 19.9959 8.16542 0.0728193 
113 1 12.5746 7.56351 10.9792 
1 1 17.8662 9.54622 16.2363 
2 1 18.7057 8.2814 16.9728 
8 1 18.8084 10.3536 15.5166 
9 1 18.7235 8.26249 18.431 
20 1 14.0459 8.67427 25.7143 
21 1 18.2416 7.00274 16.2157 
23 1 19.7836 10.5908 13.2814 
24 1 20.4961 9.44996 14.1506 
25 1 17.4671 10.5136 13.5619 
27 1 17.13 7.50677 15.4875 
37 1 19.9644 8.19848 16.1386 
39 1 16.5063 8.31877 13.4165 
40 1 16.6372 9.55645 14.2623 
63 1 17.8656 9.54792 21.8462 
64 1 18.7064 8.28163 21.1082 
70 1 16.9251 9.08707 22.4741 
71 1 18.7238 8.2626 19.6504 
72 1 20.0987 11.8473 25.2507 
81 1 19.9648 8.19924 21.9443 
83 1 16.504 8.32369 24.6608 
84 1 16.9283 7.05324 23.8778 
85 1 17.4662 10.5184 24.5192 
87 1 19.9865 9.47849 22.657 
97 1 18.2416 7.00134 21.866 
99 1 19.7801 10.5942 24.7981 
100 1 18.3914 10.9303 23.838 
104 1 15.1337 8.46463 25.2409 
108 1 18.8097 10.3507 22.5663 
111 1 20.4934 9.45033 23.933 
112 1 17.1292 7.50571 22.5944 
115 1 16.6388 9.56092 23.8158 
118 1 16.9235 9.08784 15.6055 
121 1 16.9196 7.05741 14.2021 
122 1 19.9857 9.47875 15.4281 
125 1 18.3907 10.9301 14.2431 
ITEM: TIMESTEP
50
ITEM: NUMBER OF ATOMS
129
ITEM: BOX BOUNDS xy xz yz pp pp pp
0.0000000000000000e+00 2.3654499999999999e+01 7.8845000000000001e+00
0.0000000000000000e+00 1.3658086643083999e+01 0.0000000000000000e+00
0.0000000000000000e+00 2.5747000000000000e+01 0.0000000000000000e+00
ITEM: ATOMS id type x y z 
18 1 10.347 6.83116 2.65188 
28 1 5.08215 4.68753 12.9211 
31 1 9.33951 6.62107 0.401263 
62 1 8.90226 5.43264 12.4519 
91 1 9.20123 6.72854 12.119 
92 1 10.8028 5.94339 10.8317 
106 1 10.3353 6.87116 9.67169 
127 1 10.7333 6.2796 1.36126 
4 1 4.39616 5.93345 13.2807 
5 1 3.12454 5.72932 14.1948 
43 1 4.56301 6.98625 15.4645 
52 1 8.94972 5.28816 25.6911 
66 1 4.40149 5.93799 24.7946 
67 1 5.08039 7.03014 23.9127 
88 1 5.07822 4.69567 25.1575 
107 1 3.13398 5.72559 23.8916 
116 1 4.56154 6.98545 22.6101 
117 1 5.08868 7.04516 14.1824 
11 1 11.3322 7.6081 3.38636 
12 1 10.5043 8.80865 4.09028 
14 1 9.02384 11.194 0.407746 
15 1 10.2895 11.4067 1.31616 
16 1 8.32122 8.86298 0.640905 
19 1 10.4588 8.86156 5.55399 
29 1 10.9554 10.1118 3.34596 
32 1 8.58502 7.60902 1.26228 
35 1 12.1108 9.67837 2.64568 
45 1 9.23005 8.91452 3.25468 
47 1 12.7237 8.88519 0.539297 
49 1 11.3882 10.8721 0.649786 
51 1 8.85737 10.148 2.59319 
53 1 11.3069 7.58951 8.93477 
54 1 10.4906 8.83891 8.23667 
56 1 9.01428 11.2015 11.924 
57 1 8.34147 10.1018 11.0322 
58 1 11.3848 10.872 11.6818 
60 1 12.2228 8.09628 9.59165 
61 1 10.4563 8.87095 6.76966 
73 1 9.22912 8.93072 9.06755 
75 1 12.6937 8.89969 11.8599 
76 1 12.3603 10.0934 10.9956 
79 1 9.16815 7.63855 9.78251 
80 1 8.3431 12.4363 12.2845 
89 1 10.9654 10.1151 8.993 
93 1 8.31909 8.86001 11.677 
95 1 10.0457 11.0149 9.68988 
105 1 10.2904 11.4077 11.0188 
109 1 8.57935 7.61355 11.0695 
110 1 12.1063 9.64511 9.70461 
114 1 8.85919 10.154 9.73128 
119 1 8.33679 10.1008 1.30213 
120 1 12.2705 8.10419 2.77671 
123 1 12.3516 10.1199 1.36475 
124 1 9.15891 7.65231 2.53753 
128 1 10.0426 11.0116 2.64467 
6 1 5.09516 8.26964 13.5156 
13 1 9.56803 10.3167 25.0169 
17 1 9.16671 8.96892 25.1339 
30 1 9.90425 7.69928 25.0259 
34 1 11.2409 7.51849 25.1172 
36 1 8.34394 12.4342 25.798 
46 1 11.6821 8.81735 25.1155 
50 1 10.9337 10.0926 25.1592 
55 1 9.5599 10.325 13.0723 
59 1 10.9276 10.1161 12.929 
74 1 11.6861 8.83519 12.9941 
78 1 11.2968 7.47882 12.9093 
90 1 9.9258 7.71278 13.0515 
94 1 9.17488 8.98438 12.9416 
101 1 5.10204 8.27315 24.5671 
33 1 11.6816 6.69555 0.718755 
77 1 11.7507 6.84022 11.691 
129 2 10.9008 4.67823 10.8108 
41 1 17.7996 6.25758 13.5246 
68 1 17.8078 6.26134 24.5662 
103 1 19.1498 6.12156 22.5629 
126 1 19.1468 6.11971 15.5171 
3 1 19.614 6.81206 12.1391 
7 1 20.0233 8.16512 12.2583 
10 1 15.1329 8.4359 12.8323 
22 1 19.2785 9.42807 12.1534 
26 1 17.9473 9.61878 12.2392 
38 1 17.5194 8.31264 12.2393 
42 1 18.2642 7.0506 12.2809 
44 1 20.2381 11.8368 12.8197 
48 1 12.5087 7.65368 1.41419 
65 1 19.6217 6.81798 0.200036 
69 1 18.2643 7.01975 0.0445973 
82 1 17.4836 8.31794 0.0753191 
86 1 17.9663 9.62338 0.0907237 
96 1 14.0448 8.73531 12.3788 
98 1 19.2795 9.43602 0.181243 
102 1 20.0233 8.16293 0.0722397 
113 1 12.542 7.6452 10.9494 
1 1 17.8622 9.52145 16.2588 
2 1 18.6885 8.3194 16.9659 
8 1 18.8422 10.2988 15.5292 
9 1 18.7334 8.27082 18.4332 
20 1 14.0642 8.70195 25.7084 
21 1 18.2333 7.02036 16.221 
23 1 19.8468 10.5175 13.2736 
24 1 20.6115 9.518 14.1399 
25 1 17.5041 10.4323 13.5952 
27 1 17.0787 7.45465 15.5172 
37 1 19.9602 8.21964 16.1321 
39 1 16.4634 8.24679 13.4163 
40 1 16.6816 9.47146 14.2818 
63 1 17.8619 9.5179 21.8232 
64 1 18.6898 8.32051 21.1166 
70 1 16.9195 9.0281 22.4364 
71 1 18.7334 8.27019 19.6486 
72 1 20.2398 11.8378 25.2633 
81 1 19.9626 8.21706 21.9486 
83 1 16.4727 8.24354 24.6745 
84 1 16.8295 7.02852 23.8532 
85 1 17.5071 10.4312 24.4897 
87 1 20.0275 9.48261 22.6709 
97 1 18.2336 7.01867 21.8582 
99 1 19.8425 10.5088 24.8104 
100 1 18.457 10.8534 23.8468 
104 1 15.1373 8.44105 25.2381 
108 1 18.8389 10.3015 22.5544 
111 1 20.6105 9.52004 23.9486 
112 1 17.083 7.46121 22.5624 
115 1 16.6835 9.46798 23.7998 
118 1 16.918 9.02976 15.6431 
121 1 16.8397 7.01624 14.2324 
122 1 20.03 9.47942 15.4066 
125 1 18.4603 10.8523 14.2329 
ITEM: TIMESTEP
60
ITEM: NUMBER OF ATOMS
129
ITEM: BOX BOUNDS xy xz yz pp pp pp
0.0000000000000000e+00 2.3654499999999999e+01 7.8845000000000001e+00
0.0000000000000000e+00 1.3658086643083999e+01 0.0000000000000000e+00
0.0000000000000000e+00 2.5747000000000000e+01 0.0000000000000000e+00
ITEM: ATOMS id type x y z 
18 1 10.3478 6.83242 2.65061 
28 1 5.08791 4.68481 12.9205 
31 1 9.33493 6.59811 0.385254 
62 1 8.90467 5.4578 12.4406 
91 1 9.16769 6.71876 12.1403 
92 1 10.8283 5.97365 10.8068 
106 1 10.337 6.84795 9.68153 
127 1 10.7264 6.28794 1.35699 
4 1 4.40222 5.92994 13.2787 
5 1 3.12181 5.73422 14.1955 
43 1 4.56629 6.99026 15.4653 
52 1 8.94028 5.30936 25.6963 
66 1 4.40399 5.93254 24.806 
67 1 5.08848 7.05071 23.8998 
88 1 5.08969 4.68308 25.1608 
107 1 3.12017 5.73054 23.8833 
116 1 4.56649 6.99053 22.6176 
117 1 5.0875 7.04869 14.1776 
11 1 11.3333 7.60659 3.38274 
12 1 10.5 8.81427 4.09236 
14 1 9.01821 11.1995 0.403925 
15 1 10.3023 11.4022 1.32405 
16 1 8.31557 8.85595 0.653458 
19 1 10.4585 8.85972 5.55298 
29 1 10.9577 10.1102 3.34457 
32 1 8.57883 7.62309 1.26527 
35 1 12.1144 9.67664 2.65088 
45 1 9.22736 8.91642 3.25349 
47 1 12.704 8.8832 0.548137 
49 1 11.3871 10.8758 0.655517 
51 1 8.85318 10.1422 2.58899 
53 1 11.3069 7.59539 8.94596 
54 1 10.4901 8.83689 8.2313 
56 1 9.01236 11.209 11.9277 
57 1 8.3318 10.0849 11.0193 
58 1 11.3848 10.8754 11.681 
60 1 12.2319 8.09675 9.58292 
61 1 10.4551 8.86956 6.77068 
73 1 9.22898 8.92205 9.07592 
75 1 12.6843 8.898 11.8466 
76 1 12.3576 10.1055 10.9927 
79 1 9.16447 7.64433 9.79501 
80 1 8.33099 12.4501 12.2878 
89 1 10.9636 10.1126 8.99586 
93 1 8.31797 8.86514 11.6747 
95 1 10.0466 11.0151 9.69164 
105 1 10.3011 11.4038 11.0104 
109 1 8.57737 7.61373 11.0732 
110 1 12.1081 9.65035 9.70092 
114 1 8.85474 10.1486 9.73675 
119 1 8.33153 10.083 1.30914 
120 1 12.2693 8.10713 2.77403 
123 1 12.3552 10.1236 1.36239 
124 1 9.14791 7.65125 2.53331 
128 1 10.0418 11.0108 2.64195 
6 1 5.10443 8.27833 13.5257 
13 1 9.57098 10.297 25.0141 
17 1 9.16735 8.96489 25.1177 
30 1 9.90763 7.70539 25.0327 
34 1 11.2465 7.50705 25.1185 
36 1 8.33261 12.4467 25.7946 
46 1 11.6753 8.81742 25.1182 
50 1 10.9368 10.0939 25.1488 
55 1 9.56683 10.3102 13.0747 
59 1 10.9314 10.111 12.9391 
74 1 11.6781 8.83173 12.9999 
78 1 11.2851 7.4863 12.8998 
90 1 9.92572 7.71009 13.0583 
94 1 9.17052 8.98222 12.9523 
101 1 5.10735 8.27547 24.5566 
33 1 11.6769 6.70153 0.717974 
77 1 11.7366 6.81412 11.6848 
129 2 10.8932 4.67274 10.8111 
41 1 17.8009 6.25675 13.5276 
68 1 17.8049 6.25771 24.5544 
103 1 19.1499 6.12197 22.5655 
126 1 19.1453 6.12143 15.5165 
3 1 19.6215 6.83149 12.1458 
7 1 20.022 8.16778 12.2421 
10 1 15.1334 8.43681 12.8347 
22 1 19.2836 9.42738 12.1567 
26 1 17.9435 9.62416 12.2446 
38 1 17.5116 8.31386 12.244 
42 1 18.2539 7.0422 12.273 
44 1 20.2498 11.8233 12.8222 
48 1 12.5096 7.66323 1.41174 
65 1 19.6206 6.8334 0.195436 
69 1 18.2544 7.03337 0.0586432 
82 1 17.5158 8.31565 0.0836812 
86 1 17.9436 9.62964 0.0920617 
96 1 14.0496 8.73567 12.3795 
98 1 19.279 9.42389 0.176788 
102 1 20.0239 8.16614 0.089604 
113 1 12.5336 7.65751 10.9537 
1 1 17.8595 9.5231 16.2568 
2 1 18.6908 8.31398 16.9702 
8 1 18.8419 10.3003 15.5249 
9 1 18.7338 8.2728 18.4309 
20 1 14.052 8.70815 25.7156 
21 1 18.233 7.02204 16.2183 
23 1 19.8539 10.5355 13.2599 
24 1 20.6164 9.50685 14.1399 
25 1 17.5106 10.4265 13.589 
27 1 17.0758 7.45452 15.5221 
37 1 19.9637 8.21785 16.1302 
39 1 16.4826 8.24671 13.4159 
40 1 16.6798 9.46713 14.2821 
63 1 17.8576 9.51918 21.8232 
64 1 18.6925 8.31629 21.1106 
70 1 16.922 9.02419 22.4352 
71 1 18.734 8.27243 19.6501 
72 1 20.2488 11.8152 25.2578 
81 1 19.9645 8.21648 21.9533 
83 1 16.4876 8.24949 24.6641 
84 1 16.8337 7.01234 23.8491 
85 1 17.5121 10.4282 24.4908 
87 1 20.0411 9.47897 22.6741 
97 1 18.2328 7.0209 21.8625 
99 1 19.8521 10.5341 24.8223 
100 1 18.466 10.8486 23.8532 
104 1 15.1432 8.43235 25.2345 
108 1 18.8419 10.3022 22.5546 
111 1 20.6128 9.51165 23.9445 
112 1 17.0785 7.45854 22.5596 
115 1 16.6781 9.4669 23.7992 
118 1 16.9192 9.02483 15.6435 
121 1 16.8361 7.0096 14.2333 
122 1 20.0408 9.48025 15.4077 
125 1 18.4643 10.8442 14.232 
ITEM: TIMESTEP
70
ITEM: NUMBER OF ATOMS
129
ITEM: BOX BOUNDS xy xz yz pp pp pp
0.0000000000000000e+00 2.3654499999999999e+01 7.8845000000000001e+00
0.0000000000000000e+00 1.3658086643083999e+01 0.0000000000000000e+00
0.0000000000000000e+00 2.5747000000000000e+01 0.0000000000000000e+00
ITEM: ATOMS id type x y z 
18 1 10.3382 6.84086 2.64212 
28 1 5.10235 4.69035 12.9223 
31 1 9.31086 6.57638 0.375673 
62 1 8.89176 5.46921 12.4202 
91 1 9.06918 6.72076 12.2071 
92 1 10.89 5.95413 10.7519 
106 1 10.3263 6.83506 9.65449 
127 1 10.7042 6.30837 1.34848 
4 1 4.42087 5.9181 13.2804 
5 1 3.12865 5.74564 14.1862 
43 1 4.57304 6.99427 15.4578 
52 1 8.88442 5.32936 25.6925 
66 1 4.42153 5.91808 24.8004 
67 1 5.08675 7.05029 23.9193 
88 1 5.09974 4.69697 25.1569 
107 1 3.13599 5.74664 23.8978 
116 1 4.57383 6.99394 22.6229 
117 1 5.08798 7.05666 14.1671 
11 1 11.3297 7.60484 3.37378 
12 1 10.4905 8.81783 4.09827 
14 1 9.00033 11.2133 0.408154 
15 1 10.2869 11.386 1.31068 
16 1 8.30635 8.84407 0.642808 
19 1 10.4558 8.85466 5.55362 
29 1 10.9553 10.1056 3.33902 
32 1 8.56383 7.63442 1.26345 
35 1 12.126 9.68113 2.65411 
45 1 9.22339 8.91851 3.25351 
47 1 12.6902 8.89075 0.551461 
49 1 11.3872 10.8647 0.645282 
51 1 8.84683 10.1395 2.58672 
53 1 11.2997 7.60995 8.96907 