LAMMPS (3 Mar 2020)
Reading data file ...
  triclinic box = (0 0 0) to (15.77 13.6581 25.747) with tilt (7.8845 0 0)
  2 by 2 by 2 MPI processor grid
  reading atoms ...
  129 atoms
  read_data CPU = 0.0152366 secs
WARNING: Using 'neigh_modify every 1 delay 0 check yes' setting during minimization (../min.cpp:190)
WARNING: Total cutoff < 2*bond cutoff. May need to use an increased neighbor list skin. (../pair_reaxc.cpp:413)
Neighbor list info ...
  update every 1 steps, delay 0 steps, check yes
  max neighbors/atom: 2000, page size: 100000
  master list distance cutoff = 9.5
  ghost atom cutoff = 9.5
  binsize = 4.75, bins = 5 3 6
  2 neighbor lists, perpetual/occasional/extra = 2 0 0
  (1) pair reax/c, perpetual
      attributes: half, newton off, ghost
      pair build: half/bin/newtoff/ghost
      stencil: half/ghost/bin/3d/newtoff
      bin: standard
  (2) fix qeq/reax, perpetual, copy from (1)
      attributes: half, newton off, ghost
      pair build: copy
      stencil: none
      bin: none
Setting up cg style minimization ...
  Unit style    : real
  Current step  : 0
Per MPI rank memory allocation (min/avg/max) = 16.27 | 16.82 | 17.41 Mbytes
Step Temp E_pair E_mol TotEng Press 
       0            0   -19467.761            0   -19467.761    55926.662 
     222            0   -22001.898            0   -22001.898    5258.1911 
Loop time of 21.8452 on 8 procs for 222 steps with 129 atoms

99.7% CPU use with 8 MPI tasks x no OpenMP threads

Minimization stats:
  Stopping criterion = energy tolerance
  Energy initial, next-to-last, final = 
        -19467.7613961     -22001.8983054     -22001.8984391
  Force two-norm initial, final = 5048.77 139.738
  Force max component initial, final = 1260.21 36.6159
  Final line search alpha, max atom move = 8.53191e-05 0.00312403
  Iterations, force evaluations = 222 1415

MPI task timing breakdown:
Section |  min time  |  avg time  |  max time  |%varavg| %total
---------------------------------------------------------------
Pair    | 13.458     | 15.098     | 16.053     |  25.6 | 69.11
Neigh   | 0.0018318  | 0.0020126  | 0.002152   |   0.3 |  0.01
Comm    | 0.40117    | 1.3519     | 3.0005     |  85.6 |  6.19
Output  | 0.0042292  | 0.0054322  | 0.0075526  |   1.4 |  0.02
Modify  | 5.3222     | 5.3233     | 5.3271     |   0.1 | 24.37
Other   |            | 0.06459    |            |       |  0.30

Nlocal:    16.125 ave 41 max 1 min
Histogram: 1 3 0 0 2 0 0 0 1 1
Nghost:    470.875 ave 513 max 419 min
Histogram: 1 1 2 0 0 0 0 0 0 4
Neighs:    1133.25 ave 2669 max 79 min
Histogram: 1 3 0 0 2 0 0 0 1 1

Total # of neighbors = 9066
Ave neighs/atom = 70.2791
Neighbor list builds = 1
Dangerous builds = 0
WARNING: Using 'neigh_modify every 1 delay 0 check yes' setting during minimization (../min.cpp:190)
WARNING: Total cutoff < 2*bond cutoff. May need to use an increased neighbor list skin. (../pair_reaxc.cpp:413)
Setting up cg style minimization ...
  Unit style    : real
  Current step  : 222
Per MPI rank memory allocation (min/avg/max) = 16.27 | 16.82 | 17.41 Mbytes
Step Temp E_pair E_mol TotEng Press 
     222            0   -22001.898            0   -22001.898    5258.1911 
     223            0   -22001.898            0   -22001.898    5258.3416 
Loop time of 0.138616 on 8 procs for 1 steps with 129 atoms

99.8% CPU use with 8 MPI tasks x no OpenMP threads

Minimization stats:
  Stopping criterion = energy tolerance
  Energy initial, next-to-last, final = 
        -22001.8984391     -22001.8984391     -22001.8984675
  Force two-norm initial, final = 139.738 139.73
  Force max component initial, final = 36.6159 36.6135
  Final line search alpha, max atom move = 8.53455e-05 0.00312479
  Iterations, force evaluations = 1 8

MPI task timing breakdown:
Section |  min time  |  avg time  |  max time  |%varavg| %total
---------------------------------------------------------------
Pair    | 0.088446   | 0.098034   | 0.10412    |   1.7 | 70.72
Neigh   | 0          | 0          | 0          |   0.0 |  0.00
Comm    | 0.00093912 | 0.006969   | 0.01663    |   6.3 |  5.03
Output  | 0          | 0          | 0          |   0.0 |  0.00
Modify  | 0.032811   | 0.032833   | 0.032878   |   0.0 | 23.69
Other   |            | 0.0007788  |            |       |  0.56

Nlocal:    16.125 ave 40 max 0 min
Histogram: 1 2 1 0 2 0 0 0 1 1
Nghost:    472.875 ave 514 max 424 min
Histogram: 2 0 2 0 0 0 0 0 0 4
Neighs:    1131.5 ave 2609 max 0 min
Histogram: 1 2 1 0 1 1 0 0 0 2

Total # of neighbors = 9052
Ave neighs/atom = 70.1705
Neighbor list builds = 0
Dangerous builds = 0
WARNING: Using 'neigh_modify every 1 delay 0 check yes' setting during minimization (../min.cpp:190)
WARNING: Total cutoff < 2*bond cutoff. May need to use an increased neighbor list skin. (../pair_reaxc.cpp:413)
Setting up cg style minimization ...
  Unit style    : real
  Current step  : 223
WARNING: Energy due to 3 extra global DOFs will be included in minimizer energies
Per MPI rank memory allocation (min/avg/max) = 16.27 | 16.82 | 17.41 Mbytes
Step Temp E_pair E_mol TotEng Press Volume 
     223            0   -22001.898            0   -22001.898    5258.3416    5545.5955 
     309            0   -22005.432            0   -22005.432   -2603.7943    5554.5417 
Loop time of 2.17404 on 8 procs for 86 steps with 129 atoms

99.7% CPU use with 8 MPI tasks x no OpenMP threads

Minimization stats:
  Stopping criterion = linesearch alpha is zero
  Energy initial, next-to-last, final = 
        -22001.8984675      -22005.432048      -22005.432048
  Force two-norm initial, final = 1118.04 399.913
  Force max component initial, final = 792.499 251.137
  Final line search alpha, max atom move = 4.02744e-14 1.01144e-11
  Iterations, force evaluations = 86 156

MPI task timing breakdown:
Section |  min time  |  avg time  |  max time  |%varavg| %total
---------------------------------------------------------------
Pair    | 1.5515     | 1.7113     | 1.8265     |   7.2 | 78.72
Neigh   | 0          | 0          | 0          |   0.0 |  0.00
Comm    | 0.018059   | 0.13251    | 0.29361    |  25.8 |  6.09
Output  | 0.0014158  | 0.0018146  | 0.0024976  |   0.8 |  0.08
Modify  | 0.31118    | 0.3113     | 0.3117     |   0.0 | 14.32
Other   |            | 0.0171     |            |       |  0.79

Nlocal:    16.125 ave 40 max 0 min
Histogram: 1 2 1 0 2 0 0 0 1 1
Nghost:    472.875 ave 514 max 424 min
Histogram: 2 0 2 0 0 0 0 0 0 4
Neighs:    1131.5 ave 2609 max 0 min
Histogram: 1 2 1 0 1 1 0 0 0 2

Total # of neighbors = 9052
Ave neighs/atom = 70.1705
Neighbor list builds = 0
Dangerous builds = 0
WARNING: Using 'neigh_modify every 1 delay 0 check yes' setting during minimization (../min.cpp:190)
WARNING: Total cutoff < 2*bond cutoff. May need to use an increased neighbor list skin. (../pair_reaxc.cpp:413)
Setting up cg style minimization ...
  Unit style    : real
  Current step  : 309
Per MPI rank memory allocation (min/avg/max) = 16.27 | 16.82 | 17.41 Mbytes
Step Temp E_pair E_mol TotEng Press 
     309            0   -22005.432            0   -22005.432   -2603.7943 
     344            0   -22009.452            0   -22009.452    4987.1623 
Loop time of 4.24851 on 8 procs for 35 steps with 129 atoms

99.6% CPU use with 8 MPI tasks x no OpenMP threads

Minimization stats:
  Stopping criterion = energy tolerance
  Energy initial, next-to-last, final = 
         -22005.432048       -22009.45159     -22009.4516379
  Force two-norm initial, final = 153.477 46.1189
  Force max component initial, final = 22.1107 23.132
  Final line search alpha, max atom move = 0.000200812 0.00464519
  Iterations, force evaluations = 35 274

MPI task timing breakdown:
Section |  min time  |  avg time  |  max time  |%varavg| %total
---------------------------------------------------------------
Pair    | 2.7058     | 2.9919     | 3.1911     |   9.2 | 70.42
Neigh   | 0          | 0          | 0          |   0.0 |  0.00
Comm    | 0.033203   | 0.23124    | 0.51945    |  33.1 |  5.44
Output  | 0.00080468 | 0.00096179 | 0.0013048  |   0.0 |  0.02
Modify  | 1.0105     | 1.0107     | 1.0115     |   0.0 | 23.79
Other   |            | 0.01366    |            |       |  0.32

Nlocal:    16.125 ave 40 max 0 min
Histogram: 1 2 1 0 2 0 0 0 1 1
Nghost:    472.375 ave 514 max 422 min
Histogram: 1 2 0 1 0 0 0 0 1 3
Neighs:    1124.88 ave 2593 max 0 min
Histogram: 1 2 1 0 1 1 0 0 0 2

Total # of neighbors = 8999
Ave neighs/atom = 69.7597
Neighbor list builds = 0
Dangerous builds = 0
WARNING: Using 'neigh_modify every 1 delay 0 check yes' setting during minimization (../min.cpp:190)
WARNING: Total cutoff < 2*bond cutoff. May need to use an increased neighbor list skin. (../pair_reaxc.cpp:413)
Setting up cg style minimization ...
  Unit style    : real
  Current step  : 344
WARNING: Energy due to 3 extra global DOFs will be included in minimizer energies
Per MPI rank memory allocation (min/avg/max) = 16.27 | 16.82 | 17.41 Mbytes
Step Temp E_pair E_mol TotEng Press Volume 
     344            0   -22009.452            0   -22009.452    4987.1623    5554.5417 
     351            0   -22009.636            0   -22009.636    87.226041    5555.6738 
Loop time of 0.274965 on 8 procs for 7 steps with 129 atoms

99.8% CPU use with 8 MPI tasks x no OpenMP threads

Minimization stats:
  Stopping criterion = energy tolerance
  Energy initial, next-to-last, final = 
        -22009.4516379     -22009.6356122     -22009.6356288
  Force two-norm initial, final = 860.375 301.929
  Force max component initial, final = 612.726 214.468
  Final line search alpha, max atom move = 4.55244e-10 9.76352e-08
  Iterations, force evaluations = 7 19

MPI task timing breakdown:
Section |  min time  |  avg time  |  max time  |%varavg| %total
---------------------------------------------------------------
Pair    | 0.19592    | 0.21753    | 0.23169    |   2.5 | 79.11
Neigh   | 0          | 0          | 0          |   0.0 |  0.00
Comm    | 0.002085   | 0.016168   | 0.037912   |   9.2 |  5.88
Output  | 0.00020826 | 0.00024437 | 0.00033634 |   0.0 |  0.09
Modify  | 0.038505   | 0.038525   | 0.038575   |   0.0 | 14.01
Other   |            | 0.002493   |            |       |  0.91

Nlocal:    16.125 ave 40 max 0 min
Histogram: 1 2 1 0 2 0 0 0 1 1
Nghost:    472.375 ave 514 max 422 min
Histogram: 1 2 0 1 0 0 0 0 1 3
Neighs:    1124 ave 2591 max 0 min
Histogram: 1 2 1 0 1 1 0 0 0 2

Total # of neighbors = 8992
Ave neighs/atom = 69.7054
Neighbor list builds = 0
Dangerous builds = 0
WARNING: Using 'neigh_modify every 1 delay 0 check yes' setting during minimization (../min.cpp:190)
WARNING: Total cutoff < 2*bond cutoff. May need to use an increased neighbor list skin. (../pair_reaxc.cpp:413)
Setting up cg style minimization ...
  Unit style    : real
  Current step  : 351
Per MPI rank memory allocation (min/avg/max) = 16.27 | 16.82 | 17.41 Mbytes
Step Temp E_pair E_mol TotEng Press 
     351            0   -22009.636            0   -22009.636    87.226041 
     471            0   -22016.975            0   -22016.975    3179.1489 
Loop time of 13.7189 on 8 procs for 120 steps with 129 atoms

99.1% CPU use with 8 MPI tasks x no OpenMP threads

Minimization stats:
  Stopping criterion = energy tolerance
  Energy initial, next-to-last, final = 
        -22009.6356288     -22016.9750207      -22016.975072
  Force two-norm initial, final = 132.028 190.225
  Force max component initial, final = 58.6916 120.165
  Final line search alpha, max atom move = 0.000210427 0.0252861
  Iterations, force evaluations = 120 875

MPI task timing breakdown:
Section |  min time  |  avg time  |  max time  |%varavg| %total
---------------------------------------------------------------
Pair    | 8.7136     | 9.5732     | 10.25      |  16.1 | 69.78
Neigh   | 0          | 0          | 0          |   0.0 |  0.00
Comm    | 0.15885    | 0.83003    | 1.6975     |  54.9 |  6.05
Output  | 0.0041412  | 0.0046146  | 0.0055506  |   0.6 |  0.03
Modify  | 3.2544     | 3.2573     | 3.2595     |   0.1 | 23.74
Other   |            | 0.05368    |            |       |  0.39

Nlocal:    16.125 ave 40 max 0 min
Histogram: 1 2 1 0 2 0 0 0 1 1
Nghost:    472.375 ave 514 max 422 min
Histogram: 1 2 0 1 0 0 0 0 1 3
Neighs:    1123.5 ave 2589 max 0 min
Histogram: 1 2 1 0 1 1 0 0 0 2

Total # of neighbors = 8988
Ave neighs/atom = 69.6744
Neighbor list builds = 0
Dangerous builds = 0
WARNING: Total cutoff < 2*bond cutoff. May need to use an increased neighbor list skin. (../pair_reaxc.cpp:413)
Setting up Verlet run ...
  Unit style    : real
  Current step  : 0
  Time step     : 0.25
Per MPI rank memory allocation (min/avg/max) = 15.13 | 15.58 | 16.3 Mbytes
Step Temp TotEng KinEng PotEng Press 
       0          300   -21902.512    114.46311   -22016.975    4120.9553 
     200    229.73252   -21861.143    87.652993   -21948.796    22709.229 
     400    309.78685   -21809.904    118.19722   -21928.101   -14533.244 
     600    343.45489   -21801.269    131.04304   -21932.312   -4277.5213 
     800    281.12918   -21824.406    107.26306   -21931.669    2977.2661 
    1000    265.89512    -21793.15     101.4506   -21894.601    3539.4862 
    1200    319.69413   -21787.426    121.97728   -21909.404   -12131.012 
    1400    325.64467   -21815.341    124.24767   -21939.589   -6817.4128 
    1600    286.85192   -21814.926    109.44654   -21924.373    579.87465 
    1800    302.40158   -21781.646    115.37942   -21897.026   -3098.4662 
    2000     294.6773   -21796.772    112.43226   -21909.205   -5321.1074 
    2200    302.91208   -21793.175    115.57419   -21908.749    -26104.63 
    2400    343.54659   -21781.611    131.07803   -21912.689   -4450.8055 
    2600    284.56975   -21814.148    108.57579   -21922.724   -12369.344 
    2800    307.56574   -21800.826    117.34977   -21918.176   -14150.562 
    3000    308.62805   -21787.771    117.75508   -21905.526   -24738.692 
    3200    287.36084   -21818.252    109.64071   -21927.893    8300.1553 
    3400    303.95678   -21804.876    115.97279   -21920.849     10887.07 
    3600    301.88423   -21810.908    115.18202    -21926.09    11228.374 
    3800    279.22864   -21824.595    106.53792   -21931.133    882.33664 
    4000    305.63303   -21804.793    116.61235   -21921.405   -11216.797 
    4200    311.60029   -21796.857    118.88912   -21915.746      6546.49 
    4400    300.06982   -21794.282    114.48974   -21908.772   -6145.5272 
    4600    251.30769    -21819.28    95.884863   -21915.165   -13374.287 
    4800    329.64581   -21794.658    125.77428   -21920.432    12503.793 
    5000    301.73497   -21799.744    115.12507   -21914.869    10207.164 
    5200    251.23465   -21820.048    95.856996   -21915.905    9120.4368 
    5400     297.4269   -21802.904    113.48136   -21916.385   -4831.3696 
    5600    313.93733   -21798.532    119.78081   -21918.313   -9948.9269 
    5800    270.45139   -21817.463    103.18902   -21920.652    14498.927 
    6000    303.18588   -21803.977    115.67866   -21919.655   -9540.4963 
    6200    316.39923   -21794.639    120.72013   -21915.359    4708.8414 
    6400    289.93827   -21823.398    110.62412   -21934.022    12556.273 
    6600    311.14291   -21806.227    118.71461   -21924.941    2091.5826 
    6800    319.57535   -21802.003    121.93196   -21923.935   -9642.2414 
    7000    297.31144   -21813.026     113.4373   -21926.463   -8927.9875 
    7200    296.06396   -21800.399    112.96134    -21913.36   -17420.747 
    7400    322.23215   -21791.058    122.94564   -21914.004   -15492.283 
    7600    314.15229   -21811.115    119.86282   -21930.978    14087.994 
    7800    305.80663   -21800.375    116.67859   -21917.053    6034.5027 
    8000    251.61378   -21833.689    96.001649   -21929.691    27820.102 
    8200    308.76816   -21806.343    117.80854   -21924.152   -12808.305 
    8400    300.28489   -21789.115     114.5718   -21903.687   -20001.788 
    8600    331.33918   -21784.374    126.42037   -21910.794    3819.4256 
    8800    297.94023   -21813.136    113.67721   -21926.813    8193.3092 
    9000    309.18342   -21804.566    117.96698   -21922.533    -20681.57 
    9200    314.65222   -21787.931    120.05357   -21907.984   -7150.1558 
    9400    307.74218   -21798.442    117.41709   -21915.859    3296.1638 
    9600    279.38272   -21819.494    106.59671    -21926.09     15088.77 
    9800    310.45394   -21813.947    118.45174   -21932.399   -8948.8129 
   10000    338.03081   -21798.286    128.97352   -21927.259    7106.9026 
   10200    278.05334   -21818.503     106.0895   -21924.592    13590.027 
   10400    317.40713   -21798.746    121.10469    -21919.85    8262.5438 
   10600    313.31698   -21814.792    119.54412   -21934.336    15627.049 
   10800    266.08046   -21816.607    101.52132   -21918.128   -220.92416 
   11000    317.75404   -21792.368    121.23705   -21913.605    2692.6402 
   11200    308.78254   -21795.324    117.81403   -21913.138   -3487.7213 
   11400    305.34915    -21813.18    116.50404   -21929.684    5424.8509 
   11600    326.54354   -21800.165    124.59063   -21924.755   -16927.784 
   11800    277.26885   -21801.084    105.79018   -21906.874    8527.9155 
   12000     260.5421   -21809.872    99.408194    -21909.28    -9265.748 
   12200    321.36966     -21785.7    122.61656   -21908.317   -15912.634 
   12400    290.81676   -21814.912     110.9593   -21925.872    14335.704 
   12600    282.89597    -21821.96    107.93717   -21929.897   -11302.241 
   12800    305.14212   -21794.408    116.42505   -21910.833    -399.1543 
   13000    303.75183   -21799.395    115.89459   -21915.289    6948.8563 
   13200    277.07034   -21814.811    105.71444   -21920.525    1907.9991 
   13400    311.21198   -21811.158    118.74096   -21929.899   -6408.7812 
   13600    330.38881   -21797.594    126.05776   -21923.652    1427.3803 
   13800    337.58471   -21779.393    128.80332   -21908.196   -10233.572 
   14000      299.319   -21802.276    114.20327   -21916.479    14118.452 
   14200    293.96497   -21801.003    112.16048   -21913.164    24429.141 
   14400    328.66466   -21793.394    125.39993   -21918.793   -10621.308 
   14600    286.85845   -21818.014    109.44903   -21927.463    13431.578 
   14800    299.27025   -21792.285    114.18467   -21906.469     25460.65 
   15000    311.83938   -21803.219    118.98035     -21922.2   -2321.3181 
   15200    323.62652   -21810.885    123.47765   -21934.362    15979.311 
   15400    270.48059   -21816.035    103.20016   -21919.235   -10965.853 
   15600    326.21222   -21791.018    124.46421   -21915.482    1466.1935 
   15800    284.73982   -21807.778    108.64068   -21916.419   -3802.7544 
   16000    286.87721   -21810.104    109.45619    -21919.56   -27023.461 
   16200    302.05407   -21804.876    115.24682   -21920.123    22411.967 
   16400    296.22633    -21803.22    113.02329   -21916.243    3717.3699 
   16600    318.28773   -21799.617    121.44067   -21921.058   -2333.3192 
   16800    303.84473    -21805.56    115.93004    -21921.49    16980.438 
   17000    290.67055   -21819.413    110.90351   -21930.316   -12951.687 
   17200    298.11948   -21798.166     113.7456   -21911.912   -1186.4746 
   17400    311.97302   -21794.612    119.03134   -21913.644   -602.80705 
   17600    283.75085   -21821.565    108.26335   -21929.828    1613.2588 
   17800    322.22398   -21799.362    122.94252   -21922.305    1540.4651 
   18000    578.07406   -21821.721    220.56051   -22042.282    3691.5601 
   18200    342.77393   -21929.334    130.78323   -22060.117   -1045.8025 
   18400    291.45684   -21980.454    111.20352   -22091.657   -16890.042 
   18600     292.5905   -22000.962    111.63606   -22112.599    -9847.032 
   18800    301.35746   -22033.778    114.98104   -22148.759   -13018.091 
   19000    297.83899   -22030.017    113.63859   -22143.656    14300.001 
   19200    340.49943   -22010.903    129.91541   -22140.818   -3272.8735 
   19400    248.50523    -22039.57      94.8156   -22134.386    21472.878 
   19600    291.27187   -22028.636    111.13294   -22139.769   -19868.925 
   19800    311.81526   -22023.788    118.97115    -22142.76    13846.419 
   20000    285.40563   -22050.639    108.89472   -22159.534   -13074.699 
   20200     267.1099   -22028.614     101.9141   -22130.528    18949.291 
   20400    300.39133   -22010.962    114.61242   -22125.574   -3226.9745 
   20600    276.47819   -22018.319    105.48851   -22123.807   -15540.965 
   20800    296.22091   -22038.294    113.02122   -22151.315   -6463.3205 
   21000    306.93923   -22008.699    117.11072    -22125.81    14711.887 
   21200    302.55444   -22016.518    115.43773   -22131.956   -9047.4527 
   21400    289.62362   -22019.938    110.50406   -22130.442    23780.131 
   21600    279.31442   -22018.451    106.57065   -22125.022   -24881.633 
   21800    296.46164   -22023.622    113.11307   -22136.735   -17483.372 
   22000    301.67871   -22032.552    115.10361   -22147.656    4836.6717 
   22200     276.1623   -22044.583    105.36798   -22149.951    5992.4889 
   22400    279.09735   -22013.103    106.48783   -22119.591    9246.0502 
   22600    306.69167   -22017.178    117.01627   -22134.194    3301.4462 
   22800    256.58831   -22039.832    97.899649   -22137.732   -10198.998 
   23000    338.16887   -22013.314     129.0262    -22142.34    17661.668 
   23200    290.88416   -22049.643    110.98501   -22160.628   -16807.264 
   23400     306.7773   -22033.898    117.04894   -22150.947     18400.52 
   23600    331.02506   -22028.438    126.30052   -22154.738   -16121.177 
   23800     240.5793   -22050.902    91.791513   -22142.693   -11521.887 
   24000    318.94427   -22023.666    121.69117   -22145.357   -20029.816 
   24200    291.67837   -22045.353    111.28804   -22156.641   -7257.6838 
   24400     302.5187   -22043.138     115.4241   -22158.562    7308.7299 
   24600    319.80367    -22033.09    122.01907   -22155.109    9106.7798 
   24800    300.01643   -22039.233    114.46937   -22153.702   -4214.9513 
   25000    322.26655    -22036.78    122.95877   -22159.739     2920.992 
   25200    293.05717   -22048.582    111.81411   -22160.397   -8506.5797 
   25400    303.23242   -22049.987    115.69641   -22165.683   -17793.728 
   25600    316.32807   -22032.182    120.69298   -22152.875   -8109.7582 
   25800    318.05284   -22049.251    121.35105   -22170.602    2721.2164 
   26000    285.56373   -22064.343    108.95504   -22173.298    13933.393 
   26200     321.2565   -22033.577    122.57339    -22156.15    3172.5558 
   26400    292.46256   -22050.346    111.58724   -22161.934   -2966.0532 
   26600    293.47764   -22047.723    111.97454   -22159.698    -8957.551 
   26800    320.60679   -22040.316     122.3255   -22162.642    877.23733 
   27000    271.69943   -22060.725     103.6652    -22164.39   -17941.967 
   27200     350.6974   -22041.068    133.80638   -22174.875    5920.6692 
   27400    322.62719   -22039.918    123.09637   -22163.014   -11573.352 
   27600    286.79304   -22056.775    109.42407   -22166.199   -2506.9052 
   27800    283.06312   -22047.969    108.00095    -22155.97    9020.1009 
   28000    301.35282   -22051.218    114.97927   -22166.197     3732.214 
   28200    314.06885   -22040.114    119.83099   -22159.945    10596.804 
   28400    294.92181   -22047.104    112.52555   -22159.629    17602.623 
   28600    272.40861   -22056.305    103.93579   -22160.241   -11988.685 
   28800    304.44692   -22047.082     116.1598   -22163.242   -8624.2339 
   29000    291.60508   -22044.948    111.26008   -22156.208   -1189.9917 
   29200    327.11299   -22029.925     124.8079   -22154.733   -2477.1899 
   29400    283.94774   -22058.895    108.33847   -22167.233   -11230.534 
   29600    310.70212   -22044.804    118.54643   -22163.351   -15490.971 
   29800     325.4163    -22038.42    124.16054   -22162.581   -8089.4793 
   30000    267.84306   -22064.839    102.19383   -22167.032   -5658.5852 
   30200    306.27189   -22035.564    116.85611   -22152.421   -22878.863 
   30400    321.17108   -22027.835     122.5408   -22150.376   -26126.991 
   30600    268.63535   -22055.922    102.49612   -22158.418    22004.306 
   30800    290.34077   -22038.945    110.77769   -22149.723    13000.127 
   31000    284.53337    -22051.86    108.56191   -22160.422    3804.2674 
   31200    284.88083   -22046.775    108.69448    -22155.47     9686.825 
   31400    355.46091   -22029.597    135.62387   -22165.221    9714.6851 
   31600    276.17281   -22052.413    105.37199   -22157.785   -3597.4903 
   31800    312.85448   -22031.767    119.36765   -22151.135    13719.523 
   32000    311.12583   -22030.799     118.7081   -22149.507   -17685.454 
   32200     284.4591   -22046.523    108.53357   -22155.057   -7356.0105 
   32400    347.75824    -22024.19    132.68496   -22156.875    18035.752 
   32600    428.31282   -22143.507    163.42005   -22306.927    2749.8358 
   32800    295.45806   -22230.115    112.73016   -22342.845   -9887.6112 
   33000    257.93516   -22252.082    98.413533   -22350.496    414.24937 
   33200    336.72111   -22236.433    128.47381   -22364.907    9996.6173 
   33400     299.3645   -22245.888    114.22064   -22360.108    -17560.86 
   33600    308.29438   -22279.451    117.62777   -22397.079    13816.986 
   33800    305.75871   -22297.372    116.66031   -22414.032    13074.157 
   34000    289.28869   -22306.904    110.37627    -22417.28    26988.454 
   34200    299.79941   -22290.264    114.38657   -22404.651   -15089.064 
   34400    317.97761   -22287.687    121.32235   -22409.009   -10877.306 
   34600    275.82407   -22304.135    105.23893   -22409.374   -7611.3952 
   34800    277.51469   -22288.295    105.88398   -22394.179    12160.995 
   35000    274.41851   -22268.545    104.70265   -22373.248    3253.7646 
   35200    274.05231   -22292.887    104.56293    -22397.45    13078.373 
   35400     304.8779   -22278.592    116.32424   -22394.916   -726.02144 
   35600    300.88328   -22282.377    114.80012   -22397.177   -23772.041 
   35800    265.86396   -22285.878    101.43872   -22387.316   -11826.334 
   36000    278.88603   -22301.899     106.4072   -22408.307    5688.7935 
   36200    280.05998   -22304.674    106.85512   -22411.529    21521.949 
   36400    304.83188    -22296.27    116.30668   -22412.577    7043.7071 
   36600    328.37056   -22273.243    125.28771    -22398.53   -5341.5003 
   36800    343.19171   -22273.706    130.94263   -22404.649   -4520.0252 
   37000    320.10451   -22287.117    122.13385   -22409.251    14979.856 
   37200    304.28612   -22265.827    116.09845   -22381.925    17766.023 
   37400    335.98361   -22283.772    128.19243   -22411.965     30331.79 
   37600    300.48968   -22300.036    114.64994   -22414.686   -24221.673 
   37800    363.45369   -22272.304    138.67346   -22410.977    10073.669 
   38000    306.88479   -22293.191    117.08995   -22410.281    6894.1484 
   38200    317.94841   -22296.261    121.31121   -22417.573    5098.5004 
   38400    332.75499   -22267.427    126.96056   -22394.387     13864.88 
   38600    303.07847   -22288.404    115.63768   -22404.042    10661.087 
   38800    290.20087   -22288.599    110.72431   -22399.323   -8799.3078 
   39000    317.62387   -22266.036    121.18738   -22387.224    651.81825 
   39200    302.61579   -22287.869    115.46114    -22403.33   -20395.095 
   39400    261.34385    -22287.44    99.714096   -22387.154   -1071.6443 
   39600    308.73063    -22281.93    117.79422   -22399.724    3795.3759 
   39800    303.87667   -22305.006    115.94223   -22420.948    257.31692 
   40000    298.41647   -22290.069    113.85892   -22403.928    9712.0893 
   40200    292.10264   -22288.013    111.44992   -22399.463    9856.6869 
   40400    303.83896    -22305.18    115.92784   -22421.107   -7777.5538 
   40600    302.45676   -22275.518    115.40047   -22390.919   -5457.0043 
   40800    281.31861   -22283.523    107.33534   -22390.859   -11163.919 
   41000    323.73602   -22276.067    123.51944   -22399.586     -2574.63 
   41200    282.05259   -22264.819    107.61538   -22372.434    411.06167 
   41400    277.01568   -22291.285    105.69358   -22396.979   -61.367595 
   41600    313.05426   -22290.659    119.44388   -22410.103   -27168.042 
   41800    292.60752   -22303.246    111.64255   -22414.889    11449.982 
   42000    288.39234   -22299.097    110.03428   -22409.131    11585.295 
   42200    328.46963   -22286.446    125.32551   -22411.772    9716.2324 
   42400    281.30021    -22304.21    107.32832   -22411.538    15119.305 
   42600     314.3891   -22288.616    119.95318   -22408.569     3215.509 
   42800    294.11891    -22288.03    112.21921   -22400.249    28044.688 
   43000    283.09139   -22305.122    108.01173   -22413.133    5743.3681 
   43200    285.40921   -22282.937    108.89608   -22391.833    6031.8409 
   43400    290.78848   -22278.974    110.94851   -22389.923   -17865.756 
   43600    297.46745   -22301.555    113.49683   -22415.052   -11290.725 
   43800    313.35365    -22278.96    119.55811   -22398.518   -2057.4734 
   44000    291.68751   -22276.562    111.29153   -22387.853    9433.3509 
   44200    278.99989   -22296.278    106.45065   -22402.729    7331.8017 
   44400    280.48511    -22298.86    107.01732   -22405.877   -5437.6751 
   44600    323.91139   -22279.931    123.58635   -22403.518    6797.6003 
   44800    292.15475     -22296.6     111.4698    -22408.07    25057.215 
   45000    291.24656   -22289.538    111.12329   -22400.662   -2568.2768 
   45200    307.38825   -22280.508    117.28205    -22397.79   -4111.2702 
   45400    277.04743   -22299.973     105.7057   -22405.679   -11318.714 
   45600    287.00687   -22293.855    109.50566   -22403.361    -13596.59 
   45800    356.75629   -22266.626    136.11811   -22402.744   -8851.9437 
   46000    291.17293    -22291.27    111.09519   -22402.365    11072.894 
   46200     291.9932   -22291.331    111.40816    -22402.74    13505.507 
   46400    341.24924   -22260.648    130.20149    -22390.85   -941.28624 
   46600    341.15782   -22273.103    130.16661    -22403.27   -4763.1974 
   46800    268.82421    -22290.73    102.56818   -22393.298    17421.048 
   47000    275.82414   -22292.223    105.23896   -22397.462   -10494.453 
   47200    305.51191    -22275.11    116.56614   -22391.676    20490.227 
   47400    276.09134   -22305.122    105.34091   -22410.463   -30348.036 
   47600    309.04854   -22300.767    117.91552   -22418.683   -12502.279 
   47800    313.26767   -22279.569     119.5253   -22399.094    26379.847 
   48000    305.41149   -22294.247    116.52782   -22410.775   -12601.637 
   48200     308.2766   -22299.279    117.62099     -22416.9    5810.6943 
   48400    298.14781   -22289.176    113.75641   -22402.933   -8567.8274 
   48600    320.12138   -22286.898    122.14029   -22409.038    7037.4385 
   48800    293.31407   -22279.345    111.91213   -22391.257     13296.28 
   49000    293.70346   -22282.836     112.0607   -22394.897    13874.403 
   49200    258.30988   -22304.541    98.556502   -22403.097    24410.583 
   49400    294.26181   -22273.709    112.27374   -22385.983   -5593.5568 
   49600    314.21458   -22287.142    119.88659   -22407.029    5741.2611 
   49800    303.52644   -22301.671     115.8086    -22417.48   -3891.6456 
   50000     306.3101     -22281.5    116.87069   -22398.371   -11511.134 
   50200    302.09269   -22291.071    115.26156   -22406.333   -16.242839 
   50400     283.1746   -22302.316    108.04348    -22410.36   -84.823437 
   50600    317.74902   -22282.814    121.23513   -22404.049    1088.5658 
   50800     304.8473   -22287.884    116.31256   -22404.196   -1457.5572 
   51000    267.27719   -22312.995    101.97793   -22414.973   -1803.3466 
   51200    280.07973   -22287.405    106.86265   -22394.268   -29083.419 
   51400    281.58389   -22289.349    107.43656   -22396.786   -12093.704 
   51600    286.52786   -22308.884     109.3229   -22418.207   -37626.953 
   51800     309.3831   -22286.796    118.04317   -22404.839    16891.161 
   52000    303.36388   -22273.738    115.74657   -22389.485   -3159.0163 
   52200    280.31632    -22298.72    106.95292   -22405.673   -3896.3896 
   52400    277.22512   -22284.855    105.77349   -22390.629   -909.65349 
   52600    327.42506   -22275.612    124.92696   -22400.539    25883.811 
   52800    278.58753   -22295.338    106.29331   -22401.631   -425.92874 
   53000    280.31589   -22299.235    106.95276   -22406.188    607.56112 
   53200    313.37551   -22282.146    119.56645   -22401.712    11832.813 
   53400    266.30675     -22307.5    101.60766   -22409.108    10280.847 
   53600     281.0819   -22306.639    107.24502   -22413.884    23005.073 
   53800    323.81726   -22278.669    123.55043    -22402.22   -5204.6179 
   54000    294.27389   -22290.823    112.27834   -22403.102     9963.924 
   54200    302.72986   -22271.109    115.50467   -22386.614   -12586.826 
   54400    343.45728   -22265.243    131.04396   -22396.287   -1972.9977 
   54600    321.91137   -22282.739    122.82325   -22405.562   -6073.4155 
   54800    324.79283   -22284.199    123.92265   -22408.121   -5040.0902 
   55000    309.05656   -22288.116    117.91858   -22406.035    8035.6257 
   55200    304.24815    -22292.77    116.08396   -22408.854   -13536.175 
   55400     315.9239   -22286.893    120.53877   -22407.432   -14080.097 
   55600    320.11528   -22283.684    122.13796   -22405.822    3708.5747 
   55800    289.37861   -22307.512    110.41058   -22417.923     9747.756 
   56000    344.42432   -22284.969    131.41293   -22416.382    4150.1692 
   56200    368.39247   -22243.019    140.55782   -22383.577   -2410.0475 
   56400     331.7695   -22265.004    126.58456   -22391.589   -6270.1573 
   56600    303.63091   -22284.691    115.84846   -22400.539     4216.001 
   56800    299.10281   -22298.199    114.12079    -22412.32    6055.1498 
   57000    327.73171   -22281.053    125.04397   -22406.097   -11816.656 
   57200    296.64284   -22284.686     113.1822   -22397.869    5672.0066 
   57400     298.3531   -22299.705    113.83474    -22413.54   -21655.344 
   57600    286.86724   -22284.285    109.45238   -22393.737    18955.253 
   57800    291.34163   -22292.814    111.15956   -22403.973    22300.309 
   58000    271.21114   -22311.904     103.4789   -22415.383   -4512.0807 
   58200    283.08581   -22294.093     108.0096   -22402.103    7309.4414 
   58400    321.97269   -22287.768    122.84665   -22410.615    7147.9735 
   58600    329.28638   -22270.523    125.63714    -22396.16   -5848.6136 
   58800    286.14264   -22299.055    109.17592   -22408.231    11933.658 
   59000     284.8271   -22300.962    108.67398   -22409.636   -394.47474 
   59200    318.20244   -22271.916    121.40813   -22393.325    29864.407 
   59400    292.96059   -22302.609    111.77726   -22414.386   -6982.7175 
   59600    322.87595   -22286.993    123.19128   -22410.184   -24015.615 
   59800    320.15041   -22271.146    122.15137   -22393.297   -6595.5816 
   60000     242.9329   -22301.541    92.689513   -22394.231    758.65226 
   60200    290.99136   -22286.413    111.02592   -22397.439   -5319.8171 
   60400    335.42746   -22272.038    127.98023   -22400.018    38674.785 
   60600    277.38141   -22304.694    105.83313   -22410.527     -16124.1 
   60800    288.12645    -22284.14    109.93283   -22394.073    4053.2886 
   61000    300.10448   -22296.693    114.50297   -22411.196    11408.122 
   61200    286.26115   -22307.125    109.22113   -22416.346   -221.41587 
   61400    312.02947   -22290.678    119.05288   -22409.731    4687.4537 
   61600    279.61007   -22312.356    106.68346    -22419.04    6992.2146 
   61800    255.30409   -22300.884    97.409665   -22398.294   -8942.4782 
   62000    300.88126   -22279.664    114.79934   -22394.464   -1906.3394 
   62200    309.90597   -22271.756    118.24267   -22389.999   -15966.138 
   62400    283.39321   -22298.568    108.12689   -22406.695   -10710.019 
   62600    307.24491   -22278.944    117.22736   -22396.171   -3842.6848 
   62800    303.27571   -22288.498    115.71293   -22404.211    12825.372 
   63000    281.22581    -22316.08    107.29993    -22423.38    6449.6648 
   63200    302.64358   -22289.789    115.47175   -22405.261   -4792.2409 
   63400    316.04646   -22292.162    120.58553   -22412.748    4012.9089 
   63600    270.44683   -22314.949    103.18728   -22418.137    7814.8391 
   63800    307.29496   -22292.629    117.24645   -22409.876    2019.2605 
   64000     279.5843   -22292.843    106.67362   -22399.517    12350.676 
   64200    348.43764   -22259.537    132.94418   -22392.481   -5271.9016 
   64400    295.98344   -22289.229    112.93061   -22402.159   -2614.3838 
   64600    288.28459   -22281.545    109.99317   -22391.538    10905.689 
   64800    286.29703   -22268.123    109.23482   -22377.358    21099.821 
   65000    288.67386   -22292.493    110.14169   -22402.635   -6676.7321 
   65200    295.84962   -22278.756    112.87956   -22391.635    13983.961 
   65400    326.75206   -22274.196    124.67018   -22398.866    9914.3917 
   65600    318.79296   -22299.718    121.63344   -22421.352    11634.642 
   65800    277.65647     -22296.2    105.93807   -22402.138    5802.4958 
   66000    347.90087   -22272.102    132.73938   -22404.842    2684.8843 
   66200     274.8581   -22306.633    104.87037   -22411.503    3658.1427 
   66400    306.34693   -22282.129    116.88474   -22399.014   -6391.6834 
   66600    309.56807   -22291.341    118.11374   -22409.455    7231.2535 
   66800    290.44905   -22314.883      110.819   -22425.702     372.5928 
   67000    307.31326    -22291.31    117.25343   -22408.563   -5458.0553 
   67200     306.1761   -22279.832    116.81956   -22396.652   -34263.743 
   67400    298.75095   -22284.208    113.98654   -22398.194   -8379.8554 
   67600    273.55129   -22299.171    104.37177   -22403.543   -17790.452 
   67800    304.74331    -22270.16    116.27288   -22386.433     11421.54 
   68000    313.00006   -22281.417     119.4232    -22400.84     6134.617 
   68200    276.47328   -22301.651    105.48663   -22407.138    4414.1564 
   68400    321.76806   -22288.814    122.76857   -22411.582    4332.7091 
   68600      306.067   -22283.573    116.77793   -22400.351    20226.071 
   68800    380.93424   -22255.213    145.34305   -22400.556   -2520.2802 
   69000    312.10283   -22291.006    119.08086   -22410.087   -4695.2052 
   69200    309.71846   -22299.607    118.17112   -22417.778    -10650.45 
   69400    320.00507   -22277.386    122.09591   -22399.482    2802.8151 
   69600    282.93985   -22285.996    107.95391    -22393.95   -4405.8107 
   69800    279.90034   -22297.063    106.79421   -22403.857    7247.5436 
   70000    320.77381   -22272.212    122.38922   -22394.601   -19229.604 
   70200    297.47462   -22281.851    113.49956   -22395.351    3173.7749 
   70400    264.31949   -22282.772    100.84943   -22383.621   -3225.2702 
   70600    277.31988   -22302.944    105.80965   -22408.753    1898.6957 
   70800    272.27154   -22289.182    103.88349   -22393.065    5016.9514 
   71000    310.98739   -22285.946    118.65527   -22404.601   -19218.949 
   71200     272.3682   -22300.016    103.92037   -22403.936   -9849.1349 
   71400    282.41155   -22316.339    107.75235   -22424.091   -18230.144 
   71600    325.05988   -22287.953    124.02455   -22411.978   -11846.865 
   71800    292.65495   -22302.624    111.66065   -22414.285   -14787.356 
   72000    294.15931   -22296.388    112.23463   -22408.622    30545.115 
   72200    310.51629   -22281.445    118.47553   -22399.921   -5947.4465 
   72400    291.00256   -22295.039    111.03019    -22406.07   -16340.974 
   72600    327.54593   -22268.055    124.97308   -22393.028   -14630.814 
   72800     299.6982   -22284.077    114.34796   -22398.425   -616.44963 
   73000     301.0861     -22283.3     114.8775   -22398.178   -5963.7921 
   73200    326.86052   -22263.411    124.71157   -22388.123    36395.833 
   73400    307.60054   -22276.615    117.36304   -22393.978   -11185.573 
   73600    297.47584   -22298.167    113.50003   -22411.667   -7719.8863 
   73800    316.58547   -22285.624    120.79119   -22406.415   -5067.2163 
   74000    311.83577   -22280.598    118.97897   -22399.577    13563.883 
   74200    290.42461   -22303.199    110.80968   -22414.008   -2785.1243 
   74400    308.22386    -22282.79    117.60087   -22400.391   -17689.332 
   74600    350.63489   -22251.312    133.78253   -22385.095   -4940.2273 
   74800    289.50004   -22292.254    110.45691   -22402.711    9872.6027 
   75000    289.72084   -22300.677    110.54116   -22411.218    24401.789 
   75200    322.22892   -22274.698    122.94441   -22397.642     6551.426 
   75400    234.69135   -22285.003    89.545001   -22374.548    4725.4288 
   75600    258.81106   -22304.095    98.747726   -22402.843    5529.1134 
   75800    314.65376   -22282.393    120.05416   -22402.447   -6553.3374 
   76000    289.56768   -22280.974    110.48272   -22391.457    2673.0936 
   76200    299.46454   -22287.374     114.2588   -22401.633    8502.8462 
   76400    284.93399    -22299.49    108.71477   -22408.205    2067.9218 
   76600    303.84968   -22283.799    115.93193   -22399.731    9544.8895 
   76800    331.39202   -22292.648    126.44053   -22419.088    -2197.985 
   77000    280.90634   -22305.735    107.17804   -22412.913   -5748.0993 
   77200    312.76194   -22285.536    119.33234   -22404.868    5225.8622 
   77400     327.1651   -22278.928    124.82778   -22403.756    21442.572 
   77600    294.15299   -22298.918    112.23222    -22411.15   -4085.7911 
   77800     317.1118   -22273.367      120.992   -22394.359   -14800.608 
   78000    304.55198   -22282.325    116.19988   -22398.524   -3218.5101 
   78200    270.79154   -22312.204     103.3188   -22415.523   -6297.8035 
   78400    291.56327   -22292.384    111.24412   -22403.628    11116.225 
   78600    306.49671   -22287.007    116.94189   -22403.949    6669.9009 
   78800    283.95036   -22302.724    108.33947   -22411.063   -7796.2796 
   79000     275.8818   -22293.073    105.26096   -22398.334   -2590.0797 
   79200    318.13736     -22287.2     121.3833   -22408.584    755.69077 
   79400    280.67052   -22295.895    107.08807   -22402.983   -11581.013 
   79600    288.87108   -22289.111    110.21694   -22399.327    18058.778 
   79800    302.77305   -22283.255    115.52114   -22398.776   -13723.595 
   80000    315.85212   -22278.874    120.51138   -22399.385    220.80839 
   80200    262.92348   -22304.759    100.31679   -22405.076   -6090.2961 
   80400     322.2439   -22279.198    122.95012   -22402.149   -1549.0358 
   80600    322.54933   -22277.767    123.06666   -22400.833   -5356.0124 
   80800    266.32791   -22289.685    101.61573   -22391.301   -14341.827 
   81000    324.33523   -22265.688    123.74806   -22389.436    2610.9585 
   81200    313.45801   -22280.605    119.59792   -22400.203   -734.94298 
   81400     302.0101   -22294.849    115.23005   -22410.079    4051.0833 
   81600    318.67333   -22285.454     121.5878   -22407.041    27301.345 
   81800     323.2043    -22274.33    123.31656   -22397.647    1689.6583 
   82000    303.18806   -22302.719    115.67949   -22418.399   -1853.3669 
   82200    328.77539   -22286.707    125.44217   -22412.149    1813.6751 
   82400    292.00065    -22290.59    111.41101   -22402.001   -16698.319 
   82600    280.62002   -22304.649     107.0688   -22411.717   -18433.254 
   82800    320.43611   -22279.521    122.26037   -22401.781   -14825.367 
   83000    310.31092   -22290.628    118.39717   -22409.026    18969.042 
   83200     269.8615   -22310.703    102.96395   -22413.667    19921.476 
   83400    298.43046   -22282.076    113.86426    -22395.94   -16632.157 
   83600     272.4973   -22280.572    103.96962   -22384.542   -4762.5619 
   83800    267.90445   -22303.728    102.21725   -22405.945    19294.116 
   84000    325.17988   -22278.405    124.07033   -22402.475   -1707.6852 
   84200    309.28742   -22285.107    118.00666   -22403.114   -6363.1297 
   84400    297.18644       -22302    113.38961    -22415.39    415.40638 
   84600     356.9291   -22269.579    136.18404   -22405.763    346.00569 
   84800    348.00277   -22276.154    132.77826   -22408.932   -6075.4713 
   85000    283.44206   -22303.094    108.14553    -22411.24   -1424.5663 
   85200     293.9421   -22299.358    112.15175   -22411.509   -12612.854 
   85400    297.88544   -22276.758    113.65631   -22390.415    3477.7816 
   85600    287.57855   -22295.399    109.72378   -22405.123   -4655.0173 
   85800    274.79671   -22310.436    104.84695   -22415.283    562.44598 
   86000    312.21942   -22275.819    119.12535   -22394.945   -997.75725 
   86200    291.17674   -22268.993    111.09665   -22380.089   -4287.8471 
   86400    273.45009   -22291.471    104.33316   -22395.804    7.9851247 
   86600     297.3781   -22283.234    113.46274   -22396.696    13117.718 
   86800    301.01634   -22291.049    114.85089     -22405.9   -35.462422 
   87000    303.60946   -22300.159    115.84027   -22415.999     4804.652 
   87200    298.52874   -22287.677    113.90176   -22401.579    -2659.728 
   87400    300.50936   -22294.953    114.65745   -22409.611   -7955.7061 
   87600    273.55682   -22301.582    104.37388   -22405.956    3272.8489 
   87800    294.98704    -22278.87    112.55044    -22391.42    7801.6778 
   88000    283.59985   -22298.711    108.20573   -22406.917    4601.0109 
   88200    287.19443   -22287.135    109.57722   -22396.712    8503.6741 
   88400    328.66331   -22268.097    125.39941   -22393.496   -14772.115 
   88600    298.69441   -22294.429    113.96497   -22408.394   -17535.666 
   88800    274.08678   -22289.817    104.57608   -22394.393   -5167.2149 
   89000    297.54072   -22282.542    113.52478   -22396.067    6731.0549 
   89200    257.50468   -22301.377    98.249285   -22399.626   -7682.9695 
   89400    301.04747   -22289.611    114.86276   -22404.474   -6148.1258 
   89600    282.55204    -22285.54    107.80595   -22393.346   -18663.074 
   89800    298.96048   -22296.479    114.06649   -22410.545   -7908.0877 
   90000    269.86143    -22316.04    102.96392   -22419.004   -6364.9564 
   90200      293.462   -22292.595    111.96857   -22404.564   -28502.606 
   90400    312.92869   -22288.679    119.39596   -22408.075    11491.069 
   90600    254.78034   -22306.209    97.209829   -22403.419   -10401.574 
   90800    260.89366   -22308.624    99.542329   -22408.166    35071.277 
   91000    285.83941    -22280.19    109.06022    -22389.25   -9314.4375 
   91200    323.59963   -22266.795     123.4674   -22390.263    6672.6262 
   91400    281.75923   -22294.587    107.50346   -22402.091   -7244.0375 
   91600    264.58322   -22283.983    100.95006   -22384.933     12644.05 
   91800    311.87109   -22271.616    118.99245   -22390.608   -18386.789 
   92000    317.07934   -22283.158    120.97962   -22404.138   -2242.4928 
   92200    314.27235   -22294.307    119.90863   -22414.216    18677.724 
   92400    288.41762   -22307.756    110.04392     -22417.8    8470.2479 
   92600    342.61775   -22275.915    130.72364   -22406.638    167.69763 
   92800    299.49921   -22294.363    114.27203   -22408.635   -25978.944 
   93000    279.29548   -22295.111    106.56343   -22401.674    21093.648 
   93200    305.77985   -22284.227    116.66837   -22400.895     7953.182 
   93400    356.18463   -22252.639        135.9   -22388.539    5158.8511 
   93600    320.55142   -22267.562    122.30437   -22389.866    13657.226 
   93800     269.0022   -22289.815    102.63609   -22392.451    6769.4248 
   94000    297.21895   -22280.611    113.40202   -22394.013   -2710.0168 
   94200     341.5578   -22264.199    130.31922   -22394.518    13212.106 
   94400     343.8908   -22290.872    131.20936   -22422.081   -33895.606 
   94600    324.15992   -22290.059    123.68117    -22413.74    20942.718 
   94800    308.05816   -22275.667    117.53765   -22393.205   -4624.4447 
   95000    309.18472    -22292.76    117.96748   -22410.728    7479.2379 
   95200    292.45375   -22300.295    111.58388   -22411.879    23643.193 
   95400    355.54899   -22267.183    135.65747   -22402.841    6222.6391 
   95600    280.82031   -22301.132    107.14522   -22408.278   -5249.7927 
   95800    308.74232   -22291.564    117.79868   -22409.363    23299.598 
   96000    315.77178   -22279.163    120.48073   -22399.643    128.46566 
   96200    265.14096   -22299.311    101.16286   -22400.474   -11468.859 
   96400    310.47979   -22276.147     118.4616   -22394.609    17475.654 
   96600    317.58969   -22275.827    121.17434   -22397.001   -17306.083 
   96800    271.38364   -22291.615    103.54471    -22395.16    19415.677 
   97000    328.67685   -22278.515    125.40458   -22403.919   -11111.396 
   97200    289.85167   -22301.076    110.59107   -22411.667    4881.5019 
   97400    293.08886   -22301.874     111.8262     -22413.7   -2665.1756 
   97600    324.31023   -22286.772    123.73852    -22410.51    -26723.62 
   97800    253.61018   -22308.912    96.763364   -22405.676   -9628.0474 
   98000     293.1941   -22309.029    111.86636   -22420.895    3412.9731 
   98200    318.40446   -22291.799    121.48521   -22413.284   -1785.3181 
   98400    298.22186   -22279.158    113.78467   -22392.943   -18018.001 
   98600    270.94603   -22296.286    103.37775   -22399.664   -4538.0409 
   98800    300.63678   -22288.707    114.70607   -22403.413   -1510.2267 
   99000    302.13502   -22273.295    115.27771   -22388.573    7343.1063 
   99200    297.57562   -22294.318     113.5381   -22407.856    10012.926 
   99400    266.54676   -22312.207    101.69923   -22413.907    26749.444 
   99600    303.66529   -22286.341    115.86157   -22402.202    24257.018 
   99800    287.73314   -22279.332    109.78276   -22389.115   -31959.288 
  100000    292.23926   -22306.525    111.50205   -22418.027    7467.2513 
  100200    304.38943   -22287.379    116.13786   -22403.516     10472.98 
  100400    281.76109   -22281.892    107.50417   -22389.396    22735.073 
  100600    303.15913   -22298.462    115.66845   -22414.131    16280.537 
  100800    264.13766   -22300.762    100.78006   -22401.542   -1388.6675 
  101000    293.14647   -22278.639    111.84819   -22390.487    210.94996 
  101200    267.69747   -22296.675    102.13828   -22398.814    14144.677 
  101400    281.69844   -22299.591    107.48026   -22407.072    2020.9727 
  101600     293.5575   -22280.228    112.00501   -22392.233   -9476.8117 
  101800    288.23699   -22282.671      109.975   -22392.646   -10673.786 
  102000    260.30211   -22303.065    99.316625   -22402.382   -29723.223 
  102200    304.82566   -22273.417    116.30431   -22389.721   -6537.1658 
  102400    287.87078   -22295.003    109.83528   -22404.838   -3178.0166 
  102600    294.06102   -22293.026    112.19713   -22405.223   -44133.017 
  102800    281.39751   -22284.166    107.36544   -22391.531    22891.942 
  103000    287.72236   -22273.236    109.77865   -22383.015     1499.456 
  103200    294.73281   -22296.214    112.45344   -22408.667    -14233.82 
  103400    351.26651   -22280.575    134.02352   -22414.598   -1184.6171 
  103600    322.56445   -22262.352    123.07243   -22385.424    1831.8514 
  103800    289.25299   -22295.256    110.36265   -22405.619     15492.21 
  104000    315.35549   -22278.312    120.32189   -22398.634   -3618.0307 
  104200    325.61846   -22270.983    124.23767   -22395.221   -928.41991 
  104400    294.78698   -22283.277    112.47411   -22395.752    -11514.19 
  104600     309.3701   -22291.024    118.03821   -22409.062     7691.126 
  104800    271.44578   -22307.569    103.56842   -22411.137    18408.101 
  105000    310.40116   -22278.024     118.4316   -22396.455    15387.223 
  105200    293.31887   -22291.121    111.91396   -22403.035    10009.674 
  105400    296.79962   -22298.868    113.24202    -22412.11   -1952.9891 
  105600    295.43526   -22295.642    112.72146   -22408.363    -30452.03 
  105800    309.57707    -22295.15    118.11718   -22413.267   -1705.3862 
  106000    343.06928   -22283.274    130.89592    -22414.17    500.28258 
  106200    292.12433   -22297.018    111.45819   -22408.477   -15424.688 
  106400    291.77282   -22298.068    111.32408   -22409.393   -21399.851 
  106600    302.32619   -22273.616    115.35065   -22388.967   -5320.2648 
  106800    298.01913   -22291.038    113.70732   -22404.745     33016.98 
  107000     269.0898   -22296.901    102.66952   -22399.571    28144.131 
  107200    331.82898   -22268.821    126.60725   -22395.428   -1231.6659 
  107400    276.71516   -22295.355    105.57892   -22400.934    1725.3316 
  107600    294.33886   -22293.515    112.30313   -22405.818    5422.2789 
  107800    330.25127   -22272.782    126.00529   -22398.787    5550.6879 
  108000    354.33003   -22272.987    135.19239    -22408.18    108.27449 
  108200    313.79748   -22294.098    119.72745   -22413.826   -14066.787 
  108400     329.5064   -22300.943    125.72109   -22426.664    10890.743 
  108600    325.62332   -22279.422    124.23952   -22403.662    24957.405 
  108800    318.75445   -22291.336    121.61875   -22412.955    3723.0373 
  109000    302.74674    -22296.34    115.51111   -22411.851   -24491.674 
  109200    294.35461   -22278.562    112.30914   -22390.871    24253.623 
  109400    324.41775   -22261.703    123.77954   -22385.483   -18286.602 
  109600    296.31378   -22278.511    113.05665   -22391.568   -6156.4122 
  109800    295.67989   -22293.715    112.81479   -22406.529   -13021.194 
  110000    333.55193   -22267.187    127.26463   -22394.452   -706.03695 
  110200    291.41715   -22291.268    111.18837   -22402.456    23854.196 
  110400    292.75196     -22290.8    111.69766   -22402.497    5460.3752 
  110600    325.03811   -22277.794    124.01624    -22401.81   -4950.1793 
  110800    281.00183   -22305.401    107.21448   -22412.615   -12138.859 
  111000     324.7668   -22292.451    123.91272   -22416.363   -4320.1146 
  111200    337.04282   -22278.234    128.59656    -22406.83    380.83792 
  111400      298.227   -22294.851    113.78663   -22408.638    6416.9876 
  111600     350.6317   -22272.592    133.78131   -22406.373    21327.728 
  111800    320.93006   -22270.998    122.44884   -22393.447   -2130.1145 
  112000    297.21806   -22288.128    113.40167   -22401.529   -1493.9253 
  112200    296.52811   -22280.209    113.13843   -22393.348   -22014.256 
  112400    349.82207   -22262.669     133.4724   -22396.141   -15073.649 
  112600    286.39609   -22290.064    109.27262   -22399.337    12765.429 
  112800    286.60901   -22285.624    109.35386   -22394.978   -20709.527 
  113000    287.82729   -22284.453    109.81868   -22394.272   -4395.9469 
  113200     303.7953   -22303.595    115.91118   -22419.506     -4221.01 
  113400    277.86377   -22298.519    106.01717   -22404.536    28067.217 
  113600    306.94567    -22278.74    117.11318   -22395.853    -15479.83 
  113800    276.72941   -22303.018    105.58436   -22408.602   -7738.6844 
  114000    309.47956   -22293.987    118.07997   -22412.067    4381.1618 
  114200    314.12864   -22284.908     119.8538   -22404.762      1417.48 
  114400    304.85188   -22285.928    116.31431   -22402.242   -4613.9017 
  114600    312.11269   -22291.076    119.08462    -22410.16     2031.705 
  114800    303.45237   -22268.639    115.78034   -22384.419     18307.87 
  115000    282.87484    -22289.43    107.92911   -22397.359   -11791.023 
  115200    277.96158   -22293.519    106.05449   -22399.574   -22013.728 
  115400    304.22749   -22273.074    116.07608    -22389.15    19026.862 
  115600    298.13032   -22304.402    113.74974   -22418.152    16232.546 
  115800    309.87138   -22287.488    118.22947   -22405.717    -8398.188 
  116000    316.01522   -22280.319    120.57361   -22400.892   -4054.1926 
  116200    274.52235   -22308.782    104.74227   -22413.525    1785.4421 
  116400    291.25763   -22290.593    111.12751    -22401.72   -11838.202 
  116600    301.75075   -22281.375     115.1311   -22396.506    5181.0771 
  116800    274.51394    -22307.62    104.73906   -22412.359    14609.883 
  117000    286.23781   -22294.374    109.21223   -22403.587   -1618.2372 
  117200    322.49634   -22277.037    123.04644   -22400.083    3158.5465 
  117400    276.31851    -22297.62    105.42758   -22403.048    2263.8145 
  117600    293.10691   -22295.601    111.83309   -22407.434    18587.972 
  117800    315.64143     -22280.3    120.43099   -22400.731    30236.913 
  118000    308.65403   -22284.587      117.765   -22402.352   -31294.947 
  118200    289.69083   -22307.972    110.52971   -22418.502    3143.1182 
  118400    310.57613   -22280.394    118.49836   -22398.892      200.815 
  118600    288.17267   -22289.219    109.95046   -22399.169    -16620.97 
  118800    297.32373   -22303.149    113.44199   -22416.591    8332.6254 
  119000    303.33231   -22290.412    115.73453   -22406.146    7533.3666 
  119200    333.95475   -22273.566    127.41833   -22400.984    -22675.76 
  119400    278.24913   -22303.715     106.1642   -22409.879    -30650.86 
  119600    293.64384   -22296.048    112.03795   -22408.086    13140.739 
  119800    312.66887    -22283.83    119.29683   -22403.127     9706.794 
  120000    299.96161   -22283.527    114.44846   -22397.975    24704.796 
  120200    292.57843   -22303.475    111.63145   -22415.106   -8065.4359 
  120400    301.51883   -22275.932    115.04261   -22390.975   -9508.4107 
  120600    323.80615   -22291.801    123.54619   -22415.347    52099.402 
  120800    294.46949   -22301.444    112.35298   -22413.797   -12008.562 
  121000    320.42179   -22270.038    122.25491   -22392.293    1685.5783 
  121200    294.29754   -22297.832    112.28737   -22410.119   -5714.1428 
  121400    309.28296    -22285.06    118.00496   -22403.065    3740.3462 
  121600    322.24773   -22273.214    122.95159   -22396.165    553.27115 
  121800    271.03948   -22287.238     103.4134   -22390.651    16132.878 
  122000    298.64803   -22291.682    113.94727   -22405.629    5135.3042 
  122200     345.0861   -22268.106    131.66542   -22399.771   -3573.2506 
  122400    303.16775   -22294.384    115.67174   -22410.055   -6508.9562 
  122600    279.41524   -22288.632    106.60912   -22395.241    12649.239 
  122800    296.78758    -22282.47    113.23743   -22395.708   -9548.1623 
  123000    285.33645   -22292.607    108.86832   -22401.476   -287.83989 
  123200    281.38937    -22298.89    107.36234   -22406.252   -28122.059 
  123400    284.84823   -22274.898    108.68204    -22383.58     29135.42 
  123600    307.21306   -22296.241     117.2152   -22413.456    25371.309 
  123800    265.97788   -22297.867    101.48218   -22399.349   -2665.8757 
  124000    305.35767   -22284.046    116.50729   -22400.553    10686.926 
  124200    282.37032   -22307.217    107.73661   -22414.954   -14768.263 
  124400    302.71019   -22289.394    115.49716   -22404.891    6413.4729 
  124600    279.40121   -22281.364    106.60377   -22387.968    9813.9403 
  124800    304.63512   -22287.908    116.23161    -22404.14     10945.19 
  125000    291.95712   -22295.014    111.39439   -22406.408    -22982.74 
  125200    348.71087    -22274.85    133.04843   -22407.898    33436.818 
  125400    288.53428   -22293.108    110.08843   -22403.196    7391.9476 
  125600    261.83163   -22306.513    99.900206   -22406.413   -2705.9613 
  125800    309.53345   -22277.012    118.10053   -22395.113   -77.798896 
  126000    287.59383    -22291.11    109.72961   -22400.839   -12165.242 
  126200    286.41327   -22291.206    109.27917   -22400.485    14788.842 
  126400    283.84357   -22279.746    108.29872   -22388.044    12780.781 
  126600    272.31694   -22298.667    103.90081   -22402.568   -10542.829 
  126800    310.88747   -22289.261    118.61715   -22407.878     2194.599 
  127000    324.22982   -22264.615    123.70784   -22388.323   -7278.7997 
  127200     317.8991   -22275.066    121.29239   -22396.358   -25640.035 
  127400    296.14541   -22283.154    112.99241   -22396.146     37101.03 
  127600    297.77944   -22286.638    113.61587   -22400.254     47.75274 
  127800    266.88293   -22300.363     101.8275   -22402.191    18012.755 
  128000    309.42762   -22272.547    118.06015   -22390.607    2963.6753 
  128200    272.05507   -22294.537     103.8009   -22398.338    4704.7831 
  128400    308.49485   -22290.485    117.70426    -22408.19     268.2279 
  128600    322.02131   -22266.046     122.8652   -22388.912   -2401.9688 
  128800     279.6524   -22296.246    106.69961   -22402.945    18910.331 
  129000    312.54625   -22291.663    119.25005   -22410.913   -11247.344 
  129200    298.87229   -22273.172    114.03284   -22387.204   -7947.6694 
  129400    264.25483   -22293.738    100.82476   -22394.563    17154.523 
  129600    291.35038   -22288.234     111.1629   -22399.396    11771.734 
  129800    275.13937   -22297.685    104.97769   -22402.663    13951.345 
  130000     329.1144   -22278.267    125.57152   -22403.839   -7777.0353 
  130200     306.2184   -22279.296     116.8357   -22396.132    8217.9066 
  130400    272.40114   -22303.665    103.93293   -22407.598    4028.2868 
  130600    273.21908    -22276.63    104.24502   -22380.875    15158.702 
  130800     296.1897    -22285.81    113.00931    -22398.82    10277.742 
  131000    291.11704   -22301.266    111.07387    -22412.34    9934.8834 
  131200    337.91519   -22269.862    128.92941   -22398.791    23864.216 
  131400    293.25878   -22290.669    111.89104    -22402.56    28946.877 
  131600    292.13595   -22290.272    111.46263   -22401.734   -31095.557 
  131800    240.07165   -22311.333    91.597822   -22402.931    4390.7102 
  132000    291.13493   -22288.766    111.08069   -22399.846   -3113.9289 
  132200    299.82663   -22290.232    114.39696   -22404.629    10800.096 
  132400    277.87464   -22297.495    106.02131   -22403.516    -15613.76 
  132600    302.55737   -22279.153    115.43885   -22394.592   -4259.0611 
  132800    338.21345    -22262.43    129.04321   -22391.473   -15652.153 
  133000    267.00249   -22294.482    101.87311   -22396.355   -17470.331 
  133200     329.6325   -22273.367     125.7692   -22399.137    18231.109 
  133400    303.78466   -22297.968    115.90712   -22413.876   -12279.099 
  133600    286.77007   -22291.969    109.41531   -22401.384    18185.506 
  133800    282.33309   -22290.547    107.72241   -22398.269    6120.6331 
  134000    268.12255   -22316.511    102.30046   -22418.812   -39874.204 
  134200    318.12418   -22289.633    121.37827   -22411.011    16181.698 
  134400     312.8278   -22278.734    119.35747   -22398.091    9370.5195 
  134600    286.56471   -22302.386    109.33696   -22411.723    12847.452 
  134800    296.33598   -22295.625    113.06512    -22408.69   -15817.914 
  135000    278.02491   -22290.738    106.07865   -22396.817    14353.455 
  135200    292.64029   -22277.589    111.65505   -22389.244    6842.9744 
  135400    306.36596   -22276.222      116.892   -22393.114   -9352.6027 
  135600    293.73991   -22285.995    112.07461   -22398.069    -32169.06 
  135800    345.69987   -22273.548     131.8996   -22405.448    671.21453 
  136000    286.59492    -22303.23    109.34848   -22412.579   -20520.198 
  136200    321.61965   -22284.243    122.71195   -22406.955    -24538.77 
  136400     322.2758   -22252.639     122.9623   -22375.601   -1510.4927 
  136600    335.24398   -22266.678    127.91022   -22394.589    12589.737 
  136800    301.56391   -22296.168    115.05981   -22411.228    9192.2234 
  137000    288.52706   -22288.267    110.08568   -22398.353    1302.2851 
  137200    330.83422   -22263.594    126.22771   -22389.821    11977.684 
  137400    301.20644   -22298.381    114.92342   -22413.304   -17754.003 
  137600    304.69698   -22282.696    116.25521   -22398.951   -18230.115 
  137800    300.88794   -22272.328    114.80189    -22387.13   -25278.119 
  138000    256.17288    -22303.41    97.741143   -22401.151    5947.9604 
  138200    306.10288   -22282.286    116.79162   -22399.077     7466.183 
  138400    327.66346   -22277.124    125.01793   -22402.142   -5810.7434 
  138600    285.27764   -22307.313    108.84588   -22416.159    10293.358 
  138800    314.26042   -22284.485    119.90408   -22404.389   -32137.663 
  139000     305.2244   -22286.735    116.45644   -22403.192    17532.568 
  139200    290.88185   -22306.293    110.98413   -22417.277    21598.289 
  139400    310.72446   -22301.041    118.55496   -22419.596   -12575.949 
  139600    296.10045   -22279.371    112.97526   -22392.346    -2960.209 
  139800    260.92674   -22303.307    99.554949   -22402.862    2681.0546 
  140000    286.28058   -22289.668    109.22855   -22398.897    6198.8588 
  140200    323.65347   -22281.618    123.48794   -22405.106    6407.9439 
  140400    259.99089   -22300.772    99.197883    -22399.97   -9161.3592 
  140600    358.61175   -22273.273    136.82605   -22410.099   -7286.8063 
  140800    292.14503   -22286.823    111.46609   -22398.289    560.82757 
  141000    296.90634   -22293.698    113.28274   -22406.981    5482.1327 
  141200    294.86906   -22281.678    112.50543   -22394.183    6570.5293 
  141400    319.04146   -22274.525    121.72826   -22396.253    10776.422 
  141600    281.48494   -22301.922     107.3988    -22409.32     46602.38 
  141800    299.61238   -22289.373    114.31521   -22403.688    601.22329 
  142000    292.60515   -22289.567    111.64165   -22401.209    1069.9614 
  142200    333.32432   -22287.311    127.17779   -22414.489   -563.29929 
  142400    345.78764   -22263.886    131.93309   -22395.819    11644.858 
  142600    292.09024   -22290.606    111.44519   -22402.051    -776.5833 
  142800    291.75367   -22287.625    111.31677   -22398.942   -14809.774 
  143000    324.02806   -22260.331    123.63086   -22383.962   -13242.945 
  143200    287.40585   -22282.246    109.65789   -22391.904   -11989.144 
  143400    264.38966   -22296.167    100.87621   -22397.043   -1248.8868 
  143600    348.00083    -22267.35    132.77752   -22400.128   -7736.0086 
  143800    299.23172    -22295.24    114.16997    -22409.41    9997.7088 
  144000    299.52065   -22288.964    114.28021   -22403.245   -4819.9775 
  144200    308.63742   -22280.117    117.75866   -22397.875    7994.0135 
  144400     270.2888   -22306.563    103.12698    -22409.69    11632.888 
  144600    317.59901   -22283.862     121.1779    -22405.04    5600.6476 
  144800    300.85162   -22288.759    114.78804   -22403.547    14090.678 
  145000    265.57649   -22320.525    101.32903   -22421.854   -24869.677 
  145200    298.39855   -22296.199    113.85208   -22410.051   -9275.1193 
  145400    315.48108   -22278.179    120.36982   -22398.549    6935.2291 
  145600     309.6109   -22275.805    118.13008   -22393.935   -12995.459 
  145800    319.34274   -22302.637    121.84321   -22424.481   -5070.5572 
  146000    288.90684   -22280.492    110.23058   -22390.723   -1911.7282 
  146200    312.50508   -22283.626    119.23434   -22402.861    9317.1877 
  146400    310.95118   -22298.705    118.64146   -22417.347    23547.692 
  146600    288.18711   -22289.109    109.95597   -22399.065   -13353.569 
  146800    288.58759   -22278.746    110.10877   -22388.855    13277.938 
  147000     308.2036   -22289.742    117.59314   -22407.335    10443.968 
  147200    269.16279   -22302.751    102.69736   -22405.448   -6804.8424 
  147400    307.96694   -22287.128    117.50284   -22404.631   -18664.761 
  147600    295.48993   -22285.988    112.74232    -22398.73     15209.43 
  147800    365.59487   -22266.695    139.49042   -22406.185    9017.0877 
  148000    279.18354   -22287.164    106.52072   -22393.685    -2527.597 
  148200    279.19189   -22290.542     106.5239   -22397.066     8005.747 
  148400    294.88678   -22270.576    112.51219   -22383.088   -20841.997 
  148600    281.35784   -22303.338    107.35031   -22410.688   -3243.4586 
  148800    300.43346   -22281.844    114.62849   -22396.472   -37840.636 
  149000    302.81639   -22280.819    115.53768   -22396.357   -7449.9031 
  149200    291.93705   -22306.382    111.38674   -22417.769   -5089.5361 
  149400    318.38609   -22269.366     121.4782   -22390.844   -9439.6663 
  149600    304.85695   -22292.316    116.31624   -22408.633   -18613.885 
  149800    326.84169    -22289.78    124.70438   -22414.484    30594.237 
  150000    319.38302   -22267.601    121.85858    -22389.46   -2119.9202 
  150200     282.2747   -22302.185    107.70013   -22409.885   -1934.4203 
  150400    321.97203   -22283.842     122.8464   -22406.689    -35923.09 
  150600    301.23564   -22288.309    114.93456   -22403.244    15308.469 
  150800    285.88898    -22301.03    109.07913   -22410.109    -1588.851 
  151000    313.75179   -22281.785    119.71002   -22401.495   -12187.252 
  151200    266.88408   -22291.228    101.82794   -22393.056    26845.583 
  151400    289.77894   -22293.651    110.56333   -22404.214    10649.353 
  151600    297.56437   -22278.033    113.53381   -22391.567   -10511.325 
  151800    276.92519   -22304.802    105.65906   -22410.461   -20064.918 
  152000    292.40249   -22288.758    111.56432   -22400.323    5870.3521 
  152200    269.45657   -22293.716    102.80945   -22396.526    2452.7727 
  152400    289.77259   -22297.389     110.5609    -22407.95    2067.0501 
  152600    335.97588   -22270.183    128.18947   -22398.373   -14647.717 
  152800    301.15565   -22295.673    114.90404   -22410.577    4051.6306 
  153000    292.56825   -22287.662    111.62757   -22399.289    987.83157 
  153200    323.00039   -22273.573    123.23876   -22396.812   -2495.5485 
  153400    289.84397   -22276.515    110.58814   -22387.103   -10202.673 
  153600    293.79033   -22298.864    112.09385   -22410.958   -3934.2329 
  153800    299.58452   -22273.516    114.30458    -22387.82    11774.296 
  154000    320.36445   -22275.215    122.23303   -22397.448    32528.149 
  154200    272.56782    -22294.95    103.99653   -22398.947     9516.307 
  154400    289.60368   -22285.458    110.49646   -22395.955    11278.285 
  154600    327.05326   -22272.181    124.78511   -22396.966    6220.4059 
  154800     274.7319    -22299.83    104.82222   -22404.652   -10417.598 
  155000    275.85018   -22292.738    105.24889   -22397.987    11944.065 
  155200    334.18932   -22276.541    127.50783   -22404.048   -33556.661 
  155400    277.28655   -22296.019    105.79693   -22401.816   -9971.9216 
  155600    297.95327   -22284.884    113.68219   -22398.566   -11103.891 
  155800    320.33191   -22270.232    122.22062   -22392.453    3344.8564 
  156000    293.97607   -22292.093    112.16471   -22404.257    22043.709 
  156200    297.73427   -22283.028    113.59863   -22396.627   -13395.725 
  156400    290.11482   -22270.427    110.69148   -22381.118   -5510.8609 
  156600    315.53821   -22287.426    120.39161   -22407.817   -4010.9342 
  156800    310.10251   -22286.961    118.31765   -22405.279   -14092.535 
  157000    330.13987   -22274.061    125.96278   -22400.024    13497.998 
  157200    302.08641    -22284.33    115.25916   -22399.589    7284.2961 
  157400     253.0938   -22303.296    96.566343   -22399.863   -3530.7362 
  157600     321.5525   -22290.955    122.68633   -22413.641    25591.267 
  157800    301.05287   -22285.354    114.86482   -22400.219   -899.64889 
  158000    296.53185   -22288.319    113.13985   -22401.459   -22041.924 
  158200    281.05316   -22296.001    107.23406   -22403.235    7266.1192 
  158400    324.51373   -22274.071    123.81617   -22397.888     2258.167 
  158600    289.72018   -22286.346    110.54091   -22396.887    5067.5416 
  158800    299.20714   -22295.886     114.1606   -22410.047    19431.226 
  159000    307.91778   -22278.098    117.48408   -22395.582    9515.1229 
  159200     289.8178   -22282.602    110.57815    -22393.18    8822.9284 
  159400    312.00898   -22283.667    119.04506   -22402.712   -5459.7077 
  159600    280.80755   -22291.717    107.14035   -22398.857    1845.5161 
  159800    295.84242   -22305.726    112.87681   -22418.603   -7597.0009 
  160000    318.30742    -22284.47    121.44818   -22405.918   -13210.469 
  160200    291.77594   -22288.489    111.32527   -22399.814   -6159.7913 
  160400    254.52369   -22314.166    97.111908   -22411.278    17504.236 
  160600    307.72069   -22295.113    117.40889   -22412.522   -2389.0595 
  160800    319.71049   -22280.411    121.98352   -22402.395   -15696.047 
  161000    271.23309   -22294.033    103.48727   -22397.521    14375.686 
  161200    293.85282   -22305.016    112.11769   -22417.134    9184.7251 
  161400    317.68661   -22275.063    121.21132   -22396.274   -8950.3849 
  161600     285.8117   -22282.121    109.04965   -22391.171    2405.7023 
  161800    305.49243   -22313.246    116.55871   -22429.805   -8509.7934 
  162000    296.55698   -22302.412    113.14944   -22415.561   -9149.4888 
  162200    318.20711   -22286.966    121.40992   -22408.376   -11234.996 
  162400    308.48413   -22281.201    117.70017   -22398.901   -7275.2358 
  162600    276.41933   -22307.158    105.46605   -22412.624    2833.5778 
  162800    292.34442   -22284.212    111.54217   -22395.754   -6588.6509 
  163000    341.48547   -22283.401    130.29162   -22413.693    6848.9665 
  163200    271.53444    -22302.03    103.60225   -22405.633   -7422.2802 
  163400    285.97507   -22303.087    109.11198   -22412.199    7878.5437 
  163600    305.48794   -22284.049    116.55699   -22400.606    15693.337 
  163800    314.65981   -22271.066    120.05647   -22391.123   -14579.216 
  164000     305.1031   -22294.233    116.41016   -22410.644    -10920.95 
  164200    278.27997   -22292.425    106.17596   -22398.601   -27087.428 
  164400    321.17769   -22273.846    122.54332    -22396.39   -16645.279 
  164600     299.2649   -22293.506    114.18263   -22407.689   -5803.4372 
  164800    282.22211   -22297.431    107.68006   -22405.111    2660.1578 
  165000    324.21888   -22284.014    123.70367   -22407.717   -2086.0888 
  165200    271.48985   -22298.924    103.58524   -22402.509     14167.76 
  165400     294.1029   -22305.313     112.2131   -22417.526   -7264.1032 
  165600    311.12789   -22288.159    118.70888   -22406.868    2964.8054 
  165800    306.98869   -22295.753     117.1296   -22412.883    1390.4803 
  166000     275.8804   -22317.942    105.26043   -22423.202    6534.4802 
  166200    300.47726   -22290.152     114.6452   -22404.798    30687.747 
  166400    303.52922   -22288.477    115.80966   -22404.287    7854.7536 
  166600    255.64074   -22311.956    97.538109   -22409.494    4271.6315 
  166800    327.98492   -22282.718    125.14058   -22407.859   -14649.328 
  167000     288.5703   -22296.714    110.10217   -22406.816   -9309.5145 
  167200    295.67411   -22296.927    112.81259   -22409.739    2458.1242 
  167400    335.09997   -22273.955    127.85528    -22401.81    7821.7077 
  167600    275.45548   -22297.831     105.0983   -22402.929   -27166.948 
  167800    291.47134   -22289.851    111.20905    -22401.06   -12429.404 
  168000    313.65007   -22290.662     119.6712   -22410.333    10003.255 
  168200    277.48965   -22302.534    105.87442   -22408.409   -12087.029 
  168400    326.94385   -22280.368    124.74336   -22405.112    18871.412 
  168600    309.58061    -22282.09    118.11853   -22400.208    23211.065 
  168800     279.5643    -22299.63    106.66599   -22406.296   -10475.214 
  169000    295.54727   -22285.546    112.76419   -22398.311   -16623.548 
  169200    307.99807    -22284.89    117.51472   -22402.405    4597.8636 
  169400    261.18625    -22306.22    99.653966   -22405.874    14501.836 
  169600    320.86936   -22284.122    122.42568   -22406.547    17525.445 
  169800    304.94095   -22291.406    116.34829   -22407.754    9869.0076 
  170000    294.74524   -22293.168    112.45819   -22405.626    884.14864 
  170200    330.10406   -22280.305    125.94912   -22406.254    24766.738 
  170400    298.80764   -22308.346    114.00817   -22422.354    3825.9523 
  170600    299.36952   -22292.402    114.22255   -22406.624   -15878.393 
  170800    296.60801   -22292.944    113.16891   -22406.113   -7408.3809 
  171000    277.95949   -22301.785    106.05369   -22407.839   -201.90811 
  171200    343.96378   -22273.254    131.23721   -22404.491    1066.4945 
  171400    294.10228   -22298.781    112.21287   -22410.994        26422 
  171600    299.88093   -22293.081    114.41768   -22407.499   -15965.496 
  171800    320.21427    -22284.91    122.17573   -22407.086    8005.3701 
  172000    328.81275   -22293.592    125.45643   -22419.048    2796.1283 
  172200    251.81919   -22319.695    96.080021   -22415.775    3834.0217 
  172400    325.18512   -22290.958    124.07233    -22415.03   -6334.3014 
  172600    288.43772   -22289.235    110.05159   -22399.287    3516.9082 
  172800    308.13803   -22296.061    117.56812   -22413.629   -5916.9791 
  173000    301.06993   -22288.874    114.87133   -22403.745    6140.6323 
  173200    330.60695   -22273.455      126.141   -22399.596   -13251.813 
  173400    291.50205   -22298.639    111.22077    -22409.86     18105.53 
  173600    311.60823    -22282.83    118.89215   -22401.722   -20960.302 
  173800    298.74647   -22285.286    113.98483   -22399.271   -98.109221 
  174000    266.61434   -22301.959    101.72502   -22403.684    8818.4671 
  174200    336.54746   -22275.781    128.40756   -22404.189    6838.3678 
  174400    282.00186   -22289.595    107.59603   -22397.191    13204.238 
  174600    307.11954   -22305.287    117.17952   -22422.467    7578.9324 
  174800    279.23992   -22283.722    106.54223   -22390.265    5286.2003 
  175000    277.34788   -22282.748    105.82033   -22388.568   -11327.688 
  175200    278.04101   -22311.595    106.08479    -22417.68    953.20582 
  175400    270.42362    -22314.52    103.17843   -22417.699    2865.4286 
  175600    310.66238   -22292.073    118.53127   -22410.604   -24548.652 
  175800    302.60925   -22281.453    115.45865   -22396.912    452.11972 
  176000    297.15246   -22305.332    113.37664   -22418.708    7536.5358 
  176200    318.29252   -22293.739     121.4425   -22415.182   -11564.418 
  176400    295.89269   -22280.596    112.89599   -22393.492   -15863.256 
  176600    308.89106   -22292.812    117.85543   -22410.667    234.38697 
  176800    304.38616   -22295.924    116.13662   -22412.061    4040.0261 
  177000    256.28682   -22288.471    97.784617   -22386.255   -14499.767 
  177200    277.50723   -22286.047    105.88113   -22391.928   -11422.159 
  177400     272.0279   -22312.498    103.79053   -22416.289   -9313.1211 
  177600    282.20184   -22286.364    107.67233   -22394.037    -10591.93 
  177800    327.66416   -22288.288    125.01819   -22413.306    16982.771 
  178000    281.73871   -22295.123    107.49563   -22402.618    25982.688 
  178200    317.42525   -22275.386     121.1116   -22396.497    17893.162 
  178400    311.68848   -22292.732    118.92277   -22411.655    18298.737 
  178600    282.88013   -22296.722    107.93113   -22404.653   -7827.9663 
  178800    328.42803   -22278.628    125.30964   -22403.937    2932.0646 
  179000    309.89468   -22282.652    118.23836    -22400.89    3596.8293 
  179200    281.06632    -22284.15    107.23908   -22391.389    18197.375 
[...]
  950000    296.34458   -22354.186     113.0684   -22467.254    -4690.145 
  950200     327.2178   -22342.008    124.84789   -22466.855    5204.1928 
  950400    300.93273     -22353.4    114.81898   -22468.219    1205.5256 
  950600    263.29282    -22359.98    100.45771   -22460.438   -6727.5253 
  950800    327.99423   -22335.483    125.14413   -22460.627   -15978.503 
  951000    291.10579   -22361.807    111.06958   -22472.876   -5981.9788 
  951200    307.25964   -22356.318    117.23298   -22473.551   -7632.7378 
  951400    336.23376   -22340.281    128.28787   -22468.569   -20400.355 
  951600    310.22812    -22334.75    118.36558   -22453.115      -1145.2 
  951800    272.06866   -22358.942    103.80608   -22462.749   -10700.723 
  952000      289.024   -22339.396    110.27528   -22449.671   -441.00931 
  952200     318.0825   -22338.156    121.36237   -22459.519    12100.208 
  952400    302.40717   -22354.184    115.38155   -22469.565    4973.7125 
  952600     308.7547    -22353.71    117.80341   -22471.514    38000.961 
  952800    333.56201    -22334.19    127.26848   -22461.458   -7901.0505 
  953000    283.22485   -22359.318    108.06265   -22467.381    14078.387 
  953200    330.70818   -22347.827    126.17962   -22474.007   -12700.492 
  953400    345.39064   -22324.132    131.78162   -22455.914   -2018.2529 
  953600    292.22172   -22342.081    111.49535   -22453.576    1720.3872 
  953800    274.98632   -22356.134    104.91929   -22461.053    106.50424 
  954000    321.04139   -22332.829    122.49132    -22455.32    27687.884 
  954200    302.62857   -22344.804    115.46602    -22460.27   -7200.0718 
  954400    316.80024   -22351.715    120.87313   -22472.588    28339.246 
  954600    299.63129   -22334.881    114.32243   -22449.204   -20853.622 
  954800    309.59394   -22341.569    118.12361   -22459.692   -22552.098 
  955000    281.03602    -22365.53    107.22752   -22472.758     25525.82 
  955200    285.63894    -22340.63    108.98373   -22449.614   -12286.203 
  955400    313.64254    -22341.43    119.66833   -22461.098    -10321.42 
  955600    306.10825   -22355.911    116.79367   -22472.705   -6896.9331 
  955800     269.0275    -22375.12    102.64574   -22477.766   -12478.421 
  956000    292.71144   -22343.783     111.6822   -22455.465   -36049.574 
  956200    320.20851   -22341.119    122.17354   -22463.293   -21085.858 
  956400    261.30333   -22367.336    99.698637   -22467.035   -15487.528 
  956600    293.83664   -22352.951    112.11151   -22465.062    -1835.916 
  956800    325.13896   -22345.209    124.05472   -22469.263   -9736.8668 
  957000    321.23318   -22334.398    122.56449   -22456.963    3423.7264 
  957200     310.9676   -22353.894    118.64772   -22472.541   -16957.828 
  957400    295.81931   -22352.971    112.86799   -22465.839    10615.168 
  957600    314.24146   -22334.884    119.89684   -22454.781   -9358.5689 
  957800    295.40914   -22354.682    112.71149   -22467.393     -3860.69 
  958000    324.02997    -22352.58    123.63159   -22476.211    6473.3458 
  958200    326.95273   -22330.194    124.74675   -22454.941    26828.781 
  958400    299.70809   -22358.182    114.35173   -22472.534    10887.393 
  958600    316.52945   -22351.687    120.76981   -22472.457   -4341.7797 
  958800    337.37203    -22328.79    128.72217   -22457.512    1441.8805 
  959000    298.75463   -22353.069    113.98794   -22467.057   -13844.144 
  959200    288.56607   -22353.402    110.10056   -22463.502   -4862.3495 
  959400    358.89445   -22329.286    136.93391    -22466.22    18062.154 
  959600    290.15428   -22359.788    110.70653   -22470.494   -2119.2625 
  959800    296.96381   -22352.433    113.30467   -22465.738    3958.7203 
  960000    358.11636    -22327.88    136.63704   -22464.517    2657.4525 
  960200    330.10938   -22329.745    125.95115   -22455.696    20170.536 
  960400    302.63518   -22350.125    115.46854   -22465.593    -1492.242 
  960600    287.71753   -22355.339    109.77681   -22465.116   -3609.6788 
  960800    322.37806    -22339.53    123.00131   -22462.532   -4125.1441 
  961000    278.84967   -22342.193    106.39333   -22448.587   -15276.482 
  961200    261.33245   -22361.383    99.709746   -22461.092    12864.978 
  961400    352.85726   -22339.366    134.63046   -22473.996   -4695.9933 
  961600    292.54309   -22344.455    111.61797   -22456.073   -29922.374 
  961800    336.37616   -22345.048     128.3422    -22473.39   -19175.558 
  962000    279.43085   -22369.072    106.61508   -22475.687    9205.5774 
  962200    289.43422   -22357.017     110.4318   -22467.449    9698.8851 
  962400    320.06008    -22341.84     122.1169   -22463.957   -18977.255 
  962600    278.33743   -22356.409    106.19789   -22462.607    7487.6271 
  962800    292.06476   -22363.312    111.43546   -22474.747    16877.363 
  963000    336.54087   -22336.114    128.40504   -22464.519   -17338.514 
  963200    288.56432   -22358.343    110.09989   -22468.443   -8014.3262 
  963400    275.51772   -22355.755    105.12205   -22460.877    5258.4948 
  963600    332.83099   -22334.928    126.98956   -22461.918    1973.8691 
  963800    291.36852   -22359.532    111.16982   -22470.702   -2377.6178 
  964000     278.8473   -22340.942    106.39243   -22447.334   -12366.589 
  964200    337.68567   -22341.894    128.84184   -22470.736   -22616.955 
  964400    273.57234   -22358.997     104.3798   -22463.377   -2670.4271 
  964600    287.48183   -22338.419    109.68688   -22448.106    12571.969 
  964800    274.71976   -22365.404    104.81759   -22470.221   -10569.259 
  965000     303.0681   -22359.332    115.63372   -22474.966   -29979.101 
  965200    272.90661   -22344.189    104.12579   -22448.315      24966.1 
  965400    291.88399   -22355.065    111.36649   -22466.431   -6929.4068 
  965600    298.92549   -22364.545    114.05313   -22478.598    11319.386 
  965800    293.04378   -22341.186      111.809   -22452.995    -1457.689 
  966000    301.88637   -22350.177    115.18284    -22465.36    11348.405 
  966200    236.51238    -22385.27    90.239804    -22475.51   -13416.159 
  966400    253.47146   -22369.629    96.710436    -22466.34    7454.6316 
  966600    328.38846   -22341.874    125.29454   -22467.168   -3944.7844 
  966800    308.49696   -22343.955    117.70507   -22461.661   -17549.163 
  967000    275.22281   -22360.107    105.00953   -22465.117   -8347.8179 
  967200    307.70427   -22328.837    117.40262    -22446.24   -4473.1493 
  967400    312.08508   -22344.368    119.07409   -22463.442   -4923.6008 
  967600    275.12912   -22357.689    104.97378   -22462.663    16652.749 
  967800    291.45294   -22352.003    111.20203   -22463.205   -18924.807 
  968000    295.16355   -22346.321    112.61779   -22458.939   -13564.626 
  968200     331.4946   -22327.525    126.47967   -22454.004   -15612.173 
  968400    278.18659   -22357.372    106.14034   -22463.512   -22002.538 
  968600     297.6581   -22346.339    113.56957   -22459.909   -7887.3303 
  968800    303.56021   -22324.287    115.82148   -22440.108   -106.40467 
  969000    302.20915   -22349.822    115.30599   -22465.128   -39642.244 
  969200    287.15517   -22358.623    109.56224   -22468.186    6171.3621 
  969400     324.2468   -22332.018    123.71432   -22455.733   -11797.405 
  969600     316.9121   -22352.345    120.91581    -22473.26   -2499.6082 
  969800    307.29826   -22356.318    117.24771   -22473.566    -6332.191 
  970000    312.69676   -22340.291    119.30747   -22459.599   -4602.3151 
  970200    322.08458   -22323.058    122.88934   -22445.948   -20425.778 
  970400    324.14692   -22353.996    123.67621   -22477.672   -5094.9301 
  970600    290.34591   -22351.407    110.77965   -22462.186   -23393.161 
  970800    328.76191   -22329.603    125.43703    -22455.04   -22923.508 
  971000    306.75154   -22351.924    117.03911   -22468.963   -19897.055 
  971200    269.76563   -22346.849    102.92737   -22449.776     49415.74 
  971400    346.32058   -22321.311    132.13643   -22453.448   -25863.078 
  971600    299.67086   -22352.403    114.33753    -22466.74     4023.998 
  971800    275.96717   -22354.375    105.29353   -22459.668    8749.5458 
  972000    319.78251   -22333.358      122.011   -22455.369   -16586.575 
  972200    290.17662   -22364.813    110.71506   -22475.528    -12345.21 
  972400    321.61094   -22345.305    122.70862   -22468.014    31537.617 
  972600     301.5788   -22340.507    115.06549   -22455.573   -17557.388 
  972800    266.23269    -22371.68     101.5794   -22473.259    16180.448 
  973000    285.74017   -22352.258    109.02236   -22461.281   -1662.3677 
  973200     322.2746   -22344.043    122.96184   -22467.004   -16829.559 
  973400    306.76266   -22356.091    117.04336   -22473.134   -2837.9201 
  973600    300.44993   -22363.986    114.63478   -22478.621    11841.494 
  973800    329.23134   -22336.482    125.61614   -22462.098   -13850.338 
  974000    286.89525   -22362.094    109.46307   -22471.557    11258.255 
  974200    306.52622   -22352.791    116.95315   -22469.744   -3503.1937 
  974400    326.28374   -22340.221     124.4915   -22464.712   -32001.444 
  974600    304.78543   -22352.261    116.28896    -22468.55   -32021.814 
  974800    277.31894   -22359.756    105.80929   -22465.565    17200.207 
  975000    317.18547   -22336.061    121.02011   -22457.081    5218.6573 
  975200    281.73495   -22365.656    107.49419    -22473.15    4046.4992 
  975400    269.55195   -22360.982    102.84584   -22463.827   -22642.894 
  975600    327.25895   -22343.155    124.86359   -22468.019   -3922.3725 
  975800    308.19446   -22350.098    117.58965   -22467.688    9863.7298 
  976000    262.53616   -22367.481    100.16902    -22467.65    -25257.01 
  976200    333.97888   -22343.724    127.42753   -22471.152    -25195.17 
  976400    296.21492   -22343.058    113.01893   -22456.077     11127.37 
  976600    282.53826   -22360.354    107.80069   -22468.154   -14329.846 
  976800    284.60676    -22348.26    108.58991    -22456.85    20970.663 
  977000    331.19527   -22337.933    126.36546   -22464.298    7549.6452 
  977200    283.21809   -22357.443    108.06008   -22465.503   -15177.475 
  977400    324.92833   -22346.366    123.97435   -22470.341    21629.304 
  977600    309.95316    -22334.85    118.26067   -22453.111   -3164.0383 
  977800     299.8822    -22356.78    114.41816   -22471.198   -25740.337 
  978000    276.00473   -22351.701    105.30786   -22457.009   -5726.3203 
  978200    301.19801   -22346.986     114.9202   -22461.906   -11321.479 
  978400    333.03628   -22321.635    127.06789   -22448.703   -420.45672 
  978600    302.75205   -22345.801    115.51313   -22461.314    5152.2599 
  978800    282.98687   -22348.375    107.97186   -22456.347   -13029.253 
  979000    327.03724   -22328.345    124.77899   -22453.124    25799.923 
  979200    299.53355   -22355.148    114.28513   -22469.433    -14585.29 
  979400    317.54092   -22356.373    121.15573   -22477.529    261.81327 
  979600    335.99421   -22328.872    128.19647   -22457.068   -11543.122 
  979800    284.31934   -22350.303    108.48025   -22458.784   -9435.8392 
  980000    291.07327   -22351.736    111.05717   -22462.793   -5237.8346 
  980200    341.78421   -22330.387    130.40561   -22460.793    -7064.165 
  980400    285.63372   -22354.473    108.98174   -22463.455   -10603.571 
  980600    297.02014   -22356.936    113.32616   -22470.262   -1869.8291 
  980800    331.54543   -22328.638    126.49907   -22455.137    6878.4484 
  981000    312.70268   -22355.409    119.30973   -22474.719    38288.994 
  981200    292.61773   -22354.191    111.64645   -22465.837    17262.284 
  981400     296.0881    -22333.14    112.97054   -22446.111   -25743.298 
  981600    302.14858     -22350.8    115.28288   -22466.082   -527.25727 
  981800    318.34535   -22348.871    121.46266   -22470.333    22306.283 
  982000    295.29552   -22347.842    112.66814    -22460.51   -4381.3061 
  982200    299.71588   -22354.769     114.3547   -22469.123     -21644.2 
  982400    283.03929   -22341.349    107.99186   -22449.341    8842.3122 
  982600    350.93615   -22329.925    133.89747   -22463.823    9574.3985 
  982800    269.95726   -22355.001    103.00049   -22458.001   -19439.211 
  983000    304.59851   -22335.681    116.21764   -22451.899    19785.661 
  983200    316.48029   -22320.171    120.75106   -22440.922   -24960.198 
  983400    308.44387   -22350.728    117.68481   -22468.413    18155.658 
  983600    305.14437   -22359.225    116.42591   -22475.651    15231.323 
  983800     317.1987   -22329.783    121.02516   -22450.808   -190.79636 
  984000    291.51894   -22348.734    111.22721   -22459.962   -33315.454 
  984200    288.99195   -22354.926    110.26305   -22465.189   -4050.7689 
  984400    302.80088   -22337.563    115.53176   -22453.095    16388.757 
  984600    325.18954   -22335.673    124.07402   -22459.747   -20362.743 
  984800     298.4129   -22363.417    113.85756   -22477.274    -17117.72 
  985000    308.86493     -22356.1    117.84546   -22473.945   -13838.412 
  985200    327.03521   -22333.964    124.77822   -22458.742   -16502.002 
  985400    307.61796   -22355.168    117.36969   -22472.538    23787.757 
  985600    311.37571    -22349.58    118.80344   -22468.383    6983.9513 
  985800    343.65309   -22314.663    131.11867   -22445.782    23729.168 
  986000     307.1943   -22338.117    117.20805   -22455.325    25744.999 
  986200    273.75392   -22355.788    104.44908   -22460.237   -16167.104 
  986400    316.90464   -22341.875    120.91296   -22462.788   -1699.4548 
  986600    337.87856   -22335.765    128.91543    -22464.68   -11348.546 
  986800    286.88909   -22358.492    109.46072   -22467.952    7561.1877 
  987000    328.92491   -22336.935    125.49922   -22462.434    10325.145 
  987200    272.06469   -22360.391    103.80456   -22464.195   -18934.018 
  987400    322.06914   -22356.487    122.88345   -22479.371   -303.40601 
  987600    293.18632   -22346.824    111.86339   -22458.687   -8869.4672 
  987800    292.40386   -22343.948    111.56485   -22455.513    -30547.56 
  988000    301.57385   -22345.318     115.0636   -22460.382    2189.2788 
  988200    308.73081   -22355.336    117.79429    -22473.13   -7610.3408 
  988400    302.68638   -22339.282    115.48808    -22454.77    5301.2558 
  988600    323.74769   -22333.544    123.52389   -22457.068   -7482.4925 
  988800    302.03915   -22352.767    115.24113   -22468.008   -10129.837 
  989000    301.71027   -22342.811    115.11565   -22457.926    18366.534 
  989200    321.97371   -22335.318    122.84704   -22458.165    21951.864 
  989400     273.3994   -22363.047    104.31382   -22467.361    5705.7423 
  989600    321.43921   -22341.147     122.6431    -22463.79    6415.6795 
  989800    283.11767   -22344.351    108.02176   -22452.372   -1514.0546 
  990000    277.60016   -22358.282    105.91659   -22464.198    14822.361 
  990200    312.05324   -22325.596    119.06194   -22444.658    7764.4875 
  990400    317.60138   -22350.231     121.1788    -22471.41   -21273.003 
  990600    298.69844   -22357.665     113.9665   -22471.631   -7266.6189 
  990800    286.10248   -22344.343    109.16059   -22453.504   -13987.459 
  991000    319.42371   -22350.297     121.8741   -22472.171   -13346.388 
  991200    259.35728   -22364.189    98.956134   -22463.145    23495.458 
  991400    302.23596   -22349.488    115.31622   -22464.805    2139.5391 
  991600    285.79564   -22346.489    109.04352   -22455.532    16875.663 
  991800    281.81383    -22353.49    107.52429   -22461.015   -14025.483 
  992000    291.95168   -22363.941    111.39232   -22475.333   -2069.0999 
  992200    310.08498   -22340.493    118.31097   -22458.803    16216.462 
  992400    302.23781   -22344.261    115.31693   -22459.577    717.64099 
  992600     250.9451   -22378.806    95.746519   -22474.552    2050.8806 
  992800     283.5903   -22369.329    108.20209   -22477.531    14772.103 
  993000    309.04638   -22343.502     117.9147   -22461.417    18538.127 
  993200    283.97306   -22354.085    108.34813   -22462.433    9439.7077 
  993400     289.3365   -22367.932    110.39451   -22478.326    4826.9543 
  993600    335.63901   -22344.317    128.06095   -22472.378    4644.6079 
  993800    289.38764   -22356.535    110.41403   -22466.949   -1296.8186 
  994000    320.01527   -22345.348     122.0998   -22467.448    -17086.36 
  994200    319.38839    -22330.81    121.86062   -22452.671   -16078.147 
  994400    281.56714   -22350.347    107.43016   -22457.778    3621.5367 
  994600    313.24464   -22344.154    119.51652    -22463.67   -1509.7065 
  994800    284.02557   -22358.194    108.36816   -22466.562    463.07591 
  995000    255.16823   -22366.547    97.357829   -22463.905    4064.4474 
  995200    313.93705    -22347.91     119.7807   -22467.691   -22691.282 
  995400    313.40593   -22353.619    119.57805   -22473.197    9612.0893 
  995600    292.83105   -22369.252    111.72784    -22480.98     16968.51 
  995800    290.65981   -22355.813    110.89941   -22466.712    5946.9586 
  996000    286.67879    -22342.71    109.38048    -22452.09     10733.13 
  996200    267.48334    -22367.07    102.05658   -22469.127   -723.44021 
  996400    293.55061   -22361.381    112.00238   -22473.383    8635.4766 
  996600    322.66475   -22333.116     123.1107   -22456.227   -5972.1038 
  996800    309.94525   -22344.122    118.25765    -22462.38   -16248.933 
  997000    273.89886   -22352.495    104.50438   -22456.999   -836.26956 
  997200    290.80856   -22344.308    110.95617   -22455.264   -20316.444 
  997400    282.42398   -22343.498    107.75708   -22451.255    28530.343 
  997600     290.8696   -22368.553    110.97946   -22479.532   -25734.947 
  997800    316.39494   -22345.515    120.71849   -22466.233   -15071.985 
  998000    269.43807   -22353.432    102.80239   -22456.234   -8907.8967 
  998200    294.96107   -22356.586    112.54053   -22469.127   -6852.5345 
  998400    301.62656    -22332.55    115.08371   -22447.634    2692.9809 
  998600    297.40616   -22358.978    113.47344   -22472.452   -13877.734 
  998800    301.84314   -22353.853    115.16634   -22469.019   -25406.938 
  999000    316.92173   -22345.915    120.91948   -22466.835    9163.1329 
  999200    300.11442   -22350.076    114.50676   -22464.583    1555.9106 
  999400    249.57477   -22365.937    95.223676   -22461.161   -27514.072 
  999600    324.67702   -22340.547    123.87847   -22464.426    13212.829 
  999800    305.81092   -22351.365    116.68023   -22468.045    9957.7551 
 1000000    258.50266   -22379.706    98.630059   -22478.336    14050.607 
Loop time of 14783.4 on 8 procs for 1000000 steps with 129 atoms

Performance: 1.461 ns/day, 16.426 hours/ns, 67.643 timesteps/s
99.6% CPU use with 8 MPI tasks x no OpenMP threads

MPI task timing breakdown:
Section |  min time  |  avg time  |  max time  |%varavg| %total
---------------------------------------------------------------
Pair    | 10871      | 11804      | 12619      | 529.9 | 79.85
Neigh   | 1.8506     | 1.8855     | 1.9243     |   2.0 |  0.01
Comm    | 172.4      | 984.43     | 1914.3     |1833.6 |  6.66
Output  | 0.49637    | 0.52662    | 0.69699    |   8.9 |  0.00
Modify  | 1967.1     | 1970.5     | 1973.8     |   6.3 | 13.33
Other   |            | 21.88      |            |       |  0.15

Nlocal:    16.125 ave 32 max 1 min
Histogram: 2 0 0 0 2 2 0 0 1 1
Nghost:    571.125 ave 592 max 559 min
Histogram: 2 2 0 0 1 1 1 0 0 1
Neighs:    1021.38 ave 1877 max 77 min
Histogram: 2 0 0 0 1 2 1 0 0 2

Total # of neighbors = 8171
Ave neighs/atom = 63.3411
Neighbor list builds = 830
Dangerous builds = 0

Please see the log.cite file for references relevant to this simulation

Total wall time: 4:07:06
