ITEM: TIMESTEP
0
ITEM: NUMBER OF ATOMS
74
ITEM: BOX BOUNDS pp pp pp
0.0000000000000000e+00 1.3600000000000000e+01
0.0000000000000000e+00 1.3600000000000000e+01
0.0000000000000000e+00 1.3600000000000000e+01
ITEM: ATOMS id type x y z 
1 1 6.672 0.882 7.682 
2 1 6.673 1.896 8.696 
3 1 6.672 2.763 9.563 
7 1 6.673 5.663 12.463 
8 1 6.672 4.65 11.449 
9 1 6.672 3.783 10.582 
49 1 5.663 6.673 12.463 
50 1 4.65 6.672 11.449 
51 1 3.783 6.672 10.582 
55 1 0.882 6.672 7.682 
56 1 1.896 6.673 8.696 
57 1 2.763 6.672 9.563 
25 1 0.882 7.682 6.672 
26 1 1.896 8.696 6.673 
27 1 2.763 9.563 6.672 
31 1 5.663 12.463 6.673 
32 1 4.65 11.449 6.672 
33 1 3.783 10.582 6.672 
37 1 6.673 12.463 5.663 
38 1 6.672 11.449 4.65 
39 1 6.672 10.582 3.783 
43 1 6.672 7.682 0.882 
44 1 6.673 8.696 1.896 
45 1 6.672 9.563 2.763 
28 1 5.662 7.683 13.473 
29 1 4.649 8.696 13.472 
30 1 3.781 9.563 13.471 
34 1 0.882 12.462 13.473 
35 1 1.896 11.449 13.472 
36 1 2.763 10.582 13.472 
52 1 5.662 13.473 7.683 
53 1 4.649 13.472 8.696 
54 1 3.781 13.472 9.563 
58 1 0.882 13.472 12.462 
59 1 1.896 13.472 11.449 
60 1 2.763 13.472 10.582 
13 1 7.682 6.672 0.882 
14 1 8.696 6.673 1.896 
15 1 9.563 6.672 2.763 
19 1 12.463 6.673 5.663 
20 1 11.449 6.672 4.65 
21 1 10.582 6.672 3.783 
61 1 12.463 5.663 6.673 
62 1 11.449 4.65 6.672 
63 1 10.582 3.783 6.672 
67 1 7.682 0.882 6.672 
68 1 8.696 1.896 6.673 
69 1 9.563 2.763 6.672 
4 1 13.473 5.662 7.683 
5 1 13.472 4.649 8.696 
6 1 13.471 3.781 9.563 
10 1 13.473 0.883 12.462 
11 1 13.473 1.896 11.449 
12 1 13.472 2.763 10.582 
64 1 7.683 5.662 13.473 
65 1 8.696 4.649 13.472 
66 1 9.563 3.781 13.471 
70 1 12.462 0.883 13.473 
71 1 11.449 1.896 13.473 
72 1 10.582 2.763 13.472 
73 2 7.677 0.22 8.328 
74 3 8.653 0.22 8.328 
16 1 7.683 13.473 5.662 
17 1 8.696 13.472 4.649 
18 1 9.563 13.471 3.781 
22 1 12.462 13.473 0.882 
23 1 11.449 13.473 1.896 
24 1 10.582 13.472 2.763 
40 1 13.473 7.683 5.662 
41 1 13.472 8.696 4.649 
42 1 13.471 9.563 3.781 
46 1 13.473 12.462 0.882 
47 1 13.473 11.449 1.896 
48 1 13.472 10.582 2.763 
ITEM: TIMESTEP
10
ITEM: NUMBER OF ATOMS
74
ITEM: BOX BOUNDS pp pp pp
0.0000000000000000e+00 1.3600000000000000e+01
0.0000000000000000e+00 1.3600000000000000e+01
0.0000000000000000e+00 1.3600000000000000e+01
ITEM: ATOMS id type x y z 
1 1 6.61418 0.926446 7.68085 
2 1 6.65187 1.91934 8.69997 
3 1 6.6685 2.77261 9.5633 
7 1 6.67282 5.64689 12.4484 
8 1 6.67147 4.65474 11.4496 
9 1 6.67246 3.77878 10.5812 
49 1 5.63427 6.67707 12.4382 
50 1 4.63642 6.67177 11.435 
51 1 3.76836 6.67206 10.5683 
55 1 0.903644 6.6689 7.70437 
56 1 1.90518 6.67764 8.70597 
57 1 2.77285 6.66954 9.57199 
25 1 0.903081 7.70253 6.67007 
26 1 1.90454 8.70527 6.67785 
27 1 2.77205 9.57105 6.66946 
31 1 5.63039 12.4323 6.67462 
32 1 4.63423 11.4305 6.66973 
33 1 3.76564 10.565 6.67169 
37 1 6.65576 12.4117 5.63232 
38 1 6.67043 11.4355 4.64033 
39 1 6.67184 10.5672 3.7668 
43 1 6.6704 7.70698 0.907947 
44 1 6.67798 8.70542 1.90464 
45 1 6.66944 9.57267 2.77364 
28 1 5.63684 7.71043 13.4758 
29 1 4.64032 8.71203 13.4779 
30 1 3.76758 9.57285 13.4688 
34 1 0.904143 12.4389 13.4713 
35 1 1.90837 11.4429 13.4718 
36 1 2.77052 10.5707 13.4712 
52 1 5.59177 13.4668 7.69565 
53 1 4.62611 13.476 8.70717 
54 1 3.76622 13.4713 9.58285 
58 1 0.90612 13.4724 12.4373 
59 1 1.90885 13.4661 11.443 
60 1 2.77029 13.4741 10.5721 
13 1 7.70634 6.67413 0.911268 
14 1 8.70852 6.67852 1.90781 
15 1 9.5745 6.66919 2.77546 
19 1 12.4395 6.67251 5.64103 
20 1 11.441 6.67315 4.63856 
21 1 10.5715 6.67129 3.77385 
61 1 12.4365 5.63685 6.67429 
62 1 11.4383 4.6413 6.66703 
63 1 10.5746 3.77126 6.67565 
67 1 7.67926 0.998611 6.57927 
68 1 8.69293 1.93336 6.63755 
69 1 9.58168 2.78145 6.67599 
4 1 13.4723 5.63927 7.70423 
5 1 13.4774 4.64263 8.70883 
6 1 13.4685 3.77089 9.57058 
10 1 13.4724 0.906053 12.4394 
11 1 13.4792 1.90393 11.4359 
12 1 13.468 2.77424 10.5724 
64 1 7.70974 5.63754 13.4762 
65 1 8.71317 4.63968 13.4778 
66 1 9.57447 3.76646 13.4685 
70 1 12.4405 0.906666 13.4706 
71 1 11.4362 1.90391 13.479 
72 1 10.5726 2.77395 13.468 
73 2 7.77411 0.185101 8.386 
74 3 8.73882 0.125144 8.45747 
16 1 7.70803 13.4737 5.62655 
17 1 8.72117 13.4708 4.62123 
18 1 9.58988 13.4703 3.75602 
22 1 12.4427 13.4716 0.902502 
23 1 11.4367 13.4793 1.90324 
24 1 10.5734 13.4685 2.77327 
40 1 13.4702 7.70259 5.63892 
41 1 13.4774 8.70962 4.64204 
42 1 13.4686 9.5709 3.77052 
46 1 13.4738 12.4389 0.90431 
47 1 13.4792 11.4351 1.90439 
48 1 13.468 10.5723 2.77442 
ITEM: TIMESTEP
20
ITEM: NUMBER OF ATOMS
74
ITEM: BOX BOUNDS pp pp pp
0.0000000000000000e+00 1.3600000000000000e+01
0.0000000000000000e+00 1.3600000000000000e+01
0.0000000000000000e+00 1.3600000000000000e+01
ITEM: ATOMS id type x y z 
1 1 6.48122 1.04054 7.54673 
2 1 6.62439 1.939 8.6671 
3 1 6.67451 2.76598 9.574 
7 1 6.67223 5.65619 12.4566 
8 1 6.66849 4.64385 11.437 
9 1 6.67513 3.77343 10.5781 
49 1 5.64893 6.67567 12.4483 
50 1 4.63533 6.66846 11.4372 
51 1 3.77048 6.67344 10.5696 
55 1 0.895371 6.67028 7.69816 
56 1 1.91138 6.67765 8.70485 
57 1 2.77011 6.67016 9.57251 
25 1 0.891854 7.69415 6.67127 
26 1 1.90822 8.7007 6.67789 
27 1 2.76802 9.57097 6.67013 
31 1 5.63941 12.4347 6.67029 
32 1 4.63624 11.432 6.66501 
33 1 3.77128 10.5675 6.67158 
37 1 6.68155 12.4453 5.6479 
38 1 6.66412 11.435 4.63591 
39 1 6.6752 10.5682 3.77031 
43 1 6.67214 7.69538 0.895474 
44 1 6.6786 8.70657 1.91189 
45 1 6.6699 9.57581 2.7739 
28 1 5.6484 7.69999 13.4751 
29 1 4.63768 8.71115 13.4777 
30 1 3.7688 9.57356 13.4703 
34 1 0.896448 12.4472 13.4741 
35 1 1.91084 11.4391 13.4663 
36 1 2.77021 10.5714 13.4727 
52 1 5.60498 13.4832 7.66687 
53 1 4.61539 13.4765 8.70144 
54 1 3.77026 13.4708 9.58347 
58 1 0.894242 13.4726 12.4507 
59 1 1.90641 13.4663 11.4422 
60 1 2.77037 13.4726 10.5765 
13 1 7.6966 6.67577 0.899763 
14 1 8.7061 6.67897 1.9127 
15 1 9.57532 6.66904 2.77402 
19 1 12.4485 6.6712 5.6492 
20 1 11.4376 6.67696 4.63586 
21 1 10.5719 6.66891 3.77255 
61 1 12.4508 5.64795 6.67345 
62 1 11.4314 4.63956 6.66904 
63 1 10.574 3.76502 6.67764 
67 1 7.60811 0.978997 6.58046 
68 1 8.67385 1.94369 6.61965 
69 1 9.57532 2.77236 6.67274 
4 1 13.4705 5.64694 7.69681 
5 1 13.4777 4.63868 8.70933 
6 1 13.4682 3.77221 9.57257 
10 1 13.4724 0.900115 12.4477 
11 1 13.4764 1.90522 11.432 
12 1 13.4695 2.77434 10.572 
64 1 7.69768 5.65 13.4724 
65 1 8.7099 4.63919 13.4823 
66 1 9.57387 3.77088 13.4664 
70 1 12.4498 0.898764 13.4717 
71 1 11.4335 1.90482 13.4759 
72 1 10.5742 2.77149 13.4693 
73 2 7.94665 0.093089 8.47937 
74 3 8.82585 0.0628814 8.53532 
16 1 7.69546 13.4894 5.63286 
17 1 8.69842 13.4669 4.62989 
18 1 9.57584 13.4694 3.77657 
22 1 12.4525 13.473 0.894106 
23 1 11.4365 13.4767 1.90044 
24 1 10.5778 13.4702 2.7716 
40 1 13.4703 7.69644 5.64672 
41 1 13.4769 8.70846 4.6398 
42 1 13.4686 9.57172 3.77306 
46 1 13.4742 12.447 0.898189 
47 1 13.4764 11.4333 1.90426 
48 1 13.4693 10.5722 2.77413 
ITEM: TIMESTEP
30
ITEM: NUMBER OF ATOMS
74
ITEM: BOX BOUNDS pp pp pp
0.0000000000000000e+00 1.3600000000000000e+01
0.0000000000000000e+00 1.3600000000000000e+01
0.0000000000000000e+00 1.3600000000000000e+01
ITEM: ATOMS id type x y z 
1 1 6.50738 1.0436 7.5521 
2 1 6.60159 1.95682 8.64444 
3 1 6.67549 2.7581 9.56909 
7 1 6.6724 5.64811 12.4471 
8 1 6.66925 4.63799 11.4344 
9 1 6.67686 3.76622 10.5742 
49 1 5.64984 6.67301 12.4474 
50 1 4.6399 6.66801 11.4397 
51 1 3.773 6.673 10.5733 
55 1 0.897555 6.67163 7.69834 
56 1 1.90898 6.67618 8.70489 
57 1 2.76967 6.67157 9.57094 
25 1 0.895389 7.69497 6.67333 
26 1 1.90625 8.70138 6.67661 
27 1 2.76767 9.56868 6.67142 
31 1 5.64457 12.4432 6.67165 
32 1 4.64176 11.4338 6.66541 
33 1 3.77544 10.5723 6.67146 
37 1 6.67466 12.4483 5.65265 
38 1 6.66858 11.4366 4.64216 
39 1 6.67326 10.5734 3.77389 
43 1 6.67242 7.69775 0.897907 
44 1 6.67679 8.70535 1.90917 
45 1 6.67169 9.57322 2.77197 
28 1 5.64748 7.69914 13.4736 
29 1 4.64076 8.70749 13.4764 
30 1 3.77131 9.57128 13.4717 
34 1 0.897574 12.4473 13.4728 
35 1 1.90854 11.4395 13.4678 
36 1 2.77002 10.5726 13.4714 
52 1 5.6027 13.5004 7.65613 
53 1 4.61878 13.4806 8.6897 
54 1 3.77716 13.4687 9.57849 
58 1 0.894729 13.4725 12.4492 
59 1 1.90705 13.4684 11.4427 
60 1 2.77136 13.4708 10.5776 
13 1 7.69755 6.67355 0.898264 
14 1 8.70377 6.67705 1.90918 
15 1 9.57209 6.6701 2.77231 
19 1 12.446 6.66968 5.6493 
20 1 11.4399 6.67497 4.63755 
21 1 10.5739 6.66971 3.77411 
61 1 12.4437 5.64466 6.67171 
62 1 11.4322 4.63547 6.66973 
63 1 10.5728 3.76342 6.67854 
67 1 7.58932 0.997762 6.57308 
68 1 8.65494 1.94416 6.6187 
69 1 9.56184 2.76194 6.66708 
4 1 13.4704 5.64639 7.69631 
5 1 13.4756 4.64065 8.70759 
6 1 13.4692 3.77321 9.57185 
10 1 13.4733 0.899363 12.4465 
11 1 13.4756 1.90473 11.4347 
12 1 13.4698 2.77212 10.5725 
64 1 7.69595 5.64879 13.4718 
65 1 8.70767 4.64301 13.4784 
66 1 9.57084 3.77369 13.4687 
70 1 12.4477 0.899161 13.4728 
71 1 11.4351 1.90496 13.4751 
72 1 10.5732 2.77077 13.4693 
73 2 7.95732 0.0736819 8.50099 
74 3 8.86591 0.0433248 8.56461 
16 1 7.68543 13.5013 5.63784 
17 1 8.69753 13.4712 4.63332 
18 1 9.57405 13.4673 3.77753 
22 1 12.4483 13.4727 0.897336 
23 1 11.4371 13.4764 1.90317 
24 1 10.5766 13.4704 2.77271 
40 1 13.4709 7.69698 5.64624 
41 1 13.475 8.70737 4.64083 
42 1 13.4695 9.57135 3.77391 
46 1 13.4729 12.446 0.89967 
47 1 13.4755 11.4354 1.9044 
48 1 13.4698 10.5724 2.77227 
ITEM: TIMESTEP
40
ITEM: NUMBER OF ATOMS
74
ITEM: BOX BOUNDS pp pp pp
0.0000000000000000e+00 1.3600000000000000e+01
0.0000000000000000e+00 1.3600000000000000e+01
0.0000000000000000e+00 1.3600000000000000e+01
ITEM: ATOMS id type x y z 
1 1 6.50931 1.05439 7.54031 
2 1 6.56445 1.99856 8.61474 
3 1 6.65845 2.77314 9.55587 
7 1 6.67341 5.63451 12.4323 
8 1 6.67409 4.62828 11.4347 
9 1 6.68464 3.75139 10.5777 
49 1 5.65162 6.66774 12.446 
50 1 4.64397 6.66986 11.442 
51 1 3.77708 6.67042 10.5775 
55 1 0.895388 6.669 7.69802 
56 1 1.90492 6.67142 8.70684 
57 1 2.77007 6.6751 9.56969 
25 1 0.898074 7.69669 6.67415 
26 1 1.90587 8.70531 6.6727 
27 1 2.7711 9.56763 6.67502 
31 1 5.64105 12.4536 6.67369 
32 1 4.64369 11.4393 6.66857 
33 1 3.78161 10.5713 6.67224 
37 1 6.67453 12.4511 5.65261 
38 1 6.67608 11.4411 4.64255 
39 1 6.67279 10.5729 3.78062 
43 1 6.67276 7.69919 0.899227 
44 1 6.67285 8.7071 1.90627 
45 1 6.67505 9.57247 2.77353 
28 1 5.6501 7.6921 13.4708 
29 1 4.64419 8.70302 13.4726 
30 1 3.77616 9.56664 13.4742 
34 1 0.896257 12.4486 13.4719 
35 1 1.90454 11.4393 13.4715 
36 1 2.76887 10.576 13.4691 
52 1 5.58266 13.5361 7.63322 
53 1 4.61099 13.4957 8.67578 
54 1 3.78103 13.4636 9.57371 
58 1 0.899765 13.4727 12.4444 
59 1 1.90883 13.4727 11.4401 
60 1 2.77957 13.4652 10.5805 
13 1 7.69653 6.67147 0.89253 
14 1 8.69923 6.6715 1.90708 
15 1 9.56869 6.67271 2.76826 
19 1 12.4458 6.66749 5.65116 
20 1 11.4406 6.67041 4.64136 
21 1 10.5775 6.67149 3.77544 
61 1 12.4333 5.63509 6.67275 
62 1 11.4311 4.62618 6.67304 
63 1 10.5736 3.75542 6.67936 
67 1 7.55872 1.03026 6.53894 
68 1 8.62463 1.97102 6.60453 
69 1 9.55185 2.77025 6.65431 
4 1 13.467 5.64764 7.69221 
5 1 13.4701 4.64235 8.70259 
6 1 13.4714 3.77807 9.56827 
10 1 13.4725 0.896905 12.4503 
11 1 13.4733 1.90071 11.4367 
12 1 13.4709 2.76937 10.5761 
64 1 7.69378 5.64737 13.4676 
65 1 8.7021 4.64398 13.4709 
66 1 9.56837 3.77884 13.4725 
70 1 12.4466 0.897816 13.4743 
71 1 11.4368 1.90603 13.4703 
72 1 10.5722 2.76946 13.4715 
73 2 8.03925 -0.00138277 8.58096 
74 3 8.95582 -0.0140017 8.65017 
16 1 7.66414 13.5144 5.61577 
17 1 8.69143 13.4884 4.63392 
18 1 9.57161 13.4614 3.78511 
22 1 12.4438 13.4731 0.90105 
23 1 11.4371 13.4744 1.90948 
24 1 10.5743 13.4692 2.77736 
40 1 13.4696 7.69345 5.65142 
41 1 13.47 8.70014 4.63999 
42 1 13.4717 9.56966 3.77978 
46 1 13.4706 12.45 0.897045 
47 1 13.4734 11.4384 1.9031 
48 1 13.4707 10.5749 2.76908 
ITEM: TIMESTEP
50
ITEM: NUMBER OF ATOMS
74
ITEM: BOX BOUNDS pp pp pp
0.0000000000000000e+00 1.3600000000000000e+01
0.0000000000000000e+00 1.3600000000000000e+01
0.0000000000000000e+00 1.3600000000000000e+01
ITEM: ATOMS id type x y z 
1 1 6.50406 1.05666 7.54008 
2 1 6.5714 1.98666 8.61691 
3 1 6.65074 2.77917 9.54541 
7 1 6.67314 5.63972 12.4376 
8 1 6.67551 4.62596 11.4352 
9 1 6.68437 3.75185 10.5781 
49 1 5.65134 6.66804 12.4463 
50 1 4.64117 6.67129 11.4401 
51 1 3.77534 6.67016 10.5751 
55 1 0.895563 6.66955 7.69802 
56 1 1.90465 6.67121 8.7067 
57 1 2.77059 6.67453 9.57043 
25 1 0.896701 7.69583 6.67389 
26 1 1.9059 8.70498 6.6728 
27 1 2.77252 9.56845 6.67489 
31 1 5.64196 12.4556 6.66916 
32 1 4.64241 11.4388 6.6688 
33 1 3.78098 10.5696 6.67313 
37 1 6.67351 12.4514 5.65075 
38 1 6.67615 11.4414 4.64357 
39 1 6.674 10.5734 3.78159 
43 1 6.6728 7.69835 0.898052 
44 1 6.67275 8.70764 1.90721 
45 1 6.67476 9.57188 2.77343 
28 1 5.64968 7.69429 13.4713 
29 1 4.64172 8.70376 13.4738 
30 1 3.77568 9.56821 13.473 
34 1 0.896198 12.4479 13.4724 
35 1 1.90538 11.4384 13.4716 
36 1 2.77056 10.5741 13.4695 
52 1 5.58121 13.5394 7.63204 
53 1 4.61182 13.4976 8.67547 
54 1 3.78014 13.4645 9.57206 
58 1 0.897894 13.4728 12.4467 
59 1 1.90923 13.4721 11.4403 
60 1 2.77999 13.4645 10.5808 
13 1 7.69609 6.67123 0.89528 
14 1 8.7019 6.67607 1.907 
15 1 9.56934 6.67029 2.76983 
19 1 12.4458 6.66762 5.65105 
20 1 11.4392 6.67062 4.63976 
21 1 10.5755 6.67121 3.77393 
61 1 12.4374 5.63898 6.67268 
62 1 11.4326 4.62549 6.67402 
63 1 10.5733 3.75523 6.67853 
67 1 7.56004 1.02761 6.54217 
68 1 8.62606 1.96939 6.60406 
69 1 9.54693 2.77406 6.65207 
4 1 13.4671 5.64698 7.69345 
5 1 13.4705 4.64053 8.70422 
6 1 13.4709 3.77621 9.56988 
10 1 13.4716 0.896964 12.4486 
11 1 13.475 1.90312 11.4371 
12 1 13.4702 2.77026 10.5742 
64 1 7.69426 5.64783 13.4678 
65 1 8.70398 4.64186 13.4715 
66 1 9.56989 3.77682 13.4721 
70 1 12.4462 0.897591 13.4738 
71 1 11.4377 1.90635 13.471 
72 1 10.5716 2.77006 13.4713 
73 2 8.04358 -0.00717321 8.58634 
74 3 8.96235 -0.0166781 8.65358 
16 1 7.65869 13.5161 5.61506 
17 1 8.68988 13.4889 4.63112 
18 1 9.57329 13.4628 3.78529 
22 1 12.4451 13.4733 0.900353 
23 1 11.4368 13.4738 1.90928 
24 1 10.5751 13.4681 2.77783 
40 1 13.4704 7.69377 5.65021 
41 1 13.4681 8.70191 4.64018 
42 1 13.4723 9.56971 3.77795 
46 1 13.471 12.4488 0.8972 
47 1 13.4734 11.4379 1.90471 
48 1 13.4711 10.5737 2.77044 
ITEM: TIMESTEP
60
ITEM: NUMBER OF ATOMS
74
ITEM: BOX BOUNDS pp pp pp
0.0000000000000000e+00 1.3600000000000000e+01
0.0000000000000000e+00 1.3600000000000000e+01
0.0000000000000000e+00 1.3600000000000000e+01
ITEM: ATOMS id type x y z 
1 1 6.50653 1.04847 7.54483 
2 1 6.58054 1.97729 8.62153 
3 1 6.62805 2.80058 9.52526 
7 1 6.67264 5.64373 12.4438 
8 1 6.68338 4.62158 11.4452 
9 1 6.67889 3.76154 10.5757 
49 1 5.64894 6.66982 12.4454 
50 1 4.63878 6.67156 11.4386 
51 1 3.77449 6.67219 10.5729 
55 1 0.894572 6.67121 7.69717 
56 1 1.90272 6.67054 8.70521 
57 1 2.76875 6.67167 9.56945 
25 1 0.895308 7.69693 6.67245 
26 1 1.90563 8.70321 6.67283 
27 1 2.77342 9.56573 6.67488 
31 1 5.63314 12.4617 6.65848 
32 1 4.63764 11.4405 6.66841 
33 1 3.78283 10.5653 6.67796 
37 1 6.66863 12.4563 5.64355 
38 1 6.67496 11.4407 4.64187 
39 1 6.68017 10.5697 3.78265 
43 1 6.67207 7.69903 0.897246 
44 1 6.67209 8.70622 1.90676 
45 1 6.67419 9.56928 2.77392 
28 1 5.64715 7.69585 13.4702 
29 1 4.64005 8.70469 13.4734 
30 1 3.77497 9.56989 13.471 
34 1 0.897466 12.4458 13.4732 
35 1 1.90457 11.4373 13.4725 
36 1 2.77101 10.5734 13.471 
52 1 5.5677 13.5438 7.62194 
53 1 4.60643 13.5076 8.674 
54 1 3.77466 13.4681 9.57051 
58 1 0.898452 13.4721 12.4489 
59 1 1.90922 13.4692 11.4436 
60 1 2.77932 13.4614 10.5836 
13 1 7.69675 6.67329 0.897104 
14 1 8.70311 6.67344 1.90635 
15 1 9.57021 6.67237 2.76952 
19 1 12.4441 6.6683 5.64894 
20 1 11.4386 6.67085 4.63897 
21 1 10.5735 6.66948 3.7737 
61 1 12.4423 5.64134 6.67237 
62 1 11.4408 4.62535 6.67888 
63 1 10.575 3.76108 6.67386 
67 1 7.56701 1.01879 6.55287 
68 1 8.63034 1.96848 6.59806 
69 1 9.53291 2.79282 6.64371 
4 1 13.4683 5.64551 7.697 
5 1 13.4704 4.63894 8.70601 
6 1 13.4697 3.77339 9.57087 
10 1 13.4725 0.897463 12.4467 
11 1 13.4724 1.90395 11.4381 
12 1 13.4724 2.77063 10.5744 
64 1 7.69573 5.64833 13.4693 
65 1 8.70609 4.64094 13.4724 
66 1 9.5693 3.77409 13.4714 
70 1 12.4472 0.895915 13.4729 
71 1 11.4393 1.90456 13.4719 
72 1 10.5745 2.76998 13.4714 
73 2 8.06752 -0.035055 8.61228 
74 3 8.99039 -0.0300166 8.67037 
16 1 7.64603 13.5275 5.60317 
17 1 8.6843 13.4906 4.62357 
18 1 9.57502 13.4685 3.78542 
22 1 12.4468 13.4719 0.899044 
23 1 11.4393 13.4724 1.90898 
24 1 10.58 13.4642 2.77949 
40 1 13.4687 7.69545 5.64781 
41 1 13.4692 8.7029 4.63995 
42 1 13.4702 9.5688 3.77549 
46 1 13.4713 12.4456 0.899071 
47 1 13.4726 11.4379 1.90698 
48 1 13.4729 10.5732 2.77264 
ITEM: TIMESTEP
70
ITEM: NUMBER OF ATOMS
74
ITEM: BOX BOUNDS pp pp pp
0.0000000000000000e+00 1.3600000000000000e+01
0.0000000000000000e+00 1.3600000000000000e+01
0.0000000000000000e+00 1.3600000000000000e+01
ITEM: ATOMS id type x y z 
1 1 6.51957 1.04331 7.55606 
2 1 6.57166 1.98922 8.61282 
3 1 6.62444 2.80282 9.52666 
7 1 6.67328 5.63878 12.4423 
8 1 6.68261 4.6236 11.4434 
9 1 6.67601 3.76501 10.5714 
49 1 5.64906 6.66775 12.4444 
50 1 4.63988 6.67127 11.4388 
51 1 3.77485 6.67193 10.5741 
55 1 0.894821 6.67171 7.69772 
56 1 1.9035 6.67022 8.70614 
57 1 2.77013 6.67153 9.57006 
25 1 0.895835 7.69733 6.67306 
26 1 1.90585 8.7033 6.67188 
27 1 2.77592 9.56448 6.67625 
31 1 5.62714 12.468 6.65556 
32 1 4.63729 11.4421 6.66595 
33 1 3.7835 10.5652 6.68014 
37 1 6.6622 12.4607 5.63792 
38 1 6.67392 11.4428 4.64028 
39 1 6.68227 10.5683 3.78421 
43 1 6.67142 7.69883 0.89707 
44 1 6.67071 8.7064 1.90671 
45 1 6.676 9.56765 2.77568 
28 1 5.64825 7.69352 13.4687 
29 1 4.64114 8.70384 13.4718 
30 1 3.77613 9.56865 13.471 
34 1 0.896428 12.4456 13.4745 
35 1 1.90493 11.4372 13.4732 
36 1 2.77068 10.5729 13.471 
52 1 5.56792 13.5474 7.62034 
53 1 4.60065 13.5041 8.667 
54 1 3.77419 13.4748 9.56862 
58 1 0.898664 13.4718 12.4484 
59 1 1.91079 13.4674 11.444 
60 1 2.78049 13.461 10.5836 
13 1 7.69597 6.67356 0.895693 
14 1 8.70345 6.67407 1.90498 
15 1 9.56863 6.67137 2.76928 
19 1 12.4446 6.66738 5.64966 
20 1 11.4381 6.66977 4.63954 
21 1 10.5739 6.6701 3.77373 
61 1 12.4421 5.63804 6.67189 
62 1 11.4388 4.62522 6.67924 
63 1 10.5702 3.7636 6.67341 
67 1 7.57126 1.01851 6.5512 
68 1 8.62646 1.97208 6.60119 
69 1 9.53039 2.79563 6.63504 
4 1 13.4689 5.64657 7.69586 
5 1 13.4703 4.63941 8.70555 
6 1 13.47 3.7743 9.57069 
10 1 13.4725 0.89558 12.4488 
11 1 13.4734 1.90341 11.4393 
12 1 13.4713 2.76887 10.5748 
64 1 7.69634 5.64671 13.4698 
65 1 8.7053 4.64045 13.4726 
66 1 9.56975 3.77476 13.4719 
70 1 12.446 0.896416 13.4736 
71 1 11.4392 1.90501 13.4712 
72 1 10.5736 2.77029 13.4713 
73 2 8.08275 -0.0499512 8.62628 
74 3 9.00309 -0.0377023 8.68012 
16 1 7.64453 13.5268 5.60053 
17 1 8.68456 13.4989 4.6233 
18 1 9.57185 13.467 3.78188 
22 1 12.444 13.4722 0.900353 
23 1 11.4398 13.4707 1.91202 
24 1 10.5801 13.4649 2.78253 
40 1 13.469 7.69348 5.64884 
41 1 13.4655 8.70209 4.64023 
42 1 13.4722 9.56827 3.77647 
46 1 13.4706 12.4476 0.898338 
47 1 13.4731 11.4377 1.90634 
48 1 13.4722 10.5737 2.77227 
ITEM: TIMESTEP
80
ITEM: NUMBER OF ATOMS
74
ITEM: BOX BOUNDS pp pp pp
0.0000000000000000e+00 1.3600000000000000e+01
0.0000000000000000e+00 1.3600000000000000e+01
0.0000000000000000e+00 1.3600000000000000e+01
ITEM: ATOMS id type x y z 
1 1 6.53352 1.02905 7.56252 
2 1 6.57212 1.99206 8.6174 
3 1 6.60871 2.82084 9.51597 
7 1 6.67208 5.63718 12.4456 
8 1 6.6826 4.62764 11.4389 
9 1 6.66627 3.77393 10.5639 
49 1 5.64988 6.66528 12.4454 
50 1 4.64278 6.66722 11.4362 
51 1 3.77345 6.67262 10.5753 
55 1 0.895348 6.67224 7.69849 
56 1 1.90307 6.67006 8.706 
57 1 2.77013 6.67145 9.56964 
25 1 0.895203 7.69723 6.67231 
26 1 1.90716 8.70343 6.67124 
27 1 2.77891 9.56039 6.68023 
31 1 5.61579 12.4775 6.64168 
32 1 4.63335 11.4453 6.66367 
33 1 3.78553 10.5648 6.68169 
37 1 6.64815 12.4699 5.62711 
38 1 6.66845 11.4447 4.63581 
39 1 6.68692 10.5648 3.78612 
43 1 6.66965 7.6994 0.896982 
44 1 6.66929 8.7062 1.90689 
45 1 6.68043 9.56407 2.77876 
28 1 5.6484 7.69381 13.468 
29 1 4.64065 8.70182 13.4678 
30 1 3.77679 9.56835 13.4711 
34 1 0.896848 12.4457 13.4743 
35 1 1.90572 11.4368 13.4732 
36 1 2.77083 10.5716 13.4724 
52 1 5.56516 13.5525 7.62002 
53 1 4.5931 13.5051 8.65885 
54 1 3.76647 13.4839 9.56172 
58 1 0.899238 13.4693 12.4494 
59 1 1.9143 13.4632 11.4467 
60 1 2.78236 13.463 10.5842 
13 1 7.697 6.67431 0.895428 
14 1 8.70413 6.67204 1.90371 
15 1 9.5688 6.67176 2.77038 
19 1 12.4445 6.66497 5.64914 
20 1 11.4371 6.66769 4.64072 
21 1 10.5735 6.67079 3.77354 
61 1 12.4451 5.63673 6.67182 
62 1 11.4382 4.62732 6.68035 
63 1 10.5634 3.77176 6.66796 
67 1 7.57549 1.01369 6.55571 
68 1 8.61932 1.98293 6.59907 
69 1 9.52592 2.80444 6.62386 
4 1 13.4704 5.6453 7.69719 
5 1 13.4713 4.63829 8.70631 
6 1 13.4703 3.77374 9.57209 
10 1 13.4738 0.895465 12.4488 
11 1 13.4712 1.90297 11.441 
12 1 13.4716 2.76715 10.5748 
64 1 7.69655 5.64607 13.4726 
65 1 8.70745 4.64064 13.4766 
66 1 9.57031 3.77368 13.4709 
70 1 12.4469 0.89601 13.4729 
71 1 11.4383 1.9036 13.4727 
72 1 10.5747 2.77007 13.4702 
73 2 8.10887 -0.0812578 8.65515 
74 3 9.03727 -0.0557436 8.70356 
16 1 7.64197 13.529 5.59323 
17 1 8.67992 13.5086 4.6211 
18 1 9.56606 13.471 3.77789 
22 1 12.4449 13.472 0.900224 
23 1 11.4423 13.4673 1.91494 
24 1 10.5821 13.4634 2.78544 
40 1 13.4682 7.69266 5.64928 
41 1 13.4628 8.70007 4.63983 
42 1 13.4724 9.56803 3.77734 
46 1 13.4696 12.4469 0.900066 
47 1 13.4732 11.4378 1.90685 
48 1 13.4725 10.5733 2.77276 
ITEM: TIMESTEP
90
ITEM: NUMBER OF ATOMS
74
ITEM: BOX BOUNDS pp pp pp
0.0000000000000000e+00 1.3600000000000000e+01
0.0000000000000000e+00 1.3600000000000000e+01
0.0000000000000000e+00 1.3600000000000000e+01
ITEM: ATOMS id type x y z 
1 1 6.53305 1.02814 7.56428 
2 1 6.57083 1.99146 8.61544 
3 1 6.60943 2.81981 9.51507 
7 1 6.67236 5.63834 12.4464 
8 1 6.68227 4.62841 11.4405 
9 1 6.66531 3.77561 10.5634 
49 1 5.64946 6.66626 12.445 
50 1 4.642 6.66598 11.4365 
51 1 3.77375 6.67296 10.5745 
55 1 0.895133 6.67223 7.69796 
56 1 1.90309 6.67027 8.70598 
57 1 2.76967 6.6716 9.56962 
25 1 0.895236 7.6972 6.6721 
26 1 1.90675 8.70269 6.67165 
27 1 2.77903 9.56048 6.68044 
31 1 5.61554 12.4776 6.64195 
32 1 4.63152 11.4466 6.66252 
33 1 3.78533 10.5633 6.68199 
37 1 6.64856 12.4705 5.62581 
38 1 6.66952 11.4452 4.63536 
39 1 6.68603 10.5645 3.78624 
43 1 6.67015 7.6992 0.897147 
44 1 6.66977 8.70565 1.90666 
45 1 6.68059 9.56382 2.77864 
28 1 5.64819 7.69435 13.4683 
29 1 4.63994 8.70207 13.4679 
30 1 3.77633 9.56868 13.471 
34 1 0.897148 12.4451 13.4745 
35 1 1.90527 11.4365 13.4739 
36 1 2.77098 10.572 13.4722 
52 1 5.56437 13.5505 7.61913 
53 1 4.59338 13.5073 8.66054 
54 1 3.76502 13.483 9.56074 
58 1 0.899435 13.4696 12.449 
59 1 1.91426 13.4632 11.4473 
60 1 2.78174 13.4637 10.5845 
13 1 7.69687 6.67442 0.896106 
14 1 8.70466 6.67216 1.90416 
15 1 9.56887 6.67188 2.77022 
19 1 12.4444 6.66528 5.6488 
20 1 11.4371 6.66727 4.64045 
21 1 10.5734 6.67084 3.77391 
61 1 12.4455 5.63751 6.67218 
62 1 11.4389 4.6279 6.6802 
63 1 10.5639 3.77283 6.66681 
67 1 7.57572 1.01344 6.55565 
68 1 8.62037 1.98226 6.59817 
69 1 9.52478 2.80587 6.62447 
4 1 13.4708 5.64482 7.69776 
5 1 13.4714 4.63804 8.70687 
6 1 13.4704 3.77313 9.57223 
10 1 13.4735 0.895523 12.4484 
11 1 13.4715 1.90317 11.4408 
12 1 13.4715 2.7675 10.5748 
64 1 7.69696 5.6462 13.4732 
65 1 8.70781 4.64106 13.4772 
66 1 9.57035 3.77339 13.4706 
70 1 12.4472 0.895413 13.473 
71 1 11.439 1.90336 13.4728 
72 1 10.5749 2.7695 13.4702 
73 2 8.11121 -0.0825407 8.65639 
74 3 9.03785 -0.0569845 8.70509 
16 1 7.64033 13.5299 5.59337 
17 1 8.67986 13.5065 4.61991 
18 1 9.56666 13.473 3.77763 
22 1 12.4456 13.4717 0.900364 
23 1 11.4423 13.468 1.91433 
24 1 10.5826 13.4626 2.78479 
40 1 13.4677 7.69337 5.64911 
41 1 13.4642 8.69983 4.63911 
42 1 13.4713 9.56828 3.77741 
46 1 13.4703 12.4463 0.89991 
47 1 13.473 11.4375 1.90739 
48 1 13.4728 10.573 2.77314 
ITEM: TIMESTEP
100
ITEM: NUMBER OF ATOMS
74
ITEM: BOX BOUNDS pp pp pp
0.0000000000000000e+00 1.3600000000000000e+01
0.0000000000000000e+00 1.3600000000000000e+01
0.0000000000000000e+00 1.3600000000000000e+01
ITEM: ATOMS id type x y z 
1 1 6.53334 1.02745 7.56584 
2 1 6.57083 1.9912 8.61538 
3 1 6.60919 2.82027 9.51439 
7 1 6.67286 5.63867 12.4471 
8 1 6.68176 4.629 11.4401 
9 1 6.66314 3.77779 10.5615 
49 1 5.64928 6.66603 12.4449 
50 1 4.64159 6.66658 11.4367 
51 1 3.77421 6.67195 10.5738 
55 1 0.89553 6.67215 7.69786 
56 1 1.90323 6.67064 8.70605 
57 1 2.76946 6.67197 9.57009 
25 1 0.895371 7.69727 6.67207 
26 1 1.90693 8.70202 6.67228 
27 1 2.77906 9.56001 6.68056 
31 1 5.61443 12.4783 6.64058 
32 1 4.62981 11.4475 6.66225 
33 1 3.78506 10.5627 6.68169 
37 1 6.64858 12.4721 5.62406 
38 1 6.66868 11.4452 4.63534 
39 1 6.68611 10.5648 3.78602 
43 1 6.67019 7.69901 0.896577 
44 1 6.67053 8.70513 1.90698 
45 1 6.68076 9.5634 2.77882 
28 1 5.64782 7.69425 13.4681 
29 1 4.63971 8.70202 13.4677 
30 1 3.77598 9.56855 13.4707 
34 1 0.897031 12.4445 13.4748 
35 1 1.90526 11.4364 13.4747 
36 1 2.77119 10.5721 13.4721 
52 1 5.56419 13.549 7.61794 
53 1 4.59414 13.5105 8.6614 
54 1 3.76356 13.4824 9.55939 
58 1 0.899598 13.4701 12.4493 
59 1 1.91399 13.4632 11.4477 
60 1 2.78076 13.4643 10.5843 
13 1 7.69655 6.6744 0.896716 
14 1 8.70467 6.67236 1.90436 
15 1 9.56922 6.6721 2.77009 
19 1 12.4447 6.66525 5.64889 
20 1 11.4371 6.66699 4.64073 
21 1 10.5733 6.67064 3.77426 
61 1 12.4457 5.6378 6.67261 
62 1 11.4388 4.62839 6.67961 
63 1 10.5632 3.77399 6.66508 
67 1 7.57627 1.01335 6.55704 
68 1 8.62108 1.98167 6.59699 
69 1 9.52304 2.80791 6.62477 
4 1 13.4712 5.64483 7.69792 
5 1 13.4718 4.6379 8.70702 
6 1 13.4705 3.77278 9.57215 
10 1 13.4734 0.894996 12.4485 
11 1 13.4717 1.90287 11.4409 
12 1 13.4714 2.76756 10.5753 
64 1 7.69725 5.64599 13.4734 
65 1 8.70767 4.64024 13.4762 
66 1 9.57119 3.77352 13.4714 
70 1 12.447 0.895302 13.4735 
71 1 11.4392 1.90311 13.4727 
72 1 10.5749 2.76905 13.4701 
73 2 8.11614 -0.0856965 8.65938 
74 3 9.03992 -0.0598211 8.70866 
16 1 7.6391 13.5317 5.5928 
17 1 8.67834 13.5046 4.61749 
18 1 9.56778 13.4752 3.7779 
22 1 12.4457 13.4717 0.901041 
23 1 11.4426 13.4674 1.91401 
24 1 10.5825 13.4627 2.78402 
40 1 13.4677 7.6935 5.64867 
41 1 13.4652 8.70034 4.63961 
42 1 13.4705 9.56794 3.77697 
46 1 13.4709 12.4458 0.900066 
47 1 13.4729 11.4374 1.90766 
48 1 13.4729 10.5728 2.77337 
ITEM: TIMESTEP
110
ITEM: NUMBER OF ATOMS
74
ITEM: BOX BOUNDS pp pp pp
0.0000000000000000e+00 1.3600000000000000e+01
0.0000000000000000e+00 1.3600000000000000e+01
0.0000000000000000e+00 1.3600000000000000e+01
ITEM: ATOMS id type x y z 
1 1 6.53474 1.02608 7.56734 
2 1 6.5711 1.99065 8.61576 
3 1 6.6088 2.82073 9.51383 
7 1 6.67298 5.63859 12.4471 
8 1 6.6814 4.62956 11.4401 
9 1 6.66228 3.77896 10.5609 
49 1 5.64919 6.666 12.4449 
50 1 4.64158 6.66666 11.4368 
51 1 3.77441 6.67166 10.5737 
55 1 0.89556 6.67206 7.69786 
56 1 1.90332 6.67075 8.7061 
57 1 2.76945 6.67207 9.57023 
25 1 0.895358 7.69718 6.67207 
26 1 1.90707 8.70177 6.67249 
27 1 2.77914 9.55984 6.68065 
31 1 5.6138 12.4787 6.63979 
32 1 4.62983 11.4473 6.6617 
33 1 3.78466 10.5629 6.68175 
37 1 6.64821 12.4726 5.62353 
38 1 6.66832 11.4457 4.63488 
39 1 6.68608 10.5647 3.78616 
43 1 6.67022 7.69903 0.896592 
44 1 6.67084 8.70492 1.90705 
45 1 6.68093 9.56319 2.77887 
28 1 5.6478 7.69415 13.468 
29 1 4.63966 8.70191 13.4677 
30 1 3.77594 9.56845 13.4706 
34 1 0.897193 12.4444 13.4748 
35 1 1.90513 11.4362 13.4748 
36 1 2.77134 10.5722 13.4722 
52 1 5.56405 13.5489 7.61792 
53 1 4.59428 13.5115 8.66159 
54 1 3.76309 13.4824 9.55898 
58 1 0.899748 13.4701 12.4495 
59 1 1.91392 13.4633 11.4477 
60 1 2.7804 13.4645 10.5839 
13 1 7.69646 6.67427 0.896791 
14 1 8.70466 6.67242 1.90448 
15 1 9.56935 6.67219 2.77007 
19 1 12.4447 6.66522 5.64888 
20 1 11.4371 6.66685 4.64084 
21 1 10.5733 6.67056 3.77438 
61 1 12.4458 5.63782 6.67272 
62 1 11.4387 4.62874 6.67931 
63 1 10.5628 3.77464 6.66442 
67 1 7.57671 1.01306 6.5572 
68 1 8.62123 1.98158 6.59671 
69 1 9.5224 2.8087 6.62464 
4 1 13.4713 5.64472 7.69806 
5 1 13.4719 4.6378 8.70712 
6 1 13.4705 3.77259 9.57217 
10 1 13.4733 0.894895 12.4486 
11 1 13.4717 1.90282 11.4409 
12 1 13.4714 2.76759 10.5754 
64 1 7.69749 5.64588 13.4736 
65 1 8.70756 4.64009 13.4759 
66 1 9.57132 3.7736 13.4717 
70 1 12.4471 0.895166 13.4736 
71 1 11.4392 1.90303 13.4726 
72 1 10.5749 2.76899 13.4702 
73 2 8.11642 -0.0862002 8.65977 
74 3 9.04158 -0.061208 8.71046 
16 1 7.6385 13.5322 5.59216 
17 1 8.67788 13.5041 4.6169 
18 1 9.56788 13.4758 3.77787 
22 1 12.4459 13.4715 0.901086 
23 1 11.4427 13.4673 1.91417 
24 1 10.5822 13.463 2.78389 
40 1 13.4677 7.69351 5.64866 
41 1 13.4656 8.70038 4.63966 
42 1 13.4702 9.56788 3.7769 
46 1 13.4709 12.4457 0.900156 
47 1 13.4729 11.4373 1.90781 
48 1 13.4728 10.5727 2.77349 
ITEM: TIMESTEP
120
ITEM: NUMBER OF ATOMS
74
ITEM: BOX BOUNDS pp pp pp
0.0000000000000000e+00 1.3600000000000000e+01
0.0000000000000000e+00 1.3600000000000000e+01
0.0000000000000000e+00 1.3600000000000000e+01
ITEM: ATOMS id type x y z 
1 1 6.55738 1.00282 7.58832 
2 1 6.57721 1.98442 8.62349 
3 1 6.60152 2.82949 9.50777 
7 1 6.67462 5.63953 12.4503 
8 1 6.6759 4.63778 11.4337 
9 1 6.64689 3.7957 10.5467 
49 1 5.64908 6.665 12.4458 
50 1 4.64109 6.66712 11.438 
51 1 3.77644 6.66775 10.5723 
55 1 0.89678 6.67092 7.69916 
56 1 1.90456 6.67192 8.70643 
57 1 2.76977 6.6733 9.57159 
25 1 0.89617 7.6955 6.67248 
26 1 1.90908 8.6978 6.67618 
27 1 2.78047 9.55669 6.68285 
31 1 5.60343 12.4856 6.62808 
32 1 4.62203 11.4523 6.65813 
33 1 3.78172 10.5631 6.67849 
37 1 6.63714 12.4821 5.61204 
38 1 6.67324 11.4528 4.62608 
39 1 6.67993 10.5629 3.78675 
43 1 6.67121 7.69846 0.896337 
44 1 6.67544 8.70189 1.90947 
45 1 6.68361 9.56019 2.78124 
28 1 5.64745 7.69374 13.4689 
29 1 4.63892 8.70015 13.4662 
30 1 3.77527 9.56688 13.4686 
34 1 0.899215 12.4437 13.4755 
35 1 1.90466 11.4339 13.4785 