LAMMPS (3 Mar 2020)
# Alpha
clear
units		real
dimension 3
boundary        p p p
atom_style	charge
newton on
read_data       OOH_4.lmp
  orthogonal box = (0 0 0) to (32.808 17.78 2.473)
  4 by 2 by 1 MPI processor grid
  reading atoms ...
  59 atoms
  read_data CPU = 0.00308778 secs

timestep 0.25

# ---------- Define Interatomic Potential ---------------------
pair_style      reax/c NULL checkqeq no
pair_coeff      * * ffield.reax C H O
WARNING: Changed valency_val to valency_boc for X (../reaxc_ffield.cpp:315)
fix             2 all qeq/reax 1 0.0 10.0 1.0e-6 reax/c

#------------ Equilibration of the system -------------------------
reset_timestep 0

dump 1 all custom 10 min.lammpstrj id type x y z

minimize 1.0e-8 1.0e-8 100000 100000
WARNING: Using 'neigh_modify every 1 delay 0 check yes' setting during minimization (../min.cpp:190)
Neighbor list info ...
  update every 1 steps, delay 0 steps, check yes
  max neighbors/atom: 2000, page size: 100000
  master list distance cutoff = 12
  ghost atom cutoff = 12
  binsize = 6, bins = 6 3 1
  2 neighbor lists, perpetual/occasional/extra = 2 0 0
  (1) pair reax/c, perpetual
      attributes: half, newton off, ghost
      pair build: half/bin/newtoff/ghost
      stencil: half/ghost/bin/3d/newtoff
      bin: standard
  (2) fix qeq/reax, perpetual, copy from (1)
      attributes: half, newton off, ghost
      pair build: copy
      stencil: none
      bin: none
Per MPI rank memory allocation (min/avg/max) = 28.7 | 29.15 | 29.43 Mbytes
Step Temp E_pair E_mol TotEng Press 
       0            0   -10909.137            0   -10909.137    597106.34 
     298            0   -11238.911            0   -11238.911    108006.93 
Loop time of 18.33 on 8 procs for 298 steps with 59 atoms

99.2% CPU use with 8 MPI tasks x no OpenMP threads

Minimization stats:
  Stopping criterion = energy tolerance
  Energy initial, next-to-last, final = 
        -10909.1373961     -11238.9106859     -11238.9107245
  Force two-norm initial, final = 321.275 52.1927
  Force max component initial, final = 143.058 19.7693
  Final line search alpha, max atom move = 0.000468001 0.00925204
  Iterations, force evaluations = 298 1865

MPI task timing breakdown:
Section |  min time  |  avg time  |  max time  |%varavg| %total
---------------------------------------------------------------
Pair    | 14.954     | 16.315     | 16.869     |  14.2 | 89.01
Neigh   | 0          | 0          | 0          |   0.0 |  0.00
Comm    | 0.056653   | 0.61026    | 1.9707     |  73.6 |  3.33
Output  | 0.00082624 | 0.0011009  | 0.0017733  |   0.8 |  0.01
Modify  | 1.3829     | 1.3837     | 1.3843     |   0.0 |  7.55
Other   |            | 0.02012    |            |       |  0.11

Nlocal:    7.375 ave 11 max 3 min
Histogram: 1 0 2 1 0 0 0 2 0 2
Nghost:    1150.62 ave 1169 max 1123 min
Histogram: 1 1 0 0 1 1 0 0 2 2
Neighs:    2117.25 ave 3160 max 839 min
Histogram: 1 0 1 1 1 0 1 1 0 2

Total # of neighbors = 16938
Ave neighs/atom = 287.085
Neighbor list builds = 0
Dangerous builds = 0

###
min_style cg
minimize 1.0e-8 1.0e-8 100000 100000
WARNING: Using 'neigh_modify every 1 delay 0 check yes' setting during minimization (../min.cpp:190)
Per MPI rank memory allocation (min/avg/max) = 28.7 | 29.15 | 29.43 Mbytes
Step Temp E_pair E_mol TotEng Press 
     298            0   -11238.911            0   -11238.911    108006.93 
     319            0   -11239.341            0   -11239.341    110587.41 
Loop time of 1.46217 on 8 procs for 21 steps with 59 atoms

99.1% CPU use with 8 MPI tasks x no OpenMP threads

Minimization stats:
  Stopping criterion = energy tolerance
  Energy initial, next-to-last, final = 
        -11238.9107258     -11239.3412529     -11239.3412762
  Force two-norm initial, final = 52.1927 41.8895
  Force max component initial, final = 19.7693 9.05107
  Final line search alpha, max atom move = 0.000690409 0.00624894
  Iterations, force evaluations = 21 148

MPI task timing breakdown:
Section |  min time  |  avg time  |  max time  |%varavg| %total
---------------------------------------------------------------
Pair    | 1.2517     | 1.3081     | 1.343      |   2.3 | 89.46
Neigh   | 0          | 0          | 0          |   0.0 |  0.00
Comm    | 0.0045749  | 0.039455   | 0.095761   |  13.3 |  2.70
Output  | 6.8689e-05 | 8.5694e-05 | 0.00013276 |   0.0 |  0.01
Modify  | 0.11279    | 0.11286    | 0.11292    |   0.0 |  7.72
Other   |            | 0.00168    |            |       |  0.11

Nlocal:    7.375 ave 12 max 2 min
Histogram: 1 0 0 1 2 0 2 0 0 2
Nghost:    1159.62 ave 1172 max 1148 min
Histogram: 2 1 1 0 0 0 0 2 0 2
Neighs:    2102.38 ave 3466 max 551 min
Histogram: 1 0 0 2 1 1 1 0 0 2

Total # of neighbors = 16819
Ave neighs/atom = 285.068
Neighbor list builds = 0
Dangerous builds = 0

###
fix 1 all box/relax aniso 0.0
min_style cg
minimize 1.0e-8 1.0e-8 100000 100000
WARNING: Using 'neigh_modify every 1 delay 0 check yes' setting during minimization (../min.cpp:190)
Per MPI rank memory allocation (min/avg/max) = 28.7 | 29.15 | 29.43 Mbytes
Step Temp E_pair E_mol TotEng Press Volume 
     319            0   -11239.341            0   -11239.341     110587.4    1442.5658 
    2352            0   -11279.673            0   -11279.673    358.65512    1468.6806 
Loop time of 29.8405 on 8 procs for 2033 steps with 59 atoms

99.2% CPU use with 8 MPI tasks x no OpenMP threads

Minimization stats:
  Stopping criterion = energy tolerance
  Energy initial, next-to-last, final = 
        -11239.3412787     -11279.6732547     -11279.6733669
  Force two-norm initial, final = 4358.25 22.1629
  Force max component initial, final = 3680.13 16.7888
  Final line search alpha, max atom move = 7.58007e-06 0.00012726
  Iterations, force evaluations = 2033 3152

MPI task timing breakdown:
Section |  min time  |  avg time  |  max time  |%varavg| %total
---------------------------------------------------------------
Pair    | 26.559     | 27.587     | 28.294     |   9.6 | 92.45
Neigh   | 0          | 0          | 0          |   0.0 |  0.00
Comm    | 0.076653   | 0.78307    | 1.8101     |  56.9 |  2.62
Output  | 0.0048577  | 0.0061747  | 0.0099071  |   1.9 |  0.02
Modify  | 1.3606     | 1.3614     | 1.3619     |   0.0 |  4.56
Other   |            | 0.1027     |            |       |  0.34

Nlocal:    7.375 ave 12 max 2 min
Histogram: 1 0 0 1 2 0 2 0 0 2
Nghost:    1159.62 ave 1172 max 1148 min
Histogram: 2 1 1 0 0 0 0 2 0 2
Neighs:    2102.38 ave 3468 max 551 min
Histogram: 1 0 0 2 1 1 1 0 0 2

Total # of neighbors = 16819
Ave neighs/atom = 285.068
Neighbor list builds = 0
Dangerous builds = 0

unfix 1
###
min_style cg
minimize 1.0e-8 1.0e-8 100000 100000
WARNING: Using 'neigh_modify every 1 delay 0 check yes' setting during minimization (../min.cpp:190)
Per MPI rank memory allocation (min/avg/max) = 28.7 | 29.15 | 29.43 Mbytes
Step Temp E_pair E_mol TotEng Press 
    2352            0   -11279.673            0   -11279.673    358.68234 
    2393            0   -11280.246            0   -11280.246    22736.026 
Loop time of 2.90783 on 8 procs for 41 steps with 59 atoms

99.2% CPU use with 8 MPI tasks x no OpenMP threads

Minimization stats:
  Stopping criterion = energy tolerance
  Energy initial, next-to-last, final = 
        -11279.6733595     -11280.2462911     -11280.2463785
  Force two-norm initial, final = 13.8136 13.6377
  Force max component initial, final = 4.96969 6.74529
  Final line search alpha, max atom move = 0.000626576 0.00422643
  Iterations, force evaluations = 41 299

MPI task timing breakdown:
Section |  min time  |  avg time  |  max time  |%varavg| %total
---------------------------------------------------------------
Pair    | 2.526      | 2.6211     | 2.6842     |   2.9 | 90.14
Neigh   | 0          | 0          | 0          |   0.0 |  0.00
Comm    | 0.009708   | 0.072738   | 0.16779    |  17.7 |  2.50
Output  | 0.00011107 | 0.00014117 | 0.00022759 |   0.0 |  0.00
Modify  | 0.21054    | 0.21069    | 0.21077    |   0.0 |  7.25
Other   |            | 0.003175   |            |       |  0.11

Nlocal:    7.375 ave 12 max 3 min
Histogram: 1 0 2 1 0 1 1 0 1 1
Nghost:    1150.62 ave 1168 max 1133 min
Histogram: 1 1 0 1 1 1 0 1 1 1
Neighs:    2083.38 ave 3432 max 817 min
Histogram: 1 0 2 1 0 1 1 0 1 1

Total # of neighbors = 16667
Ave neighs/atom = 282.492
Neighbor list builds = 0
Dangerous builds = 0

###
fix 1 all box/relax aniso 0.0
min_style cg
minimize 1.0e-8 1.0e-8 100000 100000
WARNING: Using 'neigh_modify every 1 delay 0 check yes' setting during minimization (../min.cpp:190)
Per MPI rank memory allocation (min/avg/max) = 28.7 | 29.15 | 29.43 Mbytes
Step Temp E_pair E_mol TotEng Press Volume 
    2393            0   -11280.246            0   -11280.246    22736.038    1468.6806 
    2500            0   -11280.718            0   -11280.718   -451.90446      1470.19 
Loop time of 1.75946 on 8 procs for 107 steps with 59 atoms

99.3% CPU use with 8 MPI tasks x no OpenMP threads

Minimization stats:
  Stopping criterion = energy tolerance
  Energy initial, next-to-last, final = 
        -11280.2463754     -11280.7180562     -11280.7181587
  Force two-norm initial, final = 889.308 22.8972
  Force max component initial, final = 705.73 12.8138
  Final line search alpha, max atom move = 8.69823e-06 0.000111457
  Iterations, force evaluations = 107 187

MPI task timing breakdown:
Section |  min time  |  avg time  |  max time  |%varavg| %total
---------------------------------------------------------------
Pair    | 1.5713     | 1.6305     | 1.6699     |   2.3 | 92.67
Neigh   | 0          | 0          | 0          |   0.0 |  0.00
Comm    | 0.004438   | 0.043825   | 0.10297    |  14.1 |  2.49
Output  | 0.00023269 | 0.00030362 | 0.00050079 |   0.0 |  0.02
Modify  | 0.078876   | 0.078939   | 0.07897    |   0.0 |  4.49
Other   |            | 0.005932   |            |       |  0.34

Nlocal:    7.375 ave 12 max 3 min
Histogram: 1 0 2 1 0 1 1 0 1 1
Nghost:    1152.12 ave 1170 max 1134 min
Histogram: 1 1 0 1 1 1 0 1 1 1
Neighs:    2083.38 ave 3428 max 817 min
Histogram: 1 0 2 1 0 1 1 0 1 1

Total # of neighbors = 16667
Ave neighs/atom = 282.492
Neighbor list builds = 0
Dangerous builds = 0

unfix 1
###
min_style cg
minimize 1.0e-8 1.0e-8 100000 100000
WARNING: Using 'neigh_modify every 1 delay 0 check yes' setting during minimization (../min.cpp:190)
Per MPI rank memory allocation (min/avg/max) = 28.7 | 29.15 | 29.43 Mbytes
Step Temp E_pair E_mol TotEng Press 
    2500            0   -11280.718            0   -11280.718   -451.91504 
    2535            0    -11281.12            0    -11281.12    19901.322 
Loop time of 2.3937 on 8 procs for 35 steps with 59 atoms

99.2% CPU use with 8 MPI tasks x no OpenMP threads

Minimization stats:
  Stopping criterion = energy tolerance
  Energy initial, next-to-last, final = 
         -11280.718161     -11281.1194731      -11281.119507
  Force two-norm initial, final = 13.6458 16.3813
  Force max component initial, final = 4.08045 4.73311
  Final line search alpha, max atom move = 0.0371306 0.175743
  Iterations, force evaluations = 35 246

MPI task timing breakdown:
Section |  min time  |  avg time  |  max time  |%varavg| %total
---------------------------------------------------------------
Pair    | 2.0815     | 2.1591     | 2.2105     |   2.6 | 90.20
Neigh   | 0          | 0          | 0          |   0.0 |  0.00
Comm    | 0.0072696  | 0.058657   | 0.13618    |  16.0 |  2.45
Output  | 7.3629e-05 | 9.6825e-05 | 0.00016601 |   0.0 |  0.00
Modify  | 0.1731     | 0.17321    | 0.17327    |   0.0 |  7.24
Other   |            | 0.002634   |            |       |  0.11

Nlocal:    7.375 ave 12 max 3 min
Histogram: 1 0 2 1 0 1 1 0 1 1
Nghost:    1152.12 ave 1170 max 1134 min
Histogram: 1 1 0 1 1 1 0 1 1 1
Neighs:    2082.12 ave 3427 max 817 min
Histogram: 1 0 2 1 0 1 1 0 1 1

Total # of neighbors = 16657
Ave neighs/atom = 282.322
Neighbor list builds = 0
Dangerous builds = 0

undump 1
#############
#----------- Thermo ------------
reset_timestep 0
thermo  200

thermo_style    custom step temp etotal ke pe press
velocity all create 300 12345 mom yes rot yes
fix 1 all npt temp 300 300 25.0 iso 0.0 0.0 250.0

variable vpe equal pe
variable vtemp equal temp
variable vstep equal step

fix output all print 2500 "${vstep} ${vtemp} ${vpe}" file temp-tpdh-Pt.dat screen no

dump 1 all custom 2500 thermo-tpdh-Pt.lammpstrj id type x y z

run 1000000
Per MPI rank memory allocation (min/avg/max) = 27.57 | 28.03 | 28.31 Mbytes
Step Temp TotEng KinEng PotEng Press 
       0          300   -11229.253    51.866095    -11281.12    21513.995 
     200    216.92152   -11208.399    37.502908   -11245.901    4138.3301 
     400    362.39634   -11180.487     62.65361   -11243.141   -7359.6631 
     600    234.62852   -11188.009    40.564217   -11228.573   -8594.2756 
     800     356.2208     -11171.4    61.585939   -11232.986   -6639.0233 
    1000    263.49463   -11185.471    45.554791   -11231.026    62289.479 
    1200     347.1523   -11178.759    60.018113   -11238.777    25765.964 
    1400    307.88339   -11191.115     53.22903   -11244.344    -6639.729 
    1600    310.12443   -11185.194    53.616477   -11238.811    214.58051 
    1800    348.78571   -11167.337     60.30051   -11227.637   -20599.238 
    2000    311.53429   -11183.763    53.860223   -11237.624   -61652.228 
    2200     267.1222   -11189.335    46.181951   -11235.517     16408.91 
    2400    310.51053   -11171.829    53.683229   -11225.512     4837.616 
    2600     241.6788    -11184.69    41.783119   -11226.473   -6657.5213 
    2800    378.06082   -11178.498    65.361795   -11243.859    22596.479 
    3000    301.94444    -11179.64    52.202264   -11231.843   -12275.083 
    3200    296.08099   -11186.339     51.18855   -11237.527    40403.634 
    3400    364.73414   -11174.529    63.057784   -11237.587    24530.154 
    3600    352.09897   -11171.944    60.873328   -11232.818   -25268.186 
    3800    265.15383    -11186.56    45.841646   -11232.402   -25349.888 
    4000     290.6545   -11170.308     50.25038   -11220.559    17883.902 
    4200    300.44326   -11182.399    51.942729   -11234.342   -1573.0421 
    4400     293.5687   -11184.657    50.754207   -11235.411   -19956.253 
    4600    323.83713   -11178.894    55.987224   -11234.881   -20521.337 
    4800    387.97049   -11154.897    67.075048   -11221.972    15616.179 
    5000    289.36565   -11178.181    50.027554   -11228.208   -859.36199 
    5200    285.08823   -11176.252    49.288045   -11225.541    52598.077 
    5400    294.98523   -11159.831    50.999106    -11210.83    -677.7584 
    5600    310.43224    -11172.02    53.669693    -11225.69    4088.3264 
    5800    292.70756   -11184.984    50.605326   -11235.589   -11007.981 
    6000    378.17851   -11169.369    65.382142   -11234.751   -10230.589 
    6200     308.8542   -11179.521    53.396871   -11232.918    26280.681 
    6400    302.66863   -11182.426    52.327466   -11234.753    30869.768 
    6600    334.06525   -11166.465    57.755533    -11224.22   -5306.4836 
    6800    356.14956   -11167.354    61.573622   -11228.927    20261.927 
    7000    287.29453    -11180.73    49.669485     -11230.4     16973.05 
    7200     288.5388   -11165.987    49.884603   -11215.872   -2615.9004 
    7400    330.10046   -11176.448    57.070073   -11233.518    42728.185 
    7600    281.88078   -11184.908    48.733517   -11233.641    8695.2784 
    7800    345.69422   -11176.853    59.766031   -11236.619   -36736.707 
    8000    282.32758   -11195.255    48.810764   -11244.066     21356.81 
    8200    315.58018   -11179.395    54.559705   -11233.955    39286.897 
    8400    311.35435   -11172.625    53.829114   -11226.454    29741.649 
    8600    305.79047   -11188.426    52.867192   -11241.293   -31173.567 
    8800    306.51124   -11173.268    52.991804   -11226.259    28755.427 
    9000    349.05972   -11177.687    60.347882   -11238.035   -6625.2373 
    9200    293.66225   -11187.825     50.77038   -11238.595   -32675.213 
    9400    353.04656   -11171.364    61.037155   -11232.401     -10937.6 
    9600    299.21804   -11184.722    51.730905   -11236.453   -4478.6237 
    9800    280.01952   -11188.352    48.411731   -11236.764   -30709.892 
   10000    311.24872   -11180.328    53.810852   -11234.139   -1190.9476 
   10200    312.37982   -11171.554    54.006405    -11225.56    19663.947 
   10400    270.60025   -11191.015     46.78326   -11237.799     35241.16 
   10600    320.76786   -11181.692    55.456588   -11237.149   -51377.661 
   10800     299.8733   -11180.469     51.84419   -11232.313    36943.351 
   11000    328.09058   -11164.045    56.722591   -11220.767    32668.101 
   11200    303.54691   -11182.278    52.479309   -11234.758   -8201.2263 
   11400    272.51755   -11182.623    47.114737   -11229.737   -45972.644 
   11600    311.50869   -11164.801    53.855798   -11218.657      38717.9 
   11800    292.65667   -11169.174    50.596529   -11219.771    57935.009 
   12000    270.75797   -11180.478    46.810528   -11227.288   -44758.194 
   12200     282.3541   -11181.475    48.815348    -11230.29    25498.278 
   12400    284.49026   -11192.481    49.184663   -11241.666    45635.546 
   12600    305.03309   -11177.743     52.73625    -11230.48   -66046.901 
   12800    326.47432   -11178.649     56.44316   -11235.093   -15977.386 
   13000    202.48432   -11197.182    35.006902   -11232.189    5788.3843 
   13200    284.89136   -11183.539    49.254008   -11232.793    13489.832 
   13400    266.81835   -11175.148     46.12942   -11221.278   -4698.2513 
   13600    322.05474   -11170.155    55.679072   -11225.834   -62890.865 
   13800    257.62054   -11188.034    44.539239   -11232.574   -27236.487 
   14000    339.37737   -11179.009     58.67393   -11237.683   -13149.593 
   14200    308.54884   -11168.889    53.344078   -11222.233   -38816.061 
   14400    271.86633   -11179.784     47.00215   -11226.787   -10550.927 
   14600    314.11135   -11178.043    54.305764   -11232.349    85705.536 
   14800    325.43331     -11164.1    56.263183   -11220.363   -5912.4762 
   15000    273.75712   -11180.061    47.329043    -11227.39    26039.925 
   15200     268.0783   -11181.793    46.347248    -11228.14   -6217.5324 
   15400    300.90344   -11178.482    52.022288   -11230.504    14961.187 
   15600    301.32086   -11185.517    52.094455   -11237.612    14716.024 
   15800    295.58833   -11183.354    51.103375   -11234.457   -16652.358 
   16000    311.35764   -11169.718    53.829683   -11223.547   -53876.646 
   16200    268.27669     -11181.1    46.381547   -11227.482    15764.393 
   16400    295.43681   -11175.476    51.077179   -11226.553    37182.918 
   16600    314.62594   -11176.967     54.39473   -11231.362   -16733.648 
   16800    253.52104   -11190.037    43.830488   -11233.867   -39161.456 
   17000    300.62117   -11177.474    51.973487   -11229.447   -6695.1591 
   17200    305.08363   -11170.132    52.744989   -11222.877    59436.335 
   17400      287.921   -11188.627    49.777793   -11238.405   -6421.4225 
   17600    284.20155    -11179.06    49.134748   -11228.195     15149.65 
   17800    307.38547   -11171.711    53.142946   -11224.854   -1129.3586 
   18000    295.53226    -11179.35    51.093681   -11230.444   -5567.3699 
   18200     310.5407   -11184.791    53.688444   -11238.479    19634.159 
   18400    324.10777   -11188.009    56.034015   -11244.043   -16156.244 
   18600    304.52361   -11178.722    52.648168    -11231.37    2548.3809 
   18800    283.45815   -11189.284    49.006224    -11238.29   -16216.155 
   19000    267.84663   -11191.266    46.307195   -11237.573    30866.125 
   19200    279.72628   -11180.671    48.361033   -11229.032   -17370.164 
   19400    313.40154    -11182.17    54.183047   -11236.353    36170.129 
   19600    266.77311   -11190.167    46.121599   -11236.288    41479.477 
   19800     382.1939   -11165.815     66.07635   -11231.892   -35126.501 
   20000    256.38693   -11182.791    44.325963   -11227.116   -16897.612 
   20200    259.61696   -11189.356    44.884392    -11234.24    97164.312 
   20400    326.39066    -11172.73    56.428697   -11229.159    -59442.75 
   20600    287.59726   -11174.206    49.721823   -11223.928    50851.594 
   20800    296.87939   -11189.447    51.326582   -11240.774   -12923.878 
   21000    269.07448   -11182.404    46.519474   -11228.923   -33709.528 
   21200    327.30677   -11171.874    56.587079   -11228.461   -4430.0344 
   21400    291.82899    -11189.91    50.453434   -11240.363   -12084.753 
   21600    311.77866   -11181.436    53.902471   -11235.338   -4605.5187 
   21800    316.04484   -11179.243    54.640039   -11233.883   -9111.5836 
   22000    353.16522   -11179.577     61.05767   -11240.635    89322.594 
   22200    233.59715   -11197.814    40.385907     -11238.2    15541.075 
   22400    278.48869   -11187.638    48.147069   -11235.785   -8388.5651 
   22600    365.94842   -11181.955    63.267719   -11245.222    39862.633 
   22800    283.10341   -11197.272    48.944894   -11246.217    40043.766 
   23000    246.39693   -11203.304    42.598823   -11245.903   -3040.5052 
   23200    271.00716   -11183.278    46.853611   -11230.131    22579.427 
   23400    290.52953   -11184.562    50.228774   -11234.791    20890.034 
   23600    292.75003   -11183.314     50.61267   -11233.927   -31794.355 
   23800    348.52582   -11183.587    60.255577   -11243.842   -6999.6205 
   24000    249.08172   -11190.964    43.062986   -11234.027   -7609.3229 
   24200    311.54486   -11178.771     53.86205   -11232.633    51175.226 
   24400    301.97937   -11171.404    52.208302   -11223.612   -23686.649 
   24600     267.1288   -11187.283    46.183091   -11233.466   -48613.177 
   24800    280.30515   -11185.919    48.461112    -11234.38   -32732.431 
   25000    335.37045   -11173.187    57.981186   -11231.168    32692.976 
   25200    258.31254   -11186.721    44.658875    -11231.38    1545.8981 
   25400    327.68235   -11181.015    56.652014   -11237.667   -25523.378 
   25600    236.61865   -11175.661    40.908285   -11216.569   -58704.211 
   25800     284.8375   -11186.954    49.244697   -11236.199    17105.315 
   26000     305.6946   -11195.004    52.850618   -11247.855    13437.597 
   26200    317.10179   -11178.879    54.822772   -11233.702    25096.233 
   26400    312.07213   -11187.014    53.953209   -11240.968   -64520.242 
   26600    308.47251   -11191.596    53.330882   -11244.927   -4069.6378 
   26800    269.23557   -11186.908    46.547325   -11233.455    40966.016 
   27000    334.16029       -11179    57.771965   -11236.772   -40543.725 
   27200    364.52981   -11164.734    63.022459   -11227.757     1124.029 
   27400    273.82326   -11187.621    47.340478   -11234.961   -31221.756 
   27600    290.56071   -11182.091    50.234165   -11232.325    1712.4993 
   27800    316.99848    -11173.49    54.804911   -11228.295   -55895.272 
   28000    316.68291   -11184.441    54.750352   -11239.192    8882.0333 
   28200    272.02842   -11182.726    47.030174   -11229.756   -47316.223 
   28400      304.623    -11169.93    52.665351   -11222.596   -22273.358 
   28600    274.48756   -11190.394    47.455327    -11237.85    54202.635 
   28800    299.13386   -11182.478     51.71635   -11234.194    29608.394 
   29000     365.6419   -11175.452    63.214724   -11238.667       -46766 
   29200     242.6478   -11197.474    41.950647   -11239.424    60783.537 
   29400    309.47865   -11180.699    53.504829   -11234.204    8746.0046 
   29600    334.06351   -11179.464    57.755233    -11237.22    1266.4736 
   29800    252.43374   -11199.574    43.642508   -11243.216   -38165.149 
   30000    296.56403   -11185.951     51.27206   -11237.223   -18062.852 
   30200    278.24255   -11182.527    48.104514   -11230.631    18025.364 
   30400     255.6525   -11194.326    44.198989   -11238.525    -53036.83 
   30600    262.64832   -11196.255    45.408476   -11241.663   -8077.0863 
   30800    277.52031   -11182.133    47.979649   -11230.113    2714.8577 
   31000    335.10576   -11169.538    57.935424   -11227.473   -23812.091 
   31200      271.161   -11188.883    46.880206   -11235.763    474.29555 
   31400    307.71018   -11185.106    53.199085   -11238.305   -5228.4039 
   31600    358.30508   -11168.319    61.946284   -11230.265   -3607.2617 
   31800    316.16048   -11180.842    54.660031   -11235.502   -9946.0479 
   32000    279.08334   -11191.879    48.249877   -11240.129     4456.184 
   32200    276.13773   -11201.582    47.740618   -11249.323    6582.2609 
   32400    329.91176   -11179.413    57.037449   -11236.451    -34284.35 
   32600     319.5297   -11177.417    55.242526    -11232.66    6269.5527 
   32800    268.99382    -11197.63     46.50553   -11244.136    17853.262 
   33000    313.18467   -11185.459    54.145553   -11239.605    39326.447 
   33200    299.36372   -11182.073    51.756091   -11233.829   -37921.188 
   33400    286.62154   -11185.815    49.553134   -11235.368    19603.838 
   33600    255.86508   -11198.875    44.235742   -11243.111    25956.027 
   33800    285.25221   -11187.731    49.316394   -11237.048   -31739.888 
   34000    328.46639   -11182.163    56.787563    -11238.95    -5204.506 
   34200     268.0611   -11195.181    46.344274   -11241.525    -66311.18 
   34400      302.381   -11183.005    52.277739   -11235.282    4255.8398 
   34600    325.21524   -11178.563    56.225482   -11234.789   -37505.524 
   34800    299.00824   -11194.592    51.694633   -11246.287    14227.025 
   35000    230.21164   -11190.578    39.800595   -11230.378   -496.07673 
   35200     296.2018   -11183.352    51.209435   -11234.561    88325.108 
   35400      327.359   -11170.613     56.59611   -11227.209   -41686.114 
   35600    334.69985   -11177.755    57.865247   -11235.621    4449.5211 
   35800    260.48932   -11188.505    45.035212    -11233.54   -47971.761 
   36000    290.74901   -11188.512     50.26672   -11238.779    20768.373 
   36200     248.4425   -11192.871    42.952475   -11235.823   -13207.521 
   36400    351.51373    -11174.81    60.772148   -11235.582   -46357.967 
   36600    271.60484    -11186.24    46.956941   -11233.197   -36457.078 
   36800    239.30974   -11204.959    41.373539   -11246.333    5482.6062 
   37000    251.43054   -11195.207    43.469067   -11238.676    2356.6482 
   37200    319.55442   -11180.902    55.246799   -11236.149    301.51816 
   37400    299.35365   -11183.978    51.754349   -11235.733   -10009.193 
   37600     239.3955   -11198.277    41.388365   -11239.665   -42261.932 
   37800    306.89246    -11176.33    53.057711   -11229.387     -15421.6 
   38000    323.05384    -11182.59    55.851804   -11238.442   -13152.899 
   38200    286.99242   -11190.431    49.617254   -11240.049    27091.822 
   38400    251.40865   -11177.919    43.465284   -11221.384    54088.427 
   38600    321.65204   -11181.467    55.609451   -11237.076   -24564.867 
   38800    260.06618   -11192.677    44.962057   -11237.639    -23586.67 
   39000    321.50351   -11174.212    55.583773   -11229.796   -31205.586 
   39200    298.78391    -11192.83    51.655849   -11244.486   -18956.938 
   39400    307.94587   -11189.728    53.239832   -11242.968   -16532.807 
   39600    368.18519   -11171.713    63.654427   -11235.368    7318.8596 
   39800    352.70206   -11181.653    60.977595    -11242.63   -35567.266 
   40000    314.94074   -11186.873    54.449155   -11241.322    12691.586 
   40200    319.27369   -11170.668    55.198265   -11225.867   -30135.568 
   40400    322.43873   -11178.404     55.74546   -11234.149    20612.553 
   40600    286.53331   -11187.371    49.537879   -11236.908   -18323.704 
   40800    305.59872   -11191.676    52.834041    -11244.51   -16202.364 
   41000    326.74628   -11181.251    56.490179   -11237.741   -7611.8907 
   41200    291.90122   -11180.962    50.465921   -11231.428   -60841.889 
   41400    273.62279   -11198.881    47.305818   -11246.187    -18229.53 
   41600    290.09885   -11189.386    50.154315   -11239.541   -20197.957 
   41800    280.45194   -11184.747    48.486489   -11233.233   -50360.637 
   42000    401.46165   -11218.752    69.407494   -11288.159   -1614.0421 
   42200    329.76067   -11253.138    57.011327   -11310.149   -33013.492 
   42400    260.46959   -11263.891    45.031801   -11308.923    -53980.13 
   42600    295.12422   -11255.537    51.023136    -11306.56    71334.521 
   42800    308.95745   -11252.298    53.414721   -11305.713    17010.791 
   43000    321.36553   -11248.575    55.559917   -11304.134   -43759.846 
   43200    249.50652   -11262.727     43.13643   -11305.864    7299.9155 
   43400    281.70158   -11257.175    48.702536   -11305.878   -14118.223 
   43600    321.63636   -11249.471    55.606739   -11305.078   -21514.022 
   43800    326.37133   -11253.919    56.425354   -11310.345    19075.002 
   44000     287.3085   -11262.119    49.671899   -11311.791    38718.011 
   44200    316.46243   -11247.777    54.712235   -11302.489    24067.161 
   44400     288.8474   -11259.783    49.937955   -11309.721   -43159.139 
   44600    231.68964   -11263.629    40.056123   -11303.685    24230.291 
   44800    288.47228   -11249.905    49.873102   -11299.778   -6867.8857 
   45000     300.0795   -11262.359    51.879839   -11314.239   -13910.452 
   45200    293.09803   -11255.487    50.672834   -11306.159   -49348.613 
   45400    310.48423   -11247.358    53.678682   -11301.036    13180.103 
   45600    262.58715   -11258.942      45.3979    -11304.34    49356.744 
   45800    345.14031   -11243.142    59.670267   -11302.813    17535.164 
   46000     237.7469    -11252.35    41.103345   -11293.453   -41387.466 
   46200    259.55234   -11252.493    44.873221   -11297.366    14602.551 
   46400    309.30501   -11263.442    53.474809   -11316.916   -55624.538 
   46600    332.95711   -11246.336    57.563951     -11303.9   -16585.844 
   46800    297.11105    -11252.25    51.366633   -11303.616   -40593.514 
   47000     283.6766   -11260.595    49.043991   -11309.639    3626.4392 
   47200    308.42187   -11234.793    53.322127   -11288.115    2867.9723 
   47400    313.86449    -11246.92    54.263085   -11301.183    71629.963 
   47600    315.24501   -11253.052    54.501759   -11307.553   -18891.967 
   47800    363.38811   -11234.323    62.825074   -11297.148    -11330.81 
   48000    327.35556    -11253.54    56.595515   -11310.136   -24335.443 
   48200    326.73753   -11250.926    56.488665   -11307.415   -39595.871 
   48400    358.72658    -11239.03    62.019156   -11301.049   -43433.601 
   48600    303.79157   -11261.406    52.521608   -11313.928   -36501.381 
   48800     254.2764   -11256.814    43.961079   -11300.775    7202.7505 
   49000    335.00892   -11245.102    57.918681   -11303.021    36055.834 
   49200     287.5299   -11259.899    49.710178   -11309.609    35283.545 
   49400    335.64671   -11256.015    58.028947   -11314.044   -51503.946 
   49600    309.78527   -11253.149     53.55784   -11306.707    30062.713 
   49800    336.89806   -11247.115    58.245289   -11305.361   -37026.612 
   50000    264.41794   -11264.398     45.71442   -11310.112   -42360.039 
   50200    305.86984   -11248.302    52.880913   -11301.183     -48233.6 
   50400    286.80209   -11252.779    49.584348   -11302.363    56919.512 
   50600    239.13576   -11252.347    41.343461    -11293.69   -14393.977 
   50800    331.35916   -11235.953    57.287685    -11293.24    9909.9087 
   51000    306.71405   -11257.224    53.026867   -11310.251   -16192.451 
   51200    314.20486   -11252.412     54.32193   -11306.734   -2507.1837 
   51400    266.19141    -11239.42     46.02103   -11285.441    3702.3764 
   51600      282.077   -11246.814    48.767441   -11295.582   -9600.5087 
   51800    302.97595   -11249.617    52.380597   -11301.998   -22645.409 
   52000    250.23075   -11263.037    43.261639   -11306.298    1598.0485 
   52200    310.01838   -11244.619    53.598143   -11298.217    14072.724 
   52400    293.51154   -11250.491    50.744325   -11301.235   -46665.859 
   52600    324.35399    -11243.53    56.076582   -11299.607    14683.942 
   52800    243.68025   -11246.317    42.129143   -11288.446    75774.592 
   53000    253.58558   -11256.651    43.841647   -11300.493   -87113.125 
   53200    320.88236    -11251.73    55.476383   -11307.206    30421.447 
   53400    358.85966   -11240.088    62.042164   -11302.131   -35742.473 
   53600    320.95262    -11228.26    55.488531   -11283.748    1227.9135 
   53800     308.4828    -11249.59     53.33266   -11302.922   -18633.163 
   54000    228.79396   -11257.043    39.555497   -11296.598   -15664.167 
   54200    330.82095   -11239.307    57.194636   -11296.502   -27895.087 
   54400    244.80167   -11255.694    42.323022   -11298.017   -6537.0816 
   54600    307.57331   -11244.297    53.175422   -11297.472   -15682.848 
   54800    287.97487   -11252.621    49.787107   -11302.408   -46528.953 
   55000    284.94654   -11253.181    49.263548   -11302.445    20388.782 
   55200    305.23624   -11238.684    52.771373   -11291.456   -49034.905 
   55400    348.58775   -11232.802    60.266284   -11293.068    -10129.54 
   55600    266.39524   -11254.425    46.056269   -11300.481    28645.412 
   55800     309.1529   -11240.081    53.448512    -11293.53   -3387.1946 
   56000    297.46981   -11251.953    51.428657   -11303.382   -8267.7208 
   56200    307.15855   -11259.598    53.103716   -11312.702   -42393.568 
   56400    287.13215   -11254.733    49.641411   -11304.375    7115.0571 
   56600    354.99037   -11245.132    61.373214   -11306.505    38073.562 
   56800     284.1574   -11252.792    49.127116   -11301.919    4924.5015 
   57000    250.83596   -11255.016    43.366272   -11298.382    155.13134 
   57200    294.28077   -11244.463    50.877315    -11295.34   -2470.2714 
   57400    341.45044   -11247.384    59.032337   -11306.417   -16907.125 
   57600    241.92208    -11262.78    41.825179   -11304.605    28944.696 
   57800    380.65136   -11246.033    65.809665   -11311.843    17979.875 
   58000    300.68329   -11254.438    51.984226   -11306.423    3104.1617 
   58200    286.11429   -11257.988    49.465436   -11307.453    23845.234 
   58400     323.7861   -11242.511    55.978402    -11298.49    38903.448 
   58600     320.4228    -11258.23    55.396931   -11313.627   -24865.417 
   58800    293.26754   -11257.154     50.70214   -11307.856     20911.11 
   59000    266.88512       -11248    46.140962   -11294.141    -1975.637 
   59200    326.69546   -11248.869    56.481393    -11305.35   -17033.603 
   59400    305.61344   -11241.762    52.836585   -11294.599    3988.0177 
   59600    301.95079   -11254.961    52.203361   -11307.164    82239.271 
   59800    353.02327   -11246.928    61.033128   -11307.962   -4251.6043 
   60000    311.28509   -11247.436     53.81714   -11301.254    44392.297 
   60200    263.21935    -11251.07    45.507199   -11296.577    111903.22 
   60400    313.32203   -11245.617      54.1693   -11299.787    37852.032 
   60600    246.05673   -11268.543    42.540005   -11311.083   -64751.372 
   60800    242.84075   -11257.152    41.984005   -11299.136   -41785.478 
   61000    317.83732   -11244.679    54.949936   -11299.629    30792.678 
   61200    332.25691    -11255.22    57.442895   -11312.662   -41179.826 
   61400    329.59596    -11255.36    56.982852   -11312.343   -22888.542 
   61600    318.86323   -11237.874    55.127302   -11293.001   -72618.625 
   61800    263.46476    -11258.58    45.549627    -11304.13   -29725.499 
   62000    289.24923   -11257.435    50.007426   -11307.442   -31456.427 
   62200    324.33506   -11237.587     56.07331    -11293.66    11586.076 
   62400    313.16902   -11251.768    54.142846   -11305.911   -6903.3301 
   62600    325.30161    -11255.11    56.240413    -11311.35   -32578.213 
   62800    329.85913   -11230.614     57.02835   -11287.642   -12693.967 
   63000    310.21216   -11249.795    53.631645   -11303.427   -10983.561 
   63200    326.05735   -11253.262    56.371071   -11309.633   -27861.207 
   63400    337.70561   -11238.786    58.384903   -11297.171    51395.132 
   63600    277.30631   -11255.471    47.942651   -11303.413    -42852.01 
   63800    267.45182    -11248.42    46.238938   -11294.659   -54923.771 
   64000    323.68408   -11245.949    55.960763   -11301.909    38214.494 
   64200    301.55963   -11253.566    52.135735   -11305.702   -61090.835 
   64400    266.47152   -11250.177    46.069456   -11296.247    23917.603 
   64600    366.76071   -11233.352    63.408153    -11296.76    13855.415 
   64800    313.34375   -11249.832    54.173056   -11304.005   -17592.548 
   65000    251.75425   -11244.945    43.525033    -11288.47    74542.754 
   65200    316.64998   -11243.535     54.74466    -11298.28   -20490.204 
   65400     311.4032    -11258.17    53.837561   -11312.007   -4946.6879 
   65600    332.73044    -11244.87    57.524761   -11302.395    13761.913 
   65800    333.88023   -11236.765    57.723546   -11294.488   -3091.5496 
   66000    273.28913   -11259.156    47.248133   -11306.404    56722.907 
   66200    297.81327   -11245.004    51.488037   -11296.492   -35652.725 
   66400    302.32887   -11251.888    52.268726   -11304.157   -15737.064 
   66600    290.13615   -11253.276    50.160764   -11303.437   -14659.897 
   66800    316.86522   -11253.369    54.781872   -11308.151    30661.335 
   67000     358.9208   -11243.863    62.052733   -11305.915   -16436.969 
   67200    334.13335   -11234.855    57.767307   -11292.623     86154.33 
   67400    337.33594   -11245.338    58.320992   -11303.659   -41578.307 
   67600    309.18166   -11254.974    53.453484   -11308.428     -29228.7 
   67800     272.3026   -11251.807    47.077574   -11298.885    35998.678 
   68000    266.53183   -11245.876    46.079884   -11291.956    47811.455 
   68200    372.75781   -11229.846    64.444973   -11294.291   -12275.435 
   68400    277.81584   -11259.138    48.030742   -11307.169   -22623.363 
   68600    258.39634   -11251.607    44.673363    -11296.28    12762.255 
   68800    265.67873   -11244.754    45.932394   -11290.686    24158.033 
   69000    294.94912   -11257.772    50.992863   -11308.765     -6989.31 
   69200    245.82113   -11264.791    42.499273   -11307.291    38424.758 
   69400     310.2562   -11241.766    53.639258   -11295.406   -5916.5232 
   69600    304.96872   -11252.659    52.725121   -11305.384    23050.696 
   69800    314.24697    -11255.26    54.329211   -11309.589    1939.8547 
   70000    310.96817   -11240.215    53.762348   -11293.977    3487.1944 
   70200    318.03579   -11244.231    54.984248   -11299.215    4451.6204 
   70400    289.77026   -11254.076    50.097505   -11304.174    11105.985 
   70600    289.23511   -11255.207    50.004985   -11305.212    65346.125 
   70800    343.34243    -11240.61    59.359437   -11299.969    19123.412 
   71000    272.31439    -11261.43    47.079613    -11308.51    32146.239 
   71200    299.80681   -11249.957    51.832694    -11301.79    3074.0414 
   71400    282.68899   -11241.371    48.873247   -11290.244   -55776.056 
   71600    375.86476   -11228.746    64.982124   -11293.729   -40333.027 
   71800    282.03476   -11254.037    48.760138   -11302.797   -19285.895 
   72000    299.06663   -11251.786    51.704727   -11303.491    2769.8091 
   72200    310.76066   -11234.079    53.726473   -11287.806    87092.414 
   72400    331.46579   -11239.618     57.30612   -11296.924    69975.648 
   72600    328.36975   -11248.054    56.770856   -11304.825    -38485.74 
   72800    343.34471   -11243.063    59.359831   -11302.423    38353.318 
   73000    348.80613   -11238.104    60.304039   -11298.408   -27695.809 
   73200    275.50539   -11254.843    47.631296   -11302.475   -44487.351 
   73400    312.14284   -11247.504    53.965434   -11301.469    75307.201 
   73600    337.07738   -11242.847    58.276292   -11301.123   -25051.812 
   73800    298.53766   -11256.886    51.613275   -11308.499   -1103.2727 
   74000    293.23852   -11254.844    50.697123   -11305.541    10537.036 
   74200    315.79159   -11244.658    54.596256   -11299.255   -10366.502 
   74400    280.79353   -11262.114    48.545546   -11310.659   -14090.671 
   74600    286.52233   -11251.671    49.535981   -11301.207    17449.392 
   74800     334.1306   -11248.694    57.766831    -11306.46    20311.035 
   75000     279.8278   -11253.586    48.378584   -11301.965    12444.798 
   75200    293.71002   -11259.701    50.778638   -11310.479    29084.167 
   75400    320.62667   -11239.586    55.432178   -11295.018    38829.609 
   75600    336.68827   -11248.219    58.209018   -11306.428   -14418.304 
   75800    244.47446   -11260.393    42.266452   -11302.659   -11692.032 
   76000    351.61115   -11249.845    60.788991   -11310.634    82278.186 
   76200     336.0356   -11232.569    58.096181   -11290.665    40333.815 
   76400    261.49525   -11238.997    45.209124   -11284.206    3391.5214 
   76600    260.32894   -11252.856    45.007485   -11297.863    14695.966 
   76800    427.43799   -11241.655    73.898464   -11315.553   -27645.374 
   77000    350.45671   -11242.278    60.589404   -11302.867   -20737.122 
   77200    268.25028   -11262.857    46.376982   -11309.234    -48862.81 
   77400     273.9184   -11249.558    47.356926   -11296.915    12624.882 
   77600     320.2991    -11247.26    55.375546   -11302.635    87166.731 
   77800    240.41471   -11266.207    41.564573   -11307.771    33191.892 
   78000     360.8448   -11250.625     62.38537    -11313.01   -26493.869 
   78200    257.15733   -11257.931    44.459155    -11302.39   -52116.505 
   78400    259.67766   -11261.416    44.894888    -11306.31    39551.078 
   78600    297.67971   -11247.383    51.464947   -11298.848   -27424.236 
   78800    259.65842   -11258.829    44.891561   -11303.721     15217.42 
   79000    316.64202   -11254.791    54.743284   -11309.534    3411.8729 
   79200    338.26953   -11246.789    58.482398   -11305.271   -4455.5304 
   79400    278.33283   -11262.697    48.120124   -11310.817    12339.253 
   79600    311.45596   -11249.738    53.846681   -11303.584   -15678.355 
   79800    302.82581   -11251.308    52.354641   -11303.662     50491.11 
   80000    257.76672   -11260.925    44.564511    -11305.49   -5627.0585 
   80200    263.74944   -11261.404    45.598845   -11307.003    58559.378 
   80400    317.88191   -11244.213    54.957645   -11299.171      15377.5 
   80600    265.27436   -11257.025    45.862483   -11302.888   -44682.942 
   80800    287.54126   -11259.062    49.712142   -11308.774    6761.8449 
   81000     348.4334   -11238.525      60.2396   -11298.765   -8012.7044 
   81200    310.20418   -11255.372    53.630265   -11309.002   -40356.791 
   81400     285.1976   -11259.267    49.306953   -11308.574    14689.494 
   81600    303.43206   -11254.053    52.459454   -11306.512   -53693.068 
   81800    378.72793   -11237.066    65.477129   -11302.543     40633.38 
   82000    258.53858   -11256.778    44.697954   -11301.476    20699.962 
   82200    303.37639   -11249.502    52.449828   -11301.952   -11895.362 
   82400     285.2594   -11243.856    49.317636   -11293.174   -52434.073 
   82600    259.75827   -11261.089    44.908824   -11305.998    19630.001 
   82800    299.77765   -11244.024    51.827653   -11295.851   -72697.977 
   83000    319.11941   -11246.127    55.171592   -11301.298    17981.206 
   83200    266.58065    -11266.29    46.088324   -11312.378    29722.505 
   83400    259.16498   -11264.972    44.806252   -11309.778    3050.4579 
   83600    317.18287   -11253.131     54.83679   -11307.968   -39598.844 
   83800     292.2962   -11246.437    50.534207   -11296.971   -48606.741 
   84000    261.71033   -11264.989    45.246309   -11310.235    1582.9088 
   84200    281.09017   -11253.075    48.596832   -11301.672    22162.136 
   84400    316.93752   -11244.915    54.794371    -11299.71    38813.358 
   84600    235.07688   -11261.955    40.641733   -11302.597   -62373.103 
   84800    240.77581   -11260.487    41.627002   -11302.114   -20427.147 
   85000    246.08755    -11251.17    42.545333   -11293.715   -19990.906 
   85200    320.68056   -11241.662    55.441494   -11297.103    9107.9917 
   85400    328.96617   -11240.571    56.873969   -11297.445    21644.867 
   85600    270.50919   -11252.823    46.767517    -11299.59    47453.235 
   85800    266.73111   -11251.658    46.114337   -11297.772    -15065.57 
   86000    271.18801   -11255.808    46.884876   -11302.693   -56116.296 
   86200    370.01678   -11241.838    63.971084   -11305.809   -33902.637 
   86400    317.91117   -11239.123    54.962703   -11294.086    6531.8049 
   86600    298.83724   -11254.855    51.665069    -11306.52   -28767.377 
   86800     310.9327   -11242.748    53.756216   -11296.504     1440.001 
   87000    329.90642   -11251.248    57.036525   -11308.285    -22680.89 
   87200    284.91465   -11255.634    49.258034   -11304.892    84136.055 
   87400    307.67728    -11241.21    53.193397   -11294.403   -13453.262 
   87600    300.12215   -11248.496    51.887214   -11300.383   -45915.567 
   87800    301.46654   -11258.318    52.119641   -11310.438     -22787.4 
   88000    322.11376   -11240.747    55.689276   -11296.436    51207.272 
   88200    332.03486   -11241.759    57.404505   -11299.163   -16747.549 
   88400    310.65426   -11254.579    53.708078   -11308.287   -58079.571 
   88600    266.62142   -11252.019    46.095372   -11298.115    12977.589 
   88800    297.83994   -11241.676    51.492649   -11293.168   -40227.891 
   89000    357.38103   -11234.086    61.786529   -11295.873   -64153.919 
   89200    325.21045   -11253.945    56.224653   -11310.169   -31628.798 
   89400    271.26609   -11255.511    46.898377    -11302.41   -6804.7972 
   89600    269.81337    -11253.75     46.64722   -11300.397    -29989.19 
   89800    357.31148    -11239.29    61.774503   -11301.064    27651.772 
   90000     307.2255     -11257.5     53.11529   -11310.615    30378.684 
   90200    292.45847   -11252.722    50.562262   -11303.284    35496.616 
   90400    344.15503    -11247.87    59.499925   -11307.369     9883.246 
   90600    307.15668   -11260.059    53.103391   -11313.162    501.70465 
   90800    333.80141   -11241.475    57.709919   -11299.185   -8427.4319 
   91000    284.79431   -11251.061    49.237229   -11300.298   -22756.725 
   91200    284.50283   -11256.151    49.186835   -11305.338   -23740.103 
   91400    335.63277   -11233.841    58.026537   -11291.868   -26314.462 
   91600    284.53689   -11250.625    49.192724   -11299.818    21042.681 
   91800     321.1636   -11251.059    55.525006   -11306.584    -58465.13 
   92000    311.66995   -11245.798    53.883677   -11299.682    24666.402 
   92200    310.21961   -11246.842    53.632932   -11300.474   -62323.707 
   92400    258.97171   -11261.965    44.772838   -11306.737   -49464.662 
   92600     319.9231   -11244.822    55.310539   -11300.132   -23731.519 
   92800    328.37839   -11250.328     56.77235   -11307.101    -29589.22 
   93000    253.25314   -11256.879    43.784172   -11300.663    25815.748 
   93200       287.73   -11245.382    49.744772   -11295.127    89359.813 
   93400    265.23143   -11246.221    45.855061   -11292.076   -56097.308 
   93600    270.42302   -11247.336    46.752619   -11294.089   -43277.251 
   93800    324.76271   -11248.704    56.147245   -11304.851    37432.343 
   94000    265.23449   -11258.176     45.85559   -11304.032   -19757.731 
   94200    359.61819   -11238.359    62.173304   -11300.533   -10351.677 
   94400    347.96267   -11249.925    60.158216   -11310.083    29624.725 
   94600    289.81976   -11257.994    50.106064     -11308.1   -10005.309 
   94800    315.04191   -11239.621    54.466645   -11294.087    21828.327 
   95000     290.4337   -11243.735    50.212207   -11293.947   -14400.395 
   95200    278.04955   -11261.162    48.071147   -11309.233   -229.33372 
   95400    265.99981   -11257.231    45.987904   -11303.219   -17788.189 
   95600    260.34889   -11249.444    45.010935   -11294.455   -12957.122 
   95800    348.40442    -11232.62    60.234589   -11292.855    12239.048 
   96000    263.09566   -11248.228    45.485814   -11293.714    24974.143 
   96200    295.92882   -11248.713    51.162241   -11299.876    4554.4657 
   96400     326.6946   -11255.774    56.481244   -11312.255    14191.847 
   96600    297.03559   -11250.552    51.353587   -11301.906    7047.6364 
   96800    338.22707   -11241.064    58.475058   -11299.539   -25413.225 
   97000    265.84352   -11249.925    45.960885   -11295.885   -12467.068 
   97200    361.05403   -11230.248    62.421541   -11292.669    -22113.46 
   97400    303.29324   -11253.253    52.435453   -11305.688    47241.249 
   97600     322.6834   -11250.736    55.787759   -11306.524    1421.8132 
   97800    292.11782   -11239.077    50.503368    -11289.58   -42699.536 
   98000    278.91529   -11258.355    48.220823   -11306.576   -23420.466 
   98200    327.15989   -11251.145    56.561687   -11307.707   -29016.826 
   98400    289.18451   -11250.175    49.996238   -11300.172    30041.372 
   98600    273.59932   -11256.929     47.30176    -11304.23    15439.596 
   98800    301.82374   -11257.875    52.181395   -11310.056    26883.853 
   99000    350.11249   -11239.178    60.529891   -11299.708    -26972.72 
   99200    278.41365   -11248.928    48.134096   -11297.062   -12531.276 
   99400    304.75468    -11249.62    52.688118   -11302.308    11674.877 
   99600    256.96626   -11263.722    44.426121   -11308.149    28016.625 
   99800    283.13279   -11251.696    48.949973   -11300.646   -22474.259 
  100000    269.27436   -11250.941    46.554032   -11297.495   -47214.675 
  100200    327.42705   -11244.249    56.607874   -11300.856   -49065.899 
  100400    299.43148   -11243.268    51.767806   -11295.036   -16222.453 
  100600    232.49452   -11263.186    40.195276   -11303.382   -48048.029 
  100800    312.32529   -11252.732    53.996977   -11306.729   -1669.1003 
  101000    292.68403   -11249.853    50.601258   -11300.454   -46734.973 
  101200    255.22075   -11265.014    44.124345   -11309.138    42106.656 
  101400    340.29656   -11249.013    58.832845   -11307.846    521.39394 
  101600    301.60607   -11257.801    52.143763   -11309.945    -26963.29 
  101800    254.99392   -11268.473    44.085129   -11312.558   -12937.037 
  102000    291.31385   -11251.462    50.364373   -11301.826   -14946.771 
  102200    296.29272    -11260.07    51.225154   -11311.295   -12352.364 
  102400    324.27753   -11254.179    56.063365   -11310.242    3966.5035 
  102600    325.18615   -11243.556    56.220453   -11299.776    25679.169 
  102800    270.63373   -11263.092     46.78905   -11309.881   -8153.9007 
  103000    323.36268   -11253.662    55.905198   -11309.568    54411.152 
  103200    290.60327   -11245.434    50.241522   -11295.675   -32428.634 
  103400    291.48531   -11249.698    50.394016   -11300.092   -65625.102 
  103600    272.52002   -11262.981    47.115164   -11310.096   -28231.518 
  103800    308.46624   -11246.057    53.329797   -11299.386   -63947.179 
  104000    292.81842   -11251.014    50.624493   -11301.639    39244.732 
  104200    238.84214   -11259.084    41.292697   -11300.377    -54130.89 
  104400    296.94784   -11251.347    51.338416   -11302.685    26246.872 
  104600     297.8897   -11248.742    51.501251   -11300.243   -34788.486 
  104800    341.50558   -11231.705    59.041869   -11290.746   -31734.664 
  105000    286.62759   -11247.919    49.554179   -11297.474   -18105.622 
  105200    317.99649   -11251.167    54.977453   -11306.145   -62128.398 
  105400    331.33531   -11240.386    57.283561    -11297.67    8446.6018 
  105600    298.37131   -11240.134    51.584515   -11291.718    29150.034 
  105800    322.60578   -11255.298     55.77434   -11311.073   -25757.693 
  106000    314.42661   -11243.318    54.360268   -11297.678   -16384.718 
  106200    297.56674   -11234.558    51.445416   -11286.003    -19609.14 
  106400    280.00827    -11249.75    48.409785    -11298.16   -56022.189 
  106600    324.21931   -11250.455    56.053298   -11306.508   -28423.144 
  106800    275.89454   -11248.064    47.698575   -11295.763    13454.751 
  107000    286.95932   -11258.938    49.611531    -11308.55   -50514.139 
  107200    283.66312   -11253.748    49.041661    -11302.79    25114.242 
  107400     329.5812   -11243.466      56.9803   -11300.447    14957.742 
  107600    273.94617   -11256.491    47.361728   -11303.853   -50547.027 
  107800    327.74401   -11234.926    56.662673   -11291.589   -64375.772 
  108000    287.87306   -11250.031    49.769504     -11299.8    30893.294 
  108200    289.56777   -11246.944    50.062498   -11297.007    2749.6816 
  108400    317.27146   -11238.245    54.852106   -11293.097   -22353.639 
  108600    337.22426   -11250.687    58.301685   -11308.989    20579.734 
  108800    256.88138   -11258.099    44.411446    -11302.51   -23227.002 
  109000     237.4625   -11258.925    41.054176   -11299.979    12919.602 
  109200    341.95269    -11244.73    59.119169    -11303.85    52344.708 
  109400    302.24574   -11258.049    52.254354   -11310.304   -11136.101 
  109600    324.42035   -11248.977    56.088056   -11305.065    11012.241 
  109800    314.05092   -11246.138    54.295317   -11300.433    34398.757 
  110000    259.99007   -11262.546    44.948899   -11307.494    599.63307 
  110200    283.95987   -11248.641    49.092966   -11297.734     -25607.9 
  110400    285.33655   -11247.239    49.330976    -11296.57    32593.054 
  110600    308.16762   -11245.833     53.27817   -11299.111    19631.305 
  110800    331.91323   -11240.076    57.383478   -11297.459   -34960.596 
  111000    267.31122    -11257.13    46.214631   -11303.345   -38190.305 
  111200     275.2277   -11246.596    47.583287    -11294.18   -68312.568 
  111400    328.18308    -11239.39    56.738582   -11296.128    20687.395 
  111600    297.71513   -11247.911    51.471071   -11299.382    18734.231 
  111800    239.87577   -11264.338    41.471398   -11305.809    3603.6182 
  112000    285.30026   -11262.937    49.324701   -11312.262   -19701.582 
  112200    296.35691   -11242.956    51.236252   -11294.193     22423.87 
  112400    308.59018   -11240.536    53.351226   -11293.887   -47803.735 
  112600    270.52727   -11256.848    46.770643   -11303.618   -37045.517 
  112800    291.87343   -11249.249    50.461118    -11299.71   -22113.396 
  113000    273.91899   -11246.749    47.357027   -11294.106   -35896.784 
  113200    333.79805   -11240.132    57.709338   -11297.841   -23162.384 
  113400    312.38036   -11242.002    54.006497   -11296.009   -23198.445 
  113600    282.95274   -11255.579    48.918845   -11304.498    -18744.16 
  113800     314.9611    -11244.33    54.452675   -11298.782   -4108.1772 
  114000    342.70478   -11214.998    59.249196   -11274.247    13897.751 
  114200    325.25145   -11236.777    56.231742   -11293.009    25876.578 
  114400    285.86618   -11256.352    49.422542   -11305.775   -31603.966 
  114600    273.24061   -11248.473    47.239745   -11295.713    -2696.844 
  114800    292.79682   -11237.188    50.620759   -11287.809    56919.866 
  115000    307.30742   -11244.415    53.129453   -11297.544    24475.587 
  115200    282.30804   -11249.926    48.807385   -11298.733   -67763.716 
  115400      299.501    -11248.93    51.779825    -11300.71    46616.529 
  115600    323.70912   -11235.038    55.965093   -11291.003    21887.188 
  115800    280.04982    -11256.48    48.416968   -11304.897    576.99505 
  116000    285.75389   -11251.691    49.403128   -11301.095    7946.2707 
  116200    342.48614   -11233.669    59.211395    -11292.88   -24397.612 
  116400    334.21545   -11253.937    57.781502   -11311.718   -20041.489 
  116600    336.83964   -11250.332    58.235189   -11308.567    44707.573 
  116800    336.02737    -11236.64    58.094758   -11294.735    34855.423 
  117000    275.21204   -11252.753    47.580579   -11300.334    12691.199 
  117200    301.04064   -11254.449    52.046008   -11306.495   -39117.985 
  117400    283.81008   -11234.329    49.067068   -11283.396    43634.014 
  117600    333.45155   -11240.921    57.649433    -11298.57   -36320.185 
  117800    301.33801   -11247.325     52.09742   -11299.422    9995.8912 
  118000    311.69264   -11252.009      53.8876   -11305.896    -1891.282 
  118200    267.22926   -11259.186     46.20046   -11305.387   -23096.994 
  118400    329.30292   -11246.209    56.932189   -11303.141   -23245.091 
  118600    329.90582   -11246.064    57.036421   -11303.101   -15388.345 
  118800     282.1764   -11256.375    48.784626    -11305.16    18551.131 
  119000    348.44443   -11242.802    60.241506   -11303.044    56652.371 
  119200    290.09848   -11251.295    50.154251   -11301.449   -77149.246 
  119400    238.68244   -11263.944    41.265087   -11305.209   -1583.5759 
  119600     262.3036    -11248.79    45.348878   -11294.139    21394.293 
  119800    293.06968   -11247.427    50.667932   -11298.095   -24332.137 
  120000    284.28551   -11262.364    49.149265   -11311.513   -20563.172 
  120200    321.64576   -11245.628    55.608365   -11301.237    27172.485 
  120400    324.28124   -11250.516    56.064006    -11306.58   -40037.905 
  120600    313.61498   -11254.973    54.219947   -11309.193   -19849.063 
  120800    290.56981   -11255.742    50.235737   -11305.978   -32303.454 
  121000    289.98072   -11242.313    50.133892   -11292.446    24307.268 
  121200    266.48041   -11255.727    46.070993   -11301.798   -26785.279 
  121400    277.14524   -11254.926    47.914804   -11302.841    171.76825 
  121600    294.77386   -11248.361    50.962563   -11299.324   -17764.808 
  121800    288.18134   -11261.819    49.822803   -11311.642     24515.34 
  122000    362.37539   -11238.765    62.649988   -11301.415    2548.8439 
  122200    290.83539   -11258.843    50.281653   -11309.124    44898.323 
  122400    288.84381   -11260.348    49.937335   -11310.285    10610.573 
  122600    333.20425   -11240.301    57.606677   -11297.908   -28851.084 
  122800    326.82156   -11256.174    56.503193   -11312.677   -37108.074 
  123000    304.78527   -11255.743    52.693405   -11308.436   -31277.205 
  123200    327.93711   -11240.372    56.696057   -11297.068   -31365.314 
  123400    315.94787   -11245.339    54.623274   -11299.962    3480.5421 
  123600     265.2799   -11255.643    45.863441   -11301.507   -8699.7818 
  123800    304.35418   -11248.084    52.618876   -11300.703   -35463.521 
  124000    297.85126   -11246.064    51.494606   -11297.558   -6613.5356 
  124200    276.96036   -11260.068    47.882841   -11307.951   -8472.2325 
  124400    324.91824   -11248.932    56.174134   -11305.106    37261.971 
  124600    280.25598   -11248.842    48.452611   -11297.294    63728.715 
  124800    282.51195    -11261.31    48.842639   -11310.153    6906.4475 
  125000      297.351   -11245.504    51.408116   -11296.912    11329.127 
  125200    290.52547   -11250.806    50.228072   -11301.034    9531.2286 
  125400    280.04784   -11258.332    48.416626   -11306.749   -9677.0185 
  125600     316.6091   -11250.905    54.737591   -11305.642   -53448.891 
  125800     231.1483   -11272.508    39.962532    -11312.47    36108.138 
  126000    282.86354   -11258.261    48.903423   -11307.164    37940.772 
  126200    295.94375   -11241.981    51.164822   -11293.146   -14383.585 
  126400    305.78785   -11252.034    52.866739   -11304.901    21892.182 
  126600    296.32837   -11259.348    51.231317   -11310.579    39755.929 
  126800    355.04463    -11244.95    61.382596   -11306.333   -33418.298 
  127000    329.58464   -11250.504    56.980894   -11307.485   -30485.312 
  127200    293.34254   -11251.516    50.715107   -11302.232    13959.919 
  127400    338.63991   -11242.905    58.546432   -11301.451    345.67551 
  127600    263.76815   -11261.759    45.602079   -11307.361    3532.9296 
  127800    261.06519   -11250.787    45.134774   -11295.921   -1463.6756 
  128000    318.59806   -11246.819    55.081457     -11301.9   -24418.945 
  128200    247.17922   -11259.012     42.73407   -11301.746   -41599.864 
  128400    290.54038    -11259.97    50.230649   -11310.201    39717.815 
  128600    305.27255   -11247.378    52.777651   -11300.156   -29170.294 
  128800    323.38008   -11258.418    55.908207   -11314.326   -7108.7625 
  129000    302.98228   -11256.487    52.381693   -11308.869   -6086.4447 
  129200    327.94111   -11245.947    56.696749   -11302.644    18282.604 
  129400    325.98742   -11240.595    56.358981   -11296.954    72502.835 
  129600    274.55694   -11258.204    47.467322   -11305.671     23546.83 
  129800    343.31519   -11248.362    59.354727   -11307.717    19080.623 
  130000    315.78453   -11247.593    54.595034   -11302.188    16714.534 
  130200    267.08978   -11258.542    46.176346   -11304.718   -38835.972 
  130400    311.48018   -11243.135    53.850869   -11296.986    1540.9439 
  130600    279.01064   -11252.061    48.237308   -11300.298   -64545.115 
  130800    295.68378   -11257.841    51.119877   -11308.961    34139.643 
  131000    259.14674   -11265.239    44.803097   -11310.042    8744.4333 
  131200    310.73434   -11249.818    53.721923    -11303.54    12930.114 
  131400    291.95291   -11250.952    50.474859   -11301.427    44322.557 
  131600    289.30774   -11259.745    50.017542   -11309.762    13293.432 
  131800    337.19935   -11244.827    58.297378   -11303.124   -25619.388 
  132000    252.28903   -11266.295    43.617489   -11309.913    7872.1324 
  132200    287.20942   -11252.991    49.654771   -11302.646   -4807.1686 
  132400    262.72021     -11251.3    45.420905   -11296.721    -20914.97 
  132600    236.70029   -11269.954    40.922398   -11310.876   -21739.452 
  132800     296.5068   -11252.422    51.262166   -11303.685    30381.976 
  133000    329.03016   -11242.633    56.885031   -11299.518    -27301.85 
  133200    334.16016   -11248.473    57.771942   -11306.245    16782.727 
  133400    260.06864   -11257.654    44.962482   -11302.617    15357.029 
  133600    335.69728    -11243.71     58.03769   -11301.748   -4868.5513 
  133800    316.67529   -11246.638    54.749035   -11301.387   -15539.465 
  134000    290.95931   -11254.321    50.303077   -11304.624    4167.0333 
  134200    320.02704   -11242.844     55.32851   -11298.172    23477.951 
  134400    302.50813   -11242.369    52.299718   -11294.669    42251.717 
  134600    313.30161   -11251.587     54.16577   -11305.753    53308.582 
  134800    295.47941   -11248.117    51.084544   -11299.202   -22688.266 
  135000    300.20762   -11249.468     51.90199    -11301.37   -4194.7402 
  135200    273.87053   -11255.285    47.348649   -11302.633   -33813.353 
  135400    291.96375   -11255.977    50.476731   -11306.454   -11289.192 
  135600    301.79979   -11241.141    52.177255   -11293.318    74.335896 
  135800    280.26411   -11254.189    48.454017   -11302.643    15544.302 
  136000    323.84214   -11252.987    55.988091   -11308.975   -22858.775 
  136200    307.71338   -11248.603    53.199638   -11301.803     33259.12 
  136400    333.62615     -11239.4    57.679618    -11297.08   -3860.8268 
  136600    238.29423   -11254.691     41.19797   -11295.889    7517.4547 
  136800    316.84734   -11249.787     54.77878   -11304.565   -2845.2259 
  137000    321.46901   -11241.999    55.577807   -11297.577   -23340.226 
  137200     290.1337   -11252.397    50.160339   -11302.557   -17113.623 
  137400    321.18084   -11252.618    55.527986   -11308.146    46490.023 
  137600    348.56654   -11244.834    60.262617   -11305.097      45417.3 
  137800     286.0098   -11255.698    49.447371   -11305.145   -12412.855 
  138000    283.71451   -11254.816    49.050546   -11303.867     -35532.9 
  138200    292.97698   -11245.339    50.651907   -11295.991   -10508.424 
  138400    319.65444   -11254.889    55.264092   -11310.154   -4634.1842 
  138600    261.88312   -11234.522    45.276182   -11279.798   -22702.945 
  138800    321.43385   -11247.395    55.571729   -11302.967    38228.448 
  139000    252.95952   -11254.234    43.733408   -11297.967   -11930.025 
  139200    334.62424   -11237.277    57.852176   -11295.129   -12707.789 
  139400    306.80122   -11243.746    53.041937   -11296.788    50315.297 
  139600    317.57457   -11254.856    54.904509   -11309.761    23568.639 
  139800    334.42007    -11244.16    57.816877   -11301.977    51848.339 
  140000    349.98596    -11240.25    60.508016   -11300.758    10996.022 
  140200    285.11738   -11249.999    49.293084   -11299.292   -45951.115 
  140400    295.57751   -11247.562    51.101504   -11298.663    -51095.78 
  140600    293.85344   -11230.189    50.803435   -11280.992   -18764.839 
  140800    274.01326    -11251.14    47.373326   -11298.513   -26652.717 
  141000    306.54265   -11254.811    52.997234   -11307.809   -1808.9875 
  141200     311.0322   -11246.633    53.773418   -11300.406    16181.352 
  141400    358.62068   -11236.535    62.000847   -11298.536   -11499.317 
  141600    278.87432   -11257.569    48.213739   -11305.783    32145.641 
  141800    281.60139   -11249.604    48.685215    -11298.29    7901.5775 
  142000    337.99928   -11241.666    58.435676   -11300.102    18942.513 
  142200    288.34969    -11257.55    49.851908   -11307.402    10549.055 
  142400    322.81615   -11246.508    55.810711   -11302.318    -33711.11 
  142600    371.24761   -11230.627     64.18388   -11294.811    28299.898 
  142800     252.1017   -11253.499    43.585102   -11297.084   -24358.466 
  143000    316.82324   -11246.753    54.774613   -11301.527   -52148.923 
  143200    305.55438   -11233.532    52.826374   -11286.359    6679.1847 
  143400    242.12189   -11256.209    41.859722   -11298.069   -930.65256 
  143600    349.32677   -11240.223    60.394052   -11300.617    17424.815 
  143800     324.6977   -11247.526    56.136006   -11303.662   -23753.694 
  144000    306.36047   -11257.249    52.965737   -11310.215   -32373.756 
  144200    277.36168   -11240.938    47.952225    -11288.89   -27514.857 
  144400    308.49747   -11251.077    53.335197   -11304.412   -31067.683 
  144600    281.71467    -11260.23    48.704799   -11308.935    56276.773 
  144800    303.08775   -11244.153    52.399927   -11296.553    4655.9979 
  145000    278.05837   -11250.925    48.072672   -11298.998   -32334.298 
  145200    230.63066   -11266.891    39.873039   -11306.764   -797.99171 
  145400    235.00049   -11265.901    40.628525    -11306.53   -47567.282 
  145600    284.99215   -11245.461    49.271434   -11294.732   -10449.508 
  145800    302.94341   -11246.301    52.374971   -11298.676    613.88963 
  146000    294.15284   -11259.557    50.855198   -11310.412   -80642.549 
  146200    318.63276   -11251.785    55.087457   -11306.872    48250.729 
  146400     273.9808     -11248.8    47.367714   -11296.168   -2862.2096 
  146600    267.53673   -11255.825    46.253618   -11302.079    3041.2445 
  146800    308.34863   -11244.624    53.309464   -11297.934   -99381.416 
  147000    312.65251   -11248.605    54.053549   -11302.659   -3152.9215 
  147200    315.41246   -11259.094    54.530708   -11313.625   -64212.505 
  147400    302.03533   -11250.285    52.217977   -11302.503    51692.472 
  147600    351.53057   -11227.938     60.77506   -11288.713    46570.979 
  147800    317.53372    -11249.61    54.897447   -11304.507   -31969.701 
  148000    271.25257   -11256.208    46.896039   -11303.104    6456.8414 
  148200    315.64106   -11236.564    54.570231   -11291.135    46141.865 
  148400    291.91209   -11248.575    50.467801   -11299.042      1585.15 
  148600    315.33089   -11252.593    54.516606   -11307.109    48758.735 
  148800    354.41616   -11236.476     61.27394   -11297.749    14904.739 
  149000    295.87024   -11253.308    51.152113    -11304.46    -45412.54 
  149200    273.98711   -11253.785    47.368805   -11301.153   -13927.114 
  149400    332.22229   -11244.556     57.43691   -11301.992   -12420.403 
  149600    305.76181   -11254.091    52.862237   -11306.953    44151.966 
  149800    313.51525   -11251.636    54.202706   -11305.839    37331.703 
  150000    284.82007   -11246.181    49.241682   -11295.422   -6478.2451 
  150200    310.02711   -11244.351    53.599651   -11297.951   -30654.477 
  150400    302.59512   -11259.148    52.314757   -11311.463   -45286.175 
  150600     312.7332   -11246.919      54.0675   -11300.986   -9457.1672 
  150800    355.61278   -11247.365    61.480821   -11308.846    53472.746 
  151000    315.62678   -11248.652    54.567762    -11303.22    29129.524 
  151200    313.41245   -11240.562    54.184932   -11294.747   -2037.3131 
  151400    295.62041   -11252.537     51.10892   -11303.646    16209.792 
  151600    315.18435   -11255.222    54.491271   -11309.713   -16597.838 
  151800    302.39046   -11233.313    52.279374   -11285.592   -19218.412 
  152000     313.2445   -11240.779    54.155897   -11294.934   -20749.937 
  152200    265.27846   -11254.924    45.863193   -11300.787      46412.4 
  152400    320.44667   -11254.246    55.401057   -11309.647    23906.593 
  152600    299.31544   -11241.885    51.747743   -11293.633    6923.8588 
  152800    276.04336   -11260.582    47.724304   -11308.307   -637.72866 
  153000    295.04376   -11251.351    51.009226    -11302.36    49914.894 
  153200    321.26985   -11244.126    55.543376   -11299.669    22481.395 
  153400    260.39942   -11255.341     45.01967    -11300.36   -35343.402 
  153600    256.09317   -11254.143    44.275175   -11298.418   -8719.1212 
  153800    355.55964   -11247.877    61.471633   -11309.349    5275.6089 
  154000     255.6279   -11265.304    44.194736   -11309.499   -64084.348 
  154200    320.50644   -11249.979    55.411391   -11305.391   -483.01425 
  154400    289.13403     -11251.5     49.98751   -11301.488   -36390.155 
  154600    301.30193   -11250.217    52.091181   -11302.308   -12379.419 
  154800    277.16715   -11258.491    47.918593    -11306.41   -10108.819 
  155000     309.2024   -11253.063    53.457071    -11306.52   -10029.659 
  155200    292.33545   -11243.215    50.540994   -11293.756   -8434.0963 
  155400    273.47543   -11264.011    47.280342   -11311.291    45164.281 
  155600     309.8039   -11254.217    53.561061   -11307.779   -29031.515 
  155800    316.01341   -11245.934    54.634605   -11300.569    16335.745 
  156000    257.76525   -11259.518    44.564256   -11304.082   -564.70788 
  156200    270.79748   -11249.253    46.817359    -11296.07    45512.278 
  156400    253.49617   -11245.223    43.826188   -11289.049    3977.9797 
  156600    321.49453   -11246.255    55.582219   -11301.837    52074.305 
  156800    351.38655   -11249.045     60.75016   -11309.795    224.24253 
  157000    234.03357   -11265.835    40.461358   -11306.296    38553.895 
  157200    319.79881    -11249.56    55.289052   -11304.849   -31330.439 
  157400    330.53824    -11249.19    57.145759   -11306.335    7666.4584 
  157600    334.40102   -11254.326    57.813584    -11312.14   -29152.408 
  157800    267.60019   -11260.019     46.26459   -11306.284   -12018.855 
  158000    335.47471    -11241.79     57.99921   -11299.789   -21292.111 
  158200    288.21522   -11255.203     49.82866   -11305.031   -14221.586 
  158400    278.66474   -11258.077    48.177506   -11306.255   -22961.702 
  158600     305.8172   -11246.977    52.871813   -11299.849    -25420.67 
  158800    327.72281   -11246.107    56.659007   -11302.766   -14158.499 
  159000    322.76678   -11256.852    55.802175   -11312.654   -2040.1765 
  159200    264.70325   -11264.642    45.763746   -11310.406   -34295.439 
  159400    395.10779    -11245.58    68.308994   -11313.889    22385.621 
  159600    320.22843   -11243.332    55.363327   -11298.696   -42366.365 
  159800    263.35091   -11257.073    45.529944   -11302.603   -3537.8919 
  160000    329.29909   -11244.218    56.931527    -11301.15    50373.857 
  160200    318.18911   -11243.622    55.010756   -11298.633    24170.464 
  160400    313.00642    -11255.81    54.114735   -11309.925    17486.495 
  160600    296.44653   -11250.175    51.251747   -11301.427   -35097.253 
  160800    335.26098   -11245.647    57.962259   -11303.609    863.28412 
  161000    279.19591   -11249.724    48.269339   -11297.993    12057.095 
  161200    320.50849   -11253.107    55.411746   -11308.518   -44300.417 
  161400    269.56909   -11262.459    46.604988   -11309.064   -26216.302 
  161600    334.69389   -11244.646    57.864216   -11302.511   -10165.354 
  161800    335.44218   -11244.629    57.993586   -11302.623    23233.879 
  162000    287.15477   -11258.278    49.645321   -11307.923   -23575.586 
  162200    322.12376   -11246.318    55.691005   -11302.009   -11668.498 
  162400    300.76407   -11246.526    51.998193   -11298.524    8564.2612 
  162600    243.54545   -11260.986    42.105839   -11303.092    28587.962 
  162800    307.19168   -11243.142    53.109442   -11296.252     60373.06 
  163000    333.46834   -11242.918    57.652335    -11300.57     4099.167 
  163200    264.40792   -11258.269    45.712688   -11303.982   -29723.405 
  163400    367.68944   -11235.394    63.568719   -11298.962   -6769.1539 
  163600    329.59585   -11247.545    56.982832   -11304.528    47190.872 
  163800    280.10886   -11257.744    48.427176   -11306.171    28012.767 
  164000    343.03548   -11235.602    59.306368   -11294.909   -29078.442 
  164200    310.62326   -11244.501    53.702718   -11298.204    23600.449 
  164400     287.5441   -11257.214    49.712632   -11306.927   -42327.664 
  164600    294.95909   -11247.569    50.994588   -11298.564    250.69366 
  164800    268.12238   -11246.504    46.354869   -11292.859     21249.96 
  165000    238.91186   -11256.497    41.304751   -11297.802   -58821.051 
  165200    321.42973   -11243.262    55.571016   -11298.833   -10809.805 
  165400    324.21426   -11243.214    56.052425   -11299.266    21722.296 
  165600    273.87741   -11253.399    47.349839   -11300.749    3341.8748 
  165800    294.58242   -11247.577    50.929466   -11298.507   -12674.799 
  166000    277.65481   -11248.744    48.002902   -11296.746    16856.844 
  166200    334.45693    -11240.85    57.823249   -11298.673    19323.252 
  166400    329.31726   -11250.479    56.934667   -11307.414   -2517.1798 
  166600    268.90703   -11256.342    46.490525   -11302.832   -14792.829 
  166800    307.22119   -11245.995    53.114545   -11299.109   -20325.546 
  167000     340.2446    -11230.77    58.823863   -11289.594    5778.2235 
  167200    263.55383   -11252.459    45.565026   -11298.024   -24119.361 
  167400    314.01686   -11249.118    54.289427   -11303.408    23618.065 
  167600    381.29096    -11236.07    65.920244    -11301.99   -47001.155 
  167800    281.88765   -11251.422    48.734705   -11300.157   -44199.946 
  168000    321.64802   -11249.666    55.608756   -11305.274   -23892.116 
  168200    290.88177   -11248.788    50.289672   -11299.077   -36394.366 
  168400    298.45769    -11250.23     51.59945   -11301.829    33834.314 
  168600    265.32659   -11259.044    45.871514   -11304.916    34179.892 
  168800    345.51767   -11240.506    59.735507   -11300.241    -76582.27 
  169000    308.55092   -11248.592    53.344437   -11301.936    61094.708 
  169200    299.71264   -11250.771    51.816414   -11302.587    7312.1566 
  169400    247.75133   -11258.925     42.83298   -11301.758   -4727.4792 
  169600    290.67556   -11244.683    50.254021   -11294.937   -11164.381 
  169800     256.2799   -11261.016    44.307459   -11305.323   -10239.415 
  170000    295.55429     -11264.1     51.09749   -11315.197    26342.808 
  170200    301.05105   -11250.494    52.047807   -11302.541   -67875.088 
  170400    308.23398   -11252.299    53.289642   -11305.588    40767.253 
  170600    241.11254   -11270.891    41.685219   -11312.576    9799.9931 
  170800    287.28708   -11255.916    49.668197   -11305.584    28152.158 
  171000    260.50689   -11247.044     45.03825   -11292.083   -507.82982 
  171200    394.37393   -11230.321    68.182119   -11298.504    17254.161 
  171400    316.78925   -11252.531    54.768738   -11307.299   -15427.285 
  171600    329.29243   -11245.499    56.930375    -11302.43   -18518.075 
  171800    277.53678   -11244.371    47.982497   -11292.354    12480.742 
  172000    273.59957   -11261.562    47.301804   -11308.864   -4444.2187 
  172200    280.14458    -11245.23    48.433351   -11293.664    -27565.04 
  172400    328.59821   -11244.333    56.810353   -11301.143   -4951.9345 
  172600    312.77085   -11252.647    54.074009   -11306.721    3249.3512 
  172800    312.09962   -11237.622    53.957961    -11291.58    28149.542 
  173000    296.51713   -11251.757    51.263953   -11303.021    17651.773 
  173200    349.48752   -11250.574    60.421843   -11310.996    297.62537 
  173400    304.10283   -11245.704    52.575421   -11298.279   -34597.377 
  173600    351.23217   -11240.928    60.723469   -11301.652   -4453.2945 
  173800    304.94119   -11255.677    52.720362   -11308.398    7263.3355 
  174000    321.23557   -11252.421    55.537449   -11307.958   -21199.868 
  174200    304.07198   -11244.224    52.570088   -11296.794   -7860.7222 
  174400    226.43937   -11261.418     39.14842   -11300.566   -21024.431 
  174600    299.92206   -11248.623    51.852621   -11300.476     9087.522 
  174800    333.76887   -11245.158    57.704293   -11302.862    19199.121 
  175000    291.05041   -11260.829    50.318827   -11311.147    46979.338 
  175200    288.42474   -11258.562    49.864884   -11308.427   -36253.398 
  175400    290.94295   -11247.463    50.300249   -11297.763    73378.931 
  175600    281.14465   -11251.709     48.60625   -11300.316    21020.238 
  175800     292.8093   -11251.356    50.622917   -11301.979   -4624.5804 
  176000    304.22248   -11251.719    52.596106   -11304.315    -536.9525 
  176200    259.20633   -11261.834      44.8134   -11306.647   -50784.263 
  176400    300.77977   -11250.597    52.000908   -11302.598    33301.742 
  176600     311.3567   -11240.351    53.829521   -11294.181    506.39808 
  176800    276.99499   -11251.063    47.888828   -11298.952   -25444.288 
  177000    257.44564   -11257.516    44.509001   -11302.025   -14806.611 
  177200    327.64109   -11244.784    56.644879   -11301.428   -22003.414 
  177400    290.40055   -11246.551    50.206476   -11296.757    285.67644 
  177600     313.1717   -11250.575     54.14331   -11304.718   -38778.088 
  177800    271.37719   -11259.497    46.917584   -11306.414    39607.965 
  178000    341.09892   -11243.548    58.971563   -11302.519   -49795.706 
  178200    334.19326    -11245.47    57.777665   -11303.247   -12074.094 
  178400    241.83658   -11264.098    41.810397   -11305.909    7086.4375 
  178600    323.59023   -11246.749    55.944539   -11302.693    8879.9346 
  178800    303.59793   -11238.394     52.48813   -11290.882   -8022.6246 
  179000     256.4434   -11259.105    44.335726   -11303.441   -24492.581 
  179200    295.90344   -11253.724    51.157854   -11304.882    12580.605 
  179400    327.79534   -11233.472    56.671548   -11290.143   -26970.828 
  179600    391.66789   -11233.133     67.71428   -11300.847    46174.753 
  179800    277.35013    -11252.05    47.950228   -11300.001    58211.907 
[...]
  950000    248.82633   -11256.284    43.018833   -11299.303    24768.913 
  950200    280.13554   -11252.248    48.431788    -11300.68   -17857.955 
  950400    379.56241   -11229.502      65.6214   -11295.124   -8696.9447 
  950600    306.32763    -11250.92    52.960059    -11303.88    29627.829 
  950800    285.29084   -11252.776    49.323072   -11302.099    50073.956 
  951000    353.55335   -11234.308    61.124773   -11295.433    19723.574 
  951200    298.80783   -11252.467    51.659985   -11304.127   -40871.299 
  951400    293.13324   -11249.263    50.678921   -11299.941   -25603.866 
  951600    421.95404   -11231.226    72.950361   -11304.177    23067.241 
  951800    336.95075   -11247.195    58.254398   -11305.449   -2986.8202 
  952000     261.2218   -11255.048    45.161849    -11300.21   -31393.289 
  952200    345.89485   -11239.764    59.800718   -11299.564   -8522.5713 
  952400    324.70169   -11248.745    56.136695   -11304.882   -27859.021 
  952600    290.71756    -11251.55    50.261281   -11301.811   -27905.337 
  952800     303.7847   -11248.581     52.52042   -11301.101    27665.846 
  953000    285.10838   -11264.631    49.291527   -11313.922    91837.412 
  953200    353.58285   -11248.875    61.129872   -11310.004   -17362.029 
  953400    321.99085   -11246.136    55.668026   -11301.804   -22347.775 
  953600    307.75169   -11250.984    53.206261   -11304.191   -18792.105 
  953800    331.15417   -11248.907    57.252245   -11306.159    -43200.24 
  954000    361.07672   -11240.481    62.425465   -11302.906   -60985.358 
  954200     296.5488   -11252.329    51.269428   -11303.598    39071.358 
  954400    333.84982   -11257.076    57.718287   -11314.795    -18328.53 
  954600    378.47312   -11232.981    65.433075   -11298.414   -32911.588 
  954800     294.0936   -11247.385    50.844955    -11298.23    28852.105 
  955000    294.09597   -11255.824    50.845365   -11306.669   -8475.3907 
  955200    306.46825   -11250.918    52.984372   -11303.902     22639.38 
  955400     288.1087   -11243.483    49.810244   -11293.293    -17116.55 
  955600    272.55157   -11258.756    47.120618   -11305.876    60799.969 
  955800    267.05971   -11252.244    46.171148   -11298.415   -29345.742 
  956000    317.82676   -11244.879    54.948109   -11299.827    7411.4621 
  956200    257.74718   -11256.823    44.561132   -11301.384    16382.608 
  956400    324.80313   -11248.341    56.154233   -11304.495    36166.592 
  956600    323.94779   -11241.188    56.006356   -11297.194   -17671.243 
  956800    288.67822   -11249.879    49.908707   -11299.788   -2543.5267 
  957000    295.07807   -11247.153    51.015158   -11298.168    -58032.34 
  957200    266.87028   -11252.318    46.138397   -11298.456     16610.53 
  957400    291.50726   -11258.422    50.397811    -11308.82    39176.357 
  957600    250.68015   -11260.108    43.339334   -11303.447   -7176.5634 
  957800    325.19229   -11244.906    56.221514   -11301.128   -48650.358 
  958000    297.13474   -11260.973    51.370729   -11312.344   -12951.725 
  958200    288.06254   -11261.435    49.802263   -11311.237    26427.639 
  958400    249.78263   -11251.194    43.184165   -11294.378    26791.613 
  958600    320.57739   -11242.225    55.423657   -11297.649   -12989.918 
  958800    242.89484   -11258.111    41.993355   -11300.105    11472.157 
  959000    312.06061   -11246.963    53.951217   -11300.914    18176.424 
  959200    280.47403   -11250.529    48.490308    -11299.02    27819.885 
  959400    328.20045   -11251.923    56.741586   -11308.665    25008.227 
  959600    293.23503   -11244.028     50.69652   -11294.724    103026.89 
  959800    214.27801   -11264.635    37.045879   -11301.681   -6012.6425 
  960000    291.87738   -11247.921    50.461799   -11298.383   -36506.262 
  960200    349.38864    -11241.11    60.404748   -11301.515   -8145.8589 
  960400    261.14918   -11262.623    45.149294   -11307.773   -29515.229 
  960600    297.49902   -11250.352    51.433709   -11301.785    3998.7052 
  960800    343.45727   -11241.782    59.379291   -11301.162   -48489.727 
  961000    302.03559   -11259.745    52.218021   -11311.963   -2350.9543 
  961200    266.94982   -11254.263    46.152148   -11300.415    2112.7955 
  961400    364.75294   -11238.127    63.061035   -11301.188    3678.5618 
  961600    306.11402   -11259.989    52.923129   -11312.912   -13025.064 
  961800    286.82588   -11253.926    49.588461   -11303.515    54324.797 
  962000    288.74116   -11241.185    49.919588   -11291.105   -22828.434 
  962200     308.6847    -11244.46    53.367566   -11297.827   -15866.676 
  962400    297.87049   -11251.494     51.49793   -11302.992   -11066.411 
  962600    307.60695    -11258.23    53.181237   -11311.411    53752.535 
  962800      338.256   -11237.581    58.480059   -11296.061    77023.119 
  963000     321.5001   -11246.454    55.583182   -11302.037    70311.797 
  963200    311.27592   -11260.297    53.815555   -11314.113   -12265.131 
  963400    268.00767   -11253.393    46.335038   -11299.728    -68804.18 
  963600    352.00477   -11241.616    60.857043   -11302.473   -30756.244 
  963800    281.24655   -11263.851    48.623868   -11312.475    20904.239 
  964000     263.8096    -11256.77    45.609245   -11302.379    58988.843 
  964200    287.94618   -11246.548    49.782146    -11296.33    5530.5519 
  964400    298.95688   -11256.586    51.685753   -11308.272    67969.815 
  964600    240.34349   -11267.078    41.552261    -11308.63   -26356.715 
  964800    294.08803   -11253.273    50.843993   -11304.117   -21132.306 
  965000    319.80062    -11244.12    55.289364   -11299.409    2395.9577 
  965200    383.20162   -11236.459    66.250572    -11302.71   -34282.619 
  965400    284.08242   -11257.761    49.114153   -11306.875    41069.823 
  965600    306.27207   -11247.111    52.950454   -11300.061   -9331.0876 
  965800    330.41709   -11227.337    57.124813   -11284.462    19236.134 
  966000    258.00863   -11252.525    44.606334   -11297.131   -6208.0943 
  966200    248.25959   -11255.033    42.920852   -11297.954   -26722.413 
  966400    319.85289   -11239.613    55.298401   -11294.911   -40297.413 
  966600    296.31995    -11255.87    51.229862     -11307.1    61947.055 
  966800     287.8564   -11253.917    49.766624   -11303.683    21703.244 
  967000      328.229     -11245.6    56.746522   -11302.346    91402.154 
  967200    331.33707   -11232.831    57.283866   -11290.115    37266.468 
  967400    257.58347    -11253.18    44.532829   -11297.713     57150.96 
  967600    308.87649   -11248.945    53.400724   -11302.345   -36904.518 
  967800    380.28572   -11229.029     65.74645   -11294.776    28117.825 
  968000    297.84843    -11248.05    51.494117   -11299.545   -38418.452 
  968200     265.2454   -11258.931    45.857478   -11304.788    33306.413 
  968400    281.84121   -11242.684    48.726676   -11291.411    36934.582 
  968600    315.31785   -11241.578    54.514351   -11296.092    16613.991 
  968800    270.37546   -11255.108    46.744397   -11301.852    2688.5437 
  969000    315.05756   -11248.275    54.469352   -11302.744    3564.8936 
  969200    287.16867    -11262.71    49.647725   -11312.358   -17871.957 
  969400    307.22334   -11242.295    53.114916    -11295.41     -12420.4 
  969600    262.74355   -11248.977    45.424939   -11294.402    -11060.88 
  969800    259.50001   -11264.028    44.864173   -11308.892    6269.3147 
  970000    278.22566   -11255.105    48.101594   -11303.207   -13803.088 
  970200    309.52506   -11249.327    53.512854    -11302.84    46365.912 
  970400    272.74581   -11262.311    47.154201   -11309.465    18017.512 
  970600    323.14203   -11246.467    55.867051   -11302.334   -5232.3536 
  970800    321.93824   -11249.476    55.658931   -11305.135   -54121.575 
  971000    220.06509    -11259.86     38.04639   -11297.907    21698.718 
  971200    281.82609   -11262.509    48.724062   -11311.234    49861.639 
  971400    344.10481   -11246.081    59.491243   -11305.572    4066.2543 
  971600    266.25903   -11259.097     46.03272    -11305.13    41319.529 
  971800    322.54877   -11245.172    55.764484   -11300.937    6264.5672 
  972000    356.94167   -11226.564    61.710569   -11288.275   -23903.387 
  972200    294.47462   -11247.943    50.910829   -11298.854     74094.37 
  972400    279.11726   -11255.185    48.255742   -11303.441    55856.354 
  972600    349.83084   -11241.805    60.481199   -11302.287   -6277.5831 
  972800    309.60777   -11256.811    53.527154   -11310.338   -34122.639 
  973000    298.20098   -11249.501    51.555067   -11301.056    131.80683 
  973200    278.59346   -11247.477    48.165182   -11295.642   -2177.5315 
  973400    319.76312   -11254.172    55.282882   -11309.455    916.82084 
  973600    282.63879   -11263.479    48.864568   -11312.344    10873.633 
  973800    303.39087   -11248.009    52.452332   -11300.462    10718.439 
  974000    290.56806   -11254.828    50.235435   -11305.064   -8087.4733 
  974200    302.65041   -11240.401    52.324316   -11292.725   -19455.015 
  974400    327.34783   -11241.633    56.594179   -11298.227    48865.408 
  974600    290.86332   -11256.311    50.286481   -11306.598    69772.731 
  974800    315.56441    -11247.38     54.55698   -11301.937    34580.043 
  975000    361.87281   -11236.025    62.563098   -11298.588    19853.561 
  975200    302.93637     -11251.3    52.373755   -11303.674   -5339.1462 
  975400    305.73825   -11257.332    52.858164    -11310.19   -3374.8005 
  975600    323.72821   -11237.117    55.968393   -11293.085   -24244.618 
  975800    311.04144    -11253.12    53.775016   -11306.895     2381.229 
  976000    263.32652    -11256.59    45.525727   -11302.116    5403.2089 
  976200    322.34754   -11251.712    55.729693   -11307.442   -2921.5351 
  976400    316.24585   -11249.707    54.674791   -11304.382   -12460.329 
  976600    335.14979    -11254.46    57.943036   -11312.403   -22353.649 
  976800     293.8943   -11264.187    50.810498   -11314.997    59956.297 
  977000    335.47059   -11245.032    57.998498    -11303.03   -15690.446 
  977200    282.04891   -11253.357    48.762585   -11302.119   -37778.351 
  977400     255.7216   -11269.429    44.210936    -11313.64    34451.756 
  977600    289.81588   -11251.499    50.105392   -11301.605   -23122.865 
  977800     332.4823   -11250.802    57.481862   -11308.284   -793.57832 
  978000    285.96623   -11262.918    49.439838   -11312.358    29988.314 
  978200    344.65943   -11239.674     59.58713   -11299.262    29846.133 
  978400    309.74854   -11247.089    53.551491    -11300.64   -10082.501 
  978600    267.06797   -11257.982    46.172575   -11304.155    41823.969 
  978800    293.51435   -11252.534     50.74481   -11303.279    1487.3196 
  979000    328.12732    -11250.14    56.728943   -11306.869    12353.128 
  979200    300.88153   -11248.122      52.0185   -11300.141   -24044.627 
  979400    242.97789   -11253.644    42.007715   -11295.652   -3085.1656 
  979600    263.38348   -11259.261    45.535575   -11304.797    186.16609 
  979800     331.7862   -11241.786    57.361515   -11299.148   -16889.936 
  980000    264.06443   -11253.294    45.653303   -11298.947   -12602.482 
  980200    293.27602   -11266.979    50.703606   -11317.682   -31086.124 
  980400    251.35591   -11263.135    43.456164   -11306.591    772.36979 
  980600    242.45451   -11250.049    41.917228   -11291.966     3710.435 
  980800    271.55244   -11242.112    46.947882    -11289.06   -22545.587 
  981000    318.00708   -11257.757    54.979285   -11312.736   -30348.557 
  981200    302.24582   -11254.131    52.254368   -11306.386   -39140.117 
  981400    289.50759   -11243.484    50.052094   -11293.536   -29209.722 
  981600     283.2608   -11250.479    48.972105   -11299.451    39700.893 
  981800     274.0811   -11266.934    47.385055   -11314.319    8681.8192 
  982000    284.02789   -11250.224    49.104724   -11299.329    13889.163 
  982200    299.83077   -11246.615    51.836838   -11298.452   -10939.049 
  982400    246.48484   -11261.314    42.614021   -11303.928    3945.4732 
  982600     324.9113   -11243.036    56.172934   -11299.209    12900.737 
  982800    322.60638   -11243.142    55.774444   -11298.916   -18123.014 
  983000    293.11969   -11256.222    50.676579   -11306.899   -32249.857 
  983200    247.55117   -11261.214    42.798374   -11304.012   -75010.446 
  983400     254.8015   -11243.614    44.051863   -11287.666    26641.493 
  983600    305.93326   -11246.013    52.891879   -11298.905    13114.648 
  983800    265.42795   -11260.702    45.889037   -11306.591   -39621.894 
  984000    314.57855   -11238.771    54.386536   -11293.158   -4586.5653 
  984200    306.80106   -11244.893     53.04191   -11297.935    50289.619 
  984400    298.91939   -11255.821    51.679272     -11307.5    -28152.78 
  984600    276.10765   -11250.374    47.735419    -11298.11    12383.482 
  984800    295.56203   -11245.783    51.098827   -11296.882    22174.769 
  985000    249.76009   -11264.991    43.180268   -11308.171   -30625.191 
  985200    317.87264   -11251.212    54.956043   -11306.168   -846.73266 
  985400    269.53611   -11249.698    46.599284   -11296.298   -53639.953 
  985600    270.28345   -11261.174     46.72849   -11307.903   -17047.768 
  985800    289.59191   -11259.049    50.066672   -11309.116   -11781.201 
  986000    327.12234   -11252.997    56.555194   -11309.552    48941.274 
  986200    299.17503    -11253.34    51.723469   -11305.064   -2971.0017 
  986400    353.33542   -11236.681    61.087094   -11297.768      72635.2 
  986600    302.15738   -11253.164    52.239077   -11305.403   -32202.146 
  986800    292.43099   -11251.432    50.557512   -11301.989    65363.781 
  987000    322.87479   -11232.874    55.820849   -11288.695    -3763.715 
  987200    304.75696   -11251.796    52.688511   -11304.485   -67050.993 
  987400    253.63741   -11255.913    43.850607   -11299.763    19136.508 
  987600    287.60156   -11242.139    49.722566   -11291.862    -25255.39 
  987800     348.9107   -11242.175    60.322118   -11302.497   -30640.832 
  988000    274.03591   -11253.161    47.377241   -11300.539    54027.591 
  988200    338.93262   -11242.425    58.597037   -11301.022   -14232.413 
  988400    345.65974   -11237.202     59.76007   -11296.962   -58146.053 
  988600    331.19314   -11251.886    57.258983   -11309.145   -11926.027 
  988800    341.47326   -11244.322    59.036282   -11303.358   -2708.5647 
  989000    318.81424   -11249.017    55.118832   -11304.136   -8105.1936 
  989200    289.74643   -11255.741    50.093387   -11305.834   -26654.722 
  989400     393.8396   -11238.472    68.089741   -11306.562    4169.1738 
  989600    261.12561   -11253.434     45.14522    -11298.58   -7869.8113 
  989800    277.04333   -11254.947    47.897185   -11302.844    39770.271 
  990000    341.50933   -11240.065    59.042517   -11299.108   -346.44536 
  990200    319.55053   -11254.703    55.246128    -11309.95    9287.4007 
  990400     248.2086   -11255.277    42.912036   -11298.189     32147.52 
  990600    375.65358   -11242.395    64.945614    -11307.34     4618.448 
  990800    267.27375   -11258.527    46.208153   -11304.735    18502.495 
  991000    231.60558   -11264.508     40.04159   -11304.549     39320.67 
  991200    311.72998   -11247.565    53.894056    -11301.46   -39478.295 
  991400    361.48134    -11243.07    62.495418   -11305.566    29702.663 
  991600    253.89663     -11258.5    43.895423   -11302.396    25325.335 
  991800    286.83352   -11246.379    49.589782   -11295.968    66031.831 
  992000    301.57751   -11246.111    52.138825    -11298.25   -10622.483 
  992200    270.42862   -11262.453    46.753588   -11309.207   -33288.185 
  992400     327.3112   -11246.134    56.587846   -11302.722   -24086.775 
  992600    296.80957   -11250.705    51.314511   -11302.019    39942.328 
  992800    266.21289   -11262.999    46.024743   -11309.024   -58681.422 
  993000    284.57135   -11248.806    49.198683   -11298.004    45310.734 
  993200    303.92399   -11252.002    52.544501   -11304.547   -13112.665 
  993400    249.46955   -11266.696    43.130038   -11309.826    21518.129 
  993600    340.17718   -11248.008    58.812207    -11306.82   -13666.466 
  993800    287.58035   -11256.601    49.718899    -11306.32   -15954.459 
  994000    337.74257   -11241.958    58.391294   -11300.349    65353.078 
  994200    325.04984   -11239.069    56.196886   -11295.266   -55772.037 
  994400    259.55439   -11256.497    44.873576    -11301.37    25226.424 
  994600    286.38964   -11244.085     49.51304   -11293.598    15872.609 
  994800     339.4194    -11237.51    58.681197   -11296.191     7881.774 
  995000     318.2222   -11246.992    55.016476   -11302.008    26293.149 
  995200    273.44818   -11256.199    47.275631   -11303.475   -76255.848 
  995400    269.42996   -11263.039    46.580933    -11309.62   -34578.039 
  995600    347.77326   -11243.512    60.125469   -11303.637    32874.394 
  995800      287.386   -11252.962    49.685298   -11302.647    6499.8082 
  996000     274.7703   -11261.933    47.504208   -11309.437   -34450.004 
  996200    279.37747    -11242.26    48.300729   -11290.561   -34127.639 
  996400    246.51642    -11249.56     42.61948    -11292.18   -3951.5663 
  996600    246.06929    -11258.67    42.542178   -11301.213   -32039.836 
  996800    323.24255   -11245.124    55.884429   -11301.009   -50266.033 
  997000    292.89428   -11246.908    50.637608   -11297.545   -56036.111 
  997200     252.1886    -11252.26    43.600127    -11295.86   -11675.615 
  997400    308.60223    -11242.24    53.353308   -11295.593    37911.292 
  997600    261.66467   -11255.489    45.238415   -11300.727    7784.2276 
  997800    306.52346   -11237.808    52.993915   -11290.802   -17792.249 
  998000    275.21995   -11250.862    47.581947   -11298.444    19670.114 
  998200    293.97635    -11258.81    50.824684   -11309.635   -10162.018 
  998400    301.09028   -11242.037    52.054589   -11294.091   -40403.127 
  998600    342.96162   -11243.137      59.2936    -11302.43   -4818.2387 
  998800    286.90284   -11257.352    49.601767   -11306.953   -14255.159 
  999000    268.91635   -11259.191    46.492136   -11305.683    29536.039 
  999200     331.1148   -11241.296    57.245439   -11298.541   -42150.575 
  999400    288.97352    -11250.25     49.95976    -11300.21    3791.7761 
  999600    321.48321   -11257.633    55.580263   -11313.214    60279.526 
  999800    349.39765   -11249.543    60.406305   -11309.949    463.56674 
 1000000     303.3405   -11251.544    52.443623   -11303.988   -34933.374 
Loop time of 9421.36 on 8 procs for 1000000 steps with 59 atoms

Performance: 2.293 ns/day, 10.468 hours/ns, 106.142 timesteps/s
99.2% CPU use with 8 MPI tasks x no OpenMP threads

MPI task timing breakdown:
Section |  min time  |  avg time  |  max time  |%varavg| %total
---------------------------------------------------------------
Pair    | 8510       | 8744.9     | 8897.9     | 137.2 | 92.82
Neigh   | 3          | 3.0994     | 3.1984     |   3.9 |  0.03
Comm    | 107.37     | 259.84     | 495.08     | 793.2 |  2.76
Output  | 0.10016    | 0.11107    | 0.17786    |   7.6 |  0.00
Modify  | 408.89     | 409.62     | 412.98     |   6.3 |  4.35
Other   |            | 3.791      |            |       |  0.04

Nlocal:    7.375 ave 13 max 2 min
Histogram: 2 1 1 0 0 0 1 0 1 2
Nghost:    1169.38 ave 1202 max 1141 min
Histogram: 2 0 1 1 0 1 1 0 1 1
Neighs:    2073.62 ave 3796 max 593 min
Histogram: 2 1 1 0 0 1 0 1 1 1

Total # of neighbors = 16589
Ave neighs/atom = 281.169
Neighbor list builds = 1364
Dangerous builds = 0

unfix 1
unfix output
undump 1

Please see the log.cite file for references relevant to this simulation

Total wall time: 2:37:58
