ITEM: TIMESTEP
0
ITEM: NUMBER OF ATOMS
59
ITEM: BOX BOUNDS pp pp pp
0.0000000000000000e+00 3.2808000000000000e+01
0.0000000000000000e+00 1.7780000000000001e+01
0.0000000000000000e+00 2.4729999999999999e+00
ITEM: ATOMS id type x y z 
13 1 7.043 0.849 2.464 
29 1 7.397 1.432 1.228 
37 1 8.035 2.733 1.228 
57 2 6.073 1.796 2.407 
58 2 4.981 2.801 0.083 
59 3 4.222 2.2 0.212 
1 1 6.173 17.398 2.464 
5 1 5.371 17.398 1.228 
9 1 3.973 17.398 1.228 
16 1 7.043 16.167 2.464 
32 1 7.397 15.584 1.228 
40 1 8.035 14.283 1.228 
45 1 3.236 17.398 2.464 
49 1 1.81 17.398 2.464 
53 1 1.083 17.398 1.228 
4 1 10.968 8.508 2.464 
8 1 11.771 8.508 1.228 
12 1 13.168 8.508 1.228 
18 1 10.098 7.277 2.464 
21 1 8.308 3.392 2.464 
26 1 8.833 4.734 2.464 
34 1 9.745 6.694 1.228 
42 1 9.106 5.393 1.228 
48 1 13.906 8.508 2.464 
52 1 15.331 8.508 2.464 
56 1 16.058 8.508 1.228 
19 1 10.098 9.739 2.464 
24 1 8.308 13.624 2.464 
27 1 8.833 12.282 2.464 
35 1 9.745 10.322 1.228 
43 1 9.106 11.623 1.228 
3 1 22.577 8.508 2.464 
7 1 21.775 8.508 1.228 
11 1 20.377 8.508 1.228 
20 1 23.447 7.277 2.464 
36 1 23.801 6.694 1.228 
44 1 24.439 5.393 1.228 
47 1 19.64 8.508 2.464 
51 1 18.214 8.508 2.464 
55 1 17.487 8.508 1.228 
17 1 23.447 9.739 2.464 
33 1 23.801 10.322 1.228 
41 1 24.439 11.623 1.228 
15 1 26.502 0.849 2.464 
23 1 25.237 3.392 2.464 
28 1 24.712 4.734 2.464 
31 1 26.149 1.432 1.228 
39 1 25.511 2.733 1.228 
2 1 27.373 17.398 2.464 
6 1 28.175 17.398 1.228 
10 1 29.572 17.398 1.228 
14 1 26.502 16.167 2.464 
22 1 25.237 13.624 2.464 
25 1 24.712 12.282 2.464 
30 1 26.149 15.584 1.228 
38 1 25.511 14.283 1.228 
46 1 30.31 17.398 2.464 
50 1 31.735 17.398 2.464 
54 1 32.462 17.398 1.228 
ITEM: TIMESTEP
10
ITEM: NUMBER OF ATOMS
59
ITEM: BOX BOUNDS pp pp pp
0.0000000000000000e+00 3.2808000000000000e+01
0.0000000000000000e+00 1.7780000000000001e+01
0.0000000000000000e+00 2.4729999999999999e+00
ITEM: ATOMS id type x y z 
13 1 6.89507 0.943182 2.45637 
29 1 7.59668 1.28198 1.21798 
37 1 8.04111 2.66998 1.22724 
57 2 6.0276 1.72384 2.42441 
58 2 4.93722 2.80675 0.0859649 
59 3 4.25765 2.23343 0.208563 
1 1 6.19555 17.4502 2.46476 
5 1 5.40585 17.4376 1.22792 
9 1 4.01268 17.3932 1.22798 
16 1 7.10143 16.2428 2.46451 
32 1 7.43155 15.6082 1.22785 
40 1 8.05607 14.3172 1.22769 
45 1 3.21027 17.3918 2.46444 
49 1 1.81687 17.398 2.46431 
53 1 1.11777 17.3986 1.22769 
4 1 10.9841 8.50822 2.46427 
8 1 11.7881 8.50838 1.22761 
12 1 13.1629 8.50828 1.22769 
18 1 10.0543 7.30894 2.46431 
21 1 8.30139 3.36598 2.46406 
26 1 8.80706 4.70276 2.4643 
34 1 9.70026 6.69385 1.22776 
42 1 9.07246 5.41243 1.22769 
48 1 13.9029 8.50805 2.46432 
52 1 15.3451 8.508 2.46432 
56 1 16.0607 8.508 1.22768 
19 1 10.0519 9.71409 2.46431 
24 1 8.31834 13.6322 2.46428 
27 1 8.82577 12.2658 2.46428 
35 1 9.69724 10.328 1.22776 
43 1 9.08113 11.591 1.22769 
3 1 22.5727 8.508 2.46426 
7 1 21.7536 8.508 1.22762 
11 1 20.3686 8.508 1.22769 
20 1 23.4956 7.30032 2.46431 
36 1 23.8509 6.68357 1.22777 
44 1 24.4599 5.43353 1.2277 
47 1 19.6492 8.508 2.46432 
51 1 18.2098 8.508 2.46432 
55 1 17.475 8.508 1.22768 
17 1 23.4956 9.71568 2.46431 
33 1 23.8509 10.3324 1.22777 
41 1 24.4599 11.5825 1.2277 
15 1 26.4508 0.827863 2.46431 
23 1 25.2319 3.37048 2.46428 
28 1 24.7161 4.75763 2.46428 
31 1 26.0975 1.44585 1.22777 
39 1 25.4909 2.69081 1.2277 
2 1 27.3663 17.398 2.46426 
6 1 28.2009 17.398 1.22762 
10 1 29.6052 17.398 1.22769 
14 1 26.4508 16.1881 2.46431 
22 1 25.2319 13.6455 2.46428 
25 1 24.7161 12.2584 2.46428 
30 1 26.0975 15.5701 1.22777 
38 1 25.4909 14.3252 1.2277 
46 1 30.315 17.398 2.46431 
50 1 31.7198 17.398 2.46432 
54 1 32.4671 17.3981 1.22768 
ITEM: TIMESTEP
20
ITEM: NUMBER OF ATOMS
59
ITEM: BOX BOUNDS pp pp pp
0.0000000000000000e+00 3.2808000000000000e+01
0.0000000000000000e+00 1.7780000000000001e+01
0.0000000000000000e+00 2.4729999999999999e+00
ITEM: ATOMS id type x y z 
13 1 6.91102 0.992678 2.45358 
29 1 7.6472 1.25467 1.21723 
37 1 8.05065 2.64176 1.22685 
57 2 6.00944 1.71681 2.42858 
58 2 4.93541 2.82571 0.084231 
59 3 4.24375 2.23387 0.211575 
1 1 6.22443 17.455 2.46404 
5 1 5.39999 17.4298 1.22752 
9 1 3.983 17.3894 1.22804 
16 1 7.12855 16.2497 2.46447 
32 1 7.44718 15.6031 1.22794 
40 1 8.05619 14.3291 1.22775 
45 1 3.21057 17.3891 2.46442 
49 1 1.81532 17.3978 2.46425 
53 1 1.11685 17.3991 1.22777 
4 1 10.9488 8.51001 2.4642 
8 1 11.7876 8.50897 1.22772 
12 1 13.1724 8.50824 1.22775 
18 1 10.0363 7.29856 2.46427 
21 1 8.29008 3.34442 2.46354 
26 1 8.80154 4.70593 2.46422 
34 1 9.68232 6.68427 1.22778 
42 1 9.05811 5.4032 1.22774 
48 1 13.912 8.50801 2.46424 
52 1 15.38 8.50799 2.46425 
56 1 16.0795 8.508 1.22775 
19 1 10.0353 9.72364 2.46427 
24 1 8.31452 13.6533 2.46424 
27 1 8.82119 12.2647 2.46423 
35 1 9.67633 10.3426 1.22778 
43 1 9.07601 11.5814 1.22775 
3 1 22.5875 8.508 2.4642 
7 1 21.7599 8.508 1.22772 
11 1 20.3596 8.508 1.22775 
20 1 23.5086 7.29313 2.46427 
36 1 23.8659 6.6788 1.22778 
44 1 24.4666 5.43771 1.22775 
47 1 19.6587 8.508 2.46424 
51 1 18.1999 8.508 2.46425 
55 1 17.4503 8.508 1.22775 
17 1 23.5086 9.72287 2.46427 
33 1 23.8659 10.3372 1.22778 
41 1 24.4666 11.5783 1.22775 
15 1 26.4445 0.830779 2.46427 
23 1 25.2289 3.3659 2.46424 
28 1 24.7206 4.75848 2.46424 
31 1 26.087 1.44283 1.22778 
39 1 25.4841 2.6872 1.22775 
2 1 27.3732 17.398 2.4642 
6 1 28.19 17.398 1.22772 
10 1 29.6015 17.398 1.22775 
14 1 26.4445 16.1852 2.46427 
22 1 25.2289 13.6501 2.46424 
25 1 24.7206 12.2575 2.46424 
30 1 26.087 15.5732 1.22778 
38 1 25.4841 14.3288 1.22775 
46 1 30.3199 17.398 2.46424 
50 1 31.7164 17.398 2.46424 
54 1 32.4661 17.3982 1.22776 
ITEM: TIMESTEP
30
ITEM: NUMBER OF ATOMS
59
ITEM: BOX BOUNDS pp pp pp
0.0000000000000000e+00 3.2808000000000000e+01
0.0000000000000000e+00 1.7780000000000001e+01
0.0000000000000000e+00 2.4729999999999999e+00
ITEM: ATOMS id type x y z 
13 1 6.94215 1.02995 2.45025 
29 1 7.6946 1.22253 1.21471 
37 1 8.08175 2.61045 1.22586 
57 2 5.99451 1.7038 2.43717 
58 2 4.91622 2.85264 0.0833237 
59 3 4.23153 2.24758 0.214569 
1 1 6.23186 17.4637 2.4626 
5 1 5.41526 17.4241 1.22634 
9 1 3.99715 17.3841 1.22802 
16 1 7.16184 16.2751 2.46439 
32 1 7.46579 15.6242 1.22793 
40 1 8.05765 14.3458 1.22777 
45 1 3.22266 17.3841 2.46443 
49 1 1.8429 17.3971 2.46428 
53 1 1.10948 17.4004 1.22777 
4 1 10.9419 8.50193 2.46423 
8 1 11.7697 8.50674 1.22772 
12 1 13.1663 8.50831 1.22774 
18 1 10.0217 7.28998 2.46427 
21 1 8.27765 3.32518 2.46249 
26 1 8.78004 4.69347 2.46416 
34 1 9.66212 6.68626 1.22776 
42 1 9.03545 5.38305 1.22767 
48 1 13.8955 8.50798 2.46425 
52 1 15.3669 8.50796 2.46425 
56 1 16.1058 8.508 1.22775 
19 1 10.0218 9.72221 2.46427 
24 1 8.31792 13.6644 2.46427 
27 1 8.80792 12.2756 2.46425 
35 1 9.66116 10.3269 1.22776 
43 1 9.05594 11.5871 1.22774 
3 1 22.6006 8.508 2.46423 
7 1 21.7713 8.508 1.22772 
11 1 20.3772 8.508 1.22774 
20 1 23.5232 7.29362 2.46427 
36 1 23.8876 6.6853 1.22777 
44 1 24.4837 5.44232 1.22774 
47 1 19.6524 8.508 2.46425 
51 1 18.1758 8.508 2.46425 
55 1 17.4394 8.508 1.22775 
17 1 23.5232 9.72238 2.46427 
33 1 23.8876 10.3307 1.22777 
41 1 24.4837 11.5737 1.22774 
15 1 26.4364 0.829145 2.46427 
23 1 25.2211 3.35982 2.46425 
28 1 24.7302 4.75951 2.46425 
31 1 26.0678 1.43272 1.22777 
39 1 25.4681 2.67985 1.22774 
2 1 27.3714 17.398 2.46423 
6 1 28.1771 17.398 1.22772 
10 1 29.5975 17.398 1.22774 
14 1 26.4364 16.1869 2.46427 
22 1 25.2211 13.6562 2.46425 
25 1 24.7302 12.2565 2.46425 
30 1 26.0678 15.5833 1.22777 
38 1 25.4681 14.3362 1.22774 
46 1 30.3328 17.3979 2.46425 
50 1 31.7129 17.3979 2.46425 
54 1 32.4489 17.3986 1.22775 
ITEM: TIMESTEP
40
ITEM: NUMBER OF ATOMS
59
ITEM: BOX BOUNDS pp pp pp
0.0000000000000000e+00 3.2808000000000000e+01
0.0000000000000000e+00 1.7780000000000001e+01
0.0000000000000000e+00 2.4729999999999999e+00
ITEM: ATOMS id type x y z 
13 1 6.95805 1.02032 2.44872 
29 1 7.72559 1.18539 1.2131 
37 1 8.12216 2.56377 1.22415 
57 2 5.9983 1.68514 2.44824 
58 2 4.88963 2.88589 0.0816202 
59 3 4.22538 2.26659 0.217124 
1 1 6.24865 17.489 2.46041 
5 1 5.43495 17.429 1.22416 
9 1 4.01139 17.3756 1.22785 
16 1 7.20278 16.3194 2.46406 
32 1 7.49355 15.6619 1.22771 
40 1 8.06672 14.3578 1.22779 
45 1 3.24332 17.377 2.46429 
49 1 1.85334 17.3961 2.46429 
53 1 1.11672 17.4026 1.2278 
4 1 10.9197 8.50314 2.46423 
8 1 11.7577 8.50147 1.22775 
12 1 13.1443 8.50864 1.22775 
18 1 10.0045 7.28814 2.46424 
21 1 8.27221 3.30983 2.46097 
26 1 8.74595 4.67386 2.46395 
34 1 9.63504 6.68895 1.22775 
42 1 9.00181 5.36571 1.2275 
48 1 13.8789 8.50841 2.46424 
52 1 15.3463 8.50797 2.46425 
56 1 16.0856 8.50799 1.22775 
19 1 10.0056 9.71217 2.46425 
24 1 8.32254 13.6753 2.46428 
27 1 8.79243 12.2818 2.46424 
35 1 9.63201 10.3226 1.22776 
43 1 9.03015 11.5885 1.22776 
3 1 22.611 8.508 2.46423 
7 1 21.7824 8.508 1.22775 
11 1 20.3898 8.508 1.22775 
20 1 23.5409 7.29766 2.46425 
36 1 23.9179 6.69762 1.22776 
44 1 24.5119 5.44847 1.22776 
47 1 19.6521 8.508 2.46424 
51 1 18.1908 8.508 2.46425 
55 1 17.4463 8.50801 1.22775 
17 1 23.5409 9.71834 2.46425 
33 1 23.9179 10.3184 1.22776 
41 1 24.5119 11.5675 1.22776 
15 1 26.4245 0.826962 2.46425 
23 1 25.2073 3.35401 2.46425 
28 1 24.7453 4.76136 2.46425 
31 1 26.0391 1.41939 1.22776 
39 1 25.4415 2.66734 1.22776 
2 1 27.3665 17.398 2.46423 
6 1 28.1594 17.398 1.22775 
10 1 29.5886 17.398 1.22775 
14 1 26.4246 16.189 2.46425 
22 1 25.2073 13.662 2.46425 
25 1 24.7453 12.2546 2.46425 
30 1 26.0391 15.5966 1.22776 
38 1 25.4415 14.3487 1.22776 
46 1 30.357 17.3977 2.46424 
50 1 31.7177 17.3979 2.46425 
54 1 32.4631 17.3995 1.22776 
ITEM: TIMESTEP
50
ITEM: NUMBER OF ATOMS
59
ITEM: BOX BOUNDS pp pp pp
0.0000000000000000e+00 3.2808000000000000e+01
0.0000000000000000e+00 1.7780000000000001e+01
0.0000000000000000e+00 2.4729999999999999e+00
ITEM: ATOMS id type x y z 
13 1 6.97373 1.04026 2.44996 
29 1 7.74854 1.18669 1.2138 
37 1 8.14887 2.55683 1.22339 
57 2 6.00449 1.68026 2.453 
58 2 4.87996 2.90657 0.0787926 
59 3 4.22655 2.27241 0.218841 
1 1 6.25379 17.4833 2.45932 
5 1 5.43763 17.4292 1.22325 
9 1 4.0238 17.3684 1.22762 
16 1 7.23147 16.3416 2.46368 
32 1 7.51923 15.6788 1.22737 
40 1 8.07451 14.3673 1.22775 
45 1 3.24997 17.371 2.46404 
49 1 1.85538 17.3955 2.46429 
53 1 1.12496 17.4045 1.22778 
4 1 10.915 8.48739 2.46425 
8 1 11.7347 8.49496 1.22773 
12 1 13.1377 8.50854 1.22774 
18 1 9.98947 7.27358 2.46422 
21 1 8.27892 3.29519 2.45992 
26 1 8.72941 4.67807 2.46375 
34 1 9.62022 6.68288 1.22771 
42 1 8.98881 5.3707 1.22724 
48 1 13.8707 8.50942 2.46425 
52 1 15.33 8.50813 2.46425 
56 1 16.0751 8.50795 1.22775 
19 1 9.99197 9.70855 2.46426 
24 1 8.32595 13.6758 2.46428 
27 1 8.78127 12.2855 2.46426 
35 1 9.62401 10.3026 1.22775 
43 1 9.0136 11.5876 1.22775 
3 1 22.6087 8.508 2.46425 
7 1 21.7866 8.508 1.22773 
11 1 20.3879 8.508 1.22774 
20 1 23.547 7.30184 2.46426 
36 1 23.9352 6.71138 1.22775 
44 1 24.5328 5.4549 1.22775 
47 1 19.6548 8.508 2.46425 
51 1 18.1911 8.508 2.46425 
55 1 17.4506 8.50799 1.22775 
17 1 23.547 9.71416 2.46426 
33 1 23.9352 10.3046 1.22775 
41 1 24.5328 11.5611 1.22775 
15 1 26.4186 0.824124 2.46426 
23 1 25.1955 3.35116 2.46426 
28 1 24.7565 4.76456 2.46426 
31 1 26.0215 1.40705 1.22775 
39 1 25.419 2.66044 1.22775 
2 1 27.3652 17.398 2.46425 
6 1 28.1596 17.398 1.22773 
10 1 29.5868 17.3979 1.22774 
14 1 26.4187 16.1919 2.46426 
22 1 25.1955 13.6648 2.46426 
25 1 24.7565 12.2514 2.46426 
30 1 26.0215 15.609 1.22775 
38 1 25.419 14.3556 1.22775 
46 1 30.3547 17.3974 2.46425 
50 1 31.7276 17.3978 2.46426 
54 1 32.4613 17.4004 1.22775 
ITEM: TIMESTEP
60
ITEM: NUMBER OF ATOMS
59
ITEM: BOX BOUNDS pp pp pp
0.0000000000000000e+00 3.2808000000000000e+01
0.0000000000000000e+00 1.7780000000000001e+01
0.0000000000000000e+00 2.4729999999999999e+00
ITEM: ATOMS id type x y z 
13 1 6.99426 1.02059 2.45192 
29 1 7.74823 1.15356 1.21589 
37 1 8.19473 2.54337 1.22199 
57 2 6.01465 1.67911 2.4594 
58 2 4.86399 2.93432 0.0742365 
59 3 4.23539 2.28228 0.220791 
1 1 6.27473 17.5081 2.45837 
5 1 5.45554 17.4267 1.22203 
9 1 4.04616 17.3573 1.22713 
16 1 7.27231 16.3768 2.46301 
32 1 7.55768 15.7184 1.22672 
40 1 8.09289 14.3745 1.22768 
45 1 3.27875 17.3594 2.46361 
49 1 1.8567 17.3947 2.46422 
53 1 1.11864 17.4083 1.22774 
4 1 10.8934 8.48143 2.46422 
8 1 11.7379 8.48553 1.22776 
12 1 13.1193 8.5085 1.22775 
18 1 9.97714 7.27651 2.46415 
21 1 8.29087 3.28173 2.45913 
26 1 8.70028 4.6795 2.46324 
34 1 9.59444 6.67881 1.22764 
42 1 8.95364 5.37124 1.22693 
48 1 13.864 8.51182 2.46423 
52 1 15.3186 8.50873 2.46424 
56 1 16.0675 8.50783 1.22776 
19 1 9.98144 9.68429 2.46424 
24 1 8.32996 13.6777 2.46418 
27 1 8.76266 12.2901 2.46424 
35 1 9.59785 10.2939 1.22776 
43 1 8.98526 11.5832 1.22777 
3 1 22.6136 8.508 2.46423 
7 1 21.7843 8.508 1.22777 
11 1 20.393 8.508 1.22775 
20 1 23.5545 7.30643 2.46424 
36 1 23.9645 6.72792 1.22776 
44 1 24.5682 5.46677 1.22776 
47 1 19.6473 8.508 2.46423 
51 1 18.1934 8.50801 2.46424 
55 1 17.4456 8.5079 1.22776 
17 1 23.5545 9.70957 2.46424 
33 1 23.9645 10.2881 1.22776 
41 1 24.5682 11.5492 1.22776 
15 1 26.4118 0.82015 2.46424 
23 1 25.1742 3.34708 2.46424 
28 1 24.7768 4.76864 2.46424 
31 1 25.9931 1.39077 1.22776 
39 1 25.3814 2.64809 1.22776 
2 1 27.359 17.398 2.46422 
6 1 28.156 17.3981 1.22777 
10 1 29.5815 17.3978 1.22776 
14 1 26.4119 16.1958 2.46424 
22 1 25.1742 13.6689 2.46424 
25 1 24.7768 12.2474 2.46424 
30 1 25.9932 15.6252 1.22776 
38 1 25.3814 14.3679 1.22776 
46 1 30.3519 17.3968 2.46424 
50 1 31.7224 17.3977 2.46424 
54 1 32.471 17.4024 1.22777 
ITEM: TIMESTEP
70
ITEM: NUMBER OF ATOMS
59
ITEM: BOX BOUNDS pp pp pp
0.0000000000000000e+00 3.2808000000000000e+01
0.0000000000000000e+00 1.7780000000000001e+01
0.0000000000000000e+00 2.4729999999999999e+00
ITEM: ATOMS id type x y z 
13 1 6.99621 1.04242 2.45287 
29 1 7.77384 1.17349 1.21641 
37 1 8.20422 2.53345 1.22209 
57 2 6.0202 1.67948 2.4612 
58 2 4.8606 2.94474 0.0718987 
59 3 4.23983 2.28333 0.221768 
1 1 6.27552 17.4982 2.45821 
5 1 5.44389 17.4226 1.22218 
9 1 4.05123 17.3531 1.22695 
16 1 7.28798 16.3923 2.46277 
32 1 7.57414 15.7304 1.22647 
40 1 8.10062 14.3804 1.2276 
45 1 3.28985 17.3541 2.46336 
49 1 1.85165 17.3947 2.4642 
53 1 1.12579 17.4099 1.2277 
4 1 10.8981 8.46819 2.46424 
8 1 11.7213 8.48113 1.22773 
12 1 13.1198 8.50837 1.22774 
18 1 9.96777 7.26372 2.46412 
21 1 8.30183 3.28015 2.45867 
26 1 8.69021 4.6771 2.46314 
34 1 9.58539 6.67583 1.2276 
42 1 8.94148 5.36978 1.22669 
48 1 13.8589 8.51316 2.46425 
52 1 15.3218 8.50916 2.46425 
56 1 16.0623 8.50777 1.22775 
19 1 9.97109 9.68763 2.46426 
24 1 8.33303 13.6726 2.46415 
27 1 8.75343 12.2958 2.46425 
35 1 9.59638 10.2742 1.22775 
43 1 8.97269 11.5805 1.22775 
3 1 22.6116 8.508 2.46425 
7 1 21.7883 8.508 1.22774 
11 1 20.3901 8.508 1.22774 
20 1 23.5562 7.30744 2.46425 
36 1 23.9726 6.73534 1.22775 
44 1 24.5825 5.47077 1.22775 
47 1 19.6529 8.50801 2.46425 
51 1 18.1898 8.508 2.46425 
55 1 17.4498 8.5078 1.22775 
17 1 23.5562 9.70856 2.46425 
33 1 23.9726 10.2807 1.22775 
41 1 24.5825 11.5452 1.22775 
15 1 26.4081 0.820759 2.46425 
23 1 25.1651 3.34513 2.46426 
28 1 24.7851 4.77107 2.46426 
31 1 25.9839 1.38522 1.22775 
39 1 25.3662 2.64466 1.22775 
2 1 27.357 17.398 2.46425 
6 1 28.1542 17.3981 1.22774 
10 1 29.5782 17.3977 1.22774 
14 1 26.4082 16.1952 2.46425 
22 1 25.1651 13.6709 2.46426 
25 1 24.7851 12.2449 2.46426 
30 1 25.9839 15.6308 1.22775 
38 1 25.3662 14.3713 1.22775 
46 1 30.3477 17.3964 2.46425 
50 1 31.7296 17.3978 2.46426 
54 1 32.467 17.4035 1.22775 
ITEM: TIMESTEP
80
ITEM: NUMBER OF ATOMS
59
ITEM: BOX BOUNDS pp pp pp
0.0000000000000000e+00 3.2808000000000000e+01
0.0000000000000000e+00 1.7780000000000001e+01
0.0000000000000000e+00 2.4729999999999999e+00
ITEM: ATOMS id type x y z 
13 1 7.00047 1.03798 2.45363 
29 1 7.77405 1.16215 1.21721 
37 1 8.22104 2.53019 1.22189 
57 2 6.02499 1.68192 2.46285 
58 2 4.8564 2.95463 0.0695355 
59 3 4.24508 2.28522 0.2227 
1 1 6.27957 17.4976 2.45829 
5 1 5.45031 17.4187 1.22216 
9 1 4.05537 17.3496 1.22671 
16 1 7.30082 16.4014 2.46254 
32 1 7.59272 15.7395 1.22623 
40 1 8.10814 14.3853 1.22754 
45 1 3.29669 17.3483 2.46313 
49 1 1.85624 17.3944 2.46415 
53 1 1.12675 17.4116 1.22766 
4 1 10.8924 8.469 2.46423 
8 1 11.7205 8.47776 1.22773 
12 1 13.1156 8.50842 1.22774 
18 1 9.96386 7.26306 2.46407 
21 1 8.30957 3.2758 2.45861 
26 1 8.67941 4.67825 2.46295 
34 1 9.57677 6.6776 1.22755 
42 1 8.92655 5.37332 1.22655 
48 1 13.8575 8.51457 2.46424 
52 1 15.3159 8.50975 2.46425 
56 1 16.0598 8.50771 1.22775 
19 1 9.96801 9.68133 2.46425 
24 1 8.333 13.6759 2.46408 
27 1 8.74634 12.2938 2.46424 
35 1 9.58752 10.2708 1.22775 
43 1 8.95996 11.5814 1.22775 
3 1 22.6129 8.508 2.46425 
7 1 21.7882 8.508 1.22775 
11 1 20.3919 8.508 1.22775 
20 1 23.5582 7.30858 2.46425 
36 1 23.9816 6.74145 1.22775 
44 1 24.5976 5.47584 1.22775 
47 1 19.6514 8.50802 2.46424 
51 1 18.1917 8.50799 2.46425 
55 1 17.4492 8.50766 1.22775 
17 1 23.5582 9.70742 2.46425 
33 1 23.9816 10.2746 1.22775 
41 1 24.5976 11.5402 1.22775 
15 1 26.4047 0.820048 2.46425 
23 1 25.155 3.34411 2.46425 
28 1 24.7944 4.77286 2.46425 
31 1 25.9741 1.38028 1.22775 
39 1 25.3502 2.64031 1.22775 
2 1 27.3525 17.398 2.46425 
6 1 28.1527 17.3982 1.22775 
10 1 29.5733 17.3976 1.22775 
14 1 26.4048 16.1959 2.46425 
22 1 25.155 13.6719 2.46425 
25 1 24.7944 12.2432 2.46425 
30 1 25.9742 15.6357 1.22775 
38 1 25.3502 14.3757 1.22775 
46 1 30.3443 17.396 2.46425 
50 1 31.7323 17.3978 2.46425 
54 1 32.4736 17.4048 1.22775 
ITEM: TIMESTEP
90
ITEM: NUMBER OF ATOMS
59
ITEM: BOX BOUNDS pp pp pp
0.0000000000000000e+00 3.2808000000000000e+01
0.0000000000000000e+00 1.7780000000000001e+01
0.0000000000000000e+00 2.4729999999999999e+00
ITEM: ATOMS id type x y z 
13 1 7.03622 1.03363 2.45981 
29 1 7.79838 1.16545 1.2231 
37 1 8.33645 2.5028 1.22145 
57 2 6.06854 1.69448 2.47501 
58 2 4.82376 3.03109 0.0497973 
59 3 4.29064 2.29968 0.230483 
1 1 6.31498 17.4631 2.45893 
5 1 5.49039 17.3812 1.22267 
9 1 4.09083 17.3188 1.22498 
16 1 7.40676 16.4407 2.46093 
32 1 7.74011 15.7961 1.22458 
40 1 8.17487 14.3995 1.22693 
45 1 3.33528 17.3055 2.46156 
49 1 1.89338 17.3909 2.46373 
53 1 1.151 17.4251 1.22728 
4 1 10.847 8.4631 2.46416 
8 1 11.67 8.45698 1.22765 
12 1 13.0714 8.50723 1.22773 
18 1 9.92872 7.2451 2.46368 
21 1 8.39173 3.25725 2.45788 
26 1 8.60379 4.68932 2.46169 
34 1 9.51425 6.68009 1.22712 
42 1 8.8194 5.39881 1.22529 
48 1 13.8266 8.52567 2.46424 
52 1 15.2697 8.51523 2.46425 
56 1 16.0138 8.50743 1.22774 
19 1 9.9227 9.67913 2.46425 
24 1 8.3374 13.6873 2.46356 
27 1 8.68686 12.2732 2.46416 
35 1 9.52762 10.2514 1.22774 
43 1 8.89044 11.5653 1.22767 
3 1 22.6188 8.50802 2.46426 
7 1 21.7973 8.508 1.22774 
11 1 20.3984 8.50804 1.22774 
20 1 23.5738 7.31757 2.46425 
36 1 24.0454 6.79448 1.22775 
44 1 24.7244 5.50751 1.22775 
47 1 19.6476 8.50815 2.46425 
51 1 18.1988 8.50773 2.46425 
55 1 17.458 8.50623 1.22774 
17 1 23.5738 9.69846 2.46425 
33 1 24.0454 10.2216 1.22775 
41 1 24.7244 11.5086 1.22775 
15 1 26.374 0.81555 2.46425 
23 1 25.0686 3.3481 2.46426 
28 1 24.8725 4.77896 2.46426 
31 1 25.9029 1.33784 1.22775 
39 1 25.2155 2.61495 1.22775 
2 1 27.3221 17.3981 2.46426 
6 1 28.1459 17.3986 1.22774 
10 1 29.5459 17.3959 1.22775 
14 1 26.3744 16.2004 2.46425 
22 1 25.0686 13.668 2.46426 
25 1 24.8725 12.2371 2.46426 
30 1 25.9032 15.6782 1.22775 
38 1 25.2156 14.4011 1.22775 
46 1 30.3138 17.3921 2.46425 
50 1 31.7652 17.3991 2.46422 
54 1 32.5072 17.416 1.2277 
ITEM: TIMESTEP
100
ITEM: NUMBER OF ATOMS
59
ITEM: BOX BOUNDS pp pp pp
0.0000000000000000e+00 3.2808000000000000e+01
0.0000000000000000e+00 1.7780000000000001e+01
0.0000000000000000e+00 2.4729999999999999e+00
ITEM: ATOMS id type x y z 
13 1 7.03343 1.02692 2.46007 
29 1 7.79594 1.16997 1.22341 
37 1 8.34219 2.50347 1.22156 
57 2 6.07084 1.6928 2.47525 
58 2 4.82112 3.03447 0.0482102 
59 3 4.29557 2.30148 0.231102 
1 1 6.3046 17.4544 2.45915 
5 1 5.49071 17.3772 1.22278 
9 1 4.0817 17.3163 1.22497 
16 1 7.40453 16.4385 2.46094 
32 1 7.74641 15.7967 1.22456 
40 1 8.17744 14.4063 1.22689 
45 1 3.32228 17.3088 2.46158 
49 1 1.88766 17.3898 2.46363 
53 1 1.13895 17.4226 1.22725 
4 1 10.8442 8.46268 2.46414 
8 1 11.6706 8.45885 1.22765 
12 1 13.0676 8.50707 1.22773 
18 1 9.92455 7.24594 2.46363 
21 1 8.39989 3.25895 2.45814 
26 1 8.60118 4.68917 2.46162 
34 1 9.51139 6.67994 1.22707 
42 1 8.81385 5.40126 1.22526 
48 1 13.8245 8.52571 2.46424 
52 1 15.2673 8.5159 2.46425 
56 1 16.0105 8.50766 1.22775 
19 1 9.92131 9.6758 2.46424 
24 1 8.33845 13.6857 2.46349 
27 1 8.68164 12.2756 2.46413 
35 1 9.52518 10.2539 1.22774 
43 1 8.88744 11.5655 1.22765 
3 1 22.6215 8.50805 2.46425 
7 1 21.7985 8.50801 1.22775 
11 1 20.4008 8.50806 1.22775 
20 1 23.5777 7.31823 2.46425 
36 1 24.0469 6.79173 1.22775 
44 1 24.731 5.50691 1.22775 
47 1 19.6443 8.50818 2.46425 
51 1 18.2004 8.5076 2.46425 
55 1 17.4573 8.50605 1.22775 
17 1 23.5777 9.69783 2.46425 
33 1 24.0469 10.2244 1.22775 
41 1 24.731 11.5092 1.22775 
15 1 26.3739 0.807058 2.46425 
23 1 25.0657 3.34093 2.46425 
28 1 24.8768 4.7778 2.46425 
31 1 25.9102 1.33307 1.22775 
39 1 25.2126 2.61485 1.22775 
2 1 27.3381 17.3981 2.46425 
6 1 28.1528 17.3985 1.22775 
10 1 29.5589 17.3954 1.22775 
14 1 26.3743 16.2089 2.46425 
22 1 25.0658 13.6752 2.46425 
25 1 24.8768 12.2383 2.46425 
30 1 25.9105 15.683 1.22775 
38 1 25.2128 14.4012 1.22775 
46 1 30.3181 17.3926 2.46425 
50 1 31.7575 17.4007 2.46421 
54 1 32.5055 17.4159 1.22769 
ITEM: TIMESTEP
110
ITEM: NUMBER OF ATOMS
59
ITEM: BOX BOUNDS pp pp pp
0.0000000000000000e+00 3.2808000000000000e+01
0.0000000000000000e+00 1.7780000000000001e+01
0.0000000000000000e+00 2.4729999999999999e+00
ITEM: ATOMS id type x y z 
13 1 7.03253 1.02219 2.46039 
29 1 7.79058 1.17377 1.22378 
37 1 8.34959 2.50382 1.22181 
57 2 6.07288 1.68993 2.4756 
58 2 4.81824 3.03974 0.0458601 
59 3 4.30134 2.30304 0.232189 
1 1 6.30153 17.4482 2.45936 
5 1 5.48639 17.3707 1.22298 
9 1 4.0808 17.3136 1.22499 
16 1 7.40362 16.4367 2.46095 
32 1 7.7548 15.7982 1.22456 
40 1 8.18329 14.4076 1.22682 
45 1 3.32183 17.3105 2.46155 
49 1 1.88496 17.3887 2.46357 
53 1 1.13898 17.4214 1.22716 
4 1 10.8432 8.4629 2.46412 
8 1 11.6684 8.46114 1.22763 
12 1 13.0661 8.50698 1.22773 
18 1 9.92022 7.24742 2.46357 
21 1 8.41009 3.2596 2.45838 
26 1 8.59832 4.69078 2.46157 
34 1 9.50815 6.68101 1.22701 
42 1 8.80702 5.40446 1.22521 
48 1 13.8242 8.52547 2.46423 
52 1 15.2662 8.51665 2.46425 
56 1 16.0113 8.50811 1.22775 
19 1 9.91836 9.67447 2.46424 
24 1 8.33934 13.6859 2.46342 
27 1 8.67609 12.2751 2.46411 
35 1 9.5237 10.2547 1.22774 
43 1 8.88422 11.5657 1.22763 
3 1 22.6227 8.50806 2.46425 
7 1 21.8017 8.50802 1.22775 
11 1 20.4019 8.50809 1.22775 
20 1 23.5827 7.31979 2.46425 
36 1 24.0459 6.78939 1.22775 
44 1 24.7358 5.50469 1.22775 
47 1 19.6437 8.50819 2.46425 
51 1 18.2018 8.5074 2.46425 
55 1 17.4565 8.50587 1.22775 
17 1 23.5828 9.69629 2.46425 
33 1 24.0459 10.2267 1.22775 
41 1 24.7358 11.5114 1.22775 
15 1 26.3717 0.803153 2.46425 
23 1 25.0613 3.34 2.46425 
28 1 24.8812 4.77745 2.46425 
31 1 25.9116 1.33519 1.22775 
39 1 25.2109 2.61316 1.22775 
2 1 27.3378 17.3982 2.46425 
6 1 28.1579 17.3983 1.22775 
10 1 29.5578 17.3949 1.22775 
14 1 26.3721 16.2128 2.46425 
22 1 25.0614 13.6761 2.46425 
25 1 24.8812 12.2387 2.46425 
30 1 25.9119 15.6808 1.22775 
38 1 25.211 14.4029 1.22775 
46 1 30.3154 17.3927 2.46424 
50 1 31.7577 17.4019 2.46419 
54 1 32.5028 17.4166 1.22767 
ITEM: TIMESTEP
120
ITEM: NUMBER OF ATOMS
59
ITEM: BOX BOUNDS pp pp pp
0.0000000000000000e+00 3.2808000000000000e+01
0.0000000000000000e+00 1.7780000000000001e+01
0.0000000000000000e+00 2.4729999999999999e+00
ITEM: ATOMS id type x y z 
13 1 7.0299 1.01065 2.46215 
29 1 7.77446 1.20017 1.22614 
37 1 8.38935 2.5081 1.22327 
57 2 6.06765 1.67538 2.4776 
58 2 4.80218 3.07418 0.0300926 
59 3 4.33369 2.31082 0.240196 
1 1 6.29585 17.4183 2.46053 
5 1 5.48992 17.3345 1.22407 
9 1 4.07658 17.2999 1.22505 
16 1 7.41251 16.4244 2.46104 
32 1 7.79883 15.8056 1.22461 
40 1 8.2198 14.4102 1.22642 
45 1 3.31243 17.3126 2.46161 
49 1 1.88294 17.3845 2.46316 
53 1 1.12922 17.4166 1.22678 
4 1 10.841 8.4603 2.464 
8 1 11.6646 8.47014 1.22753 
12 1 13.0646 8.50741 1.2277 
18 1 9.90393 7.25561 2.46324 
21 1 8.46761 3.26497 2.45982 
26 1 8.58782 4.69932 2.46134 
34 1 9.48859 6.69116 1.22666 
42 1 8.77514 5.42198 1.22496 
48 1 13.8237 8.5221 2.46421 
52 1 15.2649 8.51995 2.46424 
56 1 16.0129 8.51173 1.22774 
19 1 9.90793 9.66832 2.46419 
24 1 8.34656 13.6853 2.46303 
27 1 8.64903 12.2647 2.46393 
35 1 9.51741 10.2515 1.22769 
43 1 8.86646 11.5611 1.22747 
3 1 22.6254 8.50806 2.46425 
7 1 21.8068 8.50812 1.22775 
11 1 20.4062 8.50829 1.22775 
20 1 23.5994 7.327 2.46425 
36 1 24.0416 6.78246 1.22775 
44 1 24.7523 5.50466 1.22775 
47 1 19.6461 8.50804 2.46425 
51 1 18.2057 8.50603 2.46425 
55 1 17.4573 8.5053 1.22775 
17 1 23.5995 9.68912 2.46425 
33 1 24.0416 10.2337 1.22775 
41 1 24.7522 11.5116 1.22775 
15 1 26.3602 0.801574 2.46425 
23 1 25.0404 3.33573 2.46425 
28 1 24.9014 4.78171 2.46425 
31 1 25.9123 1.34002 1.22775 
39 1 25.1961 2.61147 1.22775 
2 1 27.3342 17.3983 2.46425 
6 1 28.1471 17.3974 1.22775 
10 1 29.5534 17.3927 1.22773 
14 1 26.3606 16.2145 2.46425 
22 1 25.0406 13.6804 2.46425 
25 1 24.9013 12.2345 2.46425 
30 1 25.9129 15.676 1.22775 
38 1 25.1964 14.4046 1.22775 
46 1 30.3097 17.3929 2.46422 
50 1 31.75 17.4082 2.46406 
54 1 32.4989 17.421 1.22752 
ITEM: TIMESTEP
130
ITEM: NUMBER OF ATOMS
59
ITEM: BOX BOUNDS pp pp pp
0.0000000000000000e+00 3.2808000000000000e+01
0.0000000000000000e+00 1.7780000000000001e+01
0.0000000000000000e+00 2.4729999999999999e+00
ITEM: ATOMS id type x y z 
13 1 7.02962 1.01171 2.46267 
29 1 7.77141 1.20533 1.22639 
37 1 8.39582 2.50987 1.22363 
57 2 6.06051 1.66941 2.47825 
58 2 4.79791 3.08129 0.0260363 
59 3 4.34134 2.31348 0.242206 
1 1 6.29656 17.4149 2.4607 
5 1 5.48501 17.3292 1.22428 
9 1 4.07725 17.2984 1.22513 
16 1 7.41498 16.4236 2.4611 
32 1 7.80442 15.8058 1.22467 
40 1 8.22634 14.4111 1.22637 
45 1 3.32088 17.312 2.46164 
49 1 1.87935 17.3845 2.46313 
53 1 1.13486 17.4156 1.2267 
4 1 10.8431 8.45994 2.46398 
8 1 11.6641 8.46939 1.2275 
12 1 13.0658 8.50745 1.22769 
18 1 9.90328 7.25599 2.46318 
21 1 8.47636 3.26567 2.46006 
26 1 8.58947 4.70062 2.46138 
34 1 9.48436 6.69398 1.2266 
42 1 8.77271 5.42475 1.22497 
48 1 13.8254 8.52147 2.4642 
52 1 15.2661 8.51996 2.46424 
56 1 16.0134 8.5126 1.22774 
19 1 9.90823 9.66938 2.46417 
24 1 8.3497 13.6838 2.46297 
27 1 8.64612 12.2624 2.46389 
35 1 9.5161 10.2498 1.22767 
43 1 8.86374 11.5568 1.22742 
3 1 22.6248 8.50806 2.46425 
7 1 21.8078 8.50816 1.22775 
11 1 20.4046 8.5083 1.22775 
20 1 23.5978 7.32516 2.46425 
36 1 24.0435 6.78262 1.22775 
44 1 24.7504 5.50879 1.22775 
47 1 19.6454 8.50787 2.46425 
51 1 18.2048 8.50579 2.46425 
55 1 17.4574 8.50555 1.22775 
17 1 23.5979 9.69096 2.46425 
33 1 24.0435 10.2335 1.22775 
41 1 24.7503 11.5074 1.22775 
15 1 26.3603 0.803014 2.46425 
23 1 25.0393 3.33933 2.46425 
28 1 24.9022 4.78055 2.46425 
31 1 25.9089 1.34206 1.22775 
39 1 25.1937 2.6117 1.22775 
2 1 27.3289 17.3984 2.46425 
6 1 28.1495 17.3972 1.22775 
10 1 29.5494 17.3924 1.22772 
14 1 26.3606 16.2131 2.46425 
22 1 25.0394 13.6768 2.46425 
25 1 24.9021 12.2356 2.46425 
30 1 25.9095 15.674 1.22775 
38 1 25.194 14.4044 1.22775 
46 1 30.3094 17.3932 2.46421 
50 1 31.7505 17.4094 2.46402 
54 1 32.4964 17.4216 1.22749 
ITEM: TIMESTEP
140
ITEM: NUMBER OF ATOMS
59
ITEM: BOX BOUNDS pp pp pp
0.0000000000000000e+00 3.2808000000000000e+01
0.0000000000000000e+00 1.7780000000000001e+01
0.0000000000000000e+00 2.4729999999999999e+00
ITEM: ATOMS id type x y z 
13 1 7.02837 1.01056 2.46309 
29 1 7.76558 1.21306 1.22678 
37 1 8.40371 2.51109 1.22406 
57 2 6.05025 1.65971 2.47973 
58 2 4.79178 3.09212 0.019664 
59 3 4.35227 2.31704 0.245353 
1 1 6.29529 17.409 2.46098 
5 1 5.48574 17.3228 1.22454 
9 1 4.07636 17.2967 1.22521 
16 1 7.41682 16.4212 2.4612 
32 1 7.81047 15.8057 1.22475 
40 1 8.23462 14.4114 1.22631 
45 1 3.31916 17.3119 2.46172 
49 1 1.87883 17.3837 2.46306 
53 1 1.13373 17.4139 1.22664 
4 1 10.8427 8.46027 2.46393 
8 1 11.6644 8.46861 1.22746 
12 1 13.0659 8.50712 1.22767 
18 1 9.90148 7.25777 2.4631 
21 1 8.4885 3.26642 2.4605 
26 1 8.59208 4.70162 2.46143 
34 1 9.47918 6.69749 1.22652 
42 1 8.76915 5.428 1.22501 
48 1 13.8253 8.52088 2.46418 
52 1 15.2663 8.52019 2.46423 
56 1 16.014 8.51358 1.22774 
19 1 9.9088 9.66983 2.46414 
24 1 8.35443 13.6833 2.4629 
27 1 8.64249 12.2602 2.46382 
35 1 9.51418 10.2488 1.22763 
43 1 8.85891 11.5539 1.22736 
3 1 22.6249 8.50806 2.46425 
7 1 21.8077 8.50822 1.22775 
11 1 20.4046 8.50826 1.22775 
20 1 23.5964 7.32443 2.46425 
36 1 24.0444 6.78333 1.22775 
44 1 24.751 5.50845 1.22775 
47 1 19.6454 8.50761 2.46425 
51 1 18.2052 8.50555 2.46425 
55 1 17.4574 8.50589 1.22775 
17 1 23.5965 9.69167 2.46425 
33 1 24.0444 10.2328 1.22775 
41 1 24.751 11.5077 1.22775 
15 1 26.3596 0.803426 2.46425 
23 1 25.0389 3.33904 2.46425 
28 1 24.9025 4.78084 2.46425 
31 1 25.9086 1.34211 1.22775 
39 1 25.1934 2.61117 1.22775 
2 1 27.3284 17.3983 2.46425 
6 1 28.1482 17.3968 1.22774 
10 1 29.5489 17.3923 1.22771 
14 1 26.3597 16.2127 2.46425 
22 1 25.039 13.6771 2.46425 
25 1 24.9024 12.2353 2.46425 
30 1 25.9091 15.6739 1.22775 
38 1 25.1936 14.4049 1.22775 
46 1 30.3091 17.3939 2.4642 
50 1 31.7497 17.411 2.46396 
54 1 32.4963 17.4221 1.22743 
ITEM: TIMESTEP
150
ITEM: NUMBER OF ATOMS
59
ITEM: BOX BOUNDS pp pp pp
0.0000000000000000e+00 3.2808000000000000e+01
0.0000000000000000e+00 1.7780000000000001e+01
0.0000000000000000e+00 2.4729999999999999e+00
ITEM: ATOMS id type x y z 
13 1 7.02061 1.00633 2.46288 
29 1 7.75147 1.23426 1.226 
37 1 8.42277 2.51353 1.22516 
57 2 6.02332 1.63126 2.48771 
58 2 4.77368 3.12203 0.000639046 
59 3 4.38148 2.32875 0.25479 
1 1 6.29247 17.3908 2.46163 
5 1 5.49358 17.3066 1.2252 
9 1 4.07417 17.292 1.22547 
16 1 7.42083 16.414 2.46146 
32 1 7.82517 15.8027 1.225 
40 1 8.2556 14.4124 1.22615 