ITEM: TIMESTEP
0
ITEM: NUMBER OF ATOMS
162
ITEM: BOX BOUNDS xy xz yz pp pp pp
-6.7755000000000001e+00 1.3552000000000000e+01 -6.7755000000000001e+00
0.0000000000000000e+00 1.1735510246683001e+01 0.0000000000000000e+00
0.0000000000000000e+00 2.2149999999999999e+01 0.0000000000000000e+00
ITEM: ATOMS id type x y z 
8 1 -2.486 5.297 9.849 
87 1 3.001 4.231 10.696 
90 1 2.733 5.481 9.824 
109 1 -2.486 5.297 0.765 
158 1 2.733 5.481 0.79 
11 1 4.24 4.139 20.131 
14 1 3.031 4.094 19.728 
18 1 1.299 5.827 18.554 
33 1 2.266 4.151 20.924 
43 1 4.343 3.96 21.647 
47 1 3.32 5.732 17.88 
52 1 4.24 4.139 12.633 
76 1 2.552 4.924 14.209 
85 1 4.343 3.96 11.117 
89 1 3.32 5.732 14.883 
91 1 1.036 5.037 11.84 
102 1 3.031 4.094 13.035 
105 1 1.299 5.827 14.209 
114 1 2.266 4.151 11.84 
150 1 2.552 4.924 18.554 
156 1 3.001 4.231 22.068 
159 1 1.036 5.037 20.924 
5 1 -5.049 10.63 8.653 
9 1 -3.317 8.897 7.479 
19 1 -1.707 7.414 10.572 
21 1 -2.66 8.795 10.993 
23 1 -3.31 7.532 6.805 
25 1 -4.284 10.573 9.849 
32 1 1.503 6.367 0.79 
36 1 -1.869 7.426 9.056 
38 1 -2.209 6.086 8.653 
54 1 0.3 8.576 10.696 
57 1 1.291 8.001 9.824 
60 1 -1.707 7.414 0.042 
65 1 -3.31 7.532 3.808 
78 1 -1.869 7.426 1.558 
80 1 -2.566 8.842 1.961 
84 1 -4.57 9.799 3.135 
99 1 -3.054 9.687 0.765 
100 1 -2.96 6.142 3.135 
107 1 -5.049 10.63 1.961 
110 1 -3.317 8.897 3.135 
111 1 0.642 5.929 10.696 
113 1 1.503 6.367 9.824 
119 1 -4.284 10.573 0.765 
127 1 -2.209 6.086 1.961 
131 1 -2.318 6.148 10.993 
138 1 1.291 8.001 0.79 
142 1 -2.566 8.842 8.653 
145 1 -4.57 9.799 7.479 
151 1 -5.019 10.493 10.993 
154 1 -3.054 9.687 9.849 
155 1 -2.96 6.142 7.479 
12 1 2.53 7.1 17.202 
17 1 0.468 9.427 20.924 
24 1 -3.52 8.357 11.865 
27 1 -0.31 7.31 21.647 
29 1 0.642 5.929 22.068 
31 1 1.292 7.192 17.88 
44 1 -0.148 7.298 20.131 
46 1 0.191 8.638 19.728 
51 1 -0.31 7.31 11.117 
53 1 2.53 7.1 15.561 
56 1 1.292 7.192 14.883 
63 1 -2.318 6.148 21.771 
66 1 -3.309 6.723 20.899 
70 1 -0.148 7.298 12.633 
72 1 0.548 5.882 13.035 
92 1 0.942 8.582 14.209 
95 1 -5.019 10.493 21.771 
98 1 -4.751 9.243 20.899 
104 1 0.468 9.427 11.84 
116 1 -2.66 8.795 21.771 
118 1 -3.52 8.357 20.899 
122 1 0.191 8.638 13.035 
133 1 -3.309 6.723 11.865 
136 1 0.3 8.576 22.068 
147 1 0.548 5.882 19.728 
153 1 -4.751 9.243 11.865 
160 1 0.942 8.582 18.554 
1 1 7.976 4.694 10.572 
4 1 9.274 4.77 10.993 
20 1 8.034 4.861 9.056 
42 1 9.55 5.41 7.479 
67 1 10.043 4.578 0.765 
77 1 7.976 4.694 0.042 
94 1 8.035 4.861 1.558 
96 1 9.278 4.635 1.961 
121 1 4.688 5.417 10.696 
130 1 9.55 5.41 3.135 
134 1 10.043 4.578 9.849 
152 1 9.278 4.635 8.653 
45 1 4.688 5.417 22.068 
55 1 4.788 5.329 13.035 
106 1 9.274 4.77 21.771 
137 1 4.788 5.329 19.728 
162 3 8.2665 0.73649 11.84 
2 1 7.294 10.585 9.056 
3 1 9.004 7.624 6.127 
6 1 8.556 6.347 6.805 
16 1 2.314 8.72 0.79 
22 1 7.166 6.156 8.653 
26 1 7.226 8.565 7.479 
35 1 7.191 10.764 10.572 
37 1 6.846 9.307 10.993 
39 1 8.214 8.992 6.805 
41 1 6.677 7.002 9.849 
48 1 3.775 6.213 0.79 
61 1 7.294 10.585 1.558 
62 1 9.004 7.624 4.487 
64 1 6.747 9.395 1.961 
68 1 7.437 6.931 3.135 
71 1 4.29 8.493 10.696 
74 1 3.567 7.818 9.824 
81 1 8.556 6.347 3.808 
83 1 6.47 8.606 0.765 
93 1 7.191 10.764 0.042 
97 1 8.214 8.992 3.808 
101 1 2.261 9.954 10.696 
103 1 2.314 8.72 9.824 
117 1 7.166 6.156 1.961 
120 1 7.226 8.565 3.135 
123 1 3.775 6.213 9.824 
129 1 6.677 7.002 0.765 
132 1 6.747 9.395 8.653 
135 1 7.437 6.931 7.479 
141 1 7.244 6.231 10.993 
144 1 6.47 8.606 9.849 
148 1 3.567 7.818 0.79 
7 1 9.22 6.004 11.865 
10 1 3.558 10.029 21.647 
13 1 2.261 9.954 22.068 
15 1 2.978 8.376 17.88 
28 1 3.5 9.862 20.131 
30 1 4.369 8.568 19.728 
34 1 4.308 6.159 18.554 
40 1 7.76 8.511 11.865 
49 1 4.857 7.722 20.924 
50 1 1.984 9.314 18.554 
58 1 1.491 10.146 11.84 
59 1 4.097 7.793 14.209 
69 1 3.558 10.029 11.117 
73 1 2.978 8.376 14.883 
75 1 5.064 6.118 11.84 
79 1 7.244 6.231 21.771 
82 1 7.967 6.906 20.899 
86 1 3.5 9.862 12.633 
88 1 2.256 10.089 13.035 
108 1 9.22 6.004 20.899 
112 1 4.369 8.568 13.035 
115 1 4.308 6.159 14.209 
124 1 4.857 7.722 11.84 
125 1 1.984 9.314 14.209 
126 1 6.846 9.307 21.771 
128 1 7.76 8.511 20.899 
139 1 1.491 10.146 20.924 
140 1 4.097 7.793 18.554 
143 1 7.967 6.906 11.865 
146 1 4.29 8.493 22.068 
149 1 5.064 6.118 20.924 
157 1 2.256 10.089 19.728 
161 2 1.491 11.496 11.84 
ITEM: TIMESTEP
10
ITEM: NUMBER OF ATOMS
162
ITEM: BOX BOUNDS xy xz yz pp pp pp
-6.7755000000000001e+00 1.3552000000000000e+01 -6.7755000000000001e+00
0.0000000000000000e+00 1.1735510246683001e+01 0.0000000000000000e+00
0.0000000000000000e+00 2.2149999999999999e+01 0.0000000000000000e+00
ITEM: ATOMS id type x y z 
8 1 -2.41356 5.34634 9.85569 
87 1 2.9745 4.25817 10.6428 
90 1 2.67257 5.46258 9.77627 
109 1 -2.41622 5.35153 0.764276 
158 1 2.66705 5.45892 0.840912 
11 1 4.29389 4.18192 20.151 
14 1 2.92101 4.11726 19.6943 
18 1 1.33426 5.83971 18.5786 
33 1 2.14347 4.2151 20.904 
43 1 4.328 4.12149 21.5854 
47 1 3.23339 5.79676 17.8449 
52 1 4.29913 4.17256 12.6227 
76 1 2.43941 4.91517 14.185 
85 1 4.32455 4.12082 11.1721 
89 1 3.2563 5.80198 14.9276 
91 1 0.995476 5.07571 11.8591 
102 1 2.91133 4.12172 13.0695 
105 1 1.31852 5.84844 14.1635 
114 1 2.14304 4.21756 11.8646 
150 1 2.46066 4.89629 18.5726 
156 1 2.97211 4.25148 22.1173 
159 1 0.994537 5.07158 20.9069 
5 1 -4.93125 10.6076 8.61724 
9 1 -3.35465 8.87568 7.49953 
19 1 -1.74456 7.48827 10.5512 
21 1 -2.60222 8.76322 10.8712 
23 1 -3.31415 7.53419 6.83126 
25 1 -4.16269 10.5111 9.82625 
32 1 1.57209 6.34524 0.782002 
36 1 -1.89402 7.52179 9.06938 
38 1 -2.14846 6.19152 8.6315 
54 1 0.287587 8.53799 10.675 
57 1 1.29285 7.95252 9.80543 
60 1 -1.74765 7.49531 0.0616472 
65 1 -3.31451 7.5391 3.77574 
78 1 -1.89576 7.52073 1.54861 
80 1 -2.5428 8.79102 1.84529 
84 1 -4.45693 9.80479 3.11386 
99 1 -3.01562 9.66046 0.780135 
100 1 -2.92678 6.25578 3.18424 
107 1 -4.91968 10.6071 2.0056 
110 1 -3.34457 8.874 3.10202 
111 1 0.5807 5.95214 10.8077 
113 1 1.56545 6.35968 9.82828 
119 1 -4.16003 10.5106 0.78478 
127 1 -2.15285 6.18952 1.97698 
131 1 -2.31173 6.20063 11.0224 
138 1 1.30409 7.96749 0.828246 
142 1 -2.5345 8.79219 8.77816 
145 1 -4.4665 9.81406 7.49909 
151 1 -4.99821 10.4704 11.0455 
154 1 -3.01786 9.66271 9.83263 
155 1 -2.92814 6.25474 7.42676 
12 1 2.5797 7.07482 17.1269 
17 1 0.396259 9.37434 20.9251 
24 1 -3.59395 8.38211 11.8536 
27 1 -0.26551 7.23179 21.6228 
29 1 0.580214 5.96182 21.9485 
31 1 1.29553 7.20314 17.8965 
44 1 -0.116684 7.19565 20.1458 
46 1 0.13329 8.52837 19.7116 
51 1 -0.262983 7.21352 11.1444 
53 1 2.58118 7.07557 15.6239 
56 1 1.2864 7.19368 14.848 
63 1 -2.3102 6.19347 21.7418 
66 1 -3.32645 6.76424 20.8642 
70 1 -0.123755 7.17852 12.6222 
72 1 0.53581 5.92708 12.9402 
92 1 0.901187 8.46166 14.2459 
95 1 -4.99412 10.4701 21.717 
98 1 -4.67077 9.26328 20.8513 
104 1 0.371447 9.32774 11.8529 
116 1 -2.60411 8.75887 21.8961 
118 1 -3.59432 8.38001 20.9123 
122 1 0.121419 8.53311 13.0351 
133 1 -3.32675 6.76121 11.8999 
136 1 0.289281 8.52622 22.0948 
147 1 0.515399 5.93503 19.8514 
153 1 -4.66739 9.26207 11.9139 
160 1 0.908879 8.47296 18.5069 
1 1 7.88178 4.90965 10.5411 
4 1 9.17557 4.79599 11.0435 
20 1 7.88043 4.9406 9.06106 
42 1 9.46514 5.42594 7.43085 
67 1 9.99687 4.54022 0.76259 
77 1 7.88288 4.91423 0.0692717 
94 1 7.87539 4.93738 1.5524 
96 1 9.22375 4.63929 2.00498 
121 1 4.69842 5.41865 10.7207 
130 1 9.46773 5.42692 3.18432 
134 1 9.98991 4.5388 9.85142 
152 1 9.21793 4.64101 8.61133 
45 1 4.69991 5.42727 22.0397 
55 1 4.81239 5.48717 13.0644 
106 1 9.17365 4.79694 21.719 
137 1 4.81487 5.47813 19.7021 
162 3 8.26305 0.742601 11.8394 
2 1 7.23585 10.5488 9.07366 
3 1 8.95944 7.65426 6.06091 
6 1 8.52608 6.39192 6.82977 
16 1 2.39186 8.73596 0.834022 
22 1 7.1628 6.19298 8.71904 
26 1 7.17616 8.42563 7.55081 
35 1 7.20972 10.5993 10.5093 
37 1 6.83396 9.31792 10.9579 
39 1 8.28875 8.92577 6.76096 
41 1 6.73739 7.01794 9.82953 
48 1 3.73006 6.35079 0.835761 
61 1 7.22479 10.5601 1.54874 
62 1 8.96179 7.65586 4.55508 
64 1 6.71034 9.23544 1.99076 
68 1 7.39841 6.96036 3.05434 
71 1 4.28774 8.53563 10.7835 
74 1 3.63513 7.78801 9.8446 
81 1 8.52984 6.39055 3.78502 
83 1 6.53728 8.44594 0.789032 
93 1 7.2052 10.5999 0.0921808 
97 1 8.27642 8.93402 3.85365 
101 1 2.40045 9.92611 10.5865 
103 1 2.39188 8.72968 9.77457 
117 1 7.15759 6.20054 1.88695 
120 1 7.17485 8.42576 3.06387 
123 1 3.73077 6.35934 9.77382 
129 1 6.74276 7.01662 0.783294 
132 1 6.71339 9.24353 8.62544 
135 1 7.40285 6.96183 7.5583 
141 1 7.24456 6.17467 10.9029 
144 1 6.53383 8.45648 9.82148 
148 1 3.6247 7.79848 0.776671 
7 1 9.14597 5.99492 11.9122 
10 1 3.65329 9.81356 21.6083 
13 1 2.35787 9.92509 22.1199 
15 1 3.00558 8.3366 17.906 
28 1 3.64585 9.77751 20.1381 
30 1 4.36927 8.53572 19.7998 
34 1 4.35472 6.29578 18.6282 
40 1 7.80459 8.36326 11.9267 
49 1 4.7956 7.70717 20.9011 
50 1 2.07021 9.29974 18.5114 
58 1 1.50294 10.3226 11.8354 
59 1 4.13104 7.7541 14.129 
69 1 3.66059 9.8057 11.1446 
73 1 3.01625 8.32376 14.865 
75 1 4.9991 6.27236 11.873 
79 1 7.24176 6.17806 21.8677 
82 1 7.91217 6.90687 20.9143 
86 1 3.65408 9.78139 12.6343 
88 1 2.38734 10.0645 13.123 
108 1 9.14238 5.99382 20.8503 
112 1 4.38051 8.5198 12.9683 
115 1 4.3553 6.29741 14.1309 
124 1 4.79398 7.70658 11.8629 
125 1 2.06975 9.29765 14.2686 
126 1 6.83582 9.31372 21.8082 
128 1 7.80906 8.36521 20.8398 
139 1 1.54679 10.1834 20.9222 
140 1 4.13404 7.76134 18.6347 
143 1 7.91276 6.90737 11.8518 
146 1 4.29089 8.54574 21.9762 
149 1 4.99632 6.27132 20.8971 
157 1 2.32207 10.077 19.6905 
161 2 1.45719 11.4794 11.8315 
ITEM: TIMESTEP
20
ITEM: NUMBER OF ATOMS
162
ITEM: BOX BOUNDS xy xz yz pp pp pp
-6.7755000000000001e+00 1.3552000000000000e+01 -6.7755000000000001e+00
0.0000000000000000e+00 1.1735510246683001e+01 0.0000000000000000e+00
0.0000000000000000e+00 2.2149999999999999e+01 0.0000000000000000e+00
ITEM: ATOMS id type x y z 
8 1 -2.42123 5.38478 9.84205 
87 1 2.96389 4.27624 10.6515 
90 1 2.67345 5.45423 9.78323 
109 1 -2.42641 5.38094 0.762043 
158 1 2.65006 5.47393 0.831436 
11 1 4.28199 4.2051 20.1303 
14 1 2.90941 4.14102 19.681 
18 1 1.32294 5.85736 18.5977 
33 1 2.13427 4.21193 20.9085 
43 1 4.30865 4.16708 21.5814 
47 1 3.26448 5.79128 17.8346 
52 1 4.2823 4.20453 12.6329 
76 1 2.44979 4.92929 14.175 
85 1 4.30443 4.1722 11.1891 
89 1 3.25919 5.7905 14.927 
91 1 0.975688 5.09936 11.855 
102 1 2.90488 4.14059 13.0723 
105 1 1.29613 5.85068 14.1645 
114 1 2.11361 4.24344 11.8523 
150 1 2.42212 4.94067 18.5948 
156 1 2.97313 4.27225 22.1199 
159 1 0.986204 5.04541 20.9119 
5 1 -4.92904 10.5862 8.6094 
9 1 -3.32684 8.86563 7.52277 
19 1 -1.72649 7.49577 10.5436 
21 1 -2.61316 8.76364 10.8699 
23 1 -3.30636 7.55136 6.84434 
25 1 -4.15133 10.5094 9.83789 
32 1 1.59043 6.37152 0.758849 
36 1 -1.87003 7.51605 9.06822 
38 1 -2.16715 6.20773 8.63364 
54 1 0.312985 8.51801 10.6839 
57 1 1.29998 7.9368 9.8125 
60 1 -1.72862 7.49785 0.0775938 
65 1 -3.30453 7.556 3.77195 
78 1 -1.87216 7.52335 1.54192 
80 1 -2.54045 8.78967 1.83817 
84 1 -4.45518 9.7925 3.0944 
99 1 -3.00623 9.67364 0.774744 
100 1 -2.93888 6.274 3.17953 
107 1 -4.94105 10.5794 1.99623 
110 1 -3.33074 8.8672 3.09445 
111 1 0.601983 5.94843 10.766 
113 1 1.58641 6.38088 9.84487 
119 1 -4.15574 10.5087 0.78679 
127 1 -2.15669 6.20581 1.97818 
131 1 -2.32684 6.2231 11.0237 
138 1 1.30046 7.91799 0.820291 
142 1 -2.54594 8.79308 8.77311 
145 1 -4.45419 9.78694 7.51315 
151 1 -4.98861 10.452 11.0449 
154 1 -3.00394 9.67111 9.84045 
155 1 -2.93587 6.27542 7.4438 
12 1 2.5621 7.08696 17.1526 
17 1 0.406078 9.34051 20.9267 
24 1 -3.60456 8.34864 11.8363 
27 1 -0.289165 7.23065 21.6133 
29 1 0.599248 5.96024 21.9363 
31 1 1.28634 7.15907 17.9229 
44 1 -0.144819 7.20163 20.1451 
46 1 0.142194 8.51482 19.709 
51 1 -0.270359 7.18571 11.1535 
53 1 2.56326 7.08292 15.6132 
56 1 1.28458 7.19028 14.8456 
63 1 -2.3263 6.21607 21.7408 
66 1 -3.32052 6.80478 20.871 
70 1 -0.13566 7.15906 12.6215 
72 1 0.533932 5.92997 12.9542 
92 1 0.911361 8.44658 14.2421 
95 1 -4.98988 10.4544 21.7192 
98 1 -4.67548 9.24753 20.8594 
104 1 0.411757 9.30747 11.8497 
116 1 -2.61623 8.7689 21.8913 
118 1 -3.6053 8.34711 20.927 
122 1 0.136673 8.51475 13.0281 
133 1 -3.31871 6.80409 11.8914 
136 1 0.30717 8.50839 22.0951 
147 1 0.53392 5.93559 19.8549 
153 1 -4.67605 9.25059 11.9043 
160 1 0.921895 8.44947 18.5116 
1 1 7.83601 4.91734 10.5248 
4 1 9.1584 4.81698 11.0424 
20 1 7.8619 4.93888 9.06494 
42 1 9.46498 5.44827 7.43879 
67 1 9.97545 4.56753 0.769664 
77 1 7.83645 4.91915 0.0985878 
94 1 7.86882 4.94456 1.54437 
96 1 9.18976 4.66879 1.98915 
121 1 4.66696 5.46711 10.7079 
130 1 9.46071 5.44297 3.17438 
134 1 9.97441 4.56477 9.84623 
152 1 9.19678 4.66687 8.61951 
45 1 4.6636 5.4771 22.0673 
55 1 4.81361 5.4909 13.0651 
106 1 9.1595 4.8153 21.7221 
137 1 4.813 5.49899 19.6925 
162 3 8.26037 0.741218 11.8391 
2 1 7.24996 10.5215 9.04974 
3 1 8.97116 7.64489 6.07496 
6 1 8.51569 6.39278 6.81898 
16 1 2.43561 8.72892 0.826974 
22 1 7.14053 6.1916 8.71457 
26 1 7.20329 8.42111 7.54522 
35 1 7.22943 10.5546 10.4978 
37 1 6.86744 9.25004 10.9889 
39 1 8.26175 8.92513 6.75823 
41 1 6.7272 7.00162 9.8386 
48 1 3.69756 6.34418 0.813727 
61 1 7.26568 10.5071 1.55764 
62 1 8.96879 7.64733 4.53868 
64 1 6.72526 9.23768 1.9886 
68 1 7.39145 6.96277 3.05681 
71 1 4.2979 8.53527 10.7801 
74 1 3.6024 7.80608 9.81645 
81 1 8.51428 6.39356 3.79571 
83 1 6.541 8.44843 0.783125 
93 1 7.22764 10.552 0.127756 
97 1 8.26945 8.92784 3.85993 
101 1 2.4177 9.88354 10.6246 
103 1 2.42964 8.73776 9.78629 
117 1 7.1442 6.1837 1.89672 
120 1 7.19331 8.42225 3.06548 
123 1 3.68676 6.3498 9.79298 
129 1 6.72665 7.00112 0.776616 
132 1 6.71976 9.22586 8.61629 
135 1 7.39172 6.96897 7.5572 
141 1 7.23081 6.1825 10.9077 
144 1 6.53805 8.44363 9.83226 
148 1 3.59333 7.81155 0.802584 
7 1 9.1008 5.99324 11.9008 
10 1 3.69853 9.80632 21.599 
13 1 2.37673 9.91029 22.1159 
15 1 3.02152 8.33284 17.8957 
28 1 3.67235 9.78634 20.1408 
30 1 4.39509 8.53184 19.7899 
34 1 4.33014 6.30397 18.6238 
40 1 7.84144 8.37429 11.894 
49 1 4.80833 7.72327 20.9126 
50 1 2.07076 9.27732 18.5131 
58 1 1.52421 10.2967 11.8219 
59 1 4.14264 7.75976 14.134 
69 1 3.67465 9.80521 11.1478 
73 1 3.02845 8.32568 14.8761 
75 1 4.99668 6.27702 11.8555 
79 1 7.23056 6.18109 21.8564 
82 1 7.94045 6.90843 20.8857 
86 1 3.66615 9.77758 12.6214 
88 1 2.38907 10.0389 13.1129 
108 1 9.1001 5.99499 20.8617 
112 1 4.40259 8.52774 12.9729 
115 1 4.33572 6.29884 14.1439 
124 1 4.80781 7.72165 11.8507 
125 1 2.07964 9.27991 14.2613 
126 1 6.87113 9.25087 21.7796 
128 1 7.8392 8.37457 20.8731 
139 1 1.55632 10.1574 20.9211 
140 1 4.14151 7.75704 18.631 
143 1 7.94031 6.90676 11.8779 
146 1 4.30544 8.5418 21.9808 
149 1 4.99631 6.28563 20.9017 
157 1 2.33725 10.0575 19.6961 
161 2 1.44992 11.4697 11.8298 
ITEM: TIMESTEP
30
ITEM: NUMBER OF ATOMS
162
ITEM: BOX BOUNDS xy xz yz pp pp pp
-6.7755000000000001e+00 1.3552000000000000e+01 -6.7755000000000001e+00
0.0000000000000000e+00 1.1735510246683001e+01 0.0000000000000000e+00
0.0000000000000000e+00 2.2149999999999999e+01 0.0000000000000000e+00
ITEM: ATOMS id type x y z 
8 1 -2.43328 5.39986 9.84654 
87 1 2.95673 4.27955 10.6502 
90 1 2.65784 5.45314 9.7786 
109 1 -2.43233 5.40013 0.765323 
158 1 2.64197 5.46366 0.828885 
11 1 4.28064 4.22171 20.1235 
14 1 2.90171 4.14166 19.694 
18 1 1.30624 5.85888 18.6026 
33 1 2.12458 4.21096 20.9065 
43 1 4.30011 4.19925 21.5744 
47 1 3.24832 5.80035 17.8288 
52 1 4.27925 4.2181 12.6424 
76 1 2.44629 4.92766 14.1772 
85 1 4.29774 4.19478 11.1986 
89 1 3.24708 5.79668 14.9304 
91 1 0.963452 5.10344 11.8474 
102 1 2.89106 4.14461 13.0592 
105 1 1.29625 5.85093 14.1797 
114 1 2.10149 4.25449 11.8586 
150 1 2.43096 4.93706 18.5887 
156 1 2.96634 4.27581 22.1226 
159 1 0.973878 5.04312 20.917 
5 1 -4.91906 10.5803 8.61994 
9 1 -3.32556 8.86428 7.52596 
19 1 -1.71342 7.50861 10.5386 
21 1 -2.61073 8.77021 10.8719 
23 1 -3.30191 7.55667 6.8394 
25 1 -4.14034 10.508 9.83304 
32 1 1.58804 6.38783 0.754431 
36 1 -1.8543 7.53065 9.06648 
38 1 -2.15996 6.2151 8.63768 
54 1 0.320812 8.49932 10.6871 
57 1 1.30312 7.93047 9.8041 
60 1 -1.72204 7.51127 0.0768567 
65 1 -3.30185 7.55609 3.774 
78 1 -1.85551 7.53067 1.55376 
80 1 -2.53783 8.79297 1.83818 
84 1 -4.45143 9.78519 3.10292 
99 1 -2.99361 9.67545 0.771034 
100 1 -2.93917 6.28023 3.17229 
107 1 -4.91701 10.5831 1.99617 
110 1 -3.32642 8.8645 3.0896 
111 1 0.594142 5.94617 10.7469 
113 1 1.58459 6.39021 9.84066 
119 1 -4.143 10.5084 0.781234 
127 1 -2.15967 6.21465 1.97656 
131 1 -2.33246 6.23501 11.023 
138 1 1.30446 7.91169 0.819987 
142 1 -2.54019 8.79275 8.77456 
145 1 -4.45139 9.78551 7.51229 
151 1 -4.98428 10.4482 11.0472 
154 1 -2.99296 9.67272 9.84415 
155 1 -2.93998 6.2804 7.44163 
12 1 2.56544 7.08099 17.1537 
17 1 0.414259 9.32357 20.9235 
24 1 -3.60468 8.33402 11.8318 
27 1 -0.297883 7.21672 21.6116 
29 1 0.598025 5.9511 21.9451 
31 1 1.28572 7.16806 17.9156 
44 1 -0.163345 7.19339 20.1357 
46 1 0.142176 8.50852 19.7118 
51 1 -0.272819 7.1656 11.1512 
53 1 2.56157 7.08405 15.6131 
56 1 1.28248 7.18739 14.8512 
63 1 -2.33315 6.23113 21.7397 
66 1 -3.32155 6.81212 20.8687 
70 1 -0.152928 7.15049 12.6242 
72 1 0.524448 5.92636 12.9669 
92 1 0.91227 8.44273 14.2421 
95 1 -4.98202 10.4476 21.7184 
98 1 -4.66239 9.25701 20.8622 
104 1 0.423132 9.28951 11.8501 
116 1 -2.61436 8.77521 21.8904 
118 1 -3.60541 8.33427 20.9315 
122 1 0.140932 8.50471 13.0272 
133 1 -3.32251 6.814 11.8949 
136 1 0.315978 8.49434 22.1003 
147 1 0.526605 5.9324 19.8534 
153 1 -4.66278 9.25643 11.9026 
160 1 0.921531 8.44395 18.5161 
1 1 7.81097 4.91804 10.5202 
4 1 9.13734 4.82015 11.0328 
20 1 7.84162 4.93856 9.06314 
42 1 9.45381 5.4542 7.44158 
67 1 9.96691 4.58388 0.767102 
77 1 7.81173 4.91922 0.0937365 
94 1 7.84312 4.93857 1.55089 
96 1 9.18263 4.68118 1.99163 
121 1 4.65335 5.49115 10.6926 
130 1 9.45361 5.45424 3.17268 
134 1 9.96749 4.58341 9.84611 
152 1 9.18266 4.68193 8.62226 
45 1 4.65252 5.50279 22.0768 
55 1 4.81572 5.50986 13.0641 
106 1 9.13801 4.81951 21.7309 
137 1 4.81523 5.51321 19.7006 
162 3 8.25786 0.738288 11.8388 
2 1 7.25192 10.5055 9.04243 
3 1 8.96935 7.64548 6.07663 
6 1 8.5126 6.39406 6.81331 
16 1 2.44222 8.72454 0.829526 
22 1 7.12212 6.18921 8.71227 
26 1 7.20217 8.41872 7.54149 
35 1 7.23822 10.5218 10.4912 
37 1 6.88169 9.22444 11.0018 
39 1 8.28483 8.92092 6.75293 
41 1 6.7167 6.99609 9.83901 
48 1 3.68479 6.35134 0.81134 
61 1 7.25872 10.4979 1.56549 
62 1 8.96827 7.64773 4.53722 
64 1 6.71461 9.20815 1.99319 
68 1 7.38563 6.95953 3.06098 
71 1 4.30715 8.53153 10.7711 
74 1 3.60898 7.81449 9.8012 
81 1 8.51334 6.39443 3.80029 
83 1 6.54145 8.42764 0.788517 
93 1 7.23283 10.5289 0.117713 
97 1 8.28502 8.92109 3.86253 
101 1 2.43017 9.88436 10.6283 
103 1 2.44115 8.73322 9.77428 
117 1 7.12076 6.18863 1.90194 
120 1 7.19937 8.41755 3.0721 
123 1 3.68453 6.35304 9.79393 
129 1 6.71652 6.99675 0.775039 
132 1 6.71857 9.21064 8.62413 
135 1 7.3859 6.95834 7.55397 
141 1 7.22145 6.18564 10.9163 
144 1 6.53953 8.42788 9.82581 
148 1 3.59953 7.82349 0.81303 
7 1 9.09238 5.99692 11.9048 
10 1 3.72309 9.80542 21.5955 
13 1 2.39767 9.90452 22.1068 
15 1 3.02175 8.33178 17.8888 
28 1 3.69239 9.78589 20.1381 
30 1 4.41305 8.53597 19.7862 
34 1 4.3279 6.30493 18.6162 
40 1 7.85099 8.36932 11.8883 
49 1 4.81956 7.72978 20.9138 
50 1 2.07861 9.27135 18.5176 
58 1 1.52833 10.3005 11.8274 
59 1 4.15142 7.76256 14.1377 
69 1 3.70444 9.80378 11.1495 
73 1 3.03508 8.32292 14.885 
75 1 4.99666 6.29273 11.863 
79 1 7.22032 6.18622 21.8469 
82 1 7.93389 6.8981 20.8732 
86 1 3.68227 9.77811 12.627 
88 1 2.39849 10.0252 13.1118 
108 1 9.09244 5.99729 20.8587 
112 1 4.42182 8.52961 12.9776 
115 1 4.33208 6.30074 14.1475 
124 1 4.81941 7.72703 11.8485 
125 1 2.08834 9.27366 14.2614 
126 1 6.88202 9.2223 21.7638 
128 1 7.85031 8.36932 20.877 
139 1 1.56633 10.1407 20.9224 
140 1 4.14816 7.76634 18.6288 
143 1 7.93419 6.8983 11.8906 
146 1 4.3133 8.53863 21.9916 
149 1 4.99527 6.29805 20.8982 
157 1 2.35194 10.0426 19.6979 
161 2 1.44582 11.4644 11.8286 
ITEM: TIMESTEP
40
ITEM: NUMBER OF ATOMS
162
ITEM: BOX BOUNDS xy xz yz pp pp pp
-6.7755000000000001e+00 1.3552000000000000e+01 -6.7755000000000001e+00
0.0000000000000000e+00 1.1735510246683001e+01 0.0000000000000000e+00
0.0000000000000000e+00 2.2149999999999999e+01 0.0000000000000000e+00
ITEM: ATOMS id type x y z 
8 1 -2.45958 5.44079 9.84957 
87 1 2.93901 4.3018 10.647 
90 1 2.62329 5.45885 9.76507 
109 1 -2.45853 5.4396 0.762788 
158 1 2.61183 5.46572 0.831088 
11 1 4.27063 4.25972 20.1143 
14 1 2.88195 4.16129 19.7069 
18 1 1.29649 5.86221 18.5991 
33 1 2.09408 4.21175 20.9092 
43 1 4.27544 4.26641 21.5532 
47 1 3.23497 5.80048 17.8233 
52 1 4.26276 4.25662 12.6517 
76 1 2.42222 4.93444 14.1853 
85 1 4.26773 4.25693 11.2168 
89 1 3.23877 5.7975 14.9363 
91 1 0.930359 5.12155 11.8381 
102 1 2.86449 4.1679 13.051 
105 1 1.27865 5.84692 14.202 
114 1 2.07616 4.27637 11.8577 
150 1 2.41336 4.94178 18.5869 
156 1 2.95368 4.29501 22.1267 
159 1 0.947806 5.03981 20.9208 
5 1 -4.89819 10.5629 8.63206 
9 1 -3.31313 8.86093 7.52779 
19 1 -1.6991 7.54015 10.5302 
21 1 -2.58076 8.78194 10.8746 
23 1 -3.30109 7.55283 6.83954 
25 1 -4.11692 10.5092 9.83324 
32 1 1.57311 6.39795 0.757114 
36 1 -1.81072 7.55208 9.05428 
38 1 -2.14694 6.24206 8.64223 
54 1 0.348575 8.4584 10.6913 
57 1 1.32658 7.92992 9.7813 
60 1 -1.7144 7.54268 0.0881731 
65 1 -3.30144 7.55197 3.77527 
78 1 -1.81315 7.55072 1.56578 
80 1 -2.51525 8.80388 1.83795 
84 1 -4.42883 9.78331 3.10299 
99 1 -2.96257 9.69318 0.76841 
100 1 -2.93831 6.286 3.16486 
107 1 -4.90497 10.5591 1.98128 
110 1 -3.31368 8.8606 3.08585 
111 1 0.560743 5.93241 10.7248 
113 1 1.57432 6.40023 9.8163 
119 1 -4.11471 10.514 0.781604 
127 1 -2.14565 6.24196 1.97268 
131 1 -2.34326 6.27291 11.0208 
138 1 1.32406 7.91094 0.833818 
142 1 -2.51503 8.8038 8.77747 
145 1 -4.43085 9.78013 7.51219 
151 1 -4.97045 10.4284 11.0531 
154 1 -2.96198 9.68455 9.84778 
155 1 -2.93786 6.28641 7.44985 
12 1 2.56822 7.06157 17.1549 
17 1 0.440646 9.28448 20.9257 
24 1 -3.58726 8.3268 11.8311 
27 1 -0.301222 7.18169 21.6007 
29 1 0.569204 5.92916 21.9524 
31 1 1.28431 7.17016 17.9152 
44 1 -0.202724 7.17116 20.1243 
46 1 0.127167 8.48274 19.717 
51 1 -0.271371 7.12296 11.1485 
53 1 2.56957 7.06905 15.615 
56 1 1.28418 7.18969 14.8592 
63 1 -2.34562 6.26767 21.7412 
66 1 -3.34165 6.80984 20.8539 
70 1 -0.179951 7.12739 12.6346 
72 1 0.493217 5.91322 12.9862 
92 1 0.912927 8.43833 14.2437 
95 1 -4.97031 10.431 21.7129 
98 1 -4.62984 9.2585 20.8629 
104 1 0.462404 9.24945 11.8485 
116 1 -2.58907 8.7888 21.891 
118 1 -3.58956 8.32682 20.9326 
122 1 0.142798 8.47106 13.022 
133 1 -3.34351 6.80896 11.9097 
136 1 0.326425 8.45565 22.0982 
147 1 0.497001 5.91626 19.8509 
153 1 -4.6285 9.2562 11.9033 
160 1 0.920008 8.43856 18.524 
1 1 7.75107 4.90652 10.5159 
4 1 9.08597 4.83658 11.0181 
20 1 7.78805 4.93962 9.05417 
42 1 9.43916 5.46941 7.448 
67 1 9.93742 4.6268 0.767963 
77 1 7.75163 4.90756 0.0991379 
94 1 7.78875 4.94031 1.55828 
96 1 9.13763 4.71253 1.9838 
121 1 4.62732 5.53559 10.677 
130 1 9.44003 5.46863 3.16545 
134 1 9.93752 4.62679 9.84668 
152 1 9.13741 4.71233 8.62937 
45 1 4.62722 5.5468 22.0924 
55 1 4.81655 5.54536 13.0649 
106 1 9.08525 4.83636 21.7452 
137 1 4.81407 5.55204 19.696 
162 3 8.24882 0.725952 11.8378 
2 1 7.26254 10.4646 9.03601 
3 1 8.96686 7.66177 6.07534 
6 1 8.5086 6.39685 6.81044 
16 1 2.45259 8.72242 0.841889 
22 1 7.07002 6.17218 8.69159 
26 1 7.20281 8.39849 7.52647 
35 1 7.2619 10.4536 10.473 
37 1 6.90646 9.1781 11.019 
39 1 8.29787 8.92258 6.74944 
41 1 6.68208 6.96964 9.83844 
48 1 3.66423 6.37334 0.825205 
61 1 7.26398 10.4593 1.5739 
62 1 8.96702 7.66168 4.53939 
64 1 6.72271 9.17898 1.9901 
68 1 7.37162 6.94931 3.07651 
71 1 4.33026 8.52846 10.7436 
74 1 3.63426 7.83087 9.77085 
81 1 8.50866 6.39746 3.8043 
83 1 6.53315 8.38925 0.793758 
93 1 7.25986 10.458 0.136803 
97 1 8.29555 8.92311 3.86204 
101 1 2.47304 9.86776 10.644 
103 1 2.45666 8.73692 9.76107 
117 1 7.06947 6.16997 1.92484 
120 1 7.2009 8.39767 3.09144 
123 1 3.67374 6.36643 9.78117 
129 1 6.68192 6.96811 0.775664 
132 1 6.71773 9.1728 8.62142 
135 1 7.37188 6.94964 7.53799 
141 1 7.18968 6.1859 10.9411 
144 1 6.53493 8.39296 9.82133 
148 1 3.62618 7.84108 0.840282 
7 1 9.0827 6.002 11.9182 
10 1 3.78405 9.81762 21.5901 
13 1 2.448 9.88679 22.0949 
15 1 3.02524 8.32949 17.886 
28 1 3.74614 9.78431 20.1293 
30 1 4.4652 8.55353 19.7655 
34 1 4.33156 6.32592 18.6033 
40 1 7.86934 8.35027 11.8992 
49 1 4.85409 7.75544 20.912 
50 1 2.09544 9.25552 18.5231 
58 1 1.55127 10.2814 11.8284 
59 1 4.16862 7.77076 14.1509 
69 1 3.75724 9.80812 11.1533 
73 1 3.04315 8.32014 14.8922 
75 1 4.99897 6.32741 11.8662 
79 1 7.19005 6.18452 21.8213 
82 1 7.90878 6.88121 20.8473 
86 1 3.72382 9.77119 12.6375 
88 1 2.4322 9.99553 13.1027 
108 1 9.08162 6.00174 20.8455 
112 1 4.47068 8.54195 12.9985 
115 1 4.33352 6.318 14.1629 
124 1 4.85026 7.75383 11.851 
125 1 2.1057 9.25629 14.2566 
126 1 6.90566 9.1772 21.7465 
128 1 7.8682 8.35046 20.8655 
139 1 1.59666 10.098 20.9213 
140 1 4.16116 7.7742 18.613 
143 1 7.9082 6.8822 11.917 
146 1 4.34545 8.53802 22.0161 
149 1 4.99933 6.33274 20.8975 
157 1 2.39609 10.0123 19.7051 
161 2 1.43786 11.4517 11.8256 
ITEM: TIMESTEP
50
ITEM: NUMBER OF ATOMS
162
ITEM: BOX BOUNDS xy xz yz pp pp pp
-6.7755000000000001e+00 1.3552000000000000e+01 -6.7755000000000001e+00
0.0000000000000000e+00 1.1735510246683001e+01 0.0000000000000000e+00
0.0000000000000000e+00 2.2149999999999999e+01 0.0000000000000000e+00
ITEM: ATOMS id type x y z 
8 1 -2.48804 5.47742 9.84532 
87 1 2.92173 4.32775 10.645 
90 1 2.62425 5.47011 9.73108 
109 1 -2.48759 5.47466 0.766713 
158 1 2.61029 5.48103 0.8554 
11 1 4.25808 4.29831 20.1007 
14 1 2.86431 4.16829 19.7112 
18 1 1.28483 5.86941 18.6065 
33 1 2.07941 4.21895 20.9199 
43 1 4.25653 4.30407 21.5389 
47 1 3.22328 5.79479 17.837 
52 1 4.2423 4.29438 12.6657 
76 1 2.40023 4.93001 14.1945 
85 1 4.24393 4.29345 11.2296 
89 1 3.22929 5.79265 14.9267 
91 1 0.90032 5.12279 11.8393 
102 1 2.84254 4.1885 13.0504 
105 1 1.26083 5.85287 14.2135 
114 1 2.05616 4.29683 11.8489 
150 1 2.39639 4.93629 18.5869 
156 1 2.94347 4.31517 22.1244 
159 1 0.915043 5.01894 20.9238 
5 1 -4.88111 10.5515 8.63573 
9 1 -3.30136 8.85333 7.53135 
19 1 -1.69509 7.55851 10.5196 
21 1 -2.55179 8.79499 10.8713 
23 1 -3.29899 7.55111 6.83911 
25 1 -4.09996 10.5031 9.84504 
32 1 1.54533 6.3939 0.768259 
36 1 -1.77911 7.57334 9.04961 
38 1 -2.13775 6.26149 8.64361 
54 1 0.381355 8.43447 10.6913 
57 1 1.34227 7.92187 9.77107 
60 1 -1.71778 7.56065 0.102182 
65 1 -3.30263 7.5542 3.77405 
78 1 -1.78331 7.57138 1.56849 
80 1 -2.48768 8.82551 1.84563 
84 1 -4.41831 9.78611 3.09282 
99 1 -2.93104 9.70506 0.766507 
100 1 -2.93624 6.28408 3.15872 
107 1 -4.88312 10.5369 1.97026 
110 1 -3.30042 8.8527 3.08455 
111 1 0.548894 5.92676 10.7091 
113 1 1.54325 6.39861 9.7879 
119 1 -4.10468 10.5097 0.783883 
127 1 -2.13432 6.26075 1.97197 
131 1 -2.36273 6.29519 11.0233 
138 1 1.33186 7.91123 0.834037 
142 1 -2.4858 8.81993 8.77348 
145 1 -4.41251 9.78333 7.51229 
151 1 -4.95876 10.406 11.0471 
154 1 -2.92995 9.69914 9.84962 
155 1 -2.93534 6.28638 7.45768 
12 1 2.56947 7.05946 17.1553 
17 1 0.469159 9.24817 20.9211 
24 1 -3.55895 8.32403 11.8413 
27 1 -0.300848 7.15961 21.5861 
29 1 0.545372 5.91691 21.9443 
31 1 1.27869 7.1773 17.9159 
44 1 -0.232785 7.15115 20.1201 
46 1 0.118214 8.46295 19.7184 
51 1 -0.269689 7.10493 11.1588 
53 1 2.57605 7.06701 15.6174 
56 1 1.28678 7.19277 14.8678 
63 1 -2.36647 6.2886 21.7384 
66 1 -3.35069 6.82206 20.8539 
70 1 -0.201578 7.10234 12.6368 
72 1 0.466013 5.89472 13.0025 
92 1 0.911736 8.43785 14.242 
95 1 -4.97261 10.3963 21.7134 
98 1 -4.62094 9.23628 20.8341 
104 1 0.494141 9.21654 11.8526 
116 1 -2.56347 8.80784 21.8967 
118 1 -3.56347 8.32559 20.9219 
122 1 0.148161 8.44813 13.0196 
133 1 -3.35028 6.8224 11.9091 
136 1 0.351323 8.43657 22.1019 
147 1 0.471557 5.89946 19.8411 
153 1 -4.62263 9.23608 11.9286 
160 1 0.917433 8.43695 18.5313 
1 1 7.69248 4.87735 10.5174 
4 1 9.0473 4.86306 11.0111 
20 1 7.74561 4.94953 9.05859 
42 1 9.42867 5.48632 7.45835 
67 1 9.89792 4.66967 0.765479 
77 1 7.69112 4.8752 0.0959959 
94 1 7.74375 4.94892 1.56018 
96 1 9.09367 4.73427 1.98652 
121 1 4.60355 5.5679 10.6843 
130 1 9.42816 5.48553 3.1558 
134 1 9.89662 4.6706 9.84749 
152 1 9.09318 4.73391 8.62892 
45 1 4.60572 5.57563 22.0847 
55 1 4.81385 5.57473 13.0714 
106 1 9.04993 4.86178 21.7516 
137 1 4.81622 5.58621 19.6904 
162 3 8.23545 0.708279 11.8362 
2 1 7.27824 10.4242 9.02298 
3 1 8.96713 7.66441 6.07616 
6 1 8.50052 6.40612 6.80025 
16 1 2.47528 8.7315 0.857259 
22 1 7.01785 6.15248 8.66604 
26 1 7.20305 8.38493 7.51092 
35 1 7.27899 10.4209 10.4627 
37 1 6.92897 9.14519 11.0095 
39 1 8.30911 8.92511 6.76011 
41 1 6.65322 6.93894 9.83358 
48 1 3.63289 6.39165 0.856884 
61 1 7.28026 10.4255 1.61477 
62 1 8.96346 7.67027 4.53674 
64 1 6.72831 9.13415 1.98957 
68 1 7.35553 6.93017 3.08397 
71 1 4.3647 8.53963 10.7402 
74 1 3.6429 7.84652 9.75011 
81 1 8.50115 6.40877 3.81103 
83 1 6.53539 8.37298 0.79765 
93 1 7.27544 10.4253 0.147242 
97 1 8.30625 8.92394 3.85258 
101 1 2.51113 9.85822 10.6505 
103 1 2.48273 8.745 9.74774 
117 1 7.01892 6.15643 1.94987 
120 1 7.19783 8.39156 3.09669 
123 1 3.64269 6.38617 9.7484 
129 1 6.65431 6.93245 0.784375 
132 1 6.71796 9.13861 8.61559 
135 1 7.35354 6.93503 7.52772 
141 1 7.14938 6.17803 10.9492 
144 1 6.53418 8.36913 9.82854 
148 1 3.63425 7.85829 0.856814 
7 1 9.0572 5.98923 11.9314 
10 1 3.84414 9.85 21.594 
13 1 2.48587 9.86178 22.0858 
15 1 3.03481 8.31986 17.877 
28 1 3.78833 9.77526 20.1308 
30 1 4.51747 8.57264 19.7407 
34 1 4.33044 6.34048 18.5865 
40 1 7.89765 8.33273 11.9303 
49 1 4.88229 7.78603 20.9077 
50 1 2.10369 9.24081 18.5337 
58 1 1.58439 10.2585 11.8317 
59 1 4.19034 7.78493 14.1636 
69 1 3.80346 9.81633 11.1562 