ITEM: TIMESTEP
0
ITEM: NUMBER OF ATOMS
35
ITEM: BOX BOUNDS pp pp pp
0.0000000000000000e+00 7.0970000000000004e+00
0.0000000000000000e+00 7.0970000000000004e+00
0.0000000000000000e+00 2.4588000000000001e+01
ITEM: ATOMS id type x y z 
2 1 3.339 1.632 13.319 
5 1 4.651 1.581 18.133 
7 1 3.391 1.602 15.981 
8 1 2.166 1.581 18.134 
18 1 3.408 1.581 17.416 
21 1 3.338 2.875 12.602 
23 1 3.367 1.619 14.753 
24 1 3.338 0.39 12.601 
17 1 7.023 2.875 24.28 
19 1 6.997 1.619 22.129 
20 1 7.023 0.39 24.281 
22 1 6.957 1.581 19.466 
25 1 5.714 1.581 18.748 
27 1 6.974 1.602 20.9 
28 1 1.102 1.581 18.748 
30 1 7.024 1.631 23.563 
10 1 6.954 5.232 5.122 
13 1 7.023 3.938 0.307 
15 1 6.994 5.194 2.459 
16 1 7.023 6.423 0.307 
26 1 7.022 5.181 1.025 
29 1 5.711 5.232 5.839 
31 1 6.97 5.211 3.688 
32 1 1.098 5.232 5.84 
1 1 4.647 5.232 6.454 
3 1 3.388 5.211 8.606 
4 1 2.163 5.232 6.454 
6 1 3.338 5.182 11.269 
9 1 3.338 3.939 11.986 
11 1 3.365 5.194 9.834 
12 1 3.338 6.423 11.987 
14 1 3.404 5.232 7.171 
33 2 3.177 4.191 13.313 
34 2 4.268 3.66 14.2 
35 3 4.139 4.32 14.9 
ITEM: TIMESTEP
10
ITEM: NUMBER OF ATOMS
35
ITEM: BOX BOUNDS pp pp pp
0.0000000000000000e+00 7.0970000000000004e+00
0.0000000000000000e+00 7.0970000000000004e+00
0.0000000000000000e+00 2.4588000000000001e+01
ITEM: ATOMS id type x y z 
2 1 3.34783 1.62251 13.3165 
5 1 4.66133 1.57931 18.1395 
7 1 3.38852 1.59688 15.9825 
8 1 2.15756 1.60315 18.1428 
18 1 3.40878 1.57649 17.4395 
21 1 3.31729 2.83346 12.671 
23 1 3.3678 1.61263 14.7671 
24 1 3.32449 0.354314 12.5833 
17 1 7.04196 2.88223 24.2758 
19 1 6.99588 1.62049 22.1267 
20 1 7.03517 0.389003 24.2869 
22 1 6.95772 1.58931 19.4697 
25 1 5.7182 1.58444 18.7519 
27 1 6.97325 1.60006 20.9072 
28 1 1.09526 1.55482 18.7442 
30 1 7.01537 1.63164 23.5642 
10 1 6.95343 5.23056 5.11796 
13 1 7.00424 3.93054 0.311635 
15 1 6.99381 5.19295 2.46177 
16 1 7.01157 6.42401 0.30077 
26 1 7.03112 5.1807 1.0239 
29 1 5.71421 5.23191 5.83517 
31 1 6.96916 5.2119 3.68143 
32 1 1.09347 5.23342 5.839 
1 1 4.65796 5.23301 6.44828 
3 1 3.39282 5.21568 8.60597 
4 1 2.15359 5.23227 6.44618 
6 1 3.33477 5.16823 11.2505 
9 1 3.32385 3.93263 11.9215 
11 1 3.36266 5.19187 9.82327 
12 1 3.34891 6.39873 11.9713 
14 1 3.40475 5.22964 7.14475 
33 2 3.13192 4.31229 13.2467 
34 2 4.30179 3.68461 14.2691 
35 3 4.18154 4.31431 14.9472 
ITEM: TIMESTEP
20
ITEM: NUMBER OF ATOMS
35
ITEM: BOX BOUNDS pp pp pp
0.0000000000000000e+00 7.0970000000000004e+00
0.0000000000000000e+00 7.0970000000000004e+00
0.0000000000000000e+00 2.4588000000000001e+01
ITEM: ATOMS id type x y z 
2 1 3.3421 1.59205 13.3243 
5 1 4.66265 1.57788 18.1383 
7 1 3.38149 1.58901 15.9946 
8 1 2.16493 1.58882 18.1527 
18 1 3.41497 1.58585 17.4494 
21 1 3.29778 2.85317 12.6956 
23 1 3.37547 1.59682 14.7705 
24 1 3.33672 0.327425 12.5697 
17 1 7.02922 2.88727 24.2665 
19 1 6.99106 1.61759 22.1337 
20 1 7.02591 0.393381 24.294 
22 1 6.95446 1.58461 19.4791 
25 1 5.71508 1.5824 18.7609 
27 1 6.9704 1.60844 20.9121 
28 1 1.08886 1.56387 18.7338 
30 1 7.02672 1.63114 23.5681 
10 1 6.9531 5.23363 5.10663 
13 1 7.01801 3.92596 0.321881 
15 1 7.0028 5.18971 2.45581 
16 1 7.02182 6.41983 0.293452 
26 1 7.01955 5.18244 1.01868 
29 1 5.7154 5.23368 5.83163 
31 1 6.96298 5.21023 3.67664 
32 1 1.08926 5.23289 5.84177 
1 1 4.65917 5.23338 6.44505 
3 1 3.39007 5.20621 8.58575 
4 1 2.1552 5.22922 6.43823 
6 1 3.32886 5.15212 11.2296 
9 1 3.30261 3.79644 11.8568 
11 1 3.37925 5.19027 9.81001 
12 1 3.32941 6.36835 11.9576 
14 1 3.40508 5.23967 7.1401 
33 2 3.07227 4.52445 13.1811 
34 2 4.35048 3.70633 14.3503 
35 3 4.23885 4.32551 15.0305 
ITEM: TIMESTEP
30
ITEM: NUMBER OF ATOMS
35
ITEM: BOX BOUNDS pp pp pp
0.0000000000000000e+00 7.0970000000000004e+00
0.0000000000000000e+00 7.0970000000000004e+00
0.0000000000000000e+00 2.4588000000000001e+01
ITEM: ATOMS id type x y z 
2 1 3.34263 1.57984 13.3105 
5 1 4.65936 1.58451 18.1389 
7 1 3.39122 1.58958 15.9872 
8 1 2.16653 1.57065 18.1525 
18 1 3.40782 1.58444 17.4275 
21 1 3.28312 2.88823 12.7064 
23 1 3.35932 1.58571 14.7715 
24 1 3.33844 0.33785 12.5762 
17 1 7.022 2.88386 24.2735 
19 1 6.99527 1.6217 22.1311 
20 1 7.02454 0.391991 24.2911 
22 1 6.95879 1.57841 19.473 
25 1 5.71013 1.58313 18.7587 
27 1 6.96806 1.60023 20.9118 
28 1 1.09551 1.58416 18.7352 
30 1 7.02763 1.63438 23.568 
10 1 6.95316 5.23331 5.1116 
13 1 7.02599 3.92938 0.314335 
15 1 6.98378 5.18777 2.45401 
16 1 7.02448 6.42251 0.295939 
26 1 7.0249 5.17972 1.01835 
29 1 5.7102 5.23455 5.83384 
31 1 6.97366 5.20873 3.67369 
32 1 1.09492 5.23469 5.84152 
1 1 4.65424 5.23368 6.445 
3 1 3.40319 5.21585 8.59068 
4 1 2.15863 5.23235 6.43887 
6 1 3.32792 5.1357 11.2408 
9 1 3.31271 3.76434 11.8169 
11 1 3.35743 5.19115 9.80962 
12 1 3.3336 6.37497 11.9683 
14 1 3.40491 5.23114 7.1589 
33 2 3.06859 4.52941 13.1809 
34 2 4.36333 3.71076 14.3688 
35 3 4.24601 4.33132 15.0399 
ITEM: TIMESTEP
40
ITEM: NUMBER OF ATOMS
35
ITEM: BOX BOUNDS pp pp pp
0.0000000000000000e+00 7.0970000000000004e+00
0.0000000000000000e+00 7.0970000000000004e+00
0.0000000000000000e+00 2.4588000000000001e+01
ITEM: ATOMS id type x y z 
2 1 3.33304 1.59555 13.2977 
5 1 4.65295 1.58424 18.1358 
7 1 3.38889 1.57946 15.9678 
8 1 2.17005 1.57836 18.1478 
18 1 3.40858 1.58448 17.4113 
21 1 3.26807 2.92635 12.723 
23 1 3.36381 1.57333 14.7494 
24 1 3.33483 0.340544 12.571 
17 1 7.0249 2.88072 24.2772 
19 1 6.99663 1.62079 22.1261 
20 1 7.02557 0.39137 24.288 
22 1 6.95611 1.57905 19.4667 
25 1 5.70481 1.58059 18.7553 
27 1 6.96892 1.60106 20.9058 
28 1 1.10164 1.58112 18.7386 
30 1 7.02621 1.63338 23.5637 
10 1 6.95302 5.23421 5.11529 
13 1 7.02348 3.93269 0.308598 
15 1 6.99067 5.18578 2.45646 
16 1 7.02394 6.42465 0.298398 
26 1 7.02325 5.18087 1.02078 
29 1 5.70971 5.23627 5.83789 
31 1 6.96882 5.20671 3.67684 
32 1 1.09913 5.23512 5.83988 
1 1 4.65008 5.2334 6.44395 
3 1 3.39755 5.21626 8.60328 
4 1 2.16095 5.23481 6.44179 
6 1 3.32222 5.11119 11.2561 
9 1 3.32202 3.74168 11.7735 
11 1 3.3643 5.19483 9.82398 
12 1 3.32969 6.36961 11.9831 
14 1 3.40574 5.23003 7.16686 
33 2 3.06076 4.52318 13.1897 
34 2 4.38536 3.71459 14.3953 
35 3 4.2563 4.34373 15.0579 
ITEM: TIMESTEP
50
ITEM: NUMBER OF ATOMS
35
ITEM: BOX BOUNDS pp pp pp
0.0000000000000000e+00 7.0970000000000004e+00
0.0000000000000000e+00 7.0970000000000004e+00
0.0000000000000000e+00 2.4588000000000001e+01
ITEM: ATOMS id type x y z 
2 1 3.32626 1.60146 13.2869 
5 1 4.65003 1.5825 18.1284 
7 1 3.38684 1.57101 15.9491 
8 1 2.17022 1.58296 18.1369 
18 1 3.40728 1.58287 17.3958 
21 1 3.25747 2.94803 12.7315 
23 1 3.3606 1.5639 14.7288 
24 1 3.32764 0.343637 12.5647 
17 1 7.025 2.87911 24.2776 
19 1 6.99581 1.62 22.1186 
20 1 7.02568 0.390289 24.2852 
22 1 6.95594 1.57829 19.4593 
25 1 5.70001 1.582 18.7502 
27 1 6.97026 1.60153 20.8985 
28 1 1.10931 1.58016 18.7398 
30 1 7.02651 1.63263 23.5587 
10 1 6.95409 5.23528 5.11934 
13 1 7.02405 3.93288 0.305179 
15 1 6.99352 5.18607 2.4614 
16 1 7.02434 6.4265 0.300625 
26 1 7.02157 5.18063 1.02128 
29 1 5.70764 5.23347 5.8385 
31 1 6.96715 5.21007 3.68117 
32 1 1.1026 5.23413 5.84095 
1 1 4.64834 5.23292 6.44449 
3 1 3.3939 5.21303 8.6117 
4 1 2.16303 5.2347 6.445 
6 1 3.32451 5.10295 11.2646 
9 1 3.32426 3.74066 11.7588 
11 1 3.36588 5.19402 9.83184 
12 1 3.32639 6.3627 11.9969 
14 1 3.40575 5.23792 7.17266 
33 2 3.0509 4.50546 13.2071 
34 2 4.41204 3.7183 14.426 
35 3 4.2672 4.35793 15.0774 
ITEM: TIMESTEP
55
ITEM: NUMBER OF ATOMS
35
ITEM: BOX BOUNDS pp pp pp
0.0000000000000000e+00 7.0970000000000004e+00
0.0000000000000000e+00 7.0970000000000004e+00
0.0000000000000000e+00 2.4588000000000001e+01
ITEM: ATOMS id type x y z 
2 1 3.32218 1.60124 13.2825 
5 1 4.64884 1.5814 18.1252 
7 1 3.38617 1.57211 15.9476 
8 1 2.16993 1.58164 18.1324 
18 1 3.40811 1.58261 17.3898 
21 1 3.25503 2.94905 12.7344 
23 1 3.3588 1.55928 14.727 
24 1 3.32664 0.346257 12.5644 
17 1 7.0232 2.87858 24.2767 
19 1 6.99605 1.62037 22.1166 
20 1 7.02462 0.389709 24.2842 
22 1 6.95569 1.58135 19.4553 
25 1 5.69883 1.58028 18.7467 
27 1 6.97041 1.60037 20.8971 
28 1 1.11107 1.58015 18.739 
30 1 7.02766 1.63262 23.5563 
10 1 6.95425 5.2314 5.12055 
13 1 7.02514 3.93303 0.304773 
15 1 6.99062 5.18955 2.45948 
16 1 7.02485 6.42692 0.301095 
26 1 7.02286 5.18045 1.02287 
29 1 5.70643 5.23658 5.83923 
31 1 6.96899 5.20559 3.68029 
32 1 1.10413 5.23627 5.84148 
1 1 4.64802 5.23761 6.44588 
3 1 3.39337 5.21717 8.60972 
4 1 2.16276 5.23665 6.44648 
6 1 3.32582 5.10231 11.2657 
9 1 3.32434 3.74275 11.7592 
11 1 3.36484 5.19189 9.83197 
12 1 3.32513 6.36116 12.0004 
14 1 3.40693 5.23174 7.17353 
33 2 3.04667 4.49957 13.2153 
34 2 4.42217 3.71948 14.4376 
35 3 4.27148 4.36287 15.0841 
ITEM: TIMESTEP
60
ITEM: NUMBER OF ATOMS
35
ITEM: BOX BOUNDS pp pp pp
0.0000000000000000e+00 7.0970000000000004e+00
0.0000000000000000e+00 7.0970000000000004e+00
0.0000000000000000e+00 2.4588000000000001e+01
ITEM: ATOMS id type x y z 
2 1 3.32137 1.60213 13.2833 
5 1 4.64827 1.58119 18.1258 
7 1 3.38617 1.56896 15.9453 
8 1 2.16927 1.58168 18.1305 
18 1 3.40782 1.5831 17.3895 
21 1 3.2547 2.94999 12.732 
23 1 3.35795 1.55994 14.7251 
24 1 3.32564 0.345071 12.5632 
17 1 7.02602 2.87936 24.2758 
19 1 6.99612 1.61938 22.1155 
20 1 7.02582 0.389907 24.2838 
22 1 6.95528 1.58008 19.4547 
25 1 5.69962 1.58082 18.7452 
27 1 6.97029 1.60205 20.8956 
28 1 1.11219 1.58072 18.7398 
30 1 7.02606 1.63225 23.5564 
10 1 6.95435 5.23337 5.11935 
13 1 7.02309 3.9321 0.305057 
15 1 6.99387 5.18726 2.46092 
16 1 7.02397 6.42711 0.300977 
26 1 7.02205 5.18083 1.02158 
29 1 5.70788 5.23456 5.83987 
31 1 6.96669 5.20906 3.68087 
32 1 1.10307 5.23444 5.84187 
1 1 4.64818 5.23607 6.44502 
3 1 3.39397 5.2138 8.61166 
4 1 2.16316 5.23563 6.44625 
6 1 3.32572 5.10234 11.2657 
9 1 3.3246 3.74069 11.76 
11 1 3.36467 5.19381 9.83201 
12 1 3.32529 6.3606 12.0009 
14 1 3.40608 5.23697 7.17343 
33 2 3.04468 4.50062 13.2207 
34 2 4.42525 3.7197 14.441 
35 3 4.27285 4.36442 15.0862 
ITEM: TIMESTEP
70
ITEM: NUMBER OF ATOMS
35
ITEM: BOX BOUNDS pp pp pp
0.0000000000000000e+00 7.0970000000000004e+00
0.0000000000000000e+00 7.0970000000000004e+00
0.0000000000000000e+00 2.4588000000000001e+01
ITEM: ATOMS id type x y z 
2 1 3.29463 1.59905 13.2675 
5 1 4.64887 1.5833 18.1042 
7 1 3.37756 1.55619 15.922 
8 1 2.16481 1.57758 18.1037 
18 1 3.403 1.56862 17.3653 
21 1 3.23439 2.9815 12.7569 
23 1 3.34351 1.53733 14.7018 
24 1 3.30871 0.346963 12.5546 
17 1 7.02254 2.87368 24.2706 
19 1 6.99617 1.61969 22.0973 
20 1 7.02577 0.389356 24.2736 
22 1 6.95976 1.58179 19.4378 
25 1 5.70153 1.58451 18.7196 
27 1 6.96952 1.59882 20.8767 
28 1 1.11531 1.58514 18.7259 
30 1 7.02561 1.63364 23.5356 
10 1 6.95423 5.23054 5.12416 
13 1 7.02887 3.92938 0.296749 
15 1 6.97598 5.19835 2.45899 
16 1 7.02416 6.43278 0.300504 
26 1 7.02679 5.17692 1.01553 
29 1 5.70411 5.23485 5.83078 
31 1 6.97986 5.20252 3.67849 
32 1 1.10621 5.23666 5.83882 
1 1 4.65895 5.23815 6.46151 
3 1 3.38401 5.22454 8.61068 
4 1 2.15789 5.24085 6.45721 
6 1 3.32952 5.09671 11.2715 
9 1 3.32561 3.75584 11.774 
11 1 3.36944 5.18983 9.83077 
12 1 3.31891 6.35112 12.0159 
14 1 3.4095 5.24409 7.17032 
33 2 3.00919 4.44931 13.2936 
34 2 4.50698 3.72622 14.5327 
35 3 4.31015 4.40419 15.1396 
ITEM: TIMESTEP
80
ITEM: NUMBER OF ATOMS
35
ITEM: BOX BOUNDS pp pp pp
0.0000000000000000e+00 7.0970000000000004e+00
0.0000000000000000e+00 7.0970000000000004e+00
0.0000000000000000e+00 2.4588000000000001e+01
ITEM: ATOMS id type x y z 
2 1 3.29422 1.60061 13.2704 
5 1 4.64874 1.57867 18.1025 
7 1 3.37733 1.55283 15.9236 
8 1 2.16559 1.5776 18.1029 
18 1 3.40621 1.57332 17.3645 
21 1 3.23408 2.9757 12.7583 
23 1 3.34137 1.53808 14.7026 
24 1 3.30792 0.34775 12.5548 
17 1 7.02685 2.87477 24.2698 
19 1 6.99521 1.61763 22.0967 
20 1 7.02541 0.389319 24.2728 
22 1 6.95634 1.58577 19.4348 
25 1 5.70163 1.58225 18.7185 
27 1 6.96969 1.60307 20.8768 
28 1 1.11497 1.58134 18.7235 
30 1 7.02507 1.63114 23.5392 
10 1 6.95546 5.22788 5.11782 
13 1 7.02394 3.92853 0.296873 
15 1 6.98996 5.1939 2.45681 
16 1 7.0246 6.43203 0.299129 
26 1 7.02126 5.18014 1.01405 
29 1 5.7059 5.23381 5.83285 
31 1 6.97302 5.21005 3.67664 
32 1 1.1047 5.23499 5.83987 
1 1 4.65826 5.24024 6.45874 
3 1 3.38859 5.21801 8.60955 
4 1 2.15851 5.24121 6.45523 
6 1 3.33236 5.09661 11.2697 
9 1 3.32512 3.75642 11.7749 
11 1 3.36474 5.19466 9.83061 
12 1 3.31767 6.35233 12.0133 
14 1 3.40725 5.24772 7.17182 
33 2 3.0058 4.44943 13.3054 
34 2 4.51042 3.72763 14.5387 
35 3 4.31379 4.40456 15.141 
ITEM: TIMESTEP
82
ITEM: NUMBER OF ATOMS
35
ITEM: BOX BOUNDS pp pp pp
0.0000000000000000e+00 7.0970000000000004e+00
0.0000000000000000e+00 7.0970000000000004e+00
0.0000000000000000e+00 2.4588000000000001e+01
ITEM: ATOMS id type x y z 
2 1 3.29421 1.60061 13.2704 
5 1 4.64876 1.57866 18.1025 
7 1 3.37733 1.55287 15.9236 
8 1 2.16558 1.57759 18.1029 
18 1 3.40621 1.57329 17.3645 
21 1 3.23408 2.97571 12.7583 
23 1 3.34135 1.53805 14.7026 
24 1 3.30791 0.347786 12.5549 
17 1 7.02696 2.87477 24.2698 
19 1 6.9952 1.61764 22.0967 
20 1 7.02538 0.389324 24.2728 
22 1 6.95633 1.58578 19.4348 
25 1 5.70163 1.58224 18.7185 
27 1 6.96969 1.60306 20.8768 
28 1 1.11496 1.58135 18.7234 
30 1 7.02507 1.63113 23.5392 
10 1 6.95547 5.22794 5.1178 
13 1 7.0238 3.92853 0.296884 
15 1 6.99012 5.19393 2.45677 
16 1 7.02459 6.43202 0.299115 
26 1 7.02125 5.18018 1.01405 
29 1 5.70592 5.23382 5.83287 
31 1 6.97295 5.20991 3.67661 
32 1 1.10469 5.23501 5.83987 
1 1 4.65825 5.24025 6.45871 
3 1 3.38864 5.21821 8.60959 
4 1 2.15851 5.24119 6.45521 
6 1 3.33236 5.09661 11.2697 
9 1 3.32511 3.7564 11.775 
11 1 3.36472 5.19456 9.83057 
12 1 3.31767 6.35232 12.0133 
14 1 3.40724 5.24764 7.1718 
33 2 3.00577 4.44942 13.3055 
34 2 4.51046 3.72762 14.5388 
35 3 4.31383 4.40458 15.1411 
ITEM: TIMESTEP
90
ITEM: NUMBER OF ATOMS
35
ITEM: BOX BOUNDS pp pp pp
-2.6307588359605937e-03 7.0996307588359606e+00
2.5388639074201480e-04 7.0967461136092602e+00
-8.7565145310861091e-03 2.4596756514531087e+01
ITEM: ATOMS id type x y z 
2 1 3.29402 1.60075 13.2712 
5 1 4.64961 1.57879 18.1067 
7 1 3.3772 1.55301 15.9262 
8 1 2.16452 1.57774 18.1071 
18 1 3.40611 1.57342 17.3681 
21 1 3.23386 2.97595 12.7584 
23 1 3.34119 1.53818 14.7044 
24 1 3.30772 0.347995 12.555 
17 1 7.02945 2.87481 24.2783 
19 1 6.99775 1.61778 22.1037 
20 1 7.02795 0.38955 24.2813 
22 1 6.95886 1.58593 19.4399 
25 1 5.7032 1.58239 18.7231 
27 1 6.97224 1.6032 20.883 
28 1 1.11318 1.58149 18.728 
30 1 7.0277 1.63127 23.5472 
10 1 6.958 5.22783 5.11267 
13 1 7.02644 3.92851 0.288321 
15 1 6.99275 5.1938 2.4498 
16 1 7.02715 6.43182 0.290564 
26 1 7.02379 5.18007 1.00603 
29 1 5.70749 5.23371 5.8283 
31 1 6.97543 5.20976 3.6704 
32 1 1.10291 5.2349 5.8353 
1 1 4.65911 5.24012 6.45451 
3 1 3.38851 5.21813 8.60737 
4 1 2.15743 5.24105 6.45102 
6 1 3.3322 5.09644 11.2689 
9 1 3.32491 3.75632 11.7749 
11 1 3.3646 5.19442 9.82846 
12 1 3.31749 6.35215 12.0131 
14 1 3.40714 5.24751 7.16817 
33 2 3.00537 4.44926 13.3062 
34 2 4.51119 3.72761 14.5404 
35 3 4.31441 4.40453 15.1431 
ITEM: TIMESTEP
100
ITEM: NUMBER OF ATOMS
35
ITEM: BOX BOUNDS pp pp pp
-4.9737371730582949e-03 7.1019737371730578e+00
1.0920423376847123e-03 7.0959079576623179e+00
-1.9151874244222534e-02 2.4607151874244224e+01
ITEM: ATOMS id type x y z 
2 1 3.29384 1.6012 13.2721 
5 1 4.65064 1.57921 18.1117 
7 1 3.37705 1.55349 15.9289 
8 1 2.16334 1.57822 18.1121 
18 1 3.40603 1.57386 17.3725 
21 1 3.23366 2.97661 12.7584 
23 1 3.34105 1.53865 14.7069 
24 1 3.30755 0.348711 12.5552 
17 1 7.03141 2.87494 24.2885 
19 1 6.99999 1.61824 22.1116 
20 1 7.03025 0.390305 24.2914 
22 1 6.96109 1.58641 19.4459 
25 1 5.70438 1.58286 18.7283 
27 1 6.97451 1.60367 20.8906 
28 1 1.11179 1.58194 18.7332 
30 1 7.03017 1.63173 23.5566 
10 1 6.96028 5.22747 5.10655 
13 1 7.02894 3.92847 0.278117 
15 1 6.99535 5.19337 2.44187 
16 1 7.02937 6.43113 0.280402 
26 1 7.02596 5.17972 0.996599 
29 1 5.70859 5.23335 5.82308 
31 1 6.97749 5.20929 3.66267 
32 1 1.10161 5.23455 5.83004 
1 1 4.66018 5.2397 6.44931 
3 1 3.38837 5.21787 8.60532 
4 1 2.15616 5.24061 6.44583 
6 1 3.33205 5.09594 11.2678 
9 1 3.32465 3.75618 11.7752 
11 1 3.36454 5.19396 9.82539 
12 1 3.31733 6.35156 12.0128 
14 1 3.40707 5.24708 7.16383 
33 2 3.00505 4.44871 13.3069 
34 2 4.5119 3.72757 14.5424 
35 3 4.31499 4.40436 15.1455 
ITEM: TIMESTEP
110
ITEM: NUMBER OF ATOMS
35
ITEM: BOX BOUNDS pp pp pp
-5.1175307359559458e-03 7.1021175307359563e+00
1.2725672284168213e-03 7.0957274327715849e+00
-2.1825952709770623e-02 2.4609825952709777e+01
ITEM: ATOMS id type x y z 
2 1 3.29382 1.60129 13.2724 
5 1 4.65077 1.5793 18.113 
7 1 3.37704 1.55359 15.9295 
8 1 2.16321 1.57832 18.1134 
18 1 3.40603 1.57395 17.3736 
21 1 3.23365 2.97673 12.7585 
23 1 3.34103 1.53875 14.7075 
24 1 3.30753 0.348869 12.5553 
17 1 7.03145 2.87496 24.2911 
19 1 7.00013 1.61833 22.1135 
20 1 7.0304 0.390468 24.294 
22 1 6.96123 1.58651 19.4475 
25 1 5.70439 1.58296 18.7297 
27 1 6.97465 1.60377 20.8926 
28 1 1.11175 1.58204 18.7345 
30 1 7.03036 1.63183 23.559 
10 1 6.96043 5.22739 5.10497 
13 1 7.02914 3.92846 0.27549 
15 1 6.9956 5.19327 2.43987 
16 1 7.02948 6.43098 0.277786 
26 1 7.02607 5.17965 0.994191 
29 1 5.70859 5.23328 5.82175 
31 1 6.97757 5.20919 3.66063 
32 1 1.1016 5.23447 5.8287 
1 1 4.66032 5.23961 6.44796 
3 1 3.38836 5.21783 8.60468 
4 1 2.156 5.24051 6.44449 
6 1 3.33204 5.09584 11.2675 
9 1 3.32461 3.75619 11.7753 
11 1 3.36455 5.19386 9.82468 
12 1 3.31731 6.35144 12.0127 
14 1 3.40708 5.24698 7.16271 
33 2 3.00503 4.44857 13.3071 
34 2 4.51196 3.72757 14.5429 
35 3 4.31504 4.40432 15.1462 
ITEM: TIMESTEP
111
ITEM: NUMBER OF ATOMS
35
ITEM: BOX BOUNDS pp pp pp
-5.1176151554284052e-03 7.1021176151554286e+00
1.2729137616199462e-03 7.0957270862383819e+00
-2.1826138500005577e-02 2.4609826138500011e+01
ITEM: ATOMS id type x y z 
2 1 3.29382 1.60129 13.2724 
5 1 4.65077 1.5793 18.113 
7 1 3.37704 1.55359 15.9295 
8 1 2.16321 1.57832 18.1134 
18 1 3.40603 1.57395 17.3736 
21 1 3.23365 2.97673 12.7585 
23 1 3.34103 1.53875 14.7075 
24 1 3.30753 0.348869 12.5553 
17 1 7.03145 2.87496 24.2911 
19 1 7.00013 1.61833 22.1135 
20 1 7.0304 0.390469 24.294 
22 1 6.96123 1.58651 19.4475 
25 1 5.70439 1.58296 18.7297 
27 1 6.97465 1.60377 20.8926 
28 1 1.11175 1.58204 18.7345 
30 1 7.03036 1.63183 23.559 
10 1 6.96043 5.22739 5.10497 
13 1 7.02914 3.92846 0.27549 
15 1 6.9956 5.19327 2.43987 
16 1 7.02948 6.43098 0.277786 
26 1 7.02607 5.17965 0.994191 
29 1 5.70859 5.23328 5.82175 
31 1 6.97757 5.20919 3.66063 
32 1 1.1016 5.23447 5.8287 
1 1 4.66032 5.23961 6.44796 
3 1 3.38836 5.21783 8.60468 
4 1 2.156 5.24051 6.44449 
6 1 3.33204 5.09584 11.2675 
9 1 3.32461 3.75619 11.7753 
11 1 3.36455 5.19386 9.82468 
12 1 3.31731 6.35144 12.0127 
14 1 3.40708 5.24698 7.16271 
33 2 3.00503 4.44857 13.3071 
34 2 4.51196 3.72757 14.5429 
35 3 4.31504 4.40432 15.1462 
ITEM: TIMESTEP
118
ITEM: NUMBER OF ATOMS
35
ITEM: BOX BOUNDS pp pp pp
-5.1176151554284052e-03 7.1021176151554286e+00
1.2729137616199462e-03 7.0957270862383819e+00
-2.1826138500005577e-02 2.4609826138500011e+01
ITEM: ATOMS id type x y z 
2 1 3.29369 1.60106 13.2735 
5 1 4.65144 1.57902 18.1128 
7 1 3.37683 1.55359 15.9296 
8 1 2.16272 1.57832 18.1137 
18 1 3.40611 1.57371 17.3739 
21 1 3.23344 2.97658 12.7593 
23 1 3.34087 1.53867 14.7085 
24 1 3.30736 0.348913 12.5554 
17 1 7.03023 2.87503 24.2912 
19 1 7.00036 1.61837 22.1127 
20 1 7.03045 0.390441 24.2938 
22 1 6.96114 1.58664 19.4474 
25 1 5.70416 1.58295 18.7293 
27 1 6.97449 1.60381 20.8927 
28 1 1.11184 1.58209 18.7338 
30 1 7.03109 1.63176 23.5582 
10 1 6.96061 5.22757 5.1045 
13 1 7.0293 3.92855 0.275316 
15 1 6.99826 5.19262 2.44011 
16 1 7.02885 6.43105 0.27756 
26 1 7.02556 5.17996 0.995005 
29 1 5.70867 5.23358 5.82219 
31 1 6.976 5.20901 3.66016 
32 1 1.1016 5.23454 5.82885 
1 1 4.6604 5.23953 6.44734 
3 1 3.38825 5.21859 8.60402 
4 1 2.15573 5.24035 6.44401 
6 1 3.33197 5.09597 11.2666 
9 1 3.32438 3.7574 11.7763 
11 1 3.36489 5.19341 9.82403 
12 1 3.31721 6.35177 12.0121 
14 1 3.40722 5.24687 7.16269 
33 2 3.00483 4.44714 13.3079 
34 2 4.51262 3.72763 14.5439 
35 3 4.31564 4.40456 15.1465 
ITEM: TIMESTEP
120
ITEM: NUMBER OF ATOMS
35
ITEM: BOX BOUNDS pp pp pp
-5.6637258579127223e-03 7.1026637258579131e+00
1.7268586049874483e-03 7.0952731413950145e+00
-2.4289303727705578e-02 2.4612289303727714e+01
ITEM: ATOMS id type x y z 
2 1 3.29365 1.60131 13.2737 
5 1 4.65162 1.57927 18.1139 
7 1 3.3768 1.55385 15.9303 
8 1 2.1625 1.57857 18.1149 
18 1 3.40609 1.57396 17.3749 
21 1 3.2334 2.97673 12.7593 
23 1 3.34083 1.53893 14.709 
24 1 3.30732 0.349316 12.5555 
17 1 7.03078 2.87512 24.2936 
19 1 7.00089 1.61862 22.1147 
20 1 7.03098 0.39085 24.2962 
22 1 6.96167 1.5869 19.4489 
25 1 5.70449 1.5832 18.7306 
27 1 6.97502 1.60406 20.8944 
28 1 1.11145 1.58234 18.7351 
30 1 7.03162 1.632 23.5605 
10 1 6.96113 5.22736 5.10306 
13 1 7.0298 3.9285 0.272916 
15 1 6.99881 5.19241 2.43818 
16 1 7.02937 6.43068 0.275154 
26 1 7.02611 5.17975 0.992765 
29 1 5.70898 5.23337 5.82091 
31 1 6.97652 5.20878 3.65839 
32 1 1.10124 5.23432 5.82757 
1 1 4.6606 5.23931 6.44614 
3 1 3.38822 5.21837 8.60346 
4 1 2.15549 5.24013 6.44282 
6 1 3.33193 5.09576 11.2663 
9 1 3.32433 3.75734 11.7763 
11 1 3.36488 5.19321 9.82337 
12 1 3.31717 6.35143 12.012 
14 1 3.4072 5.24666 7.16166 
33 2 3.00474 4.447 13.3081 
34 2 4.51278 3.7276 14.5443 
35 3 4.31578 4.40446 15.1471 
ITEM: TIMESTEP
128
ITEM: NUMBER OF ATOMS
35
ITEM: BOX BOUNDS pp pp pp
-5.9682956995084713e-03 7.1029682956995090e+00
2.2510625431669301e-03 7.0947489374568349e+00
-2.8467307491694013e-02 2.4616467307491707e+01
ITEM: ATOMS id type x y z 
2 1 3.29362 1.6016 13.2741 
5 1 4.65176 1.57955 18.1159 
7 1 3.37677 1.55414 15.9314 
8 1 2.16236 1.57885 18.1169 
18 1 3.40608 1.57424 17.3766 
21 1 3.23338 2.97692 12.7593 
23 1 3.34081 1.53923 14.71 
24 1 3.30729 0.349795 12.5556 
17 1 7.03111 2.87522 24.2977 
19 1 7.00119 1.61891 22.1178 
20 1 7.03127 0.391342 24.3002 
22 1 6.96195 1.5872 19.4513 
25 1 5.70465 1.58348 18.7327 
27 1 6.97531 1.60435 20.8974 
28 1 1.11124 1.58264 18.7372 
30 1 7.03193 1.63228 23.5642 
10 1 6.96143 5.22712 5.10059 
13 1 7.03004 3.92846 0.268857 
15 1 6.99914 5.19218 2.43497 
16 1 7.02965 6.43023 0.271078 
26 1 7.02644 5.1795 0.988998 
29 1 5.7091 5.23313 5.81878 
31 1 6.97679 5.20851 3.65531 
32 1 1.1011 5.23407 5.82543 
1 1 4.66077 5.23906 6.44408 
3 1 3.3882 5.21812 8.60249 
4 1 2.15529 5.23988 6.44077 
6 1 3.33191 5.09549 11.2659 
9 1 3.32428 3.75727 11.7764 
11 1 3.36488 5.19297 9.82224 
12 1 3.31714 6.35102 12.0119 
14 1 3.40719 5.24642 7.15991 
33 2 3.00467 4.44681 13.3085 
34 2 4.5129 3.72758 14.5452 
35 3 4.31588 4.40435 15.1481 
ITEM: TIMESTEP
129
ITEM: NUMBER OF ATOMS
35
ITEM: BOX BOUNDS pp pp pp
-5.9682956995084713e-03 7.1029682956995090e+00
2.2510625431669301e-03 7.0947489374568349e+00
-2.8467307491694013e-02 2.4616467307491707e+01
ITEM: ATOMS id type x y z 
2 1 3.29362 1.6016 13.2741 
5 1 4.65176 1.57955 18.1159 
7 1 3.37677 1.55414 15.9314 
8 1 2.16236 1.57885 18.1169 
18 1 3.40608 1.57424 17.3766 
21 1 3.23338 2.97692 12.7593 
23 1 3.34081 1.53923 14.71 
24 1 3.30729 0.349795 12.5556 
17 1 7.03111 2.87522 24.2977 
19 1 7.00119 1.61891 22.1178 
20 1 7.03127 0.391342 24.3002 
22 1 6.96195 1.5872 19.4513 
25 1 5.70465 1.58348 18.7327 
27 1 6.97531 1.60435 20.8974 
28 1 1.11124 1.58264 18.7372 
30 1 7.03193 1.63228 23.5642 
10 1 6.96143 5.22712 5.10059 
13 1 7.03004 3.92846 0.268857 
15 1 6.99914 5.19218 2.43497 
16 1 7.02965 6.43023 0.271078 
26 1 7.02644 5.1795 0.988998 
29 1 5.7091 5.23313 5.81878 
31 1 6.97679 5.20851 3.65531 
32 1 1.1011 5.23407 5.82543 
1 1 4.66077 5.23906 6.44408 
3 1 3.3882 5.21812 8.60249 
4 1 2.15529 5.23988 6.44077 
6 1 3.33191 5.09549 11.2659 
9 1 3.32428 3.75727 11.7764 
11 1 3.36488 5.19297 9.82224 
12 1 3.31714 6.35102 12.0119 
14 1 3.40719 5.24642 7.15991 
33 2 3.00467 4.44681 13.3085 
34 2 4.5129 3.72758 14.5452 
35 3 4.31588 4.40435 15.1481 
