ITEM: TIMESTEP
0
ITEM: NUMBER OF ATOMS
129
ITEM: BOX BOUNDS xy xz yz pp pp pp
0.0000000000000000e+00 2.3654499999999999e+01 7.8845000000000001e+00
0.0000000000000000e+00 1.3658086643083999e+01 0.0000000000000000e+00
0.0000000000000000e+00 2.5747000000000000e+01 0.0000000000000000e+00
ITEM: ATOMS id type x y z 
18 1 10.522 6.683 2.644 
28 1 5.247 4.273 12.803 
31 1 9.65 6.514 0.446 
62 1 9.171 5.15 12.405 
91 1 9.65 6.514 11.889 
92 1 10.81 6.18 11.007 
106 1 10.522 6.683 9.691 
127 1 10.81 6.18 1.328 
4 1 4.402 5.735 13.319 
5 1 3.307 5.568 14.201 
43 1 4.549 6.796 15.517 
52 1 9.172 5.15 25.677 
66 1 4.402 5.735 24.762 
67 1 5.003 6.76 23.881 
88 1 5.247 4.273 25.278 
107 1 3.307 5.568 23.881 
116 1 4.549 6.796 22.565 
117 1 5.003 6.76 14.201 
11 1 11.272 7.494 3.321 
12 1 10.477 8.871 4.018 
14 1 9.018 11.397 0.446 
15 1 10.114 11.565 1.328 
16 1 8.412 9.024 0.654 
19 1 10.477 8.871 5.569 
29 1 10.927 10.156 3.321 
32 1 8.77 7.648 1.328 
35 1 12.036 9.594 2.644 
45 1 9.231 8.963 3.321 
47 1 12.762 8.702 0.446 
49 1 11.224 11 0.654 
51 1 8.872 10.337 2.644 
53 1 11.272 7.494 9.014 
54 1 10.477 8.871 8.317 
56 1 9.018 11.397 11.889 
57 1 8.418 10.372 11.007 
58 1 11.224 11 11.681 
60 1 12.255 7.901 9.691 
61 1 10.477 8.871 6.766 
73 1 9.231 8.963 9.014 
75 1 12.762 8.702 11.889 
76 1 12.202 10.061 11.007 
79 1 9.224 7.617 9.691 
80 1 8.174 12.859 12.405 
89 1 10.927 10.156 9.014 
93 1 8.412 9.024 11.681 
95 1 9.951 11.095 9.691 
105 1 10.114 11.565 11.007 
109 1 8.77 7.648 11.007 
110 1 12.036 9.594 9.691 
114 1 8.872 10.337 9.691 
119 1 8.418 10.372 1.328 
120 1 12.255 7.901 2.644 
123 1 12.202 10.061 1.328 
124 1 9.224 7.617 2.644 
128 1 9.951 11.095 2.644 
6 1 5.009 8.108 13.527 
13 1 9.663 10.28 25.128 
17 1 9.204 8.965 25.162 
30 1 10.016 7.556 25.128 
34 1 11.289 7.464 25.162 
36 1 8.174 12.859 25.677 
46 1 11.752 8.777 25.128 
50 1 10.937 10.184 25.162 
55 1 9.663 10.28 12.954 
59 1 10.937 10.184 12.919 
74 1 11.752 8.777 12.954 
78 1 11.289 7.464 12.919 
90 1 10.016 7.556 12.954 
94 1 9.204 8.965 12.919 
101 1 5.009 8.108 24.555 
33 1 11.795 6.589 0.654 
77 1 11.795 6.589 11.681 
41 1 17.967 6.132 13.527 
68 1 17.967 6.132 24.554 
103 1 19.24 6.037 22.565 
126 1 19.24 6.037 15.517 
3 1 19.528 6.852 12.254 
7 1 19.987 8.167 12.289 
10 1 15.106 8.528 12.804 
22 1 19.175 9.576 12.254 
26 1 17.902 9.668 12.289 
38 1 17.439 8.356 12.254 
42 1 18.254 6.949 12.289 
44 1 20.019 11.982 12.804 
48 1 12.546 7.4 1.328 
65 1 19.528 6.852 0.081 
69 1 18.254 6.949 0.046 
82 1 17.439 8.356 0.081 
86 1 17.902 9.668 0.046 
96 1 14.084 8.604 12.405 
98 1 19.175 9.576 0.081 
102 1 19.987 8.167 0.046 
113 1 12.546 7.4 11.007 
129 2 19.175 9.576 10.9 
1 1 17.919 9.638 16.194 
2 1 18.714 8.261 16.892 
8 1 18.669 10.449 15.517 
9 1 18.714 8.261 18.442 
20 1 14.084 8.604 25.677 
21 1 18.264 6.977 16.194 
23 1 19.541 10.618 13.32 
24 1 20.421 9.484 14.201 
25 1 17.396 10.544 13.527 
27 1 17.155 7.538 15.517 
37 1 19.96 8.169 16.194 
39 1 16.429 8.43 13.319 
40 1 16.644 9.732 14.201 
63 1 17.919 9.638 21.888 
64 1 18.714 8.261 21.19 
70 1 16.936 9.231 22.565 
71 1 18.714 8.261 19.64 
72 1 20.019 11.982 25.278 
81 1 19.96 8.169 21.888 
83 1 16.429 8.43 24.762 
84 1 16.989 7.071 23.881 
85 1 17.396 10.544 24.555 
87 1 19.967 9.515 22.565 
97 1 18.263 6.977 21.888 
99 1 19.541 10.618 24.762 
100 1 18.38 10.953 23.881 
104 1 15.106 8.528 25.278 
108 1 18.669 10.449 22.565 
111 1 20.421 9.484 23.881 
112 1 17.155 7.538 22.565 
115 1 16.644 9.732 23.881 
118 1 16.936 9.231 15.517 
121 1 16.989 7.071 14.201 
122 1 19.967 9.515 15.517 
125 1 18.38 10.953 14.201 
ITEM: TIMESTEP
10
ITEM: NUMBER OF ATOMS
129
ITEM: BOX BOUNDS xy xz yz pp pp pp
0.0000000000000000e+00 2.3654499999999999e+01 7.8845000000000001e+00
0.0000000000000000e+00 1.3658086643083999e+01 0.0000000000000000e+00
0.0000000000000000e+00 2.5747000000000000e+01 0.0000000000000000e+00
ITEM: ATOMS id type x y z 
18 1 10.3906 6.72311 2.6306 
28 1 5.11206 4.55998 12.8962 
31 1 9.41673 6.49782 0.437309 
62 1 9.17008 5.27721 12.3482 
91 1 9.41648 6.49904 11.8974 
92 1 10.6693 6.20579 10.9595 
106 1 10.3936 6.72609 9.70683 
127 1 10.6772 6.20611 1.37749 
4 1 4.4853 5.72497 13.2505 
5 1 3.13746 5.63955 14.2371 
43 1 4.56315 6.91901 15.4793 
52 1 9.16477 5.26521 25.7269 
66 1 4.45498 5.74115 24.8401 
67 1 5.13411 6.92119 23.8881 
88 1 5.09178 4.59662 25.1847 
107 1 3.13878 5.6289 23.846 
116 1 4.56185 6.95071 22.5873 
117 1 5.11105 6.93953 14.1991 
11 1 11.2426 7.57895 3.42194 
12 1 10.5347 8.77074 4.09433 
14 1 8.96191 11.3755 0.366712 
15 1 10.2913 11.4936 1.35511 
16 1 8.39578 8.89842 0.694474 
19 1 10.4728 8.86746 5.56001 
29 1 10.9504 10.151 3.32855 
32 1 8.68701 7.68665 1.30467 
35 1 12.0506 9.58138 2.60683 
45 1 9.20905 8.93207 3.26762 
47 1 12.7115 8.84312 0.529144 
49 1 11.3429 10.9304 0.663192 
51 1 8.84595 10.1853 2.59709 
53 1 11.2396 7.58201 8.9153 
54 1 10.539 8.77726 8.2465 
56 1 8.96711 11.3568 11.9591 
57 1 8.30653 10.1881 11.0449 
58 1 11.3455 10.9169 11.6711 
60 1 12.3012 8.08701 9.62779 
61 1 10.4729 8.86773 6.77954 
73 1 9.2037 8.92951 9.06268 
75 1 12.7113 8.84943 11.8204 
76 1 12.285 10.0716 11.028 
79 1 9.18815 7.68746 9.77736 
80 1 8.32994 12.5319 12.3118 
89 1 10.9553 10.1441 9.00421 
93 1 8.3913 8.8985 11.6417 
95 1 10.0653 11.0466 9.70535 
105 1 10.2911 11.4949 10.9913 
109 1 8.6959 7.68142 11.0438 
110 1 12.0469 9.57798 9.72309 
114 1 8.84261 10.1898 9.73469 
119 1 8.29779 10.1767 1.30612 
120 1 12.3078 8.0778 2.69327 
123 1 12.2807 10.0735 1.3054 
124 1 9.18839 7.69526 2.56144 
128 1 10.0565 11.0482 2.62531 
6 1 4.99266 8.20781 13.5542 
13 1 9.62002 10.221 25.069 
17 1 9.16443 8.96075 25.1554 
30 1 10.0128 7.7186 25.0709 
34 1 11.1711 7.5168 25.1714 
36 1 8.32853 12.5349 25.7713 
46 1 11.6719 8.88487 25.0771 
50 1 11.0007 10.1235 25.1856 
55 1 9.62088 10.2515 12.9998 
59 1 11.0035 10.1262 12.9051 
74 1 11.671 8.87053 12.996 
78 1 11.177 7.51953 12.8874 
90 1 10.0314 7.71809 13.0068 
94 1 9.13868 8.93327 12.9189 
101 1 5.07581 8.1717 24.5685 
33 1 11.7778 6.66316 0.652528 
77 1 11.7625 6.67208 11.7067 
41 1 17.8717 6.25213 13.5261 
68 1 17.8406 6.19035 24.5523 
103 1 19.1392 6.07867 22.5916 
126 1 19.1424 6.08207 15.5127 
3 1 19.6246 6.74002 12.2107 
7 1 20.0001 8.01737 12.3278 
10 1 15.1122 8.47527 12.8643 
22 1 19.3204 9.5623 12.0169 
26 1 17.7784 9.56314 12.3563 
38 1 17.5012 8.30276 12.2377 
42 1 18.261 7.0462 12.2699 
44 1 20.1049 11.9474 12.8055 
48 1 12.6055 7.54033 1.36728 
65 1 19.5729 6.86823 0.172576 
69 1 18.2005 7.02363 0.00967778 
82 1 17.5327 8.29277 0.143438 
86 1 17.9004 9.6318 -0.00473038 
96 1 14.0398 8.68992 12.3509 
98 1 19.3262 9.41742 0.0470191 
102 1 20.0627 8.13166 0.0346568 
113 1 12.6162 7.53724 10.9698 
129 2 19.2464 9.68143 10.7388 
1 1 17.8279 9.55096 16.2342 
2 1 18.6854 8.30072 17.0196 
8 1 18.7845 10.3951 15.5263 
9 1 18.7218 8.26522 18.4562 
20 1 14.0837 8.66394 25.7181 
21 1 18.2391 6.98048 16.2123 
23 1 19.7941 10.6376 13.3714 
24 1 20.5188 9.47226 14.1465 
25 1 17.3793 10.5044 13.5148 
27 1 17.15 7.50752 15.4789 
37 1 19.9766 8.21205 16.1521 
39 1 16.4299 8.32423 13.4616 
40 1 16.5899 9.5194 14.2693 
63 1 17.8586 9.54493 21.8313 
64 1 18.6978 8.29202 21.0932 
70 1 16.9214 9.10069 22.4888 
71 1 18.717 8.26283 19.6279 
72 1 20.0561 11.9491 25.2715 
81 1 19.9418 8.22558 21.9513 
83 1 16.467 8.30889 24.6517 
84 1 16.9053 7.06903 23.8847 
85 1 17.4007 10.4319 24.6088 
87 1 19.9737 9.42934 22.6471 
97 1 18.258 6.99524 21.8555 
99 1 19.746 10.6734 24.7529 
100 1 18.5093 10.9621 23.8237 
104 1 15.0975 8.46901 25.2413 
108 1 18.8063 10.3844 22.577 
111 1 20.4324 9.48166 23.9925 
112 1 17.1502 7.5286 22.6097 
115 1 16.6005 9.5904 23.8349 
118 1 16.9096 9.10729 15.6021 
121 1 16.9283 7.04121 14.1921 
122 1 20.0002 9.46325 15.4399 
125 1 18.4746 10.96 14.2785 
ITEM: TIMESTEP
20
ITEM: NUMBER OF ATOMS
129
ITEM: BOX BOUNDS xy xz yz pp pp pp
0.0000000000000000e+00 2.3654499999999999e+01 7.8845000000000001e+00
0.0000000000000000e+00 1.3658086643083999e+01 0.0000000000000000e+00
0.0000000000000000e+00 2.5747000000000000e+01 0.0000000000000000e+00
ITEM: ATOMS id type x y z 
18 1 10.3484 6.77131 2.68282 
28 1 5.10583 4.60317 12.9114 
31 1 9.38796 6.5512 0.447543 
62 1 9.10296 5.24307 12.3693 
91 1 9.39335 6.54531 11.8833 
92 1 10.6588 6.26654 10.954 
106 1 10.3598 6.78147 9.66053 
127 1 10.6495 6.26753 1.37361 
4 1 4.44102 5.821 13.309 
5 1 3.14134 5.67357 14.2021 
43 1 4.57304 6.9653 15.4817 
52 1 9.10232 5.24596 25.7153 
66 1 4.38962 5.86352 24.8029 
67 1 5.09558 6.96617 23.8997 
88 1 5.0768 4.65386 25.1775 
107 1 3.13851 5.67155 23.8856 
116 1 4.58626 6.95015 22.6098 
117 1 5.08128 6.97256 14.194 
11 1 11.2473 7.55977 3.4175 
12 1 10.5217 8.79361 4.07634 
14 1 9.02438 11.2431 0.405936 
15 1 10.281 11.4494 1.3207 
16 1 8.32691 8.88223 0.656318 
19 1 10.4739 8.85633 5.56554 
29 1 10.9558 10.1003 3.33194 
32 1 8.63034 7.64661 1.29543 
35 1 12.0984 9.61577 2.61446 
45 1 9.21331 8.94457 3.27452 
47 1 12.7063 8.87332 0.500428 
49 1 11.4001 10.9381 0.666431 
51 1 8.83584 10.1752 2.59196 
53 1 11.2477 7.55651 8.91875 
54 1 10.5215 8.78261 8.25338 
56 1 9.02631 11.2421 11.9286 
57 1 8.32406 10.1436 11.0353 
58 1 11.4047 10.9309 11.6688 
60 1 12.3031 8.09684 9.658 
61 1 10.4756 8.85798 6.76594 
73 1 9.222 8.94921 9.06326 
75 1 12.6965 8.88273 11.8392 
76 1 12.3216 10.1413 10.9673 
79 1 9.13956 7.66641 9.76858 
80 1 8.34971 12.4623 12.3026 
89 1 10.9469 10.1019 8.98524 
93 1 8.31989 8.88447 11.6699 
95 1 10.0487 11.0152 9.70712 
105 1 10.2858 11.4477 11.0123 
109 1 8.62001 7.64135 11.0401 
110 1 12.111 9.60956 9.72395 
114 1 8.84206 10.1747 9.74738 
119 1 8.33513 10.1416 1.30371 
120 1 12.309 8.1041 2.67674 
123 1 12.3124 10.1386 1.36102 
124 1 9.14764 7.66516 2.5611 
128 1 10.0537 11.0056 2.63745 
6 1 5.04911 8.23263 13.5564 
13 1 9.62352 10.2069 25.0702 
17 1 9.11095 8.90412 25.1488 
30 1 9.92798 7.68155 25.0495 
34 1 11.1415 7.59545 25.141 
36 1 8.34785 12.4659 25.7803 
46 1 11.7264 8.91808 25.1005 
50 1 11.0299 10.1691 25.1378 
55 1 9.62158 10.2118 13.0195 
59 1 11.027 10.1674 12.951 
74 1 11.7137 8.93198 12.9866 
78 1 11.1346 7.59069 12.93 
90 1 9.94602 7.6685 13.03 
94 1 9.11688 8.91312 12.9395 
101 1 5.14473 8.19434 24.5777 
33 1 11.7431 6.73068 0.695095 
77 1 11.7243 6.74371 11.6462 
41 1 17.84 6.24117 13.5112 
68 1 17.7958 6.19932 24.558 
103 1 19.1462 6.11374 22.5805 
126 1 19.1522 6.10751 15.5208 
3 1 19.6081 6.78882 12.1733 
7 1 20.0562 8.07858 12.3034 
10 1 15.1198 8.43972 12.8554 
22 1 19.3685 9.49392 11.9626 
26 1 17.8123 9.51356 12.3588 
38 1 17.4993 8.34699 12.279 
42 1 18.2373 7.01107 12.2586 
44 1 20.1679 11.8601 12.8437 
48 1 12.5659 7.57359 1.39754 
65 1 19.5733 6.86085 0.167702 
69 1 18.212 6.98025 0.0242428 
82 1 17.5559 8.29603 0.129534 
86 1 17.9493 9.62707 -0.00818079 
96 1 14.0459 8.70916 12.3539 
98 1 19.3306 9.39031 0.0313391 
102 1 20.101 8.14776 0.0364339 
113 1 12.5615 7.5614 10.9304 
129 2 19.3054 9.7545 10.6759 
1 1 17.8428 9.53953 16.2741 
2 1 18.6939 8.30488 16.9732 
8 1 18.8187 10.3554 15.5336 
9 1 18.7259 8.2689 18.4369 
20 1 14.0599 8.68611 25.7244 
21 1 18.2332 7.00245 16.2335 
23 1 19.7852 10.6687 13.3372 
24 1 20.5407 9.51338 14.1269 
25 1 17.4168 10.3789 13.5457 
27 1 17.1176 7.48568 15.5051 
37 1 19.9629 8.204 16.1426 
39 1 16.426 8.24553 13.4362 
40 1 16.5814 9.58106 14.3114 
63 1 17.8601 9.54829 21.8293 
64 1 18.6809 8.2994 21.111 
70 1 16.9211 9.07927 22.4642 
71 1 18.7202 8.2672 19.6583 
72 1 20.1007 11.9512 25.281 
81 1 19.9609 8.20931 21.9452 
83 1 16.4745 8.27541 24.6757 
84 1 16.8704 7.03247 23.8573 
85 1 17.4336 10.4119 24.5626 
87 1 19.9966 9.46838 22.6993 
97 1 18.2352 7.00596 21.8595 
99 1 19.7562 10.6764 24.7639 
100 1 18.5492 10.9017 23.8419 
104 1 15.1419 8.43089 25.2358 
108 1 18.821 10.3378 22.5618 
111 1 20.4965 9.4676 24.027 
112 1 17.1185 7.49567 22.5961 
115 1 16.6132 9.55481 23.8091 
118 1 16.8994 9.05426 15.6553 
121 1 16.872 7.01494 14.2295 
122 1 20.0284 9.47905 15.4085 
125 1 18.5475 10.8861 14.2472 
ITEM: TIMESTEP
30
ITEM: NUMBER OF ATOMS
129
ITEM: BOX BOUNDS xy xz yz pp pp pp
0.0000000000000000e+00 2.3654499999999999e+01 7.8845000000000001e+00
0.0000000000000000e+00 1.3658086643083999e+01 0.0000000000000000e+00
0.0000000000000000e+00 2.5747000000000000e+01 0.0000000000000000e+00
ITEM: ATOMS id type x y z 
18 1 10.3385 6.77931 2.67961 
28 1 5.1033 4.61973 12.919 
31 1 9.38666 6.54836 0.444751 
62 1 9.0725 5.25091 12.3725 
91 1 9.38773 6.54587 11.8835 
92 1 10.6359 6.29401 10.9532 
106 1 10.3358 6.78355 9.65594 
127 1 10.6371 6.29354 1.38074 
4 1 4.43105 5.84228 13.3143 
5 1 3.14503 5.69381 14.199 
43 1 4.56676 6.97714 15.4778 
52 1 9.07113 5.25308 25.711 
66 1 4.39035 5.88537 24.7974 
67 1 5.08338 6.96862 23.8956 
88 1 5.08285 4.65164 25.1805 
107 1 3.13664 5.69232 23.8871 
116 1 4.57708 6.97346 22.6133 
117 1 5.07831 6.99014 14.1908 
11 1 11.2396 7.57661 3.41334 
12 1 10.5242 8.78612 4.06167 
14 1 9.03648 11.2109 0.399363 
15 1 10.2814 11.4288 1.31855 
16 1 8.32134 8.86769 0.657083 
19 1 10.4739 8.85427 5.56637 
29 1 10.9519 10.0932 3.32664 
32 1 8.61929 7.63934 1.29104 
35 1 12.1088 9.6185 2.62543 
45 1 9.20494 8.93718 3.26158 
47 1 12.6971 8.89442 0.515848 
49 1 11.4042 10.9444 0.656967 
51 1 8.84246 10.1576 2.59164 
53 1 11.2397 7.57951 8.91809 
54 1 10.5227 8.78422 8.27306 
56 1 9.0357 11.2072 11.9354 
57 1 8.33504 10.1265 11.0362 
58 1 11.4072 10.9419 11.6808 
60 1 12.3094 8.10685 9.65055 
61 1 10.475 8.85429 6.76987 
73 1 9.20333 8.93152 9.07879 
75 1 12.6922 8.8968 11.8179 
76 1 12.3356 10.1235 10.9822 
79 1 9.12882 7.67665 9.77308 
80 1 8.34664 12.4576 12.3055 
89 1 10.9575 10.0963 9.00486 
93 1 8.32165 8.8656 11.6752 
95 1 10.0588 11.0036 9.69284 
105 1 10.284 11.4267 11.014 
109 1 8.61755 7.64213 11.0416 
110 1 12.1092 9.61929 9.70514 
114 1 8.84828 10.1548 9.74937 
119 1 8.33631 10.1274 1.29946 
120 1 12.3092 8.10924 2.68178 
123 1 12.3297 10.1263 1.34792 
124 1 9.13596 7.67325 2.56538 
128 1 10.0563 11.006 2.64161 
6 1 5.05023 8.25666 13.5537 
13 1 9.63518 10.1848 25.0919 
17 1 9.10806 8.89836 25.14 
30 1 9.9243 7.67281 25.059 
34 1 11.1313 7.60225 25.1577 
36 1 8.34573 12.4589 25.7777 
46 1 11.7225 8.92914 25.1086 
50 1 11.0327 10.1695 25.1426 
55 1 9.63579 10.1893 12.9934 
59 1 11.0276 10.175 12.9455 
74 1 11.7198 8.93406 12.9744 
78 1 11.1314 7.60656 12.9272 
90 1 9.92055 7.67152 13.0194 
94 1 9.10841 8.89334 12.9378 
101 1 5.17218 8.20884 24.5744 
33 1 11.7088 6.78275 0.675737 
77 1 11.7096 6.77895 11.6587 
41 1 17.8335 6.24887 13.5107 
68 1 17.7862 6.19957 24.5693 
103 1 19.1506 6.11452 22.5708 
126 1 19.148 6.10996 15.52 
3 1 19.6149 6.79473 12.168 
7 1 20.0502 8.07848 12.3098 
10 1 15.1104 8.43823 12.8471 
22 1 19.3709 9.47861 11.9346 
26 1 17.8165 9.49994 12.3563 
38 1 17.5082 8.33772 12.2751 
42 1 18.2442 7.03281 12.2846 
44 1 20.1955 11.8728 12.8368 
48 1 12.5584 7.59292 1.38485 
65 1 19.5667 6.87682 0.163114 
69 1 18.1989 6.9908 0.0231189 
82 1 17.552 8.28694 0.105747 
86 1 17.9564 9.60323 -0.0172288 
96 1 14.0371 8.7079 12.3511 
98 1 19.3426 9.39897 0.0284097 
102 1 20.1028 8.15319 0.0466445 
113 1 12.5546 7.59748 10.9539 
129 2 19.3264 9.77399 10.6619 
1 1 17.8499 9.53512 16.2611 
2 1 18.6994 8.30643 16.9741 
8 1 18.8347 10.3339 15.5402 
9 1 18.7269 8.27132 18.4354 
20 1 14.0655 8.68437 25.7189 
21 1 18.2394 7.01418 16.2272 
23 1 19.8034 10.6395 13.3642 
24 1 20.5247 9.50322 14.1242 
25 1 17.4316 10.3684 13.5619 
27 1 17.1054 7.47755 15.5121 
37 1 19.9595 8.21662 16.1278 
39 1 16.4286 8.26389 13.4746 
40 1 16.5962 9.52372 14.3062 
63 1 17.8516 9.53819 21.8323 
64 1 18.6941 8.2981 21.1184 
70 1 16.9188 9.07086 22.4624 
71 1 18.7228 8.26926 19.6528 
72 1 20.1217 11.9447 25.2879 
81 1 19.9624 8.20646 21.9631 
83 1 16.4955 8.2757 24.6672 
84 1 16.8601 7.03916 23.8622 
85 1 17.436 10.4032 24.5652 
87 1 20.0079 9.45477 22.7046 
97 1 18.232 7.01723 21.8664 
99 1 19.7723 10.6778 24.7713 
100 1 18.5577 10.8828 23.8299 
104 1 15.1476 8.42822 25.2424 
108 1 18.8379 10.3409 22.5649 
111 1 20.5044 9.47475 24.0263 
112 1 17.1032 7.48874 22.5846 
115 1 16.6218 9.51343 23.8188 
118 1 16.903 9.05398 15.6549 
121 1 16.8781 7.00992 14.2344 
122 1 20.0308 9.47029 15.3969 
125 1 18.5535 10.8505 14.2388 
ITEM: TIMESTEP
40
ITEM: NUMBER OF ATOMS
129
ITEM: BOX BOUNDS xy xz yz pp pp pp
0.0000000000000000e+00 2.3654499999999999e+01 7.8845000000000001e+00
0.0000000000000000e+00 1.3658086643083999e+01 0.0000000000000000e+00
0.0000000000000000e+00 2.5747000000000000e+01 0.0000000000000000e+00
ITEM: ATOMS id type x y z 
18 1 10.3333 6.78404 2.68381 
28 1 5.10405 4.62583 12.9221 
31 1 9.38049 6.54543 0.44531 
62 1 9.05464 5.25365 12.3753 
91 1 9.38141 6.5415 11.8858 
92 1 10.6266 6.30299 10.9556 
106 1 10.3329 6.78696 9.65088 
127 1 10.6269 6.30326 1.37799 
4 1 4.43005 5.85236 13.3108 
5 1 3.14189 5.69777 14.2004 
43 1 4.56604 6.98019 15.477 
52 1 9.05333 5.25564 25.708 
66 1 4.39001 5.88955 24.7997 
67 1 5.08957 6.97432 23.9006 
88 1 5.08236 4.65797 25.1801 
107 1 3.13432 5.7002 23.8878 
116 1 4.57345 6.97291 22.6122 
117 1 5.08197 6.99676 14.1915 
11 1 11.241 7.57576 3.41167 
12 1 10.5199 8.78376 4.06434 
14 1 9.0335 11.2018 0.399918 
15 1 10.2825 11.4247 1.31924 
16 1 8.31598 8.86205 0.653319 
19 1 10.474 8.85253 5.56526 
29 1 10.9516 10.0918 3.32512 
32 1 8.61056 7.63227 1.28987 
35 1 12.1155 9.62213 2.62838 
45 1 9.20327 8.93563 3.2618 
47 1 12.7026 8.89939 0.511235 
49 1 11.4114 10.944 0.652816 
51 1 8.84385 10.156 2.58878 
53 1 11.2404 7.57629 8.9209 
54 1 10.52 8.78237 8.26989 
56 1 9.03403 11.2001 11.9356 
57 1 8.3326 10.1207 11.0396 
58 1 11.412 10.942 11.6837 
60 1 12.3092 8.11453 9.64816 
61 1 10.4746 8.85242 6.7689 
73 1 9.20311 8.9346 9.0749 
75 1 12.6895 8.90426 11.8206 
76 1 12.3466 10.126 10.9839 
79 1 9.12157 7.67111 9.76872 
80 1 8.34816 12.4482 12.3061 
89 1 10.9545 10.0925 9.00684 
93 1 8.31455 8.86179 11.6822 
95 1 10.0577 11.0027 9.6925 
105 1 10.2858 11.4219 11.0157 
109 1 8.60548 7.63113 11.0449 
110 1 12.116 9.62166 9.70124 
114 1 8.84815 10.1554 9.74995 
119 1 8.33535 10.12 1.29686 
120 1 12.3091 8.11526 2.68428 
123 1 12.343 10.1261 1.34778 
124 1 9.12629 7.6712 2.56581 
128 1 10.0542 11.0031 2.64209 
6 1 5.06015 8.25153 13.5454 
13 1 9.63882 10.1783 25.0906 
17 1 9.10168 8.89025 25.1387 
30 1 9.91497 7.66624 25.0599 
34 1 11.1246 7.61054 25.1537 
36 1 8.34711 12.4495 25.777 
46 1 11.7324 8.93468 25.1145 
50 1 11.0366 10.1722 25.1439 
55 1 9.63662 10.1798 12.9936 
59 1 11.0343 10.1778 12.9415 
74 1 11.7309 8.9391 12.97 
78 1 11.1234 7.6128 12.9289 
90 1 9.91252 7.6631 13.0191 
94 1 9.10223 8.88977 12.941 
101 1 5.18142 8.2121 24.5818 
33 1 11.6983 6.79528 0.674294 
77 1 11.6969 6.79385 11.6617 
41 1 17.829 6.24778 13.5149 
68 1 17.7832 6.2017 24.5681 
103 1 19.148 6.11687 22.571 
126 1 19.1489 6.11162 15.521 
3 1 19.6159 6.79681 12.1671 
7 1 20.056 8.08181 12.3009 
10 1 15.1069 8.43487 12.8446 
22 1 19.3706 9.47391 11.9167 
26 1 17.8194 9.4981 12.3521 
38 1 17.5089 8.33625 12.2732 
42 1 18.2445 7.03426 12.2853 
44 1 20.2112 11.8718 12.8362 
48 1 12.5581 7.61155 1.37939 
65 1 19.5686 6.88089 0.16121 
69 1 18.197 6.98723 0.0240209 
82 1 17.5595 8.28933 0.10045 
86 1 17.9545 9.60782 -0.0176896 
96 1 14.0349 8.71187 12.347 
98 1 19.3431 9.39384 0.0291748 
102 1 20.1112 8.15312 0.0454865 
113 1 12.5548 7.61318 10.957 
129 2 19.3395 9.78455 10.6516 
1 1 17.8525 9.53401 16.2625 
2 1 18.7026 8.30832 16.9747 
8 1 18.8365 10.3315 15.5377 
9 1 18.7276 8.27285 18.4372 
20 1 14.0629 8.68616 25.7206 
21 1 18.2389 7.01554 16.2278 
23 1 19.8092 10.6481 13.36 
24 1 20.5384 9.51012 14.1225 
25 1 17.432 10.3564 13.5655 
27 1 17.099 7.47242 15.5191 
37 1 19.9609 8.21441 16.13 
39 1 16.4229 8.25526 13.4762 
40 1 16.6007 9.5221 14.3116 
63 1 17.8543 9.53544 21.8332 
64 1 18.6968 8.30188 21.1174 
70 1 16.9185 9.06324 22.46 
71 1 18.7245 8.27057 19.6548 
72 1 20.1345 11.9411 25.2921 
81 1 19.9608 8.21043 21.9638 
83 1 16.4981 8.26957 24.6701 
84 1 16.8519 7.03503 23.8594 
85 1 17.4398 10.399 24.5552 
87 1 20.0123 9.45411 22.7043 
97 1 18.2322 7.0197 21.8683 
99 1 19.7757 10.683 24.7718 
100 1 18.5626 10.8745 23.8326 
104 1 15.1469 8.42439 25.2467 
108 1 18.8403 10.3355 22.5635 
111 1 20.5139 9.47886 24.0305 
112 1 17.0972 7.48665 22.5817 
115 1 16.626 9.50845 23.8189 
118 1 16.9043 9.04699 15.6615 
121 1 16.8747 7.00618 14.2407 
122 1 20.0302 9.47251 15.4071 
125 1 18.5617 10.8392 14.2472 
ITEM: TIMESTEP
50
ITEM: NUMBER OF ATOMS
129
ITEM: BOX BOUNDS xy xz yz pp pp pp
0.0000000000000000e+00 2.3654499999999999e+01 7.8845000000000001e+00
0.0000000000000000e+00 1.3658086643083999e+01 0.0000000000000000e+00
0.0000000000000000e+00 2.5747000000000000e+01 0.0000000000000000e+00
ITEM: ATOMS id type x y z 
18 1 10.3148 6.8031 2.69206 
28 1 5.10564 4.65554 12.936 
31 1 9.34525 6.53582 0.446398 
62 1 8.97986 5.25673 12.3891 
91 1 9.34241 6.53493 11.8876 
92 1 10.5904 6.33854 10.9591 
106 1 10.3143 6.8015 9.64251 
127 1 10.5927 6.33912 1.37366 
4 1 4.43035 5.88634 13.3071 
5 1 3.13308 5.71494 14.2022 
43 1 4.57083 6.98515 15.4698 
52 1 8.97869 5.25941 25.6938 
66 1 4.39371 5.91214 24.8019 
67 1 5.10031 6.99692 23.9088 
88 1 5.08308 4.68059 25.1798 
107 1 3.12641 5.72361 23.8913 
116 1 4.5707 6.97848 22.6267 
117 1 5.08973 7.02271 14.1829 
11 1 11.2413 7.58075 3.40625 
12 1 10.5097 8.7758 4.06521 
14 1 9.03418 11.1661 0.399499 
15 1 10.2921 11.3989 1.31342 
16 1 8.29231 8.83559 0.638921 
19 1 10.4738 8.84505 5.56387 
29 1 10.9506 10.0786 3.31783 
32 1 8.57295 7.60871 1.28853 
35 1 12.1358 9.63924 2.63931 
45 1 9.196 8.92952 3.26119 
47 1 12.7122 8.93363 0.501386 
49 1 11.4329 10.9411 0.652763 
51 1 8.8456 10.1455 2.57814 
53 1 11.2393 7.57988 8.92771 
54 1 10.5095 8.77434 8.26761 
56 1 9.03292 11.1668 11.9358 
57 1 8.32841 10.0904 11.0466 
58 1 11.4337 10.9465 11.6817 
60 1 12.3066 8.13736 9.64092 
61 1 10.4731 8.84444 6.76823 
73 1 9.19644 8.93001 9.07513 
75 1 12.689 8.93936 11.8268 
76 1 12.3804 10.1473 10.9753 
79 1 9.08845 7.66337 9.76457 
80 1 8.35242 12.411 12.3099 
89 1 10.9508 10.0778 9.01485 
93 1 8.28977 8.8349 11.6962 
95 1 10.0559 10.9931 9.69671 
105 1 10.2906 11.3997 11.0215 
109 1 8.57127 7.60703 11.0458 
110 1 12.1377 9.64177 9.69102 
114 1 8.84678 10.1468 9.75762 
119 1 8.32811 10.0912 1.28897 
120 1 12.3053 8.1408 2.69243 
123 1 12.3873 10.1347 1.34918 
124 1 9.09024 7.66253 2.56995 
128 1 10.0544 10.9933 2.63776 
6 1 5.07994 8.26862 13.5232 
13 1 9.64932 10.1476 25.0928 
17 1 9.08248 8.87298 25.1305 
30 1 9.88427 7.64138 25.0577 
34 1 11.0985 7.64117 25.1423 
36 1 8.35196 12.4108 25.7733 
46 1 11.7598 8.94887 25.1193 
50 1 11.0458 10.1821 25.1514 
55 1 9.64753 10.146 12.9895 
59 1 11.0445 10.1828 12.933 
74 1 11.7492 8.9511 12.9736 
78 1 11.0946 7.64249 12.9394 
90 1 9.88054 7.63849 13.0218 
94 1 9.08114 8.87249 12.9517 
101 1 5.22085 8.22694 24.5965 
33 1 11.6581 6.85246 0.672093 
77 1 11.6569 6.8524 11.6637 
41 1 17.8194 6.25424 13.5252 
68 1 17.767 6.21074 24.5639 
103 1 19.1419 6.12579 22.5721 
126 1 19.1516 6.12004 15.5202 
3 1 19.6234 6.80961 12.1585 
7 1 20.0671 8.09853 12.2799 
10 1 15.0999 8.42097 12.8391 
22 1 19.3642 9.45259 11.8513 
26 1 17.8376 9.49151 12.3367 
38 1 17.5089 8.33422 12.2721 
42 1 18.253 7.03968 12.3002 
44 1 20.2748 11.8574 12.8375 
48 1 12.5474 7.66649 1.36446 
65 1 19.5717 6.89506 0.156163 
69 1 18.1948 6.97885 0.0293541 
82 1 17.5702 8.29204 0.0890279 
86 1 17.9674 9.61282 -0.0240409 
96 1 14.0431 8.72926 12.3344 
98 1 19.3534 9.39364 0.0236318 
102 1 20.1367 8.16162 0.0465395 
113 1 12.5406 7.65837 10.9606 
129 2 19.3952 9.82315 10.612 
1 1 17.8574 9.525 16.2698 
2 1 18.7077 8.31639 16.9808 
8 1 18.8512 10.3181 15.5473 
9 1 18.731 8.27936 18.4408 
20 1 14.0717 8.69686 25.724 
21 1 18.2413 7.02127 16.2316 
23 1 19.8428 10.6574 13.3643 
24 1 20.5623 9.52215 14.1143 
25 1 17.4496 10.3139 13.5798 
27 1 17.0798 7.45456 15.546 
37 1 19.9682 8.2148 16.135 
39 1 16.406 8.23238 13.489 
40 1 16.6154 9.48861 14.3261 
63 1 17.8582 9.52455 21.8359 
64 1 18.7013 8.31462 21.1174 
70 1 16.9186 9.04051 22.4523 
71 1 18.7315 8.27679 19.6589 
72 1 20.1899 11.9307 25.3114 
81 1 19.9659 8.2132 21.973 
83 1 16.4997 8.24451 24.6752 
84 1 16.8212 7.01801 23.8491 
85 1 17.4508 10.3787 24.5369 
87 1 20.0366 9.45525 22.7157 
97 1 18.2305 7.0322 21.8731 
99 1 19.7978 10.6887 24.7764 
100 1 18.5866 10.8547 23.8322 
104 1 15.1529 8.40794 25.259 
108 1 18.8549 10.3166 22.5603 
111 1 20.5453 9.49149 24.0439 
112 1 17.0743 7.47072 22.5706 
115 1 16.6378 9.48254 23.8125 
118 1 16.9085 9.02181 15.6823 
121 1 16.8566 6.99452 14.2605 
122 1 20.0518 9.47533 15.4059 
125 1 18.5895 10.7999 14.247 
ITEM: TIMESTEP
60
ITEM: NUMBER OF ATOMS
129
ITEM: BOX BOUNDS xy xz yz pp pp pp
0.0000000000000000e+00 2.3654499999999999e+01 7.8845000000000001e+00
0.0000000000000000e+00 1.3658086643083999e+01 0.0000000000000000e+00
0.0000000000000000e+00 2.5747000000000000e+01 0.0000000000000000e+00
ITEM: ATOMS id type x y z 
18 1 10.299 6.81466 2.69063 
28 1 5.11764 4.67385 12.9452 
31 1 9.30842 6.52903 0.444153 
62 1 8.90504 5.25451 12.398 
91 1 9.30378 6.52793 11.8902 
92 1 10.5607 6.36124 10.9695 
106 1 10.2984 6.81526 9.64435 
127 1 10.5639 6.36602 1.36278 
4 1 4.43572 5.89956 13.3088 
5 1 3.1362 5.72595 14.2033 
43 1 4.58495 6.99001 15.4618 
52 1 8.9045 5.25658 25.6848 
66 1 4.3947 5.92614 24.7979 
67 1 5.11909 7.00786 23.919 
88 1 5.08856 4.6987 25.1828 
107 1 3.12275 5.72968 23.8977 
116 1 4.58133 6.98286 22.6404 
117 1 5.09544 7.0467 14.1644 
11 1 11.237 7.58501 3.39609 
12 1 10.5071 8.77089 4.06456 
14 1 9.03847 11.142 0.398839 
15 1 10.2965 11.3882 1.30786 
16 1 8.26647 8.8159 0.631425 
19 1 10.472 8.836 5.56477 
29 1 10.9468 10.0703 3.31267 
32 1 8.53681 7.59827 1.29358 
35 1 12.1457 9.65809 2.64234 
45 1 9.19039 8.92488 3.25882 
47 1 12.7254 8.95919 0.49427 
49 1 11.4463 10.9496 0.653869 
51 1 8.83283 10.1361 2.56975 
53 1 11.2342 7.58359 8.93457 
54 1 10.5042 8.77051 8.26902 
56 1 9.03474 11.1424 11.9356 
57 1 8.31557 10.0711 11.0528 
58 1 11.4396 10.9546 11.6845 
60 1 12.301 8.1548 9.6361 
61 1 10.4715 8.83562 6.76878 
73 1 9.18729 8.92239 9.07583 
75 1 12.6957 8.96572 11.8284 
76 1 12.3938 10.162 10.9729 
79 1 9.05861 7.65853 9.76225 
80 1 8.34843 12.3814 12.3204 
89 1 10.9478 10.0732 9.01757 
93 1 8.26404 8.81606 11.7029 
95 1 10.0477 10.9795 9.70586 
105 1 10.2941 11.3927 11.0237 
109 1 8.53576 7.59569 11.04 
110 1 12.1434 9.65692 9.68394 
114 1 8.83405 10.1349 9.76579 
119 1 8.3168 10.0711 1.28039 
120 1 12.3041 8.15355 2.69754 
123 1 12.3987 10.1547 1.35575 
124 1 9.06043 7.65707 2.57276 
128 1 10.0483 10.9808 2.62906 
6 1 5.0853 8.28334 13.5004 
13 1 9.64761 10.1338 25.0916 
17 1 9.06426 8.86302 25.1282 
30 1 9.87364 7.64354 25.0437 
34 1 11.092 7.65368 25.1309 
36 1 8.34957 12.3793 25.7634 
46 1 11.7575 8.95418 25.114 
50 1 11.0431 10.1792 25.153 
55 1 9.64113 10.1321 12.9925 
59 1 11.0401 10.1827 12.9287 
74 1 11.7514 8.96136 12.966 
78 1 11.0873 7.64919 12.9486 
90 1 9.86783 7.64084 13.0374 
94 1 9.06359 8.86413 12.9536 
101 1 5.24593 8.23671 24.6054 
33 1 11.6368 6.87318 0.67701 
77 1 11.6317 6.87524 11.6595 
41 1 17.817 6.26548 13.5362 
68 1 17.7618 6.21255 24.5655 
103 1 19.1451 6.13742 22.581 
126 1 19.1629 6.12841 15.5208 
3 1 19.6315 6.81901 12.1493 
7 1 20.0558 8.11794 12.2568 
10 1 15.1065 8.41408 12.8366 
22 1 19.353 9.44413 11.797 
26 1 17.8567 9.48823 12.3231 
38 1 17.5068 8.33685 12.2766 
42 1 18.2631 7.04871 12.3064 
44 1 20.3416 11.8335 12.838 
48 1 12.5256 7.6989 1.35803 
65 1 19.5786 6.90497 0.154968 
69 1 18.2007 6.98404 0.030381 
82 1 17.5813 8.29257 0.0871301 
86 1 17.9781 9.6117 -0.0262119 
96 1 14.0499 8.74189 12.3275 
98 1 19.3668 9.39596 0.018602 
102 1 20.1531 8.16838 0.0515785 
113 1 12.5191 7.69379 10.9678 
129 2 19.453 9.84262 10.5755 
1 1 17.8631 9.51963 16.2737 
2 1 18.7186 8.31848 16.9787 
8 1 18.8568 10.3052 15.5451 
9 1 18.7396 8.28596 18.4484 
20 1 14.0846 8.70261 25.7311 
21 1 18.2453 7.02008 16.2387 
23 1 19.8652 10.6608 13.3837 
24 1 20.5988 9.52562 14.1125 
25 1 17.4706 10.2855 13.5855 
27 1 17.0766 7.43834 15.5639 
37 1 19.9782 8.21807 16.1383 
39 1 16.4024 8.2102 13.4913 
40 1 16.6331 9.45913 14.3252 
63 1 17.8621 9.52027 21.8383 
64 1 18.7064 8.31909 21.1191 
70 1 16.9221 9.02547 22.4457 
71 1 18.7373 8.28627 19.666 
72 1 20.2473 11.9166 25.3294 
81 1 19.972 8.21397 21.9833 
83 1 16.4979 8.22929 24.6679 
84 1 16.8105 7.0025 23.8428 
85 1 17.4616 10.3666 24.5276 
87 1 20.0571 9.45384 22.7227 
97 1 18.2329 7.03828 21.878 
99 1 19.8218 10.6913 24.7781 
100 1 18.5988 10.8527 23.8345 
104 1 15.1644 8.39466 25.2662 
108 1 18.8697 10.3029 22.5645 
111 1 20.5757 9.49965 24.0491 
112 1 17.0629 7.4576 22.5623 
115 1 16.6468 9.47129 23.8086 
118 1 16.9153 9.00759 15.6972 
121 1 16.8459 6.97711 14.2802 
122 1 20.0758 9.47257 15.4046 
125 1 18.6029 10.7924 14.2587 
ITEM: TIMESTEP
70
ITEM: NUMBER OF ATOMS
129
ITEM: BOX BOUNDS xy xz yz pp pp pp
0.0000000000000000e+00 2.3654499999999999e+01 7.8845000000000001e+00
0.0000000000000000e+00 1.3658086643083999e+01 0.0000000000000000e+00
0.0000000000000000e+00 2.5747000000000000e+01 0.0000000000000000e+00
ITEM: ATOMS id type x y z 
18 1 10.2946 6.81715 2.68534 
28 1 5.12387 4.67767 12.9475 
31 1 9.29631 6.52947 0.441005 
62 1 8.87889 5.25696 12.3991 
91 1 9.2926 6.52734 11.8928 
92 1 10.5492 6.36776 10.9704 
106 1 10.2921 6.81703 9.64858 
127 1 10.5536 6.37132 1.3633 
4 1 4.43259 5.90767 13.3025 
5 1 3.14172 5.72971 14.2045 
43 1 4.58921 6.99689 15.4551 
52 1 8.87851 5.25883 25.6836 
66 1 4.39746 5.92993 24.7984 
67 1 5.12461 7.01172 23.9213 
88 1 5.09215 4.70243 25.1849 
107 1 3.12241 5.73159 23.8975 
116 1 4.58492 6.98363 22.6448 
117 1 5.0959 7.05019 14.1684 
11 1 11.2322 7.58966 3.39607 
12 1 10.5067 8.76942 4.06198 
14 1 9.03796 11.1355 0.397857 
15 1 10.2978 11.385 1.30787 
16 1 8.2572 8.81118 0.630667 
19 1 10.4715 8.83266 5.56477 
29 1 10.9445 10.0687 3.31143 
32 1 8.52683 7.59351 1.29361 
35 1 12.1476 9.66236 2.64303 
45 1 9.18587 8.92383 3.25693 
47 1 12.7262 8.96976 0.49295 
49 1 11.4487 10.9514 0.654065 
51 1 8.82985 10.1311 2.56687 
53 1 11.2295 7.58769 8.93488 
54 1 10.5037 8.76793 8.26988 