ITEM: TIMESTEP
0
ITEM: NUMBER OF ATOMS
51
ITEM: BOX BOUNDS pp pp pp
0.0000000000000000e+00 1.1000000000000000e+01
0.0000000000000000e+00 1.1002000000000001e+01
0.0000000000000000e+00 1.1000000000000000e+01
ITEM: ATOMS id type x y z 
10 1 4.603 4.603 4.603 
11 1 3.085 3.085 3.085 
12 1 3.796 3.796 3.796 
46 1 0.726 0.725 0.725 
47 1 2.26 2.259 2.26 
48 1 1.551 1.55 1.55 
19 1 4.546 4.545 6.226 
20 1 3.013 3.013 7.764 
21 1 3.721 3.721 7.053 
31 1 0.668 0.667 10.103 
32 1 2.187 2.187 8.589 
33 1 1.476 1.475 9.298 
16 1 4.546 6.225 4.546 
17 1 3.013 7.765 3.013 
18 1 3.721 7.053 3.722 
25 1 0.668 10.103 0.668 
26 1 2.188 8.589 2.188 
27 1 1.476 9.298 1.476 
4 1 4.608 6.169 6.169 
5 1 3.086 7.684 7.684 
6 1 3.799 6.974 6.974 
37 1 0.729 10.046 10.046 
38 1 2.259 8.509 8.508 
39 1 1.552 9.219 9.219 
13 1 6.225 4.546 4.546 
14 1 7.764 3.013 3.013 
15 1 7.053 3.721 3.722 
28 1 10.102 0.667 0.668 
29 1 8.589 2.187 2.188 
30 1 9.298 1.475 1.476 
1 1 6.168 4.608 6.169 
2 1 7.684 3.086 7.684 
3 1 6.974 3.799 6.974 
40 1 10.045 0.728 10.046 
41 1 8.508 2.259 8.508 
42 1 9.218 1.551 9.218 
7 1 6.169 6.169 4.608 
8 1 7.684 7.684 3.086 
9 1 6.974 6.974 3.799 
43 1 10.046 10.047 0.729 
44 1 8.508 8.509 2.259 
45 1 9.219 9.219 1.552 
51 3 7.808 7.862 0.8 
22 1 6.229 6.229 6.229 
23 1 7.764 7.765 7.765 
24 1 7.055 7.056 7.055 
34 1 10.108 10.108 10.107 
35 1 8.59 8.59 8.59 
36 1 9.301 9.301 9.3 
49 2 8.884 8.665 10.43 
50 2 7.566 8.148 10.909 
ITEM: TIMESTEP
10
ITEM: NUMBER OF ATOMS
51
ITEM: BOX BOUNDS pp pp pp
0.0000000000000000e+00 1.1000000000000000e+01
0.0000000000000000e+00 1.1002000000000001e+01
0.0000000000000000e+00 1.1000000000000000e+01
ITEM: ATOMS id type x y z 
10 1 4.59314 4.59252 4.59661 
11 1 3.08221 3.08009 3.08219 
12 1 3.78694 3.79093 3.7871 
46 1 0.738274 0.737261 0.738414 
47 1 2.27725 2.27636 2.27609 
48 1 1.56844 1.5672 1.56939 
19 1 4.5372 4.53803 6.23651 
20 1 2.99793 2.99912 7.77741 
21 1 3.70869 3.70637 7.0678 
31 1 0.695672 0.691146 10.0959 
32 1 2.19297 2.19213 8.57951 
33 1 1.48786 1.48844 9.29385 
16 1 4.52946 6.23661 4.53755 
17 1 2.99935 7.77843 2.99915 
18 1 3.70575 7.06755 3.70746 
25 1 0.719692 10.1053 0.687681 
26 1 2.18988 8.57659 2.19544 
27 1 1.49864 9.29747 1.48701 
4 1 4.59731 6.17386 6.17586 
5 1 3.0854 7.68675 7.68629 
6 1 3.79249 6.97614 6.97718 
37 1 0.74387 10.0294 10.0267 
38 1 2.28131 8.49027 8.49001 
39 1 1.56878 9.19462 9.19315 
13 1 6.23698 4.5292 4.53694 
14 1 7.77872 2.99829 2.99822 
15 1 7.06764 3.7055 3.70715 
28 1 10.1049 0.718122 0.689468 
29 1 8.57626 2.18958 2.19552 
30 1 9.29693 1.49721 1.48755 
1 1 6.17391 4.59809 6.17701 
2 1 7.68713 3.08638 7.68604 
3 1 6.97407 3.79179 6.97638 
40 1 10.0278 0.744418 10.0242 
41 1 8.4885 2.28179 8.48917 
42 1 9.19333 1.56901 9.19174 
7 1 6.15891 6.15974 4.60248 
8 1 7.69224 7.69052 3.15656 
9 1 6.96547 6.9663 3.83492 
43 1 10.0392 10.0408 0.731735 
44 1 8.44666 8.45127 2.25966 
45 1 9.27851 9.27383 1.61542 
51 3 7.755 7.79708 0.699695 
22 1 6.24608 6.24587 6.25209 
23 1 7.77327 7.77797 7.77512 
24 1 7.05109 7.05503 7.05453 
34 1 10.1549 10.162 10.1074 
35 1 8.5535 8.54766 8.52476 
36 1 9.25932 9.23511 9.38747 
49 2 8.90365 8.69146 10.3575 
50 2 7.5474 8.1493 10.912 
ITEM: TIMESTEP
20
ITEM: NUMBER OF ATOMS
51
ITEM: BOX BOUNDS pp pp pp
0.0000000000000000e+00 1.1000000000000000e+01
0.0000000000000000e+00 1.1002000000000001e+01
0.0000000000000000e+00 1.1000000000000000e+01
ITEM: ATOMS id type x y z 
10 1 4.59454 4.60054 4.60025 
11 1 3.08517 3.09188 3.08394 
12 1 3.79809 3.78426 3.80181 
46 1 0.749218 0.749961 0.739836 
47 1 2.27715 2.27714 2.27787 
48 1 1.57486 1.57322 1.57105 
19 1 4.52937 4.52918 6.23911 
20 1 3.00007 2.99863 7.77851 
21 1 3.70514 3.7095 7.06374 
31 1 0.686193 0.686245 10.1038 
32 1 2.19239 2.19777 8.58742 
33 1 1.48881 1.47538 9.28254 
16 1 4.52586 6.23232 4.53525 
17 1 3.0042 7.77563 3.00112 
18 1 3.70027 7.0637 3.71063 
25 1 0.702617 10.1114 0.678761 
26 1 2.18885 8.58594 2.19359 
27 1 1.4935 9.29462 1.47888 
4 1 4.58813 6.16842 6.17228 
5 1 3.09183 7.6853 7.6844 
6 1 3.78856 6.9684 6.9721 
37 1 0.749407 10.0448 10.0307 
38 1 2.27353 8.48852 8.48979 
39 1 1.57629 9.20323 9.19749 
13 1 6.23199 4.52603 4.5339 
14 1 7.77708 3.00213 2.99872 
15 1 7.06237 3.70115 3.7123 
28 1 10.1124 0.70153 0.680167 
29 1 8.58621 2.18917 2.19348 
30 1 9.29322 1.49063 1.47966 
1 1 6.1677 4.58364 6.17098 
2 1 7.68098 3.08866 7.67975 
3 1 6.9707 3.80012 6.97576 
40 1 10.0432 0.751443 10.0298 
41 1 8.48609 2.2746 8.48739 
42 1 9.20242 1.5767 9.1972 
7 1 6.15693 6.15793 4.59065 
8 1 7.72588 7.72852 3.18633 
9 1 6.99269 6.99196 3.84228 
43 1 10.067 10.068 0.761154 
44 1 8.40112 8.40241 2.12008 
45 1 9.30101 9.3003 1.68843 
51 3 7.72809 7.73988 0.717084 
22 1 6.23162 6.23465 6.24362 
23 1 7.78032 7.78047 7.7613 
24 1 7.0475 7.04884 7.047 
34 1 10.1503 10.1583 10.1006 
35 1 8.57817 8.59322 8.48653 
36 1 9.23597 9.18927 9.4555 
49 2 8.91906 8.69145 10.3854 
50 2 7.51586 8.15893 10.8951 
ITEM: TIMESTEP
30
ITEM: NUMBER OF ATOMS
51
ITEM: BOX BOUNDS pp pp pp
0.0000000000000000e+00 1.1000000000000000e+01
0.0000000000000000e+00 1.1002000000000001e+01
0.0000000000000000e+00 1.1000000000000000e+01
ITEM: ATOMS id type x y z 
10 1 4.59831 4.58916 4.60563 
11 1 3.09351 3.07676 3.09691 
12 1 3.78826 3.81778 3.78539 
46 1 0.747948 0.751465 0.734695 
47 1 2.28041 2.28478 2.28036 
48 1 1.57694 1.56817 1.57198 
19 1 4.53022 4.52851 6.24095 
20 1 3.00005 2.99876 7.78012 
21 1 3.69947 3.70624 7.06462 
31 1 0.694613 0.68244 10.0936 
32 1 2.19024 2.17883 8.57642 
33 1 1.48363 1.4989 9.31573 
16 1 4.53642 6.23412 4.53393 
17 1 2.99569 7.77169 3.00548 
18 1 3.71516 7.06724 3.70433 
25 1 0.701692 10.1154 0.684559 
26 1 2.19008 8.58508 2.18883 
27 1 1.49065 9.30333 1.48242 
4 1 4.58822 6.17021 6.16761 
5 1 3.09526 7.68464 7.68534 
6 1 3.7819 6.96539 6.96739 
37 1 0.731392 10.0358 10.0268 
38 1 2.2748 8.49156 8.49329 
39 1 1.57011 9.20289 9.19491 
13 1 6.23611 4.53515 4.53186 
14 1 7.77333 2.99392 3.00396 
15 1 7.06952 3.71146 3.70034 
28 1 10.114 0.700662 0.685153 
29 1 8.5843 2.18838 2.18817 
30 1 9.30504 1.49045 1.48323 
1 1 6.16722 4.58235 6.16327 
2 1 7.68267 3.0858 7.67517 
3 1 6.96586 3.80272 6.98459 
40 1 10.036 0.734667 10.025 
41 1 8.49188 2.27751 8.49141 
42 1 9.19762 1.56726 9.19385 
7 1 6.17199 6.17269 4.59001 
8 1 7.74865 7.74467 3.19634 
9 1 7.00079 7.01492 3.83267 
43 1 10.0692 10.0717 0.775374 
44 1 8.36399 8.36379 2.02873 
45 1 9.29553 9.29629 1.70118 
51 3 7.71154 7.72805 0.722338 
22 1 6.23481 6.2346 6.23743 
23 1 7.78926 7.79667 7.74685 
24 1 7.057 7.06205 7.03952 
34 1 10.1431 10.1545 10.1158 
35 1 8.59393 8.61034 8.45859 
36 1 9.22535 9.17349 9.47595 
49 2 8.93028 8.67657 10.4455 
50 2 7.4961 8.1462 10.9214 
ITEM: TIMESTEP
40
ITEM: NUMBER OF ATOMS
51
ITEM: BOX BOUNDS pp pp pp
0.0000000000000000e+00 1.1000000000000000e+01
0.0000000000000000e+00 1.1002000000000001e+01
0.0000000000000000e+00 1.1000000000000000e+01
ITEM: ATOMS id type x y z 
10 1 4.60275 4.60365 4.60059 
11 1 3.08913 3.09054 3.09089 
12 1 3.79707 3.79723 3.79778 
46 1 0.7543 0.750149 0.736496 
47 1 2.2831 2.27883 2.28371 
48 1 1.57733 1.57875 1.56953 
19 1 4.52909 4.53153 6.23759 
20 1 2.99561 2.99825 7.77481 
21 1 3.70667 3.70397 7.07065 
31 1 0.682639 0.681154 10.1057 
32 1 2.19135 2.19116 8.58714 
33 1 1.48626 1.48188 9.29511 
16 1 4.54833 6.24189 4.52657 
17 1 2.99744 7.77544 2.99979 
18 1 3.70513 7.06696 3.70555 
25 1 0.699453 10.113 0.680394 
26 1 2.19131 8.58611 2.191 
27 1 1.49134 9.3006 1.48147 
4 1 4.58882 6.16387 6.16758 
5 1 3.08365 7.68068 7.68257 
6 1 3.79686 6.97689 6.97641 
37 1 0.72424 10.0368 10.0306 
38 1 2.27644 8.4964 8.49368 
39 1 1.56283 9.19831 9.19837 
13 1 6.24156 4.54923 4.52781 
14 1 7.77306 2.99868 3.00109 
15 1 7.06542 3.70699 3.70752 
28 1 10.1124 0.697639 0.68124 
29 1 8.58451 2.18949 2.19184 
30 1 9.30214 1.49325 1.48134 
1 1 6.1651 4.59698 6.1678 
2 1 7.67991 3.09076 7.68625 
3 1 6.97322 3.78913 6.96873 
40 1 10.0328 0.723791 10.0274 
41 1 8.49117 2.27401 8.4907 
42 1 9.2023 1.56945 9.19557 
7 1 6.17498 6.17852 4.58791 
8 1 7.74538 7.75511 3.18094 
9 1 7.03556 7.02445 3.84934 
43 1 10.0694 10.0717 0.789784 
44 1 8.35445 8.35385 1.99878 
45 1 9.28693 9.28789 1.69773 
51 3 7.69481 7.70329 0.726662 
22 1 6.23555 6.23596 6.23379 
23 1 7.79205 7.80275 7.72622 
24 1 7.06481 7.06918 7.03604 
34 1 10.1336 10.1412 10.1203 
35 1 8.60015 8.6213 8.44931 
36 1 9.2111 9.1516 9.49776 
49 2 8.94654 8.67968 10.4672 
50 2 7.48001 8.14598 10.922 
ITEM: TIMESTEP
50
ITEM: NUMBER OF ATOMS
51
ITEM: BOX BOUNDS pp pp pp
0.0000000000000000e+00 1.1000000000000000e+01
0.0000000000000000e+00 1.1002000000000001e+01
0.0000000000000000e+00 1.1000000000000000e+01
ITEM: ATOMS id type x y z 
10 1 4.6029 4.60461 4.60033 
11 1 3.09116 3.09167 3.09279 
12 1 3.79912 3.80031 3.79991 
46 1 0.752449 0.751327 0.73357 
47 1 2.28316 2.28041 2.28301 
48 1 1.57835 1.57728 1.57082 
19 1 4.533 4.53441 6.23686 
20 1 2.99865 2.99925 7.77567 
21 1 3.70433 3.70493 7.06618 
31 1 0.683649 0.680965 10.102 
32 1 2.18994 2.1885 8.58837 
33 1 1.48253 1.48094 9.29806 
16 1 4.55057 6.24354 4.52848 
17 1 2.99644 7.77215 3.00264 
18 1 3.71156 7.06849 3.70428 
25 1 0.699961 10.1147 0.681019 
26 1 2.19139 8.58626 2.1901 
27 1 1.49167 9.3019 1.48182 
4 1 4.593 6.16731 6.16774 
5 1 3.08782 7.68266 7.68294 
6 1 3.79111 6.97214 6.97378 
37 1 0.716415 10.0319 10.0309 
38 1 2.27456 8.49668 8.49508 
39 1 1.56132 9.19928 9.19781 
13 1 6.24301 4.55145 4.52818 
14 1 7.77113 2.99667 3.00256 
15 1 7.06829 3.71148 3.70497 
28 1 10.1137 0.699326 0.681522 
29 1 8.58506 2.19011 2.19076 
30 1 9.30281 1.49268 1.48243 
1 1 6.16682 4.59415 6.16605 
2 1 7.67988 3.08858 7.68198 
3 1 6.97099 3.79445 6.97364 
40 1 10.031 0.718202 10.0284 
41 1 8.49496 2.27584 8.4925 
42 1 9.19772 1.56253 9.1955 
7 1 6.18411 6.18385 4.59121 
8 1 7.75498 7.7572 3.18219 
9 1 7.0343 7.03571 3.8491 
43 1 10.0695 10.0732 0.793566 
44 1 8.34643 8.34563 1.97966 
45 1 9.28239 9.28425 1.6934 
51 3 7.6813 7.68876 0.720713 
22 1 6.23619 6.23782 6.23415 
23 1 7.79688 7.80958 7.71368 
24 1 7.06934 7.0758 7.03311 
34 1 10.1282 10.1358 10.126 
35 1 8.60294 8.62615 8.44446 
36 1 9.20594 9.14379 9.50491 
49 2 8.9565 8.67823 10.4894 
50 2 7.47063 8.14316 10.9269 
ITEM: TIMESTEP
60
ITEM: NUMBER OF ATOMS
51
ITEM: BOX BOUNDS pp pp pp
0.0000000000000000e+00 1.1000000000000000e+01
0.0000000000000000e+00 1.1002000000000001e+01
0.0000000000000000e+00 1.1000000000000000e+01
ITEM: ATOMS id type x y z 
10 1 4.61302 4.61014 4.60749 
11 1 3.0947 3.09052 3.10263 
12 1 3.80531 3.81329 3.7938 
46 1 0.754997 0.754013 0.724402 
47 1 2.28254 2.28215 2.28488 
48 1 1.58436 1.58094 1.56688 
19 1 4.53644 4.53855 6.23185 
20 1 3.00169 3.00113 7.77056 
21 1 3.70667 3.7081 7.06725 
31 1 0.669741 0.667672 10.0941 
32 1 2.18773 2.18687 8.58733 
33 1 1.4833 1.48105 9.29969 
16 1 4.57637 6.25948 4.53144 
17 1 2.99793 7.7701 3.00722 
18 1 3.72191 7.06434 3.6994 
25 1 0.705789 10.1203 0.682543 
26 1 2.19382 8.58629 2.19104 
27 1 1.49275 9.30175 1.4835 
4 1 4.59164 6.16937 6.16419 
5 1 3.08501 7.68446 7.68275 
6 1 3.79199 6.97522 6.97685 
37 1 0.691663 10.0199 10.0341 
38 1 2.26986 8.49976 8.49764 
39 1 1.55153 9.19725 9.20032 
13 1 6.25541 4.57877 4.52519 
14 1 7.76751 2.99865 3.00273 
15 1 7.06841 3.71919 3.70718 
28 1 10.1169 0.703775 0.684245 
29 1 8.58275 2.18882 2.19491 
30 1 9.30569 1.50317 1.47938 
1 1 6.16748 4.59415 6.16353 
2 1 7.6839 3.08644 7.6812 
3 1 6.97143 3.7933 6.97762 
40 1 10.0172 0.692612 10.028 
41 1 8.50056 2.273 8.49661 
42 1 9.19179 1.54898 9.19688 
7 1 6.2123 6.21377 4.60639 
8 1 7.77748 7.78134 3.18322 
9 1 7.04926 7.05281 3.82794 
43 1 10.068 10.0741 0.81762 
44 1 8.31427 8.30611 1.91427 
45 1 9.25036 9.25539 1.66498 
51 3 7.62935 7.62884 0.713783 
22 1 6.24422 6.24519 6.23336 
23 1 7.82305 7.8488 7.6646 
24 1 7.08655 7.09847 7.0118 
34 1 10.1069 10.1146 10.15 
35 1 8.61579 8.64627 8.43394 
36 1 9.18183 9.10609 9.54724 
49 2 9.00331 8.67665 10.5687 
50 2 7.42748 8.13408 10.9377 
ITEM: TIMESTEP
70
ITEM: NUMBER OF ATOMS
51
ITEM: BOX BOUNDS pp pp pp
0.0000000000000000e+00 1.1000000000000000e+01
0.0000000000000000e+00 1.1002000000000001e+01
0.0000000000000000e+00 1.1000000000000000e+01
ITEM: ATOMS id type x y z 
10 1 4.63018 4.63033 4.60174 
11 1 3.10003 3.09883 3.1066 
12 1 3.81329 3.81438 3.80017 
46 1 0.756771 0.756004 0.707362 
47 1 2.28455 2.28332 2.28483 
48 1 1.58607 1.58505 1.56364 
19 1 4.54588 4.54745 6.2269 
20 1 3.00291 3.00252 7.77036 
21 1 3.70815 3.70834 7.06301 
31 1 0.656647 0.655057 10.0878 
32 1 2.18621 2.18468 8.59448 
33 1 1.47268 1.47124 9.29027 
16 1 4.60433 6.27466 4.5319 
17 1 3.00177 7.76313 3.00691 
18 1 3.73507 7.06978 3.69928 
25 1 0.705102 10.1263 0.685076 
26 1 2.19494 8.58265 2.19345 
27 1 1.50063 9.30651 1.48881 
4 1 4.60163 6.17533 6.16488 
5 1 3.08236 7.68681 7.68698 
6 1 3.78868 6.98317 6.9746 
37 1 0.668442 10.0058 10.0424 
38 1 2.26294 8.50633 8.50185 
39 1 1.53262 9.19026 9.20483 
13 1 6.27069 4.60612 4.52774 
14 1 7.75929 3.00089 3.00761 
15 1 7.07274 3.73536 3.70579 
28 1 10.1267 0.71089 0.681983 
29 1 8.5823 2.19738 2.19424 
30 1 9.30373 1.5021 1.48681 
1 1 6.17058 4.60346 6.16416 
2 1 7.68536 3.08457 7.68428 
3 1 6.97981 3.79191 6.97443 
40 1 9.99989 0.663288 10.0347 
41 1 8.50412 2.26614 8.49995 
42 1 9.18688 1.53281 9.20006 
7 1 6.24202 6.24534 4.61365 
8 1 7.79879 7.80459 3.15693 
9 1 7.08387 7.08883 3.8311 
43 1 10.0671 10.0788 0.853401 
44 1 8.27649 8.25621 1.84668 
45 1 9.21326 9.21933 1.60744 
51 3 7.55318 7.55182 0.696678 
22 1 6.25603 6.2544 6.23878 
23 1 7.85772 7.90248 7.59511 
24 1 7.11278 7.13328 6.97716 
34 1 10.0782 10.0842 10.1912 
35 1 8.62139 8.65668 8.44088 
36 1 9.16222 9.07236 9.59546 
49 2 9.06054 8.66244 10.6623 
50 2 7.36248 8.11234 10.9484 
ITEM: TIMESTEP
80
ITEM: NUMBER OF ATOMS
51
ITEM: BOX BOUNDS pp pp pp
0.0000000000000000e+00 1.1000000000000000e+01
0.0000000000000000e+00 1.1002000000000001e+01
0.0000000000000000e+00 1.1000000000000000e+01
ITEM: ATOMS id type x y z 
10 1 4.63019 4.6308 4.60005 
11 1 3.10108 3.10026 3.10437 
12 1 3.813 3.81265 3.80191 
46 1 0.756929 0.75762 0.70816 
47 1 2.28478 2.28348 2.28335 
48 1 1.58617 1.58585 1.56226 
19 1 4.54694 4.54991 6.22653 
20 1 3.00413 3.00352 7.76924 
21 1 3.70938 3.71021 7.06293 
31 1 0.657504 0.655322 10.0855 
32 1 2.18685 2.18409 8.59151 
33 1 1.47125 1.47186 9.28643 
16 1 4.60057 6.27364 4.53188 
17 1 3.00368 7.76065 3.00344 
18 1 3.73828 7.07646 3.70444 
25 1 0.707616 10.1278 0.688444 
26 1 2.19607 8.58323 2.19387 
27 1 1.49959 9.30518 1.48913 
4 1 4.60513 6.17571 6.16883 
5 1 3.08133 7.68828 7.68469 
6 1 3.79174 6.98299 6.97802 
37 1 0.675089 10.0066 10.0474 
38 1 2.25886 8.50305 8.49991 
39 1 1.53497 9.18931 9.20665 
13 1 6.27149 4.6034 4.53037 
14 1 7.75933 3.00251 3.00654 
15 1 7.07576 3.73855 3.70648 
28 1 10.1248 0.713639 0.684667 
29 1 8.5805 2.19738 2.1934 
30 1 9.30611 1.50425 1.48919 
1 1 6.17351 4.60642 6.16776 
2 1 7.68665 3.08406 7.68227 
3 1 6.97963 3.7941 6.97691 
40 1 10.0018 0.671207 10.0395 
41 1 8.5006 2.26192 8.49792 
42 1 9.18644 1.53477 9.20178 
7 1 6.23848 6.24132 4.61215 
8 1 7.79064 7.79462 3.15197 
9 1 7.08372 7.0879 3.8443 
43 1 10.0685 10.0813 0.855849 
44 1 8.27993 8.25784 1.85241 
45 1 9.21207 9.21383 1.59541 
51 3 7.54829 7.55812 0.692131 
22 1 6.25721 6.25768 6.24067 
23 1 7.85876 7.90416 7.59444 
24 1 7.11634 7.14038 6.96641 
34 1 10.0841 10.09 10.1974 
35 1 8.60889 8.63894 8.4637 
36 1 9.16945 9.0806 9.59323 
49 2 9.05657 8.64936 10.6378 
50 2 7.34934 8.0992 10.9414 
ITEM: TIMESTEP
88
ITEM: NUMBER OF ATOMS
51
ITEM: BOX BOUNDS pp pp pp
0.0000000000000000e+00 1.1000000000000000e+01
0.0000000000000000e+00 1.1002000000000001e+01
0.0000000000000000e+00 1.1000000000000000e+01
ITEM: ATOMS id type x y z 
10 1 4.62986 4.63052 4.59976 
11 1 3.10114 3.10022 3.10455 
12 1 3.81337 3.81318 3.80129 
46 1 0.757241 0.758116 0.708006 
47 1 2.28508 2.28378 2.28303 
48 1 1.58618 1.58588 1.56249 
19 1 4.54694 4.54982 6.22644 
20 1 3.00412 3.00345 7.76883 
21 1 3.70963 3.71061 7.06367 
31 1 0.656883 0.655817 10.0844 
32 1 2.18575 2.18431 8.59008 
33 1 1.47317 1.4713 9.28744 
16 1 4.60051 6.27336 4.53184 
17 1 3.00451 7.76051 3.00274 
18 1 3.7378 7.07726 3.70579 
25 1 0.708243 10.1278 0.689094 
26 1 2.19616 8.58286 2.19373 
27 1 1.49993 9.30557 1.48954 
4 1 4.60531 6.17634 6.16944 
5 1 3.08128 7.68836 7.68441 
6 1 3.79209 6.98297 6.97813 
37 1 0.675573 10.0067 10.0481 
38 1 2.25813 8.50246 8.4998 
39 1 1.5352 9.18952 9.20694 
13 1 6.2716 4.60308 4.53074 
14 1 7.75947 3.00328 3.00633 
15 1 7.07573 3.73849 3.70695 
28 1 10.1261 0.714684 0.685987 
29 1 8.58153 2.19817 2.19438 
30 1 9.30375 1.50358 1.4878 
1 1 6.17358 4.60681 6.1687 
2 1 7.68625 3.08389 7.68263 
3 1 6.98075 3.79447 6.97615 
40 1 10.0023 0.671853 10.0399 
41 1 8.5001 2.26123 8.49753 
42 1 9.1863 1.53502 9.2022 
7 1 6.2376 6.24045 4.61232 
8 1 7.78999 7.79335 3.15177 
9 1 7.08328 7.08768 3.84597 
43 1 10.0686 10.0813 0.855759 
44 1 8.27974 8.25753 1.85175 
45 1 9.2124 9.21357 1.59388 
51 3 7.54737 7.55853 0.691763 
22 1 6.25764 6.25827 6.24038 
23 1 7.85918 7.90467 7.59371 
24 1 7.11625 7.14108 6.96602 
34 1 10.0851 10.0911 10.1979 
35 1 8.60776 8.63742 8.46622 
36 1 9.17003 9.08096 9.5937 
49 2 9.05668 8.6475 10.6352 
50 2 7.34685 8.09728 10.9399 
ITEM: TIMESTEP
90
ITEM: NUMBER OF ATOMS
51
ITEM: BOX BOUNDS pp pp pp
0.0000000000000000e+00 1.1000000000000000e+01
0.0000000000000000e+00 1.1002000000000001e+01
0.0000000000000000e+00 1.1000000000000000e+01
ITEM: ATOMS id type x y z 
10 1 4.6297 4.63043 4.59994 
11 1 3.10113 3.10019 3.10467 
12 1 3.81346 3.81331 3.80103 
46 1 0.757258 0.758166 0.707977 
47 1 2.28514 2.28385 2.28301 
48 1 1.58614 1.58584 1.56244 
19 1 4.54703 4.54993 6.2265 
20 1 3.00426 3.0036 7.76879 
21 1 3.70962 3.71058 7.06352 
31 1 0.65719 0.65582 10.0846 
32 1 2.18604 2.18423 8.59021 
33 1 1.47261 1.47144 9.28692 
16 1 4.60034 6.27347 4.53211 
17 1 3.00446 7.76071 3.00288 
18 1 3.73801 7.07704 3.70549 
25 1 0.70829 10.1278 0.689142 
26 1 2.19618 8.58267 2.19364 
27 1 1.50001 9.30586 1.48975 
4 1 4.60533 6.17618 6.16966 
5 1 3.08131 7.68825 7.68448 
6 1 3.79207 6.98321 6.97795 
37 1 0.675664 10.0068 10.0482 
38 1 2.25798 8.50239 8.49978 
39 1 1.5353 9.18949 9.20697 
13 1 6.27169 4.60294 4.53088 
14 1 7.75962 3.00331 3.00635 
15 1 7.07564 3.73854 3.70681 
28 1 10.1259 0.714636 0.68588 
29 1 8.58119 2.19804 2.19415 
30 1 9.30435 1.50392 1.48826 
1 1 6.17362 4.60688 6.16879 
2 1 7.68636 3.08394 7.68249 
3 1 6.98057 3.79442 6.97638 
40 1 10.0023 0.671973 10.04 
41 1 8.49999 2.26111 8.49754 
42 1 9.18635 1.53503 9.20217 
7 1 6.23746 6.24039 4.61232 
8 1 7.78983 7.7931 3.15169 
9 1 7.08333 7.08772 3.84614 
43 1 10.0686 10.0813 0.855712 
44 1 8.27968 8.25745 1.85171 
45 1 9.21242 9.21348 1.59362 
51 3 7.54723 7.55862 0.691731 
22 1 6.25757 6.25848 6.24038 
23 1 7.85912 7.9049 7.59361 
24 1 7.11654 7.14098 6.96598 
34 1 10.0852 10.0912 10.198 
35 1 8.60758 8.63719 8.46662 
36 1 9.17014 9.08103 9.59378 
49 2 9.0567 8.64718 10.6348 
50 2 7.34642 8.09695 10.9396 
ITEM: TIMESTEP
100
ITEM: NUMBER OF ATOMS
51
ITEM: BOX BOUNDS pp pp pp
0.0000000000000000e+00 1.1000000000000000e+01
0.0000000000000000e+00 1.1002000000000001e+01
0.0000000000000000e+00 1.1000000000000000e+01
ITEM: ATOMS id type x y z 
10 1 4.62903 4.63013 4.59969 
11 1 3.10148 3.10056 3.10409 
12 1 3.81371 3.81354 3.80087 
46 1 0.75779 0.759261 0.708108 
47 1 2.28576 2.2846 2.28286 
48 1 1.58695 1.58643 1.56197 
19 1 4.54761 4.55042 6.22677 
20 1 3.00461 3.00402 7.76832 
21 1 3.7103 3.71124 7.06348 
31 1 0.657695 0.656545 10.0837 
32 1 2.18564 2.18417 8.58814 
33 1 1.47322 1.47135 9.28592 
16 1 4.59903 6.2735 4.53328 
17 1 3.00579 7.7614 3.0025 
18 1 3.73807 7.07751 3.70601 
25 1 0.709597 10.1286 0.690954 
26 1 2.19677 8.58213 2.19367 
27 1 1.50064 9.30601 1.49034 
4 1 4.60608 6.17688 6.17134 
5 1 3.0812 7.68889 7.68398 
6 1 3.79221 6.98304 6.97854 
37 1 0.677499 10.0077 10.0499 
38 1 2.2565 8.50131 8.49948 
39 1 1.53508 9.18894 9.20762 
13 1 6.27167 4.60149 4.53215 
14 1 7.76027 3.00475 3.00577 
15 1 7.07592 3.73895 3.70748 
28 1 10.1265 0.715711 0.687772 
29 1 8.58092 2.19844 2.19482 
30 1 9.30397 1.50515 1.48793 
1 1 6.17411 4.60805 6.17059 
2 1 7.68669 3.08373 7.68235 
3 1 6.98096 3.79478 6.97663 
40 1 10.0034 0.674152 10.0415 
41 1 8.49882 2.25944 8.49722 
42 1 9.18599 1.53484 9.20225 
7 1 6.23529 6.23865 4.61271 
8 1 7.788 7.78995 3.14994 
9 1 7.08331 7.08752 3.84963 
43 1 10.0694 10.0818 0.855074 
44 1 8.2789 8.25644 1.85059 
45 1 9.21231 9.21182 1.58974 
51 3 7.54473 7.55984 0.691069 
22 1 6.25816 6.26021 6.24014 
23 1 7.85993 7.90691 7.5921 
24 1 7.11756 7.14252 6.96505 
34 1 10.0875 10.0936 10.1988 
35 1 8.60493 8.63369 8.47289 
36 1 9.17188 9.08221 9.59512 
49 2 9.05727 8.64174 10.6289 
50 2 7.33938 8.09154 10.9353 
ITEM: TIMESTEP
110
ITEM: NUMBER OF ATOMS
51
ITEM: BOX BOUNDS pp pp pp
0.0000000000000000e+00 1.1000000000000000e+01
0.0000000000000000e+00 1.1002000000000001e+01
0.0000000000000000e+00 1.1000000000000000e+01
ITEM: ATOMS id type x y z 
10 1 4.6292 4.63015 4.59911 
11 1 3.1023 3.1011 3.10281 
12 1 3.81334 3.81369 3.80145 
46 1 0.758893 0.760831 0.708186 
47 1 2.28687 2.28548 2.28212 
48 1 1.58745 1.58748 1.56208 
19 1 4.54829 4.55093 6.22791 
20 1 3.00496 3.00451 7.76812 
21 1 3.71055 3.71144 7.06318 
31 1 0.659123 0.657281 10.0832 
32 1 2.18574 2.18378 8.58592 
33 1 1.47282 1.47171 9.28362 
16 1 4.59744 6.27313 4.53451 
17 1 3.00758 7.76227 3.00183 
18 1 3.73827 7.07798 3.70726 
25 1 0.710436 10.1301 0.693458 
26 1 2.19726 8.58191 2.19421 
27 1 1.502 9.30583 1.48997 
4 1 4.60689 6.17749 6.17349 
5 1 3.08029 7.68903 7.68407 
6 1 3.79295 6.98454 6.97877 
37 1 0.679851 10.0086 10.052 
38 1 2.25472 8.49996 8.49964 
39 1 1.53413 9.1885 9.20778 
13 1 6.27134 4.59995 4.53422 
14 1 7.76095 3.00703 3.00584 
15 1 7.07595 3.73942 3.70764 
28 1 10.1272 0.717071 0.689073 
29 1 8.58017 2.19976 2.19447 
30 1 9.30457 1.50551 1.48962 
1 1 6.17552 4.6097 6.17236 
2 1 7.68715 3.08349 7.68206 
3 1 6.98119 3.79512 6.97723 
40 1 10.0045 0.676322 10.0431 
41 1 8.49695 2.25711 8.49669 
42 1 9.18616 1.53481 9.20262 
7 1 6.23328 6.23692 4.61328 
8 1 7.78577 7.78607 3.14755 
9 1 7.08379 7.08738 3.85287 
43 1 10.0701 10.0821 0.854117 
44 1 8.2778 8.2553 1.84853 
45 1 9.21165 9.20938 1.58494 
51 3 7.5409 7.56091 0.689752 
22 1 6.2589 6.26196 6.24029 
23 1 7.86113 7.90956 7.59111 
24 1 7.11884 7.14499 6.9636 
34 1 10.0899 10.096 10.199 
35 1 8.60264 8.63096 8.47929 
36 1 9.17382 9.08317 9.59713 
49 2 9.05875 8.63406 10.624 
50 2 7.32979 8.08422 10.9299 
ITEM: TIMESTEP
120
ITEM: NUMBER OF ATOMS
51
ITEM: BOX BOUNDS pp pp pp
0.0000000000000000e+00 1.1000000000000000e+01
0.0000000000000000e+00 1.1002000000000001e+01
0.0000000000000000e+00 1.1000000000000000e+01
ITEM: ATOMS id type x y z 
10 1 4.62877 4.62992 4.59976 
11 1 3.1022 3.10116 3.10308 
12 1 3.8139 3.81394 3.80076 
46 1 0.758921 0.760979 0.708312 
47 1 2.28703 2.28559 2.28211 
48 1 1.58754 1.5877 1.56171 
19 1 4.54846 4.55107 6.22787 
20 1 3.00501 3.00454 7.76772 
21 1 3.71095 3.71191 7.06341 
31 1 0.659173 0.657608 10.083 
32 1 2.18543 2.18378 8.58509 
33 1 1.47337 1.47168 9.28396 
16 1 4.59706 6.27324 4.53502 
17 1 3.00779 7.76259 3.00206 
18 1 3.73844 7.07784 3.7068 
25 1 0.710583 10.1302 0.69345 
26 1 2.19768 8.58154 2.19358 
27 1 1.50166 9.3065 1.49122 
4 1 4.60723 6.17767 6.17375 
5 1 3.08031 7.68947 7.68386 
6 1 3.79273 6.98402 6.97929 
37 1 0.680017 10.0087 10.0521 
38 1 2.25419 8.49963 8.49937 
39 1 1.53454 9.18836 9.20817 
13 1 6.27119 4.59979 4.53433 
14 1 7.76114 3.00731 3.00534 
15 1 7.07613 3.73943 3.70829 
28 1 10.1275 0.716987 0.689494 
29 1 8.58014 2.19992 2.19442 
30 1 9.30463 1.50564 1.48978 
1 1 6.17533 4.60982 6.17272 
2 1 7.68712 3.08313 7.68195 
3 1 6.98151 3.79567 6.97757 
40 1 10.0048 0.676719 10.0432 
41 1 8.49685 2.25673 8.49637 
42 1 9.18564 1.53485 9.20296 
7 1 6.23313 6.23685 4.6135 
8 1 7.7855 7.78548 3.147 
9 1 7.0838 7.08727 3.85336 
43 1 10.0703 10.0821 0.853834 
44 1 8.2775 8.25505 1.84805 
45 1 9.21174 9.2092 1.5839 
51 3 7.5401 7.561 0.689457 
22 1 6.25933 6.2622 6.24 
23 1 7.8616 7.90987 7.59054 
24 1 7.11847 7.14566 6.96416 
34 1 10.09 10.0963 10.1992 
35 1 8.60239 8.63075 8.48018 
36 1 9.17414 9.08323 9.59763 
49 2 9.05915 8.63257 10.6235 
50 2 7.32796 8.08285 10.9289 
ITEM: TIMESTEP
130
ITEM: NUMBER OF ATOMS
51
ITEM: BOX BOUNDS pp pp pp
0.0000000000000000e+00 1.1000000000000000e+01
0.0000000000000000e+00 1.1002000000000001e+01
0.0000000000000000e+00 1.1000000000000000e+01
ITEM: ATOMS id type x y z 
10 1 4.62877 4.62994 4.59976 
11 1 3.10223 3.10121 3.10303 
12 1 3.81391 3.81392 3.8008 
46 1 0.75895 0.761029 0.708317 
47 1 2.28708 2.28563 2.2821 
48 1 1.58757 1.58774 1.56169 
19 1 4.54848 4.5511 6.22791 
20 1 3.005 3.00454 7.76771 
21 1 3.711 3.71193 7.0634 
31 1 0.659224 0.657618 10.083 
32 1 2.18544 2.18376 8.58498 
33 1 1.47334 1.4717 9.28392 
16 1 4.59701 6.27322 4.53507 
17 1 3.00786 7.7626 3.00205 
18 1 3.73845 7.07788 3.70683 
25 1 0.710655 10.1303 0.693477 
26 1 2.19775 8.58153 2.19353 
27 1 1.50161 9.30652 1.49132 
4 1 4.60726 6.17769 6.17382 
5 1 3.08028 7.68948 7.68386 
6 1 3.79275 6.98406 6.9793 
37 1 0.680033 10.0087 10.0521 
38 1 2.25406 8.49956 8.49934 
39 1 1.5346 9.18839 9.20825 
13 1 6.27118 4.59976 4.5344 
14 1 7.76116 3.00739 3.00533 
15 1 7.07613 3.73946 3.70833 
28 1 10.1275 0.717028 0.68955 
29 1 8.58015 2.19997 2.19441 
30 1 9.30463 1.50565 1.48982 
1 1 6.17536 4.60988 6.17278 
2 1 7.68712 3.0831 7.68195 
3 1 6.98154 3.79569 6.97758 
40 1 10.0048 0.676763 10.0432 
41 1 8.49678 2.25662 8.49636 
42 1 9.18567 1.53489 9.20298 
7 1 6.23308 6.2368 4.61353 
8 1 7.78545 7.78536 3.14688 
9 1 7.08382 7.08726 3.85344 
43 1 10.0703 10.0821 0.8538 
44 1 8.27745 8.255 1.84795 
45 1 9.21169 9.2091 1.58374 
51 3 7.53994 7.56102 0.689398 
22 1 6.25936 6.26227 6.24 
23 1 7.86165 7.90998 7.59051 
24 1 7.11851 7.14575 6.96415 
34 1 10.0901 10.0963 10.1992 
35 1 8.60235 8.63071 8.48035 
36 1 9.17419 9.08323 9.59773 
49 2 9.05923 8.63227 10.6234 
50 2 7.32759 8.08257 10.9287 
ITEM: TIMESTEP
140
ITEM: NUMBER OF ATOMS
51
ITEM: BOX BOUNDS pp pp pp
0.0000000000000000e+00 1.1000000000000000e+01
0.0000000000000000e+00 1.1002000000000001e+01
0.0000000000000000e+00 1.1000000000000000e+01
ITEM: ATOMS id type x y z 
10 1 4.62877 4.62994 4.59976 
11 1 3.10225 3.10123 3.10302 
12 1 3.81392 3.81392 3.80081 
46 1 0.758959 0.761053 0.70832 
47 1 2.2871 2.28565 2.28209 
48 1 1.58759 1.58776 1.56169 
19 1 4.5485 4.55111 6.22793 
20 1 3.00501 3.00454 7.7677 
21 1 3.711 3.71195 7.06341 
31 1 0.659239 0.657632 10.083 
32 1 2.18544 2.18376 8.58494 
33 1 1.47334 1.4717 9.28389 
16 1 4.59699 6.27321 4.53509 
17 1 3.00788 7.76261 3.00204 
18 1 3.73846 7.07788 3.70684 
25 1 0.710666 10.1303 0.693508 
26 1 2.19776 8.58153 2.19353 
27 1 1.50162 9.30653 1.49134 
4 1 4.60727 6.1777 6.17386 
5 1 3.08026 7.68947 7.68387 
6 1 3.79276 6.98409 6.9793 
37 1 0.680043 10.0087 10.0521 
38 1 2.25401 8.49953 8.49934 
39 1 1.53463 9.18841 9.20827 
13 1 6.27117 4.59973 4.53443 
14 1 7.76117 3.00742 3.00533 
15 1 7.07614 3.73948 3.70833 
28 1 10.1275 0.717041 0.689571 
29 1 8.58015 2.19999 2.19441 
30 1 9.30464 1.50566 1.48983 
1 1 6.17538 4.60991 6.17281 
2 1 7.68712 3.08309 7.68195 
3 1 6.98156 3.7957 6.97759 
40 1 10.0048 0.67679 10.0432 
41 1 8.49675 2.25658 8.49635 
42 1 9.18567 1.53489 9.20299 
7 1 6.23306 6.23678 4.61355 
8 1 7.78542 7.78531 3.14684 
9 1 7.08383 7.08726 3.85347 
43 1 10.0703 10.0821 0.853784 
44 1 8.27742 8.25498 1.8479 
45 1 9.21168 9.20906 1.58367 
51 3 7.53987 7.56103 0.689372 
22 1 6.25938 6.2623 6.24 
23 1 7.86167 7.91002 7.59051 
24 1 7.11852 7.1458 6.96414 
34 1 10.0901 10.0964 10.1992 
35 1 8.60233 8.6307 8.48042 
36 1 9.17422 9.08323 9.59778 
49 2 9.05927 8.63213 10.6233 
50 2 7.32743 8.08245 10.9287 
ITEM: TIMESTEP
150
ITEM: NUMBER OF ATOMS
51
ITEM: BOX BOUNDS pp pp pp
-1.5656180547456899e-03 1.1001565618054748e+01
-4.2336513542042502e-04 1.1002423365135421e+01
-5.3365151157155708e-03 1.1005336515115721e+01
ITEM: ATOMS id type x y z 
10 1 4.62873 4.63007 4.59908 
11 1 3.10163 3.1011 3.10073 
12 1 3.81337 3.81375 3.79911 
46 1 0.757455 0.760539 0.70353 
47 1 2.28612 2.28534 2.27888 
48 1 1.58636 1.58735 1.55774 
19 1 4.5484 4.5512 6.2285 
20 1 3.00437 3.00443 7.76981 
21 1 3.71062 3.71193 7.06481 
31 1 0.657687 0.657076 10.0876 
32 1 2.18444 2.18345 8.58794 
33 1 1.47226 1.47144 9.2875 
16 1 4.59689 6.27309 4.53435 
17 1 3.00728 7.76272 2.9997 
18 1 3.73809 7.07788 3.70524 
25 1 0.709186 10.1309 0.688665 
26 1 2.19678 8.58182 2.19027 
27 1 1.50055 9.30677 1.48752 
4 1 4.60722 6.17757 6.17434 
5 1 3.07962 7.68959 7.68594 
6 1 3.79221 6.98427 6.98078 
37 1 0.678497 10.0093 10.0567 
38 1 2.25295 8.49981 8.50233 
39 1 1.53339 9.18883 9.21202 
13 1 6.2712 4.59982 4.53368 
14 1 7.76174 3.00734 3.00299 
15 1 7.07647 3.73948 3.70673 
28 1 10.129 0.716544 0.684734 
29 1 8.58107 2.19969 2.19115 
30 1 9.30567 1.50543 1.48601 
1 1 6.1754 4.61005 6.17327 
2 1 7.68771 3.08295 7.684 
3 1 6.98203 3.79551 6.9791 
40 1 10.0063 0.676258 10.0478 
41 1 8.49766 2.25622 8.49934 
42 1 9.18684 1.53445 9.20671 
7 1 6.23304 6.23661 4.61291 
8 1 7.78593 7.78532 3.14457 
9 1 7.0844 7.08749 3.85179 
43 1 10.0717 10.0825 0.849091 
44 1 8.27816 8.25515 1.84437 
45 1 9.21284 9.20944 1.57969 
51 3 7.54041 7.56121 0.684712 
22 1 6.25948 6.26224 6.24049 
23 1 7.86224 7.9101 7.59245 
24 1 7.1189 7.14589 6.96545 
34 1 10.0917 10.097 10.2038 
35 1 8.60319 8.63091 8.48337 
36 1 9.1753 9.08353 9.6018 
49 2 9.06032 8.63228 10.6283 
50 2 7.32782 8.08255 10.9339 
ITEM: TIMESTEP
160
ITEM: NUMBER OF ATOMS
51
ITEM: BOX BOUNDS pp pp pp
-1.4176298570296665e-03 1.1001417629857031e+01
1.7035911412620957e-03 1.1000296408858738e+01
-1.0836515115715572e-02 1.1010836515115725e+01
ITEM: ATOMS id type x y z 
10 1 4.62909 4.63077 4.59858 
11 1 3.1018 3.10214 3.09841 
12 1 3.81334 3.81428 3.79728 
46 1 0.75729 0.762102 0.698474 
47 1 2.28599 2.28637 2.27538 
48 1 1.58636 1.58876 1.55368 
19 1 4.54875 4.5519 6.22896 
20 1 3.00469 3.00565 7.77183 
21 1 3.71079 3.71275 7.06625 
31 1 0.657535 0.65865 10.0926 